<event>
 4    1  0.2889985E+000  0.2460446E+03  0.7818608E-02  0.1115830E+00
         21   -1    0    0  503  502  0.00000000000E+00  0.00000000000E+00  0.32424634178E+03  0.32424634178E+03  0.00000000000E+00 0.  1.
         21   -1    0    0  501  503 -0.00000000000E+00 -0.00000000000E+00 -0.30781543341E+03  0.30781543341E+03  0.00000000000E+00 0.  1.
          6    1    1    2  501    0  0.10376167448E+03 -0.14208264410E+03 -0.19001829969E+03  0.31087765610E+03  0.17200000000E+03 0.  1.
         -6    1    1    2    0  502 -0.10376167448E+03  0.14208264410E+03  0.20644920806E+03  0.32118411909E+03  0.17200000000E+03 0.  1.
</event>
<event>
 4    1  0.2889985E+000  0.1742026E+03  0.7818608E-02  0.1173535E+00
         21   -1    0    0  501  502  0.00000000000E+00  0.00000000000E+00  0.38100940160E+02  0.38100940160E+02  0.00000000000E+00 0.  1.
         21   -1    0    0  502  503 -0.00000000000E+00 -0.00000000000E+00 -0.85909902525E+03  0.85909902525E+03  0.00000000000E+00 0.  1.
          6    1    1    2  501    0 -0.27362277928E+02 -0.37238741643E+01 -0.53161396251E+03  0.55942824976E+03  0.17200000000E+03 0.  1.
         -6    1    1    2    0  503  0.27362277928E+02  0.37238741643E+01 -0.28938412258E+03  0.33777171565E+03  0.17200000000E+03 0.  1.
</event>
<event>
 4    1  0.2889985E+000  0.2168845E+03  0.7818608E-02  0.1136227E+00
         21   -1    0    0  503  502  0.00000000000E+00  0.00000000000E+00  0.10799040980E+03  0.10799040980E+03  0.00000000000E+00 0. -1.
         21   -1    0    0  501  503 -0.00000000000E+00 -0.00000000000E+00 -0.71964421527E+03  0.71964421527E+03  0.00000000000E+00 0.  1.
          6    1    1    2  501    0 -0.10957227663E+03  0.73816049018E+02 -0.56581589159E+03  0.60595917031E+03  0.17200000000E+03 0.  1.
         -6    1    1    2    0  502  0.10957227663E+03 -0.73816049018E+02 -0.45837913877E+02  0.22167545477E+03  0.17200000000E+03 0.  1.
</event>
<event>
 4    1  0.2889985E+000  0.2779823E+03  0.7818608E-02  0.1096796E+00
         21   -1    0    0  503  502  0.00000000000E+00  0.00000000000E+00  0.38730335607E+03  0.38730335607E+03  0.00000000000E+00 0.  1.
         21   -1    0    0  501  503 -0.00000000000E+00 -0.00000000000E+00 -0.21276301990E+03  0.21276301990E+03  0.00000000000E+00 0. -1.
          6    1    1    2  501    0 -0.14437852384E+03  0.16384449859E+03  0.16212840960E+03  0.32180708361E+03  0.17200000000E+03 0.  1.
         -6    1    1    2    0  502  0.14437852384E+03 -0.16384449859E+03  0.12411926575E+02  0.27825929236E+03  0.17200000000E+03 0. -1.
</event>
<event>
 4    1  0.2889985E+000  0.3562090E+03  0.7818608E-02  0.1060095E+00
         21   -1    0    0  503  502  0.00000000000E+00  0.00000000000E+00  0.12492581577E+04  0.12492581577E+04  0.00000000000E+00 0. -1.
         21   -1    0    0  501  503 -0.00000000000E+00 -0.00000000000E+00 -0.12313659669E+03  0.12313659669E+03  0.00000000000E+00 0.  1.
          6    1    1    2  501    0  0.17297620940E+03 -0.25957679053E+03  0.27587389814E+03  0.45054554362E+03  0.17200000000E+03 0.  1.
         -6    1    1    2    0  502 -0.17297620940E+03  0.25957679053E+03  0.85024766287E+03  0.92184921078E+03  0.17200000000E+03 0. -1.
</event>
<event>
 4    1  0.2889985E+000  0.2176042E+03  0.7818608E-02  0.1135682E+00
         21   -1    0    0  501  502  0.00000000000E+00  0.00000000000E+00  0.12085678837E+03  0.12085678837E+03  0.00000000000E+00 0.  1.
         21   -1    0    0  502  503 -0.00000000000E+00 -0.00000000000E+00 -0.73111617306E+03  0.73111617306E+03  0.00000000000E+00 0. -1.
          6    1    1    2  501    0  0.10548792179E+03 -0.81485592392E+02 -0.14924380246E+02  0.21811542938E+03  0.17200000000E+03 0.  1.
         -6    1    1    2    0  503 -0.10548792179E+03  0.81485592392E+02 -0.59533500445E+03  0.63385753204E+03  0.17200000000E+03 0. -1.
</event>
<event>
 4    1  0.2889985E+000  0.1724555E+03  0.7818608E-02  0.1175311E+00
         21   -1    0    0  501  502  0.00000000000E+00  0.00000000000E+00  0.19828962793E+03  0.19828962793E+03  0.00000000000E+00 0. -1.
         21   -1    0    0  502  503 -0.00000000000E+00 -0.00000000000E+00 -0.15626079290E+03  0.15626079290E+03  0.00000000000E+00 0. -1.
          6    1    1    2  501    0  0.10486759054E+02 -0.68499851121E+01  0.56535255397E+02  0.18148589343E+03  0.17200000000E+03 0. -1.
         -6    1    1    2    0  503 -0.10486759054E+02  0.68499851121E+01 -0.14506420363E+02  0.17306452740E+03  0.17200000000E+03 0. -1.
</event>
<event>
 4    1  0.2889985E+000  0.1949585E+03  0.7818608E-02  0.1154064E+00
         21   -1    0    0  503  502  0.00000000000E+00  0.00000000000E+00  0.43057327660E+03  0.43057327660E+03  0.00000000000E+00 0.  1.
         21   -1    0    0  501  503 -0.00000000000E+00 -0.00000000000E+00 -0.18466211006E+03  0.18466211006E+03  0.00000000000E+00 0.  1.
          6    1    1    2  501    0 -0.48825690139E+02  0.77722950348E+02 -0.99289499381E+02  0.21878576214E+03  0.17200000000E+03 0.  1.
         -6    1    1    2    0  502  0.48825690139E+02 -0.77722950348E+02  0.34520066592E+03  0.39644962452E+03  0.17200000000E+03 0.  1.
</event>
<event>
 4    1  0.2889985E+000  0.1954439E+03  0.7818608E-02  0.1153641E+00
         21   -1    0    0  503  502  0.00000000000E+00  0.00000000000E+00  0.48400986380E+03  0.48400986380E+03  0.00000000000E+00 0.  1.
         21   -1    0    0  501  503 -0.00000000000E+00 -0.00000000000E+00 -0.17400069374E+03  0.17400069374E+03  0.00000000000E+00 0. -1.
          6    1    1    2  501    0 -0.74859906117E+02  0.54866418867E+02 -0.88200285637E+02  0.21442392555E+03  0.17200000000E+03 0. -1.
         -6    1    1    2    0  502  0.74859906117E+02 -0.54866418867E+02  0.39820945571E+03  0.44358663199E+03  0.17200000000E+03 0.  1.
</event>
<event>
 4    1  0.2889985E+000  0.1988253E+03  0.7818608E-02  0.1150734E+00
         21   -1    0    0  501  502  0.00000000000E+00  0.00000000000E+00  0.20777633459E+02  0.20777633459E+02  0.00000000000E+00 0.  1.
         21   -1    0    0  502  503 -0.00000000000E+00 -0.00000000000E+00 -0.20572342351E+04  0.20572342351E+04  0.00000000000E+00 0.  1.
          6    1    1    2  501    0 -0.96570607744E+02 -0.24932288209E+02 -0.73336886252E+03  0.75984300338E+03  0.17200000000E+03 0.  1.
         -6    1    1    2    0  503  0.96570607744E+02  0.24932288209E+02 -0.13030877391E+04  0.13181688652E+04  0.17200000000E+03 0.  1.
</event>
<event>
 4    1  0.2889985E+000  0.2025118E+03  0.7818608E-02  0.1147637E+00
         21   -1    0    0  503  502  0.00000000000E+00  0.00000000000E+00  0.84981795073E+02  0.84981795073E+02  0.00000000000E+00 0.  1.
         21   -1    0    0  501  503 -0.00000000000E+00 -0.00000000000E+00 -0.49114510873E+03  0.49114510873E+03  0.00000000000E+00 0. -1.
          6    1    1    2  501    0  0.60384890140E+02  0.88208321802E+02 -0.24110865265E+03  0.31487207779E+03  0.17200000000E+03 0.  1.
         -6    1    1    2    0  502 -0.60384890140E+02 -0.88208321802E+02 -0.16505466101E+03  0.26125482601E+03  0.17200000000E+03 0.  1.
</event>
<event>
 4    1  0.2889985E+000  0.1783599E+03  0.7818608E-02  0.1169400E+00
         21   -1    0    0  503  502  0.00000000000E+00  0.00000000000E+00  0.63433720096E+03  0.63433720096E+03  0.00000000000E+00 0. -1.
         21   -1    0    0  501  503 -0.00000000000E+00 -0.00000000000E+00 -0.90994462175E+02  0.90994462175E+02  0.00000000000E+00 0. -1.
          6    1    1    2  501    0 -0.12334688075E+02 -0.45564216592E+02  0.28695128882E+02  0.18065340513E+03  0.17200000000E+03 0. -1.
         -6    1    1    2    0  502  0.12334688075E+02  0.45564216592E+02  0.51464760990E+03  0.54467825800E+03  0.17200000000E+03 0. -1.
</event>
<event>
 4    1  0.2889985E+000  0.2569147E+03  0.7818608E-02  0.1109011E+00
         21   -1    0    0  501  502  0.00000000000E+00  0.00000000000E+00  0.28236338898E+03  0.28236338898E+03  0.00000000000E+00 0. -1.
         21   -1    0    0  502  503 -0.00000000000E+00 -0.00000000000E+00 -0.30318776291E+03  0.30318776291E+03  0.00000000000E+00 0. -1.
          6    1    1    2  501    0  0.14207685849E+02  0.19031366630E+03  0.12969063380E+03  0.28779299924E+03  0.17200000000E+03 0. -1.
         -6    1    1    2    0  503 -0.14207685849E+02 -0.19031366630E+03 -0.15051500774E+03  0.29775815265E+03  0.17200000000E+03 0. -1.
</event>
<event>
 4    1  0.2889985E+000  0.2850758E+03  0.7818608E-02  0.1092949E+00
         21   -1    0    0  503  502  0.00000000000E+00  0.00000000000E+00  0.11068128871E+03  0.11068128871E+03  0.00000000000E+00 0. -1.
         21   -1    0    0  501  503 -0.00000000000E+00 -0.00000000000E+00 -0.76411362177E+03  0.76411362177E+03  0.00000000000E+00 0. -1.
          6    1    1    2  501    0  0.78732782866E+02 -0.21327290741E+03 -0.41318091700E+03  0.50198272311E+03  0.17200000000E+03 0. -1.
         -6    1    1    2    0  502 -0.78732782866E+02  0.21327290741E+03 -0.24025141607E+03  0.37281218737E+03  0.17200000000E+03 0. -1.
</event>
<event>
 4    1  0.2889985E+000  0.2105023E+03  0.7818608E-02  0.1141169E+00
         21   -1    0    0  501  502  0.00000000000E+00  0.00000000000E+00  0.19115820496E+03  0.19115820496E+03  0.00000000000E+00 0. -1.
         21   -1    0    0  502  503 -0.00000000000E+00 -0.00000000000E+00 -0.27326165833E+03  0.27326165833E+03  0.00000000000E+00 0.  1.
          6    1    1    2  501    0  0.11719891842E+03  0.31489887516E+02  0.49395413568E+02  0.21622004157E+03  0.17200000000E+03 0. -1.
         -6    1    1    2    0  503 -0.11719891842E+03 -0.31489887516E+02 -0.13149886693E+03  0.24819982172E+03  0.17200000000E+03 0.  1.
</event>
<event>
 4    1  0.2889985E+000  0.2305614E+03  0.7818608E-02  0.1126245E+00
         21   -1    0    0  503  502  0.00000000000E+00  0.00000000000E+00  0.12531791950E+04  0.12531791950E+04  0.00000000000E+00 0.  1.
         21   -1    0    0  501  503 -0.00000000000E+00 -0.00000000000E+00 -0.44455313369E+02  0.44455313369E+02  0.00000000000E+00 0. -1.
          6    1    1    2  501    0 -0.12548808567E+03  0.88471984206E+02  0.46549857793E+03  0.51946845688E+03  0.17200000000E+03 0. -1.
         -6    1    1    2    0  502  0.12548808567E+03 -0.88471984206E+02  0.74322530374E+03  0.77816605153E+03  0.17200000000E+03 0.  1.
</event>
<event>
 4    1  0.2889985E+000  0.1786676E+03  0.7818608E-02  0.1169099E+00
         21   -1    0    0  503  502  0.00000000000E+00  0.00000000000E+00  0.23951750154E+03  0.23951750154E+03  0.00000000000E+00 0.  1.
         21   -1    0    0  501  503 -0.00000000000E+00 -0.00000000000E+00 -0.20134496249E+03  0.20134496249E+03  0.00000000000E+00 0.  1.
          6    1    1    2  501    0  0.25012385873E+02  0.41382351437E+02 -0.10908032936E+03  0.20933379257E+03  0.17200000000E+03 0.  1.
         -6    1    1    2    0  502 -0.25012385873E+02 -0.41382351437E+02  0.14725286840E+03  0.23152867146E+03  0.17200000000E+03 0.  1.
</event>
<event>
 4    1  0.2889985E+000  0.1852149E+03  0.7818608E-02  0.1162849E+00
         21   -1    0    0  501  502  0.00000000000E+00  0.00000000000E+00  0.17318413561E+03  0.17318413561E+03  0.00000000000E+00 0. -1.
         21   -1    0    0  502  503 -0.00000000000E+00 -0.00000000000E+00 -0.66894552280E+03  0.66894552280E+03  0.00000000000E+00 0.  1.
          6    1    1    2  501    0 -0.46111894590E+02  0.50933890842E+02  0.10538491512E+03  0.21309750912E+03  0.17200000000E+03 0. -1.
         -6    1    1    2    0  503  0.46111894590E+02 -0.50933890842E+02 -0.60114630231E+03  0.62903214929E+03  0.17200000000E+03 0.  1.
</event>
<event>
 4    1  0.2889985E+000  0.2077448E+03  0.7818608E-02  0.1143364E+00
         21   -1    0    0  501  502  0.00000000000E+00  0.00000000000E+00  0.85281703396E+02  0.85281703396E+02  0.00000000000E+00 0. -1.
         21   -1    0    0  502  503 -0.00000000000E+00 -0.00000000000E+00 -0.50692882088E+03  0.50692882088E+03  0.00000000000E+00 0. -1.
          6    1    1    2  501    0 -0.55417633606E+02  0.10248305598E+03 -0.22306285948E+03  0.30481950423E+03  0.17200000000E+03 0. -1.
         -6    1    1    2    0  503  0.55417633606E+02 -0.10248305598E+03 -0.19858425800E+03  0.28739102005E+03  0.17200000000E+03 0. -1.
</event>
<event>
 4    1  0.2889985E+000  0.2216253E+03  0.7818608E-02  0.1132677E+00
         21   -1    0    0  503  502  0.00000000000E+00  0.00000000000E+00  0.34523708779E+03  0.34523708779E+03  0.00000000000E+00 0.  1.
         21   -1    0    0  501  503 -0.00000000000E+00 -0.00000000000E+00 -0.58705556032E+03  0.58705556032E+03  0.00000000000E+00 0. -1.
          6    1    1    2  501    0  0.26592720143E+02 -0.13720998432E+03 -0.52665759102E+03  0.57138950877E+03  0.17200000000E+03 0. -1.
         -6    1    1    2    0  502 -0.26592720143E+02  0.13720998432E+03  0.28483911849E+03  0.36090313934E+03  0.17200000000E+03 0.  1.
</event>
<event>
 4    1  0.2889985E+000  0.1936613E+03  0.7818608E-02  0.1155200E+00
         21   -1    0    0  503  502  0.00000000000E+00  0.00000000000E+00  0.63380080395E+03  0.63380080395E+03  0.00000000000E+00 0.  1.
         21   -1    0    0  501  503 -0.00000000000E+00 -0.00000000000E+00 -0.60871452589E+02  0.60871452589E+02  0.00000000000E+00 0.  1.
          6    1    1    2  501    0 -0.76501285492E+02  0.45478139273E+02  0.34446171293E+03  0.39516905181E+03  0.17200000000E+03 0.  1.
         -6    1    1    2    0  502  0.76501285492E+02 -0.45478139273E+02  0.22846763844E+03  0.29950320473E+03  0.17200000000E+03 0.  1.
</event>
<event>
 4    1  0.2889985E+000  0.1817532E+03  0.7818608E-02  0.1166117E+00
         21   -1    0    0  501  502  0.00000000000E+00  0.00000000000E+00  0.50839891075E+03  0.50839891075E+03  0.00000000000E+00 0. -1.
         21   -1    0    0  502  503 -0.00000000000E+00 -0.00000000000E+00 -0.69795372912E+02  0.69795372912E+02  0.00000000000E+00 0. -1.
          6    1    1    2  501    0  0.12791525055E+02  0.57328949866E+02  0.29526109063E+03  0.34671795922E+03  0.17200000000E+03 0.  1.
         -6    1    1    2    0  503 -0.12791525055E+02 -0.57328949866E+02  0.14334244721E+03  0.23147632444E+03  0.17200000000E+03 0.  1.
</event>
<event>
 4    1  0.2889985E+000  0.2325029E+03  0.7818608E-02  0.1124890E+00
         21   -1    0    0  501  502  0.00000000000E+00  0.00000000000E+00  0.94804890549E+02  0.94804890549E+02  0.00000000000E+00 0.  1.
         21   -1    0    0  502  503 -0.00000000000E+00 -0.00000000000E+00 -0.71093498804E+03  0.71093498804E+03  0.00000000000E+00 0.  1.
          6    1    1    2  501    0  0.15571123231E+03 -0.15087011562E+02 -0.48731262150E+03  0.53993628963E+03  0.17200000000E+03 0.  1.
         -6    1    1    2    0  503 -0.15571123231E+03  0.15087011562E+02 -0.12881747599E+03  0.26580358896E+03  0.17200000000E+03 0.  1.
</event>
<event>
 4    1  0.2889985E+000  0.1755819E+03  0.7818608E-02  0.1172149E+00
         21   -1    0    0  503  502  0.00000000000E+00  0.00000000000E+00  0.38407463432E+03  0.38407463432E+03  0.00000000000E+00 0.  1.
         21   -1    0    0  501  503 -0.00000000000E+00 -0.00000000000E+00 -0.86020372047E+02  0.86020372047E+02  0.00000000000E+00 0.  1.
          6    1    1    2  501    0 -0.29228392231E+02 -0.19766000309E+02  0.88245894775E+02  0.19651038554E+03  0.17200000000E+03 0.  1.
         -6    1    1    2    0  502  0.29228392231E+02  0.19766000309E+02  0.20980836750E+03  0.27358462083E+03  0.17200000000E+03 0.  1.
</event>
<event>
 4    1  0.2889985E+000  0.3680628E+03  0.7818608E-02  0.1055436E+00
         21   -1    0    0  503  502  0.00000000000E+00  0.00000000000E+00  0.32294860590E+03  0.32294860590E+03  0.00000000000E+00 0.  1.
         21   -1    0    0  501  503 -0.00000000000E+00 -0.00000000000E+00 -0.56179387794E+03  0.56179387794E+03  0.00000000000E+00 0.  1.
          6    1    1    2  501    0  0.89244510304E+02 -0.31292432806E+03 -0.34207292159E+03  0.50247796110E+03  0.17200000000E+03 0.  1.
         -6    1    1    2    0  502 -0.89244510304E+02  0.31292432806E+03  0.10322764955E+03  0.38226452273E+03  0.17200000000E+03 0.  1.
</event>
<event>
 4    1  0.2889985E+000  0.2000162E+03  0.7818608E-02  0.1149725E+00
         21   -1    0    0  503  502  0.00000000000E+00  0.00000000000E+00  0.19128498432E+03  0.19128498432E+03  0.00000000000E+00 0. -1.
         21   -1    0    0  501  503 -0.00000000000E+00 -0.00000000000E+00 -0.21784932443E+03  0.21784932443E+03  0.00000000000E+00 0.  1.
          6    1    1    2  501    0 -0.87163372352E+02  0.53151026423E+02  0.27606306976E+02  0.20191234057E+03  0.17200000000E+03 0. -1.
         -6    1    1    2    0  502  0.87163372352E+02 -0.53151026423E+02 -0.54170647090E+02  0.20722196818E+03  0.17200000000E+03 0.  1.
</event>
<event>
 4    1  0.2889985E+000  0.2770235E+03  0.7818608E-02  0.1097326E+00
         21   -1    0    0  501  502  0.00000000000E+00  0.00000000000E+00  0.30575079626E+03  0.30575079626E+03  0.00000000000E+00 0. -1.
         21   -1    0    0  502  503 -0.00000000000E+00 -0.00000000000E+00 -0.25132917667E+03  0.25132917667E+03  0.00000000000E+00 0.  1.
          6    1    1    2  501    0  0.12806059884E+03 -0.17538098815E+03  0.17058392806E+02  0.27754818815E+03  0.17200000000E+03 0.  1.
         -6    1    1    2    0  503 -0.12806059884E+03  0.17538098815E+03  0.37363226786E+02  0.27953178477E+03  0.17200000000E+03 0. -1.
</event>
<event>
 4    1  0.2889985E+000  0.2186925E+03  0.7818608E-02  0.1134862E+00
         21   -1    0    0  503  502  0.00000000000E+00  0.00000000000E+00  0.51025386997E+03  0.51025386997E+03  0.00000000000E+00 0. -1.
         21   -1    0    0  501  503 -0.00000000000E+00 -0.00000000000E+00 -0.96956072716E+02  0.96956072716E+02  0.00000000000E+00 0.  1.
          6    1    1    2  501    0  0.69465965529E+02  0.11583130163E+03  0.15127350657E+03  0.26591367884E+03  0.17200000000E+03 0.  1.
         -6    1    1    2    0  502 -0.69465965529E+02 -0.11583130163E+03  0.26202429068E+03  0.34129626384E+03  0.17200000000E+03 0.  1.
</event>
<event>
 4    1  0.2889985E+000  0.1958784E+03  0.7818608E-02  0.1153264E+00
         21   -1    0    0  501  502  0.00000000000E+00  0.00000000000E+00  0.84329064049E+03  0.84329064049E+03  0.00000000000E+00 0.  1.
         21   -1    0    0  502  503 -0.00000000000E+00 -0.00000000000E+00 -0.45819711713E+02  0.45819711713E+02  0.00000000000E+00 0.  1.
          6    1    1    2  501    0 -0.88961274344E+02  0.29499970594E+02  0.43596412589E+03  0.47794672889E+03  0.17200000000E+03 0.  1.
         -6    1    1    2    0  503  0.88961274344E+02 -0.29499970594E+02  0.36150680289E+03  0.41116362331E+03  0.17200000000E+03 0.  1.
</event>
<event>
 4    1  0.2889985E+000  0.2219089E+03  0.7818608E-02  0.1132468E+00
         21   -1    0    0  501  502  0.00000000000E+00  0.00000000000E+00  0.23575058881E+03  0.23575058881E+03  0.00000000000E+00 0.  1.
         21   -1    0    0  502  503 -0.00000000000E+00 -0.00000000000E+00 -0.22223123757E+03  0.22223123757E+03  0.00000000000E+00 0.  1.
          6    1    1    2  501    0  0.12980453841E+03 -0.53012610773E+02 -0.49368171341E+02  0.22733405252E+03  0.17200000000E+03 0.  1.
         -6    1    1    2    0  503 -0.12980453841E+03  0.53012610773E+02  0.62887522575E+02  0.23064777386E+03  0.17200000000E+03 0.  1.
</event>
<event>
 4    1  0.2889985E+000  0.1804347E+03  0.7818608E-02  0.1167383E+00
         21   -1    0    0  503  502  0.00000000000E+00  0.00000000000E+00  0.90332254944E+03  0.90332254944E+03  0.00000000000E+00 0. -1.
         21   -1    0    0  501  503 -0.00000000000E+00 -0.00000000000E+00 -0.21793913865E+03  0.21793913865E+03  0.00000000000E+00 0. -1.
          6    1    1    2  501    0  0.22468861441E+02 -0.49677370889E+02 -0.16948927045E+03  0.24755464793E+03  0.17200000000E+03 0. -1.
         -6    1    1    2    0  502 -0.22468861441E+02  0.49677370889E+02  0.85487268124E+03  0.87370704017E+03  0.17200000000E+03 0. -1.
</event>
<event>
 4    1  0.2889985E+000  0.2018186E+03  0.7818608E-02  0.1148214E+00
         21   -1    0    0  501  502  0.00000000000E+00  0.00000000000E+00  0.17755817508E+03  0.17755817508E+03  0.00000000000E+00 0.  1.
         21   -1    0    0  502  503 -0.00000000000E+00 -0.00000000000E+00 -0.22940505130E+03  0.22940505130E+03  0.00000000000E+00 0. -1.
          6    1    1    2  501    0 -0.79210987310E+02  0.69802265163E+02 -0.27351239539E+02  0.20366351425E+03  0.17200000000E+03 0. -1.
         -6    1    1    2    0  503  0.79210987310E+02 -0.69802265163E+02 -0.24495636679E+02  0.20329971212E+03  0.17200000000E+03 0. -1.
</event>
<event>
 4    1  0.2889985E+000  0.1992695E+03  0.7818608E-02  0.1150357E+00
         21   -1    0    0  501  502  0.00000000000E+00  0.00000000000E+00  0.49830979759E+03  0.49830979759E+03  0.00000000000E+00 0.  1.
         21   -1    0    0  502  503 -0.00000000000E+00 -0.00000000000E+00 -0.80824506399E+02  0.80824506399E+02  0.00000000000E+00 0.  1.
          6    1    1    2  501    0  0.50210717923E+02  0.87196334332E+02  0.24310988035E+03  0.31434174212E+03  0.17200000000E+03 0.  1.
         -6    1    1    2    0  503 -0.50210717923E+02 -0.87196334332E+02  0.17437541084E+03  0.26479256187E+03  0.17200000000E+03 0.  1.
</event>
<event>
 4    1  0.2889985E+000  0.2349580E+03  0.7818608E-02  0.1123198E+00
         21   -1    0    0  501  502  0.00000000000E+00  0.00000000000E+00  0.50822692081E+02  0.50822692081E+02  0.00000000000E+00 0.  1.
         21   -1    0    0  502  503 -0.00000000000E+00 -0.00000000000E+00 -0.11438516059E+04  0.11438516059E+04  0.00000000000E+00 0. -1.
          6    1    1    2  501    0  0.15971054881E+03 -0.10667215076E+02 -0.41244842519E+03  0.47467773523E+03  0.17200000000E+03 0. -1.
         -6    1    1    2    0  503 -0.15971054881E+03  0.10667215076E+02 -0.68058048866E+03  0.71999656279E+03  0.17200000000E+03 0.  1.
</event>
<event>
 4    1  0.2889985E+000  0.1862787E+03  0.7818608E-02  0.1161861E+00
         21   -1    0    0  501  502  0.00000000000E+00  0.00000000000E+00  0.41130052614E+02  0.41130052614E+02  0.00000000000E+00 0. -1.
         21   -1    0    0  502  503 -0.00000000000E+00 -0.00000000000E+00 -0.11098201410E+04  0.11098201410E+04  0.00000000000E+00 0. -1.
          6    1    1    2  501    0  0.29694340792E+02  0.65069247331E+02 -0.25252483907E+03  0.31379699675E+03  0.17200000000E+03 0. -1.
         -6    1    1    2    0  503 -0.29694340792E+02 -0.65069247331E+02 -0.81616524927E+03  0.83715319681E+03  0.17200000000E+03 0. -1.
</event>
<event>
 4    1  0.2889985E+000  0.2077704E+03  0.7818608E-02  0.1143344E+00
         21   -1    0    0  503  502  0.00000000000E+00  0.00000000000E+00  0.97821984496E+03  0.97821984496E+03  0.00000000000E+00 0. -1.
         21   -1    0    0  501  503 -0.00000000000E+00 -0.00000000000E+00 -0.45547991470E+02  0.45547991470E+02  0.00000000000E+00 0.  1.
          6    1    1    2  501    0 -0.49663488727E+02  0.10544228987E+03  0.55666366413E+03  0.59417419464E+03  0.17200000000E+03 0.  1.
         -6    1    1    2    0  502  0.49663488727E+02 -0.10544228987E+03  0.37600818935E+03  0.42959364179E+03  0.17200000000E+03 0. -1.
</event>
<event>
 4    1  0.2889985E+000  0.2279618E+03  0.7818608E-02  0.1128083E+00
         21   -1    0    0  501  502  0.00000000000E+00  0.00000000000E+00  0.97423721398E+02  0.97423721398E+02  0.00000000000E+00 0.  1.
         21   -1    0    0  502  503 -0.00000000000E+00 -0.00000000000E+00 -0.62153623774E+03  0.62153623774E+03  0.00000000000E+00 0. -1.
          6    1    1    2  501    0  0.12981260090E+03 -0.74372462358E+02 -0.12669341242E+03  0.26080221483E+03  0.17200000000E+03 0.  1.
         -6    1    1    2    0  503 -0.12981260090E+03  0.74372462358E+02 -0.39741910392E+03  0.45815774431E+03  0.17200000000E+03 0. -1.
</event>
<event>
 4    1  0.2889985E+000  0.1854264E+03  0.7818608E-02  0.1162652E+00
         21   -1    0    0  501  502  0.00000000000E+00  0.00000000000E+00  0.58957564239E+02  0.58957564239E+02  0.00000000000E+00 0. -1.
         21   -1    0    0  502  503 -0.00000000000E+00 -0.00000000000E+00 -0.62739487404E+03  0.62739487404E+03  0.00000000000E+00 0. -1.
          6    1    1    2  501    0  0.58825583950E+02  0.36585499720E+02 -0.19311735295E+03  0.26772609160E+03  0.17200000000E+03 0. -1.
         -6    1    1    2    0  503 -0.58825583950E+02 -0.36585499720E+02 -0.37531995686E+03  0.41862634668E+03  0.17200000000E+03 0. -1.
</event>
<event>
 4    1  0.2889985E+000  0.2108975E+03  0.7818608E-02  0.1140857E+00
         21   -1    0    0  501  502  0.00000000000E+00  0.00000000000E+00  0.53038916149E+03  0.53038916149E+03  0.00000000000E+00 0. -1.
         21   -1    0    0  502  503 -0.00000000000E+00 -0.00000000000E+00 -0.95250134183E+02  0.95250134183E+02  0.00000000000E+00 0.  1.
          6    1    1    2  501    0 -0.50636445171E+02 -0.11103911889E+03  0.32575046325E+03  0.38806069089E+03  0.17200000000E+03 0. -1.
         -6    1    1    2    0  503  0.50636445171E+02  0.11103911889E+03  0.10938856405E+03  0.23757860478E+03  0.17200000000E+03 0.  1.
</event>
<event>
 4    1  0.2889985E+000  0.1829134E+03  0.7818608E-02  0.1165013E+00
         21   -1    0    0  501  502  0.00000000000E+00  0.00000000000E+00  0.84752093104E+02  0.84752093104E+02  0.00000000000E+00 0. -1.
         21   -1    0    0  502  503 -0.00000000000E+00 -0.00000000000E+00 -0.12161707220E+04  0.12161707220E+04  0.00000000000E+00 0. -1.
          6    1    1    2  501    0 -0.38137838367E+02  0.49181362276E+02 -0.31141650795E+02  0.18554542173E+03  0.17200000000E+03 0. -1.
         -6    1    1    2    0  503  0.38137838367E+02 -0.49181362276E+02 -0.11002769781E+04  0.11153773933E+04  0.17200000000E+03 0. -1.
</event>
<event>
 4    1  0.2889985E+000  0.1986448E+03  0.7818608E-02  0.1150887E+00
         21   -1    0    0  503  502  0.00000000000E+00  0.00000000000E+00  0.99886252173E+02  0.99886252173E+02  0.00000000000E+00 0. -1.
         21   -1    0    0  501  503 -0.00000000000E+00 -0.00000000000E+00 -0.68436980875E+03  0.68436980875E+03  0.00000000000E+00 0. -1.
          6    1    1    2  501    0 -0.10220129238E+02  0.98849871632E+02 -0.54720287830E+03  0.58214322824E+03  0.17200000000E+03 0. -1.
         -6    1    1    2    0  502  0.10220129238E+02 -0.98849871632E+02 -0.37280678278E+02  0.20211283269E+03  0.17200000000E+03 0. -1.
</event>
<event>
 4    1  0.2889985E+000  0.1859881E+03  0.7818608E-02  0.1162130E+00
         21   -1    0    0  503  502  0.00000000000E+00  0.00000000000E+00  0.55569253244E+02  0.55569253244E+02  0.00000000000E+00 0. -1.
         21   -1    0    0  501  503 -0.00000000000E+00 -0.00000000000E+00 -0.64772327009E+03  0.64772327009E+03  0.00000000000E+00 0. -1.
          6    1    1    2  501    0 -0.55050482280E+02 -0.44463510752E+02 -0.36547685964E+03  0.41007913178E+03  0.17200000000E+03 0.  1.
         -6    1    1    2    0  502  0.55050482280E+02  0.44463510752E+02 -0.22667715720E+03  0.29321339155E+03  0.17200000000E+03 0.  1.
</event>
<event>
 4    1  0.2889985E+000  0.1727916E+03  0.7818608E-02  0.1174968E+00
         21   -1    0    0  501  502  0.00000000000E+00  0.00000000000E+00  0.12982783013E+04  0.12982783013E+04  0.00000000000E+00 0. -1.
         21   -1    0    0  502  503 -0.00000000000E+00 -0.00000000000E+00 -0.85306734374E+02  0.85306734374E+02  0.00000000000E+00 0. -1.
          6    1    1    2  501    0 -0.14825953643E+02 -0.72889821867E+01  0.11977219496E+04  0.12101218148E+04  0.17200000000E+03 0. -1.
         -6    1    1    2    0  503  0.14825953643E+02  0.72889821867E+01  0.15249617340E+02  0.17346322086E+03  0.17200000000E+03 0. -1.
</event>
<event>
 4    1  0.2889985E+000  0.1796877E+03  0.7818608E-02  0.1168106E+00
         21   -1    0    0  501  502  0.00000000000E+00  0.00000000000E+00  0.12912444647E+04  0.12912444647E+04  0.00000000000E+00 0. -1.
         21   -1    0    0  502  503 -0.00000000000E+00 -0.00000000000E+00 -0.27545532700E+02  0.27545532700E+02  0.00000000000E+00 0.  1.
          6    1    1    2  501    0 -0.44292303888E+02  0.27236917602E+02  0.83210129740E+03  0.85128152042E+03  0.17200000000E+03 0.  1.
         -6    1    1    2    0  503  0.44292303888E+02 -0.27236917602E+02  0.43159763464E+03  0.46750847702E+03  0.17200000000E+03 0.  1.
</event>
<event>
 4    1  0.2889985E+000  0.2088390E+03  0.7818608E-02  0.1142489E+00
         21   -1    0    0  501  502  0.00000000000E+00  0.00000000000E+00  0.44426887812E+03  0.44426887812E+03  0.00000000000E+00 0.  1.
         21   -1    0    0  502  503 -0.00000000000E+00 -0.00000000000E+00 -0.10912369920E+03  0.10912369920E+03  0.00000000000E+00 0.  1.
          6    1    1    2  501    0 -0.75715145314E+02 -0.91087632748E+02  0.25523840035E+03  0.32978838834E+03  0.17200000000E+03 0. -1.
         -6    1    1    2    0  503  0.75715145314E+02  0.91087632748E+02  0.79906778570E+02  0.22360418898E+03  0.17200000000E+03 0. -1.
</event>
<event>
 4    1  0.2889985E+000  0.2056588E+03  0.7818608E-02  0.1145051E+00
         21   -1    0    0  501  502  0.00000000000E+00  0.00000000000E+00  0.16130714267E+04  0.16130714267E+04  0.00000000000E+00 0. -1.
         21   -1    0    0  502  503 -0.00000000000E+00 -0.00000000000E+00 -0.34739307096E+02  0.34739307096E+02  0.00000000000E+00 0.  1.
          6    1    1    2  501    0  0.58743080308E+01 -0.11259228500E+03  0.11971624244E+04  0.12146988930E+04  0.17200000000E+03 0. -1.
         -6    1    1    2    0  503 -0.58743080308E+01  0.11259228500E+03  0.38116969518E+03  0.43311184082E+03  0.17200000000E+03 0.  1.
</event>
<event>
 4    1  0.2889985E+000  0.1835113E+03  0.7818608E-02  0.1164447E+00
         21   -1    0    0  501  502  0.00000000000E+00  0.00000000000E+00  0.27060438352E+03  0.27060438352E+03  0.00000000000E+00 0.  1.
         21   -1    0    0  502  503 -0.00000000000E+00 -0.00000000000E+00 -0.12661676704E+03  0.12661676704E+03  0.00000000000E+00 0.  1.
          6    1    1    2  501    0  0.49928165849E+02  0.39994494450E+02  0.97982630777E+02  0.20803119301E+03  0.17200000000E+03 0.  1.
         -6    1    1    2    0  503 -0.49928165849E+02 -0.39994494450E+02  0.46004985701E+02  0.18918995756E+03  0.17200000000E+03 0.  1.
</event>
<event>
 4    1  0.2889985E+000  0.1778919E+03  0.7818608E-02  0.1169859E+00
         21   -1    0    0  503  502  0.00000000000E+00  0.00000000000E+00  0.21497118959E+03  0.21497118959E+03  0.00000000000E+00 0. -1.
         21   -1    0    0  501  503 -0.00000000000E+00 -0.00000000000E+00 -0.19529886226E+03  0.19529886226E+03  0.00000000000E+00 0. -1.
          6    1    1    2  501    0 -0.45214298866E+02  0.41467685242E+01 -0.91957372976E+02  0.20025405603E+03  0.17200000000E+03 0. -1.
         -6    1    1    2    0  502  0.45214298866E+02 -0.41467685242E+01  0.11162970030E+03  0.21001599582E+03  0.17200000000E+03 0. -1.
</event>
<event>
 4    1  0.2889985E+000  0.1854164E+03  0.7818608E-02  0.1162662E+00
         21   -1    0    0  501  502  0.00000000000E+00  0.00000000000E+00  0.56062959364E+02  0.56062959364E+02  0.00000000000E+00 0.  1.
         21   -1    0    0  502  503 -0.00000000000E+00 -0.00000000000E+00 -0.70792414460E+03  0.70792414460E+03  0.00000000000E+00 0.  1.
          6    1    1    2  501    0 -0.68757499548E+02  0.82257645776E+01 -0.18621859370E+03  0.26278626598E+03  0.17200000000E+03 0.  1.
         -6    1    1    2    0  503  0.68757499548E+02 -0.82257645776E+01 -0.46564259153E+03  0.50120083798E+03  0.17200000000E+03 0.  1.
</event>
<event>
 4    1  0.2889985E+000  0.2198605E+03  0.7818608E-02  0.1133987E+00
         21   -1    0    0  503  502  0.00000000000E+00  0.00000000000E+00  0.95487071245E+03  0.95487071245E+03  0.00000000000E+00 0.  1.
         21   -1    0    0  501  503 -0.00000000000E+00 -0.00000000000E+00 -0.51483242978E+02  0.51483242978E+02  0.00000000000E+00 0.  1.
          6    1    1    2  501    0 -0.61513838157E+02  0.12235479421E+03  0.38666008397E+03  0.44479733417E+03  0.17200000000E+03 0.  1.
         -6    1    1    2    0  502  0.61513838157E+02 -0.12235479421E+03  0.51672738550E+03  0.56155662125E+03  0.17200000000E+03 0.  1.
</event>
<event>
 4    1  0.2889985E+000  0.1728820E+03  0.7818608E-02  0.1174875E+00
         21   -1    0    0  503  502  0.00000000000E+00  0.00000000000E+00  0.94757050216E+03  0.94757050216E+03  0.00000000000E+00 0. -1.
         21   -1    0    0  501  503 -0.00000000000E+00 -0.00000000000E+00 -0.55444042566E+02  0.55444042566E+02  0.00000000000E+00 0. -1.
          6    1    1    2  501    0  0.16864463156E+02  0.44462263843E+01  0.11678110233E+03  0.20862886883E+03  0.17200000000E+03 0. -1.
         -6    1    1    2    0  502 -0.16864463156E+02 -0.44462263843E+01  0.77534535726E+03  0.79438567590E+03  0.17200000000E+03 0. -1.
</event>
<event>
 4    1  0.2889985E+000  0.1722683E+03  0.7818608E-02  0.1175503E+00
         21   -1    0    0  503  502  0.00000000000E+00  0.00000000000E+00  0.84160601160E+03  0.84160601160E+03  0.00000000000E+00 0.  1.
         21   -1    0    0  501  503 -0.00000000000E+00 -0.00000000000E+00 -0.13147599770E+03  0.13147599770E+03  0.00000000000E+00 0.  1.
          6    1    1    2  501    0 -0.46855365313E+01 -0.83908476817E+01 -0.61148605792E+02  0.18279910440E+03  0.17200000000E+03 0.  1.
         -6    1    1    2    0  502  0.46855365313E+01  0.83908476817E+01  0.77127861970E+03  0.79028290490E+03  0.17200000000E+03 0.  1.
</event>
<event>
 4    1  0.2889985E+000  0.1988651E+03  0.7818608E-02  0.1150700E+00
         21   -1    0    0  503  502  0.00000000000E+00  0.00000000000E+00  0.53961325421E+03  0.53961325421E+03  0.00000000000E+00 0. -1.
         21   -1    0    0  501  503 -0.00000000000E+00 -0.00000000000E+00 -0.21397900749E+03  0.21397900749E+03  0.00000000000E+00 0. -1.
          6    1    1    2  501    0  0.96312817360E+02 -0.26214073099E+02 -0.14271266672E+03  0.24477385820E+03  0.17200000000E+03 0. -1.
         -6    1    1    2    0  502 -0.96312817360E+02  0.26214073099E+02  0.46834691344E+03  0.50881840350E+03  0.17200000000E+03 0. -1.
</event>
<event>
 4    1  0.2889985E+000  0.1797002E+03  0.7818608E-02  0.1168093E+00
         21   -1    0    0  501  502  0.00000000000E+00  0.00000000000E+00  0.58551245271E+03  0.58551245271E+03  0.00000000000E+00 0.  1.
         21   -1    0    0  502  503 -0.00000000000E+00 -0.00000000000E+00 -0.25511870177E+03  0.25511870177E+03  0.00000000000E+00 0.  1.
          6    1    1    2  501    0  0.33684313734E+02 -0.39667917327E+02  0.53731702826E+03  0.56657017704E+03  0.17200000000E+03 0.  1.
         -6    1    1    2    0  503 -0.33684313734E+02  0.39667917327E+02 -0.20692327731E+03  0.27406097743E+03  0.17200000000E+03 0.  1.
</event>
<event>
 4    1  0.2889985E+000  0.1786634E+03  0.7818608E-02  0.1169103E+00
         21   -1    0    0  503  502  0.00000000000E+00  0.00000000000E+00  0.60487293228E+03  0.60487293228E+03  0.00000000000E+00 0.  1.
         21   -1    0    0  501  503 -0.00000000000E+00 -0.00000000000E+00 -0.96917996970E+02  0.96917996970E+02  0.00000000000E+00 0.  1.
          6    1    1    2  501    0 -0.40179794763E+02 -0.26873599622E+02  0.17157042611E+02  0.17948529292E+03  0.17200000000E+03 0. -1.
         -6    1    1    2    0  502  0.40179794763E+02  0.26873599622E+02  0.49079789270E+03  0.52230563633E+03  0.17200000000E+03 0. -1.
</event>
<event>
 4    1  0.2889985E+000  0.1752964E+03  0.7818608E-02  0.1172434E+00
         21   -1    0    0  501  502  0.00000000000E+00  0.00000000000E+00  0.29178320099E+03  0.29178320099E+03  0.00000000000E+00 0. -1.
         21   -1    0    0  502  503 -0.00000000000E+00 -0.00000000000E+00 -0.10835089024E+03  0.10835089024E+03  0.00000000000E+00 0. -1.
          6    1    1    2  501    0 -0.27117922447E+02  0.20234957071E+02  0.12521107714E+03  0.21542202544E+03  0.17200000000E+03 0. -1.
         -6    1    1    2    0  503  0.27117922447E+02 -0.20234957071E+02  0.58221233613E+02  0.18471206579E+03  0.17200000000E+03 0. -1.
</event>
<event>
 4    1  0.2889985E+000  0.1841297E+03  0.7818608E-02  0.1163865E+00
         21   -1    0    0  503  502  0.00000000000E+00  0.00000000000E+00  0.83302275137E+02  0.83302275137E+02  0.00000000000E+00 0. -1.
         21   -1    0    0  501  503 -0.00000000000E+00 -0.00000000000E+00 -0.60589864984E+03  0.60589864984E+03  0.00000000000E+00 0. -1.
          6    1    1    2  501    0 -0.65354847382E+02 -0.69647373793E+01 -0.45873822232E+03  0.49431216884E+03  0.17200000000E+03 0. -1.
         -6    1    1    2    0  502  0.65354847382E+02  0.69647373793E+01 -0.63858152380E+02  0.19488875614E+03  0.17200000000E+03 0. -1.
</event>
<event>
 4    1  0.2889985E+000  0.2403553E+03  0.7818608E-02  0.1119556E+00
         21   -1    0    0  501  502  0.00000000000E+00  0.00000000000E+00  0.36457351990E+03  0.36457351990E+03  0.00000000000E+00 0.  1.
         21   -1    0    0  502  503 -0.00000000000E+00 -0.00000000000E+00 -0.20869073911E+03  0.20869073911E+03  0.00000000000E+00 0.  1.
          6    1    1    2  501    0 -0.96246449345E+02 -0.13756198032E+03  0.21856357062E+03  0.32487030003E+03  0.17200000000E+03 0.  1.
         -6    1    1    2    0  503  0.96246449345E+02  0.13756198032E+03 -0.62680789826E+02  0.24839395897E+03  0.17200000000E+03 0.  1.
</event>
<event>
 4    1  0.2889985E+000  0.1925523E+03  0.7818608E-02  0.1156179E+00
         21   -1    0    0  501  502  0.00000000000E+00  0.00000000000E+00  0.12285307116E+03  0.12285307116E+03  0.00000000000E+00 0. -1.
         21   -1    0    0  502  503 -0.00000000000E+00 -0.00000000000E+00 -0.30897776497E+03  0.30897776497E+03  0.00000000000E+00 0. -1.
          6    1    1    2  501    0  0.36062991311E+02  0.78688374808E+02 -0.60141087889E+02  0.20172592824E+03  0.17200000000E+03 0. -1.
         -6    1    1    2    0  503 -0.36062991311E+02 -0.78688374808E+02 -0.12598360593E+03  0.23010490789E+03  0.17200000000E+03 0. -1.
</event>
<event>
 4    1  0.2889985E+000  0.1983665E+03  0.7818608E-02  0.1151125E+00
         21   -1    0    0  503  502  0.00000000000E+00  0.00000000000E+00  0.70802830719E+02  0.70802830719E+02  0.00000000000E+00 0. -1.
         21   -1    0    0  501  503 -0.00000000000E+00 -0.00000000000E+00 -0.58365127418E+03  0.58365127418E+03  0.00000000000E+00 0.  1.
          6    1    1    2  501    0  0.98593413916E+02  0.66784162201E+01 -0.18488903591E+03  0.27117009074E+03  0.17200000000E+03 0.  1.
         -6    1    1    2    0  502 -0.98593413916E+02 -0.66784162201E+01 -0.32795940755E+03  0.38328401416E+03  0.17200000000E+03 0.  1.
</event>
<event>
 4    1  0.2889985E+000  0.1989803E+03  0.7818608E-02  0.1150602E+00
         21   -1    0    0  503  502  0.00000000000E+00  0.00000000000E+00  0.52246080677E+03  0.52246080677E+03  0.00000000000E+00 0.  1.
         21   -1    0    0  501  503 -0.00000000000E+00 -0.00000000000E+00 -0.12281210865E+03  0.12281210865E+03  0.00000000000E+00 0.  1.
          6    1    1    2  501    0 -0.99124647435E+02 -0.13545221672E+02  0.16922998687E+00  0.19898039451E+03  0.17200000000E+03 0.  1.
         -6    1    1    2    0  502  0.99124647435E+02  0.13545221672E+02  0.39947946814E+03  0.44629252092E+03  0.17200000000E+03 0.  1.
</event>
<event>
 4    1  0.2889985E+000  0.2350557E+03  0.7818608E-02  0.1123131E+00
         21   -1    0    0  501  502  0.00000000000E+00  0.00000000000E+00  0.35532821489E+02  0.35532821489E+02  0.00000000000E+00 0.  1.
         21   -1    0    0  502  503 -0.00000000000E+00 -0.00000000000E+00 -0.18045939248E+04  0.18045939248E+04  0.00000000000E+00 0.  1.
          6    1    1    2  501    0  0.13841290176E+03  0.80678822727E+02 -0.54231311695E+03  0.59106236611E+03  0.17200000000E+03 0. -1.
         -6    1    1    2    0  503 -0.13841290176E+03 -0.80678822727E+02 -0.12267479864E+04  0.12490643802E+04  0.17200000000E+03 0. -1.
</event>
<event>
 4    1  0.2889985E+000  0.1988586E+03  0.7818608E-02  0.1150706E+00
         21   -1    0    0  503  502  0.00000000000E+00  0.00000000000E+00  0.10268547709E+04  0.10268547709E+04  0.00000000000E+00 0.  1.
         21   -1    0    0  501  503 -0.00000000000E+00 -0.00000000000E+00 -0.38664591604E+02  0.38664591604E+02  0.00000000000E+00 0.  1.
          6    1    1    2  501    0 -0.52364312966E+02 -0.84963108795E+02  0.46046863211E+03  0.50157363595E+03  0.17200000000E+03 0.  1.
         -6    1    1    2    0  502  0.52364312966E+02  0.84963108795E+02  0.52772154721E+03  0.56394572657E+03  0.17200000000E+03 0.  1.
</event>
<event>
 4    1  0.2889985E+000  0.2742371E+03  0.7818608E-02  0.1098879E+00
         21   -1    0    0  501  502  0.00000000000E+00  0.00000000000E+00  0.56233300955E+02  0.56233300955E+02  0.00000000000E+00 0.  1.
         21   -1    0    0  502  503 -0.00000000000E+00 -0.00000000000E+00 -0.13446601040E+04  0.13446601040E+04  0.00000000000E+00 0.  1.
          6    1    1    2  501    0 -0.13039406955E+03 -0.16917267357E+03 -0.59271922282E+03  0.65308658228E+03  0.17200000000E+03 0.  1.
         -6    1    1    2    0  503  0.13039406955E+03  0.16917267357E+03 -0.69570758022E+03  0.74780682267E+03  0.17200000000E+03 0.  1.
</event>
<event>
 4    1  0.2889985E+000  0.1728210E+03  0.7818608E-02  0.1174938E+00
         21   -1    0    0  501  502  0.00000000000E+00  0.00000000000E+00  0.15311118976E+04  0.15311118976E+04  0.00000000000E+00 0.  1.
         21   -1    0    0  502  503 -0.00000000000E+00 -0.00000000000E+00 -0.19594116787E+02  0.19594116787E+02  0.00000000000E+00 0.  1.
          6    1    1    2  501    0  0.14998879844E+02 -0.76242143169E+01  0.80751756009E+03  0.82580367212E+03  0.17200000000E+03 0. -1.
         -6    1    1    2    0  503 -0.14998879844E+02  0.76242143169E+01  0.70400022077E+03  0.72490234231E+03  0.17200000000E+03 0. -1.
</event>
<event>
 4    1  0.2889985E+000  0.1795326E+03  0.7818608E-02  0.1168256E+00
         21   -1    0    0  503  502  0.00000000000E+00  0.00000000000E+00  0.35818718529E+03  0.35818718529E+03  0.00000000000E+00 0.  1.
         21   -1    0    0  501  503 -0.00000000000E+00 -0.00000000000E+00 -0.92222607292E+02  0.92222607292E+02  0.00000000000E+00 0.  1.
          6    1    1    2  501    0 -0.33079753905E+02 -0.39416719672E+02  0.97913352631E+02  0.20449687658E+03  0.17200000000E+03 0.  1.
         -6    1    1    2    0  502  0.33079753905E+02  0.39416719672E+02  0.16805122536E+03  0.24591291600E+03  0.17200000000E+03 0.  1.
</event>
<event>
 4    1  0.2889985E+000  0.2042757E+03  0.7818608E-02  0.1146181E+00
         21   -1    0    0  503  502  0.00000000000E+00  0.00000000000E+00  0.21245398745E+03  0.21245398745E+03  0.00000000000E+00 0.  1.
         21   -1    0    0  501  503 -0.00000000000E+00 -0.00000000000E+00 -0.20280921376E+03  0.20280921376E+03  0.00000000000E+00 0.  1.
          6    1    1    2  501    0 -0.42138559636E+02 -0.10182783321E+03 -0.32052995829E+02  0.20677514446E+03  0.17200000000E+03 0.  1.
         -6    1    1    2    0  502  0.42138559636E+02  0.10182783321E+03  0.41697769526E+02  0.20848805675E+03  0.17200000000E+03 0.  1.
</event>
<event>
 4    1  0.2889985E+000  0.1757036E+03  0.7818608E-02  0.1172027E+00
         21   -1    0    0  501  502  0.00000000000E+00  0.00000000000E+00  0.13003070052E+03  0.13003070052E+03  0.00000000000E+00 0. -1.
         21   -1    0    0  502  503 -0.00000000000E+00 -0.00000000000E+00 -0.67916782569E+03  0.67916782569E+03  0.00000000000E+00 0. -1.
          6    1    1    2  501    0 -0.27620003577E+02  0.22910137710E+02  0.51736876168E+02  0.18316234155E+03  0.17200000000E+03 0. -1.
         -6    1    1    2    0  503  0.27620003577E+02 -0.22910137710E+02 -0.60087400134E+03  0.62603618465E+03  0.17200000000E+03 0. -1.
</event>
<event>
 4    1  0.2889985E+000  0.2103073E+03  0.7818608E-02  0.1141323E+00
         21   -1    0    0  503  502  0.00000000000E+00  0.00000000000E+00  0.33028846876E+03  0.33028846876E+03  0.00000000000E+00 0.  1.
         21   -1    0    0  501  503 -0.00000000000E+00 -0.00000000000E+00 -0.15559754606E+03  0.15559754606E+03  0.00000000000E+00 0. -1.
          6    1    1    2  501    0  0.10684641527E+03  0.56824237335E+02  0.17804425746E+03  0.27555200602E+03  0.17200000000E+03 0.  1.
         -6    1    1    2    0  502 -0.10684641527E+03 -0.56824237335E+02 -0.33533347663E+01  0.21033400880E+03  0.17200000000E+03 0. -1.
</event>
<event>
 4    1  0.2889985E+000  0.1754402E+03  0.7818608E-02  0.1172290E+00
         21   -1    0    0  503  502  0.00000000000E+00  0.00000000000E+00  0.14618631084E+04  0.14618631084E+04  0.00000000000E+00 0.  1.
         21   -1    0    0  501  503 -0.00000000000E+00 -0.00000000000E+00 -0.91277687548E+02  0.91277687548E+02  0.00000000000E+00 0.  1.
          6    1    1    2  501    0  0.34555003580E+02 -0.11002130355E+01  0.41504762138E+01  0.17548927373E+03  0.17200000000E+03 0.  1.
         -6    1    1    2    0  502 -0.34555003580E+02  0.11002130355E+01  0.13664349446E+04  0.13776515222E+04  0.17200000000E+03 0.  1.
</event>
<event>
 4    1  0.2889985E+000  0.2533319E+03  0.7818608E-02  0.1111217E+00
         21   -1    0    0  503  502  0.00000000000E+00  0.00000000000E+00  0.52132241586E+03  0.52132241586E+03  0.00000000000E+00 0. -1.
         21   -1    0    0  501  503 -0.00000000000E+00 -0.00000000000E+00 -0.34983542810E+03  0.34983542810E+03  0.00000000000E+00 0.  1.
          6    1    1    2  501    0  0.18313818019E+03  0.32456795595E+02 -0.26491997576E+03  0.36655099261E+03  0.17200000000E+03 0.  1.
         -6    1    1    2    0  502 -0.18313818019E+03 -0.32456795595E+02  0.43640696352E+03  0.50460685136E+03  0.17200000000E+03 0. -1.
</event>
<event>
 4    1  0.2889985E+000  0.3981460E+03  0.7818608E-02  0.1044424E+00
         21   -1    0    0  503  502  0.00000000000E+00  0.00000000000E+00  0.59123981210E+03  0.59123981210E+03  0.00000000000E+00 0. -1.
         21   -1    0    0  501  503 -0.00000000000E+00 -0.00000000000E+00 -0.27160119172E+03  0.27160119172E+03  0.00000000000E+00 0.  1.
          6    1    1    2  501    0 -0.34636880020E+03 -0.94682954790E+02  0.20869763619E+03  0.44952743079E+03  0.17200000000E+03 0. -1.
         -6    1    1    2    0  502  0.34636880020E+03  0.94682954790E+02  0.11094098419E+03  0.41331357303E+03  0.17200000000E+03 0. -1.
</event>
<event>
 4    1  0.2889985E+000  0.2075815E+03  0.7818608E-02  0.1143496E+00
         21   -1    0    0  501  502  0.00000000000E+00  0.00000000000E+00  0.34169362202E+03  0.34169362202E+03  0.00000000000E+00 0.  1.
         21   -1    0    0  502  503 -0.00000000000E+00 -0.00000000000E+00 -0.12936992335E+03  0.12936992335E+03  0.00000000000E+00 0.  1.
          6    1    1    2  501    0 -0.75448186501E+02 -0.88394849900E+02  0.68758304900E+02  0.21867277569E+03  0.17200000000E+03 0.  1.
         -6    1    1    2    0  503  0.75448186501E+02  0.88394849900E+02  0.14356539377E+03  0.25239076969E+03  0.17200000000E+03 0.  1.
</event>
<event>
 4    1  0.2889985E+000  0.2140253E+03  0.7818608E-02  0.1138417E+00
         21   -1    0    0  503  502  0.00000000000E+00  0.00000000000E+00  0.48652915846E+03  0.48652915846E+03  0.00000000000E+00 0.  1.
         21   -1    0    0  501  503 -0.00000000000E+00 -0.00000000000E+00 -0.28070551096E+03  0.28070551096E+03  0.00000000000E+00 0.  1.
          6    1    1    2  501    0  0.22129367831E+02 -0.12543169746E+03 -0.20982322623E+03  0.29972088001E+03  0.17200000000E+03 0.  1.
         -6    1    1    2    0  502 -0.22129367831E+02  0.12543169746E+03  0.41564687373E+03  0.46751378941E+03  0.17200000000E+03 0.  1.
</event>
<event>
 4    1  0.2889985E+000  0.1765991E+03  0.7818608E-02  0.1171136E+00
         21   -1    0    0  503  502  0.00000000000E+00  0.00000000000E+00  0.16962111367E+04  0.16962111367E+04  0.00000000000E+00 0. -1.
         21   -1    0    0  501  503 -0.00000000000E+00 -0.00000000000E+00 -0.36005289580E+02  0.36005289580E+02  0.00000000000E+00 0. -1.
          6    1    1    2  501    0  0.40018412371E+02  0.13359783297E+01  0.22423499117E+03  0.28542702996E+03  0.17200000000E+03 0. -1.
         -6    1    1    2    0  502 -0.40018412371E+02 -0.13359783297E+01  0.14359708559E+04  0.14467893963E+04  0.17200000000E+03 0. -1.
</event>
<event>
 4    1  0.2889985E+000  0.1800748E+03  0.7818608E-02  0.1167731E+00
         21   -1    0    0  503  502  0.00000000000E+00  0.00000000000E+00  0.18590267131E+03  0.18590267131E+03  0.00000000000E+00 0. -1.
         21   -1    0    0  501  503 -0.00000000000E+00 -0.00000000000E+00 -0.23468889090E+03  0.23468889090E+03  0.00000000000E+00 0.  1.
          6    1    1    2  501    0  0.38189636901E+02  0.37208735990E+02 -0.13095357606E+03  0.22265618672E+03  0.17200000000E+03 0.  1.
         -6    1    1    2    0  502 -0.38189636901E+02 -0.37208735990E+02  0.82167356477E+02  0.19793537549E+03  0.17200000000E+03 0. -1.
</event>
<event>
 4    1  0.2889985E+000  0.2087570E+03  0.7818608E-02  0.1142554E+00
         21   -1    0    0  501  502  0.00000000000E+00  0.00000000000E+00  0.24810285669E+03  0.24810285669E+03  0.00000000000E+00 0.  1.
         21   -1    0    0  502  503 -0.00000000000E+00 -0.00000000000E+00 -0.18659591142E+03  0.18659591142E+03  0.00000000000E+00 0. -1.
          6    1    1    2  501    0 -0.14039958365E+02  0.11746643850E+03 -0.21886529552E+02  0.20990117861E+03  0.17200000000E+03 0. -1.
         -6    1    1    2    0  503  0.14039958365E+02 -0.11746643850E+03  0.83393474819E+02  0.22479758950E+03  0.17200000000E+03 0.  1.
</event>
<event>
 4    1  0.2889985E+000  0.1887347E+03  0.7818608E-02  0.1159608E+00
         21   -1    0    0  503  502  0.00000000000E+00  0.00000000000E+00  0.52489837669E+03  0.52489837669E+03  0.00000000000E+00 0. -1.
         21   -1    0    0  501  503 -0.00000000000E+00 -0.00000000000E+00 -0.12748081577E+03  0.12748081577E+03  0.00000000000E+00 0. -1.
          6    1    1    2  501    0  0.77608820370E+02  0.36947252317E+01 -0.24359841328E+02  0.19030024136E+03  0.17200000000E+03 0. -1.
         -6    1    1    2    0  502 -0.77608820370E+02 -0.36947252317E+01  0.42177740225E+03  0.46207895109E+03  0.17200000000E+03 0. -1.
</event>
<event>
 4    1  0.2889985E+000  0.2025297E+03  0.7818608E-02  0.1147622E+00
         21   -1    0    0  501  502  0.00000000000E+00  0.00000000000E+00  0.29212465967E+03  0.29212465967E+03  0.00000000000E+00 0. -1.
         21   -1    0    0  502  503 -0.00000000000E+00 -0.00000000000E+00 -0.26268035539E+03  0.26268035539E+03  0.00000000000E+00 0. -1.
          6    1    1    2  501    0 -0.10170721696E+03 -0.33013937869E+02  0.20397863312E+03  0.28744662260E+03  0.17200000000E+03 0. -1.
         -6    1    1    2    0  503  0.10170721696E+03  0.33013937869E+02 -0.17453432884E+03  0.26735839246E+03  0.17200000000E+03 0. -1.
</event>
<event>
 4    1  0.2889985E+000  0.3172252E+03  0.7818608E-02  0.1076933E+00
         21   -1    0    0  501  502  0.00000000000E+00  0.00000000000E+00  0.21058547130E+03  0.21058547130E+03  0.00000000000E+00 0. -1.
         21   -1    0    0  502  503 -0.00000000000E+00 -0.00000000000E+00 -0.49428392826E+03  0.49428392826E+03  0.00000000000E+00 0.  1.
          6    1    1    2  501    0  0.22422607672E+03 -0.14411969783E+03 -0.77619211108E+02  0.32658316356E+03  0.17200000000E+03 0.  1.
         -6    1    1    2    0  503 -0.22422607672E+03  0.14411969783E+03 -0.20607924585E+03  0.37828623601E+03  0.17200000000E+03 0.  1.
</event>
<event>
 4    1  0.2889985E+000  0.2411032E+03  0.7818608E-02  0.1119060E+00
         21   -1    0    0  503  502  0.00000000000E+00  0.00000000000E+00  0.20320377308E+04  0.20320377308E+04  0.00000000000E+00 0.  1.
         21   -1    0    0  501  503 -0.00000000000E+00 -0.00000000000E+00 -0.28614138861E+02  0.28614138861E+02  0.00000000000E+00 0.  1.
          6    1    1    2  501    0 -0.16597799924E+03 -0.31591900240E+02  0.98557339602E+03  0.10146357294E+04  0.17200000000E+03 0.  1.
         -6    1    1    2    0  502  0.16597799924E+03  0.31591900240E+02  0.10178501959E+04  0.10460161403E+04  0.17200000000E+03 0.  1.
</event>
<event>
 4    1  0.2889985E+000  0.2144931E+03  0.7818608E-02  0.1138057E+00
         21   -1    0    0  501  502  0.00000000000E+00  0.00000000000E+00  0.76102805990E+02  0.76102805990E+02  0.00000000000E+00 0. -1.
         21   -1    0    0  502  503 -0.00000000000E+00 -0.00000000000E+00 -0.62965769716E+03  0.62965769716E+03  0.00000000000E+00 0.  1.
          6    1    1    2  501    0  0.11528739434E+03 -0.55965173016E+02 -0.20629931462E+03  0.29760156434E+03  0.17200000000E+03 0. -1.
         -6    1    1    2    0  503 -0.11528739434E+03  0.55965173016E+02 -0.34725557655E+03  0.40815893881E+03  0.17200000000E+03 0.  1.
</event>
<event>
 4    1  0.2889985E+000  0.1916456E+03  0.7818608E-02  0.1156985E+00
         21   -1    0    0  503  502  0.00000000000E+00  0.00000000000E+00  0.13619295275E+03  0.13619295275E+03  0.00000000000E+00 0. -1.
         21   -1    0    0  501  503 -0.00000000000E+00 -0.00000000000E+00 -0.27398275980E+03  0.27398275980E+03  0.00000000000E+00 0. -1.
          6    1    1    2  501    0 -0.44318500332E+02  0.71971556463E+02 -0.43183246036E+02  0.19645057177E+03  0.17200000000E+03 0. -1.
         -6    1    1    2    0  502  0.44318500332E+02 -0.71971556463E+02 -0.94606561021E+02  0.21372514078E+03  0.17200000000E+03 0. -1.
</event>
<event>
 4    1  0.2889985E+000  0.2122459E+03  0.7818608E-02  0.1139800E+00
         21   -1    0    0  503  502  0.00000000000E+00  0.00000000000E+00  0.96583701954E+03  0.96583701954E+03  0.00000000000E+00 0. -1.
         21   -1    0    0  501  503 -0.00000000000E+00 -0.00000000000E+00 -0.72796919547E+02  0.72796919547E+02  0.00000000000E+00 0.  1.
          6    1    1    2  501    0 -0.30842550576E+02 -0.12047007783E+03  0.13523733317E+03  0.25166930457E+03  0.17200000000E+03 0.  1.
         -6    1    1    2    0  502  0.30842550576E+02  0.12047007783E+03  0.75780276682E+03  0.78696463451E+03  0.17200000000E+03 0. -1.
</event>
<event>
 4    1  0.2889985E+000  0.4599173E+03  0.7818608E-02  0.1024805E+00
         21   -1    0    0  501  502  0.00000000000E+00  0.00000000000E+00  0.25331159026E+03  0.25331159026E+03  0.00000000000E+00 0.  1.
         21   -1    0    0  502  503 -0.00000000000E+00 -0.00000000000E+00 -0.89701233674E+03  0.89701233674E+03  0.00000000000E+00 0. -1.
          6    1    1    2  501    0 -0.40776839201E+02  0.42459057630E+03 -0.17066517239E+03  0.49056142242E+03  0.17200000000E+03 0. -1.
         -6    1    1    2    0  503  0.40776839201E+02 -0.42459057630E+03 -0.47303557409E+03  0.65976250458E+03  0.17200000000E+03 0.  1.
</event>
<event>
 4    1  0.2889985E+000  0.2131772E+03  0.7818608E-02  0.1139074E+00
         21   -1    0    0  503  502  0.00000000000E+00  0.00000000000E+00  0.78951857959E+02  0.78951857959E+02  0.00000000000E+00 0.  1.
         21   -1    0    0  501  503 -0.00000000000E+00 -0.00000000000E+00 -0.59730950359E+03  0.59730950359E+03  0.00000000000E+00 0.  1.
          6    1    1    2  501    0 -0.82219864839E+01 -0.12566986972E+03 -0.32364495746E+03  0.38754428870E+03  0.17200000000E+03 0. -1.
         -6    1    1    2    0  502  0.82219864839E+01  0.12566986972E+03 -0.19471268817E+03  0.28871707285E+03  0.17200000000E+03 0. -1.
</event>
<event>
 4    1  0.2889985E+000  0.1896963E+03  0.7818608E-02  0.1158735E+00
         21   -1    0    0  501  502  0.00000000000E+00  0.00000000000E+00  0.24344832732E+03  0.24344832732E+03  0.00000000000E+00 0.  1.
         21   -1    0    0  502  503 -0.00000000000E+00 -0.00000000000E+00 -0.14807266709E+03  0.14807266709E+03  0.00000000000E+00 0.  1.
          6    1    1    2  501    0  0.92923371476E+01  0.79462923482E+02  0.55893634063E+02  0.19775945506E+03  0.17200000000E+03 0.  1.
         -6    1    1    2    0  503 -0.92923371476E+01 -0.79462923482E+02  0.39482026171E+02  0.19376153934E+03  0.17200000000E+03 0.  1.
</event>
<event>
 4    1  0.2889985E+000  0.1997434E+03  0.7818608E-02  0.1149956E+00
         21   -1    0    0  501  502  0.00000000000E+00  0.00000000000E+00  0.18408532613E+03  0.18408532613E+03  0.00000000000E+00 0.  1.
         21   -1    0    0  502  503 -0.00000000000E+00 -0.00000000000E+00 -0.30262560369E+03  0.30262560369E+03  0.00000000000E+00 0. -1.
          6    1    1    2  501    0  0.95054362355E+02 -0.35750229126E+02  0.70377772797E+02  0.21177922842E+03  0.17200000000E+03 0.  1.
         -6    1    1    2    0  503 -0.95054362355E+02  0.35750229126E+02 -0.18891805035E+03  0.27493170140E+03  0.17200000000E+03 0. -1.
</event>
<event>
 4    1  0.2889985E+000  0.1908076E+03  0.7818608E-02  0.1157735E+00
         21   -1    0    0  501  502  0.00000000000E+00  0.00000000000E+00  0.41553481813E+03  0.41553481813E+03  0.00000000000E+00 0.  1.
         21   -1    0    0  502  503 -0.00000000000E+00 -0.00000000000E+00 -0.89148100150E+02  0.89148100150E+02  0.00000000000E+00 0.  1.
          6    1    1    2  501    0  0.20281620599E+02  0.80076278800E+02  0.19627271621E+03  0.27373442182E+03  0.17200000000E+03 0.  1.
         -6    1    1    2    0  503 -0.20281620599E+02 -0.80076278800E+02  0.13011400177E+03  0.23094849646E+03  0.17200000000E+03 0.  1.
</event>
<event>
 4    1  0.2889985E+000  0.1871542E+03  0.7818608E-02  0.1161053E+00
         21   -1    0    0  503  502  0.00000000000E+00  0.00000000000E+00  0.56086934337E+03  0.56086934337E+03  0.00000000000E+00 0.  1.
         21   -1    0    0  501  503 -0.00000000000E+00 -0.00000000000E+00 -0.87958318821E+02  0.87958318821E+02  0.00000000000E+00 0.  1.
          6    1    1    2  501    0 -0.31923970755E+02  0.66509819784E+02  0.41115662237E+03  0.45174823093E+03  0.17200000000E+03 0.  1.
         -6    1    1    2    0  502  0.31923970755E+02 -0.66509819784E+02  0.61754402186E+02  0.19707943126E+03  0.17200000000E+03 0.  1.
</event>
<event>
 4    1  0.2889985E+000  0.2003187E+03  0.7818608E-02  0.1149470E+00
         21   -1    0    0  503  502  0.00000000000E+00  0.00000000000E+00  0.38897689433E+03  0.38897689433E+03  0.00000000000E+00 0. -1.
         21   -1    0    0  501  503 -0.00000000000E+00 -0.00000000000E+00 -0.10852325515E+03  0.10852325515E+03  0.00000000000E+00 0. -1.
          6    1    1    2  501    0  0.35714772098E+01  0.10261988755E+03  0.84937789967E+02  0.21758222569E+03  0.17200000000E+03 0. -1.
         -6    1    1    2    0  502 -0.35714772098E+01 -0.10261988755E+03  0.19551584921E+03  0.27991792380E+03  0.17200000000E+03 0. -1.
</event>
<event>
 4    1  0.2889985E+000  0.1978694E+03  0.7818608E-02  0.1151549E+00
         21   -1    0    0  503  502  0.00000000000E+00  0.00000000000E+00  0.14531650269E+03  0.14531650269E+03  0.00000000000E+00 0.  1.
         21   -1    0    0  501  503 -0.00000000000E+00 -0.00000000000E+00 -0.30925904298E+03  0.30925904298E+03  0.00000000000E+00 0. -1.
          6    1    1    2  501    0  0.52386379901E+02 -0.82607347102E+02 -0.40196506123E+00  0.19786982633E+03  0.17200000000E+03 0.  1.
         -6    1    1    2    0  502 -0.52386379901E+02  0.82607347102E+02 -0.16354057523E+03  0.25670571934E+03  0.17200000000E+03 0.  1.
</event>
<event>
 4    1  0.2889985E+000  0.2639193E+03  0.7818608E-02  0.1104811E+00
         21   -1    0    0  501  502  0.00000000000E+00  0.00000000000E+00  0.43342540707E+03  0.43342540707E+03  0.00000000000E+00 0.  1.
         21   -1    0    0  502  503 -0.00000000000E+00 -0.00000000000E+00 -0.20095143835E+03  0.20095143835E+03  0.00000000000E+00 0. -1.
          6    1    1    2  501    0 -0.10395729679E+02 -0.19990331191E+03  0.25818793060E+03  0.36920781792E+03  0.17200000000E+03 0.  1.
         -6    1    1    2    0  503  0.10395729679E+02  0.19990331191E+03 -0.25713961880E+02  0.26516902750E+03  0.17200000000E+03 0. -1.
</event>
<event>
 4    1  0.2889985E+000  0.1823808E+03  0.7818608E-02  0.1165519E+00
         21   -1    0    0  501  502  0.00000000000E+00  0.00000000000E+00  0.63257424209E+02  0.63257424209E+02  0.00000000000E+00 0.  1.
         21   -1    0    0  502  503 -0.00000000000E+00 -0.00000000000E+00 -0.63358725111E+03  0.63358725111E+03  0.00000000000E+00 0. -1.
          6    1    1    2  501    0  0.59276811209E+02 -0.12845703675E+02 -0.42885367687E+03  0.46602384983E+03  0.17200000000E+03 0. -1.
         -6    1    1    2    0  503 -0.59276811209E+02  0.12845703675E+02 -0.14147615003E+03  0.23082082549E+03  0.17200000000E+03 0.  1.
</event>
<event>
 4    1  0.2889985E+000  0.2170111E+03  0.7818608E-02  0.1136131E+00
         21   -1    0    0  501  502  0.00000000000E+00  0.00000000000E+00  0.33257657905E+03  0.33257657905E+03  0.00000000000E+00 0. -1.
         21   -1    0    0  502  503 -0.00000000000E+00 -0.00000000000E+00 -0.16685559688E+03  0.16685559688E+03  0.00000000000E+00 0. -1.
          6    1    1    2  501    0 -0.57047402486E+02 -0.11939609268E+03  0.18000748566E+03  0.28195128652E+03  0.17200000000E+03 0. -1.
         -6    1    1    2    0  503  0.57047402486E+02  0.11939609268E+03 -0.14286503493E+02  0.21748088941E+03  0.17200000000E+03 0. -1.
</event>
<event>
 4    1  0.2889985E+000  0.2150433E+03  0.7818608E-02  0.1137633E+00
         21   -1    0    0  501  502  0.00000000000E+00  0.00000000000E+00  0.15658152219E+03  0.15658152219E+03  0.00000000000E+00 0.  1.
         21   -1    0    0  502  503 -0.00000000000E+00 -0.00000000000E+00 -0.29539457738E+03  0.29539457738E+03  0.00000000000E+00 0. -1.
          6    1    1    2  501    0  0.66398706825E+02 -0.11068343648E+03 -0.72682752777E+02  0.22699425968E+03  0.17200000000E+03 0. -1.
         -6    1    1    2    0  503 -0.66398706825E+02  0.11068343648E+03 -0.66130302417E+02  0.22498183988E+03  0.17200000000E+03 0.  1.
</event>
<event>
 4    1  0.2889985E+000  0.1865812E+03  0.7818608E-02  0.1161582E+00
         21   -1    0    0  501  502  0.00000000000E+00  0.00000000000E+00  0.74339217989E+03  0.74339217989E+03  0.00000000000E+00 0. -1.
         21   -1    0    0  502  503 -0.00000000000E+00 -0.00000000000E+00 -0.88639195400E+02  0.88639195400E+02  0.00000000000E+00 0. -1.
          6    1    1    2  501    0 -0.72250392481E+02  0.29017862998E+01  0.61309364700E+03  0.64085595852E+03  0.17200000000E+03 0. -1.
         -6    1    1    2    0  503  0.72250392481E+02 -0.29017862998E+01  0.41659337490E+02  0.19117541677E+03  0.17200000000E+03 0. -1.
</event>
<event>
 4    1  0.2889985E+000  0.1789532E+03  0.7818608E-02  0.1168820E+00
         21   -1    0    0  503  502  0.00000000000E+00  0.00000000000E+00  0.43884268162E+02  0.43884268162E+02  0.00000000000E+00 0.  1.
         21   -1    0    0  501  503 -0.00000000000E+00 -0.00000000000E+00 -0.75475609139E+03  0.75475609139E+03  0.00000000000E+00 0.  1.
          6    1    1    2  501    0 -0.49398204190E+02 -0.24526637176E+00 -0.42813025106E+03  0.46402559693E+03  0.17200000000E+03 0.  1.
         -6    1    1    2    0  502  0.49398204190E+02  0.24526637176E+00 -0.28274157217E+03  0.33461476262E+03  0.17200000000E+03 0.  1.
</event>
<event>
 4    1  0.2889985E+000  0.2043110E+03  0.7818608E-02  0.1146152E+00
         21   -1    0    0  501  502  0.00000000000E+00  0.00000000000E+00  0.24292465339E+03  0.24292465339E+03  0.00000000000E+00 0. -1.
         21   -1    0    0  502  503 -0.00000000000E+00 -0.00000000000E+00 -0.40039136895E+03  0.40039136895E+03  0.00000000000E+00 0. -1.
          6    1    1    2  501    0 -0.94614928815E+02  0.56630389330E+02  0.16429031136E+03  0.26217225665E+03  0.17200000000E+03 0. -1.
         -6    1    1    2    0  503  0.94614928815E+02 -0.56630389330E+02 -0.32175702692E+03  0.38114376569E+03  0.17200000000E+03 0. -1.
</event>
<event>
 4    1  0.2889985E+000  0.1927531E+03  0.7818608E-02  0.1156001E+00
         21   -1    0    0  503  502  0.00000000000E+00  0.00000000000E+00  0.19726321434E+03  0.19726321434E+03  0.00000000000E+00 0. -1.
         21   -1    0    0  501  503 -0.00000000000E+00 -0.00000000000E+00 -0.55827812501E+03  0.55827812501E+03  0.00000000000E+00 0. -1.
          6    1    1    2  501    0  0.67450249263E+02 -0.54956368988E+02 -0.48802078824E+03  0.52470756462E+03  0.17200000000E+03 0. -1.
         -6    1    1    2    0  502 -0.67450249263E+02  0.54956368988E+02  0.12700587757E+03  0.23083377473E+03  0.17200000000E+03 0. -1.
</event>
<event>
 4    1  0.2889985E+000  0.2429817E+03  0.7818608E-02  0.1117822E+00
         21   -1    0    0  503  502  0.00000000000E+00  0.00000000000E+00  0.41508658045E+03  0.41508658045E+03  0.00000000000E+00 0. -1.
         21   -1    0    0  501  503 -0.00000000000E+00 -0.00000000000E+00 -0.16227047483E+03  0.16227047483E+03  0.00000000000E+00 0. -1.
          6    1    1    2  501    0  0.16419485125E+03  0.49961344674E+02  0.24972980990E+02  0.24426161163E+03  0.17200000000E+03 0. -1.
         -6    1    1    2    0  502 -0.16419485125E+03 -0.49961344674E+02  0.22784312463E+03  0.33309544365E+03  0.17200000000E+03 0. -1.
</event>
<event>
 4    1  0.2889985E+000  0.2170507E+03  0.7818608E-02  0.1136101E+00
         21   -1    0    0  501  502  0.00000000000E+00  0.00000000000E+00  0.37526436134E+03  0.37526436134E+03  0.00000000000E+00 0.  1.
         21   -1    0    0  502  503 -0.00000000000E+00 -0.00000000000E+00 -0.23145245101E+03  0.23145245101E+03  0.00000000000E+00 0.  1.
          6    1    1    2  501    0 -0.99993314324E+02  0.86765929617E+02  0.27711523851E+03  0.35199977964E+03  0.17200000000E+03 0.  1.
         -6    1    1    2    0  503  0.99993314324E+02 -0.86765929617E+02 -0.13330332817E+03  0.25471703271E+03  0.17200000000E+03 0.  1.
</event>
<event>
 4    1  0.2889985E+000  0.2700318E+03  0.7818608E-02  0.1101261E+00
         21   -1    0    0  501  502  0.00000000000E+00  0.00000000000E+00  0.85462089567E+02  0.85462089567E+02  0.00000000000E+00 0. -1.
         21   -1    0    0  502  503 -0.00000000000E+00 -0.00000000000E+00 -0.99725310993E+03  0.99725310993E+03  0.00000000000E+00 0.  1.
          6    1    1    2  501    0 -0.17848545679E+03  0.10712657981E+03 -0.25015166652E+03  0.36809376339E+03  0.17200000000E+03 0. -1.
         -6    1    1    2    0  503  0.17848545679E+03 -0.10712657981E+03 -0.66163935385E+03  0.71462143611E+03  0.17200000000E+03 0.  1.
</event>
<event>
 4    1  0.2889985E+000  0.2329259E+03  0.7818608E-02  0.1124597E+00
         21   -1    0    0  503  502  0.00000000000E+00  0.00000000000E+00  0.34543062248E+03  0.34543062248E+03  0.00000000000E+00 0. -1.
         21   -1    0    0  501  503 -0.00000000000E+00 -0.00000000000E+00 -0.31835700924E+03  0.31835700924E+03  0.00000000000E+00 0.  1.
          6    1    1    2  501    0  0.52244210131E+02  0.14812503739E+03 -0.22270166555E+03  0.32225846154E+03  0.17200000000E+03 0.  1.
         -6    1    1    2    0  502 -0.52244210131E+02 -0.14812503739E+03  0.24977527879E+03  0.34152917019E+03  0.17200000000E+03 0. -1.
</event>
<event>
 4    1  0.2889985E+000  0.1848057E+03  0.7818608E-02  0.1163231E+00
         21   -1    0    0  503  502  0.00000000000E+00  0.00000000000E+00  0.93582228704E+02  0.93582228704E+02  0.00000000000E+00 0.  1.
         21   -1    0    0  501  503 -0.00000000000E+00 -0.00000000000E+00 -0.41751002635E+03  0.41751002635E+03  0.00000000000E+00 0. -1.
          6    1    1    2  501    0  0.66610424842E+02 -0.11497791915E+02 -0.71296784473E+02  0.19808174927E+03  0.17200000000E+03 0.  1.
         -6    1    1    2    0  502 -0.66610424842E+02  0.11497791915E+02 -0.25263101318E+03  0.31301050579E+03  0.17200000000E+03 0. -1.
</event>
<event>
 4    1  0.2889985E+000  0.2210578E+03  0.7818608E-02  0.1133097E+00
         21   -1    0    0  501  502  0.00000000000E+00  0.00000000000E+00  0.81810633573E+03  0.81810633573E+03  0.00000000000E+00 0.  1.
         21   -1    0    0  502  503 -0.00000000000E+00 -0.00000000000E+00 -0.10573903566E+03  0.10573903566E+03  0.00000000000E+00 0.  1.
          6    1    1    2  501    0 -0.51997308240E+01  0.13876426491E+03  0.66087984355E+03  0.69687066664E+03  0.17200000000E+03 0.  1.
         -6    1    1    2    0  503  0.51997308240E+01 -0.13876426491E+03  0.51487456519E+02  0.22697470475E+03  0.17200000000E+03 0.  1.
</event>
<event>
 4    1  0.2889985E+000  0.2010164E+03  0.7818608E-02  0.1148884E+00
         21   -1    0    0  501  502  0.00000000000E+00  0.00000000000E+00  0.45855066159E+02  0.45855066159E+02  0.00000000000E+00 0. -1.
         21   -1    0    0  502  503 -0.00000000000E+00 -0.00000000000E+00 -0.90032707938E+03  0.90032707938E+03  0.00000000000E+00 0. -1.
          6    1    1    2  501    0 -0.12953446540E+02  0.10322701696E+03 -0.35828539882E+03  0.41082360669E+03  0.17200000000E+03 0. -1.
         -6    1    1    2    0  503  0.12953446540E+02 -0.10322701696E+03 -0.49618661440E+03  0.53535853885E+03  0.17200000000E+03 0. -1.
</event>
<event>
 4    1  0.2889985E+000  0.1798050E+03  0.7818608E-02  0.1167992E+00
         21   -1    0    0  503  502  0.00000000000E+00  0.00000000000E+00  0.21062703884E+04  0.21062703884E+04  0.00000000000E+00 0.  1.
         21   -1    0    0  501  503 -0.00000000000E+00 -0.00000000000E+00 -0.40188472316E+02  0.40188472316E+02  0.00000000000E+00 0.  1.
          6    1    1    2  501    0 -0.33938490796E+02  0.39925267007E+02  0.18929814638E+03  0.26108166601E+03  0.17200000000E+03 0.  1.
         -6    1    1    2    0  502  0.33938490796E+02 -0.39925267007E+02  0.18767837697E+04  0.18853771947E+04  0.17200000000E+03 0.  1.
</event>
<event>
 4    1  0.2889985E+000  0.4835838E+03  0.7818608E-02  0.1018155E+00
         21   -1    0    0  501  502  0.00000000000E+00  0.00000000000E+00  0.53262846754E+03  0.53262846754E+03  0.00000000000E+00 0.  1.
         21   -1    0    0  502  503 -0.00000000000E+00 -0.00000000000E+00 -0.90936290668E+03  0.90936290668E+03  0.00000000000E+00 0. -1.
          6    1    1    2  501    0 -0.43593989300E+03  0.11927163859E+03  0.33014032893E+03  0.58553048672E+03  0.17200000000E+03 0.  1.
         -6    1    1    2    0  503  0.43593989300E+03 -0.11927163859E+03 -0.70687476808E+03  0.85646088751E+03  0.17200000000E+03 0. -1.
</event>
<event>
 4    1  0.2889985E+000  0.2233816E+03  0.7818608E-02  0.1131387E+00
         21   -1    0    0  501  502  0.00000000000E+00  0.00000000000E+00  0.11592430789E+04  0.11592430789E+04  0.00000000000E+00 0. -1.
         21   -1    0    0  502  503 -0.00000000000E+00 -0.00000000000E+00 -0.58384787630E+02  0.58384787630E+02  0.00000000000E+00 0.  1.
          6    1    1    2  501    0 -0.11037647964E+03  0.90179597953E+02  0.86249622757E+03  0.89095402223E+03  0.17200000000E+03 0. -1.
         -6    1    1    2    0  503  0.11037647964E+03 -0.90179597953E+02  0.23836206371E+03  0.32667384432E+03  0.17200000000E+03 0.  1.
</event>
<event>
 4    1  0.2889985E+000  0.2065802E+03  0.7818608E-02  0.1144303E+00
         21   -1    0    0  503  502  0.00000000000E+00  0.00000000000E+00  0.20473322317E+03  0.20473322317E+03  0.00000000000E+00 0. -1.
         21   -1    0    0  501  503 -0.00000000000E+00 -0.00000000000E+00 -0.25976174246E+03  0.25976174246E+03  0.00000000000E+00 0.  1.
          6    1    1    2  501    0  0.10722993781E+03  0.39913885584E+02  0.75713831930E+02  0.22001809510E+03  0.17200000000E+03 0. -1.
         -6    1    1    2    0  502 -0.10722993781E+03 -0.39913885584E+02 -0.13074235122E+03  0.24447687054E+03  0.17200000000E+03 0.  1.
</event>
<event>
 4    1  0.2889985E+000  0.2019158E+03  0.7818608E-02  0.1148133E+00
         21   -1    0    0  503  502  0.00000000000E+00  0.00000000000E+00  0.13420636230E+03  0.13420636230E+03  0.00000000000E+00 0. -1.
         21   -1    0    0  501  503 -0.00000000000E+00 -0.00000000000E+00 -0.31186194873E+03  0.31186194873E+03  0.00000000000E+00 0.  1.
          6    1    1    2  501    0 -0.10732699791E+02 -0.10521788471E+03 -0.52936348578E+02  0.20873967306E+03  0.17200000000E+03 0. -1.
         -6    1    1    2    0  502  0.10732699791E+02  0.10521788471E+03 -0.12471923786E+03  0.23732863797E+03  0.17200000000E+03 0. -1.
</event>
<event>
 4    1  0.2889985E+000  0.2179852E+03  0.7818608E-02  0.1135394E+00
         21   -1    0    0  503  502  0.00000000000E+00  0.00000000000E+00  0.70464196676E+03  0.70464196676E+03  0.00000000000E+00 0. -1.
         21   -1    0    0  501  503 -0.00000000000E+00 -0.00000000000E+00 -0.10324389549E+03  0.10324389549E+03  0.00000000000E+00 0. -1.
          6    1    1    2  501    0  0.16787038392E+02  0.13285993862E+03  0.62805321775E+02  0.22685254328E+03  0.17200000000E+03 0. -1.
         -6    1    1    2    0  502 -0.16787038392E+02 -0.13285993862E+03  0.53859274949E+03  0.58103331897E+03  0.17200000000E+03 0. -1.
</event>
<event>
 4    1  0.2889985E+000  0.3011333E+03  0.7818608E-02  0.1084675E+00
         21   -1    0    0  503  502  0.00000000000E+00  0.00000000000E+00  0.47135262413E+03  0.47135262413E+03  0.00000000000E+00 0.  1.
         21   -1    0    0  501  503 -0.00000000000E+00 -0.00000000000E+00 -0.23023090334E+03  0.23023090334E+03  0.00000000000E+00 0. -1.
          6    1    1    2  501    0 -0.18630681084E+03 -0.16244091479E+03 -0.21664077093E+02  0.30191159434E+03  0.17200000000E+03 0. -1.
         -6    1    1    2    0  502  0.18630681084E+03  0.16244091479E+03  0.26278579788E+03  0.39967193313E+03  0.17200000000E+03 0.  1.
</event>
<event>
 4    1  0.2889985E+000  0.2510067E+03  0.7818608E-02  0.1112670E+00
         21   -1    0    0  501  502  0.00000000000E+00  0.00000000000E+00  0.24104273014E+03  0.24104273014E+03  0.00000000000E+00 0. -1.
         21   -1    0    0  502  503 -0.00000000000E+00 -0.00000000000E+00 -0.27128748681E+03  0.27128748681E+03  0.00000000000E+00 0. -1.
          6    1    1    2  501    0 -0.17031398715E+03  0.66434397689E+02  0.33824966042E+02  0.25327556484E+03  0.17200000000E+03 0. -1.
         -6    1    1    2    0  503  0.17031398715E+03 -0.66434397689E+02 -0.64069722712E+02  0.25905465212E+03  0.17200000000E+03 0. -1.
</event>
<event>
 4    1  0.2889985E+000  0.2102373E+03  0.7818608E-02  0.1141378E+00
         21   -1    0    0  501  502  0.00000000000E+00  0.00000000000E+00  0.29141687019E+03  0.29141687019E+03  0.00000000000E+00 0.  1.
         21   -1    0    0  502  503 -0.00000000000E+00 -0.00000000000E+00 -0.15509851303E+03  0.15509851303E+03  0.00000000000E+00 0. -1.
          6    1    1    2  501    0  0.50256235536E+02  0.10995462135E+03  0.10134437328E+03  0.23338892425E+03  0.17200000000E+03 0. -1.
         -6    1    1    2    0  503 -0.50256235536E+02 -0.10995462135E+03  0.34973983879E+02  0.21312645897E+03  0.17200000000E+03 0. -1.
</event>
<event>
 4    1  0.2889985E+000  0.3686719E+03  0.7818608E-02  0.1055202E+00
         21   -1    0    0  501  502  0.00000000000E+00  0.00000000000E+00  0.12799407307E+03  0.12799407307E+03  0.00000000000E+00 0.  1.
         21   -1    0    0  502  503 -0.00000000000E+00 -0.00000000000E+00 -0.10936976877E+04  0.10936976877E+04  0.00000000000E+00 0.  1.
          6    1    1    2  501    0  0.16246542551E+02 -0.32568546208E+03 -0.37872306751E+03  0.52853583816E+03  0.17200000000E+03 0.  1.
         -6    1    1    2    0  503 -0.16246542551E+02  0.32568546208E+03 -0.58698054716E+03  0.69315592264E+03  0.17200000000E+03 0.  1.
</event>
<event>
 4    1  0.2889985E+000  0.2111871E+03  0.7818608E-02  0.1140629E+00
         21   -1    0    0  503  502  0.00000000000E+00  0.00000000000E+00  0.24301764383E+03  0.24301764383E+03  0.00000000000E+00 0.  1.
         21   -1    0    0  501  503 -0.00000000000E+00 -0.00000000000E+00 -0.53853169516E+03  0.53853169516E+03  0.00000000000E+00 0. -1.
          6    1    1    2  501    0 -0.35250498966E+02 -0.11736014869E+03 -0.46503400779E+03  0.51074125599E+03  0.17200000000E+03 0. -1.
         -6    1    1    2    0  502  0.35250498966E+02  0.11736014869E+03  0.16951995646E+03  0.27080808299E+03  0.17200000000E+03 0.  1.
</event>
<event>
 4    1  0.2889985E+000  0.1823884E+03  0.7818608E-02  0.1165511E+00
         21   -1    0    0  501  502  0.00000000000E+00  0.00000000000E+00  0.41461944030E+03  0.41461944030E+03  0.00000000000E+00 0.  1.
         21   -1    0    0  502  503 -0.00000000000E+00 -0.00000000000E+00 -0.80754087532E+02  0.80754087532E+02  0.00000000000E+00 0.  1.
          6    1    1    2  501    0  0.60361994304E+02 -0.61607961740E+01  0.18685839314E+03  0.26111603714E+03  0.17200000000E+03 0.  1.
         -6    1    1    2    0  503 -0.60361994304E+02  0.61607961740E+01  0.14700695963E+03  0.23425749069E+03  0.17200000000E+03 0.  1.
</event>
<event>
 4    1  0.2889985E+000  0.1922283E+03  0.7818608E-02  0.1156467E+00
         21   -1    0    0  503  502  0.00000000000E+00  0.00000000000E+00  0.10526612371E+03  0.10526612371E+03  0.00000000000E+00 0. -1.
         21   -1    0    0  501  503 -0.00000000000E+00 -0.00000000000E+00 -0.64066470497E+03  0.64066470497E+03  0.00000000000E+00 0. -1.
          6    1    1    2  501    0 -0.18173534709E+02 -0.83889485028E+02 -0.51847031412E+03  0.55295857864E+03  0.17200000000E+03 0. -1.
         -6    1    1    2    0  502  0.18173534709E+02  0.83889485028E+02 -0.16928267139E+02  0.19297225005E+03  0.17200000000E+03 0. -1.
</event>
<event>
 4    1  0.2889985E+000  0.2055075E+03  0.7818608E-02  0.1145174E+00
         21   -1    0    0  503  502  0.00000000000E+00  0.00000000000E+00  0.10489950856E+04  0.10489950856E+04  0.00000000000E+00 0.  1.
         21   -1    0    0  501  503 -0.00000000000E+00 -0.00000000000E+00 -0.46276165222E+02  0.46276165222E+02  0.00000000000E+00 0.  1.
          6    1    1    2  501    0 -0.10769905022E+03  0.32407728005E+02  0.30391487909E+03  0.36687545569E+03  0.17200000000E+03 0.  1.
         -6    1    1    2    0  502  0.10769905022E+03 -0.32407728005E+02  0.69880404134E+03  0.72839579518E+03  0.17200000000E+03 0.  1.
</event>
<event>
 4    1  0.2889985E+000  0.2025638E+03  0.7818608E-02  0.1147594E+00
         21   -1    0    0  501  502  0.00000000000E+00  0.00000000000E+00  0.34699804501E+03  0.34699804501E+03  0.00000000000E+00 0. -1.
         21   -1    0    0  502  503 -0.00000000000E+00 -0.00000000000E+00 -0.16559961963E+03  0.16559961963E+03  0.00000000000E+00 0.  1.
          6    1    1    2  501    0 -0.30606611406E+01 -0.10695194038E+03  0.22774981177E+03  0.30479839559E+03  0.17200000000E+03 0. -1.
         -6    1    1    2    0  503  0.30606611406E+01  0.10695194038E+03 -0.46351386385E+02  0.20779926905E+03  0.17200000000E+03 0. -1.
</event>
<event>
 4    1  0.2889985E+000  0.2286322E+03  0.7818608E-02  0.1127606E+00
         21   -1    0    0  503  502  0.00000000000E+00  0.00000000000E+00  0.11553029715E+03  0.11553029715E+03  0.00000000000E+00 0.  1.
         21   -1    0    0  501  503 -0.00000000000E+00 -0.00000000000E+00 -0.69503241446E+03  0.69503241446E+03  0.00000000000E+00 0.  1.
          6    1    1    2  501    0  0.70603783208E+02  0.13305562021E+03 -0.52917960689E+03  0.57645793309E+03  0.17200000000E+03 0.  1.
         -6    1    1    2    0  502 -0.70603783208E+02 -0.13305562021E+03 -0.50322510416E+02  0.23410477852E+03  0.17200000000E+03 0.  1.
</event>
<event>
 4    1  0.2889985E+000  0.2998611E+03  0.7818608E-02  0.1085310E+00
         21   -1    0    0  501  502  0.00000000000E+00  0.00000000000E+00  0.16588939289E+03  0.16588939289E+03  0.00000000000E+00 0. -1.
         21   -1    0    0  502  503 -0.00000000000E+00 -0.00000000000E+00 -0.89513699237E+03  0.89513699237E+03  0.00000000000E+00 0.  1.
          6    1    1    2  501    0 -0.20974890634E+03  0.12782055531E+03 -0.31423167925E+02  0.30150309045E+03  0.17200000000E+03 0. -1.
         -6    1    1    2    0  503  0.20974890634E+03 -0.12782055531E+03 -0.69782443156E+03  0.75952329480E+03  0.17200000000E+03 0.  1.
</event>
<event>
 4    1  0.2889985E+000  0.1857087E+03  0.7818608E-02  0.1162390E+00
         21   -1    0    0  501  502  0.00000000000E+00  0.00000000000E+00  0.17519245409E+03  0.17519245409E+03  0.00000000000E+00 0.  1.
         21   -1    0    0  502  503 -0.00000000000E+00 -0.00000000000E+00 -0.27634681250E+03  0.27634681250E+03  0.00000000000E+00 0.  1.
          6    1    1    2  501    0  0.60910102182E+02 -0.34549672235E+02  0.70509460006E+02  0.19864366174E+03  0.17200000000E+03 0. -1.
         -6    1    1    2    0  503 -0.60910102182E+02  0.34549672235E+02 -0.17166381842E+03  0.25289560485E+03  0.17200000000E+03 0. -1.
</event>
<event>
 4    1  0.2889985E+000  0.1762239E+03  0.7818608E-02  0.1171508E+00
         21   -1    0    0  503  502  0.00000000000E+00  0.00000000000E+00  0.15352005080E+02  0.15352005080E+02  0.00000000000E+00 0. -1.
         21   -1    0    0  501  503 -0.00000000000E+00 -0.00000000000E+00 -0.23667781743E+04  0.23667781743E+04  0.00000000000E+00 0. -1.
          6    1    1    2  501    0  0.37268796817E+02 -0.90494523799E+01 -0.16297471546E+04  0.16392469746E+04  0.17200000000E+03 0.  1.
         -6    1    1    2    0  502 -0.37268796817E+02  0.90494523799E+01 -0.72167901464E+03  0.74288320480E+03  0.17200000000E+03 0.  1.
</event>
<event>
 4    1  0.2889985E+000  0.2562290E+03  0.7818608E-02  0.1109430E+00
         21   -1    0    0  503  502  0.00000000000E+00  0.00000000000E+00  0.54169284666E+03  0.54169284666E+03  0.00000000000E+00 0.  1.
         21   -1    0    0  501  503 -0.00000000000E+00 -0.00000000000E+00 -0.12191970608E+03  0.12191970608E+03  0.00000000000E+00 0.  1.
          6    1    1    2  501    0 -0.84822197345E+02 -0.16992503978E+03  0.23537487465E+03  0.34792909611E+03  0.17200000000E+03 0.  1.
         -6    1    1    2    0  502  0.84822197345E+02  0.16992503978E+03  0.18439826593E+03  0.31568345662E+03  0.17200000000E+03 0.  1.
</event>
<event>
 4    1  0.2889985E+000  0.2043243E+03  0.7818608E-02  0.1146141E+00
         21   -1    0    0  501  502  0.00000000000E+00  0.00000000000E+00  0.29256795417E+02  0.29256795417E+02  0.00000000000E+00 0. -1.
         21   -1    0    0  502  503 -0.00000000000E+00 -0.00000000000E+00 -0.17678006765E+04  0.17678006765E+04  0.00000000000E+00 0.  1.
          6    1    1    2  501    0 -0.61440827866E+02  0.91593829990E+02 -0.47473448451E+03  0.51683772676E+03  0.17200000000E+03 0.  1.
         -6    1    1    2    0  503  0.61440827866E+02 -0.91593829990E+02 -0.12638093966E+04  0.12802197451E+04  0.17200000000E+03 0.  1.
</event>
<event>
 4    1  0.2889985E+000  0.1855258E+03  0.7818608E-02  0.1162560E+00
         21   -1    0    0  501  502  0.00000000000E+00  0.00000000000E+00  0.12124275588E+04  0.12124275588E+04  0.00000000000E+00 0. -1.
         21   -1    0    0  502  503 -0.00000000000E+00 -0.00000000000E+00 -0.29422457638E+02  0.29422457638E+02  0.00000000000E+00 0.  1.
          6    1    1    2  501    0  0.55043131239E+01  0.69321927205E+02  0.47514148232E+03  0.51007769533E+03  0.17200000000E+03 0.  1.
         -6    1    1    2    0  503 -0.55043131239E+01 -0.69321927205E+02  0.70786361882E+03  0.73177232108E+03  0.17200000000E+03 0. -1.
</event>
<event>
 4    1  0.2889985E+000  0.2172584E+03  0.7818608E-02  0.1135944E+00
         21   -1    0    0  503  502  0.00000000000E+00  0.00000000000E+00  0.11966280067E+04  0.11966280067E+04  0.00000000000E+00 0.  1.
         21   -1    0    0  501  503 -0.00000000000E+00 -0.00000000000E+00 -0.60871445170E+02  0.60871445170E+02  0.00000000000E+00 0.  1.
          6    1    1    2  501    0  0.11521824735E+03 -0.65893491269E+02  0.19484779287E+03  0.29183361544E+03  0.17200000000E+03 0.  1.
         -6    1    1    2    0  502 -0.11521824735E+03  0.65893491269E+02  0.94090876868E+03  0.96566583645E+03  0.17200000000E+03 0.  1.
</event>
<event>
 4    1  0.2889985E+000  0.2605979E+03  0.7818608E-02  0.1106785E+00
         21   -1    0    0  501  502  0.00000000000E+00  0.00000000000E+00  0.13288144051E+03  0.13288144051E+03  0.00000000000E+00 0.  1.
         21   -1    0    0  502  503 -0.00000000000E+00 -0.00000000000E+00 -0.65423130946E+03  0.65423130946E+03  0.00000000000E+00 0. -1.
          6    1    1    2  501    0 -0.19053937084E+03  0.44966995802E+02 -0.76572687665E+02  0.27161490948E+03  0.17200000000E+03 0.  1.
         -6    1    1    2    0  503  0.19053937084E+03 -0.44966995802E+02 -0.44477718129E+03  0.51549784049E+03  0.17200000000E+03 0. -1.
</event>
<event>
 4    1  0.2889985E+000  0.2483218E+03  0.7818608E-02  0.1114370E+00
         21   -1    0    0  503  502  0.00000000000E+00  0.00000000000E+00  0.64368517822E+02  0.64368517822E+02  0.00000000000E+00 0. -1.
         21   -1    0    0  501  503 -0.00000000000E+00 -0.00000000000E+00 -0.10199968211E+04  0.10199968211E+04  0.00000000000E+00 0.  1.
          6    1    1    2  501    0  0.17626849291E+03 -0.31766911042E+02 -0.61150535994E+03  0.66000191171E+03  0.17200000000E+03 0. -1.
         -6    1    1    2    0  502 -0.17626849291E+03  0.31766911042E+02 -0.34412294339E+03  0.42436342726E+03  0.17200000000E+03 0. -1.
</event>
<event>
 4    1  0.2889985E+000  0.2548013E+03  0.7818608E-02  0.1110308E+00
         21   -1    0    0  501  502  0.00000000000E+00  0.00000000000E+00  0.10220450928E+04  0.10220450928E+04  0.00000000000E+00 0. -1.
         21   -1    0    0  502  503 -0.00000000000E+00 -0.00000000000E+00 -0.81009890345E+02  0.81009890345E+02  0.00000000000E+00 0.  1.
          6    1    1    2  501    0  0.17026639435E+03  0.79680855319E+02  0.72675978665E+03  0.77013211284E+03  0.17200000000E+03 0. -1.
         -6    1    1    2    0  503 -0.17026639435E+03 -0.79680855319E+02  0.21427541581E+03  0.33292287030E+03  0.17200000000E+03 0.  1.
</event>
<event>
 4    1  0.2889985E+000  0.2023504E+03  0.7818608E-02  0.1147771E+00
         21   -1    0    0  503  502  0.00000000000E+00  0.00000000000E+00  0.72146045215E+02  0.72146045215E+02  0.00000000000E+00 0.  1.
         21   -1    0    0  501  503 -0.00000000000E+00 -0.00000000000E+00 -0.57485352946E+03  0.57485352946E+03  0.00000000000E+00 0.  1.
          6    1    1    2  501    0 -0.10630126502E+03 -0.78558373533E+01 -0.21486177031E+03  0.29514615611E+03  0.17200000000E+03 0. -1.
         -6    1    1    2    0  502  0.10630126502E+03  0.78558373533E+01 -0.28784571393E+03  0.35185341856E+03  0.17200000000E+03 0. -1.
</event>
<event>
 4    1  0.2889985E+000  0.1723466E+03  0.7818608E-02  0.1175423E+00
         21   -1    0    0  503  502  0.00000000000E+00  0.00000000000E+00  0.71750766473E+02  0.71750766473E+02  0.00000000000E+00 0.  1.
         21   -1    0    0  501  503 -0.00000000000E+00 -0.00000000000E+00 -0.51736111202E+03  0.51736111202E+03  0.00000000000E+00 0.  1.
          6    1    1    2  501    0 -0.10113023925E+02  0.41311856634E+01 -0.35447696075E+03  0.39415384770E+03  0.17200000000E+03 0.  1.
         -6    1    1    2    0  502  0.10113023925E+02 -0.41311856634E+01 -0.91133384789E+02  0.19495803079E+03  0.17200000000E+03 0.  1.
</event>
<event>
 4    1  0.2889985E+000  0.2175819E+03  0.7818608E-02  0.1135699E+00
         21   -1    0    0  501  502  0.00000000000E+00  0.00000000000E+00  0.15104378281E+03  0.15104378281E+03  0.00000000000E+00 0. -1.
         21   -1    0    0  502  503 -0.00000000000E+00 -0.00000000000E+00 -0.33760707599E+03  0.33760707599E+03  0.00000000000E+00 0. -1.
          6    1    1    2  501    0 -0.11121288984E+03 -0.73413710675E+02 -0.15866260664E+03  0.26928739764E+03  0.17200000000E+03 0. -1.
         -6    1    1    2    0  503  0.11121288984E+03  0.73413710675E+02 -0.27900686543E+02  0.21936346116E+03  0.17200000000E+03 0. -1.
</event>
<event>
 4    1  0.2889985E+000  0.2021654E+03  0.7818608E-02  0.1147925E+00
         21   -1    0    0  501  502  0.00000000000E+00  0.00000000000E+00  0.92386419758E+02  0.92386419758E+02  0.00000000000E+00 0.  1.
         21   -1    0    0  502  503 -0.00000000000E+00 -0.00000000000E+00 -0.45774338122E+03  0.45774338122E+03  0.00000000000E+00 0. -1.
          6    1    1    2  501    0 -0.25113178431E+02  0.10322869974E+03 -0.13230233461E+03  0.24160865863E+03  0.17200000000E+03 0. -1.
         -6    1    1    2    0  503  0.25113178431E+02 -0.10322869974E+03 -0.23305462686E+03  0.30852114235E+03  0.17200000000E+03 0. -1.
</event>
<event>
 4    1  0.2889985E+000  0.1871131E+03  0.7818608E-02  0.1161091E+00
         21   -1    0    0  503  502  0.00000000000E+00  0.00000000000E+00  0.71429904071E+02  0.71429904071E+02  0.00000000000E+00 0.  1.
         21   -1    0    0  501  503 -0.00000000000E+00 -0.00000000000E+00 -0.54144467819E+03  0.54144467819E+03  0.00000000000E+00 0.  1.
          6    1    1    2  501    0 -0.15585166370E+02  0.72002842130E+02 -0.32932750336E+03  0.37877158177E+03  0.17200000000E+03 0.  1.
         -6    1    1    2    0  502  0.15585166370E+02 -0.72002842130E+02 -0.14068727075E+03  0.23410300049E+03  0.17200000000E+03 0.  1.
</event>
<event>
 4    1  0.2889985E+000  0.1956965E+03  0.7818608E-02  0.1153422E+00
         21   -1    0    0  503  502  0.00000000000E+00  0.00000000000E+00  0.27065096543E+03  0.27065096543E+03  0.00000000000E+00 0.  1.
         21   -1    0    0  501  503 -0.00000000000E+00 -0.00000000000E+00 -0.19266163596E+03  0.19266163596E+03  0.00000000000E+00 0.  1.
          6    1    1    2  501    0 -0.66407664244E+02 -0.65598265243E+02 -0.80381803891E+02  0.21156168053E+03  0.17200000000E+03 0.  1.
         -6    1    1    2    0  502  0.66407664244E+02  0.65598265243E+02  0.15837113336E+03  0.25175092086E+03  0.17200000000E+03 0.  1.
</event>
<event>
 4    1  0.2889985E+000  0.1745274E+03  0.7818608E-02  0.1173207E+00
         21   -1    0    0  501  502  0.00000000000E+00  0.00000000000E+00  0.35950735460E+03  0.35950735460E+03  0.00000000000E+00 0. -1.
         21   -1    0    0  502  503 -0.00000000000E+00 -0.00000000000E+00 -0.10506412293E+03  0.10506412293E+03  0.00000000000E+00 0. -1.
          6    1    1    2  501    0  0.21899080132E+02 -0.19906012201E+02  0.22942019406E+03  0.28825933545E+03  0.17200000000E+03 0. -1.
         -6    1    1    2    0  503 -0.21899080132E+02  0.19906012201E+02  0.25023037617E+02  0.17631214208E+03  0.17200000000E+03 0. -1.
</event>
<event>
 4    1  0.2889985E+000  0.1829428E+03  0.7818608E-02  0.1164985E+00
         21   -1    0    0  503  502  0.00000000000E+00  0.00000000000E+00  0.18783996010E+03  0.18783996010E+03  0.00000000000E+00 0.  1.
         21   -1    0    0  501  503 -0.00000000000E+00 -0.00000000000E+00 -0.19158108192E+03  0.19158108192E+03  0.00000000000E+00 0.  1.
          6    1    1    2  501    0 -0.61123143142E+02  0.12166568707E+02 -0.52057846546E+02  0.19020537166E+03  0.17200000000E+03 0.  1.
         -6    1    1    2    0  502  0.61123143142E+02 -0.12166568707E+02  0.48316724722E+02  0.18921567036E+03  0.17200000000E+03 0.  1.
</event>
<event>
 4    1  0.2889985E+000  0.1992926E+03  0.7818608E-02  0.1150337E+00
         21   -1    0    0  501  502  0.00000000000E+00  0.00000000000E+00  0.75355834390E+03  0.75355834390E+03  0.00000000000E+00 0. -1.
         21   -1    0    0  502  503 -0.00000000000E+00 -0.00000000000E+00 -0.61081430246E+02  0.61081430246E+02  0.00000000000E+00 0. -1.
          6    1    1    2  501    0 -0.93342574351E+02 -0.37692390308E+02  0.49706131100E+03  0.53552544232E+03  0.17200000000E+03 0. -1.
         -6    1    1    2    0  503  0.93342574351E+02  0.37692390308E+02  0.19541560266E+03  0.27911433183E+03  0.17200000000E+03 0. -1.
</event>
<event>
 4    1  0.2889985E+000  0.3075334E+03  0.7818608E-02  0.1081534E+00
         21   -1    0    0  503  502  0.00000000000E+00  0.00000000000E+00  0.31762181499E+03  0.31762181499E+03  0.00000000000E+00 0.  1.
         21   -1    0    0  501  503 -0.00000000000E+00 -0.00000000000E+00 -0.65586561448E+03  0.65586561448E+03  0.00000000000E+00 0. -1.
          6    1    1    2  501    0  0.30920338039E+02 -0.25305473792E+03  0.19054067424E+03  0.36177688736E+03  0.17200000000E+03 0.  1.
         -6    1    1    2    0  502 -0.30920338039E+02  0.25305473792E+03 -0.52878447373E+03  0.61171054212E+03  0.17200000000E+03 0. -1.
</event>
<event>
 4    1  0.2889985E+000  0.1933345E+03  0.7818608E-02  0.1155488E+00
         21   -1    0    0  501  502  0.00000000000E+00  0.00000000000E+00  0.18601091277E+03  0.18601091277E+03  0.00000000000E+00 0.  1.
         21   -1    0    0  502  503 -0.00000000000E+00 -0.00000000000E+00 -0.20334820780E+03  0.20334820780E+03  0.00000000000E+00 0.  1.
          6    1    1    2  501    0  0.87943491344E+02 -0.77580358089E+01 -0.29825879800E+02  0.19562164475E+03  0.17200000000E+03 0. -1.
         -6    1    1    2    0  503 -0.87943491344E+02  0.77580358089E+01  0.12488584768E+02  0.19373747582E+03  0.17200000000E+03 0. -1.
</event>
<event>
 4    1  0.2889985E+000  0.2166890E+03  0.7818608E-02  0.1136376E+00
         21   -1    0    0  503  502  0.00000000000E+00  0.00000000000E+00  0.10124687253E+03  0.10124687253E+03  0.00000000000E+00 0.  1.
         21   -1    0    0  501  503 -0.00000000000E+00 -0.00000000000E+00 -0.72027054897E+03  0.72027054897E+03  0.00000000000E+00 0.  1.
          6    1    1    2  501    0 -0.56517689489E+02  0.11906242729E+03 -0.55463972933E+03  0.59546564986E+03  0.17200000000E+03 0.  1.
         -6    1    1    2    0  502  0.56517689489E+02 -0.11906242729E+03 -0.64383947119E+02  0.22605177164E+03  0.17200000000E+03 0.  1.
</event>
<event>
 4    1  0.2889985E+000  0.1954222E+03  0.7818608E-02  0.1153660E+00
         21   -1    0    0  503  502  0.00000000000E+00  0.00000000000E+00  0.27588976582E+04  0.27588976582E+04  0.00000000000E+00 0. -1.
         21   -1    0    0  501  503 -0.00000000000E+00 -0.00000000000E+00 -0.47195327137E+02  0.47195327137E+02  0.00000000000E+00 0. -1.
          6    1    1    2  501    0 -0.48330882597E+02 -0.79183018737E+02  0.17637437739E+03  0.26324464984E+03  0.17200000000E+03 0. -1.
         -6    1    1    2    0  502  0.48330882597E+02  0.79183018737E+02  0.25353279537E+04  0.25428483355E+04  0.17200000000E+03 0. -1.
</event>
<event>
 4    1  0.2889985E+000  0.2199465E+03  0.7818608E-02  0.1133923E+00
         21   -1    0    0  501  502  0.00000000000E+00  0.00000000000E+00  0.72847654732E+02  0.72847654732E+02  0.00000000000E+00 0. -1.
         21   -1    0    0  502  503 -0.00000000000E+00 -0.00000000000E+00 -0.73279143003E+03  0.73279143003E+03  0.00000000000E+00 0. -1.
          6    1    1    2  501    0 -0.12413246305E+03  0.58168738394E+02 -0.20662064960E+03  0.30177568383E+03  0.17200000000E+03 0. -1.
         -6    1    1    2    0  503  0.12413246305E+03 -0.58168738394E+02 -0.45332312569E+03  0.50386340093E+03  0.17200000000E+03 0. -1.
</event>
<event>
 4    1  0.2889985E+000  0.2133151E+03  0.7818608E-02  0.1138967E+00
         21   -1    0    0  503  502  0.00000000000E+00  0.00000000000E+00  0.21092311172E+03  0.21092311172E+03  0.00000000000E+00 0.  1.
         21   -1    0    0  501  503 -0.00000000000E+00 -0.00000000000E+00 -0.22609117839E+03  0.22609117839E+03  0.00000000000E+00 0.  1.
          6    1    1    2  501    0 -0.63703128408E+02  0.10890938728E+03 -0.54350971085E+02  0.22013035062E+03  0.17200000000E+03 0.  1.
         -6    1    1    2    0  502  0.63703128408E+02 -0.10890938728E+03  0.39182904418E+02  0.21688393948E+03  0.17200000000E+03 0.  1.
</event>
<event>
 4    1  0.2889985E+000  0.2003248E+03  0.7818608E-02  0.1149465E+00
         21   -1    0    0  501  502  0.00000000000E+00  0.00000000000E+00  0.45344149622E+03  0.45344149622E+03  0.00000000000E+00 0.  1.
         21   -1    0    0  502  503 -0.00000000000E+00 -0.00000000000E+00 -0.89964194769E+02  0.89964194769E+02  0.00000000000E+00 0. -1.
          6    1    1    2  501    0  0.92222159417E+02 -0.45178369881E+02  0.21638958997E+03  0.29488042736E+03  0.17200000000E+03 0.  1.
         -6    1    1    2    0  503 -0.92222159417E+02  0.45178369881E+02  0.14708771148E+03  0.24852526363E+03  0.17200000000E+03 0. -1.
</event>
<event>
 4    1  0.2889985E+000  0.1945963E+03  0.7818608E-02  0.1154380E+00
         21   -1    0    0  501  502  0.00000000000E+00  0.00000000000E+00  0.14645261383E+04  0.14645261383E+04  0.00000000000E+00 0.  1.
         21   -1    0    0  502  503 -0.00000000000E+00 -0.00000000000E+00 -0.27905655940E+02  0.27905655940E+02  0.00000000000E+00 0.  1.
          6    1    1    2  501    0  0.89950742689E+02 -0.13878061773E+02  0.92051445875E+03  0.94085844072E+03  0.17200000000E+03 0.  1.
         -6    1    1    2    0  503 -0.89950742689E+02  0.13878061773E+02  0.51610602366E+03  0.55157335356E+03  0.17200000000E+03 0.  1.
</event>
<event>
 4    1  0.2889985E+000  0.2878159E+03  0.7818608E-02  0.1091495E+00
         21   -1    0    0  503  502  0.00000000000E+00  0.00000000000E+00  0.11188897323E+03  0.11188897323E+03  0.00000000000E+00 0. -1.
         21   -1    0    0  501  503 -0.00000000000E+00 -0.00000000000E+00 -0.91601306345E+03  0.91601306345E+03  0.00000000000E+00 0. -1.
          6    1    1    2  501    0  0.20686521613E+03  0.10227790970E+03 -0.62712303117E+03  0.69001542351E+03  0.17200000000E+03 0. -1.
         -6    1    1    2    0  502 -0.20686521613E+03 -0.10227790970E+03 -0.17700105905E+03  0.33788661318E+03  0.17200000000E+03 0. -1.
</event>
<event>
 4    1  0.2889985E+000  0.1723522E+03  0.7818608E-02  0.1175417E+00
         21   -1    0    0  503  502  0.00000000000E+00  0.00000000000E+00  0.29123840684E+02  0.29123840684E+02  0.00000000000E+00 0.  1.
         21   -1    0    0  501  503 -0.00000000000E+00 -0.00000000000E+00 -0.16993634835E+04  0.16993634835E+04  0.00000000000E+00 0.  1.
          6    1    1    2  501    0  0.10962942171E+00  0.11012102467E+02 -0.13815762831E+04  0.13922852812E+04  0.17200000000E+03 0.  1.
         -6    1    1    2    0  502 -0.10962942171E+00 -0.11012102467E+02 -0.28866335974E+03  0.33620204294E+03  0.17200000000E+03 0.  1.
</event>
<event>
 4    1  0.2889985E+000  0.1903731E+03  0.7818608E-02  0.1158125E+00
         21   -1    0    0  503  502  0.00000000000E+00  0.00000000000E+00  0.85149338015E+02  0.85149338015E+02  0.00000000000E+00 0. -1.
         21   -1    0    0  501  503 -0.00000000000E+00 -0.00000000000E+00 -0.46695477791E+03  0.46695477791E+03  0.00000000000E+00 0.  1.
          6    1    1    2  501    0 -0.49615679328E+02 -0.64778031161E+02 -0.27302697002E+03  0.33284476159E+03  0.17200000000E+03 0. -1.
         -6    1    1    2    0  502  0.49615679328E+02  0.64778031161E+02 -0.10877846987E+03  0.21925935434E+03  0.17200000000E+03 0.  1.
</event>
<event>
 4    1  0.2889985E+000  0.2190047E+03  0.7818608E-02  0.1134627E+00
         21   -1    0    0  503  502  0.00000000000E+00  0.00000000000E+00  0.19749546326E+03  0.19749546326E+03  0.00000000000E+00 0. -1.
         21   -1    0    0  501  503 -0.00000000000E+00 -0.00000000000E+00 -0.34119225698E+03  0.34119225698E+03  0.00000000000E+00 0. -1.
          6    1    1    2  501    0  0.10174028001E+03 -0.89598840172E+02 -0.21644678622E+03  0.30791597555E+03  0.17200000000E+03 0. -1.
         -6    1    1    2    0  502 -0.10174028001E+03  0.89598840172E+02  0.72749992495E+02  0.23077174469E+03  0.17200000000E+03 0. -1.
</event>
<event>
 4    1  0.2889985E+000  0.2539770E+03  0.7818608E-02  0.1110817E+00
         21   -1    0    0  501  502  0.00000000000E+00  0.00000000000E+00  0.14330859087E+03  0.14330859087E+03  0.00000000000E+00 0. -1.
         21   -1    0    0  502  503 -0.00000000000E+00 -0.00000000000E+00 -0.74022149032E+03  0.74022149032E+03  0.00000000000E+00 0. -1.
          6    1    1    2  501    0 -0.18416651072E+03 -0.31670048362E+02 -0.21893046676E+02  0.25491881282E+03  0.17200000000E+03 0. -1.
         -6    1    1    2    0  503  0.18416651072E+03  0.31670048362E+02 -0.57501985278E+03  0.62861126837E+03  0.17200000000E+03 0. -1.
</event>
<event>
 4    1  0.2889985E+000  0.1962555E+03  0.7818608E-02  0.1152937E+00
         21   -1    0    0  501  502  0.00000000000E+00  0.00000000000E+00  0.41843415485E+02  0.41843415485E+02  0.00000000000E+00 0.  1.
         21   -1    0    0  502  503 -0.00000000000E+00 -0.00000000000E+00 -0.14341018526E+04  0.14341018526E+04  0.00000000000E+00 0.  1.
          6    1    1    2  501    0 -0.74555347134E+02 -0.58083698533E+02 -0.25448749258E+03  0.32137221365E+03  0.17200000000E+03 0.  1.
         -6    1    1    2    0  503  0.74555347134E+02  0.58083698533E+02 -0.11377709445E+04  0.11545730544E+04  0.17200000000E+03 0.  1.
</event>
<event>
 4    1  0.2889985E+000  0.1835399E+03  0.7818608E-02  0.1164420E+00
         21   -1    0    0  501  502  0.00000000000E+00  0.00000000000E+00  0.60135374112E+03  0.60135374112E+03  0.00000000000E+00 0.  1.
         21   -1    0    0  502  503 -0.00000000000E+00 -0.00000000000E+00 -0.11305762187E+03  0.11305762187E+03  0.00000000000E+00 0.  1.
          6    1    1    2  501    0 -0.55205997179E+02  0.32483628217E+02  0.49786831717E+03  0.53062204013E+03  0.17200000000E+03 0.  1.
         -6    1    1    2    0  503  0.55205997179E+02 -0.32483628217E+02 -0.95721979220E+01  0.18378932287E+03  0.17200000000E+03 0.  1.
</event>
<event>
 4    1  0.2889985E+000  0.1954060E+03  0.7818608E-02  0.1153674E+00
         21   -1    0    0  501  502  0.00000000000E+00  0.00000000000E+00  0.60171210571E+02  0.60171210571E+02  0.00000000000E+00 0. -1.
         21   -1    0    0  502  503 -0.00000000000E+00 -0.00000000000E+00 -0.12527751360E+04  0.12527751360E+04  0.00000000000E+00 0. -1.
          6    1    1    2  501    0  0.74099064310E+02  0.55756927251E+02 -0.13515126989E+03  0.23759076586E+03  0.17200000000E+03 0. -1.
         -6    1    1    2    0  503 -0.74099064310E+02 -0.55756927251E+02 -0.10574526555E+04  0.10753555807E+04  0.17200000000E+03 0. -1.
</event>
<event>
 4    1  0.2889985E+000  0.1935776E+03  0.7818608E-02  0.1155274E+00
         21   -1    0    0  503  502  0.00000000000E+00  0.00000000000E+00  0.31345091035E+03  0.31345091035E+03  0.00000000000E+00 0. -1.
         21   -1    0    0  501  503 -0.00000000000E+00 -0.00000000000E+00 -0.12115000272E+03  0.12115000272E+03  0.00000000000E+00 0. -1.
          6    1    1    2  501    0 -0.69716272383E+02 -0.55026595803E+02  0.71158912112E+02  0.20624227417E+03  0.17200000000E+03 0. -1.
         -6    1    1    2    0  502  0.69716272383E+02  0.55026595803E+02  0.12114199552E+03  0.22835863890E+03  0.17200000000E+03 0. -1.
</event>
<event>
 4    1  0.2889985E+000  0.2340330E+03  0.7818608E-02  0.1123833E+00
         21   -1    0    0  501  502  0.00000000000E+00  0.00000000000E+00  0.99653843146E+02  0.99653843146E+02  0.00000000000E+00 0.  1.
         21   -1    0    0  502  503 -0.00000000000E+00 -0.00000000000E+00 -0.66433433780E+03  0.66433433780E+03  0.00000000000E+00 0. -1.
          6    1    1    2  501    0  0.33189878998E+02 -0.15519618367E+03 -0.12360321475E+03  0.26466805283E+03  0.17200000000E+03 0.  1.
         -6    1    1    2    0  503 -0.33189878998E+02  0.15519618367E+03 -0.44107727990E+03  0.49932012811E+03  0.17200000000E+03 0. -1.
</event>
<event>
 4    1  0.2889985E+000  0.1923931E+03  0.7818608E-02  0.1156320E+00
         21   -1    0    0  503  502  0.00000000000E+00  0.00000000000E+00  0.59937064035E+03  0.59937064035E+03  0.00000000000E+00 0. -1.
         21   -1    0    0  501  503 -0.00000000000E+00 -0.00000000000E+00 -0.19900573317E+03  0.19900573317E+03  0.00000000000E+00 0. -1.
          6    1    1    2  501    0 -0.18905516120E+02 -0.84105246604E+02 -0.13132984428E+03  0.23294342456E+03  0.17200000000E+03 0. -1.
         -6    1    1    2    0  502  0.18905516120E+02  0.84105246604E+02  0.53169475145E+03  0.56543294896E+03  0.17200000000E+03 0. -1.
</event>
<event>
 4    1  0.2889985E+000  0.1819164E+03  0.7818608E-02  0.1165961E+00
         21   -1    0    0  503  502  0.00000000000E+00  0.00000000000E+00  0.51030879485E+03  0.51030879485E+03  0.00000000000E+00 0.  1.
         21   -1    0    0  501  503 -0.00000000000E+00 -0.00000000000E+00 -0.10176096575E+03  0.10176096575E+03  0.00000000000E+00 0.  1.
          6    1    1    2  501    0 -0.56094157298E+02 -0.19053039021E+02  0.19960274846E+02  0.18300815651E+03  0.17200000000E+03 0.  1.
         -6    1    1    2    0  502  0.56094157298E+02  0.19053039021E+02  0.38858755425E+03  0.42906160408E+03  0.17200000000E+03 0.  1.
</event>
<event>
 4    1  0.2889985E+000  0.2050098E+03  0.7818608E-02  0.1145580E+00
         21   -1    0    0  501  502  0.00000000000E+00  0.00000000000E+00  0.12034591879E+03  0.12034591879E+03  0.00000000000E+00 0. -1.
         21   -1    0    0  502  503 -0.00000000000E+00 -0.00000000000E+00 -0.36349567713E+03  0.36349567713E+03  0.00000000000E+00 0. -1.
          6    1    1    2  501    0  0.98387327122E+02 -0.52582684644E+02 -0.73657404830E+02  0.21784035014E+03  0.17200000000E+03 0. -1.
         -6    1    1    2    0  503 -0.98387327122E+02  0.52582684644E+02 -0.16949235351E+03  0.26600124579E+03  0.17200000000E+03 0. -1.
</event>
<event>
 4    1  0.2889985E+000  0.1810015E+03  0.7818608E-02  0.1166837E+00
         21   -1    0    0  501  502  0.00000000000E+00  0.00000000000E+00  0.67460126712E+03  0.67460126712E+03  0.00000000000E+00 0. -1.
         21   -1    0    0  502  503 -0.00000000000E+00 -0.00000000000E+00 -0.76098309888E+02  0.76098309888E+02  0.00000000000E+00 0. -1.
          6    1    1    2  501    0  0.40457821237E+02  0.39251679560E+02  0.52503045678E+03  0.55535440054E+03  0.17200000000E+03 0. -1.
         -6    1    1    2    0  503 -0.40457821237E+02 -0.39251679560E+02  0.73472500447E+02  0.19534517647E+03  0.17200000000E+03 0. -1.
</event>
<event>
 4    1  0.2889985E+000  0.1759581E+03  0.7818608E-02  0.1171773E+00
         21   -1    0    0  501  502  0.00000000000E+00  0.00000000000E+00  0.72141219773E+02  0.72141219773E+02  0.00000000000E+00 0. -1.
         21   -1    0    0  502  503 -0.00000000000E+00 -0.00000000000E+00 -0.70691140679E+03  0.70691140679E+03  0.00000000000E+00 0. -1.
          6    1    1    2  501    0 -0.40439534592E+01 -0.36890263109E+02 -0.73227458185E+02  0.19058726532E+03  0.17200000000E+03 0. -1.
         -6    1    1    2    0  503  0.40439534592E+01  0.36890263109E+02 -0.56154272883E+03  0.58846536124E+03  0.17200000000E+03 0. -1.
</event>
<event>
 4    1  0.2889985E+000  0.2120980E+03  0.7818608E-02  0.1139915E+00
         21   -1    0    0  501  502  0.00000000000E+00  0.00000000000E+00  0.25256997056E+03  0.25256997056E+03  0.00000000000E+00 0.  1.
         21   -1    0    0  502  503 -0.00000000000E+00 -0.00000000000E+00 -0.28372104061E+03  0.28372104061E+03  0.00000000000E+00 0. -1.
          6    1    1    2  501    0  0.12246801370E+03  0.20078944137E+02  0.14802195476E+03  0.25864276032E+03  0.17200000000E+03 0.  1.
         -6    1    1    2    0  503 -0.12246801370E+03 -0.20078944137E+02 -0.17917302481E+03  0.27764825084E+03  0.17200000000E+03 0. -1.
</event>
<event>
 4    1  0.2889985E+000  0.2979733E+03  0.7818608E-02  0.1086258E+00
         21   -1    0    0  503  502  0.00000000000E+00  0.00000000000E+00  0.20752721974E+03  0.20752721974E+03  0.00000000000E+00 0.  1.
         21   -1    0    0  501  503 -0.00000000000E+00 -0.00000000000E+00 -0.52838373205E+03  0.52838373205E+03  0.00000000000E+00 0.  1.
          6    1    1    2  501    0 -0.17312998180E+03 -0.17096808280E+03 -0.32093818429E+03  0.43793766003E+03  0.17200000000E+03 0. -1.
         -6    1    1    2    0  502  0.17312998180E+03  0.17096808280E+03  0.81671980126E-01  0.29797329176E+03  0.17200000000E+03 0. -1.
</event>
<event>
 4    1  0.2889985E+000  0.2641116E+03  0.7818608E-02  0.1104698E+00
         21   -1    0    0  503  502  0.00000000000E+00  0.00000000000E+00  0.53179330635E+03  0.53179330635E+03  0.00000000000E+00 0. -1.
         21   -1    0    0  501  503 -0.00000000000E+00 -0.00000000000E+00 -0.14273229711E+03  0.14273229711E+03  0.00000000000E+00 0.  1.
          6    1    1    2  501    0  0.19902780756E+03 -0.23640587331E+02  0.29052423835E+03  0.39263122471E+03  0.17200000000E+03 0. -1.
         -6    1    1    2    0  502 -0.19902780756E+03  0.23640587331E+02  0.98536770893E+02  0.28189437875E+03  0.17200000000E+03 0.  1.
</event>
<event>
 4    1  0.2889985E+000  0.1760668E+03  0.7818608E-02  0.1171665E+00
         21   -1    0    0  503  502  0.00000000000E+00  0.00000000000E+00  0.20917384431E+03  0.20917384431E+03  0.00000000000E+00 0. -1.
         21   -1    0    0  501  503 -0.00000000000E+00 -0.00000000000E+00 -0.50848563721E+03  0.50848563721E+03  0.00000000000E+00 0. -1.
          6    1    1    2  501    0  0.28703094667E+02  0.24323741523E+02 -0.45170163290E+03  0.48480292615E+03  0.17200000000E+03 0. -1.
         -6    1    1    2    0  502 -0.28703094667E+02 -0.24323741523E+02  0.15238983999E+03  0.23285655537E+03  0.17200000000E+03 0. -1.
</event>
<event>
 4    1  0.2889985E+000  0.1918481E+03  0.7818608E-02  0.1156805E+00
         21   -1    0    0  503  502  0.00000000000E+00  0.00000000000E+00  0.58705720518E+03  0.58705720518E+03  0.00000000000E+00 0.  1.
         21   -1    0    0  501  503 -0.00000000000E+00 -0.00000000000E+00 -0.11886158588E+03  0.11886158588E+03  0.00000000000E+00 0.  1.
          6    1    1    2  501    0 -0.52277094642E+02 -0.66998417852E+02 -0.85308706645E+01  0.19203764832E+03  0.17200000000E+03 0.  1.
         -6    1    1    2    0  502  0.52277094642E+02  0.66998417852E+02  0.47672648997E+03  0.51388114273E+03  0.17200000000E+03 0.  1.
</event>
<event>
 4    1  0.2889985E+000  0.2644730E+03  0.7818608E-02  0.1104485E+00
         21   -1    0    0  501  502  0.00000000000E+00  0.00000000000E+00  0.36774740025E+03  0.36774740025E+03  0.00000000000E+00 0. -1.
         21   -1    0    0  502  503 -0.00000000000E+00 -0.00000000000E+00 -0.25919804169E+03  0.25919804169E+03  0.00000000000E+00 0.  1.
          6    1    1    2  501    0  0.20026367624E+03 -0.16013146255E+02  0.21600774134E+03  0.34147518972E+03  0.17200000000E+03 0. -1.
         -6    1    1    2    0  503 -0.20026367624E+03  0.16013146255E+02 -0.10745838278E+03  0.28547025223E+03  0.17200000000E+03 0.  1.
</event>
<event>
 4    1  0.2889985E+000  0.2152908E+03  0.7818608E-02  0.1137443E+00
         21   -1    0    0  503  502  0.00000000000E+00  0.00000000000E+00  0.90806855952E+02  0.90806855952E+02  0.00000000000E+00 0.  1.
         21   -1    0    0  501  503 -0.00000000000E+00 -0.00000000000E+00 -0.90169087921E+03  0.90169087921E+03  0.00000000000E+00 0.  1.
          6    1    1    2  501    0  0.14583330943E+02  0.12866022482E+03 -0.73233563509E+03  0.76332536275E+03  0.17200000000E+03 0.  1.
         -6    1    1    2    0  502 -0.14583330943E+02 -0.12866022482E+03 -0.78548388167E+02  0.22917237241E+03  0.17200000000E+03 0.  1.
</event>
<event>
 4    1  0.2889985E+000  0.2483103E+03  0.7818608E-02  0.1114377E+00
         21   -1    0    0  501  502  0.00000000000E+00  0.00000000000E+00  0.57551639542E+03  0.57551639542E+03  0.00000000000E+00 0.  1.
         21   -1    0    0  502  503 -0.00000000000E+00 -0.00000000000E+00 -0.10854089050E+03  0.10854089050E+03  0.00000000000E+00 0.  1.
          6    1    1    2  501    0 -0.73628189702E+02  0.16325720817E+03  0.27241205014E+03  0.36860053092E+03  0.17200000000E+03 0.  1.
         -6    1    1    2    0  503  0.73628189702E+02 -0.16325720817E+03  0.19456345478E+03  0.31545675500E+03  0.17200000000E+03 0.  1.
</event>
<event>
 4    1  0.2889985E+000  0.2216598E+03  0.7818608E-02  0.1132652E+00
         21   -1    0    0  501  502  0.00000000000E+00  0.00000000000E+00  0.24883271825E+03  0.24883271825E+03  0.00000000000E+00 0.  1.
         21   -1    0    0  502  503 -0.00000000000E+00 -0.00000000000E+00 -0.56357414830E+03  0.56357414830E+03  0.00000000000E+00 0.  1.
          6    1    1    2  501    0  0.37268008991E+02  0.13475972325E+03  0.17003005868E+03  0.27936232452E+03  0.17200000000E+03 0.  1.
         -6    1    1    2    0  503 -0.37268008991E+02 -0.13475972325E+03 -0.48477148873E+03  0.53304454203E+03  0.17200000000E+03 0.  1.
</event>
<event>
 4    1  0.2889985E+000  0.2058946E+03  0.7818608E-02  0.1144859E+00
         21   -1    0    0  501  502  0.00000000000E+00  0.00000000000E+00  0.35758088909E+03  0.35758088909E+03  0.00000000000E+00 0.  1.
         21   -1    0    0  502  503 -0.00000000000E+00 -0.00000000000E+00 -0.17570584423E+03  0.17570584423E+03  0.00000000000E+00 0.  1.
          6    1    1    2  501    0 -0.43611542880E+02 -0.10443471459E+03  0.24301101928E+03  0.31850734964E+03  0.17200000000E+03 0.  1.
         -6    1    1    2    0  503  0.43611542880E+02  0.10443471459E+03 -0.61135974421E+02  0.21477938368E+03  0.17200000000E+03 0.  1.
</event>
<event>
 4    1  0.2889985E+000  0.2036927E+03  0.7818608E-02  0.1146660E+00
         21   -1    0    0  503  502  0.00000000000E+00  0.00000000000E+00  0.52208073941E+03  0.52208073941E+03  0.00000000000E+00 0. -1.
         21   -1    0    0  501  503 -0.00000000000E+00 -0.00000000000E+00 -0.91304286786E+02  0.91304286786E+02  0.00000000000E+00 0.  1.
          6    1    1    2  501    0  0.54530036410E+02  0.94515523081E+02  0.32579485577E+03  0.38423039576E+03  0.17200000000E+03 0. -1.
         -6    1    1    2    0  502 -0.54530036410E+02 -0.94515523081E+02  0.10498159685E+03  0.22915463044E+03  0.17200000000E+03 0.  1.
</event>
<event>
 4    1  0.2889985E+000  0.1843069E+03  0.7818608E-02  0.1163699E+00
         21   -1    0    0  501  502  0.00000000000E+00  0.00000000000E+00  0.43704591770E+03  0.43704591770E+03  0.00000000000E+00 0.  1.
         21   -1    0    0  502  503 -0.00000000000E+00 -0.00000000000E+00 -0.28953643724E+03  0.28953643724E+03  0.00000000000E+00 0.  1.
          6    1    1    2  501    0  0.35598989989E+02  0.55836742894E+02  0.38448159963E+03  0.42637440167E+03  0.17200000000E+03 0.  1.
         -6    1    1    2    0  503 -0.35598989989E+02 -0.55836742894E+02 -0.23697211916E+03  0.30020795327E+03  0.17200000000E+03 0.  1.
</event>
<event>
 4    1  0.2889985E+000  0.2222608E+03  0.7818608E-02  0.1132209E+00
         21   -1    0    0  503  502  0.00000000000E+00  0.00000000000E+00  0.12790538177E+04  0.12790538177E+04  0.00000000000E+00 0.  1.
         21   -1    0    0  501  503 -0.00000000000E+00 -0.00000000000E+00 -0.43419466621E+02  0.43419466621E+02  0.00000000000E+00 0.  1.
          6    1    1    2  501    0  0.70196516611E+01 -0.14059370726E+03  0.39802520545E+03  0.45587709989E+03  0.17200000000E+03 0.  1.
         -6    1    1    2    0  502 -0.70196516611E+01  0.14059370726E+03  0.83760914565E+03  0.86659618445E+03  0.17200000000E+03 0.  1.
</event>
<event>
 4    1  0.2889985E+000  0.1729645E+03  0.7818608E-02  0.1174791E+00
         21   -1    0    0  503  502  0.00000000000E+00  0.00000000000E+00  0.29423262028E+03  0.29423262028E+03  0.00000000000E+00 0.  1.
         21   -1    0    0  501  503 -0.00000000000E+00 -0.00000000000E+00 -0.12308754771E+03  0.12308754771E+03  0.00000000000E+00 0.  1.
          6    1    1    2  501    0  0.17955779453E+02 -0.32104282023E+01 -0.14527148779E+01  0.17297059648E+03  0.17200000000E+03 0. -1.
         -6    1    1    2    0  502 -0.17955779453E+02  0.32104282023E+01  0.17259778746E+03  0.24434957152E+03  0.17200000000E+03 0. -1.
</event>
<event>
 4    1  0.2889985E+000  0.2252619E+03  0.7818608E-02  0.1130020E+00
         21   -1    0    0  501  502  0.00000000000E+00  0.00000000000E+00  0.32001541461E+03  0.32001541461E+03  0.00000000000E+00 0. -1.
         21   -1    0    0  502  503 -0.00000000000E+00 -0.00000000000E+00 -0.51921433715E+03  0.51921433715E+03  0.00000000000E+00 0.  1.
          6    1    1    2  501    0  0.20835619493E+02  0.14396106292E+03  0.25012075211E+03  0.33660555745E+03  0.17200000000E+03 0. -1.
         -6    1    1    2    0  503 -0.20835619493E+02 -0.14396106292E+03 -0.44931967465E+03  0.50262419430E+03  0.17200000000E+03 0.  1.
</event>
<event>
 4    1  0.2889985E+000  0.1958485E+03  0.7818608E-02  0.1153290E+00
         21   -1    0    0  503  502  0.00000000000E+00  0.00000000000E+00  0.14357809502E+04  0.14357809502E+04  0.00000000000E+00 0. -1.
         21   -1    0    0  501  503 -0.00000000000E+00 -0.00000000000E+00 -0.65663788383E+02  0.65663788383E+02  0.00000000000E+00 0.  1.
          6    1    1    2  501    0  0.93621199596E+02 -0.27791590981E+01  0.10687696424E+03  0.22311283743E+03  0.17200000000E+03 0.  1.
         -6    1    1    2    0  502 -0.93621199596E+02  0.27791590981E+01  0.12632401975E+04  0.12783319011E+04  0.17200000000E+03 0. -1.
</event>
<event>
 4    1  0.2889985E+000  0.1900656E+03  0.7818608E-02  0.1158402E+00
         21   -1    0    0  501  502  0.00000000000E+00  0.00000000000E+00  0.49139471926E+02  0.49139471926E+02  0.00000000000E+00 0. -1.
         21   -1    0    0  502  503 -0.00000000000E+00 -0.00000000000E+00 -0.79455584296E+03  0.79455584296E+03  0.00000000000E+00 0.  1.
          6    1    1    2  501    0 -0.67555259319E+02  0.44466112309E+02 -0.48805434633E+03  0.52375757100E+03  0.17200000000E+03 0.  1.
         -6    1    1    2    0  503  0.67555259319E+02 -0.44466112309E+02 -0.25736202471E+03  0.31993774389E+03  0.17200000000E+03 0.  1.
</event>
<event>
 4    1  0.2889985E+000  0.1921852E+03  0.7818608E-02  0.1156505E+00
         21   -1    0    0  503  502  0.00000000000E+00  0.00000000000E+00  0.40276413986E+03  0.40276413986E+03  0.00000000000E+00 0. -1.
         21   -1    0    0  501  503 -0.00000000000E+00 -0.00000000000E+00 -0.26761077711E+03  0.26761077711E+03  0.00000000000E+00 0. -1.
          6    1    1    2  501    0  0.83276472871E+02  0.20400851098E+02 -0.20417797389E+03  0.28039937711E+03  0.17200000000E+03 0. -1.
         -6    1    1    2    0  502 -0.83276472871E+02 -0.20400851098E+02  0.33933133665E+03  0.38997553986E+03  0.17200000000E+03 0. -1.
</event>
<event>
 4    1  0.2889985E+000  0.2350796E+03  0.7818608E-02  0.1123115E+00
         21   -1    0    0  503  502  0.00000000000E+00  0.00000000000E+00  0.17153633764E+03  0.17153633764E+03  0.00000000000E+00 0. -1.
         21   -1    0    0  501  503 -0.00000000000E+00 -0.00000000000E+00 -0.75155295652E+03  0.75155295652E+03  0.00000000000E+00 0.  1.
          6    1    1    2  501    0  0.35738991735E+02 -0.15620870725E+03 -0.63887582316E+03  0.68075307797E+03  0.17200000000E+03 0.  1.
         -6    1    1    2    0  502 -0.35738991735E+02  0.15620870725E+03  0.58859204278E+02  0.24233621619E+03  0.17200000000E+03 0. -1.
</event>
<event>
 4    1  0.2889985E+000  0.2037832E+03  0.7818608E-02  0.1146586E+00
         21   -1    0    0  501  502  0.00000000000E+00  0.00000000000E+00  0.88591665216E+02  0.88591665216E+02  0.00000000000E+00 0.  1.
         21   -1    0    0  502  503 -0.00000000000E+00 -0.00000000000E+00 -0.49813984569E+03  0.49813984569E+03  0.00000000000E+00 0. -1.
          6    1    1    2  501    0  0.48352489828E+02 -0.98008406230E+02 -0.13351995301E+03  0.24362920354E+03  0.17200000000E+03 0. -1.
         -6    1    1    2    0  503 -0.48352489828E+02  0.98008406230E+02 -0.27602822746E+03  0.34310230737E+03  0.17200000000E+03 0. -1.
</event>
<event>
 4    1  0.2889985E+000  0.1800484E+03  0.7818608E-02  0.1167756E+00
         21   -1    0    0  501  502  0.00000000000E+00  0.00000000000E+00  0.50534559481E+03  0.50534559481E+03  0.00000000000E+00 0.  1.
         21   -1    0    0  502  503 -0.00000000000E+00 -0.00000000000E+00 -0.12785065759E+03  0.12785065759E+03  0.00000000000E+00 0. -1.
          6    1    1    2  501    0  0.53030977805E+02  0.45986160322E+01  0.41222409516E+03  0.44982900808E+03  0.17200000000E+03 0.  1.
         -6    1    1    2    0  503 -0.53030977805E+02 -0.45986160322E+01 -0.34729157943E+02  0.18336724432E+03  0.17200000000E+03 0. -1.
</event>
<event>
 4    1  0.2889985E+000  0.1792166E+03  0.7818608E-02  0.1168563E+00
         21   -1    0    0  503  502  0.00000000000E+00  0.00000000000E+00  0.19029868194E+03  0.19029868194E+03  0.00000000000E+00 0.  1.
         21   -1    0    0  501  503 -0.00000000000E+00 -0.00000000000E+00 -0.17000922689E+03  0.17000922689E+03  0.00000000000E+00 0.  1.
          6    1    1    2  501    0 -0.28267525914E+02 -0.41659960865E+02  0.25463688609E+02  0.18101658708E+03  0.17200000000E+03 0. -1.
         -6    1    1    2    0  502  0.28267525914E+02  0.41659960865E+02 -0.51742335592E+01  0.17929132175E+03  0.17200000000E+03 0. -1.
</event>
<event>
 4    1  0.2889985E+000  0.1786140E+03  0.7818608E-02  0.1169151E+00
         21   -1    0    0  503  502  0.00000000000E+00  0.00000000000E+00  0.12257687220E+03  0.12257687220E+03  0.00000000000E+00 0.  1.
         21   -1    0    0  501  503 -0.00000000000E+00 -0.00000000000E+00 -0.24018260325E+04  0.24018260325E+04  0.00000000000E+00 0.  1.
          6    1    1    2  501    0  0.39821898467E+02 -0.27077237110E+02 -0.23314776619E+04  0.23383094423E+04  0.17200000000E+03 0.  1.
         -6    1    1    2    0  502 -0.39821898467E+02  0.27077237110E+02  0.52228501537E+02  0.18609346238E+03  0.17200000000E+03 0.  1.
</event>
<event>
 4    1  0.2889985E+000  0.1764991E+03  0.7818608E-02  0.1171235E+00
         21   -1    0    0  501  502  0.00000000000E+00  0.00000000000E+00  0.34529486350E+02  0.34529486350E+02  0.00000000000E+00 0. -1.
         21   -1    0    0  502  503 -0.00000000000E+00 -0.00000000000E+00 -0.90263860608E+03  0.90263860608E+03  0.00000000000E+00 0. -1.
          6    1    1    2  501    0  0.13062526952E+01 -0.39575502256E+02 -0.42353077047E+03  0.45883574426E+03  0.17200000000E+03 0.  1.
         -6    1    1    2    0  503 -0.13062526952E+01  0.39575502256E+02 -0.44457834925E+03  0.47833234816E+03  0.17200000000E+03 0.  1.
</event>
<event>
 4    1  0.2889985E+000  0.1869753E+03  0.7818608E-02  0.1161218E+00
         21   -1    0    0  501  502  0.00000000000E+00  0.00000000000E+00  0.40397731478E+03  0.40397731478E+03  0.00000000000E+00 0. -1.
         21   -1    0    0  502  503 -0.00000000000E+00 -0.00000000000E+00 -0.76497854524E+03  0.76497854524E+03  0.00000000000E+00 0. -1.
          6    1    1    2  501    0 -0.49339178951E+02 -0.54234782341E+02  0.36992557166E+03  0.41449329882E+03  0.17200000000E+03 0. -1.
         -6    1    1    2    0  503  0.49339178951E+02  0.54234782341E+02 -0.73092680212E+03  0.75446256120E+03  0.17200000000E+03 0. -1.
</event>
<event>
 4    1  0.2889985E+000  0.1844490E+03  0.7818608E-02  0.1163565E+00
         21   -1    0    0  503  502  0.00000000000E+00  0.00000000000E+00  0.11907707594E+04  0.11907707594E+04  0.00000000000E+00 0. -1.
         21   -1    0    0  501  503 -0.00000000000E+00 -0.00000000000E+00 -0.28709708268E+02  0.28709708268E+02  0.00000000000E+00 0. -1.
          6    1    1    2  501    0  0.43521464667E+02 -0.50431194741E+02  0.62342384278E+03  0.65013745549E+03  0.17200000000E+03 0. -1.
         -6    1    1    2    0  502 -0.43521464667E+02  0.50431194741E+02  0.53863720837E+03  0.56934301219E+03  0.17200000000E+03 0. -1.
</event>
<event>
 4    1  0.2889985E+000  0.1791176E+03  0.7818608E-02  0.1168660E+00
         21   -1    0    0  501  502  0.00000000000E+00  0.00000000000E+00  0.41670398974E+03  0.41670398974E+03  0.00000000000E+00 0.  1.
         21   -1    0    0  502  503 -0.00000000000E+00 -0.00000000000E+00 -0.78061481449E+02  0.78061481449E+02  0.00000000000E+00 0.  1.
          6    1    1    2  501    0 -0.38202826292E+02  0.32243764978E+02  0.14037320416E+03  0.22756922631E+03  0.17200000000E+03 0. -1.
         -6    1    1    2    0  503  0.38202826292E+02 -0.32243764978E+02  0.19826930412E+03  0.26719624487E+03  0.17200000000E+03 0. -1.
</event>
<event>
 4    1  0.2889985E+000  0.2158971E+03  0.7818608E-02  0.1136979E+00
         21   -1    0    0  503  502  0.00000000000E+00  0.00000000000E+00  0.93098568107E+02  0.93098568107E+02  0.00000000000E+00 0.  1.
         21   -1    0    0  501  503 -0.00000000000E+00 -0.00000000000E+00 -0.83898506571E+03  0.83898506571E+03  0.00000000000E+00 0. -1.
          6    1    1    2  501    0  0.77873205419E+02 -0.10470587075E+03 -0.66888699143E+03  0.70286653270E+03  0.17200000000E+03 0. -1.
         -6    1    1    2    0  502 -0.77873205419E+02  0.10470587075E+03 -0.76999506179E+02  0.22921710112E+03  0.17200000000E+03 0.  1.
</event>
<event>
 4    1  0.2889985E+000  0.1825243E+03  0.7818608E-02  0.1165382E+00
         21   -1    0    0  503  502  0.00000000000E+00  0.00000000000E+00  0.55300658050E+03  0.55300658050E+03  0.00000000000E+00 0.  1.
         21   -1    0    0  501  503 -0.00000000000E+00 -0.00000000000E+00 -0.62854471061E+02  0.62854471061E+02  0.00000000000E+00 0.  1.
          6    1    1    2  501    0 -0.54559877459E+01  0.60838851637E+02  0.18231743381E+03  0.25798213183E+03  0.17200000000E+03 0.  1.
         -6    1    1    2    0  502  0.54559877459E+01 -0.60838851637E+02  0.30783467563E+03  0.35787891973E+03  0.17200000000E+03 0.  1.
</event>
<event>
 4    1  0.2889985E+000  0.2184778E+03  0.7818608E-02  0.1135023E+00
         21   -1    0    0  503  502  0.00000000000E+00  0.00000000000E+00  0.60070738936E+03  0.60070738936E+03  0.00000000000E+00 0.  1.
         21   -1    0    0  501  503 -0.00000000000E+00 -0.00000000000E+00 -0.82030592815E+02  0.82030592815E+02  0.00000000000E+00 0. -1.
          6    1    1    2  501    0  0.70606341176E+02  0.11473137100E+03  0.31976189446E+03  0.38727278765E+03  0.17200000000E+03 0.  1.
         -6    1    1    2    0  502 -0.70606341176E+02 -0.11473137100E+03  0.19891490209E+03  0.29546519453E+03  0.17200000000E+03 0. -1.
</event>
<event>
 4    1  0.2889985E+000  0.1782182E+03  0.7818608E-02  0.1169539E+00
         21   -1    0    0  501  502  0.00000000000E+00  0.00000000000E+00  0.70471645459E+02  0.70471645459E+02  0.00000000000E+00 0.  1.
         21   -1    0    0  502  503 -0.00000000000E+00 -0.00000000000E+00 -0.45140345078E+03  0.45140345078E+03  0.00000000000E+00 0.  1.
          6    1    1    2  501    0 -0.44561660393E+02 -0.13855334077E+02 -0.18017978733E+03  0.25342941349E+03  0.17200000000E+03 0. -1.
         -6    1    1    2    0  503  0.44561660393E+02  0.13855334077E+02 -0.20075201799E+03  0.26844568275E+03  0.17200000000E+03 0. -1.
</event>
<event>
 4    1  0.2889985E+000  0.2004580E+03  0.7818608E-02  0.1149353E+00
         21   -1    0    0  501  502  0.00000000000E+00  0.00000000000E+00  0.16259955716E+04  0.16259955716E+04  0.00000000000E+00 0. -1.
         21   -1    0    0  502  503 -0.00000000000E+00 -0.00000000000E+00 -0.32541828613E+02  0.32541828613E+02  0.00000000000E+00 0. -1.
          6    1    1    2  501    0 -0.29456747340E+02 -0.98649441432E+02  0.12034693739E+04  0.12200499770E+04  0.17200000000E+03 0. -1.
         -6    1    1    2    0  503  0.29456747340E+02  0.98649441432E+02  0.38998436909E+03  0.43848742330E+03  0.17200000000E+03 0. -1.
</event>
<event>
 4    1  0.2889985E+000  0.1950750E+03  0.7818608E-02  0.1153962E+00
         21   -1    0    0  503  502  0.00000000000E+00  0.00000000000E+00  0.21843216938E+03  0.21843216938E+03  0.00000000000E+00 0.  1.
         21   -1    0    0  501  503 -0.00000000000E+00 -0.00000000000E+00 -0.22042073718E+03  0.22042073718E+03  0.00000000000E+00 0.  1.
          6    1    1    2  501    0  0.91996510128E+02  0.26267707294E+01 -0.10145785556E+03  0.21988168240E+03  0.17200000000E+03 0.  1.
         -6    1    1    2    0  502 -0.91996510128E+02 -0.26267707294E+01  0.99469287769E+02  0.21897122416E+03  0.17200000000E+03 0.  1.
</event>
<event>
 4    1  0.2889985E+000  0.2331362E+03  0.7818608E-02  0.1124452E+00
         21   -1    0    0  501  502  0.00000000000E+00  0.00000000000E+00  0.10794302271E+04  0.10794302271E+04  0.00000000000E+00 0.  1.
         21   -1    0    0  502  503 -0.00000000000E+00 -0.00000000000E+00 -0.21515570996E+03  0.21515570996E+03  0.00000000000E+00 0. -1.
          6    1    1    2  501    0  0.12486239957E+03 -0.95801125149E+02  0.99864613390E+03  0.10254982083E+04  0.17200000000E+03 0.  1.
         -6    1    1    2    0  503 -0.12486239957E+03  0.95801125149E+02 -0.13437161675E+03  0.26908772881E+03  0.17200000000E+03 0. -1.
</event>
<event>
 4    1  0.2889985E+000  0.1807376E+03  0.7818608E-02  0.1167091E+00
         21   -1    0    0  503  502  0.00000000000E+00  0.00000000000E+00  0.57200688379E+02  0.57200688379E+02  0.00000000000E+00 0. -1.
         21   -1    0    0  501  503 -0.00000000000E+00 -0.00000000000E+00 -0.67721230040E+03  0.67721230040E+03  0.00000000000E+00 0. -1.
          6    1    1    2  501    0  0.13846492460E+02  0.53762106558E+02 -0.45537573320E+03  0.48993177876E+03  0.17200000000E+03 0. -1.
         -6    1    1    2    0  502 -0.13846492460E+02 -0.53762106558E+02 -0.16463587882E+03  0.24448121001E+03  0.17200000000E+03 0. -1.
</event>
<event>
 4    1  0.2889985E+000  0.1936206E+03  0.7818608E-02  0.1155236E+00
         21   -1    0    0  501  502  0.00000000000E+00  0.00000000000E+00  0.67754363697E+03  0.67754363697E+03  0.00000000000E+00 0.  1.
         21   -1    0    0  502  503 -0.00000000000E+00 -0.00000000000E+00 -0.55331274016E+02  0.55331274016E+02  0.00000000000E+00 0.  1.
          6    1    1    2  501    0 -0.16172537330E+02  0.87426509707E+02  0.31231366549E+03  0.36746261200E+03  0.17200000000E+03 0.  1.
         -6    1    1    2    0  503  0.16172537330E+02 -0.87426509707E+02  0.30989869746E+03  0.36541229899E+03  0.17200000000E+03 0.  1.
</event>
<event>
 4    1  0.2889985E+000  0.2164039E+03  0.7818608E-02  0.1136593E+00
         21   -1    0    0  501  502  0.00000000000E+00  0.00000000000E+00  0.15563213285E+03  0.15563213285E+03  0.00000000000E+00 0.  1.
         21   -1    0    0  502  503 -0.00000000000E+00 -0.00000000000E+00 -0.30110640951E+03  0.30110640951E+03  0.00000000000E+00 0.  1.
          6    1    1    2  501    0 -0.12911473951E+03  0.24000735219E+02 -0.78627966760E+02  0.23024553939E+03  0.17200000000E+03 0.  1.
         -6    1    1    2    0  503  0.12911473951E+03 -0.24000735219E+02 -0.66846309904E+02  0.22649300298E+03  0.17200000000E+03 0.  1.
</event>
<event>
 4    1  0.2889985E+000  0.1984523E+03  0.7818608E-02  0.1151051E+00
         21   -1    0    0  501  502  0.00000000000E+00  0.00000000000E+00  0.29484764754E+03  0.29484764754E+03  0.00000000000E+00 0. -1.
         21   -1    0    0  502  503 -0.00000000000E+00 -0.00000000000E+00 -0.13989894855E+03  0.13989894855E+03  0.00000000000E+00 0.  1.
          6    1    1    2  501    0 -0.79108973967E+02  0.59507113683E+02  0.12370218169E+03  0.23384943039E+03  0.17200000000E+03 0. -1.
         -6    1    1    2    0  503  0.79108973967E+02 -0.59507113683E+02  0.31246517297E+02  0.20089716569E+03  0.17200000000E+03 0.  1.
</event>
<event>
 4    1  0.2889985E+000  0.1751429E+03  0.7818608E-02  0.1172588E+00
         21   -1    0    0  503  502  0.00000000000E+00  0.00000000000E+00  0.24794805189E+03  0.24794805189E+03  0.00000000000E+00 0.  1.
         21   -1    0    0  501  503 -0.00000000000E+00 -0.00000000000E+00 -0.16278027463E+03  0.16278027463E+03  0.00000000000E+00 0.  1.
          6    1    1    2  501    0 -0.23099649340E+02  0.23610413337E+02 -0.58020239325E+02  0.18450309913E+03  0.17200000000E+03 0.  1.
         -6    1    1    2    0  502  0.23099649340E+02 -0.23610413337E+02  0.14318801658E+03  0.22622522740E+03  0.17200000000E+03 0.  1.
</event>
<event>
 4    1  0.2889985E+000  0.2029810E+03  0.7818608E-02  0.1147248E+00
         21   -1    0    0  501  502  0.00000000000E+00  0.00000000000E+00  0.89389597594E+02  0.89389597594E+02  0.00000000000E+00 0.  1.
         21   -1    0    0  502  503 -0.00000000000E+00 -0.00000000000E+00 -0.49606268895E+03  0.49606268895E+03  0.00000000000E+00 0. -1.
          6    1    1    2  501    0 -0.10774448136E+03  0.29000865735E+01 -0.12542130010E+03  0.23860382705E+03  0.17200000000E+03 0. -1.
         -6    1    1    2    0  503  0.10774448136E+03 -0.29000865735E+01 -0.28125179126E+03  0.34684845949E+03  0.17200000000E+03 0. -1.
</event>
<event>
 4    1  0.2889985E+000  0.2646670E+03  0.7818608E-02  0.1104371E+00
         21   -1    0    0  501  502  0.00000000000E+00  0.00000000000E+00  0.16389928255E+04  0.16389928255E+04  0.00000000000E+00 0.  1.
         21   -1    0    0  502  503 -0.00000000000E+00 -0.00000000000E+00 -0.49183145229E+02  0.49183145229E+02  0.00000000000E+00 0.  1.
          6    1    1    2  501    0  0.11534558454E+03 -0.16480291964E+03  0.11004451854E+04  0.11318251686E+04  0.17200000000E+03 0.  1.
         -6    1    1    2    0  503 -0.11534558454E+03  0.16480291964E+03  0.48936449488E+03  0.55635080215E+03  0.17200000000E+03 0.  1.
</event>
<event>
 4    1  0.2889985E+000  0.2354542E+03  0.7818608E-02  0.1122859E+00
         21   -1    0    0  503  502  0.00000000000E+00  0.00000000000E+00  0.15274212066E+03  0.15274212066E+03  0.00000000000E+00 0.  1.
         21   -1    0    0  501  503 -0.00000000000E+00 -0.00000000000E+00 -0.53438703654E+03  0.53438703654E+03  0.00000000000E+00 0. -1.
          6    1    1    2  501    0 -0.72346325700E+02  0.14359902645E+03 -0.38541452566E+03  0.45164480273E+03  0.17200000000E+03 0. -1.
         -6    1    1    2    0  502  0.72346325700E+02 -0.14359902645E+03  0.37696097771E+01  0.23548435447E+03  0.17200000000E+03 0.  1.
</event>
<event>
 4    1  0.2889985E+000  0.1895936E+03  0.7818608E-02  0.1158828E+00
         21   -1    0    0  501  502  0.00000000000E+00  0.00000000000E+00  0.13640402949E+04  0.13640402949E+04  0.00000000000E+00 0. -1.
         21   -1    0    0  502  503 -0.00000000000E+00 -0.00000000000E+00 -0.12130705290E+03  0.12130705290E+03  0.00000000000E+00 0. -1.
          6    1    1    2  501    0 -0.58477007019E+02  0.54241933945E+02  0.12784388439E+04  0.12924208391E+04  0.17200000000E+03 0. -1.
         -6    1    1    2    0  503  0.58477007019E+02 -0.54241933945E+02 -0.35705601908E+02  0.19292650869E+03  0.17200000000E+03 0. -1.
</event>
<event>
 4    1  0.2889985E+000  0.3043381E+03  0.7818608E-02  0.1083092E+00
         21   -1    0    0  501  502  0.00000000000E+00  0.00000000000E+00  0.83488531009E+03  0.83488531009E+03  0.00000000000E+00 0.  1.
         21   -1    0    0  502  503 -0.00000000000E+00 -0.00000000000E+00 -0.56569064790E+03  0.56569064790E+03  0.00000000000E+00 0. -1.
          6    1    1    2  501    0 -0.65768958082E+02 -0.24230587939E+03  0.76247366010E+03  0.82096758607E+03  0.17200000000E+03 0.  1.
         -6    1    1    2    0  503  0.65768958082E+02  0.24230587939E+03 -0.49327899790E+03  0.57960837192E+03  0.17200000000E+03 0. -1.
</event>
<event>
 4    1  0.2889985E+000  0.1818699E+03  0.7818608E-02  0.1166005E+00
         21   -1    0    0  501  502  0.00000000000E+00  0.00000000000E+00  0.78315102400E+03  0.78315102400E+03  0.00000000000E+00 0.  1.
         21   -1    0    0  502  503 -0.00000000000E+00 -0.00000000000E+00 -0.51800798582E+02  0.51800798582E+02  0.00000000000E+00 0.  1.
          6    1    1    2  501    0  0.11651790094E+02  0.57938874117E+02  0.54507216066E+03  0.57461320701E+03  0.17200000000E+03 0.  1.
         -6    1    1    2    0  503 -0.11651790094E+02 -0.57938874117E+02  0.18627806476E+03  0.26033861557E+03  0.17200000000E+03 0.  1.
</event>
<event>
 4    1  0.2889985E+000  0.3330883E+03  0.7818608E-02  0.1069778E+00
         21   -1    0    0  501  502  0.00000000000E+00  0.00000000000E+00  0.87152045631E+03  0.87152045631E+03  0.00000000000E+00 0.  1.
         21   -1    0    0  502  503 -0.00000000000E+00 -0.00000000000E+00 -0.12770697294E+03  0.12770697294E+03  0.00000000000E+00 0. -1.
          6    1    1    2  501    0  0.28430238055E+03  0.23151741317E+02  0.39997946665E+03  0.52051073039E+03  0.17200000000E+03 0. -1.
         -6    1    1    2    0  503 -0.28430238055E+03 -0.23151741317E+02  0.34383401672E+03  0.47871669886E+03  0.17200000000E+03 0. -1.
</event>
<event>
 4    1  0.2889985E+000  0.1996974E+03  0.7818608E-02  0.1149995E+00
         21   -1    0    0  501  502  0.00000000000E+00  0.00000000000E+00  0.12090718125E+03  0.12090718125E+03  0.00000000000E+00 0.  1.
         21   -1    0    0  502  503 -0.00000000000E+00 -0.00000000000E+00 -0.33946079238E+03  0.33946079238E+03  0.00000000000E+00 0.  1.
          6    1    1    2  501    0  0.21716242576E+02  0.99113385753E+02 -0.70509464201E+02  0.21177970386E+03  0.17200000000E+03 0.  1.
         -6    1    1    2    0  503 -0.21716242576E+02 -0.99113385753E+02 -0.14804414692E+03  0.24858826976E+03  0.17200000000E+03 0.  1.
</event>
<event>
 4    1  0.2889985E+000  0.1776605E+03  0.7818608E-02  0.1170087E+00
         21   -1    0    0  503  502  0.00000000000E+00  0.00000000000E+00  0.87910664019E+02  0.87910664019E+02  0.00000000000E+00 0. -1.
         21   -1    0    0  501  503 -0.00000000000E+00 -0.00000000000E+00 -0.45370504343E+03  0.45370504343E+03  0.00000000000E+00 0. -1.
          6    1    1    2  501    0 -0.34078134712E+02 -0.28599550897E+02 -0.30659848886E+03  0.35435277189E+03  0.17200000000E+03 0. -1.
         -6    1    1    2    0  502  0.34078134712E+02  0.28599550897E+02 -0.59195890559E+02  0.18726293556E+03  0.17200000000E+03 0. -1.
</event>
<event>
 4    1  0.2889985E+000  0.1789413E+03  0.7818608E-02  0.1168832E+00
         21   -1    0    0  501  502  0.00000000000E+00  0.00000000000E+00  0.47111613636E+03  0.47111613636E+03  0.00000000000E+00 0.  1.
         21   -1    0    0  502  503 -0.00000000000E+00 -0.00000000000E+00 -0.77154333570E+02  0.77154333570E+02  0.00000000000E+00 0.  1.
          6    1    1    2  501    0 -0.19065254115E+02  0.45524657734E+02  0.10237938342E+03  0.20615895936E+03  0.17200000000E+03 0.  1.
         -6    1    1    2    0  503  0.19065254115E+02 -0.45524657734E+02  0.29158241936E+03  0.34211151056E+03  0.17200000000E+03 0.  1.
</event>
<event>
 4    1  0.2889985E+000  0.1831971E+03  0.7818608E-02  0.1164744E+00
         21   -1    0    0  501  502  0.00000000000E+00  0.00000000000E+00  0.89254422675E+02  0.89254422675E+02  0.00000000000E+00 0.  1.
         21   -1    0    0  502  503 -0.00000000000E+00 -0.00000000000E+00 -0.51222611879E+03  0.51222611879E+03  0.00000000000E+00 0.  1.
          6    1    1    2  501    0  0.42031091902E+02 -0.47016598258E+02 -0.56402937158E+02  0.19168324006E+03  0.17200000000E+03 0.  1.
         -6    1    1    2    0  503 -0.42031091902E+02  0.47016598258E+02 -0.36656875896E+03  0.40979730141E+03  0.17200000000E+03 0.  1.
</event>
<event>
 4    1  0.2889985E+000  0.1862029E+03  0.7818608E-02  0.1161931E+00
         21   -1    0    0  503  502  0.00000000000E+00  0.00000000000E+00  0.86680557367E+02  0.86680557367E+02  0.00000000000E+00 0. -1.
         21   -1    0    0  501  503 -0.00000000000E+00 -0.00000000000E+00 -0.46477000633E+03  0.46477000633E+03  0.00000000000E+00 0.  1.
          6    1    1    2  501    0 -0.69303548088E+02 -0.16868487977E+02 -0.29198169973E+03  0.34630166133E+03  0.17200000000E+03 0.  1.
         -6    1    1    2    0  502  0.69303548088E+02  0.16868487977E+02 -0.86107749236E+02  0.20514890237E+03  0.17200000000E+03 0. -1.
</event>
<event>
 4    1  0.2889985E+000  0.2470649E+03  0.7818608E-02  0.1115174E+00
         21   -1    0    0  503  502  0.00000000000E+00  0.00000000000E+00  0.10896971407E+04  0.10896971407E+04  0.00000000000E+00 0. -1.
         21   -1    0    0  501  503 -0.00000000000E+00 -0.00000000000E+00 -0.59746745259E+02  0.59746745259E+02  0.00000000000E+00 0. -1.
          6    1    1    2  501    0  0.11623459380E+03 -0.13396490167E+03  0.37137125428E+03  0.44604672870E+03  0.17200000000E+03 0. -1.
         -6    1    1    2    0  502 -0.11623459380E+03  0.13396490167E+03  0.65857914116E+03  0.70339715726E+03  0.17200000000E+03 0. -1.
</event>
<event>
 4    1  0.2889985E+000  0.3816744E+03  0.7818608E-02  0.1050317E+00
         21   -1    0    0  501  502  0.00000000000E+00  0.00000000000E+00  0.11519870445E+04  0.11519870445E+04  0.00000000000E+00 0.  1.
         21   -1    0    0  502  503 -0.00000000000E+00 -0.00000000000E+00 -0.12941786243E+03  0.12941786243E+03  0.00000000000E+00 0.  1.
          6    1    1    2  501    0  0.33125440066E+03  0.79761228494E+02  0.60821576948E+03  0.71805414404E+03  0.17200000000E+03 0.  1.
         -6    1    1    2    0  503 -0.33125440066E+03 -0.79761228494E+02  0.41435341263E+03  0.56335076292E+03  0.17200000000E+03 0.  1.
</event>
<event>
 4    1  0.2889985E+000  0.2317138E+03  0.7818608E-02  0.1125439E+00
         21   -1    0    0  501  502  0.00000000000E+00  0.00000000000E+00  0.18039428460E+03  0.18039428460E+03  0.00000000000E+00 0.  1.
         21   -1    0    0  502  503 -0.00000000000E+00 -0.00000000000E+00 -0.29866480167E+03  0.29866480167E+03  0.00000000000E+00 0.  1.
          6    1    1    2  501    0  0.76478465491E+02  0.13512339608E+03 -0.45056312519E+02  0.23605372090E+03  0.17200000000E+03 0.  1.
         -6    1    1    2    0  503 -0.76478465491E+02 -0.13512339608E+03 -0.73214204550E+02  0.24300536537E+03  0.17200000000E+03 0.  1.
</event>
<event>
 4    1  0.2889985E+000  0.4405665E+03  0.7818608E-02  0.1030573E+00
         21   -1    0    0  501  502  0.00000000000E+00  0.00000000000E+00  0.80696802762E+03  0.80696802762E+03  0.00000000000E+00 0. -1.
         21   -1    0    0  502  503 -0.00000000000E+00 -0.00000000000E+00 -0.27401898899E+03  0.27401898899E+03  0.00000000000E+00 0.  1.
          6    1    1    2  501    0  0.36079948802E+03 -0.18530676519E+03  0.45543040592E+03  0.63365268280E+03  0.17200000000E+03 0. -1.
         -6    1    1    2    0  503 -0.36079948802E+03  0.18530676519E+03  0.77518632708E+02  0.44733433380E+03  0.17200000000E+03 0.  1.
</event>
<event>
 4    1  0.2889985E+000  0.2339054E+03  0.7818608E-02  0.1123921E+00
         21   -1    0    0  503  502  0.00000000000E+00  0.00000000000E+00  0.27858776249E+03  0.27858776249E+03  0.00000000000E+00 0. -1.
         21   -1    0    0  501  503 -0.00000000000E+00 -0.00000000000E+00 -0.26249681531E+03  0.26249681531E+03  0.00000000000E+00 0.  1.
          6    1    1    2  501    0  0.42013687389E+02 -0.15284818062E+03 -0.12772265865E+03  0.26650477252E+03  0.17200000000E+03 0.  1.
         -6    1    1    2    0  502 -0.42013687389E+02  0.15284818062E+03  0.14381360583E+03  0.27457980528E+03  0.17200000000E+03 0. -1.
</event>
<event>
 4    1  0.2889985E+000  0.2881236E+03  0.7818608E-02  0.1091333E+00
         21   -1    0    0  503  502  0.00000000000E+00  0.00000000000E+00  0.59408809458E+03  0.59408809458E+03  0.00000000000E+00 0.  1.
         21   -1    0    0  501  503 -0.00000000000E+00 -0.00000000000E+00 -0.23940382567E+03  0.23940382567E+03  0.00000000000E+00 0.  1.
          6    1    1    2  501    0  0.71313329210E+02 -0.21987642077E+03 -0.91553846209E+02  0.30231992671E+03  0.17200000000E+03 0.  1.
         -6    1    1    2    0  502 -0.71313329210E+02  0.21987642077E+03  0.44623811511E+03  0.53117199353E+03  0.17200000000E+03 0.  1.
</event>
<event>
 4    1  0.2889985E+000  0.2396776E+03  0.7818608E-02  0.1120008E+00
         21   -1    0    0  503  502  0.00000000000E+00  0.00000000000E+00  0.30059256615E+03  0.30059256615E+03  0.00000000000E+00 0.  1.
         21   -1    0    0  501  503 -0.00000000000E+00 -0.00000000000E+00 -0.45906378186E+03  0.45906378186E+03  0.00000000000E+00 0.  1.
          6    1    1    2  501    0 -0.16487925224E+03 -0.26003728430E+02 -0.36942597253E+03  0.44036452047E+03  0.17200000000E+03 0.  1.
         -6    1    1    2    0  502  0.16487925224E+03  0.26003728430E+02  0.21095475682E+03  0.31929182754E+03  0.17200000000E+03 0.  1.
</event>
<event>
 4    1  0.2889985E+000  0.1937946E+03  0.7818608E-02  0.1155083E+00
         21   -1    0    0  503  502  0.00000000000E+00  0.00000000000E+00  0.28958370211E+03  0.28958370211E+03  0.00000000000E+00 0. -1.
         21   -1    0    0  501  503 -0.00000000000E+00 -0.00000000000E+00 -0.13053462765E+03  0.13053462765E+03  0.00000000000E+00 0. -1.
          6    1    1    2  501    0 -0.23107971222E+02 -0.86245895548E+02  0.96413920224E+02  0.21645317472E+03  0.17200000000E+03 0. -1.
         -6    1    1    2    0  502  0.23107971222E+02  0.86245895548E+02  0.62635154226E+02  0.20366515504E+03  0.17200000000E+03 0. -1.
</event>
<event>
 4    1  0.2889985E+000  0.1735864E+03  0.7818608E-02  0.1174159E+00
         21   -1    0    0  501  502  0.00000000000E+00  0.00000000000E+00  0.18254899183E+03  0.18254899183E+03  0.00000000000E+00 0.  1.
         21   -1    0    0  502  503 -0.00000000000E+00 -0.00000000000E+00 -0.27815757683E+03  0.27815757683E+03  0.00000000000E+00 0.  1.
          6    1    1    2  501    0 -0.15629394154E+02 -0.17434489643E+02  0.99077586491E+02  0.19987147754E+03  0.17200000000E+03 0.  1.
         -6    1    1    2    0  503  0.15629394154E+02  0.17434489643E+02 -0.19468617148E+03  0.26083509112E+03  0.17200000000E+03 0.  1.
</event>
<event>
 4    1  0.2889985E+000  0.2261409E+03  0.7818608E-02  0.1129386E+00
         21   -1    0    0  503  502  0.00000000000E+00  0.00000000000E+00  0.12547677105E+03  0.12547677105E+03  0.00000000000E+00 0. -1.
         21   -1    0    0  501  503 -0.00000000000E+00 -0.00000000000E+00 -0.41221630115E+03  0.41221630115E+03  0.00000000000E+00 0.  1.
          6    1    1    2  501    0 -0.10218340675E+03  0.10542414091E+03 -0.17193377313E+03  0.28407907428E+03  0.17200000000E+03 0. -1.
         -6    1    1    2    0  502  0.10218340675E+03 -0.10542414091E+03 -0.11480575697E+03  0.25361399791E+03  0.17200000000E+03 0.  1.
</event>
<event>
 4    1  0.2889985E+000  0.1821920E+03  0.7818608E-02  0.1165698E+00
         21   -1    0    0  501  502  0.00000000000E+00  0.00000000000E+00  0.39898126096E+03  0.39898126096E+03  0.00000000000E+00 0.  1.
         21   -1    0    0  502  503 -0.00000000000E+00 -0.00000000000E+00 -0.45129139037E+03  0.45129139037E+03  0.00000000000E+00 0.  1.
          6    1    1    2  501    0 -0.43880889263E+02 -0.41041217795E+02  0.35779918804E+03  0.40151484775E+03  0.17200000000E+03 0.  1.
         -6    1    1    2    0  503  0.43880889263E+02  0.41041217795E+02 -0.41010931746E+03  0.44875780357E+03  0.17200000000E+03 0.  1.
</event>
<event>
 4    1  0.2889985E+000  0.2450536E+03  0.7818608E-02  0.1116471E+00
         21   -1    0    0  501  502  0.00000000000E+00  0.00000000000E+00  0.58526715861E+03  0.58526715861E+03  0.00000000000E+00 0. -1.
         21   -1    0    0  502  503 -0.00000000000E+00 -0.00000000000E+00 -0.11656318681E+03  0.11656318681E+03  0.00000000000E+00 0.  1.
          6    1    1    2  501    0 -0.11906501379E+03 -0.12763537568E+03  0.35578528910E+03  0.43201208151E+03  0.17200000000E+03 0. -1.
         -6    1    1    2    0  503  0.11906501379E+03  0.12763537568E+03  0.11291868270E+03  0.26981826390E+03  0.17200000000E+03 0.  1.
</event>
<event>
 4    1  0.2889985E+000  0.1764818E+03  0.7818608E-02  0.1171252E+00
         21   -1    0    0  503  502  0.00000000000E+00  0.00000000000E+00  0.50798390374E+02  0.50798390374E+02  0.00000000000E+00 0. -1.
         21   -1    0    0  501  503 -0.00000000000E+00 -0.00000000000E+00 -0.87063579262E+03  0.87063579262E+03  0.00000000000E+00 0. -1.
          6    1    1    2  501    0 -0.64187314846E+01 -0.38995225478E+02 -0.66047926061E+03  0.68365099387E+03  0.17200000000E+03 0. -1.
         -6    1    1    2    0  502  0.64187314846E+01  0.38995225478E+02 -0.15935814164E+03  0.23778318912E+03  0.17200000000E+03 0. -1.
</event>
<event>
 4    1  0.2889985E+000  0.2077306E+03  0.7818608E-02  0.1143376E+00
         21   -1    0    0  501  502  0.00000000000E+00  0.00000000000E+00  0.15292832844E+04  0.15292832844E+04  0.00000000000E+00 0. -1.
         21   -1    0    0  502  503 -0.00000000000E+00 -0.00000000000E+00 -0.28869356415E+02  0.28869356415E+02  0.00000000000E+00 0. -1.
          6    1    1    2  501    0 -0.10094354918E+03 -0.58124139241E+02  0.63310773973E+03  0.66631631062E+03  0.17200000000E+03 0. -1.
         -6    1    1    2    0  503  0.10094354918E+03  0.58124139241E+02  0.86730618827E+03  0.89183633021E+03  0.17200000000E+03 0. -1.
</event>
<event>
 4    1  0.2889985E+000  0.1820219E+03  0.7818608E-02  0.1165860E+00
         21   -1    0    0  503  502  0.00000000000E+00  0.00000000000E+00  0.14876980671E+03  0.14876980671E+03  0.00000000000E+00 0. -1.
         21   -1    0    0  501  503 -0.00000000000E+00 -0.00000000000E+00 -0.18492606507E+04  0.18492606507E+04  0.00000000000E+00 0. -1.
          6    1    1    2  501    0 -0.48058553873E+02 -0.35190061457E+02 -0.17871758456E+04  0.17964212947E+04  0.17200000000E+03 0. -1.
         -6    1    1    2    0  502  0.48058553873E+02  0.35190061457E+02  0.86685001519E+02  0.20160916277E+03  0.17200000000E+03 0. -1.
</event>
<event>
 4    1  0.2889985E+000  0.1849602E+03  0.7818608E-02  0.1163087E+00
         21   -1    0    0  503  502  0.00000000000E+00  0.00000000000E+00  0.89381013061E+02  0.89381013061E+02  0.00000000000E+00 0.  1.
         21   -1    0    0  501  503 -0.00000000000E+00 -0.00000000000E+00 -0.45073381866E+03  0.45073381866E+03  0.00000000000E+00 0.  1.
          6    1    1    2  501    0 -0.13302794504E+02  0.66703051028E+02 -0.28556065784E+03  0.34022808624E+03  0.17200000000E+03 0.  1.
         -6    1    1    2    0  502  0.13302794504E+02 -0.66703051028E+02 -0.75792147756E+02  0.19988674548E+03  0.17200000000E+03 0.  1.
</event>
<event>
 4    1  0.2889985E+000  0.2702440E+03  0.7818608E-02  0.1101140E+00
         21   -1    0    0  503  502  0.00000000000E+00  0.00000000000E+00  0.13916037688E+03  0.13916037688E+03  0.00000000000E+00 0.  1.
         21   -1    0    0  501  503 -0.00000000000E+00 -0.00000000000E+00 -0.54432631278E+03  0.54432631278E+03  0.00000000000E+00 0.  1.
          6    1    1    2  501    0  0.16993282688E+03 -0.12070899631E+03 -0.26730373073E+03  0.38010934203E+03  0.17200000000E+03 0.  1.
         -6    1    1    2    0  502 -0.16993282688E+03  0.12070899631E+03 -0.13786220517E+03  0.30337734763E+03  0.17200000000E+03 0.  1.
</event>
<event>
 4    1  0.2889985E+000  0.1759134E+03  0.7818608E-02  0.1171818E+00
         21   -1    0    0  503  502  0.00000000000E+00  0.00000000000E+00  0.15230657548E+03  0.15230657548E+03  0.00000000000E+00 0.  1.
         21   -1    0    0  501  503 -0.00000000000E+00 -0.00000000000E+00 -0.22673983179E+03  0.22673983179E+03  0.00000000000E+00 0.  1.
          6    1    1    2  501    0 -0.23553471052E+02  0.28403473570E+02  0.23876482506E+02  0.17752636347E+03  0.17200000000E+03 0.  1.
         -6    1    1    2    0  502  0.23553471052E+02 -0.28403473570E+02 -0.98309738818E+02  0.20152004381E+03  0.17200000000E+03 0.  1.
</event>
<event>
 4    1  0.2889985E+000  0.1763277E+03  0.7818608E-02  0.1171405E+00
         21   -1    0    0  501  502  0.00000000000E+00  0.00000000000E+00  0.86819154208E+03  0.86819154208E+03  0.00000000000E+00 0.  1.
         21   -1    0    0  502  503 -0.00000000000E+00 -0.00000000000E+00 -0.91682772115E+02  0.91682772115E+02  0.00000000000E+00 0.  1.
          6    1    1    2  501    0  0.38589722954E+02  0.42773742514E+01  0.76291133737E+03  0.78302309758E+03  0.17200000000E+03 0.  1.
         -6    1    1    2    0  503 -0.38589722954E+02 -0.42773742514E+01  0.13597432598E+02  0.17685121662E+03  0.17200000000E+03 0.  1.
</event>
<event>
 4    1  0.2889985E+000  0.1935628E+03  0.7818608E-02  0.1155287E+00
         21   -1    0    0  501  502  0.00000000000E+00  0.00000000000E+00  0.18062023998E+04  0.18062023998E+04  0.00000000000E+00 0.  1.
         21   -1    0    0  502  503 -0.00000000000E+00 -0.00000000000E+00 -0.20784497310E+02  0.20784497310E+02  0.00000000000E+00 0.  1.
          6    1    1    2  501    0 -0.74426981815E+02 -0.48406286419E+02  0.85202456349E+03  0.87373474291E+03  0.17200000000E+03 0.  1.
         -6    1    1    2    0  503  0.74426981815E+02  0.48406286419E+02  0.93339333896E+03  0.95325215416E+03  0.17200000000E+03 0.  1.
</event>
<event>
 4    1  0.2889985E+000  0.1852911E+03  0.7818608E-02  0.1162778E+00
         21   -1    0    0  501  502  0.00000000000E+00  0.00000000000E+00  0.16178212789E+03  0.16178212789E+03  0.00000000000E+00 0.  1.
         21   -1    0    0  502  503 -0.00000000000E+00 -0.00000000000E+00 -0.21909485095E+03  0.21909485095E+03  0.00000000000E+00 0.  1.
          6    1    1    2  501    0  0.15767242036E+02 -0.67083474849E+02  0.50869969280E+01  0.18536093455E+03  0.17200000000E+03 0.  1.
         -6    1    1    2    0  503 -0.15767242036E+02  0.67083474849E+02 -0.62399719988E+02  0.19551604429E+03  0.17200000000E+03 0.  1.
</event>
<event>
 4    1  0.2889985E+000  0.1759274E+03  0.7818608E-02  0.1171804E+00
         21   -1    0    0  501  502  0.00000000000E+00  0.00000000000E+00  0.43987915706E+03  0.43987915706E+03  0.00000000000E+00 0. -1.
         21   -1    0    0  502  503 -0.00000000000E+00 -0.00000000000E+00 -0.41308901913E+03  0.41308901913E+03  0.00000000000E+00 0. -1.
          6    1    1    2  501    0  0.22716004533E+02 -0.29162005681E+02  0.40186344105E+03  0.43868515440E+03  0.17200000000E+03 0. -1.
         -6    1    1    2    0  503 -0.22716004533E+02  0.29162005681E+02 -0.37507330311E+03  0.41428302179E+03  0.17200000000E+03 0. -1.
</event>
<event>
 4    1  0.2889985E+000  0.1726355E+03  0.7818608E-02  0.1175127E+00
         21   -1    0    0  501  502  0.00000000000E+00  0.00000000000E+00  0.67311801570E+02  0.67311801570E+02  0.00000000000E+00 0. -1.
         21   -1    0    0  502  503 -0.00000000000E+00 -0.00000000000E+00 -0.19524246261E+04  0.19524246261E+04  0.00000000000E+00 0. -1.
          6    1    1    2  501    0  0.11794747630E+02 -0.89381788255E+01 -0.54546667790E+02  0.18104791101E+03  0.17200000000E+03 0. -1.
         -6    1    1    2    0  503 -0.11794747630E+02  0.89381788255E+01 -0.18305661567E+04  0.18386885167E+04  0.17200000000E+03 0. -1.
</event>
<event>
 4    1  0.2889985E+000  0.2021949E+03  0.7818608E-02  0.1147900E+00
         21   -1    0    0  503  502  0.00000000000E+00  0.00000000000E+00  0.27958795355E+03  0.27958795355E+03  0.00000000000E+00 0. -1.
         21   -1    0    0  501  503 -0.00000000000E+00 -0.00000000000E+00 -0.16060142145E+03  0.16060142145E+03  0.00000000000E+00 0. -1.
          6    1    1    2  501    0 -0.51001307523E+02  0.93261161059E+02 -0.63571764200E+01  0.20229481265E+03  0.17200000000E+03 0. -1.
         -6    1    1    2    0  502  0.51001307523E+02 -0.93261161059E+02  0.12534370852E+03  0.23789456235E+03  0.17200000000E+03 0. -1.
</event>
<event>
 4    1  0.2889985E+000  0.1744664E+03  0.7818608E-02  0.1173269E+00
         21   -1    0    0  503  502  0.00000000000E+00  0.00000000000E+00  0.15822474959E+03  0.15822474959E+03  0.00000000000E+00 0. -1.
         21   -1    0    0  501  503 -0.00000000000E+00 -0.00000000000E+00 -0.25774990393E+03  0.25774990393E+03  0.00000000000E+00 0. -1.
          6    1    1    2  501    0 -0.22708859153E+02 -0.18407015493E+02 -0.15450982927E+03  0.23304891728E+03  0.17200000000E+03 0. -1.
         -6    1    1    2    0  502  0.22708859153E+02  0.18407015493E+02  0.54984674927E+02  0.18292573624E+03  0.17200000000E+03 0. -1.
</event>
<event>
 4    1  0.2889985E+000  0.1983628E+03  0.7818608E-02  0.1151128E+00
         21   -1    0    0  501  502  0.00000000000E+00  0.00000000000E+00  0.22849988886E+03  0.22849988886E+03  0.00000000000E+00 0. -1.
         21   -1    0    0  502  503 -0.00000000000E+00 -0.00000000000E+00 -0.18475488408E+03  0.18475488408E+03  0.00000000000E+00 0. -1.
          6    1    1    2  501    0 -0.53079380274E+02 -0.83344915353E+02  0.75735137021E+02  0.21232900533E+03  0.17200000000E+03 0. -1.
         -6    1    1    2    0  503  0.53079380274E+02  0.83344915353E+02 -0.31990132245E+02  0.20092576760E+03  0.17200000000E+03 0. -1.
</event>
<event>
 4    1  0.2889985E+000  0.1758263E+03  0.7818608E-02  0.1171905E+00
         21   -1    0    0  501  502  0.00000000000E+00  0.00000000000E+00  0.47615457144E+03  0.47615457144E+03  0.00000000000E+00 0.  1.
         21   -1    0    0  502  503 -0.00000000000E+00 -0.00000000000E+00 -0.73257718682E+02  0.73257718682E+02  0.00000000000E+00 0.  1.
          6    1    1    2  501    0 -0.62523308939E+01  0.35941669407E+02  0.29408967627E+03  0.34264213537E+03  0.17200000000E+03 0.  1.
         -6    1    1    2    0  503  0.62523308939E+01 -0.35941669407E+02  0.10880717649E+03  0.20677015475E+03  0.17200000000E+03 0.  1.
</event>
<event>
 4    1  0.2889985E+000  0.1953109E+03  0.7818608E-02  0.1153757E+00
         21   -1    0    0  501  502  0.00000000000E+00  0.00000000000E+00  0.58683208530E+03  0.58683208530E+03  0.00000000000E+00 0.  1.
         21   -1    0    0  502  503 -0.00000000000E+00 -0.00000000000E+00 -0.72934358832E+02  0.72934358832E+02  0.00000000000E+00 0.  1.
          6    1    1    2  501    0  0.92531959920E+02 -0.44998637403E+00  0.36572751665E+03  0.41461184562E+03  0.17200000000E+03 0.  1.
         -6    1    1    2    0  503 -0.92531959920E+02  0.44998637403E+00  0.14817020982E+03  0.24515459852E+03  0.17200000000E+03 0.  1.
</event>
<event>
 4    1  0.2889985E+000  0.2239818E+03  0.7818608E-02  0.1130949E+00
         21   -1    0    0  501  502  0.00000000000E+00  0.00000000000E+00  0.11506638275E+04  0.11506638275E+04  0.00000000000E+00 0. -1.
         21   -1    0    0  502  503 -0.00000000000E+00 -0.00000000000E+00 -0.56240449042E+02  0.56240449042E+02  0.00000000000E+00 0. -1.
          6    1    1    2  501    0  0.13053494720E+03 -0.59535407052E+02  0.83331059663E+03  0.86288723921E+03  0.17200000000E+03 0. -1.
         -6    1    1    2    0  503 -0.13053494720E+03  0.59535407052E+02  0.26111278179E+03  0.34401703730E+03  0.17200000000E+03 0. -1.
</event>
<event>
 4    1  0.2889985E+000  0.1737562E+03  0.7818608E-02  0.1173986E+00
         21   -1    0    0  501  502  0.00000000000E+00  0.00000000000E+00  0.19676553566E+04  0.19676553566E+04  0.00000000000E+00 0. -1.
         21   -1    0    0  502  503 -0.00000000000E+00 -0.00000000000E+00 -0.15501438235E+02  0.15501438235E+02  0.00000000000E+00 0. -1.
          6    1    1    2  501    0 -0.46751721591E+01 -0.24194461215E+02  0.10760835426E+04  0.10900215686E+04  0.17200000000E+03 0.  1.
         -6    1    1    2    0  503  0.46751721591E+01  0.24194461215E+02  0.87607037577E+03  0.89313522632E+03  0.17200000000E+03 0.  1.
</event>
<event>
 4    1  0.2889985E+000  0.2867565E+03  0.7818608E-02  0.1092055E+00
         21   -1    0    0  501  502  0.00000000000E+00  0.00000000000E+00  0.26412862480E+03  0.26412862480E+03  0.00000000000E+00 0. -1.
         21   -1    0    0  502  503 -0.00000000000E+00 -0.00000000000E+00 -0.31458470023E+03  0.31458470023E+03  0.00000000000E+00 0. -1.
          6    1    1    2  501    0  0.22836391826E+03 -0.22253027431E+02  0.42362981525E+01  0.28678776581E+03  0.17200000000E+03 0. -1.
         -6    1    1    2    0  503 -0.22836391826E+03  0.22253027431E+02 -0.54692373580E+02  0.29192555921E+03  0.17200000000E+03 0. -1.
</event>
<event>
 4    1  0.2889985E+000  0.1786802E+03  0.7818608E-02  0.1169086E+00
         21   -1    0    0  501  502  0.00000000000E+00  0.00000000000E+00  0.12393753644E+04  0.12393753644E+04  0.00000000000E+00 0. -1.
         21   -1    0    0  502  503 -0.00000000000E+00 -0.00000000000E+00 -0.44212199255E+02  0.44212199255E+02  0.00000000000E+00 0. -1.
          6    1    1    2  501    0 -0.31512673748E+02  0.36736664266E+02  0.10121970109E+04  0.10278469828E+04  0.17200000000E+03 0. -1.
         -6    1    1    2    0  503  0.31512673748E+02 -0.36736664266E+02  0.18296615420E+03  0.25574058085E+03  0.17200000000E+03 0. -1.
</event>
<event>
 4    1  0.2889985E+000  0.2298663E+03  0.7818608E-02  0.1126734E+00
         21   -1    0    0  503  502  0.00000000000E+00  0.00000000000E+00  0.84507428922E+03  0.84507428922E+03  0.00000000000E+00 0.  1.
         21   -1    0    0  501  503 -0.00000000000E+00 -0.00000000000E+00 -0.64004806907E+02  0.64004806907E+02  0.00000000000E+00 0. -1.
          6    1    1    2  501    0 -0.14854694246E+03  0.34471976563E+02  0.32142711220E+03  0.39516313054E+03  0.17200000000E+03 0.  1.
         -6    1    1    2    0  502  0.14854694246E+03 -0.34471976563E+02  0.45964237011E+03  0.51391596558E+03  0.17200000000E+03 0.  1.
</event>
<event>
 4    1  0.2889985E+000  0.1828289E+03  0.7818608E-02  0.1165093E+00
         21   -1    0    0  503  502  0.00000000000E+00  0.00000000000E+00  0.36498934746E+02  0.36498934746E+02  0.00000000000E+00 0.  1.
         21   -1    0    0  501  503 -0.00000000000E+00 -0.00000000000E+00 -0.91662478810E+03  0.91662478810E+03  0.00000000000E+00 0.  1.
          6    1    1    2  501    0  0.59665047654E+02 -0.16807694910E+02 -0.45419299455E+03  0.48960973521E+03  0.17200000000E+03 0. -1.
         -6    1    1    2    0  502 -0.59665047654E+02  0.16807694910E+02 -0.42593285880E+03  0.46351398763E+03  0.17200000000E+03 0. -1.
</event>
<event>
 4    1  0.2889985E+000  0.1808067E+03  0.7818608E-02  0.1167025E+00
         21   -1    0    0  503  502  0.00000000000E+00  0.00000000000E+00  0.29858434314E+03  0.29858434314E+03  0.00000000000E+00 0.  1.
         21   -1    0    0  501  503 -0.00000000000E+00 -0.00000000000E+00 -0.12193003259E+03  0.12193003259E+03  0.00000000000E+00 0.  1.
          6    1    1    2  501    0 -0.42719548859E+02 -0.35806707016E+02  0.21159525948E+02  0.18204067035E+03  0.17200000000E+03 0. -1.
         -6    1    1    2    0  502  0.42719548859E+02  0.35806707016E+02  0.15549478460E+03  0.23847370539E+03  0.17200000000E+03 0. -1.
</event>
<event>
 4    1  0.2889985E+000  0.1942601E+03  0.7818608E-02  0.1154674E+00
         21   -1    0    0  501  502  0.00000000000E+00  0.00000000000E+00  0.22133285749E+03  0.22133285749E+03  0.00000000000E+00 0.  1.
         21   -1    0    0  502  503 -0.00000000000E+00 -0.00000000000E+00 -0.41851219527E+03  0.41851219527E+03  0.00000000000E+00 0.  1.
          6    1    1    2  501    0 -0.87587086000E+02  0.21942506049E+02  0.14768990396E+03  0.24402720942E+03  0.17200000000E+03 0.  1.
         -6    1    1    2    0  503  0.87587086000E+02 -0.21942506049E+02 -0.34486924174E+03  0.39581784334E+03  0.17200000000E+03 0.  1.
</event>
<event>
 4    1  0.2889985E+000  0.2161923E+03  0.7818608E-02  0.1136754E+00
         21   -1    0    0  503  502  0.00000000000E+00  0.00000000000E+00  0.19463679063E+04  0.19463679063E+04  0.00000000000E+00 0.  1.
         21   -1    0    0  501  503 -0.00000000000E+00 -0.00000000000E+00 -0.34817559483E+03  0.34817559483E+03  0.00000000000E+00 0. -1.
          6    1    1    2  501    0  0.79794281965E+02 -0.10386512297E+03 -0.30790546577E+03  0.37622449024E+03  0.17200000000E+03 0. -1.
         -6    1    1    2    0  502 -0.79794281965E+02  0.10386512297E+03  0.19060977772E+04  0.19183190109E+04  0.17200000000E+03 0.  1.
</event>
<event>
 4    1  0.2889985E+000  0.3487772E+03  0.7818608E-02  0.1063118E+00
         21   -1    0    0  501  502  0.00000000000E+00  0.00000000000E+00  0.58784226465E+03  0.58784226465E+03  0.00000000000E+00 0. -1.
         21   -1    0    0  502  503 -0.00000000000E+00 -0.00000000000E+00 -0.22300744252E+03  0.22300744252E+03  0.00000000000E+00 0.  1.
          6    1    1    2  501    0 -0.69256286472E+02  0.29540670696E+03  0.73579034952E+02  0.35645396634E+03  0.17200000000E+03 0.  1.
         -6    1    1    2    0  503  0.69256286472E+02 -0.29540670696E+03  0.29125578718E+03  0.45439574084E+03  0.17200000000E+03 0. -1.
</event>
<event>
 4    1  0.2889985E+000  0.1732244E+03  0.7818608E-02  0.1174526E+00
         21   -1    0    0  501  502  0.00000000000E+00  0.00000000000E+00  0.86615730159E+03  0.86615730159E+03  0.00000000000E+00 0.  1.
         21   -1    0    0  502  503 -0.00000000000E+00 -0.00000000000E+00 -0.10058980767E+03  0.10058980767E+03  0.00000000000E+00 0.  1.
          6    1    1    2  501    0 -0.20550999599E+02 -0.59809817447E+00  0.77416607543E+03  0.79330940600E+03  0.17200000000E+03 0.  1.
         -6    1    1    2    0  503  0.20550999599E+02  0.59809817447E+00 -0.85985815108E+01  0.17343770325E+03  0.17200000000E+03 0.  1.
</event>
<event>
 4    1  0.2889985E+000  0.1851343E+03  0.7818608E-02  0.1162925E+00
         21   -1    0    0  503  502  0.00000000000E+00  0.00000000000E+00  0.39832685954E+03  0.39832685954E+03  0.00000000000E+00 0.  1.
         21   -1    0    0  501  503 -0.00000000000E+00 -0.00000000000E+00 -0.11303386901E+03  0.11303386901E+03  0.00000000000E+00 0.  1.
          6    1    1    2  501    0 -0.68301493250E+02  0.50597921286E+01  0.17714960974E+02  0.18597987880E+03  0.17200000000E+03 0.  1.
         -6    1    1    2    0  502  0.68301493250E+02 -0.50597921286E+01  0.26757802956E+03  0.32538084974E+03  0.17200000000E+03 0.  1.
</event>
<event>
 4    1  0.2889985E+000  0.1957629E+03  0.7818608E-02  0.1153364E+00
         21   -1    0    0  503  502  0.00000000000E+00  0.00000000000E+00  0.59710461570E+02  0.59710461570E+02  0.00000000000E+00 0.  1.
         21   -1    0    0  501  503 -0.00000000000E+00 -0.00000000000E+00 -0.11388120283E+04  0.11388120283E+04  0.00000000000E+00 0.  1.
          6    1    1    2  501    0 -0.93096224316E+02 -0.84979628342E+01 -0.93543362732E+03  0.95569827533E+03  0.17200000000E+03 0.  1.
         -6    1    1    2    0  502  0.93096224316E+02  0.84979628342E+01 -0.14366793943E+03  0.24282421455E+03  0.17200000000E+03 0.  1.
</event>
<event>
 4    1  0.2889985E+000  0.1733358E+03  0.7818608E-02  0.1174413E+00
         21   -1    0    0  503  502  0.00000000000E+00  0.00000000000E+00  0.79791426529E+03  0.79791426529E+03  0.00000000000E+00 0.  1.
         21   -1    0    0  501  503 -0.00000000000E+00 -0.00000000000E+00 -0.38765818516E+02  0.38765818516E+02  0.00000000000E+00 0.  1.
          6    1    1    2  501    0  0.55753419498E+01 -0.20741591785E+02  0.45039596247E+03  0.48259902722E+03  0.17200000000E+03 0. -1.
         -6    1    1    2    0  502 -0.55753419498E+01  0.20741591785E+02  0.30875248431E+03  0.35408105659E+03  0.17200000000E+03 0. -1.
</event>
<event>
 4    1  0.2889985E+000  0.2309472E+03  0.7818608E-02  0.1125975E+00
         21   -1    0    0  503  502  0.00000000000E+00  0.00000000000E+00  0.85905909327E+02  0.85905909327E+02  0.00000000000E+00 0.  1.
         21   -1    0    0  501  503 -0.00000000000E+00 -0.00000000000E+00 -0.70445847406E+03  0.70445847406E+03  0.00000000000E+00 0. -1.
          6    1    1    2  501    0  0.12364601262E+03  0.92001535847E+02 -0.44540078301E+03  0.50171553349E+03  0.17200000000E+03 0. -1.
         -6    1    1    2    0  502 -0.12364601262E+03 -0.92001535847E+02 -0.17315178171E+03  0.28864884989E+03  0.17200000000E+03 0. -1.
</event>
<event>
 4    1  0.2889985E+000  0.1858960E+03  0.7818608E-02  0.1162216E+00
         21   -1    0    0  503  502  0.00000000000E+00  0.00000000000E+00  0.20293830825E+04  0.20293830825E+04  0.00000000000E+00 0.  1.
         21   -1    0    0  501  503 -0.00000000000E+00 -0.00000000000E+00 -0.20245549422E+02  0.20245549422E+02  0.00000000000E+00 0.  1.
          6    1    1    2  501    0 -0.27114151603E+02  0.65101127610E+02  0.59605208863E+03  0.62436802160E+03  0.17200000000E+03 0.  1.
         -6    1    1    2    0  502  0.27114151603E+02 -0.65101127610E+02  0.14130854444E+04  0.14252606103E+04  0.17200000000E+03 0.  1.
</event>
<event>
 4    1  0.2889985E+000  0.2004712E+03  0.7818608E-02  0.1149342E+00
         21   -1    0    0  503  502  0.00000000000E+00  0.00000000000E+00  0.64057285605E+02  0.64057285605E+02  0.00000000000E+00 0. -1.
         21   -1    0    0  501  503 -0.00000000000E+00 -0.00000000000E+00 -0.80790239433E+03  0.80790239433E+03  0.00000000000E+00 0. -1.
          6    1    1    2  501    0  0.58929725410E+02 -0.84451009868E+02 -0.57800666452E+03  0.61178459431E+03  0.17200000000E+03 0. -1.
         -6    1    1    2    0  502 -0.58929725410E+02  0.84451009868E+02 -0.16583844421E+03  0.26017508563E+03  0.17200000000E+03 0. -1.
</event>
<event>
 4    1  0.2889985E+000  0.3058786E+03  0.7818608E-02  0.1082338E+00
         21   -1    0    0  503  502  0.00000000000E+00  0.00000000000E+00  0.55130798028E+03  0.55130798028E+03  0.00000000000E+00 0.  1.
         21   -1    0    0  501  503 -0.00000000000E+00 -0.00000000000E+00 -0.50590811646E+03  0.50590811646E+03  0.00000000000E+00 0. -1.
          6    1    1    2  501    0  0.15305695869E+03 -0.20137345110E+03 -0.40821991523E+03  0.51010312546E+03  0.17200000000E+03 0. -1.
         -6    1    1    2    0  502 -0.15305695869E+03  0.20137345110E+03  0.45361977904E+03  0.54711297129E+03  0.17200000000E+03 0.  1.
</event>
<event>
 4    1  0.2889985E+000  0.1788027E+03  0.7818608E-02  0.1168967E+00
         21   -1    0    0  501  502  0.00000000000E+00  0.00000000000E+00  0.17789797183E+03  0.17789797183E+03  0.00000000000E+00 0.  1.
         21   -1    0    0  502  503 -0.00000000000E+00 -0.00000000000E+00 -0.44663473450E+03  0.44663473450E+03  0.00000000000E+00 0.  1.
          6    1    1    2  501    0  0.59611992219E+01 -0.48485887968E+02  0.10703405520E+03  0.20839075363E+03  0.17200000000E+03 0.  1.
         -6    1    1    2    0  503 -0.59611992219E+01  0.48485887968E+02 -0.37577081787E+03  0.41614195269E+03  0.17200000000E+03 0.  1.
</event>
<event>
 4    1  0.2889985E+000  0.2342026E+03  0.7818608E-02  0.1123716E+00
         21   -1    0    0  503  502  0.00000000000E+00  0.00000000000E+00  0.17994340648E+04  0.17994340648E+04  0.00000000000E+00 0.  1.
         21   -1    0    0  501  503 -0.00000000000E+00 -0.00000000000E+00 -0.30595341860E+02  0.30595341860E+02  0.00000000000E+00 0. -1.
          6    1    1    2  501    0  0.97560246178E+02  0.12549437832E+03  0.94004457533E+03  0.96877997721E+03  0.17200000000E+03 0.  1.
         -6    1    1    2    0  502 -0.97560246178E+02 -0.12549437832E+03  0.82879414757E+03  0.86124942941E+03  0.17200000000E+03 0.  1.
</event>
<event>
 4    1  0.2889985E+000  0.2142540E+03  0.7818608E-02  0.1138241E+00
         21   -1    0    0  503  502  0.00000000000E+00  0.00000000000E+00  0.36597427481E+02  0.36597427481E+02  0.00000000000E+00 0.  1.
         21   -1    0    0  501  503 -0.00000000000E+00 -0.00000000000E+00 -0.23772454650E+04  0.23772454650E+04  0.00000000000E+00 0. -1.
          6    1    1    2  501    0 -0.10506806812E+03 -0.72673743998E+02 -0.19998271969E+04  0.20112716350E+04  0.17200000000E+03 0. -1.
         -6    1    1    2    0  502  0.10506806812E+03  0.72673743998E+02 -0.34082084060E+03  0.40257125753E+03  0.17200000000E+03 0.  1.
</event>
<event>
 4    1  0.2889985E+000  0.1812788E+03  0.7818608E-02  0.1166571E+00
         21   -1    0    0  503  502  0.00000000000E+00  0.00000000000E+00  0.13393292355E+03  0.13393292355E+03  0.00000000000E+00 0.  1.
         21   -1    0    0  501  503 -0.00000000000E+00 -0.00000000000E+00 -0.86529556941E+03  0.86529556941E+03  0.00000000000E+00 0. -1.
          6    1    1    2  501    0 -0.12181099030E+02  0.55943100277E+02 -0.78856922035E+03  0.80913745738E+03  0.17200000000E+03 0. -1.
         -6    1    1    2    0  502  0.12181099030E+02 -0.55943100277E+02  0.57206574501E+02  0.19009103558E+03  0.17200000000E+03 0.  1.
</event>
<event>
 4    1  0.2889985E+000  0.2387086E+03  0.7818608E-02  0.1120656E+00
         21   -1    0    0  503  502  0.00000000000E+00  0.00000000000E+00  0.60878385257E+03  0.60878385257E+03  0.00000000000E+00 0.  1.
         21   -1    0    0  501  503 -0.00000000000E+00 -0.00000000000E+00 -0.10519139519E+03  0.10519139519E+03  0.00000000000E+00 0.  1.
          6    1    1    2  501    0 -0.96563330625E+02 -0.13443705982E+03  0.13328970599E+03  0.27340070519E+03  0.17200000000E+03 0. -1.
         -6    1    1    2    0  502  0.96563330625E+02  0.13443705982E+03  0.37030275139E+03  0.44057454257E+03  0.17200000000E+03 0. -1.
</event>
<event>
 4    1  0.2889985E+000  0.2662772E+03  0.7818608E-02  0.1103429E+00
         21   -1    0    0  503  502  0.00000000000E+00  0.00000000000E+00  0.23854278413E+03  0.23854278413E+03  0.00000000000E+00 0. -1.
         21   -1    0    0  501  503 -0.00000000000E+00 -0.00000000000E+00 -0.30133252387E+03  0.30133252387E+03  0.00000000000E+00 0.  1.
          6    1    1    2  501    0  0.33464936474E+01  0.20324458029E+03 -0.62867706431E+02  0.27359807556E+03  0.17200000000E+03 0. -1.
         -6    1    1    2    0  502 -0.33464936474E+01 -0.20324458029E+03  0.77966683371E-01  0.26627723244E+03  0.17200000000E+03 0.  1.
</event>
<event>
 4    1  0.2889985E+000  0.1733100E+03  0.7818608E-02  0.1174439E+00
         21   -1    0    0  503  502  0.00000000000E+00  0.00000000000E+00  0.24033336317E+03  0.24033336317E+03  0.00000000000E+00 0.  1.
         21   -1    0    0  501  503 -0.00000000000E+00 -0.00000000000E+00 -0.14992980700E+03  0.14992980700E+03  0.00000000000E+00 0.  1.
          6    1    1    2  501    0  0.72927222281E+01  0.19979008530E+02 -0.34402420826E+02  0.17669145746E+03  0.17200000000E+03 0.  1.
         -6    1    1    2    0  502 -0.72927222281E+01 -0.19979008530E+02  0.12480597699E+03  0.21357171272E+03  0.17200000000E+03 0.  1.
</event>
<event>
 4    1  0.2889985E+000  0.4190662E+03  0.7818608E-02  0.1037371E+00
         21   -1    0    0  501  502  0.00000000000E+00  0.00000000000E+00  0.31459377795E+03  0.31459377795E+03  0.00000000000E+00 0.  1.
         21   -1    0    0  502  503 -0.00000000000E+00 -0.00000000000E+00 -0.10644802493E+04  0.10644802493E+04  0.00000000000E+00 0. -1.
          6    1    1    2  501    0  0.27322957982E+02  0.38116390807E+03  0.10057845906E+03  0.43096693060E+03  0.17200000000E+03 0.  1.
         -6    1    1    2    0  503 -0.27322957982E+02 -0.38116390807E+03 -0.85046493037E+03  0.94810709661E+03  0.17200000000E+03 0. -1.
</event>
<event>
 4    1  0.2889985E+000  0.2820272E+03  0.7818608E-02  0.1094587E+00
         21   -1    0    0  503  502  0.00000000000E+00  0.00000000000E+00  0.12625436387E+04  0.12625436387E+04  0.00000000000E+00 0.  1.
         21   -1    0    0  501  503 -0.00000000000E+00 -0.00000000000E+00 -0.63314896385E+02  0.63314896385E+02  0.00000000000E+00 0.  1.
          6    1    1    2  501    0 -0.17808745215E+03 -0.13505629886E+03  0.64641931084E+03  0.70526397179E+03  0.17200000000E+03 0. -1.
         -6    1    1    2    0  502  0.17808745215E+03  0.13505629886E+03  0.55280943152E+03  0.62059456335E+03  0.17200000000E+03 0. -1.
</event>
<event>
 4    1  0.2889985E+000  0.2552691E+03  0.7818608E-02  0.1110019E+00
         21   -1    0    0  501  502  0.00000000000E+00  0.00000000000E+00  0.14549617516E+03  0.14549617516E+03  0.00000000000E+00 0. -1.
         21   -1    0    0  502  503 -0.00000000000E+00 -0.00000000000E+00 -0.56398872690E+03  0.56398872690E+03  0.00000000000E+00 0.  1.
          6    1    1    2  501    0  0.83837518855E+02  0.16896620488E+03 -0.48277085867E+02  0.25979412037E+03  0.17200000000E+03 0.  1.
         -6    1    1    2    0  503 -0.83837518855E+02 -0.16896620488E+03 -0.37021546587E+03  0.44969078168E+03  0.17200000000E+03 0. -1.
</event>
<event>
 4    1  0.2889985E+000  0.1769156E+03  0.7818608E-02  0.1170822E+00
         21   -1    0    0  503  502  0.00000000000E+00  0.00000000000E+00  0.15632330194E+03  0.15632330194E+03  0.00000000000E+00 0. -1.
         21   -1    0    0  501  503 -0.00000000000E+00 -0.00000000000E+00 -0.48949543192E+03  0.48949543192E+03  0.00000000000E+00 0. -1.
          6    1    1    2  501    0 -0.75861161256E+01  0.40713589399E+02  0.81648152233E+02  0.19484754626E+03  0.17200000000E+03 0. -1.
         -6    1    1    2    0  502  0.75861161256E+01 -0.40713589399E+02 -0.41482028220E+03  0.45097118760E+03  0.17200000000E+03 0. -1.
</event>
<event>
 4    1  0.2889985E+000  0.2785038E+03  0.7818608E-02  0.1096509E+00
         21   -1    0    0  503  502  0.00000000000E+00  0.00000000000E+00  0.48626028684E+03  0.48626028684E+03  0.00000000000E+00 0. -1.
         21   -1    0    0  501  503 -0.00000000000E+00 -0.00000000000E+00 -0.17624168380E+03  0.17624168380E+03  0.00000000000E+00 0.  1.
          6    1    1    2  501    0 -0.20830528079E+03 -0.67744336028E+02  0.25706701066E+03  0.37900901445E+03  0.17200000000E+03 0.  1.
         -6    1    1    2    0  502  0.20830528079E+03  0.67744336028E+02  0.52951592384E+02  0.28349295618E+03  0.17200000000E+03 0.  1.
</event>
<event>
 4    1  0.2889985E+000  0.1862299E+03  0.7818608E-02  0.1161906E+00
         21   -1    0    0  503  502  0.00000000000E+00  0.00000000000E+00  0.14364899599E+04  0.14364899599E+04  0.00000000000E+00 0. -1.
         21   -1    0    0  501  503 -0.00000000000E+00 -0.00000000000E+00 -0.24347693982E+02  0.24347693982E+02  0.00000000000E+00 0.  1.
          6    1    1    2  501    0 -0.58802801899E+02 -0.40494582835E+02  0.77299750488E+03  0.79511428317E+03  0.17200000000E+03 0. -1.
         -6    1    1    2    0  502  0.58802801899E+02  0.40494582835E+02  0.63914476102E+03  0.66572337070E+03  0.17200000000E+03 0. -1.
</event>
<event>
 4    1  0.2889985E+000  0.1979752E+03  0.7818608E-02  0.1151459E+00
         21   -1    0    0  503  502  0.00000000000E+00  0.00000000000E+00  0.50847894253E+02  0.50847894253E+02  0.00000000000E+00 0.  1.
         21   -1    0    0  501  503 -0.00000000000E+00 -0.00000000000E+00 -0.85561129629E+03  0.85561129629E+03  0.00000000000E+00 0. -1.
          6    1    1    2  501    0  0.71772676487E+02 -0.66774688386E+02 -0.54506583224E+03  0.57990597305E+03  0.17200000000E+03 0. -1.
         -6    1    1    2    0  502 -0.71772676487E+02  0.66774688386E+02 -0.25969756979E+03  0.32655321749E+03  0.17200000000E+03 0. -1.
</event>
<event>
 4    1  0.2889985E+000  0.3427513E+03  0.7818608E-02  0.1065630E+00
         21   -1    0    0  501  502  0.00000000000E+00  0.00000000000E+00  0.14225383715E+03  0.14225383715E+03  0.00000000000E+00 0.  1.
         21   -1    0    0  502  503 -0.00000000000E+00 -0.00000000000E+00 -0.12488759111E+04  0.12488759111E+04  0.00000000000E+00 0. -1.
          6    1    1    2  501    0 -0.42506286475E+01 -0.29643955603E+03 -0.14848524934E+03  0.37353225764E+03  0.17200000000E+03 0.  1.
         -6    1    1    2    0  503  0.42506286475E+01  0.29643955603E+03 -0.95813682460E+03  0.10175974906E+04  0.17200000000E+03 0. -1.
</event>
<event>
 4    1  0.2889985E+000  0.1731800E+03  0.7818608E-02  0.1174572E+00
         21   -1    0    0  503  502  0.00000000000E+00  0.00000000000E+00  0.33711747413E+03  0.33711747413E+03  0.00000000000E+00 0.  1.
         21   -1    0    0  501  503 -0.00000000000E+00 -0.00000000000E+00 -0.93770853713E+02  0.93770853713E+02  0.00000000000E+00 0.  1.
          6    1    1    2  501    0  0.30107831699E+00 -0.20179824961E+02  0.72894449582E+02  0.18789602647E+03  0.17200000000E+03 0.  1.
         -6    1    1    2    0  502 -0.30107831699E+00  0.20179824961E+02  0.17045217084E+03  0.24299230137E+03  0.17200000000E+03 0.  1.
</event>
<event>
 4    1  0.2889985E+000  0.2459478E+03  0.7818608E-02  0.1115893E+00
         21   -1    0    0  503  502  0.00000000000E+00  0.00000000000E+00  0.31811681652E+03  0.31811681652E+03  0.00000000000E+00 0. -1.
         21   -1    0    0  501  503 -0.00000000000E+00 -0.00000000000E+00 -0.43517743307E+03  0.43517743307E+03  0.00000000000E+00 0.  1.
          6    1    1    2  501    0 -0.16844403595E+03 -0.50328420195E+02 -0.34115339116E+03  0.42056626045E+03  0.17200000000E+03 0.  1.
         -6    1    1    2    0  502  0.16844403595E+03  0.50328420195E+02  0.22409277461E+03  0.33272798914E+03  0.17200000000E+03 0.  1.
</event>
<event>
 4    1  0.2889985E+000  0.2055659E+03  0.7818608E-02  0.1145126E+00
         21   -1    0    0  503  502  0.00000000000E+00  0.00000000000E+00  0.13574970396E+03  0.13574970396E+03  0.00000000000E+00 0.  1.
         21   -1    0    0  501  503 -0.00000000000E+00 -0.00000000000E+00 -0.53951137681E+03  0.53951137681E+03  0.00000000000E+00 0.  1.
          6    1    1    2  501    0  0.56185203680E+02 -0.97552904577E+02 -0.42147502151E+03  0.46893340685E+03  0.17200000000E+03 0. -1.
         -6    1    1    2    0  502 -0.56185203680E+02  0.97552904577E+02  0.17713348652E+02  0.20632767392E+03  0.17200000000E+03 0. -1.
</event>
<event>
 4    1  0.2889985E+000  0.1924192E+03  0.7818608E-02  0.1156297E+00
         21   -1    0    0  503  502  0.00000000000E+00  0.00000000000E+00  0.68409378190E+03  0.68409378190E+03  0.00000000000E+00 0. -1.
         21   -1    0    0  501  503 -0.00000000000E+00 -0.00000000000E+00 -0.54133906320E+02  0.54133906320E+02  0.00000000000E+00 0. -1.
          6    1    1    2  501    0  0.67277003003E+02 -0.53990213311E+02  0.30971639797E+03  0.36462225033E+03  0.17200000000E+03 0. -1.
         -6    1    1    2    0  502 -0.67277003003E+02  0.53990213311E+02  0.32024347760E+03  0.37360543788E+03  0.17200000000E+03 0. -1.
</event>
<event>
 4    1  0.2889985E+000  0.2362265E+03  0.7818608E-02  0.1122332E+00
         21   -1    0    0  501  502  0.00000000000E+00  0.00000000000E+00  0.26908620028E+03  0.26908620028E+03  0.00000000000E+00 0. -1.
         21   -1    0    0  502  503 -0.00000000000E+00 -0.00000000000E+00 -0.21282864027E+03  0.21282864027E+03  0.00000000000E+00 0.  1.
          6    1    1    2  501    0 -0.85471229757E+02 -0.13752679786E+03 -0.10427116612E+02  0.23645649919E+03  0.17200000000E+03 0. -1.
         -6    1    1    2    0  503  0.85471229757E+02  0.13752679786E+03  0.66684676626E+02  0.24545834136E+03  0.17200000000E+03 0.  1.
</event>
<event>
 4    1  0.2889985E+000  0.1775526E+03  0.7818608E-02  0.1170193E+00
         21   -1    0    0  503  502  0.00000000000E+00  0.00000000000E+00  0.34837308130E+03  0.34837308130E+03  0.00000000000E+00 0.  1.
         21   -1    0    0  501  503 -0.00000000000E+00 -0.00000000000E+00 -0.10609355647E+03  0.10609355647E+03  0.00000000000E+00 0.  1.
          6    1    1    2  501    0  0.29415611014E+02 -0.32797022407E+02  0.34000550134E+02  0.18077876053E+03  0.17200000000E+03 0.  1.
         -6    1    1    2    0  502 -0.29415611014E+02  0.32797022407E+02  0.20827897469E+03  0.27368787724E+03  0.17200000000E+03 0.  1.
</event>
<event>
 4    1  0.2889985E+000  0.1893474E+03  0.7818608E-02  0.1159051E+00
         21   -1    0    0  503  502  0.00000000000E+00  0.00000000000E+00  0.17494872411E+03  0.17494872411E+03  0.00000000000E+00 0. -1.
         21   -1    0    0  501  503 -0.00000000000E+00 -0.00000000000E+00 -0.21245548416E+03  0.21245548416E+03  0.00000000000E+00 0. -1.
          6    1    1    2  501    0 -0.77858860499E+02 -0.14367769612E+02 -0.55206589008E+02  0.19723134242E+03  0.17200000000E+03 0. -1.
         -6    1    1    2    0  502  0.77858860499E+02  0.14367769612E+02  0.17699828949E+02  0.19017286585E+03  0.17200000000E+03 0. -1.
</event>
<event>
 4    1  0.2889985E+000  0.2709057E+03  0.7818608E-02  0.1100762E+00
         21   -1    0    0  503  502  0.00000000000E+00  0.00000000000E+00  0.91153847054E+03  0.91153847054E+03  0.00000000000E+00 0. -1.
         21   -1    0    0  501  503 -0.00000000000E+00 -0.00000000000E+00 -0.83559682752E+02  0.83559682752E+02  0.00000000000E+00 0. -1.
          6    1    1    2  501    0 -0.75479244335E+02 -0.19521471344E+03  0.31896975030E+03  0.41848727852E+03  0.17200000000E+03 0. -1.
         -6    1    1    2    0  502  0.75479244335E+02  0.19521471344E+03  0.50900903748E+03  0.57661087477E+03  0.17200000000E+03 0. -1.
</event>
<event>
 4    1  0.2889985E+000  0.2194918E+03  0.7818608E-02  0.1134263E+00
         21   -1    0    0  501  502  0.00000000000E+00  0.00000000000E+00  0.32424601205E+03  0.32424601205E+03  0.00000000000E+00 0.  1.
         21   -1    0    0  502  503 -0.00000000000E+00 -0.00000000000E+00 -0.22562938506E+03  0.22562938506E+03  0.00000000000E+00 0. -1.
          6    1    1    2  501    0  0.11798015228E+02  0.13584344432E+03  0.20997270848E+03  0.30375182771E+03  0.17200000000E+03 0.  1.
         -6    1    1    2    0  503 -0.11798015228E+02 -0.13584344432E+03 -0.11135608149E+03  0.24612356940E+03  0.17200000000E+03 0. -1.
</event>
<event>
 4    1  0.2889985E+000  0.1727121E+03  0.7818608E-02  0.1175049E+00
         21   -1    0    0  503  502  0.00000000000E+00  0.00000000000E+00  0.21556789719E+02  0.21556789719E+02  0.00000000000E+00 0. -1.
         21   -1    0    0  501  503 -0.00000000000E+00 -0.00000000000E+00 -0.16163569258E+04  0.16163569258E+04  0.00000000000E+00 0. -1.
          6    1    1    2  501    0 -0.10770815682E+01  0.15630230389E+02 -0.11080652666E+04  0.11214446483E+04  0.17200000000E+03 0. -1.
         -6    1    1    2    0  502  0.10770815682E+01 -0.15630230389E+02 -0.48673486957E+03  0.51646906728E+03  0.17200000000E+03 0. -1.
</event>
<event>
 4    1  0.2889985E+000  0.2476007E+03  0.7818608E-02  0.1114831E+00
         21   -1    0    0  501  502  0.00000000000E+00  0.00000000000E+00  0.15851464778E+03  0.15851464778E+03  0.00000000000E+00 0.  1.
         21   -1    0    0  502  503 -0.00000000000E+00 -0.00000000000E+00 -0.44627100832E+03  0.44627100832E+03  0.00000000000E+00 0.  1.
          6    1    1    2  501    0  0.17552532088E+03 -0.30215524658E+02 -0.33446411474E+02  0.24984951199E+03  0.17200000000E+03 0.  1.
         -6    1    1    2    0  503 -0.17552532088E+03  0.30215524658E+02 -0.25430994907E+03  0.35493614411E+03  0.17200000000E+03 0.  1.
</event>
<event>
 4    1  0.2889985E+000  0.3262487E+03  0.7818608E-02  0.1072809E+00
         21   -1    0    0  501  502  0.00000000000E+00  0.00000000000E+00  0.17191880271E+03  0.17191880271E+03  0.00000000000E+00 0. -1.
         21   -1    0    0  502  503 -0.00000000000E+00 -0.00000000000E+00 -0.23310940120E+04  0.23310940120E+04  0.00000000000E+00 0.  1.
          6    1    1    2  501    0 -0.25418977643E+03  0.11064262027E+03 -0.70763255023E+01  0.32632546062E+03  0.17200000000E+03 0. -1.
         -6    1    1    2    0  503  0.25418977643E+03 -0.11064262027E+03 -0.21520988837E+04  0.21766873540E+04  0.17200000000E+03 0.  1.
</event>
<event>
 4    1  0.2889985E+000  0.1872824E+03  0.7818608E-02  0.1160936E+00
         21   -1    0    0  501  502  0.00000000000E+00  0.00000000000E+00  0.79244918749E+03  0.79244918749E+03  0.00000000000E+00 0.  1.
         21   -1    0    0  502  503 -0.00000000000E+00 -0.00000000000E+00 -0.28208481281E+03  0.28208481281E+03  0.00000000000E+00 0.  1.
          6    1    1    2  501    0  0.64876325117E+02 -0.35801532074E+02  0.74850122383E+03  0.77157551110E+03  0.17200000000E+03 0.  1.
         -6    1    1    2    0  503 -0.64876325117E+02  0.35801532074E+02 -0.23813684914E+03  0.30295848920E+03  0.17200000000E+03 0.  1.
</event>
<event>
 4    1  0.2889985E+000  0.1767157E+03  0.7818608E-02  0.1171020E+00
         21   -1    0    0  503  502  0.00000000000E+00  0.00000000000E+00  0.35889478446E+03  0.35889478446E+03  0.00000000000E+00 0.  1.
         21   -1    0    0  501  503 -0.00000000000E+00 -0.00000000000E+00 -0.12957457679E+03  0.12957457679E+03  0.00000000000E+00 0. -1.
          6    1    1    2  501    0 -0.10792810959E+02  0.39088966664E+02 -0.25317134816E+02  0.17851999720E+03  0.17200000000E+03 0. -1.
         -6    1    1    2    0  502  0.10792810959E+02 -0.39088966664E+02  0.25463734249E+03  0.30994936405E+03  0.17200000000E+03 0.  1.
</event>
<event>
 4    1  0.2889985E+000  0.2213923E+03  0.7818608E-02  0.1132849E+00
         21   -1    0    0  503  502  0.00000000000E+00  0.00000000000E+00  0.12808767353E+03  0.12808767353E+03  0.00000000000E+00 0.  1.
         21   -1    0    0  501  503 -0.00000000000E+00 -0.00000000000E+00 -0.39863058269E+03  0.39863058269E+03  0.00000000000E+00 0.  1.
          6    1    1    2  501    0  0.13859909283E+03 -0.14860415555E+02 -0.82564349427E+02  0.23628671626E+03  0.17200000000E+03 0. -1.
         -6    1    1    2    0  502 -0.13859909283E+03  0.14860415555E+02 -0.18797855974E+03  0.29043153996E+03  0.17200000000E+03 0. -1.
</event>
<event>
 4    1  0.2889985E+000  0.1839213E+03  0.7818608E-02  0.1164061E+00
         21   -1    0    0  501  502  0.00000000000E+00  0.00000000000E+00  0.33501977267E+03  0.33501977267E+03  0.00000000000E+00 0. -1.
         21   -1    0    0  502  503 -0.00000000000E+00 -0.00000000000E+00 -0.12768809108E+03  0.12768809108E+03  0.00000000000E+00 0. -1.
          6    1    1    2  501    0 -0.63179705610E+02  0.15855210781E+02  0.20949408120E+03  0.27877380251E+03  0.17200000000E+03 0. -1.
         -6    1    1    2    0  503  0.63179705610E+02 -0.15855210781E+02 -0.21623996086E+01  0.18393406123E+03  0.17200000000E+03 0. -1.
</event>
<event>
 4    1  0.2889985E+000  0.1794798E+03  0.7818608E-02  0.1168307E+00
         21   -1    0    0  503  502  0.00000000000E+00  0.00000000000E+00  0.93696422289E+02  0.93696422289E+02  0.00000000000E+00 0.  1.
         21   -1    0    0  501  503 -0.00000000000E+00 -0.00000000000E+00 -0.37621013496E+03  0.37621013496E+03  0.00000000000E+00 0.  1.
          6    1    1    2  501    0  0.41153152944E+02  0.30584674098E+02 -0.21021637469E+03  0.27641260549E+03  0.17200000000E+03 0. -1.
         -6    1    1    2    0  502 -0.41153152944E+02 -0.30584674098E+02 -0.72297337980E+02  0.19349395176E+03  0.17200000000E+03 0. -1.
</event>
<event>
 4    1  0.2889985E+000  0.3767107E+03  0.7818608E-02  0.1052156E+00
         21   -1    0    0  503  502  0.00000000000E+00  0.00000000000E+00  0.87430482316E+03  0.87430482316E+03  0.00000000000E+00 0. -1.
         21   -1    0    0  501  503 -0.00000000000E+00 -0.00000000000E+00 -0.66554049120E+03  0.66554049120E+03  0.00000000000E+00 0. -1.
          6    1    1    2  501    0 -0.73635549026E+02 -0.32696290853E+03 -0.56510474078E+03  0.67915705524E+03  0.17200000000E+03 0. -1.
         -6    1    1    2    0  502  0.73635549026E+02  0.32696290853E+03  0.77386907275E+03  0.86068825912E+03  0.17200000000E+03 0. -1.
</event>
<event>
 4    1  0.2889985E+000  0.1783233E+03  0.7818608E-02  0.1169436E+00
         21   -1    0    0  501  502  0.00000000000E+00  0.00000000000E+00  0.21586348966E+03  0.21586348966E+03  0.00000000000E+00 0.  1.
         21   -1    0    0  502  503 -0.00000000000E+00 -0.00000000000E+00 -0.17319788510E+03  0.17319788510E+03  0.00000000000E+00 0.  1.
          6    1    1    2  501    0 -0.14142728898E+02 -0.44890619490E+02  0.96538742084E+02  0.20277798998E+03  0.17200000000E+03 0. -1.
         -6    1    1    2    0  503  0.14142728898E+02  0.44890619490E+02 -0.53873137521E+02  0.18628338478E+03  0.17200000000E+03 0. -1.
</event>
<event>
 4    1  0.2889985E+000  0.2126374E+03  0.7818608E-02  0.1139494E+00
         21   -1    0    0  501  502  0.00000000000E+00  0.00000000000E+00  0.13056716413E+03  0.13056716413E+03  0.00000000000E+00 0.  1.
         21   -1    0    0  502  503 -0.00000000000E+00 -0.00000000000E+00 -0.41080263441E+03  0.41080263441E+03  0.00000000000E+00 0.  1.
          6    1    1    2  501    0 -0.48228887071E+02  0.11534577953E+03 -0.32853464842E+02  0.21516046234E+03  0.17200000000E+03 0.  1.
         -6    1    1    2    0  503  0.48228887071E+02 -0.11534577953E+03 -0.24738200544E+03  0.32620933619E+03  0.17200000000E+03 0.  1.
</event>
<event>
 4    1  0.2889985E+000  0.2165984E+03  0.7818608E-02  0.1136445E+00
         21   -1    0    0  503  502  0.00000000000E+00  0.00000000000E+00  0.16807312137E+03  0.16807312137E+03  0.00000000000E+00 0.  1.
         21   -1    0    0  501  503 -0.00000000000E+00 -0.00000000000E+00 -0.27928058146E+03  0.27928058146E+03  0.00000000000E+00 0.  1.
          6    1    1    2  501    0 -0.12165715354E+03  0.50303241899E+02 -0.60732619339E+02  0.22495183975E+03  0.17200000000E+03 0. -1.
         -6    1    1    2    0  502  0.12165715354E+03 -0.50303241899E+02 -0.50474840756E+02  0.22240186308E+03  0.17200000000E+03 0. -1.
</event>
<event>
 4    1  0.2889985E+000  0.1750723E+03  0.7818608E-02  0.1172659E+00
         21   -1    0    0  503  502  0.00000000000E+00  0.00000000000E+00  0.41094798092E+02  0.41094798092E+02  0.00000000000E+00 0.  1.
         21   -1    0    0  501  503 -0.00000000000E+00 -0.00000000000E+00 -0.75225098905E+03  0.75225098905E+03  0.00000000000E+00 0.  1.
          6    1    1    2  501    0 -0.15615979202E+02  0.28678227489E+02 -0.39218690405E+03  0.42948907698E+03  0.17200000000E+03 0.  1.
         -6    1    1    2    0  502  0.15615979202E+02 -0.28678227489E+02 -0.31896928691E+03  0.36385671016E+03  0.17200000000E+03 0.  1.
</event>
<event>
 4    1  0.2889985E+000  0.1994785E+03  0.7818608E-02  0.1150180E+00
         21   -1    0    0  503  502  0.00000000000E+00  0.00000000000E+00  0.68356923283E+03  0.68356923283E+03  0.00000000000E+00 0. -1.
         21   -1    0    0  501  503 -0.00000000000E+00 -0.00000000000E+00 -0.65146678969E+02  0.65146678969E+02  0.00000000000E+00 0. -1.
          6    1    1    2  501    0 -0.88198779048E+02  0.49281308326E+02  0.18706899589E+03  0.27347117069E+03  0.17200000000E+03 0. -1.
         -6    1    1    2    0  502  0.88198779048E+02 -0.49281308326E+02  0.43135355797E+03  0.47524474111E+03  0.17200000000E+03 0. -1.
</event>
<event>
 4    1  0.2889985E+000  0.3417866E+03  0.7818608E-02  0.1066038E+00
         21   -1    0    0  503  502  0.00000000000E+00  0.00000000000E+00  0.25116246228E+03  0.25116246228E+03  0.00000000000E+00 0.  1.
         21   -1    0    0  501  503 -0.00000000000E+00 -0.00000000000E+00 -0.54636269848E+03  0.54636269848E+03  0.00000000000E+00 0. -1.
          6    1    1    2  501    0 -0.18204811494E+02  0.29479258558E+03 -0.30137794602E+03  0.45568272956E+03  0.17200000000E+03 0.  1.
         -6    1    1    2    0  502  0.18204811494E+02 -0.29479258558E+03  0.61777098209E+01  0.34184243120E+03  0.17200000000E+03 0.  1.
</event>
<event>
 4    1  0.2889985E+000  0.2156897E+03  0.7818608E-02  0.1137138E+00
         21   -1    0    0  501  502  0.00000000000E+00  0.00000000000E+00  0.21594952072E+04  0.21594952072E+04  0.00000000000E+00 0.  1.
         21   -1    0    0  502  503 -0.00000000000E+00 -0.00000000000E+00 -0.36577539894E+02  0.36577539894E+02  0.00000000000E+00 0.  1.
          6    1    1    2  501    0  0.11363175098E+03  0.63449729925E+02  0.17654290713E+04  0.17785561135E+04  0.17200000000E+03 0.  1.
         -6    1    1    2    0  503 -0.11363175098E+03 -0.63449729925E+02  0.35748859601E+03  0.41751663360E+03  0.17200000000E+03 0.  1.
</event>
<event>
 4    1  0.2889985E+000  0.2222726E+03  0.7818608E-02  0.1132200E+00
         21   -1    0    0  503  502  0.00000000000E+00  0.00000000000E+00  0.28990169449E+03  0.28990169449E+03  0.00000000000E+00 0. -1.
         21   -1    0    0  501  503 -0.00000000000E+00 -0.00000000000E+00 -0.17250972858E+03  0.17250972858E+03  0.00000000000E+00 0.  1.
          6    1    1    2  501    0 -0.13423705246E+03 -0.42444474871E+02  0.33250507925E+02  0.22474589202E+03  0.17200000000E+03 0.  1.
         -6    1    1    2    0  502  0.13423705246E+03  0.42444474871E+02  0.84141457979E+02  0.23766553105E+03  0.17200000000E+03 0.  1.
</event>
<event>
 4    1  0.2889985E+000  0.2111383E+03  0.7818608E-02  0.1140668E+00
         21   -1    0    0  503  502  0.00000000000E+00  0.00000000000E+00  0.30796483719E+03  0.30796483719E+03  0.00000000000E+00 0.  1.
         21   -1    0    0  501  503 -0.00000000000E+00 -0.00000000000E+00 -0.56921256451E+03  0.56921256451E+03  0.00000000000E+00 0.  1.
          6    1    1    2  501    0 -0.12225546166E+03 -0.69994805896E+01 -0.50936060445E+03  0.55138699296E+03  0.17200000000E+03 0.  1.
         -6    1    1    2    0  502  0.12225546166E+03  0.69994805896E+01  0.24811287713E+03  0.32579040875E+03  0.17200000000E+03 0.  1.
</event>
<event>
 4    1  0.2889985E+000  0.1927542E+03  0.7818608E-02  0.1156000E+00
         21   -1    0    0  501  502  0.00000000000E+00  0.00000000000E+00  0.12241749302E+03  0.12241749302E+03  0.00000000000E+00 0.  1.
         21   -1    0    0  502  503 -0.00000000000E+00 -0.00000000000E+00 -0.43512089418E+03  0.43512089418E+03  0.00000000000E+00 0.  1.
          6    1    1    2  501    0  0.57275174562E+02  0.65496085685E+02 -0.30327479925E+01  0.19277806001E+03  0.17200000000E+03 0.  1.
         -6    1    1    2    0  503 -0.57275174562E+02 -0.65496085685E+02 -0.30967065316E+03  0.36476032719E+03  0.17200000000E+03 0.  1.
</event>
<event>
 4    1  0.2889985E+000  0.3186778E+03  0.7818608E-02  0.1076259E+00
         21   -1    0    0  501  502  0.00000000000E+00  0.00000000000E+00  0.20459706011E+03  0.20459706011E+03  0.00000000000E+00 0.  1.
         21   -1    0    0  502  503 -0.00000000000E+00 -0.00000000000E+00 -0.49706514446E+03  0.49706514446E+03  0.00000000000E+00 0. -1.
          6    1    1    2  501    0  0.25335983649E+03  0.88206046240E+02 -0.15936907880E+03  0.35630607154E+03  0.17200000000E+03 0. -1.
         -6    1    1    2    0  503 -0.25335983649E+03 -0.88206046240E+02 -0.13309900555E+03  0.34535613303E+03  0.17200000000E+03 0.  1.
</event>
<event>
 4    1  0.2889985E+000  0.2175799E+03  0.7818608E-02  0.1135700E+00
         21   -1    0    0  501  502  0.00000000000E+00  0.00000000000E+00  0.53060556332E+02  0.53060556332E+02  0.00000000000E+00 0. -1.
         21   -1    0    0  502  503 -0.00000000000E+00 -0.00000000000E+00 -0.32273048343E+04  0.32273048343E+04  0.00000000000E+00 0.  1.
          6    1    1    2  501    0 -0.25541773060E+02  0.13078469049E+03 -0.19195981124E+03  0.29015441849E+03  0.17200000000E+03 0. -1.
         -6    1    1    2    0  503  0.25541773060E+02 -0.13078469049E+03 -0.29822844667E+04  0.29902109721E+04  0.17200000000E+03 0.  1.
</event>
<event>
 4    1  0.2889985E+000  0.1839652E+03  0.7818608E-02  0.1164020E+00
         21   -1    0    0  503  502  0.00000000000E+00  0.00000000000E+00  0.90939451008E+02  0.90939451008E+02  0.00000000000E+00 0.  1.
         21   -1    0    0  501  503 -0.00000000000E+00 -0.00000000000E+00 -0.37237259673E+03  0.37237259673E+03  0.00000000000E+00 0.  1.
          6    1    1    2  501    0  0.17743269313E+02  0.62804144643E+02 -0.14637100323E+03  0.23509073733E+03  0.17200000000E+03 0.  1.
         -6    1    1    2    0  502 -0.17743269313E+02 -0.62804144643E+02 -0.13506214248E+03  0.22822131040E+03  0.17200000000E+03 0.  1.
</event>
<event>
 4    1  0.2889985E+000  0.2133545E+03  0.7818608E-02  0.1138937E+00
         21   -1    0    0  503  502  0.00000000000E+00  0.00000000000E+00  0.29383871154E+03  0.29383871154E+03  0.00000000000E+00 0. -1.
         21   -1    0    0  501  503 -0.00000000000E+00 -0.00000000000E+00 -0.25737843752E+03  0.25737843752E+03  0.00000000000E+00 0.  1.
          6    1    1    2  501    0 -0.71839485152E+02  0.10380381602E+03 -0.15566612286E+03  0.26410620147E+03  0.17200000000E+03 0.  1.
         -6    1    1    2    0  502  0.71839485152E+02 -0.10380381602E+03  0.19212639688E+03  0.28711094759E+03  0.17200000000E+03 0. -1.
</event>
<event>
 4    1  0.2889985E+000  0.2297259E+03  0.7818608E-02  0.1126833E+00
         21   -1    0    0  503  502  0.00000000000E+00  0.00000000000E+00  0.91044811924E+03  0.91044811924E+03  0.00000000000E+00 0.  1.
         21   -1    0    0  501  503 -0.00000000000E+00 -0.00000000000E+00 -0.63373534641E+02  0.63373534641E+02  0.00000000000E+00 0. -1.
          6    1    1    2  501    0 -0.38419737180E+02 -0.14735639503E+03  0.56578377298E+03  0.61064331744E+03  0.17200000000E+03 0.  1.
         -6    1    1    2    0  502  0.38419737180E+02  0.14735639503E+03  0.28129081161E+03  0.36317833644E+03  0.17200000000E+03 0. -1.
</event>
<event>
 4    1  0.2889985E+000  0.2040230E+03  0.7818608E-02  0.1146388E+00
         21   -1    0    0  503  502  0.00000000000E+00  0.00000000000E+00  0.75199875951E+03  0.75199875951E+03  0.00000000000E+00 0. -1.
         21   -1    0    0  501  503 -0.00000000000E+00 -0.00000000000E+00 -0.82830210993E+02  0.82830210993E+02  0.00000000000E+00 0.  1.
          6    1    1    2  501    0  0.17833434349E+02 -0.10827446679E+03  0.57499808496E+03  0.61012145451E+03  0.17200000000E+03 0. -1.
         -6    1    1    2    0  502 -0.17833434349E+02  0.10827446679E+03  0.94170463552E+02  0.22470751599E+03  0.17200000000E+03 0.  1.
</event>
<event>
 4    1  0.2889985E+000  0.1798562E+03  0.7818608E-02  0.1167942E+00
         21   -1    0    0  503  502  0.00000000000E+00  0.00000000000E+00  0.20752025975E+04  0.20752025975E+04  0.00000000000E+00 0. -1.
         21   -1    0    0  501  503 -0.00000000000E+00 -0.00000000000E+00 -0.36188961416E+02  0.36188961416E+02  0.00000000000E+00 0. -1.
          6    1    1    2  501    0  0.17254192997E+02  0.49664368120E+02  0.22299086723E+03  0.28648417671E+03  0.17200000000E+03 0. -1.
         -6    1    1    2    0  502 -0.17254192997E+02 -0.49664368120E+02  0.18160227688E+04  0.18249073822E+04  0.17200000000E+03 0. -1.
</event>
<event>
 4    1  0.2889985E+000  0.1873120E+03  0.7818608E-02  0.1160908E+00
         21   -1    0    0  501  502  0.00000000000E+00  0.00000000000E+00  0.38847420921E+03  0.38847420921E+03  0.00000000000E+00 0.  1.
         21   -1    0    0  502  503 -0.00000000000E+00 -0.00000000000E+00 -0.11858607590E+03  0.11858607590E+03  0.00000000000E+00 0.  1.
          6    1    1    2  501    0  0.11712742994E+02 -0.73243473185E+02  0.25872939112E+03  0.31941617452E+03  0.17200000000E+03 0.  1.
         -6    1    1    2    0  503 -0.11712742994E+02  0.73243473185E+02  0.11158742193E+02  0.18764411059E+03  0.17200000000E+03 0.  1.
</event>
<event>
 4    1  0.2889985E+000  0.2241505E+03  0.7818608E-02  0.1130826E+00
         21   -1    0    0  501  502  0.00000000000E+00  0.00000000000E+00  0.54897333963E+03  0.54897333963E+03  0.00000000000E+00 0.  1.
         21   -1    0    0  502  503 -0.00000000000E+00 -0.00000000000E+00 -0.10028533978E+03  0.10028533978E+03  0.00000000000E+00 0.  1.
          6    1    1    2  501    0 -0.49778993749E+02  0.13483882449E+03  0.32030383163E+03  0.39094501067E+03  0.17200000000E+03 0.  1.
         -6    1    1    2    0  503  0.49778993749E+02 -0.13483882449E+03  0.12838416823E+03  0.25831366874E+03  0.17200000000E+03 0.  1.
</event>
<event>
 4    1  0.2889985E+000  0.1956370E+03  0.7818608E-02  0.1153473E+00
         21   -1    0    0  501  502  0.00000000000E+00  0.00000000000E+00  0.11575601035E+03  0.11575601035E+03  0.00000000000E+00 0. -1.
         21   -1    0    0  502  503 -0.00000000000E+00 -0.00000000000E+00 -0.38560128657E+03  0.38560128657E+03  0.00000000000E+00 0.  1.
          6    1    1    2  501    0 -0.51148749469E+02  0.77933520242E+02 -0.40284181756E+02  0.19974144149E+03  0.17200000000E+03 0. -1.
         -6    1    1    2    0  503  0.51148749469E+02 -0.77933520242E+02 -0.22956109447E+03  0.30161585542E+03  0.17200000000E+03 0.  1.
</event>
<event>
 4    1  0.2889985E+000  0.2315097E+03  0.7818608E-02  0.1125582E+00
         21   -1    0    0  501  502  0.00000000000E+00  0.00000000000E+00  0.11176564106E+04  0.11176564106E+04  0.00000000000E+00 0. -1.
         21   -1    0    0  502  503 -0.00000000000E+00 -0.00000000000E+00 -0.49031204591E+02  0.49031204591E+02  0.00000000000E+00 0.  1.
          6    1    1    2  501    0 -0.15403349492E+03 -0.16923533920E+02  0.62075446292E+03  0.66252005766E+03  0.17200000000E+03 0.  1.
         -6    1    1    2    0  503  0.15403349492E+03  0.16923533920E+02  0.44787074309E+03  0.50416755754E+03  0.17200000000E+03 0. -1.
</event>
<event>
 4    1  0.2889985E+000  0.1958856E+03  0.7818608E-02  0.1153258E+00
         21   -1    0    0  501  502  0.00000000000E+00  0.00000000000E+00  0.14544784807E+03  0.14544784807E+03  0.00000000000E+00 0.  1.
         21   -1    0    0  502  503 -0.00000000000E+00 -0.00000000000E+00 -0.11703609517E+04  0.11703609517E+04  0.00000000000E+00 0.  1.
          6    1    1    2  501    0 -0.62685049719E+02  0.69697500201E+02  0.66569448684E+02  0.20688800954E+03  0.17200000000E+03 0.  1.
         -6    1    1    2    0  503  0.62685049719E+02 -0.69697500201E+02 -0.10914825523E+04  0.11089207902E+04  0.17200000000E+03 0.  1.
</event>
<event>
 4    1  0.2889985E+000  0.2399640E+03  0.7818608E-02  0.1119817E+00
         21   -1    0    0  501  502  0.00000000000E+00  0.00000000000E+00  0.56421376397E+03  0.56421376397E+03  0.00000000000E+00 0.  1.
         21   -1    0    0  502  503 -0.00000000000E+00 -0.00000000000E+00 -0.11213847544E+03  0.11213847544E+03  0.00000000000E+00 0.  1.
          6    1    1    2  501    0 -0.16698221083E+03 -0.10755501985E+02  0.32742832900E+03  0.40594587101E+03  0.17200000000E+03 0.  1.
         -6    1    1    2    0  503  0.16698221083E+03  0.10755501985E+02  0.12464695953E+03  0.27040636841E+03  0.17200000000E+03 0.  1.
</event>
<event>
 4    1  0.2889985E+000  0.2211035E+03  0.7818608E-02  0.1133063E+00
         21   -1    0    0  503  502  0.00000000000E+00  0.00000000000E+00  0.19915204924E+03  0.19915204924E+03  0.00000000000E+00 0.  1.
         21   -1    0    0  501  503 -0.00000000000E+00 -0.00000000000E+00 -0.80846732218E+03  0.80846732218E+03  0.00000000000E+00 0.  1.
          6    1    1    2  501    0  0.11591672363E+03  0.76590365747E+02 -0.72508082830E+03  0.75804286061E+03  0.17200000000E+03 0.  1.
         -6    1    1    2    0  502 -0.11591672363E+03 -0.76590365747E+02  0.11576555537E+03  0.24957651082E+03  0.17200000000E+03 0.  1.
</event>
<event>
 4    1  0.2889985E+000  0.1973362E+03  0.7818608E-02  0.1152006E+00
         21   -1    0    0  501  502  0.00000000000E+00  0.00000000000E+00  0.21248589157E+03  0.21248589157E+03  0.00000000000E+00 0.  1.
         21   -1    0    0  502  503 -0.00000000000E+00 -0.00000000000E+00 -0.27951979265E+03  0.27951979265E+03  0.00000000000E+00 0.  1.
          6    1    1    2  501    0 -0.92011873115E+02  0.29856453871E+02  0.11084114385E+03  0.22633460142E+03  0.17200000000E+03 0.  1.
         -6    1    1    2    0  503  0.92011873115E+02 -0.29856453871E+02 -0.17787504492E+03  0.26567108280E+03  0.17200000000E+03 0.  1.
</event>
<event>
 4    1  0.2889985E+000  0.2234438E+03  0.7818608E-02  0.1131341E+00
         21   -1    0    0  503  502  0.00000000000E+00  0.00000000000E+00  0.30760495139E+03  0.30760495139E+03  0.00000000000E+00 0.  1.
         21   -1    0    0  501  503 -0.00000000000E+00 -0.00000000000E+00 -0.19203899590E+03  0.19203899590E+03  0.00000000000E+00 0.  1.
          6    1    1    2  501    0 -0.12040263929E+03  0.76461352976E+02 -0.40512016056E+02  0.22708667396E+03  0.17200000000E+03 0.  1.
         -6    1    1    2    0  502  0.12040263929E+03 -0.76461352976E+02  0.15607797154E+03  0.27255727333E+03  0.17200000000E+03 0.  1.
</event>
<event>
 4    1  0.2889985E+000  0.1878299E+03  0.7818608E-02  0.1160433E+00
         21   -1    0    0  503  502  0.00000000000E+00  0.00000000000E+00  0.64790218293E+03  0.64790218293E+03  0.00000000000E+00 0.  1.
         21   -1    0    0  501  503 -0.00000000000E+00 -0.00000000000E+00 -0.56925714802E+02  0.56925714802E+02  0.00000000000E+00 0.  1.
          6    1    1    2  501    0  0.64855572403E+02 -0.38598498907E+02  0.22203630088E+03  0.29082676682E+03  0.17200000000E+03 0.  1.
         -6    1    1    2    0  502 -0.64855572403E+02  0.38598498907E+02  0.36894016725E+03  0.41400113092E+03  0.17200000000E+03 0.  1.
</event>
<event>
 4    1  0.2889985E+000  0.2138201E+03  0.7818608E-02  0.1138576E+00
         21   -1    0    0  501  502  0.00000000000E+00  0.00000000000E+00  0.62431287387E+03  0.62431287387E+03  0.00000000000E+00 0.  1.
         21   -1    0    0  502  503 -0.00000000000E+00 -0.00000000000E+00 -0.73892545001E+02  0.73892545001E+02  0.00000000000E+00 0.  1.
          6    1    1    2  501    0  0.17212153552E+02 -0.12585220197E+03  0.24217749322E+03  0.32306187208E+03  0.17200000000E+03 0.  1.
         -6    1    1    2    0  503 -0.17212153552E+02  0.12585220197E+03  0.30824283565E+03  0.37514354680E+03  0.17200000000E+03 0.  1.
</event>
<event>
 4    1  0.2889985E+000  0.2008397E+03  0.7818608E-02  0.1149032E+00
         21   -1    0    0  501  502  0.00000000000E+00  0.00000000000E+00  0.32967550184E+03  0.32967550184E+03  0.00000000000E+00 0. -1.
         21   -1    0    0  502  503 -0.00000000000E+00 -0.00000000000E+00 -0.38817043049E+03  0.38817043049E+03  0.00000000000E+00 0. -1.
          6    1    1    2  501    0 -0.90150165784E+02  0.51240066626E+02  0.26777016115E+03  0.33471996657E+03  0.17200000000E+03 0. -1.
         -6    1    1    2    0  503  0.90150165784E+02 -0.51240066626E+02 -0.32626508980E+03  0.38312596576E+03  0.17200000000E+03 0. -1.
</event>
<event>
 4    1  0.2889985E+000  0.1975720E+03  0.7818608E-02  0.1151804E+00
         21   -1    0    0  501  502  0.00000000000E+00  0.00000000000E+00  0.68052184138E+02  0.68052184138E+02  0.00000000000E+00 0.  1.
         21   -1    0    0  502  503 -0.00000000000E+00 -0.00000000000E+00 -0.78567977052E+03  0.78567977052E+03  0.00000000000E+00 0. -1.
          6    1    1    2  501    0 -0.97055848818E+02  0.55559545891E+01 -0.13703563347E+03  0.24044432050E+03  0.17200000000E+03 0.  1.
         -6    1    1    2    0  503  0.97055848818E+02 -0.55559545891E+01 -0.58059195291E+03  0.61328763416E+03  0.17200000000E+03 0. -1.
</event>
<event>
 4    1  0.2889985E+000  0.3711184E+03  0.7818608E-02  0.1054266E+00
         21   -1    0    0  503  502  0.00000000000E+00  0.00000000000E+00  0.18746010034E+03  0.18746010034E+03  0.00000000000E+00 0. -1.
         21   -1    0    0  501  503 -0.00000000000E+00 -0.00000000000E+00 -0.73668339185E+03  0.73668339185E+03  0.00000000000E+00 0.  1.
          6    1    1    2  501    0  0.53286357258E+02 -0.32450792784E+03 -0.29852626334E+03  0.47628432790E+03  0.17200000000E+03 0. -1.
         -6    1    1    2    0  502 -0.53286357258E+02  0.32450792784E+03 -0.25069702817E+03  0.44785916428E+03  0.17200000000E+03 0.  1.
</event>
<event>
 4    1  0.2889985E+000  0.1751334E+03  0.7818608E-02  0.1172598E+00
         21   -1    0    0  503  502  0.00000000000E+00  0.00000000000E+00  0.77070583837E+03  0.77070583837E+03  0.00000000000E+00 0.  1.
         21   -1    0    0  501  503 -0.00000000000E+00 -0.00000000000E+00 -0.97193924558E+02  0.97193924558E+02  0.00000000000E+00 0.  1.
          6    1    1    2  501    0 -0.25689997760E+02  0.20681644253E+02  0.32798762471E+01  0.17516410586E+03  0.17200000000E+03 0.  1.
         -6    1    1    2    0  502  0.25689997760E+02 -0.20681644253E+02  0.67023203756E+03  0.69273565707E+03  0.17200000000E+03 0.  1.
</event>
<event>
 4    1  0.2889985E+000  0.2364814E+03  0.7818608E-02  0.1122159E+00
         21   -1    0    0  503  502  0.00000000000E+00  0.00000000000E+00  0.86786671298E+02  0.86786671298E+02  0.00000000000E+00 0.  1.
         21   -1    0    0  501  503 -0.00000000000E+00 -0.00000000000E+00 -0.97971264005E+03  0.97971264005E+03  0.00000000000E+00 0. -1.
          6    1    1    2  501    0  0.13233152125E+03 -0.93956488584E+02 -0.13448769117E+03  0.27204851101E+03  0.17200000000E+03 0.  1.
         -6    1    1    2    0  502 -0.13233152125E+03  0.93956488584E+02 -0.75843827757E+03  0.79445080034E+03  0.17200000000E+03 0. -1.
</event>
<event>
 4    1  0.2889985E+000  0.2263911E+03  0.7818608E-02  0.1129206E+00
         21   -1    0    0  501  502  0.00000000000E+00  0.00000000000E+00  0.58072339995E+03  0.58072339995E+03  0.00000000000E+00 0.  1.
         21   -1    0    0  502  503 -0.00000000000E+00 -0.00000000000E+00 -0.10657489855E+03  0.10657489855E+03  0.00000000000E+00 0.  1.
          6    1    1    2  501    0 -0.10549645344E+03 -0.10266173578E+03  0.37954478420E+03  0.44193571579E+03  0.17200000000E+03 0.  1.
         -6    1    1    2    0  503  0.10549645344E+03  0.10266173578E+03  0.94603717206E+02  0.24536258270E+03  0.17200000000E+03 0.  1.
</event>
<event>
 4    1  0.2889985E+000  0.1791608E+03  0.7818608E-02  0.1168618E+00
         21   -1    0    0  503  502  0.00000000000E+00  0.00000000000E+00  0.13595323158E+03  0.13595323158E+03  0.00000000000E+00 0. -1.
         21   -1    0    0  501  503 -0.00000000000E+00 -0.00000000000E+00 -0.41539034608E+03  0.41539034608E+03  0.00000000000E+00 0. -1.
          6    1    1    2  501    0 -0.14688068528E+02  0.47946299888E+02 -0.32082851064E+03  0.36746363122E+03  0.17200000000E+03 0. -1.
         -6    1    1    2    0  502  0.14688068528E+02 -0.47946299888E+02  0.41391396142E+02  0.18387994645E+03  0.17200000000E+03 0. -1.
</event>
<event>
 4    1  0.2889985E+000  0.1796045E+03  0.7818608E-02  0.1168186E+00
         21   -1    0    0  503  502  0.00000000000E+00  0.00000000000E+00  0.71015494706E+02  0.71015494706E+02  0.00000000000E+00 0.  1.
         21   -1    0    0  501  503 -0.00000000000E+00 -0.00000000000E+00 -0.45701563454E+03  0.45701563454E+03  0.00000000000E+00 0.  1.
          6    1    1    2  501    0 -0.24710242890E+02  0.45422175272E+02 -0.21359140043E+03  0.27906819318E+03  0.17200000000E+03 0.  1.
         -6    1    1    2    0  502  0.24710242890E+02 -0.45422175272E+02 -0.17240873941E+03  0.24896293607E+03  0.17200000000E+03 0.  1.
</event>
<event>
 4    1  0.2889985E+000  0.2016421E+03  0.7818608E-02  0.1148361E+00
         21   -1    0    0  503  502  0.00000000000E+00  0.00000000000E+00  0.15282570559E+03  0.15282570559E+03  0.00000000000E+00 0. -1.
         21   -1    0    0  501  503 -0.00000000000E+00 -0.00000000000E+00 -0.28251258121E+03  0.28251258121E+03  0.00000000000E+00 0.  1.
          6    1    1    2  501    0  0.84409566898E+02 -0.62853546641E+02 -0.11738513783E+03  0.23332126755E+03  0.17200000000E+03 0. -1.
         -6    1    1    2    0  502 -0.84409566898E+02  0.62853546641E+02 -0.12301737788E+02  0.20201701924E+03  0.17200000000E+03 0.  1.
</event>
<event>
 4    1  0.2889985E+000  0.2030728E+03  0.7818608E-02  0.1147172E+00
         21   -1    0    0  503  502  0.00000000000E+00  0.00000000000E+00  0.54668391286E+03  0.54668391286E+03  0.00000000000E+00 0. -1.
         21   -1    0    0  501  503 -0.00000000000E+00 -0.00000000000E+00 -0.91557006780E+02  0.91557006780E+02  0.00000000000E+00 0. -1.
          6    1    1    2  501    0 -0.10648291291E+03  0.17775250567E+02  0.93647757793E+02  0.22362574273E+03  0.17200000000E+03 0. -1.
         -6    1    1    2    0  502  0.10648291291E+03 -0.17775250567E+02  0.36147914828E+03  0.41461517690E+03  0.17200000000E+03 0. -1.
</event>
<event>
 4    1  0.2889985E+000  0.1872529E+03  0.7818608E-02  0.1160963E+00
         21   -1    0    0  501  502  0.00000000000E+00  0.00000000000E+00  0.12655826230E+04  0.12655826230E+04  0.00000000000E+00 0. -1.
         21   -1    0    0  502  503 -0.00000000000E+00 -0.00000000000E+00 -0.27857072580E+02  0.27857072580E+02  0.00000000000E+00 0. -1.
          6    1    1    2  501    0 -0.65238230517E+02  0.34980431685E+02  0.57116554577E+03  0.60107714813E+03  0.17200000000E+03 0. -1.
         -6    1    1    2    0  503  0.65238230517E+02 -0.34980431685E+02  0.66656000465E+03  0.69236254746E+03  0.17200000000E+03 0. -1.
</event>
<event>
 4    1  0.2889985E+000  0.2162425E+03  0.7818608E-02  0.1136716E+00
         21   -1    0    0  501  502  0.00000000000E+00  0.00000000000E+00  0.11691926401E+03  0.11691926401E+03  0.00000000000E+00 0. -1.
         21   -1    0    0  502  503 -0.00000000000E+00 -0.00000000000E+00 -0.47840511755E+03  0.47840511755E+03  0.00000000000E+00 0. -1.
          6    1    1    2  501    0 -0.42666491742E+02 -0.12392086041E+03 -0.60194576762E+02  0.22446424266E+03  0.17200000000E+03 0. -1.
         -6    1    1    2    0  503  0.42666491742E+02  0.12392086041E+03 -0.30129127677E+03  0.37086013890E+03  0.17200000000E+03 0. -1.
</event>
<event>
 4    1  0.2889985E+000  0.1795649E+03  0.7818608E-02  0.1168225E+00
         21   -1    0    0  503  502  0.00000000000E+00  0.00000000000E+00  0.64719125112E+03  0.64719125112E+03  0.00000000000E+00 0.  1.
         21   -1    0    0  501  503 -0.00000000000E+00 -0.00000000000E+00 -0.52563989337E+02  0.52563989337E+02  0.00000000000E+00 0. -1.
          6    1    1    2  501    0 -0.31726964982E+02  0.40656485309E+02  0.21738465053E+03  0.28195679880E+03  0.17200000000E+03 0. -1.
         -6    1    1    2    0  502  0.31726964982E+02 -0.40656485309E+02  0.37724261126E+03  0.41779844166E+03  0.17200000000E+03 0.  1.
</event>
<event>
 4    1  0.2889985E+000  0.1872030E+03  0.7818608E-02  0.1161008E+00
         21   -1    0    0  501  502  0.00000000000E+00  0.00000000000E+00  0.21699811654E+02  0.21699811654E+02  0.00000000000E+00 0.  1.
         21   -1    0    0  502  503 -0.00000000000E+00 -0.00000000000E+00 -0.17528247037E+04  0.17528247037E+04  0.00000000000E+00 0.  1.
          6    1    1    2  501    0  0.19505502799E+02  0.71277632921E+02 -0.61675520574E+03  0.64454010690E+03  0.17200000000E+03 0.  1.
         -6    1    1    2    0  503 -0.19505502799E+02 -0.71277632921E+02 -0.11143696863E+04  0.11299844084E+04  0.17200000000E+03 0.  1.
</event>
<event>
 4    1  0.2889985E+000  0.1808260E+03  0.7818608E-02  0.1167006E+00
         21   -1    0    0  501  502  0.00000000000E+00  0.00000000000E+00  0.26582120233E+03  0.26582120233E+03  0.00000000000E+00 0.  1.
         21   -1    0    0  502  503 -0.00000000000E+00 -0.00000000000E+00 -0.13128646898E+03  0.13128646898E+03  0.00000000000E+00 0.  1.
          6    1    1    2  501    0  0.47467840218E+02 -0.29340402078E+02  0.11712723710E+03  0.21544568856E+03  0.17200000000E+03 0.  1.
         -6    1    1    2    0  503 -0.47467840218E+02  0.29340402078E+02  0.17407496252E+02  0.18166198275E+03  0.17200000000E+03 0.  1.
</event>
<event>
 4    1  0.2889985E+000  0.1827008E+03  0.7818608E-02  0.1165215E+00
         21   -1    0    0  501  502  0.00000000000E+00  0.00000000000E+00  0.34830616313E+03  0.34830616313E+03  0.00000000000E+00 0.  1.
         21   -1    0    0  502  503 -0.00000000000E+00 -0.00000000000E+00 -0.17615991727E+03  0.17615991727E+03  0.00000000000E+00 0.  1.
          6    1    1    2  501    0 -0.47273966601E+02  0.39506236196E+02  0.26314994742E+03  0.32035521760E+03  0.17200000000E+03 0.  1.
         -6    1    1    2    0  503  0.47273966601E+02 -0.39506236196E+02 -0.91003701554E+02  0.20411086280E+03  0.17200000000E+03 0.  1.
</event>
<event>
 4    1  0.2889985E+000  0.2685415E+03  0.7818608E-02  0.1102117E+00
         21   -1    0    0  503  502  0.00000000000E+00  0.00000000000E+00  0.15272533332E+03  0.15272533332E+03  0.00000000000E+00 0.  1.
         21   -1    0    0  501  503 -0.00000000000E+00 -0.00000000000E+00 -0.68909734281E+03  0.68909734281E+03  0.00000000000E+00 0. -1.
          6    1    1    2  501    0 -0.50430703625E+02 -0.19996818222E+03 -0.50433875360E+03  0.57137737806E+03  0.17200000000E+03 0. -1.
         -6    1    1    2    0  502  0.50430703625E+02  0.19996818222E+03 -0.32033255894E+02  0.27044529808E+03  0.17200000000E+03 0.  1.
</event>
<event>
 4    1  0.2889985E+000  0.1777603E+03  0.7818608E-02  0.1169988E+00
         21   -1    0    0  501  502  0.00000000000E+00  0.00000000000E+00  0.45942472649E+02  0.45942472649E+02  0.00000000000E+00 0. -1.
         21   -1    0    0  502  503 -0.00000000000E+00 -0.00000000000E+00 -0.74906267095E+03  0.74906267095E+03  0.00000000000E+00 0. -1.
          6    1    1    2  501    0 -0.32553835067E+02 -0.30902909455E+02 -0.23787156056E+03  0.29695390436E+03  0.17200000000E+03 0. -1.
         -6    1    1    2    0  503  0.32553835067E+02  0.30902909455E+02 -0.46524863774E+03  0.49805123924E+03  0.17200000000E+03 0. -1.
</event>
<event>
 4    1  0.2889985E+000  0.4112048E+03  0.7818608E-02  0.1039967E+00
         21   -1    0    0  503  502  0.00000000000E+00  0.00000000000E+00  0.91049795337E+03  0.91049795337E+03  0.00000000000E+00 0.  1.
         21   -1    0    0  501  503 -0.00000000000E+00 -0.00000000000E+00 -0.24015010578E+03  0.24015010578E+03  0.00000000000E+00 0. -1.
          6    1    1    2  501    0  0.33220370635E+03  0.17072223602E+03  0.61251833873E+02  0.41574171253E+03  0.17200000000E+03 0. -1.
         -6    1    1    2    0  502 -0.33220370635E+03 -0.17072223602E+03  0.60909601371E+03  0.73490634662E+03  0.17200000000E+03 0.  1.
</event>
<event>
 4    1  0.2889985E+000  0.1737148E+03  0.7818608E-02  0.1174028E+00
         21   -1    0    0  503  502  0.00000000000E+00  0.00000000000E+00  0.22289804823E+03  0.22289804823E+03  0.00000000000E+00 0. -1.
         21   -1    0    0  501  503 -0.00000000000E+00 -0.00000000000E+00 -0.18893821496E+03  0.18893821496E+03  0.00000000000E+00 0. -1.
          6    1    1    2  501    0  0.22700152330E+02  0.88062579294E+01  0.12661036522E+03  0.21495820914E+03  0.17200000000E+03 0. -1.
         -6    1    1    2    0  502 -0.22700152330E+02 -0.88062579294E+01 -0.92650531950E+02  0.19687805405E+03  0.17200000000E+03 0. -1.
</event>
<event>
 4    1  0.2889985E+000  0.2083298E+03  0.7818608E-02  0.1142895E+00
         21   -1    0    0  503  502  0.00000000000E+00  0.00000000000E+00  0.28806705892E+03  0.28806705892E+03  0.00000000000E+00 0. -1.
         21   -1    0    0  501  503 -0.00000000000E+00 -0.00000000000E+00 -0.46494700561E+03  0.46494700561E+03  0.00000000000E+00 0. -1.
          6    1    1    2  501    0  0.49121168737E+02 -0.10679141205E+03 -0.39799075901E+03  0.44921925511E+03  0.17200000000E+03 0. -1.
         -6    1    1    2    0  502 -0.49121168737E+02  0.10679141205E+03  0.22111081232E+03  0.30379480942E+03  0.17200000000E+03 0. -1.
</event>
<event>
 4    1  0.2889985E+000  0.1756002E+03  0.7818608E-02  0.1172130E+00
         21   -1    0    0  503  502  0.00000000000E+00  0.00000000000E+00  0.30669138868E+03  0.30669138868E+03  0.00000000000E+00 0.  1.
         21   -1    0    0  501  503 -0.00000000000E+00 -0.00000000000E+00 -0.20058309531E+03  0.20058309531E+03  0.00000000000E+00 0.  1.
          6    1    1    2  501    0  0.13714234672E+02 -0.32608836582E+02 -0.12607024014E+03  0.21616919740E+03  0.17200000000E+03 0.  1.
         -6    1    1    2    0  502 -0.13714234672E+02  0.32608836582E+02  0.23217853351E+03  0.29110528659E+03  0.17200000000E+03 0.  1.
</event>
<event>
 4    1  0.2889985E+000  0.1768473E+03  0.7818608E-02  0.1170890E+00
         21   -1    0    0  501  502  0.00000000000E+00  0.00000000000E+00  0.76492568523E+03  0.76492568523E+03  0.00000000000E+00 0.  1.
         21   -1    0    0  502  503 -0.00000000000E+00 -0.00000000000E+00 -0.12371335542E+03  0.12371335542E+03  0.00000000000E+00 0.  1.
          6    1    1    2  501    0  0.13936257104E+02 -0.38687935969E+02  0.68416376671E+03  0.70665057513E+03  0.17200000000E+03 0.  1.
         -6    1    1    2    0  503 -0.13936257104E+02  0.38687935969E+02 -0.42951436896E+02  0.18198846552E+03  0.17200000000E+03 0.  1.
</event>
<event>
 4    1  0.2889985E+000  0.3107262E+03  0.7818608E-02  0.1079998E+00
         21   -1    0    0  503  502  0.00000000000E+00  0.00000000000E+00  0.24497818568E+03  0.24497818568E+03  0.00000000000E+00 0.  1.
         21   -1    0    0  501  503 -0.00000000000E+00 -0.00000000000E+00 -0.61149859733E+03  0.61149859733E+03  0.00000000000E+00 0.  1.
          6    1    1    2  501    0 -0.85698251955E+02 -0.24417734894E+03 -0.43858700326E+03  0.53750286283E+03  0.17200000000E+03 0.  1.
         -6    1    1    2    0  502  0.85698251955E+02  0.24417734894E+03  0.72066591607E+02  0.31897392017E+03  0.17200000000E+03 0.  1.
</event>
<event>
 4    1  0.2889985E+000  0.2138826E+03  0.7818608E-02  0.1138528E+00
         21   -1    0    0  503  502  0.00000000000E+00  0.00000000000E+00  0.12256646648E+04  0.12256646648E+04  0.00000000000E+00 0.  1.
         21   -1    0    0  501  503 -0.00000000000E+00 -0.00000000000E+00 -0.62361168130E+02  0.62361168130E+02  0.00000000000E+00 0.  1.
          6    1    1    2  501    0  0.91503009128E+02 -0.88255017718E+02  0.17357970134E+03  0.27545537125E+03  0.17200000000E+03 0.  1.
         -6    1    1    2    0  502 -0.91503009128E+02  0.88255017718E+02  0.98972379537E+03  0.10125704617E+04  0.17200000000E+03 0.  1.
</event>
<event>
 4    1  0.2889985E+000  0.2766119E+03  0.7818608E-02  0.1097554E+00
         21   -1    0    0  503  502  0.00000000000E+00  0.00000000000E+00  0.13245025926E+04  0.13245025926E+04  0.00000000000E+00 0.  1.
         21   -1    0    0  501  503 -0.00000000000E+00 -0.00000000000E+00 -0.72496244766E+02  0.72496244766E+02  0.00000000000E+00 0. -1.
          6    1    1    2  501    0 -0.21613881452E+03  0.14633928685E+02  0.31116981097E+03  0.41634215529E+03  0.17200000000E+03 0. -1.
         -6    1    1    2    0  502  0.21613881452E+03 -0.14633928685E+02  0.94083653683E+03  0.98065668205E+03  0.17200000000E+03 0. -1.
</event>
<event>
 4    1  0.2889985E+000  0.2439481E+03  0.7818608E-02  0.1117190E+00
         21   -1    0    0  503  502  0.00000000000E+00  0.00000000000E+00  0.75882110186E+02  0.75882110186E+02  0.00000000000E+00 0.  1.
         21   -1    0    0  501  503 -0.00000000000E+00 -0.00000000000E+00 -0.11713781185E+04  0.11713781185E+04  0.00000000000E+00 0. -1.
          6    1    1    2  501    0 -0.16138923364E+03 -0.62291085226E+02 -0.90626108237E+03  0.93852001228E+03  0.17200000000E+03 0. -1.
         -6    1    1    2    0  502  0.16138923364E+03  0.62291085226E+02 -0.18923492596E+03  0.30874021642E+03  0.17200000000E+03 0.  1.
</event>
<event>
 4    1  0.2889985E+000  0.1822647E+03  0.7818608E-02  0.1165629E+00
         21   -1    0    0  501  502  0.00000000000E+00  0.00000000000E+00  0.10121778369E+04  0.10121778369E+04  0.00000000000E+00 0.  1.
         21   -1    0    0  502  503 -0.00000000000E+00 -0.00000000000E+00 -0.33230339506E+02  0.33230339506E+02  0.00000000000E+00 0.  1.
          6    1    1    2  501    0  0.41260748598E+02 -0.43976757368E+02  0.54750731326E+03  0.57704823250E+03  0.17200000000E+03 0.  1.
         -6    1    1    2    0  503 -0.41260748598E+02  0.43976757368E+02  0.43144018409E+03  0.46835994386E+03  0.17200000000E+03 0.  1.
</event>
<event>
 4    1  0.2889985E+000  0.1883953E+03  0.7818608E-02  0.1159917E+00
         21   -1    0    0  501  502  0.00000000000E+00  0.00000000000E+00  0.10424447442E+03  0.10424447442E+03  0.00000000000E+00 0.  1.
         21   -1    0    0  502  503 -0.00000000000E+00 -0.00000000000E+00 -0.39096829892E+03  0.39096829892E+03  0.00000000000E+00 0.  1.
          6    1    1    2  501    0 -0.20534501699E+02  0.74075192454E+02 -0.54380101262E+02  0.19608670355E+03  0.17200000000E+03 0. -1.
         -6    1    1    2    0  503  0.20534501699E+02 -0.74075192454E+02 -0.23234372324E+03  0.29912606978E+03  0.17200000000E+03 0. -1.
</event>
<event>
 4    1  0.2889985E+000  0.1843283E+03  0.7818608E-02  0.1163679E+00
         21   -1    0    0  501  502  0.00000000000E+00  0.00000000000E+00  0.73474087571E+03  0.73474087571E+03  0.00000000000E+00 0. -1.
         21   -1    0    0  502  503 -0.00000000000E+00 -0.00000000000E+00 -0.10748330817E+03  0.10748330817E+03  0.00000000000E+00 0. -1.
          6    1    1    2  501    0  0.60108899840E+02 -0.27925476111E+02  0.63149508258E+03  0.65784720976E+03  0.17200000000E+03 0. -1.
         -6    1    1    2    0  503 -0.60108899840E+02  0.27925476111E+02 -0.42375150445E+01  0.18437697413E+03  0.17200000000E+03 0. -1.
</event>
<event>
 4    1  0.2889985E+000  0.1749874E+03  0.7818608E-02  0.1172744E+00
         21   -1    0    0  503  502  0.00000000000E+00  0.00000000000E+00  0.16271025256E+03  0.16271025256E+03  0.00000000000E+00 0.  1.
         21   -1    0    0  501  503 -0.00000000000E+00 -0.00000000000E+00 -0.33094413841E+03  0.33094413841E+03  0.00000000000E+00 0.  1.
          6    1    1    2  501    0  0.18640164852E+02 -0.26251099416E+02 -0.24622655525E+03  0.30207299197E+03  0.17200000000E+03 0.  1.
         -6    1    1    2    0  502 -0.18640164852E+02  0.26251099416E+02  0.77992669395E+02  0.19158139901E+03  0.17200000000E+03 0.  1.
</event>
<event>
 4    1  0.2889985E+000  0.2137548E+03  0.7818608E-02  0.1138627E+00
         21   -1    0    0  503  502  0.00000000000E+00  0.00000000000E+00  0.13116500977E+04  0.13116500977E+04  0.00000000000E+00 0.  1.
         21   -1    0    0  501  503 -0.00000000000E+00 -0.00000000000E+00 -0.13377292286E+03  0.13377292286E+03  0.00000000000E+00 0.  1.
          6    1    1    2  501    0 -0.96422591447E+02  0.82521536916E+02 -0.32592149081E+02  0.21622527229E+03  0.17200000000E+03 0.  1.
         -6    1    1    2    0  502  0.96422591447E+02 -0.82521536916E+02  0.12104693239E+04  0.12291977483E+04  0.17200000000E+03 0.  1.
</event>
<event>
 4    1  0.2889985E+000  0.1872066E+03  0.7818608E-02  0.1161005E+00
         21   -1    0    0  501  502  0.00000000000E+00  0.00000000000E+00  0.28014500741E+03  0.28014500741E+03  0.00000000000E+00 0.  1.
         21   -1    0    0  502  503 -0.00000000000E+00 -0.00000000000E+00 -0.12663511660E+03  0.12663511660E+03  0.00000000000E+00 0.  1.
          6    1    1    2  501    0 -0.66685275339E+02  0.31865251656E+02  0.99143834197E+02  0.21183913725E+03  0.17200000000E+03 0.  1.
         -6    1    1    2    0  503  0.66685275339E+02 -0.31865251656E+02  0.54366056617E+02  0.19494098677E+03  0.17200000000E+03 0.  1.
</event>
<event>
 4    1  0.2889985E+000  0.3541070E+03  0.7818608E-02  0.1060942E+00
         21   -1    0    0  503  502  0.00000000000E+00  0.00000000000E+00  0.60293050207E+03  0.60293050207E+03  0.00000000000E+00 0.  1.
         21   -1    0    0  501  503 -0.00000000000E+00 -0.00000000000E+00 -0.32867506124E+03  0.32867506124E+03  0.00000000000E+00 0. -1.
          6    1    1    2  501    0 -0.59254043475E+02  0.30380378543E+03  0.41940795619E+03  0.54890328422E+03  0.17200000000E+03 0.  1.
         -6    1    1    2    0  502  0.59254043475E+02 -0.30380378543E+03 -0.14515251536E+03  0.38270227909E+03  0.17200000000E+03 0. -1.
</event>
<event>
 4    1  0.2889985E+000  0.1797339E+03  0.7818608E-02  0.1168061E+00
         21   -1    0    0  501  502  0.00000000000E+00  0.00000000000E+00  0.23197478108E+03  0.23197478108E+03  0.00000000000E+00 0. -1.
         21   -1    0    0  502  503 -0.00000000000E+00 -0.00000000000E+00 -0.14197134765E+03  0.14197134765E+03  0.00000000000E+00 0. -1.
          6    1    1    2  501    0  0.59185703059E+01  0.51819475969E+02  0.70851142809E+02  0.19319464796E+03  0.17200000000E+03 0.  1.
         -6    1    1    2    0  503 -0.59185703059E+01 -0.51819475969E+02  0.19152290614E+02  0.18075148077E+03  0.17200000000E+03 0.  1.
</event>
<event>
 4    1  0.2889985E+000  0.1770742E+03  0.7818608E-02  0.1170665E+00
         21   -1    0    0  503  502  0.00000000000E+00  0.00000000000E+00  0.14409020636E+03  0.14409020636E+03  0.00000000000E+00 0.  1.
         21   -1    0    0  501  503 -0.00000000000E+00 -0.00000000000E+00 -0.34026893070E+03  0.34026893070E+03  0.00000000000E+00 0.  1.
          6    1    1    2  501    0  0.41642696441E+02  0.60950479060E+01 -0.24349407112E+03  0.30107246046E+03  0.17200000000E+03 0.  1.
         -6    1    1    2    0  502 -0.41642696441E+02 -0.60950479060E+01  0.47315346781E+02  0.18328667659E+03  0.17200000000E+03 0.  1.
</event>
<event>
 4    1  0.2889985E+000  0.2054996E+03  0.7818608E-02  0.1145180E+00
         21   -1    0    0  503  502  0.00000000000E+00  0.00000000000E+00  0.58318113848E+03  0.58318113848E+03  0.00000000000E+00 0. -1.
         21   -1    0    0  501  503 -0.00000000000E+00 -0.00000000000E+00 -0.83972833673E+02  0.83972833673E+02  0.00000000000E+00 0.  1.
          6    1    1    2  501    0 -0.35619203608E+01 -0.11239846232E+03  0.37336858034E+03  0.42618563842E+03  0.17200000000E+03 0. -1.
         -6    1    1    2    0  502  0.35619203608E+01  0.11239846232E+03  0.12583972447E+03  0.24096833374E+03  0.17200000000E+03 0.  1.
</event>
<event>
 4    1  0.2889985E+000  0.1825135E+03  0.7818608E-02  0.1165392E+00
         21   -1    0    0  501  502  0.00000000000E+00  0.00000000000E+00  0.15902603891E+03  0.15902603891E+03  0.00000000000E+00 0. -1.
         21   -1    0    0  502  503 -0.00000000000E+00 -0.00000000000E+00 -0.33521840579E+03  0.33521840579E+03  0.00000000000E+00 0. -1.
          6    1    1    2  501    0  0.14163867026E+02  0.59384961600E+02  0.63259616805E+02  0.19316564889E+03  0.17200000000E+03 0.  1.
         -6    1    1    2    0  503 -0.14163867026E+02 -0.59384961600E+02 -0.23945198369E+03  0.30107879581E+03  0.17200000000E+03 0.  1.
</event>
<event>
 4    1  0.2889985E+000  0.1914968E+03  0.7818608E-02  0.1157118E+00
         21   -1    0    0  503  502  0.00000000000E+00  0.00000000000E+00  0.10375446328E+03  0.10375446328E+03  0.00000000000E+00 0.  1.
         21   -1    0    0  501  503 -0.00000000000E+00 -0.00000000000E+00 -0.40446788546E+03  0.40446788546E+03  0.00000000000E+00 0.  1.
          6    1    1    2  501    0  0.28301167890E+02 -0.79284647428E+02 -0.24061438478E+03  0.30751633060E+03  0.17200000000E+03 0.  1.
         -6    1    1    2    0  502 -0.28301167890E+02  0.79284647428E+02 -0.60099037395E+02  0.20070601814E+03  0.17200000000E+03 0.  1.
</event>
<event>
 4    1  0.2889985E+000  0.1901119E+03  0.7818608E-02  0.1158360E+00
         21   -1    0    0  501  502  0.00000000000E+00  0.00000000000E+00  0.19673159402E+03  0.19673159402E+03  0.00000000000E+00 0. -1.
         21   -1    0    0  502  503 -0.00000000000E+00 -0.00000000000E+00 -0.27247050091E+03  0.27247050091E+03  0.00000000000E+00 0. -1.
          6    1    1    2  501    0 -0.15449740939E+02  0.79497365125E+02  0.96026693803E+02  0.21298744442E+03  0.17200000000E+03 0.  1.
         -6    1    1    2    0  503  0.15449740939E+02 -0.79497365125E+02 -0.17176560069E+03  0.25621465051E+03  0.17200000000E+03 0.  1.
</event>
<event>
 4    1  0.2889985E+000  0.1768353E+03  0.7818608E-02  0.1170901E+00
         21   -1    0    0  503  502  0.00000000000E+00  0.00000000000E+00  0.15661947419E+03  0.15661947419E+03  0.00000000000E+00 0.  1.
         21   -1    0    0  501  503 -0.00000000000E+00 -0.00000000000E+00 -0.20092367623E+03  0.20092367623E+03  0.00000000000E+00 0.  1.
          6    1    1    2  501    0 -0.35270194145E+02 -0.21041575866E+02 -0.36326404543E+02  0.18052795400E+03  0.17200000000E+03 0.  1.
         -6    1    1    2    0  502  0.35270194145E+02  0.21041575866E+02 -0.79777975011E+01  0.17701519642E+03  0.17200000000E+03 0.  1.
</event>
<event>
 4    1  0.2889985E+000  0.3456841E+03  0.7818608E-02  0.1064401E+00
         21   -1    0    0  503  502  0.00000000000E+00  0.00000000000E+00  0.83670180094E+03  0.83670180094E+03  0.00000000000E+00 0. -1.
         21   -1    0    0  501  503 -0.00000000000E+00 -0.00000000000E+00 -0.14393531518E+03  0.14393531518E+03  0.00000000000E+00 0. -1.
          6    1    1    2  501    0 -0.29890766336E+03  0.23827236946E+02  0.38954958888E+03  0.52081322048E+03  0.17200000000E+03 0. -1.
         -6    1    1    2    0  502  0.29890766336E+03 -0.23827236946E+02  0.30321689688E+03  0.45982389563E+03  0.17200000000E+03 0. -1.
</event>
<event>
 4    1  0.2889985E+000  0.2227609E+03  0.7818608E-02  0.1131841E+00
         21   -1    0    0  503  502  0.00000000000E+00  0.00000000000E+00  0.94305480041E+02  0.94305480041E+02  0.00000000000E+00 0. -1.
         21   -1    0    0  501  503 -0.00000000000E+00 -0.00000000000E+00 -0.52896752900E+03  0.52896752900E+03  0.00000000000E+00 0. -1.
          6    1    1    2  501    0  0.12105087248E+03 -0.73383162254E+02 -0.23992160849E+03  0.32739086800E+03  0.17200000000E+03 0. -1.
         -6    1    1    2    0  502 -0.12105087248E+03  0.73383162254E+02 -0.19474044047E+03  0.29588214104E+03  0.17200000000E+03 0. -1.
</event>
<event>
 4    1  0.2889985E+000  0.1814471E+03  0.7818608E-02  0.1166410E+00
         21   -1    0    0  501  502  0.00000000000E+00  0.00000000000E+00  0.10988025310E+04  0.10988025310E+04  0.00000000000E+00 0. -1.
         21   -1    0    0  502  503 -0.00000000000E+00 -0.00000000000E+00 -0.56104471497E+02  0.56104471497E+02  0.00000000000E+00 0. -1.
          6    1    1    2  501    0  0.41596422140E+02  0.40109824168E+02  0.91552125307E+03  0.93332857299E+03  0.17200000000E+03 0. -1.
         -6    1    1    2    0  503 -0.41596422140E+02 -0.40109824168E+02  0.12717680643E+03  0.22157842951E+03  0.17200000000E+03 0. -1.
</event>
<event>
 4    1  0.2889985E+000  0.2014955E+03  0.7818608E-02  0.1148483E+00
         21   -1    0    0  503  502  0.00000000000E+00  0.00000000000E+00  0.46594884124E+03  0.46594884124E+03  0.00000000000E+00 0. -1.
         21   -1    0    0  501  503 -0.00000000000E+00 -0.00000000000E+00 -0.13475122542E+03  0.13475122542E+03  0.00000000000E+00 0. -1.
          6    1    1    2  501    0 -0.82913993174E+02 -0.64356233673E+02 -0.12942527267E+02  0.20191078250E+03  0.17200000000E+03 0. -1.
         -6    1    1    2    0  502  0.82913993174E+02  0.64356233673E+02  0.34414014309E+03  0.39878928416E+03  0.17200000000E+03 0. -1.
</event>
<event>
 4    1  0.2889985E+000  0.1761446E+03  0.7818608E-02  0.1171587E+00
         21   -1    0    0  503  502  0.00000000000E+00  0.00000000000E+00  0.52400726301E+02  0.52400726301E+02  0.00000000000E+00 0. -1.
         21   -1    0    0  501  503 -0.00000000000E+00 -0.00000000000E+00 -0.10308009839E+04  0.10308009839E+04  0.00000000000E+00 0.  1.
          6    1    1    2  501    0  0.11266397958E+02 -0.36276597546E+02 -0.13587709381E+03  0.22246237407E+03  0.17200000000E+03 0. -1.
         -6    1    1    2    0  502 -0.11266397958E+02  0.36276597546E+02 -0.84252316383E+03  0.86073933618E+03  0.17200000000E+03 0.  1.
</event>
<event>
 4    1  0.2889985E+000  0.1856929E+03  0.7818608E-02  0.1162404E+00
         21   -1    0    0  503  502  0.00000000000E+00  0.00000000000E+00  0.17398663611E+03  0.17398663611E+03  0.00000000000E+00 0.  1.
         21   -1    0    0  501  503 -0.00000000000E+00 -0.00000000000E+00 -0.29847193312E+03  0.29847193312E+03  0.00000000000E+00 0.  1.
          6    1    1    2  501    0 -0.65521038778E+02  0.24593790027E+02 -0.19917314531E+03  0.27230828641E+03  0.17200000000E+03 0.  1.
         -6    1    1    2    0  502  0.65521038778E+02 -0.24593790027E+02  0.74687848300E+02  0.20015028282E+03  0.17200000000E+03 0.  1.
</event>
<event>
 4    1  0.2889985E+000  0.1734052E+03  0.7818608E-02  0.1174343E+00
         21   -1    0    0  503  502  0.00000000000E+00  0.00000000000E+00  0.30179924322E+03  0.30179924322E+03  0.00000000000E+00 0. -1.
         21   -1    0    0  501  503 -0.00000000000E+00 -0.00000000000E+00 -0.53173024886E+03  0.53173024886E+03  0.00000000000E+00 0. -1.
          6    1    1    2  501    0 -0.16327290460E+02 -0.14791240043E+02 -0.49066076111E+03  0.52040113728E+03  0.17200000000E+03 0. -1.
         -6    1    1    2    0  502  0.16327290460E+02  0.14791240043E+02  0.26072975546E+03  0.31312835480E+03  0.17200000000E+03 0. -1.
</event>
<event>
 4    1  0.2889985E+000  0.2467794E+03  0.7818608E-02  0.1115357E+00
         21   -1    0    0  503  502  0.00000000000E+00  0.00000000000E+00  0.43058622711E+03  0.43058622711E+03  0.00000000000E+00 0. -1.
         21   -1    0    0  501  503 -0.00000000000E+00 -0.00000000000E+00 -0.50751678279E+03  0.50751678279E+03  0.00000000000E+00 0. -1.
          6    1    1    2  501    0 -0.97104784959E+02 -0.14794157627E+03 -0.43683311680E+03  0.50172026189E+03  0.17200000000E+03 0. -1.
         -6    1    1    2    0  502  0.97104784959E+02  0.14794157627E+03  0.35990256112E+03  0.43638274800E+03  0.17200000000E+03 0. -1.
</event>
<event>
 4    1  0.2889985E+000  0.2049247E+03  0.7818608E-02  0.1145649E+00
         21   -1    0    0  503  502  0.00000000000E+00  0.00000000000E+00  0.51074633714E+02  0.51074633714E+02  0.00000000000E+00 0. -1.
         21   -1    0    0  501  503 -0.00000000000E+00 -0.00000000000E+00 -0.82348740323E+03  0.82348740323E+03  0.00000000000E+00 0. -1.
          6    1    1    2  501    0 -0.70245317813E+02  0.86462377973E+02 -0.40341925933E+03  0.45248342100E+03  0.17200000000E+03 0. -1.
         -6    1    1    2    0  502  0.70245317813E+02 -0.86462377973E+02 -0.36899351019E+03  0.42207861595E+03  0.17200000000E+03 0. -1.
</event>
<event>
 4    1  0.2889985E+000  0.1869720E+03  0.7818608E-02  0.1161221E+00
         21   -1    0    0  501  502  0.00000000000E+00  0.00000000000E+00  0.54734926821E+03  0.54734926821E+03  0.00000000000E+00 0.  1.
         21   -1    0    0  502  503 -0.00000000000E+00 -0.00000000000E+00 -0.74098222965E+02  0.74098222965E+02  0.00000000000E+00 0.  1.
          6    1    1    2  501    0 -0.60099153078E+02 -0.41983363615E+02  0.35207641004E+03  0.39864308539E+03  0.17200000000E+03 0.  1.
         -6    1    1    2    0  503  0.60099153078E+02  0.41983363615E+02  0.12117463521E+03  0.22280440579E+03  0.17200000000E+03 0.  1.
</event>
<event>
 4    1  0.2889985E+000  0.2053574E+03  0.7818608E-02  0.1145296E+00
         21   -1    0    0  501  502  0.00000000000E+00  0.00000000000E+00  0.50349498380E+03  0.50349498380E+03  0.00000000000E+00 0.  1.
         21   -1    0    0  502  503 -0.00000000000E+00 -0.00000000000E+00 -0.93775956063E+02  0.93775956063E+02  0.00000000000E+00 0.  1.
          6    1    1    2  501    0  0.20222167139E+02  0.11035729544E+03  0.30246808648E+03  0.36559350656E+03  0.17200000000E+03 0. -1.
         -6    1    1    2    0  503 -0.20222167139E+02 -0.11035729544E+03  0.10725094126E+03  0.23167743330E+03  0.17200000000E+03 0. -1.
</event>
<event>
 4    1  0.2889985E+000  0.1876014E+03  0.7818608E-02  0.1160643E+00
         21   -1    0    0  501  502  0.00000000000E+00  0.00000000000E+00  0.58596852069E+02  0.58596852069E+02  0.00000000000E+00 0.  1.
         21   -1    0    0  502  503 -0.00000000000E+00 -0.00000000000E+00 -0.81680138266E+03  0.81680138266E+03  0.00000000000E+00 0.  1.
          6    1    1    2  501    0  0.27209553594E+02 -0.69784743597E+02 -0.15392242030E+03  0.24266516379E+03  0.17200000000E+03 0.  1.
         -6    1    1    2    0  503 -0.27209553594E+02  0.69784743597E+02 -0.60428211029E+03  0.63273307094E+03  0.17200000000E+03 0.  1.
</event>
<event>
 4    1  0.2889985E+000  0.1802746E+03  0.7818608E-02  0.1167538E+00
         21   -1    0    0  501  502  0.00000000000E+00  0.00000000000E+00  0.10543101459E+03  0.10543101459E+03  0.00000000000E+00 0. -1.
         21   -1    0    0  502  503 -0.00000000000E+00 -0.00000000000E+00 -0.36042484347E+03  0.36042484347E+03  0.00000000000E+00 0.  1.
          6    1    1    2  501    0 -0.53602456726E+02  0.64569828467E+01 -0.21612113968E+03  0.28143784929E+03  0.17200000000E+03 0.  1.
         -6    1    1    2    0  503  0.53602456726E+02 -0.64569828467E+01 -0.38872689192E+02  0.18441800877E+03  0.17200000000E+03 0. -1.
</event>
<event>
 4    1  0.2889985E+000  0.1902559E+03  0.7818608E-02  0.1158231E+00
         21   -1    0    0  503  502  0.00000000000E+00  0.00000000000E+00  0.51262948751E+03  0.51262948751E+03  0.00000000000E+00 0.  1.
         21   -1    0    0  501  503 -0.00000000000E+00 -0.00000000000E+00 -0.73020159929E+02  0.73020159929E+02  0.00000000000E+00 0.  1.
          6    1    1    2  501    0  0.61169522714E+02 -0.53587390084E+02  0.27299253513E+03  0.33274952009E+03  0.17200000000E+03 0. -1.
         -6    1    1    2    0  502 -0.61169522714E+02  0.53587390084E+02  0.16661679245E+03  0.25290012734E+03  0.17200000000E+03 0. -1.
</event>
<event>
 4    1  0.2889985E+000  0.1726637E+03  0.7818608E-02  0.1175098E+00
         21   -1    0    0  503  502  0.00000000000E+00  0.00000000000E+00  0.49515951098E+03  0.49515951098E+03  0.00000000000E+00 0.  1.
         21   -1    0    0  501  503 -0.00000000000E+00 -0.00000000000E+00 -0.12000477872E+03  0.12000477872E+03  0.00000000000E+00 0.  1.
          6    1    1    2  501    0 -0.14389197614E+02  0.46602095113E+01 -0.29542348033E+02  0.17517282006E+03  0.17200000000E+03 0.  1.
         -6    1    1    2    0  502  0.14389197614E+02 -0.46602095113E+01  0.40469708029E+03  0.43999146964E+03  0.17200000000E+03 0.  1.
</event>
<event>
 4    1  0.2889985E+000  0.2129088E+03  0.7818608E-02  0.1139283E+00
         21   -1    0    0  501  502  0.00000000000E+00  0.00000000000E+00  0.81612750642E+02  0.81612750642E+02  0.00000000000E+00 0.  1.
         21   -1    0    0  502  503 -0.00000000000E+00 -0.00000000000E+00 -0.57297028648E+03  0.57297028648E+03  0.00000000000E+00 0.  1.
          6    1    1    2  501    0 -0.34587727258E+02 -0.12062276030E+03 -0.30294365300E+03  0.37027694780E+03  0.17200000000E+03 0.  1.
         -6    1    1    2    0  503  0.34587727258E+02  0.12062276030E+03 -0.18841388283E+03  0.28430608932E+03  0.17200000000E+03 0.  1.
</event>
<event>
 4    1  0.2889985E+000  0.2207854E+03  0.7818608E-02  0.1133299E+00
         21   -1    0    0  501  502  0.00000000000E+00  0.00000000000E+00  0.20573858448E+03  0.20573858448E+03  0.00000000000E+00 0. -1.
         21   -1    0    0  502  503 -0.00000000000E+00 -0.00000000000E+00 -0.54626809816E+03  0.54626809816E+03  0.00000000000E+00 0.  1.
          6    1    1    2  501    0 -0.19079868290E+02 -0.13710641294E+03  0.11268124129E+03  0.24787753424E+03  0.17200000000E+03 0. -1.
         -6    1    1    2    0  503  0.19079868290E+02  0.13710641294E+03 -0.45321075497E+03  0.50412914840E+03  0.17200000000E+03 0.  1.
</event>
<event>
 4    1  0.2889985E+000  0.2415839E+03  0.7818608E-02  0.1118742E+00
         21   -1    0    0  503  502  0.00000000000E+00  0.00000000000E+00  0.18305232253E+03  0.18305232253E+03  0.00000000000E+00 0.  1.
         21   -1    0    0  501  503 -0.00000000000E+00 -0.00000000000E+00 -0.32134415772E+03  0.32134415772E+03  0.00000000000E+00 0. -1.
          6    1    1    2  501    0 -0.68104366062E+02 -0.15537231316E+03 -0.91448964895E+02  0.25831313082E+03  0.17200000000E+03 0. -1.
         -6    1    1    2    0  502  0.68104366062E+02  0.15537231316E+03 -0.46842870288E+02  0.24608334943E+03  0.17200000000E+03 0.  1.
</event>
<event>
 4    1  0.2889985E+000  0.1763296E+03  0.7818608E-02  0.1171403E+00
         21   -1    0    0  503  502  0.00000000000E+00  0.00000000000E+00  0.13397387118E+03  0.13397387118E+03  0.00000000000E+00 0.  1.
         21   -1    0    0  501  503 -0.00000000000E+00 -0.00000000000E+00 -0.66777382913E+03  0.66777382913E+03  0.00000000000E+00 0.  1.
          6    1    1    2  501    0  0.10387024336E+02  0.37419531700E+02 -0.59070662602E+03  0.61646283720E+03  0.17200000000E+03 0.  1.
         -6    1    1    2    0  502 -0.10387024336E+02 -0.37419531700E+02  0.56906668075E+02  0.18528486311E+03  0.17200000000E+03 0.  1.
</event>
<event>
 4    1  0.2889985E+000  0.2669368E+03  0.7818608E-02  0.1103046E+00
         21   -1    0    0  503  502  0.00000000000E+00  0.00000000000E+00  0.15924004308E+03  0.15924004308E+03  0.00000000000E+00 0. -1.
         21   -1    0    0  501  503 -0.00000000000E+00 -0.00000000000E+00 -0.44762766154E+03  0.44762766154E+03  0.00000000000E+00 0.  1.
          6    1    1    2  501    0  0.13911141988E+03 -0.14939636456E+03 -0.14987498769E+03  0.30613358656E+03  0.17200000000E+03 0.  1.
         -6    1    1    2    0  502 -0.13911141988E+03  0.14939636456E+03 -0.13851263077E+03  0.30073411806E+03  0.17200000000E+03 0. -1.
</event>
<event>
 4    1  0.2889985E+000  0.1730194E+03  0.7818608E-02  0.1174735E+00
         21   -1    0    0  501  502  0.00000000000E+00  0.00000000000E+00  0.13143050687E+03  0.13143050687E+03  0.00000000000E+00 0. -1.
         21   -1    0    0  502  503 -0.00000000000E+00 -0.00000000000E+00 -0.35109183938E+03  0.35109183938E+03  0.00000000000E+00 0. -1.
          6    1    1    2  501    0 -0.41962277723E+01  0.18278253386E+02  0.33157488354E+02  0.17616787990E+03  0.17200000000E+03 0. -1.
         -6    1    1    2    0  503  0.41962277723E+01 -0.18278253386E+02 -0.25281882085E+03  0.30635446635E+03  0.17200000000E+03 0. -1.
</event>
<event>
 4    1  0.2889985E+000  0.1827235E+03  0.7818608E-02  0.1165193E+00
         21   -1    0    0  503  502  0.00000000000E+00  0.00000000000E+00  0.72427467642E+02  0.72427467642E+02  0.00000000000E+00 0. -1.
         21   -1    0    0  501  503 -0.00000000000E+00 -0.00000000000E+00 -0.46802629665E+03  0.46802629665E+03  0.00000000000E+00 0. -1.
          6    1    1    2  501    0  0.52146277696E+02  0.32933673996E+02 -0.23094828301E+03  0.29449103651E+03  0.17200000000E+03 0. -1.
         -6    1    1    2    0  502 -0.52146277696E+02 -0.32933673996E+02 -0.16465054600E+03  0.24596272778E+03  0.17200000000E+03 0. -1.
</event>
<event>
 4    1  0.2889985E+000  0.3036218E+03  0.7818608E-02  0.1083444E+00
         21   -1    0    0  501  502  0.00000000000E+00  0.00000000000E+00  0.11876815429E+04  0.11876815429E+04  0.00000000000E+00 0.  1.
         21   -1    0    0  502  503 -0.00000000000E+00 -0.00000000000E+00 -0.77875591334E+02  0.77875591334E+02  0.00000000000E+00 0.  1.
          6    1    1    2  501    0  0.11691274543E+02  0.24993103474E+03  0.59125171821E+03  0.66465389664E+03  0.17200000000E+03 0.  1.
         -6    1    1    2    0  503 -0.11691274543E+02 -0.24993103474E+03  0.51855423339E+03  0.60090323763E+03  0.17200000000E+03 0.  1.
</event>
<event>
 4    1  0.2889985E+000  0.1893199E+03  0.7818608E-02  0.1159076E+00
         21   -1    0    0  501  502  0.00000000000E+00  0.00000000000E+00  0.11572972845E+03  0.11572972845E+03  0.00000000000E+00 0.  1.
         21   -1    0    0  502  503 -0.00000000000E+00 -0.00000000000E+00 -0.42683056327E+03  0.42683056327E+03  0.00000000000E+00 0.  1.
          6    1    1    2  501    0 -0.78864474055E+02  0.61985987856E+01 -0.29765787352E+03  0.35276371350E+03  0.17200000000E+03 0.  1.
         -6    1    1    2    0  503  0.78864474055E+02 -0.61985987856E+01 -0.13442961299E+02  0.18979657822E+03  0.17200000000E+03 0.  1.
</event>
<event>
 4    1  0.2889985E+000  0.2229894E+03  0.7818608E-02  0.1131674E+00
         21   -1    0    0  501  502  0.00000000000E+00  0.00000000000E+00  0.34445614065E+03  0.34445614065E+03  0.00000000000E+00 0. -1.
         21   -1    0    0  502  503 -0.00000000000E+00 -0.00000000000E+00 -0.18688926511E+03  0.18688926511E+03  0.00000000000E+00 0. -1.
          6    1    1    2  501    0 -0.11819127215E+03  0.78556309995E+02 -0.47958315381E+02  0.22808829577E+03  0.17200000000E+03 0. -1.
         -6    1    1    2    0  503  0.11819127215E+03 -0.78556309995E+02  0.20552519092E+03  0.30325710999E+03  0.17200000000E+03 0. -1.
</event>
<event>
 4    1  0.2889985E+000  0.2169190E+03  0.7818608E-02  0.1136201E+00
         21   -1    0    0  501  502  0.00000000000E+00  0.00000000000E+00  0.84460223855E+03  0.84460223855E+03  0.00000000000E+00 0. -1.
         21   -1    0    0  502  503 -0.00000000000E+00 -0.00000000000E+00 -0.67101401298E+02  0.67101401298E+02  0.00000000000E+00 0. -1.
          6    1    1    2  501    0  0.40830586059E+02  0.12570886798E+03  0.57656202346E+03  0.61601755100E+03  0.17200000000E+03 0. -1.
         -6    1    1    2    0  503 -0.40830586059E+02 -0.12570886798E+03  0.20093881379E+03  0.29568608885E+03  0.17200000000E+03 0. -1.
</event>
<event>
 4    1  0.2889985E+000  0.2335587E+03  0.7818608E-02  0.1124160E+00
         21   -1    0    0  503  502  0.00000000000E+00  0.00000000000E+00  0.74818783983E+02  0.74818783983E+02  0.00000000000E+00 0. -1.
         21   -1    0    0  501  503 -0.00000000000E+00 -0.00000000000E+00 -0.85838735104E+03  0.85838735104E+03  0.00000000000E+00 0. -1.
          6    1    1    2  501    0 -0.11402218844E+03 -0.10938286702E+03 -0.21069207529E+03  0.31454859981E+03  0.17200000000E+03 0. -1.
         -6    1    1    2    0  502  0.11402218844E+03  0.10938286702E+03 -0.57287649178E+03  0.61865753522E+03  0.17200000000E+03 0. -1.
</event>
<event>
 4    1  0.2889985E+000  0.1733469E+03  0.7818608E-02  0.1174402E+00
         21   -1    0    0  503  502  0.00000000000E+00  0.00000000000E+00  0.26495667199E+03  0.26495667199E+03  0.00000000000E+00 0.  1.
         21   -1    0    0  501  503 -0.00000000000E+00 -0.00000000000E+00 -0.12420372812E+03  0.12420372812E+03  0.00000000000E+00 0.  1.
          6    1    1    2  501    0 -0.21290509222E+02  0.34418179111E+01  0.13019394021E+02  0.17383508424E+03  0.17200000000E+03 0.  1.
         -6    1    1    2    0  502  0.21290509222E+02 -0.34418179111E+01  0.12773354985E+03  0.21532531586E+03  0.17200000000E+03 0.  1.
</event>
<event>
 4    1  0.2889985E+000  0.1871274E+03  0.7818608E-02  0.1161078E+00
         21   -1    0    0  503  502  0.00000000000E+00  0.00000000000E+00  0.10422891165E+04  0.10422891165E+04  0.00000000000E+00 0.  1.
         21   -1    0    0  501  503 -0.00000000000E+00 -0.00000000000E+00 -0.44827514641E+02  0.44827514641E+02  0.00000000000E+00 0.  1.
          6    1    1    2  501    0 -0.36759059017E+02 -0.63885992162E+02  0.22665195805E+03  0.29391794519E+03  0.17200000000E+03 0.  1.
         -6    1    1    2    0  502  0.36759059017E+02  0.63885992162E+02  0.77080964381E+03  0.79319868596E+03  0.17200000000E+03 0.  1.
</event>
<event>
 4    1  0.2889985E+000  0.1969019E+03  0.7818608E-02  0.1152380E+00
         21   -1    0    0  501  502  0.00000000000E+00  0.00000000000E+00  0.51557365629E+03  0.51557365629E+03  0.00000000000E+00 0. -1.
         21   -1    0    0  502  503 -0.00000000000E+00 -0.00000000000E+00 -0.10795014350E+03  0.10795014350E+03  0.00000000000E+00 0. -1.
          6    1    1    2  501    0 -0.76902250301E+02  0.57204882584E+02  0.37553461785E+03  0.42402429635E+03  0.17200000000E+03 0. -1.
         -6    1    1    2    0  503  0.76902250301E+02 -0.57204882584E+02  0.32088894934E+02  0.19949950344E+03  0.17200000000E+03 0. -1.
</event>
<event>
 4    1  0.2889985E+000  0.2176959E+03  0.7818608E-02  0.1135613E+00
         21   -1    0    0  503  502  0.00000000000E+00  0.00000000000E+00  0.11011797242E+04  0.11011797242E+04  0.00000000000E+00 0.  1.
         21   -1    0    0  501  503 -0.00000000000E+00 -0.00000000000E+00 -0.19864917444E+03  0.19864917444E+03  0.00000000000E+00 0.  1.
          6    1    1    2  501    0  0.18463711636E+02  0.13216120395E+03 -0.12395550926E+03  0.25051239641E+03  0.17200000000E+03 0.  1.
         -6    1    1    2    0  502 -0.18463711636E+02 -0.13216120395E+03  0.10264860591E+04  0.10493165023E+04  0.17200000000E+03 0.  1.
</event>
<event>
 4    1  0.2889985E+000  0.1986284E+03  0.7818608E-02  0.1150901E+00
         21   -1    0    0  503  502  0.00000000000E+00  0.00000000000E+00  0.85047603505E+03  0.85047603505E+03  0.00000000000E+00 0.  1.
         21   -1    0    0  501  503 -0.00000000000E+00 -0.00000000000E+00 -0.50778824745E+02  0.50778824745E+02  0.00000000000E+00 0. -1.
          6    1    1    2  501    0  0.68064313484E+02  0.72363723138E+02  0.26736282330E+03  0.33307077098E+03  0.17200000000E+03 0. -1.
         -6    1    1    2    0  502 -0.68064313484E+02 -0.72363723138E+02  0.53233438700E+03  0.56818408881E+03  0.17200000000E+03 0.  1.
</event>
<event>
 4    1  0.2889985E+000  0.2174515E+03  0.7818608E-02  0.1135797E+00
         21   -1    0    0  501  502  0.00000000000E+00  0.00000000000E+00  0.93204101584E+03  0.93204101584E+03  0.00000000000E+00 0.  1.
         21   -1    0    0  502  503 -0.00000000000E+00 -0.00000000000E+00 -0.51142911861E+02  0.51142911861E+02  0.00000000000E+00 0. -1.
          6    1    1    2  501    0  0.12725419673E+03 -0.38827085598E+02  0.39643478322E+03  0.45215673224E+03  0.17200000000E+03 0. -1.
         -6    1    1    2    0  503 -0.12725419673E+03  0.38827085598E+02  0.48446332076E+03  0.53102719547E+03  0.17200000000E+03 0. -1.
</event>
<event>
 4    1  0.2889985E+000  0.1764387E+03  0.7818608E-02  0.1171295E+00
         21   -1    0    0  501  502  0.00000000000E+00  0.00000000000E+00  0.84646328758E+03  0.84646328758E+03  0.00000000000E+00 0. -1.
         21   -1    0    0  502  503 -0.00000000000E+00 -0.00000000000E+00 -0.44711691855E+02  0.44711691855E+02  0.00000000000E+00 0. -1.
          6    1    1    2  501    0  0.39125560131E+02  0.39740379243E+01  0.21316887547E+03  0.27671568785E+03  0.17200000000E+03 0. -1.
         -6    1    1    2    0  503 -0.39125560131E+02 -0.39740379243E+01  0.58858272025E+03  0.61445929158E+03  0.17200000000E+03 0. -1.
</event>
<event>
 4    1  0.2889985E+000  0.1986388E+03  0.7818608E-02  0.1150893E+00
         21   -1    0    0  503  502  0.00000000000E+00  0.00000000000E+00  0.12037028665E+04  0.12037028665E+04  0.00000000000E+00 0.  1.
         21   -1    0    0  501  503 -0.00000000000E+00 -0.00000000000E+00 -0.32981684893E+02  0.32981684893E+02  0.00000000000E+00 0.  1.
          6    1    1    2  501    0 -0.78418894160E+02 -0.61023387338E+02  0.53700662833E+03  0.57256745946E+03  0.17200000000E+03 0.  1.
         -6    1    1    2    0  502  0.78418894160E+02  0.61023387338E+02  0.63371455333E+03  0.66411709198E+03  0.17200000000E+03 0.  1.
</event>
<event>
 4    1  0.2889985E+000  0.2769037E+03  0.7818608E-02  0.1097392E+00
         21   -1    0    0  503  502  0.00000000000E+00  0.00000000000E+00  0.72739881557E+03  0.72739881557E+03  0.00000000000E+00 0.  1.
         21   -1    0    0  501  503 -0.00000000000E+00 -0.00000000000E+00 -0.36696652500E+03  0.36696652500E+03  0.00000000000E+00 0. -1.
          6    1    1    2  501    0 -0.21700090738E+03  0.15028027230E+01 -0.28174055371E+03  0.39503593739E+03  0.17200000000E+03 0. -1.
         -6    1    1    2    0  502  0.21700090738E+03 -0.15028027230E+01  0.64217284429E+03  0.69932940319E+03  0.17200000000E+03 0.  1.
</event>
<event>
 4    1  0.2889985E+000  0.2137115E+03  0.7818608E-02  0.1138660E+00
         21   -1    0    0  501  502  0.00000000000E+00  0.00000000000E+00  0.59543376088E+03  0.59543376088E+03  0.00000000000E+00 0.  1.
         21   -1    0    0  502  503 -0.00000000000E+00 -0.00000000000E+00 -0.79448172803E+02  0.79448172803E+02  0.00000000000E+00 0.  1.
          6    1    1    2  501    0 -0.11399540374E+03 -0.55620438541E+02  0.32069804139E+03  0.38538269163E+03  0.17200000000E+03 0.  1.
         -6    1    1    2    0  503  0.11399540374E+03  0.55620438541E+02  0.19528754669E+03  0.28949924205E+03  0.17200000000E+03 0.  1.
</event>
<event>
 4    1  0.2889985E+000  0.2345405E+03  0.7818608E-02  0.1123484E+00
         21   -1    0    0  503  502  0.00000000000E+00  0.00000000000E+00  0.36915968463E+03  0.36915968463E+03  0.00000000000E+00 0. -1.
         21   -1    0    0  501  503 -0.00000000000E+00 -0.00000000000E+00 -0.27019892975E+03  0.27019892975E+03  0.00000000000E+00 0.  1.
          6    1    1    2  501    0  0.88123584546E+02  0.13288895876E+03 -0.16461165955E+03  0.28654186426E+03  0.17200000000E+03 0.  1.
         -6    1    1    2    0  502 -0.88123584546E+02 -0.13288895876E+03  0.26357241443E+03  0.35281675011E+03  0.17200000000E+03 0. -1.
</event>
<event>
 4    1  0.2889985E+000  0.1993225E+03  0.7818608E-02  0.1150312E+00
         21   -1    0    0  501  502  0.00000000000E+00  0.00000000000E+00  0.26373722455E+02  0.26373722455E+02  0.00000000000E+00 0. -1.
         21   -1    0    0  502  503 -0.00000000000E+00 -0.00000000000E+00 -0.15525316901E+04  0.15525316901E+04  0.00000000000E+00 0.  1.
          6    1    1    2  501    0 -0.49215599588E+02  0.87882200529E+02 -0.62699997934E+03  0.65791977513E+03  0.17200000000E+03 0. -1.
         -6    1    1    2    0  503  0.49215599588E+02 -0.87882200529E+02 -0.89915798828E+03  0.92098563740E+03  0.17200000000E+03 0.  1.
</event>
<event>
 4    1  0.2889985E+000  0.2270921E+03  0.7818608E-02  0.1128703E+00
         21   -1    0    0  503  502  0.00000000000E+00  0.00000000000E+00  0.43787904433E+03  0.43787904433E+03  0.00000000000E+00 0.  1.
         21   -1    0    0  501  503 -0.00000000000E+00 -0.00000000000E+00 -0.14900070577E+03  0.14900070577E+03  0.00000000000E+00 0.  1.
          6    1    1    2  501    0 -0.83495046630E+02 -0.12253732407E+03  0.10104773732E+02  0.22731679449E+03  0.17200000000E+03 0.  1.
         -6    1    1    2    0  502  0.83495046630E+02  0.12253732407E+03  0.27877356483E+03  0.35956295562E+03  0.17200000000E+03 0.  1.
</event>
<event>
 4    1  0.2889985E+000  0.2774119E+03  0.7818608E-02  0.1097111E+00
         21   -1    0    0  503  502  0.00000000000E+00  0.00000000000E+00  0.87171885880E+03  0.87171885880E+03  0.00000000000E+00 0. -1.
         21   -1    0    0  501  503 -0.00000000000E+00 -0.00000000000E+00 -0.21847250428E+03  0.21847250428E+03  0.00000000000E+00 0. -1.
          6    1    1    2  501    0  0.74037945483E+02 -0.20467477321E+03 -0.94164910228E+02  0.29295803535E+03  0.17200000000E+03 0. -1.
         -6    1    1    2    0  502 -0.74037945483E+02  0.20467477321E+03  0.74741126476E+03  0.79723332773E+03  0.17200000000E+03 0. -1.
</event>
<event>
 4    1  0.2889985E+000  0.2793537E+03  0.7818608E-02  0.1096042E+00
         21   -1    0    0  501  502  0.00000000000E+00  0.00000000000E+00  0.16260335342E+03  0.16260335342E+03  0.00000000000E+00 0. -1.
         21   -1    0    0  502  503 -0.00000000000E+00 -0.00000000000E+00 -0.54994068207E+03  0.54994068207E+03  0.00000000000E+00 0.  1.
          6    1    1    2  501    0  0.22011724641E+03 -0.17022548198E+01 -0.66552509537E+02  0.28717196305E+03  0.17200000000E+03 0. -1.
         -6    1    1    2    0  503 -0.22011724641E+03  0.17022548198E+01 -0.32078481911E+03  0.42537207244E+03  0.17200000000E+03 0.  1.
</event>
<event>
 4    1  0.2889985E+000  0.2278319E+03  0.7818608E-02  0.1128175E+00
         21   -1    0    0  501  502  0.00000000000E+00  0.00000000000E+00  0.25816026139E+03  0.25816026139E+03  0.00000000000E+00 0.  1.
         21   -1    0    0  502  503 -0.00000000000E+00 -0.00000000000E+00 -0.20190791083E+03  0.20190791083E+03  0.00000000000E+00 0.  1.
          6    1    1    2  501    0 -0.14910958697E+03 -0.94713039337E+01  0.13276216581E+02  0.22821838762E+03  0.17200000000E+03 0.  1.
         -6    1    1    2    0  503  0.14910958697E+03  0.94713039337E+01  0.42976133982E+02  0.23184978459E+03  0.17200000000E+03 0.  1.
</event>
<event>
 4    1  0.2889985E+000  0.1815343E+03  0.7818608E-02  0.1166326E+00
         21   -1    0    0  503  502  0.00000000000E+00  0.00000000000E+00  0.80636808183E+03  0.80636808183E+03  0.00000000000E+00 0.  1.
         21   -1    0    0  501  503 -0.00000000000E+00 -0.00000000000E+00 -0.40946460621E+02  0.40946460621E+02  0.00000000000E+00 0.  1.
          6    1    1    2  501    0 -0.52832040679E+02  0.24072496581E+02  0.36417420163E+03  0.40691222487E+03  0.17200000000E+03 0.  1.
         -6    1    1    2    0  502  0.52832040679E+02 -0.24072496581E+02  0.40124741958E+03  0.44040231759E+03  0.17200000000E+03 0.  1.
</event>
<event>
 4    1  0.2889985E+000  0.2061888E+03  0.7818608E-02  0.1144620E+00
         21   -1    0    0  503  502  0.00000000000E+00  0.00000000000E+00  0.44871683429E+02  0.44871683429E+02  0.00000000000E+00 0.  1.
         21   -1    0    0  501  503 -0.00000000000E+00 -0.00000000000E+00 -0.13860091686E+04  0.13860091686E+04  0.00000000000E+00 0.  1.
          6    1    1    2  501    0 -0.11003718180E+03 -0.28664425167E+02 -0.10730102998E+04  0.10926412651E+04  0.17200000000E+03 0.  1.
         -6    1    1    2    0  502  0.11003718180E+03  0.28664425167E+02 -0.26812718534E+03  0.33823958693E+03  0.17200000000E+03 0.  1.
</event>
<event>
 4    1  0.2889985E+000  0.1825859E+03  0.7818608E-02  0.1165324E+00
         21   -1    0    0  503  502  0.00000000000E+00  0.00000000000E+00  0.73809370064E+02  0.73809370064E+02  0.00000000000E+00 0.  1.
         21   -1    0    0  501  503 -0.00000000000E+00 -0.00000000000E+00 -0.53046010753E+03  0.53046010753E+03  0.00000000000E+00 0.  1.
          6    1    1    2  501    0  0.53760207020E+02 -0.29384571719E+02 -0.11188458675E+03  0.21413961256E+03  0.17200000000E+03 0.  1.
         -6    1    1    2    0  502 -0.53760207020E+02  0.29384571719E+02 -0.34476615072E+03  0.39012986504E+03  0.17200000000E+03 0.  1.
</event>
<event>
 4    1  0.2889985E+000  0.2088290E+03  0.7818608E-02  0.1142497E+00
         21   -1    0    0  501  502  0.00000000000E+00  0.00000000000E+00  0.90215406401E+02  0.90215406401E+02  0.00000000000E+00 0. -1.
         21   -1    0    0  502  503 -0.00000000000E+00 -0.00000000000E+00 -0.11913269536E+04  0.11913269536E+04  0.00000000000E+00 0. -1.
          6    1    1    2  501    0  0.14637757121E+02 -0.11752135319E+03 -0.56604927616E+02  0.21636462331E+03  0.17200000000E+03 0. -1.
         -6    1    1    2    0  503 -0.14637757121E+02  0.11752135319E+03 -0.10445066196E+04  0.10651777367E+04  0.17200000000E+03 0. -1.
</event>
<event>
 4    1  0.2889985E+000  0.1955576E+03  0.7818608E-02  0.1153542E+00
         21   -1    0    0  501  502  0.00000000000E+00  0.00000000000E+00  0.13158374013E+04  0.13158374013E+04  0.00000000000E+00 0. -1.
         21   -1    0    0  502  503 -0.00000000000E+00 -0.00000000000E+00 -0.29232410283E+02  0.29232410283E+02  0.00000000000E+00 0. -1.
          6    1    1    2  501    0 -0.50975639031E+02  0.77847643540E+02  0.69443274357E+03  0.72144272588E+03  0.17200000000E+03 0. -1.
         -6    1    1    2    0  503  0.50975639031E+02 -0.77847643540E+02  0.59217224744E+03  0.62362708570E+03  0.17200000000E+03 0. -1.
</event>
<event>
 4    1  0.2889985E+000  0.2437772E+03  0.7818608E-02  0.1117302E+00
         21   -1    0    0  503  502  0.00000000000E+00  0.00000000000E+00  0.21380433042E+03  0.21380433042E+03  0.00000000000E+00 0.  1.
         21   -1    0    0  501  503 -0.00000000000E+00 -0.00000000000E+00 -0.45288417542E+03  0.45288417542E+03  0.00000000000E+00 0. -1.
          6    1    1    2  501    0 -0.88486469176E+02 -0.14836930569E+03 -0.32671354104E+03  0.40763837405E+03  0.17200000000E+03 0. -1.
         -6    1    1    2    0  502  0.88486469176E+02  0.14836930569E+03  0.87633696043E+02  0.25905013179E+03  0.17200000000E+03 0.  1.
</event>
<event>
 4    1  0.2889985E+000  0.2010544E+03  0.7818608E-02  0.1148852E+00
         21   -1    0    0  501  502  0.00000000000E+00  0.00000000000E+00  0.41474741732E+02  0.41474741732E+02  0.00000000000E+00 0. -1.
         21   -1    0    0  502  503 -0.00000000000E+00 -0.00000000000E+00 -0.97520241020E+03  0.97520241020E+03  0.00000000000E+00 0. -1.
          6    1    1    2  501    0 -0.28253361987E+01  0.10407164914E+03 -0.45464268298E+03  0.49711453396E+03  0.17200000000E+03 0. -1.
         -6    1    1    2    0  503  0.28253361987E+01 -0.10407164914E+03 -0.47908498548E+03  0.51956261797E+03  0.17200000000E+03 0. -1.
</event>
<event>
 4    1  0.2889985E+000  0.1859905E+03  0.7818608E-02  0.1162128E+00
         21   -1    0    0  501  502  0.00000000000E+00  0.00000000000E+00  0.19776693516E+04  0.19776693516E+04  0.00000000000E+00 0. -1.
         21   -1    0    0  502  503 -0.00000000000E+00 -0.00000000000E+00 -0.18517021729E+02  0.18517021729E+02  0.00000000000E+00 0. -1.
          6    1    1    2  501    0  0.10826584887E+02 -0.69937404408E+02  0.12144595988E+04  0.12286189696E+04  0.17200000000E+03 0. -1.
         -6    1    1    2    0  503 -0.10826584887E+02  0.69937404408E+02  0.74469273109E+03  0.76756740370E+03  0.17200000000E+03 0. -1.
</event>
<event>
 4    1  0.2889985E+000  0.2047497E+03  0.7818608E-02  0.1145792E+00
         21   -1    0    0  503  502  0.00000000000E+00  0.00000000000E+00  0.84812258500E+02  0.84812258500E+02  0.00000000000E+00 0. -1.
         21   -1    0    0  501  503 -0.00000000000E+00 -0.00000000000E+00 -0.49617912036E+03  0.49617912036E+03  0.00000000000E+00 0. -1.
          6    1    1    2  501    0  0.22531026033E+02  0.10876953451E+03 -0.22357404843E+03  0.30316301539E+03  0.17200000000E+03 0. -1.
         -6    1    1    2    0  502 -0.22531026033E+02 -0.10876953451E+03 -0.18779281343E+03  0.27782836347E+03  0.17200000000E+03 0. -1.
</event>
<event>
 4    1  0.2889985E+000  0.1902802E+03  0.7818608E-02  0.1158209E+00
         21   -1    0    0  503  502  0.00000000000E+00  0.00000000000E+00  0.27597409843E+03  0.27597409843E+03  0.00000000000E+00 0.  1.
         21   -1    0    0  501  503 -0.00000000000E+00 -0.00000000000E+00 -0.16049665278E+03  0.16049665278E+03  0.00000000000E+00 0.  1.
          6    1    1    2  501    0 -0.43242862267E+02  0.68939101605E+02 -0.35508287398E+02  0.19356493314E+03  0.17200000000E+03 0.  1.
         -6    1    1    2    0  502  0.43242862267E+02 -0.68939101605E+02  0.15098573304E+03  0.24290581807E+03  0.17200000000E+03 0.  1.
</event>
<event>
 4    1  0.2889985E+000  0.1805136E+03  0.7818608E-02  0.1167307E+00
         21   -1    0    0  501  502  0.00000000000E+00  0.00000000000E+00  0.29166088387E+03  0.29166088387E+03  0.00000000000E+00 0. -1.
         21   -1    0    0  502  503 -0.00000000000E+00 -0.00000000000E+00 -0.16012538512E+03  0.16012538512E+03  0.00000000000E+00 0.  1.
          6    1    1    2  501    0  0.43642297086E+02 -0.33113506869E+02  0.18996370840E+03  0.26205221797E+03  0.17200000000E+03 0. -1.
         -6    1    1    2    0  503 -0.43642297086E+02  0.33113506869E+02 -0.58428209655E+02  0.18973405102E+03  0.17200000000E+03 0. -1.
</event>
<event>
 4    1  0.2889985E+000  0.2661935E+03  0.7818608E-02  0.1103478E+00
         21   -1    0    0  501  502  0.00000000000E+00  0.00000000000E+00  0.40917444643E+03  0.40917444643E+03  0.00000000000E+00 0.  1.
         21   -1    0    0  502  503 -0.00000000000E+00 -0.00000000000E+00 -0.19806825719E+03  0.19806825719E+03  0.00000000000E+00 0.  1.
          6    1    1    2  501    0 -0.18616923804E+03 -0.81338776034E+02  0.21319008212E+03  0.34104104268E+03  0.17200000000E+03 0.  1.
         -6    1    1    2    0  503  0.18616923804E+03  0.81338776034E+02 -0.20838928881E+01  0.26620166094E+03  0.17200000000E+03 0.  1.
</event>
<event>
 4    1  0.2889985E+000  0.2124175E+03  0.7818608E-02  0.1139666E+00
         21   -1    0    0  501  502  0.00000000000E+00  0.00000000000E+00  0.74911363190E+03  0.74911363190E+03  0.00000000000E+00 0.  1.
         21   -1    0    0  502  503 -0.00000000000E+00 -0.00000000000E+00 -0.63762571032E+02  0.63762571032E+02  0.00000000000E+00 0. -1.
          6    1    1    2  501    0  0.45131790923E+02  0.11619078393E+03  0.43830409231E+03  0.48706432240E+03  0.17200000000E+03 0. -1.
         -6    1    1    2    0  503 -0.45131790923E+02 -0.11619078393E+03  0.24704696856E+03  0.32581188053E+03  0.17200000000E+03 0. -1.
</event>
<event>
 4    1  0.2889985E+000  0.1892348E+03  0.7818608E-02  0.1159153E+00
         21   -1    0    0  503  502  0.00000000000E+00  0.00000000000E+00  0.18927289971E+04  0.18927289971E+04  0.00000000000E+00 0.  1.
         21   -1    0    0  501  503 -0.00000000000E+00 -0.00000000000E+00 -0.19149358222E+02  0.19149358222E+02  0.00000000000E+00 0. -1.
          6    1    1    2  501    0 -0.36745763478E+02 -0.69825215128E+02  0.10414835379E+04  0.10585356732E+04  0.17200000000E+03 0.  1.
         -6    1    1    2    0  502  0.36745763478E+02  0.69825215128E+02  0.83209610098E+03  0.85334268208E+03  0.17200000000E+03 0.  1.
</event>
<event>
 4    1  0.2889985E+000  0.2195812E+03  0.7818608E-02  0.1134196E+00
         21   -1    0    0  501  502  0.00000000000E+00  0.00000000000E+00  0.12876509275E+04  0.12876509275E+04  0.00000000000E+00 0. -1.
         21   -1    0    0  502  503 -0.00000000000E+00 -0.00000000000E+00 -0.82492880635E+02  0.82492880635E+02  0.00000000000E+00 0. -1.
          6    1    1    2  501    0 -0.30387202861E+02  0.13307335533E+03  0.11088299269E+04  0.11303626440E+04  0.17200000000E+03 0. -1.
         -6    1    1    2    0  503  0.30387202861E+02 -0.13307335533E+03  0.96328119913E+02  0.23978116416E+03  0.17200000000E+03 0. -1.
</event>
<event>
 4    1  0.2889985E+000  0.2470357E+03  0.7818608E-02  0.1115193E+00
         21   -1    0    0  503  502  0.00000000000E+00  0.00000000000E+00  0.10698626946E+03  0.10698626946E+03  0.00000000000E+00 0. -1.
         21   -1    0    0  501  503 -0.00000000000E+00 -0.00000000000E+00 -0.97667586389E+03  0.97667586389E+03  0.00000000000E+00 0.  1.
          6    1    1    2  501    0 -0.14288700346E+03  0.10500445607E+03 -0.78429948879E+03  0.82228481663E+03  0.17200000000E+03 0.  1.
         -6    1    1    2    0  502  0.14288700346E+03 -0.10500445607E+03 -0.85390105650E+02  0.26137731672E+03  0.17200000000E+03 0. -1.
</event>
<event>
 4    1  0.2889985E+000  0.2368502E+03  0.7818608E-02  0.1121909E+00
         21   -1    0    0  501  502  0.00000000000E+00  0.00000000000E+00  0.85887113138E+03  0.85887113138E+03  0.00000000000E+00 0.  1.
         21   -1    0    0  502  503 -0.00000000000E+00 -0.00000000000E+00 -0.68838497642E+02  0.68838497642E+02  0.00000000000E+00 0. -1.
          6    1    1    2  501    0 -0.16277380511E+03  0.43259090829E+01  0.49994442779E+03  0.55321104111E+03  0.17200000000E+03 0.  1.
         -6    1    1    2    0  503  0.16277380511E+03 -0.43259090829E+01  0.29008820594E+03  0.37449858791E+03  0.17200000000E+03 0. -1.
</event>
<event>
 4    1  0.2889985E+000  0.1746782E+03  0.7818608E-02  0.1173055E+00
         21   -1    0    0  501  502  0.00000000000E+00  0.00000000000E+00  0.21213048092E+03  0.21213048092E+03  0.00000000000E+00 0.  1.
         21   -1    0    0  502  503 -0.00000000000E+00 -0.00000000000E+00 -0.15477343214E+03  0.15477343214E+03  0.00000000000E+00 0.  1.
          6    1    1    2  501    0  0.21854701491E+02  0.21232981219E+02  0.77441259564E+02  0.19107489671E+03  0.17200000000E+03 0.  1.
         -6    1    1    2    0  503 -0.21854701491E+02 -0.21232981219E+02 -0.20084210783E+02  0.17582901635E+03  0.17200000000E+03 0.  1.
</event>
<event>
 4    1  0.2889985E+000  0.2196828E+03  0.7818608E-02  0.1134120E+00
         21   -1    0    0  503  502  0.00000000000E+00  0.00000000000E+00  0.13691983879E+04  0.13691983879E+04  0.00000000000E+00 0. -1.
         21   -1    0    0  501  503 -0.00000000000E+00 -0.00000000000E+00 -0.63542512980E+02  0.63542512980E+02  0.00000000000E+00 0.  1.
          6    1    1    2  501    0  0.20188855188E+02  0.13516268555E+03  0.17479042121E+03  0.28073516485E+03  0.17200000000E+03 0.  1.
         -6    1    1    2    0  502 -0.20188855188E+02 -0.13516268555E+03  0.11308654537E+04  0.11520057360E+04  0.17200000000E+03 0. -1.
</event>
<event>
 4    1  0.2889985E+000  0.2386520E+03  0.7818608E-02  0.1120694E+00
         21   -1    0    0  501  502  0.00000000000E+00  0.00000000000E+00  0.87619889279E+02  0.87619889279E+02  0.00000000000E+00 0.  1.
         21   -1    0    0  502  503 -0.00000000000E+00 -0.00000000000E+00 -0.13920664539E+04  0.13920664539E+04  0.00000000000E+00 0. -1.
          6    1    1    2  501    0  0.14474681862E+03  0.80119579055E+02 -0.11206023323E+03  0.26365182404E+03  0.17200000000E+03 0.  1.
         -6    1    1    2    0  503 -0.14474681862E+03 -0.80119579055E+02 -0.11923863314E+04  0.12160345191E+04  0.17200000000E+03 0. -1.
</event>
<event>
 4    1  0.2889985E+000  0.2008796E+03  0.7818608E-02  0.1148999E+00
         21   -1    0    0  503  502  0.00000000000E+00  0.00000000000E+00  0.51856898180E+02  0.51856898180E+02  0.00000000000E+00 0.  1.
         21   -1    0    0  501  503 -0.00000000000E+00 -0.00000000000E+00 -0.84939358324E+03  0.84939358324E+03  0.00000000000E+00 0.  1.
          6    1    1    2  501    0  0.82267265212E+02 -0.63251243403E+02 -0.52927223829E+03  0.56611105354E+03  0.17200000000E+03 0.  1.
         -6    1    1    2    0  502 -0.82267265212E+02  0.63251243403E+02 -0.26826444677E+03  0.33513942788E+03  0.17200000000E+03 0.  1.
</event>
<event>
 4    1  0.2889985E+000  0.1735445E+03  0.7818608E-02  0.1174201E+00
         21   -1    0    0  503  502  0.00000000000E+00  0.00000000000E+00  0.14472705996E+02  0.14472705996E+02  0.00000000000E+00 0. -1.
         21   -1    0    0  501  503 -0.00000000000E+00 -0.00000000000E+00 -0.22279833848E+04  0.22279833848E+04  0.00000000000E+00 0. -1.
          6    1    1    2  501    0 -0.19345270614E+02 -0.12627056703E+02 -0.13947431144E+04  0.14054985014E+04  0.17200000000E+03 0. -1.
         -6    1    1    2    0  502  0.19345270614E+02  0.12627056703E+02 -0.81876756441E+03  0.83695758948E+03  0.17200000000E+03 0. -1.
</event>
<event>
 4    1  0.2889985E+000  0.2108819E+03  0.7818608E-02  0.1140870E+00
         21   -1    0    0  503  502  0.00000000000E+00  0.00000000000E+00  0.16229654709E+03  0.16229654709E+03  0.00000000000E+00 0.  1.
         21   -1    0    0  501  503 -0.00000000000E+00 -0.00000000000E+00 -0.36483544501E+03  0.36483544501E+03  0.00000000000E+00 0.  1.
          6    1    1    2  501    0  0.10163120114E+03 -0.67514881594E+02 -0.23277390184E+03  0.31409369567E+03  0.17200000000E+03 0.  1.
         -6    1    1    2    0  502 -0.10163120114E+03  0.67514881594E+02  0.30235003918E+02  0.21303829643E+03  0.17200000000E+03 0.  1.
</event>
<event>
 4    1  0.2889985E+000  0.2130249E+03  0.7818608E-02  0.1139193E+00
         21   -1    0    0  501  502  0.00000000000E+00  0.00000000000E+00  0.13267612158E+03  0.13267612158E+03  0.00000000000E+00 0.  1.
         21   -1    0    0  502  503 -0.00000000000E+00 -0.00000000000E+00 -0.34835252666E+03  0.34835252666E+03  0.00000000000E+00 0. -1.
          6    1    1    2  501    0 -0.10805179269E+03  0.64190643231E+02 -0.75443841641E+02  0.22598982681E+03  0.17200000000E+03 0. -1.
         -6    1    1    2    0  503  0.10805179269E+03 -0.64190643231E+02 -0.14023256344E+03  0.25503882142E+03  0.17200000000E+03 0.  1.
</event>
<event>
 4    1  0.2889985E+000  0.1820869E+03  0.7818608E-02  0.1165798E+00
         21   -1    0    0  503  502  0.00000000000E+00  0.00000000000E+00  0.66024072051E+02  0.66024072051E+02  0.00000000000E+00 0.  1.
         21   -1    0    0  501  503 -0.00000000000E+00 -0.00000000000E+00 -0.57514854100E+03  0.57514854100E+03  0.00000000000E+00 0.  1.
          6    1    1    2  501    0  0.23711166184E+02 -0.54858184542E+02 -0.36875474017E+03  0.41126110710E+03  0.17200000000E+03 0.  1.
         -6    1    1    2    0  502 -0.23711166184E+02  0.54858184542E+02 -0.14036972878E+03  0.22991150596E+03  0.17200000000E+03 0.  1.
</event>
<event>
 4    1  0.2889985E+000  0.1941235E+03  0.7818608E-02  0.1154794E+00
         21   -1    0    0  503  502  0.00000000000E+00  0.00000000000E+00  0.49972219354E+02  0.49972219354E+02  0.00000000000E+00 0.  1.
         21   -1    0    0  501  503 -0.00000000000E+00 -0.00000000000E+00 -0.75617165643E+03  0.75617165643E+03  0.00000000000E+00 0.  1.
          6    1    1    2  501    0 -0.11620598563E+01  0.89992104730E+02 -0.37420958815E+03  0.42156463937E+03  0.17200000000E+03 0.  1.
         -6    1    1    2    0  502  0.11620598563E+01 -0.89992104730E+02 -0.33198984892E+03  0.38457923642E+03  0.17200000000E+03 0.  1.
</event>
<event>
 4    1  0.2889985E+000  0.1739660E+03  0.7818608E-02  0.1173774E+00
         21   -1    0    0  503  502  0.00000000000E+00  0.00000000000E+00  0.52411389376E+03  0.52411389376E+03  0.00000000000E+00 0. -1.
         21   -1    0    0  501  503 -0.00000000000E+00 -0.00000000000E+00 -0.10109778723E+03  0.10109778723E+03  0.00000000000E+00 0. -1.
          6    1    1    2  501    0  0.75494797371E+01 -0.24963287838E+02  0.67964847529E+01  0.17409868635E+03  0.17200000000E+03 0. -1.
         -6    1    1    2    0  502 -0.75494797371E+01  0.24963287838E+02  0.41621962177E+03  0.45111299464E+03  0.17200000000E+03 0. -1.
</event>
<event>
 4    1  0.2889985E+000  0.2199817E+03  0.7818608E-02  0.1133897E+00
         21   -1    0    0  501  502  0.00000000000E+00  0.00000000000E+00  0.94727903880E+02  0.94727903880E+02  0.00000000000E+00 0. -1.
         21   -1    0    0  502  503 -0.00000000000E+00 -0.00000000000E+00 -0.74082031624E+03  0.74082031624E+03  0.00000000000E+00 0.  1.
          6    1    1    2  501    0  0.13710469903E+03 -0.32044629825E+01 -0.90280601880E+02  0.23778678297E+03  0.17200000000E+03 0. -1.
         -6    1    1    2    0  503 -0.13710469903E+03  0.32044629825E+01 -0.55581181048E+03  0.59776143715E+03  0.17200000000E+03 0.  1.
</event>
<event>
 4    1  0.2889985E+000  0.1935613E+03  0.7818608E-02  0.1155288E+00
         21   -1    0    0  501  502  0.00000000000E+00  0.00000000000E+00  0.52133670122E+02  0.52133670122E+02  0.00000000000E+00 0.  1.
         21   -1    0    0  502  503 -0.00000000000E+00 -0.00000000000E+00 -0.71977647795E+03  0.71977647795E+03  0.00000000000E+00 0.  1.
          6    1    1    2  501    0  0.25398653670E+02  0.85069814676E+02 -0.34907661788E+03  0.39914965881E+03  0.17200000000E+03 0.  1.
         -6    1    1    2    0  503 -0.25398653670E+02 -0.85069814676E+02 -0.31856618994E+03  0.37276048926E+03  0.17200000000E+03 0.  1.
</event>
<event>
 4    1  0.2889985E+000  0.2416056E+03  0.7818608E-02  0.1118728E+00
         21   -1    0    0  501  502  0.00000000000E+00  0.00000000000E+00  0.59994382175E+03  0.59994382175E+03  0.00000000000E+00 0.  1.
         21   -1    0    0  502  503 -0.00000000000E+00 -0.00000000000E+00 -0.98044574285E+02  0.98044574285E+02  0.00000000000E+00 0.  1.
          6    1    1    2  501    0  0.16846758354E+03  0.20197710105E+02  0.22049369037E+03  0.32709439263E+03  0.17200000000E+03 0.  1.
         -6    1    1    2    0  503 -0.16846758354E+03 -0.20197710105E+02  0.28140555710E+03  0.37089400341E+03  0.17200000000E+03 0.  1.
</event>
<event>
 4    1  0.2889985E+000  0.1809517E+03  0.7818608E-02  0.1166885E+00
         21   -1    0    0  501  502  0.00000000000E+00  0.00000000000E+00  0.13340897818E+03  0.13340897818E+03  0.00000000000E+00 0.  1.
         21   -1    0    0  502  503 -0.00000000000E+00 -0.00000000000E+00 -0.30006239489E+03  0.30006239489E+03  0.00000000000E+00 0. -1.
          6    1    1    2  501    0  0.18532149901E+02  0.53066834988E+02  0.91475880637E+01  0.18118280250E+03  0.17200000000E+03 0.  1.
         -6    1    1    2    0  503 -0.18532149901E+02 -0.53066834988E+02 -0.17580100478E+03  0.25228857056E+03  0.17200000000E+03 0. -1.
</event>
<event>
 4    1  0.2889985E+000  0.1749731E+03  0.7818608E-02  0.1172759E+00
         21   -1    0    0  503  502  0.00000000000E+00  0.00000000000E+00  0.21503567883E+03  0.21503567883E+03  0.00000000000E+00 0.  1.
         21   -1    0    0  501  503 -0.00000000000E+00 -0.00000000000E+00 -0.36051120520E+03  0.36051120520E+03  0.00000000000E+00 0.  1.
          6    1    1    2  501    0  0.30938930203E+02 -0.86239491935E+01 -0.29658706084E+03  0.34435370560E+03  0.17200000000E+03 0.  1.
         -6    1    1    2    0  502 -0.30938930203E+02  0.86239491935E+01  0.15111153447E+03  0.23119317843E+03  0.17200000000E+03 0.  1.
</event>
<event>
 4    1  0.2889985E+000  0.4705148E+03  0.7818608E-02  0.1021775E+00
         21   -1    0    0  503  502  0.00000000000E+00  0.00000000000E+00  0.20919949824E+03  0.20919949824E+03  0.00000000000E+00 0. -1.
         21   -1    0    0  501  503 -0.00000000000E+00 -0.00000000000E+00 -0.12577422806E+04  0.12577422806E+04  0.00000000000E+00 0.  1.
          6    1    1    2  501    0  0.23183115894E+03  0.37155683710E+03 -0.81638806080E+03  0.94227046822E+03  0.17200000000E+03 0.  1.
         -6    1    1    2    0  502 -0.23183115894E+03 -0.37155683710E+03 -0.23215472154E+03  0.52467131061E+03  0.17200000000E+03 0. -1.
</event>
<event>
 4    1  0.2889985E+000  0.2003753E+03  0.7818608E-02  0.1149423E+00
         21   -1    0    0  503  502  0.00000000000E+00  0.00000000000E+00  0.17564336717E+03  0.17564336717E+03  0.00000000000E+00 0.  1.
         21   -1    0    0  501  503 -0.00000000000E+00 -0.00000000000E+00 -0.48327511420E+03  0.48327511420E+03  0.00000000000E+00 0.  1.
          6    1    1    2  501    0  0.77283800968E+02 -0.67775164501E+02 -0.39298578459E+03  0.44112139566E+03  0.17200000000E+03 0.  1.
         -6    1    1    2    0  502 -0.77283800968E+02  0.67775164501E+02  0.85354037561E+02  0.21779708571E+03  0.17200000000E+03 0.  1.
</event>
<event>
 4    1  0.2889985E+000  0.2147413E+03  0.7818608E-02  0.1137865E+00
         21   -1    0    0  503  502  0.00000000000E+00  0.00000000000E+00  0.13896522472E+04  0.13896522472E+04  0.00000000000E+00 0. -1.
         21   -1    0    0  501  503 -0.00000000000E+00 -0.00000000000E+00 -0.39694973602E+02  0.39694973602E+02  0.00000000000E+00 0.  1.
          6    1    1    2  501    0 -0.99124795394E+02 -0.81878509270E+02  0.38552922595E+03  0.44130103036E+03  0.17200000000E+03 0. -1.
         -6    1    1    2    0  502  0.99124795394E+02  0.81878509270E+02  0.96442804768E+03  0.98804619046E+03  0.17200000000E+03 0. -1.
</event>
<event>
 4    1  0.2889985E+000  0.1960925E+03  0.7818608E-02  0.1153078E+00
         21   -1    0    0  501  502  0.00000000000E+00  0.00000000000E+00  0.49718706030E+02  0.49718706030E+02  0.00000000000E+00 0.  1.
         21   -1    0    0  502  503 -0.00000000000E+00 -0.00000000000E+00 -0.89195349458E+03  0.89195349458E+03  0.00000000000E+00 0.  1.
          6    1    1    2  501    0 -0.39337488022E+02  0.85561742124E+02 -0.24945976648E+03  0.31730493972E+03  0.17200000000E+03 0.  1.
         -6    1    1    2    0  503  0.39337488022E+02 -0.85561742124E+02 -0.59277502208E+03  0.62436726089E+03  0.17200000000E+03 0.  1.
</event>
<event>
 4    1  0.2889985E+000  0.2186541E+03  0.7818608E-02  0.1134890E+00
         21   -1    0    0  501  502  0.00000000000E+00  0.00000000000E+00  0.23276253281E+03  0.23276253281E+03  0.00000000000E+00 0.  1.
         21   -1    0    0  502  503 -0.00000000000E+00 -0.00000000000E+00 -0.28610019283E+03  0.28610019283E+03  0.00000000000E+00 0. -1.
          6    1    1    2  501    0  0.31135267112E+02  0.13136290685E+03  0.11111506140E+03  0.24526755803E+03  0.17200000000E+03 0.  1.
         -6    1    1    2    0  503 -0.31135267112E+02 -0.13136290685E+03 -0.16445272142E+03  0.27359516761E+03  0.17200000000E+03 0. -1.
</event>
<event>
 4    1  0.2889985E+000  0.2048966E+03  0.7818608E-02  0.1145672E+00
         21   -1    0    0  501  502  0.00000000000E+00  0.00000000000E+00  0.12463278978E+03  0.12463278978E+03  0.00000000000E+00 0. -1.
         21   -1    0    0  502  503 -0.00000000000E+00 -0.00000000000E+00 -0.39514528867E+03  0.39514528867E+03  0.00000000000E+00 0. -1.
          6    1    1    2  501    0  0.77697132088E+02 -0.79760731072E+02 -0.35434679558E+02  0.20793805585E+03  0.17200000000E+03 0. -1.
         -6    1    1    2    0  503 -0.77697132088E+02  0.79760731072E+02 -0.23507781933E+03  0.31184002260E+03  0.17200000000E+03 0. -1.
</event>
<event>
 4    1  0.2889985E+000  0.1797661E+03  0.7818608E-02  0.1168030E+00
         21   -1    0    0  501  502  0.00000000000E+00  0.00000000000E+00  0.20679984496E+04  0.20679984496E+04  0.00000000000E+00 0. -1.
         21   -1    0    0  502  503 -0.00000000000E+00 -0.00000000000E+00 -0.20432408319E+02  0.20432408319E+02  0.00000000000E+00 0. -1.
          6    1    1    2  501    0 -0.46719198497E+02 -0.23434145728E+02  0.15302046882E+04  0.15407278249E+04  0.17200000000E+03 0. -1.
         -6    1    1    2    0  503  0.46719198497E+02  0.23434145728E+02  0.51736135309E+03  0.54770303301E+03  0.17200000000E+03 0. -1.
</event>
<event>
 4    1  0.2889985E+000  0.2776855E+03  0.7818608E-02  0.1096960E+00
         21   -1    0    0  503  502  0.00000000000E+00  0.00000000000E+00  0.31293609674E+03  0.31293609674E+03  0.00000000000E+00 0.  1.
         21   -1    0    0  501  503 -0.00000000000E+00 -0.00000000000E+00 -0.33056663771E+03  0.33056663771E+03  0.00000000000E+00 0.  1.
          6    1    1    2  501    0 -0.18736756822E+03 -0.11143896507E+03 -0.17116295032E+03  0.32619933188E+03  0.17200000000E+03 0.  1.
         -6    1    1    2    0  502  0.18736756822E+03  0.11143896507E+03  0.15353240935E+03  0.31730340256E+03  0.17200000000E+03 0.  1.
</event>
<event>
 4    1  0.2889985E+000  0.1834355E+03  0.7818608E-02  0.1164519E+00
         21   -1    0    0  501  502  0.00000000000E+00  0.00000000000E+00  0.12090581182E+03  0.12090581182E+03  0.00000000000E+00 0.  1.
         21   -1    0    0  502  503 -0.00000000000E+00 -0.00000000000E+00 -0.70551326100E+03  0.70551326100E+03  0.00000000000E+00 0.  1.
          6    1    1    2  501    0 -0.62433626195E+02  0.12907863660E+02  0.29238547692E+02  0.18575107885E+03  0.17200000000E+03 0.  1.
         -6    1    1    2    0  503  0.62433626195E+02 -0.12907863660E+02 -0.61384599687E+03  0.64066799397E+03  0.17200000000E+03 0.  1.
</event>
<event>
 4    1  0.2889985E+000  0.1858933E+03  0.7818608E-02  0.1162218E+00
         21   -1    0    0  503  502  0.00000000000E+00  0.00000000000E+00  0.39290826998E+03  0.39290826998E+03  0.00000000000E+00 0.  1.
         21   -1    0    0  501  503 -0.00000000000E+00 -0.00000000000E+00 -0.11244919401E+03  0.11244919401E+03  0.00000000000E+00 0.  1.
          6    1    1    2  501    0  0.37905037859E+02  0.59460344606E+02  0.22288359398E+02  0.18722471910E+03  0.17200000000E+03 0.  1.
         -6    1    1    2    0  502 -0.37905037859E+02 -0.59460344606E+02  0.25817071657E+03  0.31813274489E+03  0.17200000000E+03 0.  1.
</event>
<event>
 4    1  0.2889985E+000  0.1888695E+03  0.7818608E-02  0.1159485E+00
         21   -1    0    0  501  502  0.00000000000E+00  0.00000000000E+00  0.41127758670E+03  0.41127758670E+03  0.00000000000E+00 0. -1.
         21   -1    0    0  502  503 -0.00000000000E+00 -0.00000000000E+00 -0.95247469686E+02  0.95247469686E+02  0.00000000000E+00 0. -1.
          6    1    1    2  501    0 -0.73901325074E+02  0.25025531172E+02  0.23373350160E+03  0.30050463030E+03  0.17200000000E+03 0. -1.
         -6    1    1    2    0  503  0.73901325074E+02 -0.25025531172E+02  0.82296615413E+02  0.20602042609E+03  0.17200000000E+03 0. -1.
</event>
<event>
 4    1  0.2889985E+000  0.2029644E+03  0.7818608E-02  0.1147262E+00
         21   -1    0    0  503  502  0.00000000000E+00  0.00000000000E+00  0.53036263156E+03  0.53036263156E+03  0.00000000000E+00 0.  1.
         21   -1    0    0  501  503 -0.00000000000E+00 -0.00000000000E+00 -0.15971278599E+03  0.15971278599E+03  0.00000000000E+00 0.  1.
          6    1    1    2  501    0  0.68318735463E+02 -0.83325173794E+02 -0.61967373452E+02  0.21221331149E+03  0.17200000000E+03 0.  1.
         -6    1    1    2    0  502 -0.68318735463E+02  0.83325173794E+02  0.43261721902E+03  0.47786210605E+03  0.17200000000E+03 0.  1.
</event>
<event>
 4    1  0.2889985E+000  0.1858752E+03  0.7818608E-02  0.1162235E+00
         21   -1    0    0  503  502  0.00000000000E+00  0.00000000000E+00  0.66549992775E+03  0.66549992775E+03  0.00000000000E+00 0. -1.
         21   -1    0    0  501  503 -0.00000000000E+00 -0.00000000000E+00 -0.55097193407E+02  0.55097193407E+02  0.00000000000E+00 0.  1.
          6    1    1    2  501    0 -0.47804815624E+02 -0.51771635653E+02  0.21861625141E+03  0.28695412183E+03  0.17200000000E+03 0.  1.
         -6    1    1    2    0  502  0.47804815624E+02  0.51771635653E+02  0.39178648294E+03  0.43364299933E+03  0.17200000000E+03 0. -1.
</event>
<event>
 4    1  0.2889985E+000  0.1910051E+03  0.7818608E-02  0.1157558E+00
         21   -1    0    0  501  502  0.00000000000E+00  0.00000000000E+00  0.61563019311E+03  0.61563019311E+03  0.00000000000E+00 0.  1.
         21   -1    0    0  502  503 -0.00000000000E+00 -0.00000000000E+00 -0.59710432510E+02  0.59710432510E+02  0.00000000000E+00 0. -1.
          6    1    1    2  501    0 -0.30279351720E+02 -0.77344087374E+02  0.30725076005E+03  0.36178166972E+03  0.17200000000E+03 0.  1.
         -6    1    1    2    0  503  0.30279351720E+02  0.77344087374E+02  0.24866900055E+03  0.31355895590E+03  0.17200000000E+03 0. -1.
</event>
<event>
 4    1  0.2889985E+000  0.3116029E+03  0.7818608E-02  0.1079580E+00
         21   -1    0    0  503  502  0.00000000000E+00  0.00000000000E+00  0.17036531207E+03  0.17036531207E+03  0.00000000000E+00 0.  1.
         21   -1    0    0  501  503 -0.00000000000E+00 -0.00000000000E+00 -0.73041953729E+03  0.73041953729E+03  0.00000000000E+00 0. -1.
          6    1    1    2  501    0 -0.18838941222E+03 -0.17894628970E+03 -0.49114639854E+03  0.58165378881E+03  0.17200000000E+03 0. -1.
         -6    1    1    2    0  502  0.18838941222E+03  0.17894628970E+03 -0.68907826669E+02  0.31913106055E+03  0.17200000000E+03 0.  1.
</event>
<event>
 4    1  0.2889985E+000  0.3520397E+03  0.7818608E-02  0.1061781E+00
         21   -1    0    0  501  502  0.00000000000E+00  0.00000000000E+00  0.33976347626E+03  0.33976347626E+03  0.00000000000E+00 0. -1.
         21   -1    0    0  502  503 -0.00000000000E+00 -0.00000000000E+00 -0.38181042100E+03  0.38181042100E+03  0.00000000000E+00 0.  1.
          6    1    1    2  501    0  0.66583240046E+02  0.29985769582E+03  0.55219616130E+02  0.35634417577E+03  0.17200000000E+03 0. -1.
         -6    1    1    2    0  503 -0.66583240046E+02 -0.29985769582E+03 -0.97266560868E+02  0.36522972149E+03  0.17200000000E+03 0. -1.
</event>
<event>
 4    1  0.2889985E+000  0.1779996E+03  0.7818608E-02  0.1169753E+00
         21   -1    0    0  501  502  0.00000000000E+00  0.00000000000E+00  0.10596745701E+03  0.10596745701E+03  0.00000000000E+00 0.  1.
         21   -1    0    0  502  503 -0.00000000000E+00 -0.00000000000E+00 -0.47377051994E+03  0.47377051994E+03  0.00000000000E+00 0.  1.
          6    1    1    2  501    0 -0.45623875850E+02  0.42820058319E+01 -0.78432449747E+01  0.17817236069E+03  0.17200000000E+03 0.  1.
         -6    1    1    2    0  503  0.45623875850E+02 -0.42820058319E+01 -0.35995981795E+03  0.40156561626E+03  0.17200000000E+03 0.  1.
</event>
<event>
 4    1  0.2889985E+000  0.2549104E+03  0.7818608E-02  0.1110240E+00
         21   -1    0    0  501  502  0.00000000000E+00  0.00000000000E+00  0.14730759382E+03  0.14730759382E+03  0.00000000000E+00 0.  1.
         21   -1    0    0  502  503 -0.00000000000E+00 -0.00000000000E+00 -0.48377085312E+03  0.48377085312E+03  0.00000000000E+00 0. -1.
          6    1    1    2  501    0 -0.22727188088E+02  0.18675870088E+03 -0.74533370686E+02  0.26558343468E+03  0.17200000000E+03 0.  1.
         -6    1    1    2    0  503  0.22727188088E+02 -0.18675870088E+03 -0.26192988862E+03  0.36549501225E+03  0.17200000000E+03 0. -1.
</event>
<event>
 4    1  0.2889985E+000  0.1977382E+03  0.7818608E-02  0.1151661E+00
         21   -1    0    0  501  502  0.00000000000E+00  0.00000000000E+00  0.88964035684E+03  0.88964035684E+03  0.00000000000E+00 0.  1.
         21   -1    0    0  502  503 -0.00000000000E+00 -0.00000000000E+00 -0.67308899242E+02  0.67308899242E+02  0.00000000000E+00 0.  1.
          6    1    1    2  501    0 -0.20145113380E+02  0.95449357646E+02  0.69303090187E+03  0.72068872366E+03  0.17200000000E+03 0.  1.
         -6    1    1    2    0  503  0.20145113380E+02 -0.95449357646E+02  0.12930055573E+03  0.23626053242E+03  0.17200000000E+03 0.  1.
</event>
<event>
 4    1  0.2889985E+000  0.2052215E+03  0.7818608E-02  0.1145407E+00
         21   -1    0    0  503  502  0.00000000000E+00  0.00000000000E+00  0.67585347512E+02  0.67585347512E+02  0.00000000000E+00 0. -1.
         21   -1    0    0  501  503 -0.00000000000E+00 -0.00000000000E+00 -0.71982930292E+03  0.71982930292E+03  0.00000000000E+00 0.  1.
          6    1    1    2  501    0 -0.10999361253E+03 -0.20815274607E+02 -0.47040773297E+03  0.51322442040E+03  0.17200000000E+03 0.  1.
         -6    1    1    2    0  502  0.10999361253E+03  0.20815274607E+02 -0.18183622244E+03  0.27419023003E+03  0.17200000000E+03 0. -1.
</event>
<event>
 4    1  0.2889985E+000  0.1737829E+03  0.7818608E-02  0.1173959E+00
         21   -1    0    0  503  502  0.00000000000E+00  0.00000000000E+00  0.31829710740E+03  0.31829710740E+03  0.00000000000E+00 0.  1.
         21   -1    0    0  501  503 -0.00000000000E+00 -0.00000000000E+00 -0.95076831114E+02  0.95076831114E+02  0.00000000000E+00 0.  1.
          6    1    1    2  501    0  0.19020610229E+01  0.24756719689E+02  0.10224227649E+03  0.20162836137E+03  0.17200000000E+03 0. -1.
         -6    1    1    2    0  502 -0.19020610229E+01 -0.24756719689E+02  0.12097799980E+03  0.21174557715E+03  0.17200000000E+03 0. -1.
</event>
<event>
 4    1  0.2889985E+000  0.2475558E+03  0.7818608E-02  0.1114859E+00
         21   -1    0    0  501  502  0.00000000000E+00  0.00000000000E+00  0.13156073649E+04  0.13156073649E+04  0.00000000000E+00 0. -1.
         21   -1    0    0  502  503 -0.00000000000E+00 -0.00000000000E+00 -0.48204903179E+02  0.48204903179E+02  0.00000000000E+00 0.  1.
          6    1    1    2  501    0  0.75045558022E+02  0.16145595817E+03  0.50858867634E+03  0.56563796187E+03  0.17200000000E+03 0. -1.
         -6    1    1    2    0  503 -0.75045558022E+02 -0.16145595817E+03  0.75881378538E+03  0.79817430621E+03  0.17200000000E+03 0.  1.
</event>
<event>
 4    1  0.2889985E+000  0.1772472E+03  0.7818608E-02  0.1170494E+00
         21   -1    0    0  503  502  0.00000000000E+00  0.00000000000E+00  0.19668691332E+03  0.19668691332E+03  0.00000000000E+00 0.  1.
         21   -1    0    0  501  503 -0.00000000000E+00 -0.00000000000E+00 -0.17235284401E+03  0.17235284401E+03  0.00000000000E+00 0.  1.
          6    1    1    2  501    0  0.25271854592E+02  0.34552693511E+02 -0.37771294011E+02  0.18122700106E+03  0.17200000000E+03 0.  1.
         -6    1    1    2    0  502 -0.25271854592E+02 -0.34552693511E+02  0.62105363313E+02  0.18781275626E+03  0.17200000000E+03 0.  1.
</event>
<event>
 4    1  0.2889985E+000  0.2258039E+03  0.7818608E-02  0.1129629E+00
         21   -1    0    0  503  502  0.00000000000E+00  0.00000000000E+00  0.73158948984E+03  0.73158948984E+03  0.00000000000E+00 0.  1.
         21   -1    0    0  501  503 -0.00000000000E+00 -0.00000000000E+00 -0.78250307145E+02  0.78250307145E+02  0.00000000000E+00 0. -1.
          6    1    1    2  501    0 -0.11798931272E+02 -0.14582243646E+03  0.19277307372E+03  0.29689872972E+03  0.17200000000E+03 0.  1.
         -6    1    1    2    0  502  0.11798931272E+02  0.14582243646E+03  0.46056610897E+03  0.51294106727E+03  0.17200000000E+03 0.  1.
</event>
<event>
 4    1  0.2889985E+000  0.2113374E+03  0.7818608E-02  0.1140511E+00
         21   -1    0    0  501  502  0.00000000000E+00  0.00000000000E+00  0.15178073838E+03  0.15178073838E+03  0.00000000000E+00 0. -1.
         21   -1    0    0  502  503 -0.00000000000E+00 -0.00000000000E+00 -0.31283403706E+03  0.31283403706E+03  0.00000000000E+00 0. -1.
          6    1    1    2  501    0 -0.12254250716E+03 -0.79264911488E+01 -0.23926050546E+02  0.21268744960E+03  0.17200000000E+03 0. -1.
         -6    1    1    2    0  503  0.12254250716E+03  0.79264911488E+01 -0.13712724813E+03  0.25192732584E+03  0.17200000000E+03 0. -1.
</event>
<event>
 4    1  0.2889985E+000  0.1734760E+03  0.7818608E-02  0.1174271E+00
         21   -1    0    0  503  502  0.00000000000E+00  0.00000000000E+00  0.45402047340E+02  0.45402047340E+02  0.00000000000E+00 0.  1.
         21   -1    0    0  501  503 -0.00000000000E+00 -0.00000000000E+00 -0.67848473812E+03  0.67848473812E+03  0.00000000000E+00 0.  1.
          6    1    1    2  501    0 -0.66847244784E+01  0.21569249659E+02 -0.37151686813E+03  0.41002280593E+03  0.17200000000E+03 0.  1.
         -6    1    1    2    0  502  0.66847244784E+01 -0.21569249659E+02 -0.26156582265E+03  0.31386397954E+03  0.17200000000E+03 0.  1.
</event>
<event>
 4    1  0.2889985E+000  0.2618763E+03  0.7818608E-02  0.1106021E+00
         21   -1    0    0  501  502  0.00000000000E+00  0.00000000000E+00  0.22545614853E+03  0.22545614853E+03  0.00000000000E+00 0. -1.
         21   -1    0    0  502  503 -0.00000000000E+00 -0.00000000000E+00 -0.46757288550E+03  0.46757288550E+03  0.00000000000E+00 0. -1.
          6    1    1    2  501    0 -0.14789864537E+03  0.13084788754E+03 -0.32589789905E+03  0.41807728901E+03  0.17200000000E+03 0. -1.
         -6    1    1    2    0  503  0.14789864537E+03 -0.13084788754E+03  0.83781162084E+02  0.27495174503E+03  0.17200000000E+03 0. -1.
</event>
<event>
 4    1  0.2889985E+000  0.2272857E+03  0.7818608E-02  0.1128565E+00
         21   -1    0    0  503  502  0.00000000000E+00  0.00000000000E+00  0.10756122476E+03  0.10756122476E+03  0.00000000000E+00 0. -1.
         21   -1    0    0  501  503 -0.00000000000E+00 -0.00000000000E+00 -0.10548615699E+04  0.10548615699E+04  0.00000000000E+00 0. -1.
          6    1    1    2  501    0 -0.14546138641E+03 -0.30261463586E+02 -0.90260821153E+03  0.93078480576E+03  0.17200000000E+03 0. -1.
         -6    1    1    2    0  502  0.14546138641E+03  0.30261463586E+02 -0.44692133659E+02  0.23163798895E+03  0.17200000000E+03 0. -1.
</event>
<event>
 4    1  0.2889985E+000  0.2449069E+03  0.7818608E-02  0.1116566E+00
         21   -1    0    0  503  502  0.00000000000E+00  0.00000000000E+00  0.34729969535E+03  0.34729969535E+03  0.00000000000E+00 0. -1.
         21   -1    0    0  501  503 -0.00000000000E+00 -0.00000000000E+00 -0.18508578846E+03  0.18508578846E+03  0.00000000000E+00 0.  1.
          6    1    1    2  501    0 -0.29266531620E+02  0.17186872325E+03  0.12252089921E+02  0.24521317586E+03  0.17200000000E+03 0.  1.
         -6    1    1    2    0  502  0.29266531620E+02 -0.17186872325E+03  0.14996181697E+03  0.28717230795E+03  0.17200000000E+03 0. -1.
</event>
<event>
 4    1  0.2889985E+000  0.2161084E+03  0.7818608E-02  0.1136818E+00
         21   -1    0    0  501  502  0.00000000000E+00  0.00000000000E+00  0.23148334245E+03  0.23148334245E+03  0.00000000000E+00 0.  1.
         21   -1    0    0  502  503 -0.00000000000E+00 -0.00000000000E+00 -0.33017759652E+03  0.33017759652E+03  0.00000000000E+00 0.  1.
          6    1    1    2  501    0 -0.23080957643E+02 -0.12878705245E+03  0.12579546730E+03  0.25005466418E+03  0.17200000000E+03 0.  1.
         -6    1    1    2    0  503  0.23080957643E+02  0.12878705245E+03 -0.22448972138E+03  0.31160627479E+03  0.17200000000E+03 0.  1.
</event>
<event>
 4    1  0.2889985E+000  0.2262777E+03  0.7818608E-02  0.1129287E+00
         21   -1    0    0  503  502  0.00000000000E+00  0.00000000000E+00  0.13314327920E+03  0.13314327920E+03  0.00000000000E+00 0. -1.
         21   -1    0    0  501  503 -0.00000000000E+00 -0.00000000000E+00 -0.44654151614E+03  0.44654151614E+03  0.00000000000E+00 0. -1.
          6    1    1    2  501    0 -0.86191340851E+01  0.14677643349E+03 -0.26468357888E+03  0.34822264117E+03  0.17200000000E+03 0. -1.
         -6    1    1    2    0  502  0.86191340851E+01 -0.14677643349E+03 -0.48714658072E+02  0.23146215417E+03  0.17200000000E+03 0. -1.
</event>
<event>
 4    1  0.2889985E+000  0.1947779E+03  0.7818608E-02  0.1154221E+00
         21   -1    0    0  501  502  0.00000000000E+00  0.00000000000E+00  0.74042858253E+02  0.74042858253E+02  0.00000000000E+00 0.  1.
         21   -1    0    0  502  503 -0.00000000000E+00 -0.00000000000E+00 -0.51904184795E+03  0.51904184795E+03  0.00000000000E+00 0.  1.
          6    1    1    2  501    0  0.13141174342E+01 -0.91393177803E+02 -0.18891612299E+03  0.27134432255E+03  0.17200000000E+03 0.  1.
         -6    1    1    2    0  503 -0.13141174342E+01  0.91393177803E+02 -0.25608286670E+03  0.32174038365E+03  0.17200000000E+03 0.  1.
</event>
<event>
 4    1  0.2889985E+000  0.1756190E+03  0.7818608E-02  0.1172112E+00
         21   -1    0    0  501  502  0.00000000000E+00  0.00000000000E+00  0.48337422276E+03  0.48337422276E+03  0.00000000000E+00 0. -1.
         21   -1    0    0  502  503 -0.00000000000E+00 -0.00000000000E+00 -0.65830909447E+02  0.65830909447E+02  0.00000000000E+00 0. -1.
          6    1    1    2  501    0  0.15680907909E+02 -0.31814034875E+02  0.25693605942E+03  0.31122044007E+03  0.17200000000E+03 0. -1.
         -6    1    1    2    0  503 -0.15680907909E+02  0.31814034875E+02  0.16060725389E+03  0.23798469214E+03  0.17200000000E+03 0. -1.
</event>
<event>
 4    1  0.2889985E+000  0.1755159E+03  0.7818608E-02  0.1172215E+00
         21   -1    0    0  501  502  0.00000000000E+00  0.00000000000E+00  0.77680888644E+03  0.77680888644E+03  0.00000000000E+00 0. -1.
         21   -1    0    0  502  503 -0.00000000000E+00 -0.00000000000E+00 -0.45589251624E+02  0.45589251624E+02  0.00000000000E+00 0.  1.
          6    1    1    2  501    0 -0.68435552272E+01 -0.34278360806E+02  0.21727812240E+03  0.27931276867E+03  0.17200000000E+03 0.  1.
         -6    1    1    2    0  503  0.68435552272E+01  0.34278360806E+02  0.51394151241E+03  0.54308536939E+03  0.17200000000E+03 0. -1.
</event>
<event>
 4    1  0.2889985E+000  0.1966342E+03  0.7818608E-02  0.1152610E+00
         21   -1    0    0  503  502  0.00000000000E+00  0.00000000000E+00  0.10880113082E+04  0.10880113082E+04  0.00000000000E+00 0. -1.
         21   -1    0    0  501  503 -0.00000000000E+00 -0.00000000000E+00 -0.37644650481E+02  0.37644650481E+02  0.00000000000E+00 0. -1.
          6    1    1    2  501    0 -0.93319173795E+02  0.19301458057E+02  0.39201848999E+03  0.43856984732E+03  0.17200000000E+03 0. -1.
         -6    1    1    2    0  502  0.93319173795E+02 -0.19301458057E+02  0.65834816775E+03  0.68708611139E+03  0.17200000000E+03 0. -1.
</event>
<event>
 4    1  0.2889985E+000  0.2152598E+03  0.7818608E-02  0.1137467E+00
         21   -1    0    0  501  502  0.00000000000E+00  0.00000000000E+00  0.20016207217E+04  0.20016207217E+04  0.00000000000E+00 0.  1.
         21   -1    0    0  502  503 -0.00000000000E+00 -0.00000000000E+00 -0.50276990025E+02  0.50276990025E+02  0.00000000000E+00 0.  1.
          6    1    1    2  501    0 -0.12713727003E+03  0.24267346947E+02  0.17292786519E+04  0.17426248723E+04  0.17200000000E+03 0.  1.
         -6    1    1    2    0  503  0.12713727003E+03 -0.24267346947E+02  0.22206507974E+03  0.30927283941E+03  0.17200000000E+03 0.  1.
</event>
<event>
 4    1  0.2889985E+000  0.2067483E+03  0.7818608E-02  0.1144167E+00
         21   -1    0    0  501  502  0.00000000000E+00  0.00000000000E+00  0.13742923670E+03  0.13742923670E+03  0.00000000000E+00 0.  1.
         21   -1    0    0  502  503 -0.00000000000E+00 -0.00000000000E+00 -0.31149950545E+03  0.31149950545E+03  0.00000000000E+00 0.  1.
          6    1    1    2  501    0 -0.11546752050E+02 -0.11413815664E+03 -0.95733966692E+02  0.22783730744E+03  0.17200000000E+03 0.  1.
         -6    1    1    2    0  503  0.11546752050E+02  0.11413815664E+03 -0.78336302055E+02  0.22109143471E+03  0.17200000000E+03 0.  1.
</event>
<event>
 4    1  0.2889985E+000  0.2179572E+03  0.7818608E-02  0.1135415E+00
         21   -1    0    0  501  502  0.00000000000E+00  0.00000000000E+00  0.49833015997E+02  0.49833015997E+02  0.00000000000E+00 0.  1.
         21   -1    0    0  502  503 -0.00000000000E+00 -0.00000000000E+00 -0.98984292636E+03  0.98984292636E+03  0.00000000000E+00 0. -1.
          6    1    1    2  501    0  0.89872221539E+02 -0.99218596602E+02 -0.37011028411E+03  0.42951946233E+03  0.17200000000E+03 0.  1.
         -6    1    1    2    0  503 -0.89872221539E+02  0.99218596602E+02 -0.56989962625E+03  0.61015648003E+03  0.17200000000E+03 0. -1.
</event>
<event>
 4    1  0.2889985E+000  0.2981557E+03  0.7818608E-02  0.1086166E+00
         21   -1    0    0  503  502  0.00000000000E+00  0.00000000000E+00  0.47840680471E+03  0.47840680471E+03  0.00000000000E+00 0. -1.
         21   -1    0    0  501  503 -0.00000000000E+00 -0.00000000000E+00 -0.38108502690E+03  0.38108502690E+03  0.00000000000E+00 0.  1.
          6    1    1    2  501    0 -0.35332337219E+02 -0.24096566514E+03 -0.25895923101E+03  0.39491354643E+03  0.17200000000E+03 0.  1.
         -6    1    1    2    0  502  0.35332337219E+02  0.24096566514E+03  0.35628100881E+03  0.46457828519E+03  0.17200000000E+03 0. -1.
</event>
<event>
 4    1  0.2889985E+000  0.1997105E+03  0.7818608E-02  0.1149983E+00
         21   -1    0    0  501  502  0.00000000000E+00  0.00000000000E+00  0.70134379077E+03  0.70134379077E+03  0.00000000000E+00 0. -1.
         21   -1    0    0  502  503 -0.00000000000E+00 -0.00000000000E+00 -0.11276614057E+03  0.11276614057E+03  0.00000000000E+00 0. -1.
          6    1    1    2  501    0 -0.52569451045E+02  0.86814464170E+02  0.76989585521E+01  0.19985888105E+03  0.17200000000E+03 0. -1.
         -6    1    1    2    0  503  0.52569451045E+02 -0.86814464170E+02  0.58087869164E+03  0.61425105029E+03  0.17200000000E+03 0. -1.
</event>
<event>
 4    1  0.2889985E+000  0.2162999E+03  0.7818608E-02  0.1136672E+00
         21   -1    0    0  503  502  0.00000000000E+00  0.00000000000E+00  0.37932562647E+03  0.37932562647E+03  0.00000000000E+00 0.  1.
         21   -1    0    0  501  503 -0.00000000000E+00 -0.00000000000E+00 -0.14046097632E+03  0.14046097632E+03  0.00000000000E+00 0.  1.
          6    1    1    2  501    0  0.58452953077E+02 -0.11740916037E+03  0.28693389219E+02  0.21819479656E+03  0.17200000000E+03 0.  1.
         -6    1    1    2    0  502 -0.58452953077E+02  0.11740916037E+03  0.21017126094E+03  0.30159180623E+03  0.17200000000E+03 0.  1.
</event>
<event>
 4    1  0.2889985E+000  0.2211835E+03  0.7818608E-02  0.1133004E+00
         21   -1    0    0  503  502  0.00000000000E+00  0.00000000000E+00  0.17419651425E+04  0.17419651425E+04  0.00000000000E+00 0.  1.
         21   -1    0    0  501  503 -0.00000000000E+00 -0.00000000000E+00 -0.30655881402E+02  0.30655881402E+02  0.00000000000E+00 0.  1.
          6    1    1    2  501    0 -0.60212183736E+02  0.12534998298E+03  0.59895996794E+03  0.63849445456E+03  0.17200000000E+03 0.  1.
         -6    1    1    2    0  502  0.60212183736E+02 -0.12534998298E+03  0.11123492931E+04  0.11341265693E+04  0.17200000000E+03 0.  1.
</event>
<event>
 4    1  0.2889985E+000  0.2493399E+03  0.7818608E-02  0.1113723E+00
         21   -1    0    0  501  502  0.00000000000E+00  0.00000000000E+00  0.52030627323E+03  0.52030627323E+03  0.00000000000E+00 0.  1.
         21   -1    0    0  502  503 -0.00000000000E+00 -0.00000000000E+00 -0.16615828498E+03  0.16615828498E+03  0.00000000000E+00 0. -1.
          6    1    1    2  501    0 -0.17104347651E+03 -0.57710505545E+02  0.35898006572E+03  0.43707786594E+03  0.17200000000E+03 0.  1.
         -6    1    1    2    0  503  0.17104347651E+03  0.57710505545E+02 -0.48320774681E+01  0.24938669227E+03  0.17200000000E+03 0. -1.
</event>
<event>
 4    1  0.2889985E+000  0.1957781E+03  0.7818608E-02  0.1153351E+00
         21   -1    0    0  503  502  0.00000000000E+00  0.00000000000E+00  0.31260468516E+03  0.31260468516E+03  0.00000000000E+00 0. -1.
         21   -1    0    0  501  503 -0.00000000000E+00 -0.00000000000E+00 -0.19662805630E+03  0.19662805630E+03  0.00000000000E+00 0. -1.
          6    1    1    2  501    0  0.60028373739E+02  0.71705302123E+02 -0.98228158978E+02  0.21903841495E+03  0.17200000000E+03 0. -1.
         -6    1    1    2    0  502 -0.60028373739E+02 -0.71705302123E+02  0.21420478784E+03  0.29019432651E+03  0.17200000000E+03 0. -1.
</event>
<event>
 4    1  0.2889985E+000  0.1803254E+03  0.7818608E-02  0.1167489E+00
         21   -1    0    0  501  502  0.00000000000E+00  0.00000000000E+00  0.12785760115E+03  0.12785760115E+03  0.00000000000E+00 0. -1.
         21   -1    0    0  502  503 -0.00000000000E+00 -0.00000000000E+00 -0.32434040653E+03  0.32434040653E+03  0.00000000000E+00 0. -1.
          6    1    1    2  501    0 -0.49614488425E+02  0.21717284359E+02  0.68091838993E+01  0.18045388022E+03  0.17200000000E+03 0. -1.
         -6    1    1    2    0  503  0.49614488425E+02 -0.21717284359E+02 -0.20329198928E+03  0.27174412746E+03  0.17200000000E+03 0. -1.
</event>
<event>
 4    1  0.2889985E+000  0.1948419E+03  0.7818608E-02  0.1154165E+00
         21   -1    0    0  503  502  0.00000000000E+00  0.00000000000E+00  0.27461224225E+02  0.27461224225E+02  0.00000000000E+00 0.  1.
         21   -1    0    0  501  503 -0.00000000000E+00 -0.00000000000E+00 -0.14041556344E+04  0.14041556344E+04  0.00000000000E+00 0.  1.
          6    1    1    2  501    0  0.34164448171E+02 -0.84924307774E+02 -0.77737570530E+03  0.80142144641E+03  0.17200000000E+03 0.  1.
         -6    1    1    2    0  502 -0.34164448171E+02  0.84924307774E+02 -0.59931870488E+03  0.63019541223E+03  0.17200000000E+03 0.  1.
</event>
<event>
 4    1  0.2889985E+000  0.2243580E+03  0.7818608E-02  0.1130675E+00
         21   -1    0    0  501  502  0.00000000000E+00  0.00000000000E+00  0.18497018313E+04  0.18497018313E+04  0.00000000000E+00 0.  1.
         21   -1    0    0  502  503 -0.00000000000E+00 -0.00000000000E+00 -0.42601507838E+02  0.42601507838E+02  0.00000000000E+00 0.  1.
          6    1    1    2  501    0  0.67535001083E+02  0.12724590342E+03  0.14721965102E+04  0.14891940978E+04  0.17200000000E+03 0.  1.
         -6    1    1    2    0  503 -0.67535001083E+02 -0.12724590342E+03  0.33490381326E+03  0.40310924133E+03  0.17200000000E+03 0.  1.
</event>
<event>
 4    1  0.2889985E+000  0.2014669E+03  0.7818608E-02  0.1148507E+00
         21   -1    0    0  501  502  0.00000000000E+00  0.00000000000E+00  0.16632675027E+03  0.16632675027E+03  0.00000000000E+00 0. -1.
         21   -1    0    0  502  503 -0.00000000000E+00 -0.00000000000E+00 -0.24538304196E+03  0.24538304196E+03  0.00000000000E+00 0. -1.
          6    1    1    2  501    0 -0.99663071654E+02  0.32744231852E+02 -0.24248768919E+02  0.20292095842E+03  0.17200000000E+03 0. -1.
         -6    1    1    2    0  503  0.99663071654E+02 -0.32744231852E+02 -0.54807522776E+02  0.20878883381E+03  0.17200000000E+03 0. -1.
</event>
<event>
 4    1  0.2889985E+000  0.2720121E+03  0.7818608E-02  0.1100134E+00
         21   -1    0    0  503  502  0.00000000000E+00  0.00000000000E+00  0.97529023873E+03  0.97529023873E+03  0.00000000000E+00 0.  1.
         21   -1    0    0  501  503 -0.00000000000E+00 -0.00000000000E+00 -0.15432197185E+03  0.15432197185E+03  0.00000000000E+00 0.  1.
          6    1    1    2  501    0 -0.14632086517E+03 -0.15164687265E+03  0.77663820537E+01  0.27212292490E+03  0.17200000000E+03 0.  1.
         -6    1    1    2    0  502  0.14632086517E+03  0.15164687265E+03  0.81320188483E+03  0.85748928568E+03  0.17200000000E+03 0.  1.
</event>
<event>
 4    1  0.2889985E+000  0.1897601E+03  0.7818608E-02  0.1158678E+00
         21   -1    0    0  501  502  0.00000000000E+00  0.00000000000E+00  0.36758928132E+03  0.36758928132E+03  0.00000000000E+00 0.  1.
         21   -1    0    0  502  503 -0.00000000000E+00 -0.00000000000E+00 -0.11282103328E+03  0.11282103328E+03  0.00000000000E+00 0.  1.
          6    1    1    2  501    0 -0.78361192044E+02  0.16864282678E+02  0.21456442722E+03  0.28643808035E+03  0.17200000000E+03 0.  1.
         -6    1    1    2    0  503  0.78361192044E+02 -0.16864282678E+02  0.40203820826E+02  0.19397223424E+03  0.17200000000E+03 0.  1.
</event>
<event>
 4    1  0.2889985E+000  0.3292324E+03  0.7818608E-02  0.1071477E+00
         21   -1    0    0  503  502  0.00000000000E+00  0.00000000000E+00  0.21837791119E+04  0.21837791119E+04  0.00000000000E+00 0.  1.
         21   -1    0    0  501  503 -0.00000000000E+00 -0.00000000000E+00 -0.57489405590E+02  0.57489405590E+02  0.00000000000E+00 0. -1.
          6    1    1    2  501    0  0.22820387666E+03 -0.16350218207E+03  0.64895438251E+03  0.72769208011E+03  0.17200000000E+03 0. -1.
         -6    1    1    2    0  502 -0.22820387666E+03  0.16350218207E+03  0.14773353238E+04  0.15135764374E+04  0.17200000000E+03 0.  1.
</event>
<event>
 4    1  0.2889985E+000  0.3090715E+03  0.7818608E-02  0.1080792E+00
         21   -1    0    0  501  502  0.00000000000E+00  0.00000000000E+00  0.37935544909E+03  0.37935544909E+03  0.00000000000E+00 0.  1.
         21   -1    0    0  502  503 -0.00000000000E+00 -0.00000000000E+00 -0.46318589072E+03  0.46318589072E+03  0.00000000000E+00 0. -1.
          6    1    1    2  501    0 -0.21891081712E+03  0.13423571865E+03  0.24266987968E+03  0.39295527038E+03  0.17200000000E+03 0.  1.
         -6    1    1    2    0  503  0.21891081712E+03 -0.13423571865E+03 -0.32650032131E+03  0.44958606944E+03  0.17200000000E+03 0. -1.
</event>
<event>
 4    1  0.2889985E+000  0.1921615E+03  0.7818608E-02  0.1156526E+00
         21   -1    0    0  503  502  0.00000000000E+00  0.00000000000E+00  0.77338818537E+02  0.77338818537E+02  0.00000000000E+00 0. -1.
         21   -1    0    0  501  503 -0.00000000000E+00 -0.00000000000E+00 -0.74528808428E+03  0.74528808428E+03  0.00000000000E+00 0. -1.
          6    1    1    2  501    0 -0.36368163363E+02  0.77584806964E+02 -0.58054473747E+03  0.61152124884E+03  0.17200000000E+03 0. -1.
         -6    1    1    2    0  502  0.36368163363E+02 -0.77584806964E+02 -0.87404528271E+02  0.21110565398E+03  0.17200000000E+03 0. -1.
</event>
<event>
 4    1  0.2889985E+000  0.3322493E+03  0.7818608E-02  0.1070146E+00
         21   -1    0    0  503  502  0.00000000000E+00  0.00000000000E+00  0.14675585325E+03  0.14675585325E+03  0.00000000000E+00 0.  1.
         21   -1    0    0  501  503 -0.00000000000E+00 -0.00000000000E+00 -0.75678670289E+03  0.75678670289E+03  0.00000000000E+00 0. -1.
          6    1    1    2  501    0 -0.21757648894E+03 -0.18293741640E+03 -0.34018950952E+03  0.47551922068E+03  0.17200000000E+03 0.  1.
         -6    1    1    2    0  502  0.21757648894E+03  0.18293741640E+03 -0.26984134013E+03  0.42802333546E+03  0.17200000000E+03 0. -1.
</event>
<event>
 4    1  0.2889985E+000  0.2546726E+03  0.7818608E-02  0.1110387E+00
         21   -1    0    0  503  502  0.00000000000E+00  0.00000000000E+00  0.32815750261E+03  0.32815750261E+03  0.00000000000E+00 0.  1.
         21   -1    0    0  501  503 -0.00000000000E+00 -0.00000000000E+00 -0.32986380134E+03  0.32986380134E+03  0.00000000000E+00 0.  1.
          6    1    1    2  501    0 -0.10055547173E+03  0.15862758696E+03 -0.20915451461E+03  0.32955079308E+03  0.17200000000E+03 0.  1.
         -6    1    1    2    0  502  0.10055547173E+03 -0.15862758696E+03  0.20744821588E+03  0.32847051087E+03  0.17200000000E+03 0.  1.
</event>
<event>
 4    1  0.2889985E+000  0.2488913E+03  0.7818608E-02  0.1114007E+00
         21   -1    0    0  501  502  0.00000000000E+00  0.00000000000E+00  0.11511310557E+03  0.11511310557E+03  0.00000000000E+00 0. -1.
         21   -1    0    0  502  503 -0.00000000000E+00 -0.00000000000E+00 -0.81229830975E+03  0.81229830975E+03  0.00000000000E+00 0. -1.
          6    1    1    2  501    0  0.14760602911E+03 -0.10283654683E+03 -0.61798532828E+03  0.66622275642E+03  0.17200000000E+03 0. -1.
         -6    1    1    2    0  503 -0.14760602911E+03  0.10283654683E+03 -0.79199875896E+02  0.26118865890E+03  0.17200000000E+03 0. -1.
</event>
<event>
 4    1  0.2889985E+000  0.1916892E+03  0.7818608E-02  0.1156947E+00
         21   -1    0    0  503  502  0.00000000000E+00  0.00000000000E+00  0.34875943677E+03  0.34875943677E+03  0.00000000000E+00 0.  1.
         21   -1    0    0  501  503 -0.00000000000E+00 -0.00000000000E+00 -0.12552646054E+03  0.12552646054E+03  0.00000000000E+00 0.  1.
          6    1    1    2  501    0  0.14772829922E+02 -0.83321737627E+02  0.16561641621E+02  0.19240331712E+03  0.17200000000E+03 0.  1.
         -6    1    1    2    0  502 -0.14772829922E+02  0.83321737627E+02  0.20667133461E+03  0.28188258019E+03  0.17200000000E+03 0.  1.
</event>
<event>
 4    1  0.2889985E+000  0.1887631E+03  0.7818608E-02  0.1159582E+00
         21   -1    0    0  501  502  0.00000000000E+00  0.00000000000E+00  0.26114453407E+02  0.26114453407E+02  0.00000000000E+00 0. -1.
         21   -1    0    0  502  503 -0.00000000000E+00 -0.00000000000E+00 -0.24021635393E+04  0.24021635393E+04  0.00000000000E+00 0. -1.
          6    1    1    2  501    0 -0.77678406879E+02  0.36835536431E+01 -0.39001374295E+03  0.43329230682E+03  0.17200000000E+03 0. -1.
         -6    1    1    2    0  503  0.77678406879E+02 -0.36835536431E+01 -0.19860353430E+04  0.19949856859E+04  0.17200000000E+03 0. -1.
</event>
<event>
 4    1  0.2889985E+000  0.1875035E+03  0.7818608E-02  0.1160733E+00
         21   -1    0    0  501  502  0.00000000000E+00  0.00000000000E+00  0.15476752245E+03  0.15476752245E+03  0.00000000000E+00 0.  1.
         21   -1    0    0  502  503 -0.00000000000E+00 -0.00000000000E+00 -0.24600975149E+03  0.24600975149E+03  0.00000000000E+00 0.  1.
          6    1    1    2  501    0  0.59745253568E+02 -0.44766600373E+02  0.98425482710E+01  0.18776160308E+03  0.17200000000E+03 0.  1.
         -6    1    1    2    0  503 -0.59745253568E+02  0.44766600373E+02 -0.10108477731E+03  0.21301567087E+03  0.17200000000E+03 0.  1.
</event>
<event>
 4    1  0.2889985E+000  0.1867917E+03  0.7818608E-02  0.1161387E+00
         21   -1    0    0  501  502  0.00000000000E+00  0.00000000000E+00  0.67274767928E+03  0.67274767928E+03  0.00000000000E+00 0. -1.
         21   -1    0    0  502  503 -0.00000000000E+00 -0.00000000000E+00 -0.52928159697E+02  0.52928159697E+02  0.00000000000E+00 0. -1.
          6    1    1    2  501    0  0.70406431435E+02  0.18709838336E+02  0.36136766810E+03  0.40678952197E+03  0.17200000000E+03 0. -1.
         -6    1    1    2    0  503 -0.70406431435E+02 -0.18709838336E+02  0.25845185148E+03  0.31888631701E+03  0.17200000000E+03 0. -1.
</event>
<event>
 4    1  0.2889985E+000  0.1893935E+03  0.7818608E-02  0.1159010E+00
         21   -1    0    0  501  502  0.00000000000E+00  0.00000000000E+00  0.10749551382E+03  0.10749551382E+03  0.00000000000E+00 0. -1.
         21   -1    0    0  502  503 -0.00000000000E+00 -0.00000000000E+00 -0.33373676806E+03  0.33373676806E+03  0.00000000000E+00 0. -1.
          6    1    1    2  501    0  0.34710647674E+02  0.71281544518E+02 -0.11043464898E+03  0.21923890929E+03  0.17200000000E+03 0. -1.
         -6    1    1    2    0  503 -0.34710647674E+02 -0.71281544518E+02 -0.11580660527E+03  0.22199337259E+03  0.17200000000E+03 0. -1.
</event>
<event>
 4    1  0.2889985E+000  0.2237669E+03  0.7818608E-02  0.1131105E+00
         21   -1    0    0  501  502  0.00000000000E+00  0.00000000000E+00  0.23945279856E+03  0.23945279856E+03  0.00000000000E+00 0. -1.
         21   -1    0    0  502  503 -0.00000000000E+00 -0.00000000000E+00 -0.20915919754E+03  0.20915919754E+03  0.00000000000E+00 0.  1.
          6    1    1    2  501    0  0.40636536431E+02  0.13724544512E+03  0.11658191613E+02  0.22407042137E+03  0.17200000000E+03 0. -1.
         -6    1    1    2    0  503 -0.40636536431E+02 -0.13724544512E+03  0.18635409413E+02  0.22454157473E+03  0.17200000000E+03 0.  1.
</event>
<event>
 4    1  0.2889985E+000  0.1723525E+03  0.7818608E-02  0.1175417E+00
         21   -1    0    0  503  502  0.00000000000E+00  0.00000000000E+00  0.49957083479E+02  0.49957083479E+02  0.00000000000E+00 0.  1.
         21   -1    0    0  501  503 -0.00000000000E+00 -0.00000000000E+00 -0.62533454191E+03  0.62533454191E+03  0.00000000000E+00 0.  1.
          6    1    1    2  501    0  0.17106974449E+01 -0.10884333679E+02 -0.21285639053E+03  0.27388544721E+03  0.17200000000E+03 0.  1.
         -6    1    1    2    0  502 -0.17106974449E+01  0.10884333679E+02 -0.36252106790E+03  0.40140617817E+03  0.17200000000E+03 0.  1.
</event>
<event>
 4    1  0.2889985E+000  0.1928817E+03  0.7818608E-02  0.1155888E+00
         21   -1    0    0  501  502  0.00000000000E+00  0.00000000000E+00  0.27881200214E+04  0.27881200214E+04  0.00000000000E+00 0. -1.
         21   -1    0    0  502  503 -0.00000000000E+00 -0.00000000000E+00 -0.20487884175E+02  0.20487884175E+02  0.00000000000E+00 0. -1.
          6    1    1    2  501    0 -0.78481587357E+02  0.38209880178E+02  0.22130826147E+04  0.22214720376E+04  0.17200000000E+03 0. -1.
         -6    1    1    2    0  503  0.78481587357E+02 -0.38209880178E+02  0.55454952261E+03  0.58713586803E+03  0.17200000000E+03 0. -1.
</event>
<event>
 4    1  0.2889985E+000  0.2139582E+03  0.7818608E-02  0.1138469E+00
         21   -1    0    0  501  502  0.00000000000E+00  0.00000000000E+00  0.94593747924E+02  0.94593747924E+02  0.00000000000E+00 0. -1.
         21   -1    0    0  502  503 -0.00000000000E+00 -0.00000000000E+00 -0.54265751981E+03  0.54265751981E+03  0.00000000000E+00 0. -1.
          6    1    1    2  501    0 -0.44943027013E+02  0.11905555567E+03 -0.32883782877E+03  0.39231673255E+03  0.17200000000E+03 0.  1.
         -6    1    1    2    0  503  0.44943027013E+02 -0.11905555567E+03 -0.11922594312E+03  0.24493453518E+03  0.17200000000E+03 0.  1.
</event>
<event>
 4    1  0.2889985E+000  0.1753438E+03  0.7818608E-02  0.1172387E+00
         21   -1    0    0  503  502  0.00000000000E+00  0.00000000000E+00  0.14434957103E+03  0.14434957103E+03  0.00000000000E+00 0. -1.
         21   -1    0    0  501  503 -0.00000000000E+00 -0.00000000000E+00 -0.34204188808E+03  0.34204188808E+03  0.00000000000E+00 0. -1.
          6    1    1    2  501    0  0.33141869264E+02 -0.79421922212E+01 -0.24822643896E+03  0.30391088647E+03  0.17200000000E+03 0.  1.
         -6    1    1    2    0  502 -0.33141869264E+02  0.79421922212E+01  0.50534121907E+02  0.18248057264E+03  0.17200000000E+03 0.  1.
</event>
<event>
 4    1  0.2889985E+000  0.2694404E+03  0.7818608E-02  0.1101600E+00
         21   -1    0    0  501  502  0.00000000000E+00  0.00000000000E+00  0.88415918687E+03  0.88415918687E+03  0.00000000000E+00 0. -1.
         21   -1    0    0  502  503 -0.00000000000E+00 -0.00000000000E+00 -0.83355997825E+02  0.83355997825E+02  0.00000000000E+00 0.  1.
          6    1    1    2  501    0  0.13923072862E+03  0.15371698027E+03  0.34125109500E+03  0.43479928203E+03  0.17200000000E+03 0.  1.
         -6    1    1    2    0  503 -0.13923072862E+03 -0.15371698027E+03  0.45955209404E+03  0.53271590266E+03  0.17200000000E+03 0. -1.
</event>
<event>
 4    1  0.2889985E+000  0.1769718E+03  0.7818608E-02  0.1170766E+00
         21   -1    0    0  501  502  0.00000000000E+00  0.00000000000E+00  0.16117556890E+04  0.16117556890E+04  0.00000000000E+00 0. -1.
         21   -1    0    0  502  503 -0.00000000000E+00 -0.00000000000E+00 -0.20264620125E+02  0.20264620125E+02  0.00000000000E+00 0. -1.
          6    1    1    2  501    0  0.39986628595E+02 -0.11665685741E+02  0.96118904434E+03  0.97734507604E+03  0.17200000000E+03 0. -1.
         -6    1    1    2    0  503 -0.39986628595E+02  0.11665685741E+02  0.63030202456E+03  0.65467523311E+03  0.17200000000E+03 0. -1.
</event>
<event>
 4    1  0.2889985E+000  0.1963474E+03  0.7818608E-02  0.1152858E+00
         21   -1    0    0  503  502  0.00000000000E+00  0.00000000000E+00  0.20432061718E+03  0.20432061718E+03  0.00000000000E+00 0. -1.
         21   -1    0    0  501  503 -0.00000000000E+00 -0.00000000000E+00 -0.18875072560E+03  0.18875072560E+03  0.00000000000E+00 0. -1.
          6    1    1    2  501    0  0.47259492336E+02  0.82066098080E+02  0.41268487471E+01  0.19639077104E+03  0.17200000000E+03 0. -1.
         -6    1    1    2    0  502 -0.47259492336E+02 -0.82066098080E+02  0.11443042834E+02  0.19668057174E+03  0.17200000000E+03 0. -1.
</event>
<event>
 4    1  0.2889985E+000  0.2650103E+03  0.7818608E-02  0.1104170E+00
         21   -1    0    0  501  502  0.00000000000E+00  0.00000000000E+00  0.10910415000E+04  0.10910415000E+04  0.00000000000E+00 0. -1.
         21   -1    0    0  502  503 -0.00000000000E+00 -0.00000000000E+00 -0.65073105701E+02  0.65073105701E+02  0.00000000000E+00 0. -1.
          6    1    1    2  501    0 -0.19837972654E+03 -0.35943622184E+02  0.57306654326E+03  0.63137605505E+03  0.17200000000E+03 0. -1.
         -6    1    1    2    0  503  0.19837972654E+03  0.35943622184E+02  0.45290185108E+03  0.52473855070E+03  0.17200000000E+03 0. -1.
</event>
<event>
 4    1  0.2889985E+000  0.2447798E+03  0.7818608E-02  0.1116649E+00
         21   -1    0    0  501  502  0.00000000000E+00  0.00000000000E+00  0.28263758291E+03  0.28263758291E+03  0.00000000000E+00 0.  1.
         21   -1    0    0  502  503 -0.00000000000E+00 -0.00000000000E+00 -0.23418258122E+03  0.23418258122E+03  0.00000000000E+00 0.  1.
          6    1    1    2  501    0  0.34807523312E+02  0.17065052014E+03  0.10377153126E+03  0.26586781378E+03  0.17200000000E+03 0.  1.
         -6    1    1    2    0  503 -0.34807523312E+02 -0.17065052014E+03 -0.55316529569E+02  0.25095235035E+03  0.17200000000E+03 0.  1.
</event>
<event>
 4    1  0.2889985E+000  0.2228825E+03  0.7818608E-02  0.1131752E+00
         21   -1    0    0  503  502  0.00000000000E+00  0.00000000000E+00  0.24672001326E+03  0.24672001326E+03  0.00000000000E+00 0. -1.
         21   -1    0    0  501  503 -0.00000000000E+00 -0.00000000000E+00 -0.21554588630E+03  0.21554588630E+03  0.00000000000E+00 0. -1.
          6    1    1    2  501    0  0.87100952343E+02 -0.11183045971E+03 -0.43732912140E+02  0.22713254989E+03  0.17200000000E+03 0. -1.
         -6    1    1    2    0  502 -0.87100952343E+02  0.11183045971E+03  0.74907039099E+02  0.23513334966E+03  0.17200000000E+03 0. -1.
</event>
<event>
 4    1  0.2889985E+000  0.1960236E+03  0.7818608E-02  0.1153138E+00
         21   -1    0    0  503  502  0.00000000000E+00  0.00000000000E+00  0.26905559219E+03  0.26905559219E+03  0.00000000000E+00 0. -1.
         21   -1    0    0  501  503 -0.00000000000E+00 -0.00000000000E+00 -0.14321799488E+03  0.14321799488E+03  0.00000000000E+00 0. -1.
          6    1    1    2  501    0 -0.62977297969E+02  0.69822066948E+02  0.51988480761E+02  0.20280055035E+03  0.17200000000E+03 0. -1.
         -6    1    1    2    0  502  0.62977297969E+02 -0.69822066948E+02  0.73849116550E+02  0.20947303671E+03  0.17200000000E+03 0. -1.
</event>
<event>
 4    1  0.2889985E+000  0.2480125E+03  0.7818608E-02  0.1114567E+00
         21   -1    0    0  501  502  0.00000000000E+00  0.00000000000E+00  0.15566687054E+03  0.15566687054E+03  0.00000000000E+00 0.  1.
         21   -1    0    0  502  503 -0.00000000000E+00 -0.00000000000E+00 -0.49275229923E+03  0.49275229923E+03  0.00000000000E+00 0. -1.
          6    1    1    2  501    0 -0.12192469082E+03  0.13061611762E+03 -0.24243525758E+02  0.24919460057E+03  0.17200000000E+03 0.  1.
         -6    1    1    2    0  503  0.12192469082E+03 -0.13061611762E+03 -0.31284190294E+03  0.39922456919E+03  0.17200000000E+03 0. -1.
</event>
<event>
 4    1  0.2889985E+000  0.1827212E+03  0.7818608E-02  0.1165195E+00
         21   -1    0    0  501  502  0.00000000000E+00  0.00000000000E+00  0.73561887913E+02  0.73561887913E+02  0.00000000000E+00 0. -1.
         21   -1    0    0  502  503 -0.00000000000E+00 -0.00000000000E+00 -0.12202637954E+04  0.12202637954E+04  0.00000000000E+00 0. -1.
          6    1    1    2  501    0 -0.36701589823E+02  0.49558233238E+02 -0.60670382788E+02  0.19253031067E+03  0.17200000000E+03 0. -1.
         -6    1    1    2    0  503  0.36701589823E+02 -0.49558233238E+02 -0.10860315247E+04  0.11012953726E+04  0.17200000000E+03 0. -1.
</event>
<event>
 4    1  0.2889985E+000  0.1760146E+03  0.7818608E-02  0.1171717E+00
         21   -1    0    0  503  502  0.00000000000E+00  0.00000000000E+00  0.95180515297E+02  0.95180515297E+02  0.00000000000E+00 0. -1.
         21   -1    0    0  501  503 -0.00000000000E+00 -0.00000000000E+00 -0.44939620326E+03  0.44939620326E+03  0.00000000000E+00 0. -1.
          6    1    1    2  501    0  0.37325297549E+02 -0.19921707468E+01 -0.32007800989E+03  0.36528219091E+03  0.17200000000E+03 0. -1.
         -6    1    1    2    0  502 -0.37325297549E+02  0.19921707468E+01 -0.34137678080E+02  0.17929452765E+03  0.17200000000E+03 0. -1.
</event>
<event>
 4    1  0.2889985E+000  0.3090080E+03  0.7818608E-02  0.1080822E+00
         21   -1    0    0  501  502  0.00000000000E+00  0.00000000000E+00  0.58269016945E+03  0.58269016945E+03  0.00000000000E+00 0.  1.
         21   -1    0    0  502  503 -0.00000000000E+00 -0.00000000000E+00 -0.17310431032E+03  0.17310431032E+03  0.00000000000E+00 0.  1.
          6    1    1    2  501    0 -0.25269998411E+03 -0.45217667630E+02  0.29207048717E+03  0.42519535381E+03  0.17200000000E+03 0.  1.
         -6    1    1    2    0  503  0.25269998411E+03  0.45217667630E+02  0.11751537197E+03  0.33059912596E+03  0.17200000000E+03 0.  1.
</event>
<event>
 4    1  0.2889985E+000  0.1759389E+03  0.7818608E-02  0.1171792E+00
         21   -1    0    0  503  502  0.00000000000E+00  0.00000000000E+00  0.21253084307E+03  0.21253084307E+03  0.00000000000E+00 0. -1.
         21   -1    0    0  501  503 -0.00000000000E+00 -0.00000000000E+00 -0.27285487646E+03  0.27285487646E+03  0.00000000000E+00 0. -1.
          6    1    1    2  501    0 -0.34625248997E+02 -0.13098781995E+02 -0.19587177748E+03  0.26328736994E+03  0.17200000000E+03 0.  1.
         -6    1    1    2    0  502  0.34625248997E+02  0.13098781995E+02  0.13554774409E+03  0.22209834958E+03  0.17200000000E+03 0.  1.
</event>
<event>
 4    1  0.2889985E+000  0.2620474E+03  0.7818608E-02  0.1105919E+00
         21   -1    0    0  503  502  0.00000000000E+00  0.00000000000E+00  0.14271654837E+04  0.14271654837E+04  0.00000000000E+00 0. -1.
         21   -1    0    0  501  503 -0.00000000000E+00 -0.00000000000E+00 -0.75590046928E+02  0.75590046928E+02  0.00000000000E+00 0.  1.
          6    1    1    2  501    0  0.19552134398E+03 -0.29261841114E+02  0.11287801137E+04  0.11587982553E+04  0.17200000000E+03 0. -1.
         -6    1    1    2    0  502 -0.19552134398E+03  0.29261841114E+02  0.22279532306E+03  0.34395727536E+03  0.17200000000E+03 0.  1.
</event>
<event>
 4    1  0.2889985E+000  0.2718695E+03  0.7818608E-02  0.1100214E+00
         21   -1    0    0  503  502  0.00000000000E+00  0.00000000000E+00  0.89247495762E+02  0.89247495762E+02  0.00000000000E+00 0.  1.
         21   -1    0    0  501  503 -0.00000000000E+00 -0.00000000000E+00 -0.11059020247E+04  0.11059020247E+04  0.00000000000E+00 0.  1.
          6    1    1    2  501    0 -0.29057587311E+02 -0.20852983740E+03 -0.80778716957E+03  0.85231047617E+03  0.17200000000E+03 0.  1.
         -6    1    1    2    0  502  0.29057587311E+02  0.20852983740E+03 -0.20886735932E+03  0.34283904424E+03  0.17200000000E+03 0.  1.
</event>
<event>
 4    1  0.2889985E+000  0.2755893E+03  0.7818608E-02  0.1098123E+00
         21   -1    0    0  503  502  0.00000000000E+00  0.00000000000E+00  0.14898951890E+03  0.14898951890E+03  0.00000000000E+00 0.  1.
         21   -1    0    0  501  503 -0.00000000000E+00 -0.00000000000E+00 -0.56446506111E+03  0.56446506111E+03  0.00000000000E+00 0.  1.
          6    1    1    2  501    0 -0.76522974594E+02  0.20127024818E+03 -0.96688408977E+02  0.29205843058E+03  0.17200000000E+03 0.  1.
         -6    1    1    2    0  502  0.76522974594E+02 -0.20127024818E+03 -0.31878713323E+03  0.42139614943E+03  0.17200000000E+03 0.  1.
</event>
<event>
 4    1  0.2889985E+000  0.1924400E+03  0.7818608E-02  0.1156279E+00
         21   -1    0    0  503  502  0.00000000000E+00  0.00000000000E+00  0.10185121270E+04  0.10185121270E+04  0.00000000000E+00 0.  1.
         21   -1    0    0  501  503 -0.00000000000E+00 -0.00000000000E+00 -0.94001948148E+02  0.94001948148E+02  0.00000000000E+00 0. -1.
          6    1    1    2  501    0  0.69008442338E+02  0.51836092121E+02  0.26666743676E+02  0.19427882226E+03  0.17200000000E+03 0. -1.
         -6    1    1    2    0  502 -0.69008442338E+02 -0.51836092121E+02  0.89784343522E+03  0.91823525294E+03  0.17200000000E+03 0.  1.
</event>
<event>
 4    1  0.2889985E+000  0.1839229E+03  0.7818608E-02  0.1164060E+00
         21   -1    0    0  501  502  0.00000000000E+00  0.00000000000E+00  0.90595605790E+02  0.90595605790E+02  0.00000000000E+00 0.  1.
         21   -1    0    0  502  503 -0.00000000000E+00 -0.00000000000E+00 -0.37495744743E+03  0.37495744743E+03  0.00000000000E+00 0.  1.
          6    1    1    2  501    0 -0.55763028999E+02  0.33676543076E+02 -0.15722422313E+03  0.24196504147E+03  0.17200000000E+03 0.  1.
         -6    1    1    2    0  503  0.55763028999E+02 -0.33676543076E+02 -0.12713761851E+03  0.22358801175E+03  0.17200000000E+03 0.  1.
</event>
<event>
 4    1  0.2889985E+000  0.1745025E+03  0.7818608E-02  0.1173232E+00
         21   -1    0    0  501  502  0.00000000000E+00  0.00000000000E+00  0.18385013851E+03  0.18385013851E+03  0.00000000000E+00 0.  1.
         21   -1    0    0  502  503 -0.00000000000E+00 -0.00000000000E+00 -0.17862580203E+03  0.17862580203E+03  0.00000000000E+00 0.  1.
          6    1    1    2  501    0  0.16699917703E+02 -0.24253908491E+02 -0.46272753185E+02  0.18053339585E+03  0.17200000000E+03 0.  1.
         -6    1    1    2    0  503 -0.16699917703E+02  0.24253908491E+02  0.51497089667E+02  0.18194254470E+03  0.17200000000E+03 0.  1.
</event>
<event>
 4    1  0.2889985E+000  0.1819727E+03  0.7818608E-02  0.1165907E+00
         21   -1    0    0  503  502  0.00000000000E+00  0.00000000000E+00  0.19413702095E+03  0.19413702095E+03  0.00000000000E+00 0.  1.
         21   -1    0    0  501  503 -0.00000000000E+00 -0.00000000000E+00 -0.42061802304E+03  0.42061802304E+03  0.00000000000E+00 0.  1.
          6    1    1    2  501    0 -0.35309809251E+02 -0.47783608408E+02 -0.35023562607E+03  0.39468854763E+03  0.17200000000E+03 0.  1.
         -6    1    1    2    0  502  0.35309809251E+02  0.47783608408E+02  0.12375462398E+03  0.22006649636E+03  0.17200000000E+03 0.  1.
</event>
<event>
 4    1  0.2889985E+000  0.2719489E+03  0.7818608E-02  0.1100169E+00
         21   -1    0    0  503  502  0.00000000000E+00  0.00000000000E+00  0.12767397367E+03  0.12767397367E+03  0.00000000000E+00 0. -1.
         21   -1    0    0  501  503 -0.00000000000E+00 -0.00000000000E+00 -0.58631936371E+03  0.58631936371E+03  0.00000000000E+00 0.  1.
          6    1    1    2  501    0 -0.94495183824E+02  0.18826270549E+03 -0.19014511335E+03  0.33183030328E+03  0.17200000000E+03 0. -1.
         -6    1    1    2    0  502  0.94495183824E+02 -0.18826270549E+03 -0.26850027669E+03  0.38216303409E+03  0.17200000000E+03 0. -1.
</event>
<event>
 4    1  0.2889985E+000  0.1920887E+03  0.7818608E-02  0.1156591E+00
         21   -1    0    0  503  502  0.00000000000E+00  0.00000000000E+00  0.32977874786E+03  0.32977874786E+03  0.00000000000E+00 0.  1.
         21   -1    0    0  501  503 -0.00000000000E+00 -0.00000000000E+00 -0.18712705309E+03  0.18712705309E+03  0.00000000000E+00 0.  1.
          6    1    1    2  501    0  0.72188665432E+02 -0.45857087002E+02 -0.92558172522E+02  0.21322544676E+03  0.17200000000E+03 0.  1.
         -6    1    1    2    0  502 -0.72188665432E+02  0.45857087002E+02  0.23520986730E+03  0.30368035419E+03  0.17200000000E+03 0.  1.
</event>
<event>
 4    1  0.2889985E+000  0.3582625E+03  0.7818608E-02  0.1059274E+00
         21   -1    0    0  503  502  0.00000000000E+00  0.00000000000E+00  0.17786314212E+04  0.17786314212E+04  0.00000000000E+00 0.  1.
         21   -1    0    0  501  503 -0.00000000000E+00 -0.00000000000E+00 -0.80967516128E+02  0.80967516128E+02  0.00000000000E+00 0. -1.
          6    1    1    2  501    0  0.31792756714E+02  0.31266155663E+03  0.54222808349E+03  0.64989485527E+03  0.17200000000E+03 0.  1.
         -6    1    1    2    0  502 -0.31792756714E+02 -0.31266155663E+03  0.11554358216E+04  0.12097040821E+04  0.17200000000E+03 0.  1.
</event>
<event>
 4    1  0.2889985E+000  0.2031888E+03  0.7818608E-02  0.1147076E+00
         21   -1    0    0  501  502  0.00000000000E+00  0.00000000000E+00  0.74123538385E+02  0.74123538385E+02  0.00000000000E+00 0.  1.
         21   -1    0    0  502  503 -0.00000000000E+00 -0.00000000000E+00 -0.69686244601E+03  0.69686244601E+03  0.00000000000E+00 0. -1.
          6    1    1    2  501    0  0.63955263875E+02  0.87243329283E+02 -0.13865951819E+03  0.24599214676E+03  0.17200000000E+03 0.  1.
         -6    1    1    2    0  503 -0.63955263875E+02 -0.87243329283E+02 -0.48407938943E+03  0.52499383764E+03  0.17200000000E+03 0. -1.
</event>
<event>
 4    1  0.2889985E+000  0.1776104E+03  0.7818608E-02  0.1170136E+00
         21   -1    0    0  503  502  0.00000000000E+00  0.00000000000E+00  0.14845218262E+04  0.14845218262E+04  0.00000000000E+00 0.  1.
         21   -1    0    0  501  503 -0.00000000000E+00 -0.00000000000E+00 -0.24076222461E+02  0.24076222461E+02  0.00000000000E+00 0.  1.
          6    1    1    2  501    0 -0.42596917993E+02 -0.12123099971E+02  0.47176792873E+03  0.50409368727E+03  0.17200000000E+03 0. -1.
         -6    1    1    2    0  502  0.42596917993E+02  0.12123099971E+02  0.98867767502E+03  0.10045043614E+04  0.17200000000E+03 0. -1.
</event>
<event>
 4    1  0.2889985E+000  0.2835616E+03  0.7818608E-02  0.1093759E+00
         21   -1    0    0  501  502  0.00000000000E+00  0.00000000000E+00  0.59300095235E+03  0.59300095235E+03  0.00000000000E+00 0.  1.
         21   -1    0    0  502  503 -0.00000000000E+00 -0.00000000000E+00 -0.22359249134E+03  0.22359249134E+03  0.00000000000E+00 0.  1.
          6    1    1    2  501    0  0.22122231172E+03 -0.43403550420E+02  0.44084912076E+03  0.52417089453E+03  0.17200000000E+03 0.  1.
         -6    1    1    2    0  503 -0.22122231172E+03  0.43403550420E+02 -0.71440659747E+02  0.29242254916E+03  0.17200000000E+03 0.  1.
</event>
<event>
 4    1  0.2889985E+000  0.2108075E+03  0.7818608E-02  0.1140928E+00
         21   -1    0    0  503  502  0.00000000000E+00  0.00000000000E+00  0.80441768844E+03  0.80441768844E+03  0.00000000000E+00 0.  1.
         21   -1    0    0  501  503 -0.00000000000E+00 -0.00000000000E+00 -0.90698727517E+02  0.90698727517E+02  0.00000000000E+00 0. -1.
          6    1    1    2  501    0 -0.76017679957E+02  0.95273895868E+02  0.77037515796E+02  0.22444282510E+03  0.17200000000E+03 0. -1.
         -6    1    1    2    0  502  0.76017679957E+02 -0.95273895868E+02  0.63668144513E+03  0.67067359085E+03  0.17200000000E+03 0.  1.
</event>
<event>
 4    1  0.2889985E+000  0.1932378E+03  0.7818608E-02  0.1155573E+00
         21   -1    0    0  501  502  0.00000000000E+00  0.00000000000E+00  0.66995835552E+02  0.66995835552E+02  0.00000000000E+00 0. -1.
         21   -1    0    0  502  503 -0.00000000000E+00 -0.00000000000E+00 -0.55759101467E+03  0.55759101467E+03  0.00000000000E+00 0. -1.
          6    1    1    2  501    0 -0.66460115137E+02  0.57791976493E+02 -0.25164174152E+03  0.31727657576E+03  0.17200000000E+03 0. -1.
         -6    1    1    2    0  503  0.66460115137E+02 -0.57791976493E+02 -0.23895343761E+03  0.30731027447E+03  0.17200000000E+03 0. -1.
</event>
<event>
 4    1  0.2889985E+000  0.2428508E+03  0.7818608E-02  0.1117908E+00
         21   -1    0    0  501  502  0.00000000000E+00  0.00000000000E+00  0.12675498530E+04  0.12675498530E+04  0.00000000000E+00 0.  1.
         21   -1    0    0  502  503 -0.00000000000E+00 -0.00000000000E+00 -0.47592638964E+02  0.47592638964E+02  0.00000000000E+00 0.  1.
          6    1    1    2  501    0  0.11898145699E+03  0.12343396292E+03  0.70832961286E+03  0.74880396017E+03  0.17200000000E+03 0.  1.
         -6    1    1    2    0  503 -0.11898145699E+03 -0.12343396292E+03  0.51162760115E+03  0.56633853178E+03  0.17200000000E+03 0.  1.
</event>
<event>
 4    1  0.2889985E+000  0.1748273E+03  0.7818608E-02  0.1172905E+00
         21   -1    0    0  503  502  0.00000000000E+00  0.00000000000E+00  0.42918391598E+03  0.42918391598E+03  0.00000000000E+00 0.  1.
         21   -1    0    0  501  503 -0.00000000000E+00 -0.00000000000E+00 -0.10732967639E+03  0.10732967639E+03  0.00000000000E+00 0.  1.
          6    1    1    2  501    0  0.12645359090E+02 -0.28647719613E+02  0.31653406738E+03  0.36160532733E+03  0.17200000000E+03 0.  1.
         -6    1    1    2    0  502 -0.12645359090E+02  0.28647719613E+02  0.53201722171E+01  0.17490826504E+03  0.17200000000E+03 0.  1.
</event>
<event>
 4    1  0.2889985E+000  0.2392215E+03  0.7818608E-02  0.1120313E+00
         21   -1    0    0  501  502  0.00000000000E+00  0.00000000000E+00  0.66240617275E+03  0.66240617275E+03  0.00000000000E+00 0.  1.
         21   -1    0    0  502  503 -0.00000000000E+00 -0.00000000000E+00 -0.86800973776E+02  0.86800973776E+02  0.00000000000E+00 0. -1.
          6    1    1    2  501    0 -0.16602757159E+03 -0.88192085499E+01  0.31349978364E+03  0.39434635450E+03  0.17200000000E+03 0. -1.
         -6    1    1    2    0  503  0.16602757159E+03  0.88192085499E+01  0.26210541533E+03  0.35486079202E+03  0.17200000000E+03 0.  1.
</event>
<event>
 4    1  0.2889985E+000  0.1862176E+03  0.7818608E-02  0.1161918E+00
         21   -1    0    0  503  502  0.00000000000E+00  0.00000000000E+00  0.11797472577E+03  0.11797472577E+03  0.00000000000E+00 0. -1.
         21   -1    0    0  501  503 -0.00000000000E+00 -0.00000000000E+00 -0.44814072322E+03  0.44814072322E+03  0.00000000000E+00 0. -1.
          6    1    1    2  501    0  0.67751407635E+02  0.22422287343E+02  0.95853061171E+00  0.18622011435E+03  0.17200000000E+03 0.  1.
         -6    1    1    2    0  502 -0.67751407635E+02 -0.22422287343E+02 -0.33112452806E+03  0.37989533465E+03  0.17200000000E+03 0.  1.
</event>
<event>
 4    1  0.2889985E+000  0.2030181E+03  0.7818608E-02  0.1147217E+00
         21   -1    0    0  503  502  0.00000000000E+00  0.00000000000E+00  0.86744620403E+03  0.86744620403E+03  0.00000000000E+00 0. -1.
         21   -1    0    0  501  503 -0.00000000000E+00 -0.00000000000E+00 -0.53563900776E+02  0.53563900776E+02  0.00000000000E+00 0.  1.
          6    1    1    2  501    0 -0.67926546702E+02  0.83775412000E+02  0.56169871510E+03  0.59726190398E+03  0.17200000000E+03 0. -1.
         -6    1    1    2    0  502  0.67926546702E+02 -0.83775412000E+02  0.25218358816E+03  0.32374820083E+03  0.17200000000E+03 0. -1.
</event>
<event>
 4    1  0.2889985E+000  0.1904648E+03  0.7818608E-02  0.1158043E+00
         21   -1    0    0  503  502  0.00000000000E+00  0.00000000000E+00  0.97041410642E+02  0.97041410642E+02  0.00000000000E+00 0.  1.
         21   -1    0    0  501  503 -0.00000000000E+00 -0.00000000000E+00 -0.61381636360E+03  0.61381636360E+03  0.00000000000E+00 0.  1.
          6    1    1    2  501    0 -0.62980688636E+02 -0.52213821065E+02 -0.48063047162E+03  0.51699371418E+03  0.17200000000E+03 0.  1.
         -6    1    1    2    0  502  0.62980688636E+02  0.52213821065E+02 -0.36144481334E+02  0.19386406006E+03  0.17200000000E+03 0.  1.
</event>
<event>
 4    1  0.2889985E+000  0.2148031E+03  0.7818608E-02  0.1137818E+00
         21   -1    0    0  501  502  0.00000000000E+00  0.00000000000E+00  0.17358246699E+03  0.17358246699E+03  0.00000000000E+00 0. -1.
         21   -1    0    0  502  503 -0.00000000000E+00 -0.00000000000E+00 -0.26730010754E+03  0.26730010754E+03  0.00000000000E+00 0.  1.
          6    1    1    2  501    0  0.38986010289E+02 -0.12262327243E+03 -0.30413249002E+02  0.21694548083E+03  0.17200000000E+03 0. -1.
         -6    1    1    2    0  503 -0.38986010289E+02  0.12262327243E+03 -0.63304391548E+02  0.22393709369E+03  0.17200000000E+03 0.  1.
</event>
<event>
 4    1  0.2889985E+000  0.1785337E+03  0.7818608E-02  0.1169230E+00
         21   -1    0    0  503  502  0.00000000000E+00  0.00000000000E+00  0.13435970756E+03  0.13435970756E+03  0.00000000000E+00 0.  1.
         21   -1    0    0  501  503 -0.00000000000E+00 -0.00000000000E+00 -0.24676534383E+03  0.24676534383E+03  0.00000000000E+00 0.  1.
          6    1    1    2  501    0  0.41595148296E+02 -0.23666632430E+02 -0.93660814171E+02  0.20161005422E+03  0.17200000000E+03 0.  1.
         -6    1    1    2    0  502 -0.41595148296E+02  0.23666632430E+02 -0.18744822104E+02  0.17951499717E+03  0.17200000000E+03 0.  1.
</event>
<event>
 4    1  0.2889985E+000  0.2230842E+03  0.7818608E-02  0.1131604E+00
         21   -1    0    0  501  502  0.00000000000E+00  0.00000000000E+00  0.40809970854E+03  0.40809970854E+03  0.00000000000E+00 0.  1.
         21   -1    0    0  502  503 -0.00000000000E+00 -0.00000000000E+00 -0.16307516591E+03  0.16307516591E+03  0.00000000000E+00 0.  1.
          6    1    1    2  501    0 -0.68243651396E+02  0.12460082463E+03  0.26593385572E+03  0.34711291689E+03  0.17200000000E+03 0.  1.
         -6    1    1    2    0  503  0.68243651396E+02 -0.12460082463E+03 -0.20909313089E+02  0.22406195756E+03  0.17200000000E+03 0.  1.
</event>
<event>
 4    1  0.2889985E+000  0.2541170E+03  0.7818608E-02  0.1110730E+00
         21   -1    0    0  501  502  0.00000000000E+00  0.00000000000E+00  0.59040074956E+03  0.59040074956E+03  0.00000000000E+00 0. -1.
         21   -1    0    0  502  503 -0.00000000000E+00 -0.00000000000E+00 -0.16460043305E+03  0.16460043305E+03  0.00000000000E+00 0.  1.
          6    1    1    2  501    0 -0.21067896473E+02  0.18586977655E+03  0.43156018462E+03  0.50081895236E+03  0.17200000000E+03 0. -1.
         -6    1    1    2    0  503  0.21067896473E+02 -0.18586977655E+03 -0.57598681135E+01  0.25418223025E+03  0.17200000000E+03 0.  1.
</event>
<event>
 4    1  0.2889985E+000  0.1825039E+03  0.7818608E-02  0.1165402E+00
         21   -1    0    0  501  502  0.00000000000E+00  0.00000000000E+00  0.73787013421E+02  0.73787013421E+02  0.00000000000E+00 0. -1.
         21   -1    0    0  502  503 -0.00000000000E+00 -0.00000000000E+00 -0.12765951070E+04  0.12765951070E+04  0.00000000000E+00 0. -1.
          6    1    1    2  501    0  0.52496388032E+02 -0.31109404798E+02 -0.58556754291E+02  0.19166783584E+03  0.17200000000E+03 0. -1.
         -6    1    1    2    0  503 -0.52496388032E+02  0.31109404798E+02 -0.11442513393E+04  0.11587142846E+04  0.17200000000E+03 0. -1.
</event>
<event>
 4    1  0.2889985E+000  0.2261214E+03  0.7818608E-02  0.1129400E+00
         21   -1    0    0  503  502  0.00000000000E+00  0.00000000000E+00  0.25641788730E+03  0.25641788730E+03  0.00000000000E+00 0. -1.
         21   -1    0    0  501  503 -0.00000000000E+00 -0.00000000000E+00 -0.20014056871E+03  0.20014056871E+03  0.00000000000E+00 0. -1.
          6    1    1    2  501    0  0.14678841855E+03 -0.23712475671E+00  0.14295339751E+02  0.22657284212E+03  0.17200000000E+03 0. -1.
         -6    1    1    2    0  502 -0.14678841855E+03  0.23712475671E+00  0.41981978835E+02  0.22998561389E+03  0.17200000000E+03 0. -1.
</event>
<event>
 4    1  0.2889985E+000  0.1970453E+03  0.7818608E-02  0.1152256E+00
         21   -1    0    0  503  502  0.00000000000E+00  0.00000000000E+00  0.54222025015E+03  0.54222025015E+03  0.00000000000E+00 0. -1.
         21   -1    0    0  501  503 -0.00000000000E+00 -0.00000000000E+00 -0.91054322635E+02  0.91054322635E+02  0.00000000000E+00 0. -1.
          6    1    1    2  501    0 -0.74380049185E+02 -0.60913399460E+02  0.79250639737E+02  0.21238525808E+03  0.17200000000E+03 0. -1.
         -6    1    1    2    0  502  0.74380049185E+02  0.60913399460E+02  0.37191528778E+03  0.42088931471E+03  0.17200000000E+03 0. -1.
</event>
<event>
 4    1  0.2889985E+000  0.2076660E+03  0.7818608E-02  0.1143428E+00
         21   -1    0    0  503  502  0.00000000000E+00  0.00000000000E+00  0.11796987893E+03  0.11796987893E+03  0.00000000000E+00 0.  1.
         21   -1    0    0  501  503 -0.00000000000E+00 -0.00000000000E+00 -0.41239735201E+03  0.41239735201E+03  0.00000000000E+00 0. -1.
          6    1    1    2  501    0  0.96352962402E+02  0.65247659490E+02 -0.57845802600E+02  0.21557200029E+03  0.17200000000E+03 0. -1.
         -6    1    1    2    0  502 -0.96352962402E+02 -0.65247659490E+02 -0.23658167048E+03  0.31479523065E+03  0.17200000000E+03 0. -1.
</event>
<event>
 4    1  0.2889985E+000  0.2358596E+03  0.7818608E-02  0.1122582E+00
         21   -1    0    0  503  502  0.00000000000E+00  0.00000000000E+00  0.91133338030E+02  0.91133338030E+02  0.00000000000E+00 0.  1.
         21   -1    0    0  501  503 -0.00000000000E+00 -0.00000000000E+00 -0.77128747678E+03  0.77128747678E+03  0.00000000000E+00 0. -1.
          6    1    1    2  501    0  0.12092460429E+02 -0.16093322024E+03 -0.53700779879E+03  0.58652118882E+03  0.17200000000E+03 0. -1.
         -6    1    1    2    0  502 -0.12092460429E+02  0.16093322024E+03 -0.14314633996E+03  0.27589962599E+03  0.17200000000E+03 0.  1.
</event>
<event>
 4    1  0.2889985E+000  0.2036000E+03  0.7818608E-02  0.1146737E+00
         21   -1    0    0  503  502  0.00000000000E+00  0.00000000000E+00  0.57881543827E+03  0.57881543827E+03  0.00000000000E+00 0. -1.
         21   -1    0    0  501  503 -0.00000000000E+00 -0.00000000000E+00 -0.21682616388E+03  0.21682616388E+03  0.00000000000E+00 0. -1.
          6    1    1    2  501    0  0.85021154314E+02  0.68120067847E+02 -0.14456374090E+03  0.24970305466E+03  0.17200000000E+03 0. -1.
         -6    1    1    2    0  502 -0.85021154314E+02 -0.68120067847E+02  0.50655301530E+03  0.54593854749E+03  0.17200000000E+03 0. -1.
</event>
<event>
 4    1  0.2889985E+000  0.1850492E+03  0.7818608E-02  0.1163004E+00
         21   -1    0    0  501  502  0.00000000000E+00  0.00000000000E+00  0.22357735394E+02  0.22357735394E+02  0.00000000000E+00 0. -1.
         21   -1    0    0  502  503 -0.00000000000E+00 -0.00000000000E+00 -0.23372795254E+04  0.23372795254E+04  0.00000000000E+00 0. -1.
          6    1    1    2  501    0 -0.62006655467E+02 -0.28537545484E+02 -0.46476953852E+03  0.50025387631E+03  0.17200000000E+03 0. -1.
         -6    1    1    2    0  503  0.62006655467E+02  0.28537545484E+02 -0.18501522515E+04  0.18593833845E+04  0.17200000000E+03 0. -1.
</event>
<event>
 4    1  0.2889985E+000  0.1836365E+03  0.7818608E-02  0.1164329E+00
         21   -1    0    0  503  502  0.00000000000E+00  0.00000000000E+00  0.34585229589E+03  0.34585229589E+03  0.00000000000E+00 0.  1.
         21   -1    0    0  501  503 -0.00000000000E+00 -0.00000000000E+00 -0.99395183669E+02  0.99395183669E+02  0.00000000000E+00 0.  1.
          6    1    1    2  501    0 -0.42878808221E+02 -0.47955977912E+02  0.92529321152E+02  0.20563084225E+03  0.17200000000E+03 0.  1.
         -6    1    1    2    0  502  0.42878808221E+02  0.47955977912E+02  0.15392779107E+03  0.23961663731E+03  0.17200000000E+03 0.  1.
</event>
<event>
 4    1  0.2889985E+000  0.3996883E+03  0.7818608E-02  0.1043888E+00
         21   -1    0    0  501  502  0.00000000000E+00  0.00000000000E+00  0.26732475900E+03  0.26732475900E+03  0.00000000000E+00 0. -1.
         21   -1    0    0  502  503 -0.00000000000E+00 -0.00000000000E+00 -0.63959143030E+03  0.63959143030E+03  0.00000000000E+00 0.  1.
          6    1    1    2  501    0 -0.24029196549E+03  0.26912173152E+03 -0.69930875780E+02  0.40575985810E+03  0.17200000000E+03 0. -1.
         -6    1    1    2    0  503  0.24029196549E+03 -0.26912173152E+03 -0.30233579552E+03  0.50115633121E+03  0.17200000000E+03 0. -1.
</event>
<event>
 4    1  0.2889985E+000  0.2055255E+03  0.7818608E-02  0.1145159E+00
         21   -1    0    0  503  502  0.00000000000E+00  0.00000000000E+00  0.32465641691E+03  0.32465641691E+03  0.00000000000E+00 0.  1.
         21   -1    0    0  501  503 -0.00000000000E+00 -0.00000000000E+00 -0.65293381360E+03  0.65293381360E+03  0.00000000000E+00 0.  1.
          6    1    1    2  501    0  0.93799860336E+02  0.62115226781E+02 -0.60153024083E+03  0.63567235730E+03  0.17200000000E+03 0.  1.
         -6    1    1    2    0  502 -0.93799860336E+02 -0.62115226781E+02  0.27325284414E+03  0.34191787322E+03  0.17200000000E+03 0.  1.
</event>
<event>
 4    1  0.2889985E+000  0.2560580E+03  0.7818608E-02  0.1109535E+00
         21   -1    0    0  501  502  0.00000000000E+00  0.00000000000E+00  0.14907632134E+03  0.14907632134E+03  0.00000000000E+00 0.  1.
         21   -1    0    0  502  503 -0.00000000000E+00 -0.00000000000E+00 -0.95861904177E+03  0.95861904177E+03  0.00000000000E+00 0.  1.
          6    1    1    2  501    0 -0.18889351494E+03 -0.17347711084E+02  0.26744270190E+01  0.25607197353E+03  0.17200000000E+03 0.  1.
         -6    1    1    2    0  503  0.18889351494E+03  0.17347711084E+02 -0.81221714745E+03  0.85162338958E+03  0.17200000000E+03 0.  1.
</event>
<event>
 4    1  0.2889985E+000  0.2031918E+03  0.7818608E-02  0.1147074E+00
         21   -1    0    0  501  502  0.00000000000E+00  0.00000000000E+00  0.43126775393E+03  0.43126775393E+03  0.00000000000E+00 0. -1.
         21   -1    0    0  502  503 -0.00000000000E+00 -0.00000000000E+00 -0.23693832337E+03  0.23693832337E+03  0.00000000000E+00 0. -1.
          6    1    1    2  501    0  0.10507442537E+03  0.25734959564E+02  0.35508588862E+03  0.40911234558E+03  0.17200000000E+03 0. -1.
         -6    1    1    2    0  503 -0.10507442537E+03 -0.25734959564E+02 -0.16075645806E+03  0.25909373172E+03  0.17200000000E+03 0. -1.
</event>
<event>
 4    1  0.2889985E+000  0.2098282E+03  0.7818608E-02  0.1141702E+00
         21   -1    0    0  501  502  0.00000000000E+00  0.00000000000E+00  0.22522635581E+03  0.22522635581E+03  0.00000000000E+00 0.  1.
         21   -1    0    0  502  503 -0.00000000000E+00 -0.00000000000E+00 -0.22599679603E+03  0.22599679603E+03  0.00000000000E+00 0. -1.
          6    1    1    2  501    0 -0.56707402726E+02  0.10596290683E+03  0.82515851545E+02  0.22547002662E+03  0.17200000000E+03 0.  1.
         -6    1    1    2    0  503  0.56707402726E+02 -0.10596290683E+03 -0.83286291766E+02  0.22575312521E+03  0.17200000000E+03 0. -1.
</event>
<event>
 4    1  0.2889985E+000  0.1866859E+03  0.7818608E-02  0.1161485E+00
         21   -1    0    0  501  502  0.00000000000E+00  0.00000000000E+00  0.18179019855E+03  0.18179019855E+03  0.00000000000E+00 0.  1.
         21   -1    0    0  502  503 -0.00000000000E+00 -0.00000000000E+00 -0.31803684481E+03  0.31803684481E+03  0.00000000000E+00 0. -1.
          6    1    1    2  501    0 -0.62696330254E+02  0.36562064790E+02  0.89381204095E+02  0.20697974310E+03  0.17200000000E+03 0.  1.
         -6    1    1    2    0  503  0.62696330254E+02 -0.36562064790E+02 -0.22562785036E+03  0.29284730026E+03  0.17200000000E+03 0. -1.
</event>
<event>
 4    1  0.2889985E+000  0.2348824E+03  0.7818608E-02  0.1123250E+00
         21   -1    0    0  503  502  0.00000000000E+00  0.00000000000E+00  0.13330755771E+03  0.13330755771E+03  0.00000000000E+00 0.  1.
         21   -1    0    0  501  503 -0.00000000000E+00 -0.00000000000E+00 -0.50502162790E+03  0.50502162790E+03  0.00000000000E+00 0.  1.
          6    1    1    2  501    0  0.74716212652E+02 -0.14143280755E+03 -0.32146402957E+03  0.39813172919E+03  0.17200000000E+03 0.  1.
         -6    1    1    2    0  502 -0.74716212652E+02  0.14143280755E+03 -0.50250040631E+02  0.24019745642E+03  0.17200000000E+03 0.  1.
</event>
<event>
 4    1  0.2889985E+000  0.1838293E+03  0.7818608E-02  0.1164148E+00
         21   -1    0    0  503  502  0.00000000000E+00  0.00000000000E+00  0.19710619207E+03  0.19710619207E+03  0.00000000000E+00 0. -1.
         21   -1    0    0  501  503 -0.00000000000E+00 -0.00000000000E+00 -0.17894067492E+03  0.17894067492E+03  0.00000000000E+00 0.  1.
          6    1    1    2  501    0  0.64165254655E+02 -0.95935237312E+01 -0.29395213589E+02  0.18616469640E+03  0.17200000000E+03 0.  1.
         -6    1    1    2    0  502 -0.64165254655E+02  0.95935237312E+01  0.47560730740E+02  0.18988217060E+03  0.17200000000E+03 0. -1.
</event>
<event>
 4    1  0.2889985E+000  0.1731497E+03  0.7818608E-02  0.1174602E+00
         21   -1    0    0  501  502  0.00000000000E+00  0.00000000000E+00  0.84619133233E+03  0.84619133233E+03  0.00000000000E+00 0. -1.
         21   -1    0    0  502  503 -0.00000000000E+00 -0.00000000000E+00 -0.40517241165E+02  0.40517241165E+02  0.00000000000E+00 0. -1.
          6    1    1    2  501    0 -0.69293038116E+01 -0.18676465011E+02  0.55993071663E+03  0.58609148861E+03  0.17200000000E+03 0. -1.
         -6    1    1    2    0  503  0.69293038116E+01  0.18676465011E+02  0.24574337454E+03  0.30061708489E+03  0.17200000000E+03 0. -1.
</event>
<event>
 4    1  0.2889985E+000  0.1753371E+03  0.7818608E-02  0.1172394E+00
         21   -1    0    0  503  502  0.00000000000E+00  0.00000000000E+00  0.11598453087E+03  0.11598453087E+03  0.00000000000E+00 0. -1.
         21   -1    0    0  501  503 -0.00000000000E+00 -0.00000000000E+00 -0.40907379052E+03  0.40907379052E+03  0.00000000000E+00 0. -1.
          6    1    1    2  501    0  0.21103556698E+02  0.26715834364E+02 -0.30231171502E+03  0.34947885336E+03  0.17200000000E+03 0.  1.
         -6    1    1    2    0  502 -0.21103556698E+02 -0.26715834364E+02  0.92224553655E+01  0.17557946803E+03  0.17200000000E+03 0.  1.
</event>
<event>
 4    1  0.2889985E+000  0.2050916E+03  0.7818608E-02  0.1145513E+00
         21   -1    0    0  501  502  0.00000000000E+00  0.00000000000E+00  0.19128287963E+03  0.19128287963E+03  0.00000000000E+00 0. -1.
         21   -1    0    0  502  503 -0.00000000000E+00 -0.00000000000E+00 -0.31457004623E+03  0.31457004623E+03  0.00000000000E+00 0.  1.
          6    1    1    2  501    0  0.16362811167E+02  0.11050255442E+03  0.77111360715E+02  0.21910891829E+03  0.17200000000E+03 0. -1.
         -6    1    1    2    0  503 -0.16362811167E+02 -0.11050255442E+03 -0.20039852732E+03  0.28674400757E+03  0.17200000000E+03 0. -1.
</event>
<event>
 4    1  0.2889985E+000  0.2295576E+03  0.7818608E-02  0.1126952E+00
         21   -1    0    0  501  502  0.00000000000E+00  0.00000000000E+00  0.63022683771E+03  0.63022683771E+03  0.00000000000E+00 0.  1.
         21   -1    0    0  502  503 -0.00000000000E+00 -0.00000000000E+00 -0.99362717126E+02  0.99362717126E+02  0.00000000000E+00 0.  1.
          6    1    1    2  501    0 -0.12125223964E+03  0.91709318104E+02  0.41065639388E+03  0.47046294060E+03  0.17200000000E+03 0.  1.
         -6    1    1    2    0  503  0.12125223964E+03 -0.91709318104E+02  0.12020772670E+03  0.25912661423E+03  0.17200000000E+03 0.  1.
</event>
<event>
 4    1  0.2889985E+000  0.1727767E+03  0.7818608E-02  0.1174983E+00
         21   -1    0    0  501  502  0.00000000000E+00  0.00000000000E+00  0.52502769755E+03  0.52502769755E+03  0.00000000000E+00 0.  1.
         21   -1    0    0  502  503 -0.00000000000E+00 -0.00000000000E+00 -0.57138334033E+02  0.57138334033E+02  0.00000000000E+00 0.  1.
          6    1    1    2  501    0  0.14670535073E+02  0.72496038273E+01  0.25435030684E+03  0.30748310514E+03  0.17200000000E+03 0. -1.
         -6    1    1    2    0  503 -0.14670535073E+02 -0.72496038273E+01  0.21353905668E+03  0.27468292645E+03  0.17200000000E+03 0. -1.
</event>
<event>
 4    1  0.2889985E+000  0.2211552E+03  0.7818608E-02  0.1133025E+00
         21   -1    0    0  501  502  0.00000000000E+00  0.00000000000E+00  0.41460489910E+03  0.41460489910E+03  0.00000000000E+00 0. -1.
         21   -1    0    0  502  503 -0.00000000000E+00 -0.00000000000E+00 -0.16671407281E+03  0.16671407281E+03  0.00000000000E+00 0. -1.
          6    1    1    2  501    0  0.15752834055E+02 -0.13812115524E+03  0.28111684778E+03  0.35768182426E+03  0.17200000000E+03 0. -1.
         -6    1    1    2    0  503 -0.15752834055E+02  0.13812115524E+03 -0.33226021482E+02  0.22363714765E+03  0.17200000000E+03 0. -1.
</event>
<event>
 4    1  0.2889985E+000  0.2167492E+03  0.7818608E-02  0.1136330E+00
         21   -1    0    0  503  502  0.00000000000E+00  0.00000000000E+00  0.79425838364E+03  0.79425838364E+03  0.00000000000E+00 0.  1.
         21   -1    0    0  501  503 -0.00000000000E+00 -0.00000000000E+00 -0.10171961812E+03  0.10171961812E+03  0.00000000000E+00 0.  1.
          6    1    1    2  501    0 -0.74349606445E+02  0.10894188288E+03  0.56457585851E+02  0.22398137607E+03  0.17200000000E+03 0.  1.
         -6    1    1    2    0  502  0.74349606445E+02 -0.10894188288E+03  0.63608117967E+03  0.67199662570E+03  0.17200000000E+03 0.  1.
</event>
<event>
 4    1  0.2889985E+000  0.1780272E+03  0.7818608E-02  0.1169726E+00
         21   -1    0    0  503  502  0.00000000000E+00  0.00000000000E+00  0.82587023762E+03  0.82587023762E+03  0.00000000000E+00 0.  1.
         21   -1    0    0  501  503 -0.00000000000E+00 -0.00000000000E+00 -0.39372207112E+02  0.39372207112E+02  0.00000000000E+00 0.  1.
          6    1    1    2  501    0 -0.36981556123E+02 -0.27240722610E+02  0.46206072691E+03  0.49517048359E+03  0.17200000000E+03 0.  1.
         -6    1    1    2    0  502  0.36981556123E+02  0.27240722610E+02  0.32443730360E+03  0.37007196114E+03  0.17200000000E+03 0.  1.
</event>
<event>
 4    1  0.2889985E+000  0.1867585E+03  0.7818608E-02  0.1161418E+00
         21   -1    0    0  501  502  0.00000000000E+00  0.00000000000E+00  0.36999897082E+02  0.36999897082E+02  0.00000000000E+00 0. -1.
         21   -1    0    0  502  503 -0.00000000000E+00 -0.00000000000E+00 -0.20505097572E+04  0.20505097572E+04  0.00000000000E+00 0. -1.
          6    1    1    2  501    0 -0.16063015099E+02  0.70969760441E+02 -0.23955974559E+03  0.30375582144E+03  0.17200000000E+03 0. -1.
         -6    1    1    2    0  503  0.16063015099E+02 -0.70969760441E+02 -0.17739501146E+04  0.17837538329E+04  0.17200000000E+03 0. -1.
</event>
<event>
 4    1  0.2889985E+000  0.2102092E+03  0.7818608E-02  0.1141400E+00
         21   -1    0    0  501  502  0.00000000000E+00  0.00000000000E+00  0.34470809862E+03  0.34470809862E+03  0.00000000000E+00 0. -1.
         21   -1    0    0  502  503 -0.00000000000E+00 -0.00000000000E+00 -0.12829570950E+03  0.12829570950E+03  0.00000000000E+00 0. -1.
          6    1    1    2  501    0 -0.73035758871E+02  0.96279227314E+02  0.11501529224E+03  0.23961725550E+03  0.17200000000E+03 0. -1.
         -6    1    1    2    0  503  0.73035758871E+02 -0.96279227314E+02  0.10139709687E+03  0.23338655261E+03  0.17200000000E+03 0. -1.
</event>
<event>
 4    1  0.2889985E+000  0.2366089E+03  0.7818608E-02  0.1122073E+00
         21   -1    0    0  503  502  0.00000000000E+00  0.00000000000E+00  0.23967949778E+03  0.23967949778E+03  0.00000000000E+00 0.  1.
         21   -1    0    0  501  503 -0.00000000000E+00 -0.00000000000E+00 -0.24022937586E+03  0.24022937586E+03  0.00000000000E+00 0.  1.
          6    1    1    2  501    0 -0.77170271045E+02  0.14298430806E+03 -0.40203564954E+02  0.24000018691E+03  0.17200000000E+03 0.  1.
         -6    1    1    2    0  502  0.77170271045E+02 -0.14298430806E+03  0.39653686874E+02  0.23990868673E+03  0.17200000000E+03 0.  1.
</event>
<event>
 4    1  0.2889985E+000  0.1739170E+03  0.7818608E-02  0.1173823E+00
         21   -1    0    0  501  502  0.00000000000E+00  0.00000000000E+00  0.15340514798E+03  0.15340514798E+03  0.00000000000E+00 0.  1.
         21   -1    0    0  502  503 -0.00000000000E+00 -0.00000000000E+00 -0.49199168870E+03  0.49199168870E+03  0.00000000000E+00 0.  1.
          6    1    1    2  501    0  0.76273418945E+01 -0.24595851651E+02  0.80509079703E+02  0.19164770851E+03  0.17200000000E+03 0.  1.
         -6    1    1    2    0  503 -0.76273418945E+01  0.24595851651E+02 -0.41909562042E+03  0.45374912818E+03  0.17200000000E+03 0.  1.
</event>
<event>
 4    1  0.2889985E+000  0.2081875E+03  0.7818608E-02  0.1143009E+00
         21   -1    0    0  503  502  0.00000000000E+00  0.00000000000E+00  0.29576049436E+02  0.29576049436E+02  0.00000000000E+00 0.  1.
         21   -1    0    0  501  503 -0.00000000000E+00 -0.00000000000E+00 -0.14679150070E+04  0.14679150070E+04  0.00000000000E+00 0.  1.
          6    1    1    2  501    0 -0.11560942183E+03 -0.19811459914E+02 -0.74989193414E+03  0.77825442193E+03  0.17200000000E+03 0.  1.
         -6    1    1    2    0  502  0.11560942183E+03  0.19811459914E+02 -0.68844702342E+03  0.71923663451E+03  0.17200000000E+03 0.  1.
</event>
<event>
 4    1  0.2889985E+000  0.1768936E+03  0.7818608E-02  0.1170844E+00
         21   -1    0    0  501  502  0.00000000000E+00  0.00000000000E+00  0.90149923126E+03  0.90149923126E+03  0.00000000000E+00 0. -1.
         21   -1    0    0  502  503 -0.00000000000E+00 -0.00000000000E+00 -0.22800829388E+03  0.22800829388E+03  0.00000000000E+00 0.  1.
          6    1    1    2  501    0 -0.41319646084E+02 -0.21111364015E+00  0.85673837964E+03  0.87480969866E+03  0.17200000000E+03 0. -1.
         -6    1    1    2    0  503  0.41319646084E+02  0.21111364015E+00 -0.18324744226E+03  0.25469782648E+03  0.17200000000E+03 0.  1.
</event>
<event>
 4    1  0.2889985E+000  0.2224815E+03  0.7818608E-02  0.1132046E+00
         21   -1    0    0  501  502  0.00000000000E+00  0.00000000000E+00  0.40758096384E+02  0.40758096384E+02  0.00000000000E+00 0.  1.
         21   -1    0    0  502  503 -0.00000000000E+00 -0.00000000000E+00 -0.12878277630E+04  0.12878277630E+04  0.00000000000E+00 0. -1.
          6    1    1    2  501    0  0.12904217350E+03  0.57114972289E+02 -0.46495007829E+03  0.51543823869E+03  0.17200000000E+03 0. -1.
         -6    1    1    2    0  503 -0.12904217350E+03 -0.57114972289E+02 -0.78211958834E+03  0.81314762071E+03  0.17200000000E+03 0.  1.
</event>
<event>
 4    1  0.2889985E+000  0.2030823E+03  0.7818608E-02  0.1147164E+00
         21   -1    0    0  501  502  0.00000000000E+00  0.00000000000E+00  0.20697265697E+03  0.20697265697E+03  0.00000000000E+00 0.  1.
         21   -1    0    0  502  503 -0.00000000000E+00 -0.00000000000E+00 -0.36452777758E+03  0.36452777758E+03  0.00000000000E+00 0. -1.
          6    1    1    2  501    0 -0.10326473119E+03 -0.31540454888E+02  0.11362408816E+03  0.23270762431E+03  0.17200000000E+03 0.  1.
         -6    1    1    2    0  503  0.10326473119E+03  0.31540454888E+02 -0.27117920877E+03  0.33879281024E+03  0.17200000000E+03 0. -1.
</event>
<event>
 4    1  0.2889985E+000  0.2484846E+03  0.7818608E-02  0.1114266E+00
         21   -1    0    0  503  502  0.00000000000E+00  0.00000000000E+00  0.57278085975E+03  0.57278085975E+03  0.00000000000E+00 0. -1.
         21   -1    0    0  501  503 -0.00000000000E+00 -0.00000000000E+00 -0.11565462042E+03  0.11565462042E+03  0.00000000000E+00 0.  1.
          6    1    1    2  501    0 -0.51860078435E+02 -0.17167160740E+03  0.31827929093E+03  0.40378993989E+03  0.17200000000E+03 0. -1.
         -6    1    1    2    0  502  0.51860078435E+02  0.17167160740E+03  0.13884694839E+03  0.28464554028E+03  0.17200000000E+03 0.  1.
</event>
<event>
 4    1  0.2889985E+000  0.2824061E+03  0.7818608E-02  0.1094382E+00
         21   -1    0    0  503  502  0.00000000000E+00  0.00000000000E+00  0.17082339281E+03  0.17082339281E+03  0.00000000000E+00 0. -1.
         21   -1    0    0  501  503 -0.00000000000E+00 -0.00000000000E+00 -0.61291809537E+03  0.61291809537E+03  0.00000000000E+00 0. -1.
          6    1    1    2  501    0  0.17267456940E+03  0.14266293598E+03 -0.41233270156E+03  0.49977142475E+03  0.17200000000E+03 0. -1.
         -6    1    1    2    0  502 -0.17267456940E+03 -0.14266293598E+03 -0.29762000997E+02  0.28397006343E+03  0.17200000000E+03 0. -1.
</event>
<event>
 4    1  0.2889985E+000  0.1823390E+03  0.7818608E-02  0.1165558E+00
         21   -1    0    0  501  502  0.00000000000E+00  0.00000000000E+00  0.30765234409E+03  0.30765234409E+03  0.00000000000E+00 0. -1.
         21   -1    0    0  502  503 -0.00000000000E+00 -0.00000000000E+00 -0.17269012406E+03  0.17269012406E+03  0.00000000000E+00 0. -1.
          6    1    1    2  501    0 -0.57225426638E+02  0.19716615292E+02  0.21439962612E+03  0.28145105090E+03  0.17200000000E+03 0. -1.
         -6    1    1    2    0  503  0.57225426638E+02 -0.19716615292E+02 -0.79437406084E+02  0.19889141726E+03  0.17200000000E+03 0. -1.
</event>
<event>
 4    1  0.2889985E+000  0.1860703E+03  0.7818608E-02  0.1162054E+00
         21   -1    0    0  501  502  0.00000000000E+00  0.00000000000E+00  0.36834792878E+03  0.36834792878E+03  0.00000000000E+00 0.  1.
         21   -1    0    0  502  503 -0.00000000000E+00 -0.00000000000E+00 -0.10041770403E+03  0.10041770403E+03  0.00000000000E+00 0.  1.
          6    1    1    2  501    0 -0.48658119916E+02 -0.51677145255E+02  0.19325027086E+03  0.26826816279E+03  0.17200000000E+03 0.  1.
         -6    1    1    2    0  503  0.48658119916E+02  0.51677145255E+02  0.74679953888E+02  0.20049747003E+03  0.17200000000E+03 0.  1.
</event>
<event>
 4    1  0.2889985E+000  0.2353205E+03  0.7818608E-02  0.1122950E+00
         21   -1    0    0  503  502  0.00000000000E+00  0.00000000000E+00  0.86236385375E+03  0.86236385375E+03  0.00000000000E+00 0. -1.
         21   -1    0    0  501  503 -0.00000000000E+00 -0.00000000000E+00 -0.97627536570E+02  0.97627536570E+02  0.00000000000E+00 0. -1.
          6    1    1    2  501    0 -0.41589045070E+02  0.15511953881E+03  0.10155772034E+03  0.25630000107E+03  0.17200000000E+03 0. -1.
         -6    1    1    2    0  502  0.41589045070E+02 -0.15511953881E+03  0.66317859684E+03  0.70369138925E+03  0.17200000000E+03 0. -1.
</event>
<event>
 4    1  0.2889985E+000  0.3284009E+03  0.7818608E-02  0.1071847E+00
         21   -1    0    0  501  502  0.00000000000E+00  0.00000000000E+00  0.20951796829E+03  0.20951796829E+03  0.00000000000E+00 0. -1.
         21   -1    0    0  502  503 -0.00000000000E+00 -0.00000000000E+00 -0.52843248255E+03  0.52843248255E+03  0.00000000000E+00 0.  1.
          6    1    1    2  501    0 -0.25724384445E+03 -0.10994892307E+03 -0.10006190398E+03  0.34330678091E+03  0.17200000000E+03 0.  1.
         -6    1    1    2    0  503  0.25724384445E+03  0.10994892307E+03 -0.21885261029E+03  0.39464366993E+03  0.17200000000E+03 0. -1.
</event>
<event>
 4    1  0.2889985E+000  0.2792787E+03  0.7818608E-02  0.1096084E+00
         21   -1    0    0  503  502  0.00000000000E+00  0.00000000000E+00  0.18840465102E+03  0.18840465102E+03  0.00000000000E+00 0.  1.
         21   -1    0    0  501  503 -0.00000000000E+00 -0.00000000000E+00 -0.41873127528E+03  0.41873127528E+03  0.00000000000E+00 0. -1.
          6    1    1    2  501    0  0.13672949824E+03  0.17238802985E+03 -0.14748482152E+03  0.31582963937E+03  0.17200000000E+03 0.  1.
         -6    1    1    2    0  502 -0.13672949824E+03 -0.17238802985E+03 -0.82841802743E+02  0.29130628693E+03  0.17200000000E+03 0.  1.
</event>
<event>
 4    1  0.2889985E+000  0.1915541E+03  0.7818608E-02  0.1157067E+00
         21   -1    0    0  501  502  0.00000000000E+00  0.00000000000E+00  0.19535891850E+03  0.19535891850E+03  0.00000000000E+00 0.  1.
         21   -1    0    0  502  503 -0.00000000000E+00 -0.00000000000E+00 -0.21583503452E+03  0.21583503452E+03  0.00000000000E+00 0. -1.
          6    1    1    2  501    0  0.69193028812E+02 -0.48179783994E+02  0.63829044353E+02  0.20190867670E+03  0.17200000000E+03 0.  1.
         -6    1    1    2    0  503 -0.69193028812E+02  0.48179783994E+02 -0.84305160371E+02  0.20928527633E+03  0.17200000000E+03 0.  1.
</event>
<event>
 4    1  0.2889985E+000  0.1856551E+03  0.7818608E-02  0.1162440E+00
         21   -1    0    0  503  502  0.00000000000E+00  0.00000000000E+00  0.32879688282E+02  0.32879688282E+02  0.00000000000E+00 0.  1.
         21   -1    0    0  501  503 -0.00000000000E+00 -0.00000000000E+00 -0.12584640911E+04  0.12584640911E+04  0.00000000000E+00 0.  1.
          6    1    1    2  501    0 -0.92342228622E+01 -0.69271508686E+02 -0.87664979942E+03  0.89609301058E+03  0.17200000000E+03 0.  1.
         -6    1    1    2    0  502  0.92342228622E+01  0.69271508686E+02 -0.34893460338E+03  0.39525076878E+03  0.17200000000E+03 0.  1.
</event>
<event>
 4    1  0.2889985E+000  0.1812571E+03  0.7818608E-02  0.1166592E+00
         21   -1    0    0  503  502  0.00000000000E+00  0.00000000000E+00  0.27780199489E+03  0.27780199489E+03  0.00000000000E+00 0.  1.
         21   -1    0    0  501  503 -0.00000000000E+00 -0.00000000000E+00 -0.11991398800E+03  0.11991398800E+03  0.00000000000E+00 0.  1.
          6    1    1    2  501    0  0.29783497087E+01 -0.57107600244E+02  0.55621974335E+02  0.18959945306E+03  0.17200000000E+03 0. -1.
         -6    1    1    2    0  502 -0.29783497087E+01  0.57107600244E+02  0.10226603256E+03  0.20811652983E+03  0.17200000000E+03 0. -1.
</event>
<event>
 4    1  0.2889985E+000  0.2080663E+03  0.7818608E-02  0.1143107E+00
         21   -1    0    0  501  502  0.00000000000E+00  0.00000000000E+00  0.26880558226E+03  0.26880558226E+03  0.00000000000E+00 0. -1.
         21   -1    0    0  502  503 -0.00000000000E+00 -0.00000000000E+00 -0.18104526013E+03  0.18104526013E+03  0.00000000000E+00 0.  1.
          6    1    1    2  501    0  0.11004937291E+03 -0.39958820381E+02  0.11862668602E+03  0.23950754151E+03  0.17200000000E+03 0. -1.
         -6    1    1    2    0  503 -0.11004937291E+03  0.39958820381E+02 -0.30866363890E+02  0.21034330088E+03  0.17200000000E+03 0.  1.
</event>
<event>
 4    1  0.2889985E+000  0.1724720E+03  0.7818608E-02  0.1175294E+00
         21   -1    0    0  501  502  0.00000000000E+00  0.00000000000E+00  0.13974303694E+04  0.13974303694E+04  0.00000000000E+00 0. -1.
         21   -1    0    0  502  503 -0.00000000000E+00 -0.00000000000E+00 -0.26775118309E+02  0.26775118309E+02  0.00000000000E+00 0. -1.
          6    1    1    2  501    0  0.77222411832E+01  0.10147655738E+02  0.10077332669E+04  0.10223859082E+04  0.17200000000E+03 0. -1.
         -6    1    1    2    0  503 -0.77222411832E+01 -0.10147655738E+02  0.36292198421E+03  0.40181957960E+03  0.17200000000E+03 0. -1.
</event>
<event>
 4    1  0.2889985E+000  0.1806385E+03  0.7818608E-02  0.1167187E+00
         21   -1    0    0  503  502  0.00000000000E+00  0.00000000000E+00  0.13682821477E+02  0.13682821477E+02  0.00000000000E+00 0. -1.
         21   -1    0    0  501  503 -0.00000000000E+00 -0.00000000000E+00 -0.24172954548E+04  0.24172954548E+04  0.00000000000E+00 0.  1.
          6    1    1    2  501    0 -0.41929131510E+02  0.35891828753E+02 -0.13428163371E+04  0.13549118018E+04  0.17200000000E+03 0. -1.
         -6    1    1    2    0  502  0.41929131510E+02 -0.35891828753E+02 -0.10607962962E+04  0.10760664745E+04  0.17200000000E+03 0. -1.
</event>
<event>
 4    1  0.2889985E+000  0.2178188E+03  0.7818608E-02  0.1135520E+00
         21   -1    0    0  501  502  0.00000000000E+00  0.00000000000E+00  0.30979756811E+03  0.30979756811E+03  0.00000000000E+00 0. -1.
         21   -1    0    0  502  503 -0.00000000000E+00 -0.00000000000E+00 -0.21671309880E+03  0.21671309880E+03  0.00000000000E+00 0. -1.
          6    1    1    2  501    0 -0.12931448950E+03  0.33746310399E+02  0.18911680002E+03  0.28846180806E+03  0.17200000000E+03 0. -1.
         -6    1    1    2    0  503  0.12931448950E+03 -0.33746310399E+02 -0.96032330709E+02  0.23804885886E+03  0.17200000000E+03 0. -1.
</event>
<event>
 4    1  0.2889985E+000  0.1913428E+03  0.7818608E-02  0.1157256E+00
         21   -1    0    0  503  502  0.00000000000E+00  0.00000000000E+00  0.31756159470E+03  0.31756159470E+03  0.00000000000E+00 0.  1.
         21   -1    0    0  501  503 -0.00000000000E+00 -0.00000000000E+00 -0.16565415423E+03  0.16565415423E+03  0.00000000000E+00 0.  1.
          6    1    1    2  501    0  0.77410438954E+02  0.32182193842E+02 -0.57265028495E+02  0.19972819818E+03  0.17200000000E+03 0.  1.
         -6    1    1    2    0  502 -0.77410438954E+02 -0.32182193842E+02  0.20917246896E+03  0.28348755075E+03  0.17200000000E+03 0.  1.
</event>
<event>
 4    1  0.2889985E+000  0.3800593E+03  0.7818608E-02  0.1050912E+00
         21   -1    0    0  503  502  0.00000000000E+00  0.00000000000E+00  0.10741161866E+04  0.10741161866E+04  0.00000000000E+00 0. -1.
         21   -1    0    0  501  503 -0.00000000000E+00 -0.00000000000E+00 -0.13593627287E+03  0.13593627287E+03  0.00000000000E+00 0. -1.
          6    1    1    2  501    0 -0.27280233630E+03 -0.20109689299E+03  0.53175351303E+03  0.65361064379E+03  0.17200000000E+03 0. -1.
         -6    1    1    2    0  502  0.27280233630E+03  0.20109689299E+03  0.40642640072E+03  0.55644181570E+03  0.17200000000E+03 0. -1.
</event>
<event>
 4    1  0.2889985E+000  0.2027306E+03  0.7818608E-02  0.1147455E+00
         21   -1    0    0  503  502  0.00000000000E+00  0.00000000000E+00  0.28921713971E+02  0.28921713971E+02  0.00000000000E+00 0. -1.
         21   -1    0    0  501  503 -0.00000000000E+00 -0.00000000000E+00 -0.21102165301E+04  0.21102165301E+04  0.00000000000E+00 0.  1.
          6    1    1    2  501    0 -0.10705611337E+03 -0.73948847574E+01 -0.16518737349E+04  0.16642675662E+04  0.17200000000E+03 0. -1.
         -6    1    1    2    0  502  0.10705611337E+03  0.73948847574E+01 -0.42942108118E+03  0.47487067786E+03  0.17200000000E+03 0. -1.
</event>
<event>
 4    1  0.2889985E+000  0.3882495E+03  0.7818608E-02  0.1047926E+00
         21   -1    0    0  501  502  0.00000000000E+00  0.00000000000E+00  0.14868859986E+04  0.14868859986E+04  0.00000000000E+00 0. -1.
         21   -1    0    0  502  503 -0.00000000000E+00 -0.00000000000E+00 -0.10715756933E+03  0.10715756933E+03  0.00000000000E+00 0.  1.
          6    1    1    2  501    0 -0.12312447176E+03 -0.32556728584E+03  0.87496248032E+03  0.95723405451E+03  0.17200000000E+03 0.  1.
         -6    1    1    2    0  503  0.12312447176E+03  0.32556728584E+03  0.50476594900E+03  0.63680951345E+03  0.17200000000E+03 0. -1.
</event>
<event>
 4    1  0.2889985E+000  0.1858076E+03  0.7818608E-02  0.1162298E+00
         21   -1    0    0  503  502  0.00000000000E+00  0.00000000000E+00  0.27409830826E+03  0.27409830826E+03  0.00000000000E+00 0.  1.
         21   -1    0    0  501  503 -0.00000000000E+00 -0.00000000000E+00 -0.16290038814E+03  0.16290038814E+03  0.00000000000E+00 0.  1.
          6    1    1    2  501    0  0.69496301913E+02  0.10522663265E+02 -0.48455430773E+02  0.19202185082E+03  0.17200000000E+03 0.  1.
         -6    1    1    2    0  502 -0.69496301913E+02 -0.10522663265E+02  0.15965335089E+03  0.24497684558E+03  0.17200000000E+03 0.  1.
</event>
<event>
 4    1  0.2889985E+000  0.1962597E+03  0.7818608E-02  0.1152934E+00
         21   -1    0    0  503  502  0.00000000000E+00  0.00000000000E+00  0.43015941461E+03  0.43015941461E+03  0.00000000000E+00 0.  1.
         21   -1    0    0  501  503 -0.00000000000E+00 -0.00000000000E+00 -0.90000756241E+02  0.90000756241E+02  0.00000000000E+00 0.  1.
          6    1    1    2  501    0 -0.49843119870E+02 -0.80308995449E+02  0.18862246814E+03  0.27220636810E+03  0.17200000000E+03 0.  1.
         -6    1    1    2    0  502  0.49843119870E+02  0.80308995449E+02  0.15153619023E+03  0.24795380275E+03  0.17200000000E+03 0.  1.
</event>
<event>
 4    1  0.2889985E+000  0.2909982E+03  0.7818608E-02  0.1089829E+00
         21   -1    0    0  503  502  0.00000000000E+00  0.00000000000E+00  0.30087035155E+03  0.30087035155E+03  0.00000000000E+00 0.  1.
         21   -1    0    0  501  503 -0.00000000000E+00 -0.00000000000E+00 -0.28882609148E+03  0.28882609148E+03  0.00000000000E+00 0. -1.
          6    1    1    2  501    0 -0.11787095834E+03 -0.20298374273E+03  0.53140822900E+02  0.29581059766E+03  0.17200000000E+03 0. -1.
         -6    1    1    2    0  502  0.11787095834E+03  0.20298374273E+03 -0.41096562836E+02  0.29388584537E+03  0.17200000000E+03 0.  1.
</event>
<event>
 4    1  0.2889985E+000  0.1783134E+03  0.7818608E-02  0.1169445E+00
         21   -1    0    0  501  502  0.00000000000E+00  0.00000000000E+00  0.73578979766E+03  0.73578979766E+03  0.00000000000E+00 0. -1.
         21   -1    0    0  502  503 -0.00000000000E+00 -0.00000000000E+00 -0.43223215246E+02  0.43223215246E+02  0.00000000000E+00 0. -1.
          6    1    1    2  501    0 -0.10723554618E+02  0.45789527518E+02  0.35227488758E+03  0.39483322033E+03  0.17200000000E+03 0.  1.
         -6    1    1    2    0  503  0.10723554618E+02 -0.45789527518E+02  0.34029169484E+03  0.38417979258E+03  0.17200000000E+03 0.  1.
</event>
<event>
 4    1  0.2889985E+000  0.1860569E+03  0.7818608E-02  0.1162067E+00
         21   -1    0    0  503  502  0.00000000000E+00  0.00000000000E+00  0.44835134765E+03  0.44835134765E+03  0.00000000000E+00 0.  1.
         21   -1    0    0  501  503 -0.00000000000E+00 -0.00000000000E+00 -0.83149745617E+02  0.83149745617E+02  0.00000000000E+00 0.  1.
          6    1    1    2  501    0 -0.39985004752E+02 -0.58603487853E+02  0.11157261255E+03  0.21694611604E+03  0.17200000000E+03 0.  1.
         -6    1    1    2    0  502  0.39985004752E+02  0.58603487853E+02  0.25362898948E+03  0.31455497723E+03  0.17200000000E+03 0.  1.
</event>
<event>
 4    1  0.2889985E+000  0.2585800E+03  0.7818608E-02  0.1107999E+00
         21   -1    0    0  503  502  0.00000000000E+00  0.00000000000E+00  0.12892086281E+03  0.12892086281E+03  0.00000000000E+00 0.  1.
         21   -1    0    0  501  503 -0.00000000000E+00 -0.00000000000E+00 -0.65852004211E+03  0.65852004211E+03  0.00000000000E+00 0.  1.
          6    1    1    2  501    0 -0.11920167562E+03 -0.15189003738E+03 -0.44625924012E+03  0.51576247665E+03  0.17200000000E+03 0.  1.
         -6    1    1    2    0  502  0.11920167562E+03  0.15189003738E+03 -0.83339939175E+02  0.27167842827E+03  0.17200000000E+03 0.  1.
</event>
<event>
 4    1  0.2889985E+000  0.2051176E+03  0.7818608E-02  0.1145492E+00
         21   -1    0    0  503  502  0.00000000000E+00  0.00000000000E+00  0.66551649193E+02  0.66551649193E+02  0.00000000000E+00 0. -1.
         21   -1    0    0  501  503 -0.00000000000E+00 -0.00000000000E+00 -0.63256046946E+03  0.63256046946E+03  0.00000000000E+00 0. -1.
          6    1    1    2  501    0  0.12332899841E+02 -0.11107260747E+03 -0.27453423759E+03  0.34269851496E+03  0.17200000000E+03 0. -1.
         -6    1    1    2    0  502 -0.12332899841E+02  0.11107260747E+03 -0.29147458268E+03  0.35641360369E+03  0.17200000000E+03 0. -1.
</event>
<event>
 4    1  0.2889985E+000  0.1802868E+03  0.7818608E-02  0.1167526E+00
         21   -1    0    0  503  502  0.00000000000E+00  0.00000000000E+00  0.10565281159E+04  0.10565281159E+04  0.00000000000E+00 0.  1.
         21   -1    0    0  501  503 -0.00000000000E+00 -0.00000000000E+00 -0.13678326032E+03  0.13678326032E+03  0.00000000000E+00 0.  1.
          6    1    1    2  501    0 -0.36527217635E+02 -0.39813056317E+02 -0.65417580353E+02  0.19178836487E+03  0.17200000000E+03 0.  1.
         -6    1    1    2    0  502  0.36527217635E+02  0.39813056317E+02  0.98516243597E+03  0.10015230114E+04  0.17200000000E+03 0.  1.
</event>
<event>
 4    1  0.2889985E+000  0.1983665E+03  0.7818608E-02  0.1151125E+00
         21   -1    0    0  503  502  0.00000000000E+00  0.00000000000E+00  0.19654663009E+03  0.19654663009E+03  0.00000000000E+00 0. -1.
         21   -1    0    0  501  503 -0.00000000000E+00 -0.00000000000E+00 -0.20021517391E+03  0.20021517391E+03  0.00000000000E+00 0. -1.
          6    1    1    2  501    0 -0.69074653858E+02 -0.70668065571E+02 -0.33622202676E+01  0.19839502973E+03  0.17200000000E+03 0. -1.
         -6    1    1    2    0  502  0.69074653858E+02  0.70668065571E+02 -0.30632355217E+00  0.19836677426E+03  0.17200000000E+03 0. -1.
</event>
<event>
 4    1  0.2889985E+000  0.1839547E+03  0.7818608E-02  0.1164030E+00
         21   -1    0    0  501  502  0.00000000000E+00  0.00000000000E+00  0.19153547538E+03  0.19153547538E+03  0.00000000000E+00 0. -1.
         21   -1    0    0  502  503 -0.00000000000E+00 -0.00000000000E+00 -0.26805268406E+03  0.26805268406E+03  0.00000000000E+00 0. -1.
          6    1    1    2  501    0 -0.40227275556E+01  0.65108828123E+02  0.95910081132E+02  0.20745622550E+03  0.17200000000E+03 0. -1.
         -6    1    1    2    0  503  0.40227275556E+01 -0.65108828123E+02 -0.17242728982E+03  0.25213193394E+03  0.17200000000E+03 0. -1.
</event>
<event>
 4    1  0.2889985E+000  0.1964973E+03  0.7818608E-02  0.1152728E+00
         21   -1    0    0  501  502  0.00000000000E+00  0.00000000000E+00  0.39391311128E+03  0.39391311128E+03  0.00000000000E+00 0. -1.
         21   -1    0    0  502  503 -0.00000000000E+00 -0.00000000000E+00 -0.10444563426E+03  0.10444563426E+03  0.00000000000E+00 0. -1.
          6    1    1    2  501    0 -0.40460074456E+02 -0.85966117621E+02  0.20654103010E+03  0.28507961716E+03  0.17200000000E+03 0. -1.
         -6    1    1    2    0  503  0.40460074456E+02  0.85966117621E+02  0.82926446930E+02  0.21327912838E+03  0.17200000000E+03 0. -1.
</event>
<event>
 4    1  0.2889985E+000  0.2036811E+03  0.7818608E-02  0.1146670E+00
         21   -1    0    0  503  502  0.00000000000E+00  0.00000000000E+00  0.14285200963E+03  0.14285200963E+03  0.00000000000E+00 0. -1.
         21   -1    0    0  501  503 -0.00000000000E+00 -0.00000000000E+00 -0.29824492350E+03  0.29824492350E+03  0.00000000000E+00 0. -1.
          6    1    1    2  501    0 -0.10463409118E+03  0.30882298040E+02 -0.11343736395E+03  0.23313953957E+03  0.17200000000E+03 0. -1.
         -6    1    1    2    0  502  0.10463409118E+03 -0.30882298040E+02 -0.41955549918E+02  0.20795739356E+03  0.17200000000E+03 0. -1.
</event>
<event>
 4    1  0.2889985E+000  0.2254536E+03  0.7818608E-02  0.1129881E+00
         21   -1    0    0  503  502  0.00000000000E+00  0.00000000000E+00  0.10343335592E+03  0.10343335592E+03  0.00000000000E+00 0.  1.
         21   -1    0    0  501  503 -0.00000000000E+00 -0.00000000000E+00 -0.53304008359E+03  0.53304008359E+03  0.00000000000E+00 0.  1.
          6    1    1    2  501    0  0.50061195310E+02  0.13689128558E+03 -0.30372662751E+03  0.37825812827E+03  0.17200000000E+03 0.  1.
         -6    1    1    2    0  502 -0.50061195310E+02 -0.13689128558E+03 -0.12588010017E+03  0.25821531125E+03  0.17200000000E+03 0.  1.
</event>
<event>
 4    1  0.2889985E+000  0.1863133E+03  0.7818608E-02  0.1161829E+00
         21   -1    0    0  501  502  0.00000000000E+00  0.00000000000E+00  0.32357803020E+03  0.32357803020E+03  0.00000000000E+00 0. -1.
         21   -1    0    0  502  503 -0.00000000000E+00 -0.00000000000E+00 -0.21021601784E+03  0.21021601784E+03  0.00000000000E+00 0. -1.
          6    1    1    2  501    0  0.64332963748E+02  0.31462969994E+02  0.24344783353E+03  0.30656075476E+03  0.17200000000E+03 0. -1.
         -6    1    1    2    0  503 -0.64332963748E+02 -0.31462969994E+02 -0.13008582118E+03  0.22723329328E+03  0.17200000000E+03 0. -1.
</event>
<event>
 4    1  0.2889985E+000  0.3049533E+03  0.7818608E-02  0.1082790E+00
         21   -1    0    0  503  502  0.00000000000E+00  0.00000000000E+00  0.58535416095E+03  0.58535416095E+03  0.00000000000E+00 0.  1.
         21   -1    0    0  501  503 -0.00000000000E+00 -0.00000000000E+00 -0.20624659653E+03  0.20624659653E+03  0.00000000000E+00 0. -1.
          6    1    1    2  501    0  0.17866241143E+03  0.17746050859E+03 -0.14072906542E+00  0.30495329014E+03  0.17200000000E+03 0. -1.
         -6    1    1    2    0  502 -0.17866241143E+03 -0.17746050859E+03  0.37924829348E+03  0.48664746735E+03  0.17200000000E+03 0.  1.
</event>
<event>
 4    1  0.2889985E+000  0.2322690E+03  0.7818608E-02  0.1125053E+00
         21   -1    0    0  503  502  0.00000000000E+00  0.00000000000E+00  0.39876648802E+03  0.39876648802E+03  0.00000000000E+00 0.  1.
         21   -1    0    0  501  503 -0.00000000000E+00 -0.00000000000E+00 -0.14104278794E+03  0.14104278794E+03  0.00000000000E+00 0. -1.
          6    1    1    2  501    0 -0.14456082168E+03  0.58881869600E+02  0.18337411104E+03  0.29593068501E+03  0.17200000000E+03 0.  1.
         -6    1    1    2    0  502  0.14456082168E+03 -0.58881869600E+02  0.74349589044E+02  0.24387859095E+03  0.17200000000E+03 0. -1.
</event>
<event>
 4    1  0.2889985E+000  0.1778796E+03  0.7818608E-02  0.1169871E+00
         21   -1    0    0  501  502  0.00000000000E+00  0.00000000000E+00  0.26539515650E+03  0.26539515650E+03  0.00000000000E+00 0.  1.
         21   -1    0    0  502  503 -0.00000000000E+00 -0.00000000000E+00 -0.13451652350E+03  0.13451652350E+03  0.00000000000E+00 0.  1.
          6    1    1    2  501    0  0.45335101462E+02 -0.13694240987E+01  0.13286156977E+03  0.22202104285E+03  0.17200000000E+03 0. -1.
         -6    1    1    2    0  503 -0.45335101462E+02  0.13694240987E+01 -0.19829367797E+01  0.17789063715E+03  0.17200000000E+03 0. -1.
</event>
<event>
 4    1  0.2889985E+000  0.1785447E+03  0.7818608E-02  0.1169219E+00
         21   -1    0    0  501  502  0.00000000000E+00  0.00000000000E+00  0.46942033484E+02  0.46942033484E+02  0.00000000000E+00 0. -1.
         21   -1    0    0  502  503 -0.00000000000E+00 -0.00000000000E+00 -0.12572232121E+04  0.12572232121E+04  0.00000000000E+00 0. -1.
          6    1    1    2  501    0  0.84689131316E+01 -0.47143416883E+02 -0.16295201084E+03  0.24172625444E+03  0.17200000000E+03 0. -1.
         -6    1    1    2    0  503 -0.84689131316E+01  0.47143416883E+02 -0.10473291677E+04  0.10624389911E+04  0.17200000000E+03 0. -1.
</event>
<event>
 4    1  0.2889985E+000  0.2390478E+03  0.7818608E-02  0.1120429E+00
         21   -1    0    0  501  502  0.00000000000E+00  0.00000000000E+00  0.16975888323E+03  0.16975888323E+03  0.00000000000E+00 0.  1.
         21   -1    0    0  502  503 -0.00000000000E+00 -0.00000000000E+00 -0.51144982338E+03  0.51144982338E+03  0.00000000000E+00 0.  1.
          6    1    1    2  501    0  0.64027907785E+02  0.15316744552E+03  0.28294911144E+02  0.24071651655E+03  0.17200000000E+03 0.  1.
         -6    1    1    2    0  503 -0.64027907785E+02 -0.15316744552E+03 -0.36998585130E+03  0.44049219006E+03  0.17200000000E+03 0.  1.
</event>
<event>
 4    1  0.2889985E+000  0.1947558E+03  0.7818608E-02  0.1154241E+00
         21   -1    0    0  501  502  0.00000000000E+00  0.00000000000E+00  0.20050794753E+04  0.20050794753E+04  0.00000000000E+00 0. -1.
         21   -1    0    0  502  503 -0.00000000000E+00 -0.00000000000E+00 -0.31939985864E+02  0.31939985864E+02  0.00000000000E+00 0. -1.
          6    1    1    2  501    0 -0.64951068049E+02  0.64243019040E+02  0.33620730757E+03  0.38854235342E+03  0.17200000000E+03 0. -1.
         -6    1    1    2    0  503  0.64951068049E+02 -0.64243019040E+02  0.16369321819E+04  0.16484771078E+04  0.17200000000E+03 0. -1.
</event>
<event>
 4    1  0.2889985E+000  0.2178617E+03  0.7818608E-02  0.1135487E+00
         21   -1    0    0  503  502  0.00000000000E+00  0.00000000000E+00  0.67335230994E+03  0.67335230994E+03  0.00000000000E+00 0.  1.
         21   -1    0    0  501  503 -0.00000000000E+00 -0.00000000000E+00 -0.11971844735E+03  0.11971844735E+03  0.00000000000E+00 0. -1.
          6    1    1    2  501    0 -0.14910258350E+01 -0.13370679481E+03  0.22535177089E+02  0.21902411818E+03  0.17200000000E+03 0. -1.
         -6    1    1    2    0  502  0.14910258350E+01  0.13370679481E+03  0.53109868550E+03  0.57404663911E+03  0.17200000000E+03 0.  1.
</event>
<event>
 4    1  0.2889985E+000  0.1878480E+03  0.7818608E-02  0.1160417E+00
         21   -1    0    0  501  502  0.00000000000E+00  0.00000000000E+00  0.87627198928E+03  0.87627198928E+03  0.00000000000E+00 0.  1.
         21   -1    0    0  502  503 -0.00000000000E+00 -0.00000000000E+00 -0.17456675745E+03  0.17456675745E+03  0.00000000000E+00 0.  1.
          6    1    1    2  501    0  0.33409328186E+02  0.67725101506E+02  0.81170217995E+03  0.83315502850E+03  0.17200000000E+03 0.  1.
         -6    1    1    2    0  503 -0.33409328186E+02 -0.67725101506E+02 -0.10999694812E+03  0.21768371822E+03  0.17200000000E+03 0.  1.
</event>
<event>
 4    1  0.2889985E+000  0.1940888E+03  0.7818608E-02  0.1154824E+00
         21   -1    0    0  501  502  0.00000000000E+00  0.00000000000E+00  0.11045968485E+04  0.11045968485E+04  0.00000000000E+00 0.  1.
         21   -1    0    0  502  503 -0.00000000000E+00 -0.00000000000E+00 -0.46176742591E+02  0.46176742591E+02  0.00000000000E+00 0.  1.
          6    1    1    2  501    0  0.78303296689E+02  0.44216091359E+02  0.82342358522E+03  0.84598869360E+03  0.17200000000E+03 0.  1.
         -6    1    1    2    0  503 -0.78303296689E+02 -0.44216091359E+02  0.23499652073E+03  0.30478489753E+03  0.17200000000E+03 0.  1.
</event>
<event>
 4    1  0.2889985E+000  0.1878166E+03  0.7818608E-02  0.1160445E+00
         21   -1    0    0  501  502  0.00000000000E+00  0.00000000000E+00  0.13945031813E+04  0.13945031813E+04  0.00000000000E+00 0.  1.
         21   -1    0    0  502  503 -0.00000000000E+00 -0.00000000000E+00 -0.59293849157E+02  0.59293849157E+02  0.00000000000E+00 0.  1.
          6    1    1    2  501    0  0.57251469479E+02 -0.49125834911E+02  0.12180268590E+04  0.12324222116E+04  0.17200000000E+03 0.  1.
         -6    1    1    2    0  503 -0.57251469479E+02  0.49125834911E+02  0.11718247316E+03  0.22137481887E+03  0.17200000000E+03 0.  1.
</event>
<event>
 4    1  0.2889985E+000  0.3148607E+03  0.7818608E-02  0.1078039E+00
         21   -1    0    0  501  502  0.00000000000E+00  0.00000000000E+00  0.40475723760E+03  0.40475723760E+03  0.00000000000E+00 0. -1.
         21   -1    0    0  502  503 -0.00000000000E+00 -0.00000000000E+00 -0.44668665780E+03  0.44668665780E+03  0.00000000000E+00 0. -1.
          6    1    1    2  501    0  0.23485977714E+03  0.11997573384E+03 -0.30707812303E+03  0.43981162476E+03  0.17200000000E+03 0. -1.
         -6    1    1    2    0  503 -0.23485977714E+03 -0.11997573384E+03  0.26514870283E+03  0.41163227065E+03  0.17200000000E+03 0. -1.
</event>
<event>
 4    1  0.2889985E+000  0.1878269E+03  0.7818608E-02  0.1160436E+00
         21   -1    0    0  503  502  0.00000000000E+00  0.00000000000E+00  0.77036315047E+02  0.77036315047E+02  0.00000000000E+00 0.  1.
         21   -1    0    0  501  503 -0.00000000000E+00 -0.00000000000E+00 -0.52548169192E+03  0.52548169192E+03  0.00000000000E+00 0.  1.
          6    1    1    2  501    0 -0.47626685008E+01  0.75314385257E+02 -0.33221887294E+03  0.38163899064E+03  0.17200000000E+03 0.  1.
         -6    1    1    2    0  502  0.47626685008E+01 -0.75314385257E+02 -0.11622650393E+03  0.22087901633E+03  0.17200000000E+03 0.  1.
</event>
<event>
 4    1  0.2889985E+000  0.2318116E+03  0.7818608E-02  0.1125371E+00
         21   -1    0    0  503  502  0.00000000000E+00  0.00000000000E+00  0.19027791164E+04  0.19027791164E+04  0.00000000000E+00 0. -1.
         21   -1    0    0  501  503 -0.00000000000E+00 -0.00000000000E+00 -0.78425368535E+02  0.78425368535E+02  0.00000000000E+00 0. -1.
          6    1    1    2  501    0  0.14443522650E+03 -0.57367807025E+02  0.11975808245E+03  0.26091875795E+03  0.17200000000E+03 0. -1.
         -6    1    1    2    0  502 -0.14443522650E+03  0.57367807025E+02  0.17045956654E+04  0.17202857270E+04  0.17200000000E+03 0. -1.
</event>
<event>
 4    1  0.2889985E+000  0.3252648E+03  0.7818608E-02  0.1073251E+00
         21   -1    0    0  501  502  0.00000000000E+00  0.00000000000E+00  0.36460310965E+03  0.36460310965E+03  0.00000000000E+00 0. -1.
         21   -1    0    0  502  503 -0.00000000000E+00 -0.00000000000E+00 -0.29132664652E+03  0.29132664652E+03  0.00000000000E+00 0.  1.
          6    1    1    2  501    0  0.30421070773E+02  0.27438612033E+03  0.15980486975E+02  0.32565712112E+03  0.17200000000E+03 0.  1.
         -6    1    1    2    0  503 -0.30421070773E+02 -0.27438612033E+03  0.57295976152E+02  0.33027263504E+03  0.17200000000E+03 0. -1.
</event>
<event>
 4    1  0.2889985E+000  0.1827092E+03  0.7818608E-02  0.1165207E+00
         21   -1    0    0  501  502  0.00000000000E+00  0.00000000000E+00  0.93427839220E+02  0.93427839220E+02  0.00000000000E+00 0. -1.
         21   -1    0    0  502  503 -0.00000000000E+00 -0.00000000000E+00 -0.65421365003E+03  0.65421365003E+03  0.00000000000E+00 0. -1.
          6    1    1    2  501    0 -0.61526108350E+02 -0.36303169960E+01 -0.28560371236E+02  0.18492792114E+03  0.17200000000E+03 0. -1.
         -6    1    1    2    0  503  0.61526108350E+02  0.36303169960E+01 -0.53222543958E+03  0.56271356812E+03  0.17200000000E+03 0. -1.
</event>
<event>
 4    1  0.2889985E+000  0.2015078E+03  0.7818608E-02  0.1148473E+00
         21   -1    0    0  501  502  0.00000000000E+00  0.00000000000E+00  0.17352169962E+02  0.17352169962E+02  0.00000000000E+00 0.  1.
         21   -1    0    0  502  503 -0.00000000000E+00 -0.00000000000E+00 -0.24021956306E+04  0.24021956306E+04  0.00000000000E+00 0. -1.
          6    1    1    2  501    0  0.16105174744E+02  0.10374015885E+03 -0.13869641479E+04  0.14015259344E+04  0.17200000000E+03 0. -1.
         -6    1    1    2    0  503 -0.16105174744E+02 -0.10374015885E+03 -0.99787931274E+03  0.10180218662E+04  0.17200000000E+03 0.  1.
</event>
<event>
 4    1  0.2889985E+000  0.1942028E+03  0.7818608E-02  0.1154724E+00
         21   -1    0    0  501  502  0.00000000000E+00  0.00000000000E+00  0.81412963424E+02  0.81412963424E+02  0.00000000000E+00 0.  1.
         21   -1    0    0  502  503 -0.00000000000E+00 -0.00000000000E+00 -0.48908410754E+03  0.48908410754E+03  0.00000000000E+00 0. -1.
          6    1    1    2  501    0  0.90036975856E+02  0.49067547023E+01 -0.13827994052E+03  0.23840317786E+03  0.17200000000E+03 0.  1.
         -6    1    1    2    0  503 -0.90036975856E+02 -0.49067547023E+01 -0.26939120359E+03  0.33209389310E+03  0.17200000000E+03 0.  1.
</event>
<event>
 4    1  0.2889985E+000  0.2149457E+03  0.7818608E-02  0.1137708E+00
         21   -1    0    0  503  502  0.00000000000E+00  0.00000000000E+00  0.72568013963E+03  0.72568013963E+03  0.00000000000E+00 0.  1.
         21   -1    0    0  501  503 -0.00000000000E+00 -0.00000000000E+00 -0.75697773240E+02  0.75697773240E+02  0.00000000000E+00 0.  1.
          6    1    1    2  501    0 -0.27041913795E+02  0.12604118093E+03  0.16524945159E+03  0.27112547952E+03  0.17200000000E+03 0.  1.
         -6    1    1    2    0  502  0.27041913795E+02 -0.12604118093E+03  0.48473291480E+03  0.53025243336E+03  0.17200000000E+03 0.  1.
</event>
<event>
 4    1  0.2889985E+000  0.1886004E+03  0.7818608E-02  0.1159730E+00
         21   -1    0    0  503  502  0.00000000000E+00  0.00000000000E+00  0.15046703187E+04  0.15046703187E+04  0.00000000000E+00 0. -1.
         21   -1    0    0  501  503 -0.00000000000E+00 -0.00000000000E+00 -0.30479820838E+02  0.30479820838E+02  0.00000000000E+00 0. -1.
          6    1    1    2  501    0 -0.61257534354E+02  0.47261074138E+02  0.37347873808E+03  0.41839749335E+03  0.17200000000E+03 0. -1.
         -6    1    1    2    0  502  0.61257534354E+02 -0.47261074138E+02  0.11007117598E+04  0.11167526462E+04  0.17200000000E+03 0. -1.
</event>
<event>
 4    1  0.2889985E+000  0.1775875E+03  0.7818608E-02  0.1170159E+00
         21   -1    0    0  501  502  0.00000000000E+00  0.00000000000E+00  0.16102177010E+03  0.16102177010E+03  0.00000000000E+00 0. -1.
         21   -1    0    0  502  503 -0.00000000000E+00 -0.00000000000E+00 -0.25823423360E+03  0.25823423360E+03  0.00000000000E+00 0. -1.
          6    1    1    2  501    0  0.23169770405E+01  0.44135435477E+02  0.54421479863E+02  0.18573907106E+03  0.17200000000E+03 0. -1.
         -6    1    1    2    0  503 -0.23169770405E+01 -0.44135435477E+02 -0.15163394336E+03  0.23351693263E+03  0.17200000000E+03 0. -1.
</event>
<event>
 4    1  0.2889985E+000  0.1987890E+03  0.7818608E-02  0.1150765E+00
         21   -1    0    0  503  502  0.00000000000E+00  0.00000000000E+00  0.19586766318E+03  0.19586766318E+03  0.00000000000E+00 0.  1.
         21   -1    0    0  501  503 -0.00000000000E+00 -0.00000000000E+00 -0.15117755439E+04  0.15117755439E+04  0.00000000000E+00 0.  1.
          6    1    1    2  501    0  0.98945744060E+02 -0.11949802772E+02 -0.14527628427E+04  0.14663004246E+04  0.17200000000E+03 0.  1.
         -6    1    1    2    0  502 -0.98945744060E+02  0.11949802772E+02  0.13685496195E+03  0.24134278250E+03  0.17200000000E+03 0.  1.
</event>
<event>
 4    1  0.2889985E+000  0.1900362E+03  0.7818608E-02  0.1158429E+00
         21   -1    0    0  501  502  0.00000000000E+00  0.00000000000E+00  0.31445999899E+03  0.31445999899E+03  0.00000000000E+00 0.  1.
         21   -1    0    0  502  503 -0.00000000000E+00 -0.00000000000E+00 -0.11817772028E+03  0.11817772028E+03  0.00000000000E+00 0. -1.
          6    1    1    2  501    0  0.46040761043E+02  0.66407784305E+02  0.13447500352E+03  0.23280307572E+03  0.17200000000E+03 0.  1.
         -6    1    1    2    0  503 -0.46040761043E+02 -0.66407784305E+02  0.61807275189E+02  0.19983464354E+03  0.17200000000E+03 0. -1.
</event>
<event>
 4    1  0.2889985E+000  0.2312317E+03  0.7818608E-02  0.1125776E+00
         21   -1    0    0  501  502  0.00000000000E+00  0.00000000000E+00  0.11919844137E+03  0.11919844137E+03  0.00000000000E+00 0. -1.
         21   -1    0    0  502  503 -0.00000000000E+00 -0.00000000000E+00 -0.51480334729E+03  0.51480334729E+03  0.00000000000E+00 0. -1.
          6    1    1    2  501    0 -0.27345596644E+02 -0.15210623880E+03 -0.84092381622E+02  0.24604799976E+03  0.17200000000E+03 0. -1.
         -6    1    1    2    0  503  0.27345596644E+02  0.15210623880E+03 -0.31151252430E+03  0.38795378891E+03  0.17200000000E+03 0. -1.
</event>
<event>
 4    1  0.2889985E+000  0.2029203E+03  0.7818608E-02  0.1147298E+00
         21   -1    0    0  501  502  0.00000000000E+00  0.00000000000E+00  0.40041272224E+03  0.40041272224E+03  0.00000000000E+00 0. -1.
         21   -1    0    0  502  503 -0.00000000000E+00 -0.00000000000E+00 -0.26779657440E+03  0.26779657440E+03  0.00000000000E+00 0.  1.
          6    1    1    2  501    0 -0.11996470497E+02 -0.10699879877E+03  0.32853102205E+03  0.38614672171E+03  0.17200000000E+03 0. -1.
         -6    1    1    2    0  503  0.11996470497E+02  0.10699879877E+03 -0.19591487420E+03  0.28206257493E+03  0.17200000000E+03 0.  1.
</event>
<event>
 4    1  0.2889985E+000  0.1739884E+03  0.7818608E-02  0.1173751E+00
         21   -1    0    0  503  502  0.00000000000E+00  0.00000000000E+00  0.18025652062E+03  0.18025652062E+03  0.00000000000E+00 0.  1.
         21   -1    0    0  501  503 -0.00000000000E+00 -0.00000000000E+00 -0.18107833419E+03  0.18107833419E+03  0.00000000000E+00 0.  1.
          6    1    1    2  501    0  0.87919966003E+00 -0.26214466754E+02  0.48257270437E+02  0.18055673737E+03  0.17200000000E+03 0. -1.
         -6    1    1    2    0  502 -0.87919966003E+00  0.26214466754E+02 -0.49079084012E+02  0.18077811744E+03  0.17200000000E+03 0. -1.
</event>
<event>
 4    1  0.2889985E+000  0.2255104E+03  0.7818608E-02  0.1129840E+00
         21   -1    0    0  501  502  0.00000000000E+00  0.00000000000E+00  0.68437301781E+02  0.68437301781E+02  0.00000000000E+00 0. -1.
         21   -1    0    0  502  503 -0.00000000000E+00 -0.00000000000E+00 -0.76943176954E+03  0.76943176954E+03  0.00000000000E+00 0.  1.
          6    1    1    2  501    0  0.31147963463E+02  0.14248066711E+03 -0.27297964499E+03  0.35408024897E+03  0.17200000000E+03 0.  1.
         -6    1    1    2    0  503 -0.31147963463E+02 -0.14248066711E+03 -0.42801482277E+03  0.48378882236E+03  0.17200000000E+03 0.  1.
</event>
<event>
 4    1  0.2889985E+000  0.1732201E+03  0.7818608E-02  0.1174531E+00
         21   -1    0    0  503  502  0.00000000000E+00  0.00000000000E+00  0.35994946403E+03  0.35994946403E+03  0.00000000000E+00 0.  1.
         21   -1    0    0  501  503 -0.00000000000E+00 -0.00000000000E+00 -0.13178033410E+03  0.13178033410E+03  0.00000000000E+00 0.  1.
          6    1    1    2  501    0 -0.33489127223E+01  0.20247993135E+02 -0.34950169442E+02  0.17671081118E+03  0.17200000000E+03 0.  1.
         -6    1    1    2    0  502  0.33489127223E+01 -0.20247993135E+02  0.26311929936E+03  0.31501898695E+03  0.17200000000E+03 0.  1.
</event>
<event>
 4    1  0.2889985E+000  0.2815337E+03  0.7818608E-02  0.1094854E+00
         21   -1    0    0  501  502  0.00000000000E+00  0.00000000000E+00  0.16099179470E+04  0.16099179470E+04  0.00000000000E+00 0.  1.
         21   -1    0    0  502  503 -0.00000000000E+00 -0.00000000000E+00 -0.71541654580E+02  0.71541654580E+02  0.00000000000E+00 0. -1.
          6    1    1    2  501    0  0.22188910643E+03  0.21034590808E+02  0.12386635015E+04  0.12702552891E+04  0.17200000000E+03 0.  1.
         -6    1    1    2    0  503 -0.22188910643E+03 -0.21034590808E+02  0.29971279097E+03  0.41120431252E+03  0.17200000000E+03 0. -1.
</event>
<event>
 4    1  0.2889985E+000  0.1750939E+03  0.7818608E-02  0.1172637E+00
         21   -1    0    0  501  502  0.00000000000E+00  0.00000000000E+00  0.12458926879E+03  0.12458926879E+03  0.00000000000E+00 0.  1.
         21   -1    0    0  502  503 -0.00000000000E+00 -0.00000000000E+00 -0.27073096648E+03  0.27073096648E+03  0.00000000000E+00 0.  1.
          6    1    1    2  501    0  0.31159426352E+02  0.10147308860E+02 -0.13416617896E+02  0.17560718483E+03  0.17200000000E+03 0.  1.
         -6    1    1    2    0  503 -0.31159426352E+02 -0.10147308860E+02 -0.13272507979E+03  0.21971305044E+03  0.17200000000E+03 0.  1.
</event>
<event>
 4    1  0.2889985E+000  0.2269453E+03  0.7818608E-02  0.1128808E+00
         21   -1    0    0  501  502  0.00000000000E+00  0.00000000000E+00  0.97946066548E+03  0.97946066548E+03  0.00000000000E+00 0.  1.
         21   -1    0    0  502  503 -0.00000000000E+00 -0.00000000000E+00 -0.10069057381E+03  0.10069057381E+03  0.00000000000E+00 0.  1.
          6    1    1    2  501    0  0.14046859562E+03 -0.46783970960E+02  0.81268799924E+03  0.84378074783E+03  0.17200000000E+03 0.  1.
         -6    1    1    2    0  503 -0.14046859562E+03  0.46783970960E+02  0.66082092429E+02  0.23637049146E+03  0.17200000000E+03 0.  1.
</event>
<event>
 4    1  0.2889985E+000  0.2087170E+03  0.7818608E-02  0.1142586E+00
         21   -1    0    0  501  502  0.00000000000E+00  0.00000000000E+00  0.89505274903E+02  0.89505274903E+02  0.00000000000E+00 0.  1.
         21   -1    0    0  502  503 -0.00000000000E+00 -0.00000000000E+00 -0.49269350129E+03  0.49269350129E+03  0.00000000000E+00 0. -1.
          6    1    1    2  501    0  0.67108194900E+02 -0.97341012015E+02 -0.16950451397E+03  0.26887648224E+03  0.17200000000E+03 0.  1.
         -6    1    1    2    0  503 -0.67108194900E+02  0.97341012015E+02 -0.23368371242E+03  0.31332229396E+03  0.17200000000E+03 0.  1.
</event>
<event>
 4    1  0.2889985E+000  0.1884944E+03  0.7818608E-02  0.1159826E+00
         21   -1    0    0  503  502  0.00000000000E+00  0.00000000000E+00  0.27232328104E+03  0.27232328104E+03  0.00000000000E+00 0. -1.
         21   -1    0    0  501  503 -0.00000000000E+00 -0.00000000000E+00 -0.13069400710E+03  0.13069400710E+03  0.00000000000E+00 0.  1.
          6    1    1    2  501    0 -0.12116957316E+02  0.76153342878E+02  0.79147992267E+02  0.20443717119E+03  0.17200000000E+03 0. -1.
         -6    1    1    2    0  502  0.12116957316E+02 -0.76153342878E+02  0.62481281678E+02  0.19858011695E+03  0.17200000000E+03 0.  1.
</event>
<event>
 4    1  0.2889985E+000  0.2591173E+03  0.7818608E-02  0.1107675E+00
         21   -1    0    0  501  502  0.00000000000E+00  0.00000000000E+00  0.13523908843E+04  0.13523908843E+04  0.00000000000E+00 0. -1.
         21   -1    0    0  502  503 -0.00000000000E+00 -0.00000000000E+00 -0.99438781472E+02  0.99438781472E+02  0.00000000000E+00 0.  1.
          6    1    1    2  501    0 -0.89967484003E+02 -0.17164975455E+03  0.11401502823E+04  0.11692238677E+04  0.17200000000E+03 0. -1.
         -6    1    1    2    0  503  0.89967484003E+02  0.17164975455E+03  0.11280182049E+03  0.28260579810E+03  0.17200000000E+03 0.  1.
</event>
<event>
 4    1  0.2889985E+000  0.1877211E+03  0.7818608E-02  0.1160533E+00
         21   -1    0    0  503  502  0.00000000000E+00  0.00000000000E+00  0.60064052091E+03  0.60064052091E+03  0.00000000000E+00 0.  1.
         21   -1    0    0  501  503 -0.00000000000E+00 -0.00000000000E+00 -0.21885012288E+03  0.21885012288E+03  0.00000000000E+00 0.  1.
          6    1    1    2  501    0 -0.26506528484E+02 -0.70374809795E+02 -0.15965139486E+03  0.24643006672E+03  0.17200000000E+03 0.  1.
         -6    1    1    2    0  502  0.26506528484E+02  0.70374809795E+02  0.54144179288E+03  0.57306057706E+03  0.17200000000E+03 0.  1.
</event>
<event>
 4    1  0.2889985E+000  0.2293697E+03  0.7818608E-02  0.1127084E+00
         21   -1    0    0  501  502  0.00000000000E+00  0.00000000000E+00  0.49207412715E+03  0.49207412715E+03  0.00000000000E+00 0.  1.
         21   -1    0    0  502  503 -0.00000000000E+00 -0.00000000000E+00 -0.18773275905E+03  0.18773275905E+03  0.00000000000E+00 0.  1.
          6    1    1    2  501    0 -0.95420986849E+02 -0.11798858036E+03  0.37518715746E+03  0.43974523641E+03  0.17200000000E+03 0.  1.
         -6    1    1    2    0  503  0.95420986849E+02  0.11798858036E+03 -0.70845789366E+02  0.24006164979E+03  0.17200000000E+03 0.  1.
</event>
<event>
 4    1  0.2889985E+000  0.2388096E+03  0.7818608E-02  0.1120588E+00
         21   -1    0    0  503  502  0.00000000000E+00  0.00000000000E+00  0.55758108916E+03  0.55758108916E+03  0.00000000000E+00 0.  1.
         21   -1    0    0  501  503 -0.00000000000E+00 -0.00000000000E+00 -0.10803860650E+03  0.10803860650E+03  0.00000000000E+00 0. -1.
          6    1    1    2  501    0 -0.14137135621E+03 -0.86372297640E+02  0.30159969151E+03  0.38469781397E+03  0.17200000000E+03 0. -1.
         -6    1    1    2    0  502  0.14137135621E+03  0.86372297640E+02  0.14794279116E+03  0.28092188169E+03  0.17200000000E+03 0.  1.
</event>
<event>
 4    1  0.2889985E+000  0.1742369E+03  0.7818608E-02  0.1173500E+00
         21   -1    0    0  501  502  0.00000000000E+00  0.00000000000E+00  0.22858727569E+04  0.22858727569E+04  0.00000000000E+00 0. -1.
         21   -1    0    0  502  503 -0.00000000000E+00 -0.00000000000E+00 -0.47564955589E+02  0.47564955589E+02  0.00000000000E+00 0. -1.
          6    1    1    2  501    0 -0.64912886282E+01  0.27062154620E+02  0.21096861669E+04  0.21168689662E+04  0.17200000000E+03 0. -1.
         -6    1    1    2    0  503  0.64912886282E+01 -0.27062154620E+02  0.12862163435E+03  0.21656874627E+03  0.17200000000E+03 0. -1.
</event>
<event>
 4    1  0.2889985E+000  0.2378988E+03  0.7818608E-02  0.1121201E+00
         21   -1    0    0  501  502  0.00000000000E+00  0.00000000000E+00  0.12817319501E+04  0.12817319501E+04  0.00000000000E+00 0. -1.
         21   -1    0    0  502  503 -0.00000000000E+00 -0.00000000000E+00 -0.53613852831E+02  0.53613852831E+02  0.00000000000E+00 0.  1.
          6    1    1    2  501    0  0.13459330154E+03  0.94321171354E+02  0.89449079328E+03  0.92558609511E+03  0.17200000000E+03 0. -1.
         -6    1    1    2    0  503 -0.13459330154E+03 -0.94321171354E+02  0.33362730395E+03  0.40975970779E+03  0.17200000000E+03 0.  1.
</event>
<event>
 4    1  0.2889985E+000  0.2665795E+03  0.7818608E-02  0.1103253E+00
         21   -1    0    0  503  502  0.00000000000E+00  0.00000000000E+00  0.84387313801E+03  0.84387313801E+03  0.00000000000E+00 0.  1.
         21   -1    0    0  501  503 -0.00000000000E+00 -0.00000000000E+00 -0.11417934592E+03  0.11417934592E+03  0.00000000000E+00 0. -1.
          6    1    1    2  501    0  0.20311344982E+03  0.15017958882E+02  0.11944014171E+03  0.29211395043E+03  0.17200000000E+03 0. -1.
         -6    1    1    2    0  502 -0.20311344982E+03 -0.15017958882E+02  0.61025365039E+03  0.66593853350E+03  0.17200000000E+03 0.  1.
</event>
<event>
 4    1  0.2889985E+000  0.1745706E+03  0.7818608E-02  0.1173164E+00
         21   -1    0    0  503  502  0.00000000000E+00  0.00000000000E+00  0.62570202533E+03  0.62570202533E+03  0.00000000000E+00 0. -1.
         21   -1    0    0  501  503 -0.00000000000E+00 -0.00000000000E+00 -0.50739423442E+02  0.50739423442E+02  0.00000000000E+00 0. -1.
          6    1    1    2  501    0  0.28576956142E+02  0.86159964374E+01  0.21975805325E+03  0.28065722828E+03  0.17200000000E+03 0. -1.
         -6    1    1    2    0  502 -0.28576956142E+02 -0.86159964374E+01  0.35520454864E+03  0.39578422049E+03  0.17200000000E+03 0. -1.
</event>
<event>
 4    1  0.2889985E+000  0.1985885E+03  0.7818608E-02  0.1150935E+00
         21   -1    0    0  503  502  0.00000000000E+00  0.00000000000E+00  0.19592243753E+03  0.19592243753E+03  0.00000000000E+00 0.  1.
         21   -1    0    0  501  503 -0.00000000000E+00 -0.00000000000E+00 -0.20405441898E+03  0.20405441898E+03  0.00000000000E+00 0.  1.
          6    1    1    2  501    0 -0.98721042006E+02 -0.10371084052E+02 -0.27339570906E+02  0.20046160644E+03  0.17200000000E+03 0. -1.
         -6    1    1    2    0  502  0.98721042006E+02  0.10371084052E+02  0.19207589459E+02  0.19951525007E+03  0.17200000000E+03 0. -1.
</event>
<event>
 4    1  0.2889985E+000  0.1994143E+03  0.7818608E-02  0.1150234E+00
         21   -1    0    0  501  502  0.00000000000E+00  0.00000000000E+00  0.66790740250E+03  0.66790740250E+03  0.00000000000E+00 0.  1.
         21   -1    0    0  502  503 -0.00000000000E+00 -0.00000000000E+00 -0.66391080110E+02  0.66391080110E+02  0.00000000000E+00 0.  1.
          6    1    1    2  501    0 -0.69164515221E+02 -0.73473326603E+02  0.41871461505E+03  0.46377579577E+03  0.17200000000E+03 0.  1.
         -6    1    1    2    0  503  0.69164515221E+02  0.73473326603E+02  0.18280170734E+03  0.27052268684E+03  0.17200000000E+03 0.  1.
</event>
<event>
 4    1  0.2889985E+000  0.2919303E+03  0.7818608E-02  0.1089346E+00
         21   -1    0    0  501  502  0.00000000000E+00  0.00000000000E+00  0.10503774858E+03  0.10503774858E+03  0.00000000000E+00 0.  1.
         21   -1    0    0  502  503 -0.00000000000E+00 -0.00000000000E+00 -0.16185780810E+04  0.16185780810E+04  0.00000000000E+00 0. -1.
          6    1    1    2  501    0 -0.21141383661E+03  0.10461109513E+03 -0.14815966698E+03  0.32737528687E+03  0.17200000000E+03 0.  1.
         -6    1    1    2    0  503  0.21141383661E+03 -0.10461109513E+03 -0.13653806654E+04  0.13962405427E+04  0.17200000000E+03 0.  1.
</event>
<event>
 4    1  0.2889985E+000  0.2479674E+03  0.7818608E-02  0.1114596E+00
         21   -1    0    0  501  502  0.00000000000E+00  0.00000000000E+00  0.40691257347E+03  0.40691257347E+03  0.00000000000E+00 0. -1.
         21   -1    0    0  502  503 -0.00000000000E+00 -0.00000000000E+00 -0.19828291090E+03  0.19828291090E+03  0.00000000000E+00 0.  1.
          6    1    1    2  501    0  0.17049441384E+03  0.53249345740E+02  0.25191183274E+03  0.35347900850E+03  0.17200000000E+03 0. -1.
         -6    1    1    2    0  503 -0.17049441384E+03 -0.53249345740E+02 -0.43282170171E+02  0.25171647588E+03  0.17200000000E+03 0.  1.
</event>
<event>
 4    1  0.2889985E+000  0.1806801E+03  0.7818608E-02  0.1167146E+00
         21   -1    0    0  503  502  0.00000000000E+00  0.00000000000E+00  0.10836473980E+03  0.10836473980E+03  0.00000000000E+00 0.  1.
         21   -1    0    0  501  503 -0.00000000000E+00 -0.00000000000E+00 -0.32513350539E+03  0.32513350539E+03  0.00000000000E+00 0.  1.
          6    1    1    2  501    0  0.40952366580E+02 -0.37204819691E+02 -0.16712527297E+03  0.24612222940E+03  0.17200000000E+03 0.  1.
         -6    1    1    2    0  502 -0.40952366580E+02  0.37204819691E+02 -0.49643492609E+02  0.18737601579E+03  0.17200000000E+03 0.  1.
</event>
<event>
 4    1  0.2889985E+000  0.1914710E+03  0.7818608E-02  0.1157141E+00
         21   -1    0    0  501  502  0.00000000000E+00  0.00000000000E+00  0.65279156449E+02  0.65279156449E+02  0.00000000000E+00 0.  1.
         21   -1    0    0  502  503 -0.00000000000E+00 -0.00000000000E+00 -0.59174306374E+03  0.59174306374E+03  0.00000000000E+00 0.  1.
          6    1    1    2  501    0  0.15320250261E+02  0.82719016792E+02 -0.33736915097E+03  0.38791634386E+03  0.17200000000E+03 0. -1.
         -6    1    1    2    0  503 -0.15320250261E+02 -0.82719016792E+02 -0.18909475633E+03  0.26910587633E+03  0.17200000000E+03 0. -1.
</event>
<event>
 4    1  0.2889985E+000  0.2460572E+03  0.7818608E-02  0.1115822E+00
         21   -1    0    0  503  502  0.00000000000E+00  0.00000000000E+00  0.32094696119E+03  0.32094696119E+03  0.00000000000E+00 0.  1.
         21   -1    0    0  501  503 -0.00000000000E+00 -0.00000000000E+00 -0.28008562328E+03  0.28008562328E+03  0.00000000000E+00 0.  1.
          6    1    1    2  501    0  0.83450483797E+02 -0.15490698202E+03  0.19214191380E+03  0.31219012054E+03  0.17200000000E+03 0.  1.
         -6    1    1    2    0  502 -0.83450483797E+02  0.15490698202E+03 -0.15128057590E+03  0.28884246393E+03  0.17200000000E+03 0.  1.
</event>
<event>
 4    1  0.2889985E+000  0.2348552E+03  0.7818608E-02  0.1123268E+00
         21   -1    0    0  503  502  0.00000000000E+00  0.00000000000E+00  0.24099719268E+03  0.24099719268E+03  0.00000000000E+00 0.  1.
         21   -1    0    0  501  503 -0.00000000000E+00 -0.00000000000E+00 -0.31739303567E+03  0.31739303567E+03  0.00000000000E+00 0.  1.
          6    1    1    2  501    0 -0.55009226787E+01  0.15982086839E+03 -0.18564556992E+03  0.29936808072E+03  0.17200000000E+03 0.  1.
         -6    1    1    2    0  502  0.55009226787E+01 -0.15982086839E+03  0.10924972693E+03  0.25902214762E+03  0.17200000000E+03 0.  1.
</event>
<event>
 4    1  0.2889985E+000  0.4163163E+03  0.7818608E-02  0.1038272E+00
         21   -1    0    0  503  502  0.00000000000E+00  0.00000000000E+00  0.31733841543E+03  0.31733841543E+03  0.00000000000E+00 0. -1.
         21   -1    0    0  501  503 -0.00000000000E+00 -0.00000000000E+00 -0.62496178570E+03  0.62496178570E+03  0.00000000000E+00 0. -1.
          6    1    1    2  501    0  0.37323855216E+03 -0.66544877649E+02 -0.32110782603E+03  0.52576560700E+03  0.17200000000E+03 0. -1.
         -6    1    1    2    0  502 -0.37323855216E+03  0.66544877649E+02  0.13484455765E+02  0.41653459413E+03  0.17200000000E+03 0. -1.
</event>
<event>
 4    1  0.2889985E+000  0.1805508E+03  0.7818608E-02  0.1167271E+00
         21   -1    0    0  501  502  0.00000000000E+00  0.00000000000E+00  0.27179923573E+03  0.27179923573E+03  0.00000000000E+00 0. -1.
         21   -1    0    0  502  503 -0.00000000000E+00 -0.00000000000E+00 -0.12711444629E+03  0.12711444629E+03  0.00000000000E+00 0. -1.
          6    1    1    2  501    0  0.42645450295E+02 -0.34582538479E+02  0.11974023523E+03  0.21664789482E+03  0.17200000000E+03 0. -1.
         -6    1    1    2    0  503 -0.42645450295E+02  0.34582538479E+02  0.24944554207E+02  0.18226578720E+03  0.17200000000E+03 0. -1.
</event>
<event>
 4    1  0.2889985E+000  0.1924926E+03  0.7818608E-02  0.1156232E+00
         21   -1    0    0  501  502  0.00000000000E+00  0.00000000000E+00  0.68156074821E+02  0.68156074821E+02  0.00000000000E+00 0.  1.
         21   -1    0    0  502  503 -0.00000000000E+00 -0.00000000000E+00 -0.55737023217E+03  0.55737023217E+03  0.00000000000E+00 0.  1.
          6    1    1    2  501    0  0.41046433611E+02 -0.76056482578E+02 -0.19554526921E+03  0.27439269408E+03  0.17200000000E+03 0. -1.
         -6    1    1    2    0  503 -0.41046433611E+02  0.76056482578E+02 -0.29366888814E+03  0.35113361291E+03  0.17200000000E+03 0. -1.
</event>
<event>
 4    1  0.2889985E+000  0.3383921E+03  0.7818608E-02  0.1067483E+00
         21   -1    0    0  501  502  0.00000000000E+00  0.00000000000E+00  0.15444208238E+03  0.15444208238E+03  0.00000000000E+00 0. -1.
         21   -1    0    0  502  503 -0.00000000000E+00 -0.00000000000E+00 -0.74148517294E+03  0.74148517294E+03  0.00000000000E+00 0.  1.
          6    1    1    2  501    0  0.28035994156E+03  0.79520613391E+02 -0.29709553951E+03  0.45030543455E+03  0.17200000000E+03 0.  1.
         -6    1    1    2    0  503 -0.28035994156E+03 -0.79520613391E+02 -0.28994755105E+03  0.44562182077E+03  0.17200000000E+03 0.  1.
</event>
<event>
 4    1  0.2889985E+000  0.2421380E+03  0.7818608E-02  0.1118377E+00
         21   -1    0    0  503  502  0.00000000000E+00  0.00000000000E+00  0.36911512941E+03  0.36911512941E+03  0.00000000000E+00 0.  1.
         21   -1    0    0  501  503 -0.00000000000E+00 -0.00000000000E+00 -0.81905296351E+03  0.81905296351E+03  0.00000000000E+00 0.  1.
          6    1    1    2  501    0 -0.15681490518E+03 -0.66752489320E+02 -0.75834485532E+03  0.79606389751E+03  0.17200000000E+03 0.  1.
         -6    1    1    2    0  502  0.15681490518E+03  0.66752489320E+02  0.30840702123E+03  0.39210419541E+03  0.17200000000E+03 0.  1.
</event>
<event>
 4    1  0.2889985E+000  0.1804905E+03  0.7818608E-02  0.1167329E+00
         21   -1    0    0  503  502  0.00000000000E+00  0.00000000000E+00  0.24733381291E+03  0.24733381291E+03  0.00000000000E+00 0.  1.
         21   -1    0    0  501  503 -0.00000000000E+00 -0.00000000000E+00 -0.15517628687E+03  0.15517628687E+03  0.00000000000E+00 0.  1.
          6    1    1    2  501    0  0.18038054575E+02 -0.51647443447E+02 -0.32180875678E+02  0.18333695369E+03  0.17200000000E+03 0.  1.
         -6    1    1    2    0  502 -0.18038054575E+02  0.51647443447E+02  0.12433840172E+03  0.21917314610E+03  0.17200000000E+03 0.  1.
</event>
<event>
 4    1  0.2889985E+000  0.1952557E+03  0.7818608E-02  0.1153805E+00
         21   -1    0    0  503  502  0.00000000000E+00  0.00000000000E+00  0.37383706155E+03  0.37383706155E+03  0.00000000000E+00 0.  1.
         21   -1    0    0  501  503 -0.00000000000E+00 -0.00000000000E+00 -0.10346441079E+03  0.10346441079E+03  0.00000000000E+00 0.  1.
          6    1    1    2  501    0 -0.89920327184E+02 -0.21333833796E+02  0.10662396078E+03  0.22247127167E+03  0.17200000000E+03 0.  1.
         -6    1    1    2    0  502  0.89920327184E+02  0.21333833796E+02  0.16374868998E+03  0.25483020067E+03  0.17200000000E+03 0.  1.
</event>
<event>
 4    1  0.2889985E+000  0.2691658E+03  0.7818608E-02  0.1101758E+00
         21   -1    0    0  503  502  0.00000000000E+00  0.00000000000E+00  0.27852808280E+03  0.27852808280E+03  0.00000000000E+00 0.  1.
         21   -1    0    0  501  503 -0.00000000000E+00 -0.00000000000E+00 -0.28477478734E+03  0.28477478734E+03  0.00000000000E+00 0. -1.
          6    1    1    2  501    0 -0.35567865014E+01  0.20701107024E+03 -0.85999080069E+02  0.28257047918E+03  0.17200000000E+03 0. -1.
         -6    1    1    2    0  502  0.35567865014E+01 -0.20701107024E+03  0.79752375530E+02  0.28073239096E+03  0.17200000000E+03 0.  1.
</event>
<event>
 4    1  0.2889985E+000  0.2011033E+03  0.7818608E-02  0.1148812E+00
         21   -1    0    0  501  502  0.00000000000E+00  0.00000000000E+00  0.17260972718E+03  0.17260972718E+03  0.00000000000E+00 0.  1.
         21   -1    0    0  502  503 -0.00000000000E+00 -0.00000000000E+00 -0.24853592680E+03  0.24853592680E+03  0.00000000000E+00 0.  1.
          6    1    1    2  501    0  0.10313011776E+03  0.14923161851E+02  0.12432782902E+02  0.20148721061E+03  0.17200000000E+03 0.  1.
         -6    1    1    2    0  503 -0.10313011776E+03 -0.14923161851E+02 -0.88358982525E+02  0.21965844336E+03  0.17200000000E+03 0.  1.
</event>
<event>
 4    1  0.2889985E+000  0.1883144E+03  0.7818608E-02  0.1159990E+00
         21   -1    0    0  503  502  0.00000000000E+00  0.00000000000E+00  0.33953789496E+02  0.33953789496E+02  0.00000000000E+00 0. -1.
         21   -1    0    0  501  503 -0.00000000000E+00 -0.00000000000E+00 -0.10562254802E+04  0.10562254802E+04  0.00000000000E+00 0. -1.
          6    1    1    2  501    0 -0.68841137170E+01  0.76360592080E+02 -0.45353071770E+03  0.49107274710E+03  0.17200000000E+03 0. -1.
         -6    1    1    2    0  502  0.68841137170E+01 -0.76360592080E+02 -0.56874097298E+03  0.59910652258E+03  0.17200000000E+03 0. -1.
</event>
<event>
 4    1  0.2889985E+000  0.2073705E+03  0.7818608E-02  0.1143665E+00
         21   -1    0    0  503  502  0.00000000000E+00  0.00000000000E+00  0.20776582201E+03  0.20776582201E+03  0.00000000000E+00 0.  1.
         21   -1    0    0  501  503 -0.00000000000E+00 -0.00000000000E+00 -0.25412067381E+03  0.25412067381E+03  0.00000000000E+00 0.  1.
          6    1    1    2  501    0 -0.25193336951E+02 -0.11306562135E+03 -0.12264959396E+03  0.24092625813E+03  0.17200000000E+03 0.  1.
         -6    1    1    2    0  502  0.25193336951E+02  0.11306562135E+03  0.76294742155E+02  0.22096023769E+03  0.17200000000E+03 0.  1.
</event>
<event>
 4    1  0.2889985E+000  0.2012706E+03  0.7818608E-02  0.1148671E+00
         21   -1    0    0  503  502  0.00000000000E+00  0.00000000000E+00  0.33947734776E+02  0.33947734776E+02  0.00000000000E+00 0. -1.
         21   -1    0    0  501  503 -0.00000000000E+00 -0.00000000000E+00 -0.23786393960E+04  0.23786393960E+04  0.00000000000E+00 0.  1.
          6    1    1    2  501    0  0.66626743511E+02 -0.80540185720E+02 -0.20238955283E+04  0.20338787953E+04  0.17200000000E+03 0.  1.
         -6    1    1    2    0  502 -0.66626743511E+02  0.80540185720E+02 -0.32079613293E+03  0.37870833549E+03  0.17200000000E+03 0. -1.
</event>
<event>
 4    1  0.2889985E+000  0.2434033E+03  0.7818608E-02  0.1117546E+00
         21   -1    0    0  503  502  0.00000000000E+00  0.00000000000E+00  0.24393632156E+03  0.24393632156E+03  0.00000000000E+00 0.  1.
         21   -1    0    0  501  503 -0.00000000000E+00 -0.00000000000E+00 -0.36668163968E+03  0.36668163968E+03  0.00000000000E+00 0. -1.
          6    1    1    2  501    0  0.13568235736E+02 -0.17168887779E+03 -0.23878065656E+03  0.34097121539E+03  0.17200000000E+03 0. -1.
         -6    1    1    2    0  502 -0.13568235736E+02  0.17168887779E+03  0.11603533844E+03  0.26964674585E+03  0.17200000000E+03 0.  1.
</event>
<event>
 4    1  0.2889985E+000  0.1776502E+03  0.7818608E-02  0.1170097E+00
         21   -1    0    0  501  502  0.00000000000E+00  0.00000000000E+00  0.46237530134E+02  0.46237530134E+02  0.00000000000E+00 0. -1.
         21   -1    0    0  502  503 -0.00000000000E+00 -0.00000000000E+00 -0.70604497825E+03  0.70604497825E+03  0.00000000000E+00 0. -1.
          6    1    1    2  501    0 -0.40717274171E+02  0.17823749079E+02 -0.39851430116E+03  0.43631780926E+03  0.17200000000E+03 0. -1.
         -6    1    1    2    0  503  0.40717274171E+02 -0.17823749079E+02 -0.26129314695E+03  0.31596469912E+03  0.17200000000E+03 0. -1.
</event>
<event>
 4    1  0.2889985E+000  0.1928577E+03  0.7818608E-02  0.1155909E+00
         21   -1    0    0  503  502  0.00000000000E+00  0.00000000000E+00  0.17292255323E+03  0.17292255323E+03  0.00000000000E+00 0. -1.
         21   -1    0    0  501  503 -0.00000000000E+00 -0.00000000000E+00 -0.26215540152E+03  0.26215540152E+03  0.00000000000E+00 0.  1.
          6    1    1    2  501    0  0.71653502286E+02  0.49758120625E+02 -0.13678941487E+03  0.23644331028E+03  0.17200000000E+03 0.  1.
         -6    1    1    2    0  502 -0.71653502286E+02 -0.49758120625E+02  0.47556566580E+02  0.19863464447E+03  0.17200000000E+03 0. -1.
</event>
<event>
 4    1  0.2889985E+000  0.1751336E+03  0.7818608E-02  0.1172598E+00
         21   -1    0    0  503  502  0.00000000000E+00  0.00000000000E+00  0.15397989501E+02  0.15397989501E+02  0.00000000000E+00 0.  1.
         21   -1    0    0  501  503 -0.00000000000E+00 -0.00000000000E+00 -0.34186935643E+04  0.34186935643E+04  0.00000000000E+00 0.  1.
          6    1    1    2  501    0  0.32910833507E+02  0.21548011912E+01 -0.28108923492E+04  0.28163429416E+04  0.17200000000E+03 0.  1.
         -6    1    1    2    0  502 -0.32910833507E+02 -0.21548011912E+01 -0.59240322566E+03  0.61774861222E+03  0.17200000000E+03 0.  1.
</event>
<event>
 4    1  0.2889985E+000  0.3056122E+03  0.7818608E-02  0.1082468E+00
         21   -1    0    0  501  502  0.00000000000E+00  0.00000000000E+00  0.14081274372E+03  0.14081274372E+03  0.00000000000E+00 0.  1.
         21   -1    0    0  502  503 -0.00000000000E+00 -0.00000000000E+00 -0.11807928333E+04  0.11807928333E+04  0.00000000000E+00 0. -1.
          6    1    1    2  501    0  0.85984326278E+02 -0.23753213271E+03 -0.82524392235E+02  0.31655819962E+03  0.17200000000E+03 0.  1.
         -6    1    1    2    0  503 -0.85984326278E+02  0.23753213271E+03 -0.95745569736E+03  0.10050473774E+04  0.17200000000E+03 0. -1.
</event>
<event>
 4    1  0.2889985E+000  0.1795692E+03  0.7818608E-02  0.1168221E+00
         21   -1    0    0  503  502  0.00000000000E+00  0.00000000000E+00  0.72612518335E+02  0.72612518335E+02  0.00000000000E+00 0.  1.
         21   -1    0    0  501  503 -0.00000000000E+00 -0.00000000000E+00 -0.77112972835E+03  0.77112972835E+03  0.00000000000E+00 0. -1.
          6    1    1    2  501    0 -0.39628132814E+02  0.33026027013E+02 -0.62400310386E+03  0.64932655960E+03  0.17200000000E+03 0. -1.
         -6    1    1    2    0  502  0.39628132814E+02 -0.33026027013E+02 -0.74514106158E+02  0.19441568709E+03  0.17200000000E+03 0.  1.
</event>
<event>
 4    1  0.2889985E+000  0.2114484E+03  0.7818608E-02  0.1140424E+00
         21   -1    0    0  501  502  0.00000000000E+00  0.00000000000E+00  0.73786445062E+02  0.73786445062E+02  0.00000000000E+00 0.  1.
         21   -1    0    0  502  503 -0.00000000000E+00 -0.00000000000E+00 -0.61965632135E+03  0.61965632135E+03  0.00000000000E+00 0.  1.
          6    1    1    2  501    0  0.58293427172E+02 -0.10829734012E+03 -0.22135698076E+03  0.30611983023E+03  0.17200000000E+03 0. -1.
         -6    1    1    2    0  503 -0.58293427172E+02  0.10829734012E+03 -0.32451289552E+03  0.38732293618E+03  0.17200000000E+03 0. -1.
</event>
<event>
 4    1  0.2889985E+000  0.1777879E+03  0.7818608E-02  0.1169961E+00
         21   -1    0    0  501  502  0.00000000000E+00  0.00000000000E+00  0.49879266275E+02  0.49879266275E+02  0.00000000000E+00 0.  1.
         21   -1    0    0  502  503 -0.00000000000E+00 -0.00000000000E+00 -0.69097556479E+03  0.69097556479E+03  0.00000000000E+00 0.  1.
          6    1    1    2  501    0  0.19803867817E+02  0.40402416644E+02 -0.21390029962E+03  0.27814004859E+03  0.17200000000E+03 0. -1.
         -6    1    1    2    0  503 -0.19803867817E+02 -0.40402416644E+02 -0.42719599889E+03  0.46271478248E+03  0.17200000000E+03 0. -1.
</event>
<event>
 4    1  0.2889985E+000  0.1763910E+03  0.7818608E-02  0.1171342E+00
         21   -1    0    0  501  502  0.00000000000E+00  0.00000000000E+00  0.13465945616E+03  0.13465945616E+03  0.00000000000E+00 0. -1.
         21   -1    0    0  502  503 -0.00000000000E+00 -0.00000000000E+00 -0.23295425666E+03  0.23295425666E+03  0.00000000000E+00 0. -1.
          6    1    1    2  501    0  0.35292678229E+02 -0.16858184591E+02 -0.65742963234E+02  0.18824427943E+03  0.17200000000E+03 0. -1.
         -6    1    1    2    0  503 -0.35292678229E+02  0.16858184591E+02 -0.32551837269E+02  0.17936943339E+03  0.17200000000E+03 0. -1.
</event>
<event>
 4    1  0.2889985E+000  0.1754812E+03  0.7818608E-02  0.1172249E+00
         21   -1    0    0  503  502  0.00000000000E+00  0.00000000000E+00  0.12819661362E+03  0.12819661362E+03  0.00000000000E+00 0. -1.
         21   -1    0    0  501  503 -0.00000000000E+00 -0.00000000000E+00 -0.24707366617E+03  0.24707366617E+03  0.00000000000E+00 0. -1.
          6    1    1    2  501    0 -0.13810412500E+02 -0.31920703828E+02 -0.90720199942E+02  0.19754445956E+03  0.17200000000E+03 0.  1.
         -6    1    1    2    0  502  0.13810412500E+02  0.31920703828E+02 -0.28156852615E+02  0.17772582023E+03  0.17200000000E+03 0.  1.
</event>
<event>
 4    1  0.2889985E+000  0.1934621E+03  0.7818608E-02  0.1155375E+00
         21   -1    0    0  501  502  0.00000000000E+00  0.00000000000E+00  0.44656197207E+03  0.44656197207E+03  0.00000000000E+00 0.  1.
         21   -1    0    0  502  503 -0.00000000000E+00 -0.00000000000E+00 -0.12552171510E+03  0.12552171510E+03  0.00000000000E+00 0. -1.
          6    1    1    2  501    0  0.61974510450E+02  0.63267282687E+02  0.32540652197E+03  0.37857230953E+03  0.17200000000E+03 0.  1.
         -6    1    1    2    0  503 -0.61974510450E+02 -0.63267282687E+02 -0.43662649928E+01  0.19351137763E+03  0.17200000000E+03 0. -1.
</event>
<event>
 4    1  0.2889985E+000  0.1837569E+03  0.7818608E-02  0.1164216E+00
         21   -1    0    0  503  502  0.00000000000E+00  0.00000000000E+00  0.37173418048E+03  0.37173418048E+03  0.00000000000E+00 0.  1.
         21   -1    0    0  501  503 -0.00000000000E+00 -0.00000000000E+00 -0.12643293241E+03  0.12643293241E+03  0.00000000000E+00 0.  1.
          6    1    1    2  501    0  0.63677245029E+02 -0.11305385100E+02 -0.95170426954E+01  0.18400319934E+03  0.17200000000E+03 0.  1.
         -6    1    1    2    0  502 -0.63677245029E+02  0.11305385100E+02  0.25481829077E+03  0.31416391355E+03  0.17200000000E+03 0.  1.
</event>
<event>
 4    1  0.2889985E+000  0.1978461E+03  0.7818608E-02  0.1151569E+00
         21   -1    0    0  501  502  0.00000000000E+00  0.00000000000E+00  0.33636868919E+02  0.33636868919E+02  0.00000000000E+00 0.  1.
         21   -1    0    0  502  503 -0.00000000000E+00 -0.00000000000E+00 -0.13596195023E+04  0.13596195023E+04  0.00000000000E+00 0.  1.
          6    1    1    2  501    0 -0.61816476036E+02 -0.75748411783E+02 -0.92743629702E+03  0.94830437288E+03  0.17200000000E+03 0. -1.
         -6    1    1    2    0  503  0.61816476036E+02  0.75748411783E+02 -0.39854633636E+03  0.44495199834E+03  0.17200000000E+03 0. -1.
</event>
<event>
 4    1  0.2889985E+000  0.1928376E+03  0.7818608E-02  0.1155927E+00
         21   -1    0    0  501  502  0.00000000000E+00  0.00000000000E+00  0.29737917634E+03  0.29737917634E+03  0.00000000000E+00 0.  1.
         21   -1    0    0  502  503 -0.00000000000E+00 -0.00000000000E+00 -0.72251600366E+03  0.72251600366E+03  0.00000000000E+00 0.  1.
          6    1    1    2  501    0 -0.36812295778E+02 -0.79039191117E+02  0.25115555128E+03  0.31664720083E+03  0.17200000000E+03 0.  1.
         -6    1    1    2    0  503  0.36812295778E+02  0.79039191117E+02 -0.67629237860E+03  0.70324797917E+03  0.17200000000E+03 0.  1.
</event>
<event>
 4    1  0.2889985E+000  0.2140858E+03  0.7818608E-02  0.1138371E+00
         21   -1    0    0  501  502  0.00000000000E+00  0.00000000000E+00  0.30855193392E+03  0.30855193392E+03  0.00000000000E+00 0. -1.
         21   -1    0    0  502  503 -0.00000000000E+00 -0.00000000000E+00 -0.25364672693E+03  0.25364672693E+03  0.00000000000E+00 0.  1.
          6    1    1    2  501    0  0.87907627401E+01 -0.12716709864E+03  0.20840213440E+03  0.29877114671E+03  0.17200000000E+03 0. -1.
         -6    1    1    2    0  503 -0.87907627401E+01  0.12716709864E+03 -0.15349692741E+03  0.26342751415E+03  0.17200000000E+03 0.  1.
</event>
<event>
 4    1  0.2889985E+000  0.5202857E+03  0.7818608E-02  0.1008616E+00
         21   -1    0    0  501  502  0.00000000000E+00  0.00000000000E+00  0.44992155380E+03  0.44992155380E+03  0.00000000000E+00 0. -1.
         21   -1    0    0  502  503 -0.00000000000E+00 -0.00000000000E+00 -0.61805911042E+03  0.61805911042E+03  0.00000000000E+00 0. -1.
          6    1    1    2  501    0 -0.33663775700E+03 -0.35747478992E+03 -0.17106591442E+03  0.54768672792E+03  0.17200000000E+03 0. -1.
         -6    1    1    2    0  503  0.33663775700E+03  0.35747478992E+03  0.29283578087E+01  0.52029393629E+03  0.17200000000E+03 0. -1.
</event>
<event>
 4    1  0.2889985E+000  0.2008420E+03  0.7818608E-02  0.1149031E+00
         21   -1    0    0  501  502  0.00000000000E+00  0.00000000000E+00  0.17902274351E+03  0.17902274351E+03  0.00000000000E+00 0. -1.
         21   -1    0    0  502  503 -0.00000000000E+00 -0.00000000000E+00 -0.27770817738E+03  0.27770817738E+03  0.00000000000E+00 0. -1.
          6    1    1    2  501    0  0.78269469842E+02 -0.68024872004E+02  0.49843352245E+02  0.20693441687E+03  0.17200000000E+03 0. -1.
         -6    1    1    2    0  503 -0.78269469842E+02  0.68024872004E+02 -0.14852878611E+03  0.24979650403E+03  0.17200000000E+03 0. -1.
</event>
<event>
 4    1  0.2889985E+000  0.1965921E+03  0.7818608E-02  0.1152647E+00
         21   -1    0    0  503  502  0.00000000000E+00  0.00000000000E+00  0.36103698987E+03  0.36103698987E+03  0.00000000000E+00 0.  1.
         21   -1    0    0  501  503 -0.00000000000E+00 -0.00000000000E+00 -0.10719097694E+03  0.10719097694E+03  0.00000000000E+00 0.  1.
          6    1    1    2  501    0  0.90945786194E+02  0.28165655009E+02  0.11838534442E+03  0.22948535884E+03  0.17200000000E+03 0.  1.
         -6    1    1    2    0  502 -0.90945786194E+02 -0.28165655009E+02  0.13546066850E+03  0.23874260797E+03  0.17200000000E+03 0.  1.
</event>
<event>
 4    1  0.2889985E+000  0.1914408E+03  0.7818608E-02  0.1157168E+00
         21   -1    0    0  501  502  0.00000000000E+00  0.00000000000E+00  0.26316746176E+03  0.26316746176E+03  0.00000000000E+00 0. -1.
         21   -1    0    0  502  503 -0.00000000000E+00 -0.00000000000E+00 -0.19900209104E+03  0.19900209104E+03  0.00000000000E+00 0. -1.
          6    1    1    2  501    0 -0.36808996650E+02  0.75568981163E+02  0.15869346279E+03  0.24866280035E+03  0.17200000000E+03 0. -1.
         -6    1    1    2    0  503  0.36808996650E+02 -0.75568981163E+02 -0.94528092067E+02  0.21350675244E+03  0.17200000000E+03 0. -1.
</event>
<event>
 4    1  0.2889985E+000  0.3700977E+03  0.7818608E-02  0.1054656E+00
         21   -1    0    0  501  502  0.00000000000E+00  0.00000000000E+00  0.12671575956E+04  0.12671575956E+04  0.00000000000E+00 0. -1.
         21   -1    0    0  502  503 -0.00000000000E+00 -0.00000000000E+00 -0.13670308466E+03  0.13670308466E+03  0.00000000000E+00 0.  1.
          6    1    1    2  501    0  0.20114386882E+03 -0.25870732411E+03  0.88633858350E+03  0.96050425304E+03  0.17200000000E+03 0.  1.
         -6    1    1    2    0  503 -0.20114386882E+03  0.25870732411E+03  0.24411592740E+03  0.44335642718E+03  0.17200000000E+03 0. -1.
</event>
<event>
 4    1  0.2889985E+000  0.2254432E+03  0.7818608E-02  0.1129889E+00
         21   -1    0    0  503  502  0.00000000000E+00  0.00000000000E+00  0.18608058710E+03  0.18608058710E+03  0.00000000000E+00 0. -1.
         21   -1    0    0  501  503 -0.00000000000E+00 -0.00000000000E+00 -0.35675101402E+03  0.35675101402E+03  0.00000000000E+00 0.  1.
          6    1    1    2  501    0 -0.14567668607E+03  0.43538764752E+01 -0.21673775978E+03  0.31272977092E+03  0.17200000000E+03 0.  1.
         -6    1    1    2    0  502  0.14567668607E+03 -0.43538764752E+01  0.46067332857E+02  0.23010183020E+03  0.17200000000E+03 0. -1.
</event>
<event>
 4    1  0.2889985E+000  0.2042863E+03  0.7818608E-02  0.1146172E+00
         21   -1    0    0  503  502  0.00000000000E+00  0.00000000000E+00  0.85574791383E+02  0.85574791383E+02  0.00000000000E+00 0. -1.
         21   -1    0    0  501  503 -0.00000000000E+00 -0.00000000000E+00 -0.50970207994E+03  0.50970207994E+03  0.00000000000E+00 0.  1.
          6    1    1    2  501    0 -0.46490357528E+02 -0.99937742609E+02 -0.27393419808E+03  0.34172042757E+03  0.17200000000E+03 0.  1.
         -6    1    1    2    0  502  0.46490357528E+02  0.99937742609E+02 -0.15019309047E+03  0.25355644375E+03  0.17200000000E+03 0. -1.
</event>
<event>
 4    1  0.2889985E+000  0.1909770E+03  0.7818608E-02  0.1157583E+00
         21   -1    0    0  503  502  0.00000000000E+00  0.00000000000E+00  0.12515955511E+03  0.12515955511E+03  0.00000000000E+00 0. -1.
         21   -1    0    0  501  503 -0.00000000000E+00 -0.00000000000E+00 -0.29764913402E+03  0.29764913402E+03  0.00000000000E+00 0. -1.
          6    1    1    2  501    0 -0.58384777587E+02  0.58986811261E+02 -0.11686218534E+03  0.22389505693E+03  0.17200000000E+03 0.  1.
         -6    1    1    2    0  502  0.58384777587E+02 -0.58986811261E+02 -0.55627393574E+02  0.19891363219E+03  0.17200000000E+03 0.  1.
</event>
<event>
 4    1  0.2889985E+000  0.2028656E+03  0.7818608E-02  0.1147344E+00
         21   -1    0    0  503  502  0.00000000000E+00  0.00000000000E+00  0.50256040555E+02  0.50256040555E+02  0.00000000000E+00 0.  1.
         21   -1    0    0  501  503 -0.00000000000E+00 -0.00000000000E+00 -0.86132847687E+03  0.86132847687E+03  0.00000000000E+00 0.  1.
          6    1    1    2  501    0  0.10419862970E+03  0.26703939656E+02 -0.50670192923E+03  0.54580335278E+03  0.17200000000E+03 0.  1.
         -6    1    1    2    0  502 -0.10419862970E+03 -0.26703939656E+02 -0.30437050709E+03  0.36578116465E+03  0.17200000000E+03 0.  1.
</event>
<event>
 4    1  0.2889985E+000  0.1741297E+03  0.7818608E-02  0.1173608E+00
         21   -1    0    0  501  502  0.00000000000E+00  0.00000000000E+00  0.67655031459E+02  0.67655031459E+02  0.00000000000E+00 0. -1.
         21   -1    0    0  502  503 -0.00000000000E+00 -0.00000000000E+00 -0.45737394294E+03  0.45737394294E+03  0.00000000000E+00 0. -1.
          6    1    1    2  501    0 -0.11114264232E+02  0.24771571762E+02 -0.23209296803E+03  0.29015220738E+03  0.17200000000E+03 0. -1.
         -6    1    1    2    0  503  0.11114264232E+02 -0.24771571762E+02 -0.15762594344E+03  0.23487676702E+03  0.17200000000E+03 0. -1.
</event>
<event>
 4    1  0.2889985E+000  0.3057136E+03  0.7818608E-02  0.1082419E+00
         21   -1    0    0  503  502  0.00000000000E+00  0.00000000000E+00  0.30141928053E+03  0.30141928053E+03  0.00000000000E+00 0. -1.
         21   -1    0    0  501  503 -0.00000000000E+00 -0.00000000000E+00 -0.36251668329E+03  0.36251668329E+03  0.00000000000E+00 0. -1.
          6    1    1    2  501    0  0.21293422386E+03 -0.13614630097E+03 -0.15681720200E+03  0.34358759262E+03  0.17200000000E+03 0. -1.
         -6    1    1    2    0  502 -0.21293422386E+03  0.13614630097E+03  0.95719799242E+02  0.32034837119E+03  0.17200000000E+03 0. -1.
</event>
<event>
 4    1  0.2889985E+000  0.1953425E+03  0.7818608E-02  0.1153729E+00
         21   -1    0    0  501  502  0.00000000000E+00  0.00000000000E+00  0.21493280650E+03  0.21493280650E+03  0.00000000000E+00 0.  1.
         21   -1    0    0  502  503 -0.00000000000E+00 -0.00000000000E+00 -0.17771619114E+03  0.17771619114E+03  0.00000000000E+00 0. -1.
          6    1    1    2  501    0 -0.59555565712E+02  0.70907064076E+02  0.24830071679E+02  0.19691421889E+03  0.17200000000E+03 0.  1.
         -6    1    1    2    0  503  0.59555565712E+02 -0.70907064076E+02  0.12386543681E+02  0.19573477874E+03  0.17200000000E+03 0. -1.
</event>
<event>
 4    1  0.2889985E+000  0.2126767E+03  0.7818608E-02  0.1139464E+00
         21   -1    0    0  501  502  0.00000000000E+00  0.00000000000E+00  0.23441249796E+04  0.23441249796E+04  0.00000000000E+00 0. -1.
         21   -1    0    0  502  503 -0.00000000000E+00 -0.00000000000E+00 -0.22879934746E+02  0.22879934746E+02  0.00000000000E+00 0. -1.
          6    1    1    2  501    0  0.61449370252E+01 -0.12493851829E+03  0.16290513158E+04  0.16428754009E+04  0.17200000000E+03 0. -1.
         -6    1    1    2    0  503 -0.61449370252E+01  0.12493851829E+03  0.69219372914E+03  0.72412951346E+03  0.17200000000E+03 0. -1.
</event>
<event>
 4    1  0.2889985E+000  0.2032000E+03  0.7818608E-02  0.1147067E+00
         21   -1    0    0  501  502  0.00000000000E+00  0.00000000000E+00  0.62124498979E+02  0.62124498979E+02  0.00000000000E+00 0. -1.
         21   -1    0    0  502  503 -0.00000000000E+00 -0.00000000000E+00 -0.15450679498E+04  0.15450679498E+04  0.00000000000E+00 0. -1.
          6    1    1    2  501    0 -0.21703080028E+01 -0.10817365418E+03 -0.13485872969E+03  0.24387932809E+03  0.17200000000E+03 0. -1.
         -6    1    1    2    0  503  0.21703080028E+01  0.10817365418E+03 -0.13480847211E+04  0.13633131207E+04  0.17200000000E+03 0. -1.
</event>
<event>
 4    1  0.2889985E+000  0.2071483E+03  0.7818608E-02  0.1143844E+00
         21   -1    0    0  503  502  0.00000000000E+00  0.00000000000E+00  0.12680465366E+03  0.12680465366E+03  0.00000000000E+00 0.  1.
         21   -1    0    0  501  503 -0.00000000000E+00 -0.00000000000E+00 -0.34437600602E+03  0.34437600602E+03  0.00000000000E+00 0.  1.
          6    1    1    2  501    0 -0.58245850101E+02  0.99668652709E+02 -0.13982594239E+03  0.24992341538E+03  0.17200000000E+03 0. -1.
         -6    1    1    2    0  502  0.58245850101E+02 -0.99668652709E+02 -0.77745409966E+02  0.22125724431E+03  0.17200000000E+03 0. -1.
</event>
<event>
 4    1  0.2889985E+000  0.1978130E+03  0.7818608E-02  0.1151597E+00
         21   -1    0    0  503  502  0.00000000000E+00  0.00000000000E+00  0.58526819621E+03  0.58526819621E+03  0.00000000000E+00 0. -1.
         21   -1    0    0  501  503 -0.00000000000E+00 -0.00000000000E+00 -0.18148651178E+03  0.18148651178E+03  0.00000000000E+00 0.  1.
          6    1    1    2  501    0  0.97582302261E+02  0.48657324146E+01 -0.10279355693E+03  0.22292711009E+03  0.17200000000E+03 0.  1.
         -6    1    1    2    0  502 -0.97582302261E+02 -0.48657324146E+01  0.50657524137E+03  0.54382759790E+03  0.17200000000E+03 0. -1.
</event>
<event>
 4    1  0.2889985E+000  0.2431233E+03  0.7818608E-02  0.1117730E+00
         21   -1    0    0  503  502  0.00000000000E+00  0.00000000000E+00  0.11151029233E+03  0.11151029233E+03  0.00000000000E+00 0. -1.
         21   -1    0    0  501  503 -0.00000000000E+00 -0.00000000000E+00 -0.57660845997E+03  0.57660845997E+03  0.00000000000E+00 0. -1.
          6    1    1    2  501    0 -0.16419473679E+03  0.50646027759E+02 -0.33028874182E+03  0.41012142677E+03  0.17200000000E+03 0.  1.
         -6    1    1    2    0  502  0.16419473679E+03 -0.50646027759E+02 -0.13480942581E+03  0.27799732554E+03  0.17200000000E+03 0.  1.
</event>
<event>
 4    1  0.2889985E+000  0.1946661E+03  0.7818608E-02  0.1154319E+00
         21   -1    0    0  503  502  0.00000000000E+00  0.00000000000E+00  0.11456837868E+03  0.11456837868E+03  0.00000000000E+00 0.  1.
         21   -1    0    0  501  503 -0.00000000000E+00 -0.00000000000E+00 -0.22830082680E+04  0.22830082680E+04  0.00000000000E+00 0. -1.
          6    1    1    2  501    0  0.49058054647E+02  0.76838726308E+02 -0.21927718852E+04  0.22013957898E+04  0.17200000000E+03 0. -1.
         -6    1    1    2    0  502 -0.49058054647E+02 -0.76838726308E+02  0.24331995925E+02  0.19618085690E+03  0.17200000000E+03 0.  1.
</event>
<event>
 4    1  0.2889985E+000  0.2967011E+03  0.7818608E-02  0.1086901E+00
         21   -1    0    0  503  502  0.00000000000E+00  0.00000000000E+00  0.49848829208E+03  0.49848829208E+03  0.00000000000E+00 0. -1.
         21   -1    0    0  501  503 -0.00000000000E+00 -0.00000000000E+00 -0.18547163327E+03  0.18547163327E+03  0.00000000000E+00 0. -1.
          6    1    1    2  501    0  0.93000566902E+02 -0.22315563633E+03  0.81702266445E+02  0.30774470558E+03  0.17200000000E+03 0. -1.
         -6    1    1    2    0  502 -0.93000566902E+02  0.22315563633E+03  0.23131439236E+03  0.37621521977E+03  0.17200000000E+03 0. -1.
</event>
<event>
 4    1  0.2889985E+000  0.2053474E+03  0.7818608E-02  0.1145304E+00
         21   -1    0    0  503  502  0.00000000000E+00  0.00000000000E+00  0.94585894168E+03  0.94585894168E+03  0.00000000000E+00 0. -1.
         21   -1    0    0  501  503 -0.00000000000E+00 -0.00000000000E+00 -0.19526257564E+03  0.19526257564E+03  0.00000000000E+00 0.  1.
          6    1    1    2  501    0 -0.11169302453E+03  0.10402997108E+02 -0.12591459975E+03  0.24087764634E+03  0.17200000000E+03 0.  1.
         -6    1    1    2    0  502  0.11169302453E+03 -0.10402997108E+02  0.87651096579E+03  0.90024387098E+03  0.17200000000E+03 0. -1.
</event>
<event>
 4    1  0.2889985E+000  0.2193591E+03  0.7818608E-02  0.1134362E+00
         21   -1    0    0  503  502  0.00000000000E+00  0.00000000000E+00  0.19128539812E+03  0.19128539812E+03  0.00000000000E+00 0. -1.
         21   -1    0    0  501  503 -0.00000000000E+00 -0.00000000000E+00 -0.27004968354E+03  0.27004968354E+03  0.00000000000E+00 0.  1.
          6    1    1    2  501    0  0.89904111908E+02  0.10223335144E+03 -0.99750879693E+02  0.24097436686E+03  0.17200000000E+03 0. -1.
         -6    1    1    2    0  502 -0.89904111908E+02 -0.10223335144E+03  0.20986594276E+02  0.22036071479E+03  0.17200000000E+03 0.  1.
</event>
<event>
 4    1  0.2889985E+000  0.2298238E+03  0.7818608E-02  0.1126764E+00
         21   -1    0    0  501  502  0.00000000000E+00  0.00000000000E+00  0.16669707841E+03  0.16669707841E+03  0.00000000000E+00 0.  1.
         21   -1    0    0  502  503 -0.00000000000E+00 -0.00000000000E+00 -0.12499002853E+04  0.12499002853E+04  0.00000000000E+00 0.  1.
          6    1    1    2  501    0  0.15185099500E+03 -0.13276053648E+02  0.70368021222E+02  0.24035523022E+03  0.17200000000E+03 0.  1.
         -6    1    1    2    0  503 -0.15185099500E+03  0.13276053648E+02 -0.11535712281E+04  0.11762421335E+04  0.17200000000E+03 0.  1.
</event>
<event>
 4    1  0.2889985E+000  0.2049278E+03  0.7818608E-02  0.1145647E+00
         21   -1    0    0  503  502  0.00000000000E+00  0.00000000000E+00  0.40240869573E+03  0.40240869573E+03  0.00000000000E+00 0.  1.
         21   -1    0    0  501  503 -0.00000000000E+00 -0.00000000000E+00 -0.11212202262E+03  0.11212202262E+03  0.00000000000E+00 0. -1.
          6    1    1    2  501    0  0.33506057885E+02  0.10624844953E+03  0.77453714543E+02  0.21907639499E+03  0.17200000000E+03 0.  1.
         -6    1    1    2    0  502 -0.33506057885E+02 -0.10624844953E+03  0.21283295857E+03  0.29545432337E+03  0.17200000000E+03 0. -1.
</event>
<event>
 4    1  0.2889985E+000  0.1932932E+03  0.7818608E-02  0.1155524E+00
         21   -1    0    0  501  502  0.00000000000E+00  0.00000000000E+00  0.97599746325E+02  0.97599746325E+02  0.00000000000E+00 0.  1.
         21   -1    0    0  502  503 -0.00000000000E+00 -0.00000000000E+00 -0.38404734508E+03  0.38404734508E+03  0.00000000000E+00 0.  1.
          6    1    1    2  501    0  0.31758991942E+02 -0.82277668798E+02 -0.12955938386E+03  0.23269697527E+03  0.17200000000E+03 0.  1.
         -6    1    1    2    0  503 -0.31758991942E+02  0.82277668798E+02 -0.15688821489E+03  0.24895011614E+03  0.17200000000E+03 0.  1.
</event>
<event>
 4    1  0.2889985E+000  0.2192114E+03  0.7818608E-02  0.1134472E+00
         21   -1    0    0  501  502  0.00000000000E+00  0.00000000000E+00  0.14098447750E+04  0.14098447750E+04  0.00000000000E+00 0. -1.
         21   -1    0    0  502  503 -0.00000000000E+00 -0.00000000000E+00 -0.22874820697E+03  0.22874820697E+03  0.00000000000E+00 0. -1.
          6    1    1    2  501    0  0.10834929137E+03 -0.82037028830E+02  0.13463448378E+04  0.13640740688E+04  0.17200000000E+03 0. -1.
         -6    1    1    2    0  503 -0.10834929137E+03  0.82037028830E+02 -0.16524826972E+03  0.27451891317E+03  0.17200000000E+03 0. -1.
</event>
<event>
 4    1  0.2889985E+000  0.2613154E+03  0.7818608E-02  0.1106355E+00
         21   -1    0    0  501  502  0.00000000000E+00  0.00000000000E+00  0.48368789458E+03  0.48368789458E+03  0.00000000000E+00 0. -1.
         21   -1    0    0  502  503 -0.00000000000E+00 -0.00000000000E+00 -0.14228136061E+03  0.14228136061E+03  0.00000000000E+00 0.  1.
          6    1    1    2  501    0 -0.22138715097E+02  0.19547794611E+03  0.14313269246E+03  0.29794750842E+03  0.17200000000E+03 0. -1.
         -6    1    1    2    0  503  0.22138715097E+02 -0.19547794611E+03  0.19827384151E+03  0.32802174676E+03  0.17200000000E+03 0. -1.
</event>
<event>
 4    1  0.2889985E+000  0.2122486E+03  0.7818608E-02  0.1139798E+00
         21   -1    0    0  503  502  0.00000000000E+00  0.00000000000E+00  0.90493515845E+02  0.90493515845E+02  0.00000000000E+00 0. -1.
         21   -1    0    0  501  503 -0.00000000000E+00 -0.00000000000E+00 -0.53267364309E+03  0.53267364309E+03  0.00000000000E+00 0. -1.
          6    1    1    2  501    0 -0.12213426348E+03  0.23423801708E+02 -0.30079221822E+03  0.36813776137E+03  0.17200000000E+03 0. -1.
         -6    1    1    2    0  502  0.12213426348E+03 -0.23423801708E+02 -0.14138790902E+03  0.25502939756E+03  0.17200000000E+03 0. -1.
</event>
<event>
 4    1  0.2889985E+000  0.1742282E+03  0.7818608E-02  0.1173509E+00
         21   -1    0    0  501  502  0.00000000000E+00  0.00000000000E+00  0.13183347172E+03  0.13183347172E+03  0.00000000000E+00 0. -1.
         21   -1    0    0  502  503 -0.00000000000E+00 -0.00000000000E+00 -0.60091075003E+03  0.60091075003E+03  0.00000000000E+00 0. -1.
          6    1    1    2  501    0  0.26478794457E+02 -0.83874943429E+01  0.53202578610E+02  0.18217022531E+03  0.17200000000E+03 0. -1.
         -6    1    1    2    0  503 -0.26478794457E+02  0.83874943429E+01 -0.52227985692E+03  0.55057399644E+03  0.17200000000E+03 0. -1.
</event>
<event>
 4    1  0.2889985E+000  0.1836831E+03  0.7818608E-02  0.1164285E+00
         21   -1    0    0  503  502  0.00000000000E+00  0.00000000000E+00  0.13590307045E+04  0.13590307045E+04  0.00000000000E+00 0. -1.
         21   -1    0    0  501  503 -0.00000000000E+00 -0.00000000000E+00 -0.11802483432E+03  0.11802483432E+03  0.00000000000E+00 0.  1.
          6    1    1    2  501    0 -0.60863616931E+02  0.21239089512E+02 -0.35770851215E+02  0.18713372915E+03  0.17200000000E+03 0.  1.
         -6    1    1    2    0  502  0.60863616931E+02 -0.21239089512E+02  0.12767767214E+04  0.12899218097E+04  0.17200000000E+03 0. -1.
</event>
<event>
 4    1  0.2889985E+000  0.2698581E+03  0.7818608E-02  0.1101361E+00
         21   -1    0    0  501  502  0.00000000000E+00  0.00000000000E+00  0.64106847636E+03  0.64106847636E+03  0.00000000000E+00 0. -1.
         21   -1    0    0  502  503 -0.00000000000E+00 -0.00000000000E+00 -0.11368036529E+03  0.11368036529E+03  0.00000000000E+00 0.  1.
          6    1    1    2  501    0  0.32342623405E+02 -0.20541014273E+03  0.27392138190E+03  0.38452086482E+03  0.17200000000E+03 0. -1.
         -6    1    1    2    0  503 -0.32342623405E+02  0.20541014273E+03  0.25346672918E+03  0.37022797683E+03  0.17200000000E+03 0.  1.
</event>
<event>
 4    1  0.2889985E+000  0.1765148E+03  0.7818608E-02  0.1171219E+00
         21   -1    0    0  503  502  0.00000000000E+00  0.00000000000E+00  0.32716151875E+02  0.32716151875E+02  0.00000000000E+00 0.  1.
         21   -1    0    0  501  503 -0.00000000000E+00 -0.00000000000E+00 -0.95983491634E+03  0.95983491634E+03  0.00000000000E+00 0.  1.
          6    1    1    2  501    0 -0.10896374303E+02  0.38141306152E+02 -0.50736045556E+03  0.53718909340E+03  0.17200000000E+03 0.  1.
         -6    1    1    2    0  502  0.10896374303E+02 -0.38141306152E+02 -0.41975830891E+03  0.45536197481E+03  0.17200000000E+03 0.  1.
</event>
<event>
 4    1  0.2889985E+000  0.1729138E+03  0.7818608E-02  0.1174843E+00
         21   -1    0    0  501  502  0.00000000000E+00  0.00000000000E+00  0.50812619313E+03  0.50812619313E+03  0.00000000000E+00 0. -1.
         21   -1    0    0  502  503 -0.00000000000E+00 -0.00000000000E+00 -0.10046947175E+03  0.10046947175E+03  0.00000000000E+00 0. -1.
          6    1    1    2  501    0 -0.13784023978E+02 -0.11188961777E+02  0.39969997441E+03  0.43549886536E+03  0.17200000000E+03 0. -1.
         -6    1    1    2    0  503  0.13784023978E+02  0.11188961777E+02  0.79567469766E+01  0.17309679952E+03  0.17200000000E+03 0. -1.
</event>
<event>
 4    1  0.2889985E+000  0.1988763E+03  0.7818608E-02  0.1150691E+00
         21   -1    0    0  501  502  0.00000000000E+00  0.00000000000E+00  0.34404121283E+02  0.34404121283E+02  0.00000000000E+00 0.  1.
         21   -1    0    0  502  503 -0.00000000000E+00 -0.00000000000E+00 -0.13817855165E+04  0.13817855165E+04  0.00000000000E+00 0.  1.
          6    1    1    2  501    0  0.31186070347E+02  0.94843004576E+02 -0.38344404408E+03  0.43195034604E+03  0.17200000000E+03 0.  1.
         -6    1    1    2    0  503 -0.31186070347E+02 -0.94843004576E+02 -0.96393735117E+03  0.98423929178E+03  0.17200000000E+03 0.  1.
</event>
<event>
 4    1  0.2889985E+000  0.2211617E+03  0.7818608E-02  0.1133020E+00
         21   -1    0    0  501  502  0.00000000000E+00  0.00000000000E+00  0.44357050403E+02  0.44357050403E+02  0.00000000000E+00 0. -1.
         21   -1    0    0  502  503 -0.00000000000E+00 -0.00000000000E+00 -0.11290261036E+04  0.11290261036E+04  0.00000000000E+00 0.  1.
          6    1    1    2  501    0  0.64080594999E+02 -0.12337817286E+03 -0.45274536249E+03  0.50387583734E+03  0.17200000000E+03 0.  1.
         -6    1    1    2    0  503 -0.64080594999E+02  0.12337817286E+03 -0.63192369066E+03  0.66950731662E+03  0.17200000000E+03 0.  1.
</event>
<event>
 4    1  0.2889985E+000  0.2142138E+03  0.7818608E-02  0.1138272E+00
         21   -1    0    0  503  502  0.00000000000E+00  0.00000000000E+00  0.20162550313E+03  0.20162550313E+03  0.00000000000E+00 0.  1.
         21   -1    0    0  501  503 -0.00000000000E+00 -0.00000000000E+00 -0.67919245314E+03  0.67919245314E+03  0.00000000000E+00 0.  1.
          6    1    1    2  501    0 -0.74400912570E+02 -0.10376922213E+03 -0.59790285333E+03  0.63511838997E+03  0.17200000000E+03 0.  1.
         -6    1    1    2    0  502  0.74400912570E+02  0.10376922213E+03  0.12033590332E+03  0.24569956630E+03  0.17200000000E+03 0.  1.
</event>
<event>
 4    1  0.2889985E+000  0.2237123E+03  0.7818608E-02  0.1131145E+00
         21   -1    0    0  501  502  0.00000000000E+00  0.00000000000E+00  0.28912471087E+03  0.28912471087E+03  0.00000000000E+00 0. -1.
         21   -1    0    0  502  503 -0.00000000000E+00 -0.00000000000E+00 -0.18216729819E+03  0.18216729819E+03  0.00000000000E+00 0. -1.
          6    1    1    2  501    0 -0.49831607555E+02 -0.13408960169E+03  0.10605461277E+03  0.24757784893E+03  0.17200000000E+03 0. -1.
         -6    1    1    2    0  503  0.49831607555E+02  0.13408960169E+03  0.90279990958E+00  0.22371416013E+03  0.17200000000E+03 0. -1.
</event>
<event>
 4    1  0.2889985E+000  0.2113311E+03  0.7818608E-02  0.1140516E+00
         21   -1    0    0  501  502  0.00000000000E+00  0.00000000000E+00  0.31537948639E+03  0.31537948639E+03  0.00000000000E+00 0.  1.
         21   -1    0    0  502  503 -0.00000000000E+00 -0.00000000000E+00 -0.15619233520E+03  0.15619233520E+03  0.00000000000E+00 0.  1.
          6    1    1    2  501    0 -0.11292179258E+03  0.48223390834E+02  0.15163868027E+03  0.26010597075E+03  0.17200000000E+03 0.  1.
         -6    1    1    2    0  503  0.11292179258E+03 -0.48223390834E+02  0.75484709103E+01  0.21146585085E+03  0.17200000000E+03 0.  1.
</event>
<event>
 4    1  0.2889985E+000  0.2095378E+03  0.7818608E-02  0.1141933E+00
         21   -1    0    0  503  502  0.00000000000E+00  0.00000000000E+00  0.75100432346E+03  0.75100432346E+03  0.00000000000E+00 0. -1.
         21   -1    0    0  501  503 -0.00000000000E+00 -0.00000000000E+00 -0.16046243449E+03  0.16046243449E+03  0.00000000000E+00 0.  1.
          6    1    1    2  501    0 -0.17341803648E+02 -0.11841183131E+03 -0.68076953112E+02  0.22031924903E+03  0.17200000000E+03 0.  1.
         -6    1    1    2    0  502  0.17341803648E+02  0.11841183131E+03  0.65861884208E+03  0.69114750892E+03  0.17200000000E+03 0. -1.
</event>
<event>
 4    1  0.2889985E+000  0.4976127E+03  0.7818608E-02  0.1014404E+00
         21   -1    0    0  503  502  0.00000000000E+00  0.00000000000E+00  0.18447585678E+04  0.18447585678E+04  0.00000000000E+00 0.  1.
         21   -1    0    0  501  503 -0.00000000000E+00 -0.00000000000E+00 -0.15735617014E+03  0.15735617014E+03  0.00000000000E+00 0. -1.
          6    1    1    2  501    0 -0.40626598944E+03 -0.23017900785E+03  0.45991724261E+03  0.67760039838E+03  0.17200000000E+03 0.  1.
         -6    1    1    2    0  502  0.40626598944E+03  0.23017900785E+03  0.12274851550E+04  0.13245143396E+04  0.17200000000E+03 0.  1.
</event>
<event>
 4    1  0.2889985E+000  0.2232608E+03  0.7818608E-02  0.1131475E+00
         21   -1    0    0  501  502  0.00000000000E+00  0.00000000000E+00  0.10377829047E+03  0.10377829047E+03  0.00000000000E+00 0.  1.
         21   -1    0    0  502  503 -0.00000000000E+00 -0.00000000000E+00 -0.63539189910E+03  0.63539189910E+03  0.00000000000E+00 0.  1.
          6    1    1    2  501    0 -0.12761462809E+03  0.63054682036E+02 -0.83215923342E+02  0.23826513830E+03  0.17200000000E+03 0.  1.
         -6    1    1    2    0  503  0.12761462809E+03 -0.63054682036E+02 -0.44839768528E+03  0.50090505128E+03  0.17200000000E+03 0.  1.
</event>
<event>
 4    1  0.2889985E+000  0.2261458E+03  0.7818608E-02  0.1129382E+00
         21   -1    0    0  501  502  0.00000000000E+00  0.00000000000E+00  0.79455020991E+03  0.79455020991E+03  0.00000000000E+00 0. -1.
         21   -1    0    0  502  503 -0.00000000000E+00 -0.00000000000E+00 -0.10563995568E+03  0.10563995568E+03  0.00000000000E+00 0.  1.
          6    1    1    2  501    0  0.11464445450E+03  0.91731090207E+02  0.62579332824E+03  0.66540155811E+03  0.17200000000E+03 0. -1.
         -6    1    1    2    0  503 -0.11464445450E+03 -0.91731090207E+02  0.63116925987E+02  0.23478860748E+03  0.17200000000E+03 0.  1.
</event>
<event>
 4    1  0.2889985E+000  0.1894990E+03  0.7818608E-02  0.1158914E+00
         21   -1    0    0  501  502  0.00000000000E+00  0.00000000000E+00  0.48143498613E+03  0.48143498613E+03  0.00000000000E+00 0.  1.
         21   -1    0    0  502  503 -0.00000000000E+00 -0.00000000000E+00 -0.74895712762E+02  0.74895712762E+02  0.00000000000E+00 0.  1.
          6    1    1    2  501    0  0.72790033688E+02  0.32054248474E+02  0.22106386420E+03  0.29116850088E+03  0.17200000000E+03 0.  1.
         -6    1    1    2    0  503 -0.72790033688E+02 -0.32054248474E+02  0.18547540917E+03  0.26516219802E+03  0.17200000000E+03 0.  1.
</event>
<event>
 4    1  0.2889985E+000  0.2137294E+03  0.7818608E-02  0.1138646E+00
         21   -1    0    0  501  502  0.00000000000E+00  0.00000000000E+00  0.13297490572E+03  0.13297490572E+03  0.00000000000E+00 0.  1.
         21   -1    0    0  502  503 -0.00000000000E+00 -0.00000000000E+00 -0.46267636584E+03  0.46267636584E+03  0.00000000000E+00 0. -1.
          6    1    1    2  501    0  0.80246667911E+02  0.98268600389E+02 -0.13713182907E+02  0.21416885142E+03  0.17200000000E+03 0.  1.
         -6    1    1    2    0  503 -0.80246667911E+02 -0.98268600389E+02 -0.31598827721E+03  0.38148242013E+03  0.17200000000E+03 0. -1.
</event>
<event>
 4    1  0.2889985E+000  0.2046468E+03  0.7818608E-02  0.1145877E+00
         21   -1    0    0  501  502  0.00000000000E+00  0.00000000000E+00  0.25344873832E+03  0.25344873832E+03  0.00000000000E+00 0. -1.
         21   -1    0    0  502  503 -0.00000000000E+00 -0.00000000000E+00 -0.27111349675E+03  0.27111349675E+03  0.00000000000E+00 0.  1.
          6    1    1    2  501    0  0.11088646985E+03  0.72093131455E+00  0.15506853157E+03  0.25676171526E+03  0.17200000000E+03 0. -1.
         -6    1    1    2    0  503 -0.11088646985E+03 -0.72093131455E+00 -0.17273329000E+03  0.26780051981E+03  0.17200000000E+03 0. -1.
</event>
<event>
 4    1  0.2889985E+000  0.2343015E+03  0.7818608E-02  0.1123648E+00
         21   -1    0    0  501  502  0.00000000000E+00  0.00000000000E+00  0.70860607037E+02  0.70860607037E+02  0.00000000000E+00 0.  1.
         21   -1    0    0  502  503 -0.00000000000E+00 -0.00000000000E+00 -0.19899831188E+04  0.19899831188E+04  0.00000000000E+00 0. -1.
          6    1    1    2  501    0  0.13845327552E+03 -0.78382909650E+02 -0.15432119144E+03  0.28055698201E+03  0.17200000000E+03 0.  1.
         -6    1    1    2    0  503 -0.13845327552E+03  0.78382909650E+02 -0.17648013203E+04  0.17802867438E+04  0.17200000000E+03 0. -1.
</event>
<event>
 4    1  0.2889985E+000  0.2272371E+03  0.7818608E-02  0.1128600E+00
         21   -1    0    0  503  502  0.00000000000E+00  0.00000000000E+00  0.69027688956E+03  0.69027688956E+03  0.00000000000E+00 0.  1.
         21   -1    0    0  501  503 -0.00000000000E+00 -0.00000000000E+00 -0.39949917586E+03  0.39949917586E+03  0.00000000000E+00 0.  1.
          6    1    1    2  501    0 -0.10830724039E+02 -0.14810605510E+03 -0.34584246073E+03  0.41381604099E+03  0.17200000000E+03 0.  1.
         -6    1    1    2    0  502  0.10830724039E+02  0.14810605510E+03  0.63662017443E+03  0.67596002443E+03  0.17200000000E+03 0.  1.
</event>
<event>
 4    1  0.2889985E+000  0.2057197E+03  0.7818608E-02  0.1145001E+00
         21   -1    0    0  501  502  0.00000000000E+00  0.00000000000E+00  0.47593025898E+02  0.47593025898E+02  0.00000000000E+00 0. -1.
         21   -1    0    0  502  503 -0.00000000000E+00 -0.00000000000E+00 -0.94176002045E+03  0.94176002045E+03  0.00000000000E+00 0. -1.
          6    1    1    2  501    0 -0.27081933718E+02 -0.10955887069E+03 -0.56392695152E+03  0.60027842201E+03  0.17200000000E+03 0. -1.
         -6    1    1    2    0  503  0.27081933718E+02  0.10955887069E+03 -0.33024004303E+03  0.38907462433E+03  0.17200000000E+03 0. -1.
</event>
<event>
 4    1  0.2889985E+000  0.3206378E+03  0.7818608E-02  0.1075356E+00
         21   -1    0    0  503  502  0.00000000000E+00  0.00000000000E+00  0.11465225544E+04  0.11465225544E+04  0.00000000000E+00 0. -1.
         21   -1    0    0  501  503 -0.00000000000E+00 -0.00000000000E+00 -0.99225246324E+02  0.99225246324E+02  0.00000000000E+00 0.  1.
          6    1    1    2  501    0  0.10941394021E+03  0.24749383866E+03  0.33035779708E+03  0.46037472192E+03  0.17200000000E+03 0.  1.
         -6    1    1    2    0  502 -0.10941394021E+03 -0.24749383866E+03  0.71693951096E+03  0.78537307877E+03  0.17200000000E+03 0. -1.
</event>
<event>
 4    1  0.2889985E+000  0.1728875E+03  0.7818608E-02  0.1174870E+00
         21   -1    0    0  501  502  0.00000000000E+00  0.00000000000E+00  0.42939360623E+03  0.42939360623E+03  0.00000000000E+00 0.  1.
         21   -1    0    0  502  503 -0.00000000000E+00 -0.00000000000E+00 -0.27913445418E+03  0.27913445418E+03  0.00000000000E+00 0.  1.
          6    1    1    2  501    0 -0.98768982876E+01 -0.14440783453E+02  0.38205841325E+03  0.41935512454E+03  0.17200000000E+03 0.  1.
         -6    1    1    2    0  503  0.98768982876E+01  0.14440783453E+02 -0.23179926120E+03  0.28917293587E+03  0.17200000000E+03 0.  1.
</event>
<event>
 4    1  0.2889985E+000  0.3628528E+03  0.7818608E-02  0.1057460E+00
         21   -1    0    0  503  502  0.00000000000E+00  0.00000000000E+00  0.17756261224E+04  0.17756261224E+04  0.00000000000E+00 0. -1.
         21   -1    0    0  501  503 -0.00000000000E+00 -0.00000000000E+00 -0.74291404511E+02  0.74291404511E+02  0.00000000000E+00 0.  1.
          6    1    1    2  501    0 -0.31436440010E+03  0.57036827157E+02  0.81027327068E+03  0.88780907231E+03  0.17200000000E+03 0.  1.
         -6    1    1    2    0  502  0.31436440010E+03 -0.57036827157E+02  0.89106144717E+03  0.96210845456E+03  0.17200000000E+03 0. -1.
</event>
<event>
 4    1  0.2889985E+000  0.1755200E+03  0.7818608E-02  0.1172211E+00
         21   -1    0    0  501  502  0.00000000000E+00  0.00000000000E+00  0.10815273380E+04  0.10815273380E+04  0.00000000000E+00 0.  1.
         21   -1    0    0  502  503 -0.00000000000E+00 -0.00000000000E+00 -0.28852812584E+02  0.28852812584E+02  0.00000000000E+00 0.  1.
          6    1    1    2  501    0  0.34332860762E+02  0.66728232272E+01  0.58902457429E+03  0.61461957422E+03  0.17200000000E+03 0.  1.
         -6    1    1    2    0  503 -0.34332860762E+02 -0.66728232272E+01  0.46364995113E+03  0.49576057637E+03  0.17200000000E+03 0.  1.
</event>
<event>
 4    1  0.2889985E+000  0.2171012E+03  0.7818608E-02  0.1136063E+00
         21   -1    0    0  503  502  0.00000000000E+00  0.00000000000E+00  0.15415518458E+03  0.15415518458E+03  0.00000000000E+00 0. -1.
         21   -1    0    0  501  503 -0.00000000000E+00 -0.00000000000E+00 -0.52483827987E+03  0.52483827987E+03  0.00000000000E+00 0.  1.
          6    1    1    2  501    0 -0.96347594228E+02 -0.90918056922E+02 -0.40468889758E+03  0.45924509340E+03  0.17200000000E+03 0.  1.
         -6    1    1    2    0  502  0.96347594228E+02  0.90918056922E+02  0.34005802294E+02  0.21974837105E+03  0.17200000000E+03 0. -1.
</event>
<event>
 4    1  0.2889985E+000  0.1891501E+03  0.7818608E-02  0.1159230E+00
         21   -1    0    0  501  502  0.00000000000E+00  0.00000000000E+00  0.10063627841E+03  0.10063627841E+03  0.00000000000E+00 0. -1.
         21   -1    0    0  502  503 -0.00000000000E+00 -0.00000000000E+00 -0.77785967629E+03  0.77785967629E+03  0.00000000000E+00 0. -1.
          6    1    1    2  501    0  0.16921244680E+02  0.76859757719E+02 -0.14949167484E+02  0.18973989693E+03  0.17200000000E+03 0. -1.
         -6    1    1    2    0  503 -0.16921244680E+02 -0.76859757719E+02 -0.66227423039E+03  0.68875605777E+03  0.17200000000E+03 0. -1.
</event>
<event>
 4    1  0.2889985E+000  0.1787810E+03  0.7818608E-02  0.1168988E+00
         21   -1    0    0  503  502  0.00000000000E+00  0.00000000000E+00  0.47927234868E+02  0.47927234868E+02  0.00000000000E+00 0. -1.
         21   -1    0    0  501  503 -0.00000000000E+00 -0.00000000000E+00 -0.69752901894E+03  0.69752901894E+03  0.00000000000E+00 0. -1.
          6    1    1    2  501    0 -0.41027023470E+02 -0.26370678054E+02 -0.40290682457E+03  0.44079081048E+03  0.17200000000E+03 0. -1.
         -6    1    1    2    0  502  0.41027023470E+02  0.26370678054E+02 -0.24669495950E+03  0.30466544333E+03  0.17200000000E+03 0. -1.
</event>
<event>
 4    1  0.2889985E+000  0.1759881E+03  0.7818608E-02  0.1171743E+00
         21   -1    0    0  501  502  0.00000000000E+00  0.00000000000E+00  0.22736323387E+03  0.22736323387E+03  0.00000000000E+00 0.  1.
         21   -1    0    0  502  503 -0.00000000000E+00 -0.00000000000E+00 -0.14681053889E+03  0.14681053889E+03  0.00000000000E+00 0.  1.
          6    1    1    2  501    0 -0.24545506102E+02  0.28023553574E+02  0.90520940758E+02  0.19790361831E+03  0.17200000000E+03 0.  1.
         -6    1    1    2    0  503  0.24545506102E+02 -0.28023553574E+02 -0.99682457748E+01  0.17627015445E+03  0.17200000000E+03 0.  1.
</event>
<event>
 4    1  0.2889985E+000  0.2881861E+03  0.7818608E-02  0.1091300E+00
         21   -1    0    0  501  502  0.00000000000E+00  0.00000000000E+00  0.65072902086E+03  0.65072902086E+03  0.00000000000E+00 0. -1.
         21   -1    0    0  502  503 -0.00000000000E+00 -0.00000000000E+00 -0.14359914736E+03  0.14359914736E+03  0.00000000000E+00 0. -1.
          6    1    1    2  501    0  0.22147714921E+03 -0.66446237907E+02  0.38601811204E+03  0.48172732223E+03  0.17200000000E+03 0. -1.
         -6    1    1    2    0  503 -0.22147714921E+03  0.66446237907E+02  0.12111176145E+03  0.31260084599E+03  0.17200000000E+03 0. -1.
</event>
<event>
 4    1  0.2889985E+000  0.1797062E+03  0.7818608E-02  0.1168088E+00
         21   -1    0    0  503  502  0.00000000000E+00  0.00000000000E+00  0.14198840811E+03  0.14198840811E+03  0.00000000000E+00 0.  1.
         21   -1    0    0  501  503 -0.00000000000E+00 -0.00000000000E+00 -0.52788824142E+03  0.52788824142E+03  0.00000000000E+00 0.  1.
          6    1    1    2  501    0  0.51615634325E+02  0.67928284727E+01 -0.44563306346E+03  0.48050301089E+03  0.17200000000E+03 0.  1.
         -6    1    1    2    0  502 -0.51615634325E+02 -0.67928284727E+01  0.59733230151E+02  0.18937363863E+03  0.17200000000E+03 0.  1.
</event>
<event>
 4    1  0.2889985E+000  0.2008398E+03  0.7818608E-02  0.1149032E+00
         21   -1    0    0  501  502  0.00000000000E+00  0.00000000000E+00  0.25239103589E+03  0.25239103589E+03  0.00000000000E+00 0.  1.
         21   -1    0    0  502  503 -0.00000000000E+00 -0.00000000000E+00 -0.71017470362E+03  0.71017470362E+03  0.00000000000E+00 0.  1.
          6    1    1    2  501    0 -0.78108392351E+02  0.68203458590E+02  0.19479008645E+03  0.27978529357E+03  0.17200000000E+03 0.  1.
         -6    1    1    2    0  503  0.78108392351E+02 -0.68203458590E+02 -0.65257375417E+03  0.68278044594E+03  0.17200000000E+03 0.  1.
</event>
<event>
 4    1  0.2889985E+000  0.2148528E+03  0.7818608E-02  0.1137780E+00
         21   -1    0    0  501  502  0.00000000000E+00  0.00000000000E+00  0.15372124409E+04  0.15372124409E+04  0.00000000000E+00 0.  1.
         21   -1    0    0  502  503 -0.00000000000E+00 -0.00000000000E+00 -0.48084297322E+02  0.48084297322E+02  0.00000000000E+00 0.  1.
          6    1    1    2  501    0  0.10403655483E+03 -0.75855917361E+02  0.12302720211E+04  0.12488918971E+04  0.17200000000E+03 0.  1.
         -6    1    1    2    0  503 -0.10403655483E+03  0.75855917361E+02  0.25885612252E+03  0.33640484109E+03  0.17200000000E+03 0.  1.
</event>
<event>
 4    1  0.2889985E+000  0.2360014E+03  0.7818608E-02  0.1122486E+00
         21   -1    0    0  503  502  0.00000000000E+00  0.00000000000E+00  0.13215729094E+03  0.13215729094E+03  0.00000000000E+00 0.  1.
         21   -1    0    0  501  503 -0.00000000000E+00 -0.00000000000E+00 -0.73705612527E+03  0.73705612527E+03  0.00000000000E+00 0.  1.
          6    1    1    2  501    0  0.89247221285E+02  0.13471293249E+03 -0.58684596564E+03  0.63252259096E+03  0.17200000000E+03 0.  1.
         -6    1    1    2    0  502 -0.89247221285E+02 -0.13471293249E+03 -0.18052868698E+02  0.23669082525E+03  0.17200000000E+03 0.  1.
</event>
<event>
 4    1  0.2889985E+000  0.1955459E+03  0.7818608E-02  0.1153552E+00
         21   -1    0    0  501  502  0.00000000000E+00  0.00000000000E+00  0.24608130370E+03  0.24608130370E+03  0.00000000000E+00 0.  1.
         21   -1    0    0  502  503 -0.00000000000E+00 -0.00000000000E+00 -0.16933424725E+03  0.16933424725E+03  0.00000000000E+00 0.  1.
          6    1    1    2  501    0 -0.92841292909E+02 -0.58898103324E+01  0.97981154318E+02  0.21872014570E+03  0.17200000000E+03 0.  1.
         -6    1    1    2    0  503  0.92841292909E+02  0.58898103324E+01 -0.21234097862E+02  0.19669540525E+03  0.17200000000E+03 0.  1.
</event>
<event>
 4    1  0.2889985E+000  0.2988163E+03  0.7818608E-02  0.1085834E+00
         21   -1    0    0  501  502  0.00000000000E+00  0.00000000000E+00  0.12227148638E+03  0.12227148638E+03  0.00000000000E+00 0.  1.
         21   -1    0    0  502  503 -0.00000000000E+00 -0.00000000000E+00 -0.73294685804E+03  0.73294685804E+03  0.00000000000E+00 0.  1.
          6    1    1    2  501    0  0.22862917713E+03  0.86231591646E+02 -0.27949543790E+03  0.40915631223E+03  0.17200000000E+03 0.  1.
         -6    1    1    2    0  503 -0.22862917713E+03 -0.86231591646E+02 -0.33117993377E+03  0.44606203219E+03  0.17200000000E+03 0.  1.
</event>
<event>
 4    1  0.2889985E+000  0.2511873E+03  0.7818608E-02  0.1112557E+00
         21   -1    0    0  503  502  0.00000000000E+00  0.00000000000E+00  0.38187616639E+03  0.38187616639E+03  0.00000000000E+00 0.  1.
         21   -1    0    0  501  503 -0.00000000000E+00 -0.00000000000E+00 -0.25852422572E+03  0.25852422572E+03  0.00000000000E+00 0. -1.
          6    1    1    2  501    0 -0.17085957773E+03 -0.65712041818E+02 -0.13068305208E+03  0.28314859675E+03  0.17200000000E+03 0. -1.
         -6    1    1    2    0  502  0.17085957773E+03  0.65712041818E+02  0.25403499275E+03  0.35725179535E+03  0.17200000000E+03 0.  1.
</event>
<event>
 4    1  0.2889985E+000  0.1904484E+03  0.7818608E-02  0.1158058E+00
         21   -1    0    0  503  502  0.00000000000E+00  0.00000000000E+00  0.11375758105E+03  0.11375758105E+03  0.00000000000E+00 0. -1.
         21   -1    0    0  501  503 -0.00000000000E+00 -0.00000000000E+00 -0.33188607029E+03  0.33188607029E+03  0.00000000000E+00 0. -1.
          6    1    1    2  501    0  0.32190887229E+02 -0.75168809608E+02 -0.15323991721E+03  0.24444442187E+03  0.17200000000E+03 0. -1.
         -6    1    1    2    0  502 -0.32190887229E+02  0.75168809608E+02 -0.64888572038E+02  0.20119922947E+03  0.17200000000E+03 0. -1.
</event>
<event>
 4    1  0.2889985E+000  0.2765559E+03  0.7818608E-02  0.1097585E+00
         21   -1    0    0  503  502  0.00000000000E+00  0.00000000000E+00  0.20460813278E+03  0.20460813278E+03  0.00000000000E+00 0.  1.
         21   -1    0    0  501  503 -0.00000000000E+00 -0.00000000000E+00 -0.83971874152E+03  0.83971874152E+03  0.00000000000E+00 0. -1.
          6    1    1    2  501    0  0.87975599718E+02 -0.19788754123E+03 -0.70650470850E+03  0.75870421658E+03  0.17200000000E+03 0. -1.
         -6    1    1    2    0  502 -0.87975599718E+02  0.19788754123E+03  0.71394099759E+02  0.28562265772E+03  0.17200000000E+03 0.  1.
</event>
<event>
 4    1  0.2889985E+000  0.2565142E+03  0.7818608E-02  0.1109256E+00
         21   -1    0    0  503  502  0.00000000000E+00  0.00000000000E+00  0.68703680251E+02  0.68703680251E+02  0.00000000000E+00 0. -1.
         21   -1    0    0  501  503 -0.00000000000E+00 -0.00000000000E+00 -0.10298518159E+04  0.10298518159E+04  0.00000000000E+00 0. -1.
          6    1    1    2  501    0 -0.96754389633E+02  0.16387226429E+03 -0.62593239773E+03  0.67645465291E+03  0.17200000000E+03 0. -1.
         -6    1    1    2    0  502  0.96754389633E+02 -0.16387226429E+03 -0.33521573792E+03  0.42210084325E+03  0.17200000000E+03 0. -1.
</event>
<event>
 4    1  0.2889985E+000  0.2155512E+03  0.7818608E-02  0.1137244E+00
         21   -1    0    0  501  502  0.00000000000E+00  0.00000000000E+00  0.23820239795E+04  0.23820239795E+04  0.00000000000E+00 0.  1.
         21   -1    0    0  502  503 -0.00000000000E+00 -0.00000000000E+00 -0.27314406207E+02  0.27314406207E+02  0.00000000000E+00 0. -1.
          6    1    1    2  501    0  0.55487162962E+02 -0.11747126491E+03  0.18214793935E+04  0.18341890590E+04  0.17200000000E+03 0.  1.
         -6    1    1    2    0  503 -0.55487162962E+02  0.11747126491E+03  0.53323017980E+03  0.57514932668E+03  0.17200000000E+03 0. -1.
</event>
<event>
 4    1  0.2889985E+000  0.2180458E+03  0.7818608E-02  0.1135348E+00
         21   -1    0    0  501  502  0.00000000000E+00  0.00000000000E+00  0.81143219867E+02  0.81143219867E+02  0.00000000000E+00 0.  1.
         21   -1    0    0  502  503 -0.00000000000E+00 -0.00000000000E+00 -0.65619066439E+03  0.65619066439E+03  0.00000000000E+00 0. -1.
          6    1    1    2  501    0 -0.58133571548E+02 -0.12074965419E+03 -0.16688546976E+03  0.27458104659E+03  0.17200000000E+03 0.  1.
         -6    1    1    2    0  503  0.58133571548E+02  0.12074965419E+03 -0.40816197477E+03  0.46275283767E+03  0.17200000000E+03 0. -1.
</event>
<event>
 4    1  0.2889985E+000  0.2033464E+03  0.7818608E-02  0.1146946E+00
         21   -1    0    0  503  502  0.00000000000E+00  0.00000000000E+00  0.10448934898E+03  0.10448934898E+03  0.00000000000E+00 0. -1.
         21   -1    0    0  501  503 -0.00000000000E+00 -0.00000000000E+00 -0.40889166777E+03  0.40889166777E+03  0.00000000000E+00 0. -1.
          6    1    1    2  501    0 -0.57144830761E+02 -0.92196756986E+02 -0.19825109105E+03  0.28399519148E+03  0.17200000000E+03 0. -1.
         -6    1    1    2    0  502  0.57144830761E+02  0.92196756986E+02 -0.10615122775E+03  0.22938582527E+03  0.17200000000E+03 0. -1.
</event>
<event>
 4    1  0.2889985E+000  0.1898276E+03  0.7818608E-02  0.1158617E+00
         21   -1    0    0  501  502  0.00000000000E+00  0.00000000000E+00  0.18353598936E+03  0.18353598936E+03  0.00000000000E+00 0. -1.
         21   -1    0    0  502  503 -0.00000000000E+00 -0.00000000000E+00 -0.19635070150E+03  0.19635070150E+03  0.00000000000E+00 0. -1.
          6    1    1    2  501    0  0.44610587573E+02  0.66786362669E+02 -0.47041827194E+01  0.18988589231E+03  0.17200000000E+03 0. -1.
         -6    1    1    2    0  503 -0.44610587573E+02 -0.66786362669E+02 -0.81105294152E+01  0.19000079855E+03  0.17200000000E+03 0. -1.
</event>
<event>
 4    1  0.2889985E+000  0.2038365E+03  0.7818608E-02  0.1146542E+00
         21   -1    0    0  501  502  0.00000000000E+00  0.00000000000E+00  0.13767997692E+03  0.13767997692E+03  0.00000000000E+00 0. -1.
         21   -1    0    0  502  503 -0.00000000000E+00 -0.00000000000E+00 -0.57245168338E+03  0.57245168338E+03  0.00000000000E+00 0.  1.
          6    1    1    2  501    0  0.73094032763E+02 -0.81379137598E+02 -0.46153740297E+03  0.50454541521E+03  0.17200000000E+03 0.  1.
         -6    1    1    2    0  503 -0.73094032763E+02  0.81379137598E+02  0.26765696513E+02  0.20558624509E+03  0.17200000000E+03 0. -1.
</event>
<event>
 4    1  0.2889985E+000  0.2918781E+03  0.7818608E-02  0.1089373E+00
         21   -1    0    0  503  502  0.00000000000E+00  0.00000000000E+00  0.61417932790E+03  0.61417932790E+03  0.00000000000E+00 0.  1.
         21   -1    0    0  501  503 -0.00000000000E+00 -0.00000000000E+00 -0.31467056143E+03  0.31467056143E+03  0.00000000000E+00 0.  1.
          6    1    1    2  501    0  0.22658652943E+03  0.65325236704E+02 -0.19753786937E+03  0.35244013918E+03  0.17200000000E+03 0.  1.
         -6    1    1    2    0  502 -0.22658652943E+03 -0.65325236704E+02  0.49704663584E+03  0.57640975015E+03  0.17200000000E+03 0.  1.
</event>
<event>
 4    1  0.2889985E+000  0.3153516E+03  0.7818608E-02  0.1077809E+00
         21   -1    0    0  503  502  0.00000000000E+00  0.00000000000E+00  0.20921819349E+03  0.20921819349E+03  0.00000000000E+00 0.  1.
         21   -1    0    0  501  503 -0.00000000000E+00 -0.00000000000E+00 -0.47882438597E+03  0.47882438597E+03  0.00000000000E+00 0. -1.
          6    1    1    2  501    0 -0.24841184175E+03 -0.90300719109E+02 -0.16421246123E+03  0.35554520868E+03  0.17200000000E+03 0.  1.
         -6    1    1    2    0  502  0.24841184175E+03  0.90300719109E+02 -0.10539373125E+03  0.33249737079E+03  0.17200000000E+03 0.  1.
</event>
<event>
 4    1  0.2889985E+000  0.3090578E+03  0.7818608E-02  0.1080798E+00
         21   -1    0    0  501  502  0.00000000000E+00  0.00000000000E+00  0.14704872251E+03  0.14704872251E+03  0.00000000000E+00 0. -1.
         21   -1    0    0  502  503 -0.00000000000E+00 -0.00000000000E+00 -0.72762757554E+03  0.72762757554E+03  0.00000000000E+00 0. -1.
          6    1    1    2  501    0 -0.24253325414E+03 -0.84322766143E+02 -0.14703664914E+03  0.34225207734E+03  0.17200000000E+03 0.  1.
         -6    1    1    2    0  503  0.24253325414E+03  0.84322766143E+02 -0.43354220389E+03  0.53242422072E+03  0.17200000000E+03 0.  1.
</event>
<event>
 4    1  0.2889985E+000  0.1793378E+03  0.7818608E-02  0.1168445E+00
         21   -1    0    0  503  502  0.00000000000E+00  0.00000000000E+00  0.91001813505E+03  0.91001813505E+03  0.00000000000E+00 0.  1.
         21   -1    0    0  501  503 -0.00000000000E+00 -0.00000000000E+00 -0.35911290988E+02  0.35911290988E+02  0.00000000000E+00 0.  1.
          6    1    1    2  501    0 -0.50341107728E+02  0.66203895206E+01  0.49659198096E+03  0.52798262494E+03  0.17200000000E+03 0.  1.
         -6    1    1    2    0  502  0.50341107728E+02 -0.66203895206E+01  0.37751486310E+03  0.41794680110E+03  0.17200000000E+03 0.  1.
</event>
<event>
 4    1  0.2889985E+000  0.2284364E+03  0.7818608E-02  0.1127745E+00
         21   -1    0    0  501  502  0.00000000000E+00  0.00000000000E+00  0.28646854661E+02  0.28646854661E+02  0.00000000000E+00 0. -1.
         21   -1    0    0  502  503 -0.00000000000E+00 -0.00000000000E+00 -0.18307809922E+04  0.18307809922E+04  0.00000000000E+00 0. -1.
          6    1    1    2  501    0  0.46402735941E+02 -0.14298948319E+03 -0.96689297891E+03  0.99351156957E+03  0.17200000000E+03 0. -1.
         -6    1    1    2    0  503 -0.46402735941E+02  0.14298948319E+03 -0.83524115858E+03  0.86591627724E+03  0.17200000000E+03 0. -1.
</event>
<event>
 4    1  0.2889985E+000  0.1753602E+03  0.7818608E-02  0.1172371E+00
         21   -1    0    0  503  502  0.00000000000E+00  0.00000000000E+00  0.30442604945E+03  0.30442604945E+03  0.00000000000E+00 0. -1.
         21   -1    0    0  501  503 -0.00000000000E+00 -0.00000000000E+00 -0.16470370192E+03  0.16470370192E+03  0.00000000000E+00 0. -1.
          6    1    1    2  501    0 -0.25470202655E+02 -0.22770043248E+02 -0.76002410465E+02  0.19112187863E+03  0.17200000000E+03 0. -1.
         -6    1    1    2    0  502  0.25470202655E+02  0.22770043248E+02  0.21572475800E+03  0.27800787274E+03  0.17200000000E+03 0. -1.
</event>
<event>
 4    1  0.2889985E+000  0.1831097E+03  0.7818608E-02  0.1164827E+00
         21   -1    0    0  503  502  0.00000000000E+00  0.00000000000E+00  0.44285146594E+03  0.44285146594E+03  0.00000000000E+00 0. -1.
         21   -1    0    0  501  503 -0.00000000000E+00 -0.00000000000E+00 -0.88310234789E+02  0.88310234789E+02  0.00000000000E+00 0. -1.
          6    1    1    2  501    0 -0.61695307118E+02  0.11782869443E+02  0.27758125332E+03  0.33253646285E+03  0.17200000000E+03 0. -1.
         -6    1    1    2    0  502  0.61695307118E+02 -0.11782869443E+02  0.76959977828E+02  0.19862523787E+03  0.17200000000E+03 0. -1.
</event>
<event>
 4    1  0.2889985E+000  0.2074061E+03  0.7818608E-02  0.1143637E+00
         21   -1    0    0  501  502  0.00000000000E+00  0.00000000000E+00  0.30769361070E+03  0.30769361070E+03  0.00000000000E+00 0.  1.
         21   -1    0    0  502  503 -0.00000000000E+00 -0.00000000000E+00 -0.15528578538E+03  0.15528578538E+03  0.00000000000E+00 0.  1.
          6    1    1    2  501    0  0.36830472331E+02 -0.10989446672E+03  0.14929332309E+03  0.25554994390E+03  0.17200000000E+03 0.  1.
         -6    1    1    2    0  503 -0.36830472331E+02  0.10989446672E+03  0.31145022283E+01  0.20742945218E+03  0.17200000000E+03 0.  1.
</event>
<event>
 4    1  0.2889985E+000  0.2365333E+03  0.7818608E-02  0.1122124E+00
         21   -1    0    0  501  502  0.00000000000E+00  0.00000000000E+00  0.30042089956E+02  0.30042089956E+02  0.00000000000E+00 0. -1.
         21   -1    0    0  502  503 -0.00000000000E+00 -0.00000000000E+00 -0.19415593607E+04  0.19415593607E+04  0.00000000000E+00 0.  1.
          6    1    1    2  501    0  0.12167689928E+01  0.16236541245E+03 -0.75660776637E+03  0.79271894125E+03  0.17200000000E+03 0. -1.
         -6    1    1    2    0  503 -0.12167689928E+01 -0.16236541245E+03 -0.11549095043E+04  0.11788825094E+04  0.17200000000E+03 0.  1.
</event>
<event>
 4    1  0.2889985E+000  0.1980808E+03  0.7818608E-02  0.1151368E+00
         21   -1    0    0  501  502  0.00000000000E+00  0.00000000000E+00  0.11792459567E+04  0.11792459567E+04  0.00000000000E+00 0. -1.
         21   -1    0    0  502  503 -0.00000000000E+00 -0.00000000000E+00 -0.33869329173E+02  0.33869329173E+02  0.00000000000E+00 0. -1.
          6    1    1    2  501    0  0.20271943114E+00  0.98244408247E+02  0.65323256052E+03  0.68260441177E+03  0.17200000000E+03 0. -1.
         -6    1    1    2    0  503 -0.20271943114E+00 -0.98244408247E+02  0.49214406697E+03  0.53051087406E+03  0.17200000000E+03 0. -1.
</event>
<event>
 4    1  0.2889985E+000  0.2025909E+03  0.7818608E-02  0.1147571E+00
         21   -1    0    0  501  502  0.00000000000E+00  0.00000000000E+00  0.68814522776E+03  0.68814522776E+03  0.00000000000E+00 0. -1.
         21   -1    0    0  502  503 -0.00000000000E+00 -0.00000000000E+00 -0.59803037564E+02  0.59803037564E+02  0.00000000000E+00 0. -1.
          6    1    1    2  501    0 -0.10671344410E+03 -0.84439785578E+01  0.33351584377E+03  0.39022541943E+03  0.17200000000E+03 0. -1.
         -6    1    1    2    0  503  0.10671344410E+03  0.84439785578E+01  0.29482634643E+03  0.35772284589E+03  0.17200000000E+03 0. -1.
</event>
<event>
 4    1  0.2889985E+000  0.2123174E+03  0.7818608E-02  0.1139744E+00
         21   -1    0    0  501  502  0.00000000000E+00  0.00000000000E+00  0.23550558462E+03  0.23550558462E+03  0.00000000000E+00 0.  1.
         21   -1    0    0  502  503 -0.00000000000E+00 -0.00000000000E+00 -0.33194006898E+03  0.33194006898E+03  0.00000000000E+00 0. -1.
          6    1    1    2  501    0  0.12440390200E+03  0.42815332981E+01  0.13638864012E+03  0.25235000201E+03  0.17200000000E+03 0.  1.
         -6    1    1    2    0  503 -0.12440390200E+03 -0.42815332981E+01 -0.23282312448E+03  0.31509565159E+03  0.17200000000E+03 0. -1.
</event>
<event>
 4    1  0.2889985E+000  0.1814418E+03  0.7818608E-02  0.1166415E+00
         21   -1    0    0  501  502  0.00000000000E+00  0.00000000000E+00  0.18299409661E+03  0.18299409661E+03  0.00000000000E+00 0.  1.
         21   -1    0    0  502  503 -0.00000000000E+00 -0.00000000000E+00 -0.29816164251E+03  0.29816164251E+03  0.00000000000E+00 0.  1.
          6    1    1    2  501    0  0.34585764941E+02  0.46270439056E+02  0.93928152804E+02  0.20431257072E+03  0.17200000000E+03 0.  1.
         -6    1    1    2    0  503 -0.34585764941E+02 -0.46270439056E+02 -0.20909569871E+03  0.27684316839E+03  0.17200000000E+03 0.  1.
</event>
<event>
 4    1  0.2889985E+000  0.2052834E+03  0.7818608E-02  0.1145356E+00
         21   -1    0    0  501  502  0.00000000000E+00  0.00000000000E+00  0.61624421149E+03  0.61624421149E+03  0.00000000000E+00 0. -1.
         21   -1    0    0  502  503 -0.00000000000E+00 -0.00000000000E+00 -0.92743129094E+02  0.92743129094E+02  0.00000000000E+00 0. -1.
          6    1    1    2  501    0 -0.10474605383E+03  0.39818785769E+02  0.44342676558E+03  0.48863950713E+03  0.17200000000E+03 0. -1.
         -6    1    1    2    0  503  0.10474605383E+03 -0.39818785769E+02  0.80074316811E+02  0.22034783345E+03  0.17200000000E+03 0. -1.
</event>
<event>
 4    1  0.2889985E+000  0.2004734E+03  0.7818608E-02  0.1149340E+00
         21   -1    0    0  501  502  0.00000000000E+00  0.00000000000E+00  0.57463044442E+03  0.57463044442E+03  0.00000000000E+00 0.  1.
         21   -1    0    0  502  503 -0.00000000000E+00 -0.00000000000E+00 -0.11012477232E+03  0.11012477232E+03  0.00000000000E+00 0. -1.
          6    1    1    2  501    0 -0.22388149178E+02  0.10052032076E+03  0.43907374227E+03  0.48267516537E+03  0.17200000000E+03 0. -1.
         -6    1    1    2    0  503  0.22388149178E+02 -0.10052032076E+03  0.25431929828E+02  0.20208005138E+03  0.17200000000E+03 0.  1.
</event>
<event>
 4    1  0.2889985E+000  0.1755019E+03  0.7818608E-02  0.1172229E+00
         21   -1    0    0  503  502  0.00000000000E+00  0.00000000000E+00  0.23648974637E+04  0.23648974637E+04  0.00000000000E+00 0. -1.
         21   -1    0    0  501  503 -0.00000000000E+00 -0.00000000000E+00 -0.34989656008E+02  0.34989656008E+02  0.00000000000E+00 0. -1.
          6    1    1    2  501    0 -0.30493807818E+02 -0.16942787609E+02  0.21421567421E+03  0.27692830379E+03  0.17200000000E+03 0. -1.
         -6    1    1    2    0  502  0.30493807818E+02  0.16942787609E+02  0.21156921334E+04  0.21229588159E+04  0.17200000000E+03 0. -1.
</event>
<event>
 4    1  0.2889985E+000  0.2131548E+03  0.7818608E-02  0.1139092E+00
         21   -1    0    0  503  502  0.00000000000E+00  0.00000000000E+00  0.22190172137E+02  0.22190172137E+02  0.00000000000E+00 0. -1.
         21   -1    0    0  501  503 -0.00000000000E+00 -0.00000000000E+00 -0.21361543084E+04  0.21361543084E+04  0.00000000000E+00 0.  1.
          6    1    1    2  501    0  0.71082933049E+02  0.10391435994E+03 -0.12767974734E+04  0.12944677538E+04  0.17200000000E+03 0. -1.
         -6    1    1    2    0  502 -0.71082933049E+02 -0.10391435994E+03 -0.83716666295E+03  0.86387672682E+03  0.17200000000E+03 0. -1.
</event>
<event>
 4    1  0.2889985E+000  0.1919428E+03  0.7818608E-02  0.1156721E+00
         21   -1    0    0  503  502  0.00000000000E+00  0.00000000000E+00  0.15210865292E+04  0.15210865292E+04  0.00000000000E+00 0. -1.
         21   -1    0    0  501  503 -0.00000000000E+00 -0.00000000000E+00 -0.34925176418E+02  0.34925176418E+02  0.00000000000E+00 0. -1.
          6    1    1    2  501    0 -0.50461944392E+02  0.68641250479E+02  0.31236273820E+03  0.36662311618E+03  0.17200000000E+03 0. -1.
         -6    1    1    2    0  502  0.50461944392E+02 -0.68641250479E+02  0.11737986146E+04  0.11893885895E+04  0.17200000000E+03 0. -1.
</event>
<event>
 4    1  0.2889985E+000  0.3104815E+03  0.7818608E-02  0.1080115E+00
         21   -1    0    0  501  502  0.00000000000E+00  0.00000000000E+00  0.97152998729E+02  0.97152998729E+02  0.00000000000E+00 0. -1.
         21   -1    0    0  502  503 -0.00000000000E+00 -0.00000000000E+00 -0.14926847200E+04  0.14926847200E+04  0.00000000000E+00 0.  1.
          6    1    1    2  501    0 -0.10110628726E+03 -0.23789125982E+03 -0.11580419501E+04  0.11989411541E+04  0.17200000000E+03 0.  1.
         -6    1    1    2    0  503  0.10110628726E+03  0.23789125982E+03 -0.23748977118E+03  0.39089656463E+03  0.17200000000E+03 0.  1.
</event>
<event>
 4    1  0.2889985E+000  0.1730072E+03  0.7818608E-02  0.1174748E+00
         21   -1    0    0  501  502  0.00000000000E+00  0.00000000000E+00  0.51062437395E+02  0.51062437395E+02  0.00000000000E+00 0. -1.
         21   -1    0    0  502  503 -0.00000000000E+00 -0.00000000000E+00 -0.63657033735E+03  0.63657033735E+03  0.00000000000E+00 0. -1.
          6    1    1    2  501    0  0.18814689719E+01 -0.18545754814E+02 -0.19601488890E+03  0.26144468176E+03  0.17200000000E+03 0. -1.
         -6    1    1    2    0  503 -0.18814689719E+01  0.18545754814E+02 -0.38949301105E+03  0.42618809298E+03  0.17200000000E+03 0. -1.
</event>
<event>
 4    1  0.2889985E+000  0.2374287E+03  0.7818608E-02  0.1121518E+00
         21   -1    0    0  503  502  0.00000000000E+00  0.00000000000E+00  0.56040214915E+03  0.56040214915E+03  0.00000000000E+00 0. -1.
         21   -1    0    0  501  503 -0.00000000000E+00 -0.00000000000E+00 -0.18255520921E+03  0.18255520921E+03  0.00000000000E+00 0.  1.
          6    1    1    2  501    0  0.81080374509E+02 -0.14217721930E+03 -0.59987644368E+02  0.24488957980E+03  0.17200000000E+03 0.  1.
         -6    1    1    2    0  502 -0.81080374509E+02  0.14217721930E+03  0.43783458431E+03  0.49806777856E+03  0.17200000000E+03 0. -1.
</event>
<event>
 4    1  0.2889985E+000  0.2162412E+03  0.7818608E-02  0.1136717E+00
         21   -1    0    0  501  502  0.00000000000E+00  0.00000000000E+00  0.40691089656E+03  0.40691089656E+03  0.00000000000E+00 0. -1.
         21   -1    0    0  502  503 -0.00000000000E+00 -0.00000000000E+00 -0.11865096375E+03  0.11865096375E+03  0.00000000000E+00 0. -1.
          6    1    1    2  501    0 -0.12025111649E+03  0.52114403776E+02  0.19075816325E+03  0.28835554260E+03  0.17200000000E+03 0. -1.
         -6    1    1    2    0  503  0.12025111649E+03 -0.52114403776E+02  0.97501769560E+02  0.23720631772E+03  0.17200000000E+03 0. -1.
</event>
<event>
 4    1  0.2889985E+000  0.1810651E+03  0.7818608E-02  0.1166776E+00
         21   -1    0    0  503  502  0.00000000000E+00  0.00000000000E+00  0.22508955575E+03  0.22508955575E+03  0.00000000000E+00 0. -1.
         21   -1    0    0  501  503 -0.00000000000E+00 -0.00000000000E+00 -0.67142011334E+03  0.67142011334E+03  0.00000000000E+00 0. -1.
          6    1    1    2  501    0  0.56359900169E+02 -0.49125658502E+01 -0.61983152535E+03  0.64573654959E+03  0.17200000000E+03 0. -1.
         -6    1    1    2    0  502 -0.56359900169E+02  0.49125658502E+01  0.17350096776E+03  0.25077311950E+03  0.17200000000E+03 0. -1.
</event>
<event>
 4    1  0.2889985E+000  0.2015254E+03  0.7818608E-02  0.1148458E+00
         21   -1    0    0  501  502  0.00000000000E+00  0.00000000000E+00  0.24053148274E+03  0.24053148274E+03  0.00000000000E+00 0. -1.
         21   -1    0    0  502  503 -0.00000000000E+00 -0.00000000000E+00 -0.17143123679E+03  0.17143123679E+03  0.00000000000E+00 0.  1.
          6    1    1    2  501    0  0.31207524852E+02 -0.10027247594E+03  0.92491200919E+01  0.20173751575E+03  0.17200000000E+03 0.  1.
         -6    1    1    2    0  503 -0.31207524852E+02  0.10027247594E+03  0.59851125853E+02  0.21022520378E+03  0.17200000000E+03 0.  1.
</event>
<event>
 4    1  0.2889985E+000  0.1821518E+03  0.7818608E-02  0.1165737E+00
         21   -1    0    0  503  502  0.00000000000E+00  0.00000000000E+00  0.15711053052E+04  0.15711053052E+04  0.00000000000E+00 0. -1.
         21   -1    0    0  501  503 -0.00000000000E+00 -0.00000000000E+00 -0.22555834320E+02  0.22555834320E+02  0.00000000000E+00 0. -1.
          6    1    1    2  501    0 -0.22803245378E+02 -0.55455332558E+02  0.57312216831E+03  0.60137201607E+03  0.17200000000E+03 0. -1.
         -6    1    1    2    0  502  0.22803245378E+02  0.55455332558E+02  0.97542730259E+03  0.99228912346E+03  0.17200000000E+03 0. -1.
</event>
<event>
 4    1  0.2889985E+000  0.1747325E+03  0.7818608E-02  0.1173001E+00
         21   -1    0    0  501  502  0.00000000000E+00  0.00000000000E+00  0.40596828213E+02  0.40596828213E+02  0.00000000000E+00 0. -1.
         21   -1    0    0  502  503 -0.00000000000E+00 -0.00000000000E+00 -0.10264292678E+04  0.10264292678E+04  0.00000000000E+00 0. -1.
          6    1    1    2  501    0  0.29251672708E+02 -0.95805395720E+01 -0.76874808337E+03  0.78835592392E+03  0.17200000000E+03 0. -1.
         -6    1    1    2    0  503 -0.29251672708E+02  0.95805395720E+01 -0.21708435617E+03  0.27867017205E+03  0.17200000000E+03 0. -1.
</event>
<event>
 4    1  0.2889985E+000  0.1922002E+03  0.7818608E-02  0.1156492E+00
         21   -1    0    0  501  502  0.00000000000E+00  0.00000000000E+00  0.31904565458E+02  0.31904565458E+02  0.00000000000E+00 0. -1.
         21   -1    0    0  502  503 -0.00000000000E+00 -0.00000000000E+00 -0.11581336673E+04  0.11581336673E+04  0.00000000000E+00 0. -1.
          6    1    1    2  501    0  0.85740473305E+02 -0.23466377893E+01 -0.57230547421E+03  0.60371722792E+03  0.17200000000E+03 0. -1.
         -6    1    1    2    0  503 -0.85740473305E+02  0.23466377893E+01 -0.55392362765E+03  0.58632100486E+03  0.17200000000E+03 0. -1.
</event>
<event>
 4    1  0.2889985E+000  0.1992003E+03  0.7818608E-02  0.1150416E+00
         21   -1    0    0  501  502  0.00000000000E+00  0.00000000000E+00  0.95359244703E+02  0.95359244703E+02  0.00000000000E+00 0. -1.
         21   -1    0    0  502  503 -0.00000000000E+00 -0.00000000000E+00 -0.41626949186E+03  0.41626949186E+03  0.00000000000E+00 0. -1.
          6    1    1    2  501    0  0.81682677270E+02  0.58520829204E+02 -0.15558327205E+03  0.25275858395E+03  0.17200000000E+03 0. -1.
         -6    1    1    2    0  503 -0.81682677270E+02 -0.58520829204E+02 -0.16532697511E+03  0.25887015261E+03  0.17200000000E+03 0. -1.
</event>
<event>
 4    1  0.2889985E+000  0.1967902E+03  0.7818608E-02  0.1152476E+00
         21   -1    0    0  501  502  0.00000000000E+00  0.00000000000E+00  0.27728922772E+03  0.27728922772E+03  0.00000000000E+00 0.  1.
         21   -1    0    0  502  503 -0.00000000000E+00 -0.00000000000E+00 -0.19132761506E+03  0.19132761506E+03  0.00000000000E+00 0. -1.
          6    1    1    2  501    0 -0.49390810218E+02 -0.81871348670E+02  0.16474116181E+03  0.25664376140E+03  0.17200000000E+03 0.  1.
         -6    1    1    2    0  503  0.49390810218E+02  0.81871348670E+02 -0.78779549149E+02  0.21197308138E+03  0.17200000000E+03 0. -1.
</event>
<event>
 4    1  0.2889985E+000  0.2369133E+03  0.7818608E-02  0.1121866E+00
         21   -1    0    0  501  502  0.00000000000E+00  0.00000000000E+00  0.54677926686E+03  0.54677926686E+03  0.00000000000E+00 0. -1.
         21   -1    0    0  502  503 -0.00000000000E+00 -0.00000000000E+00 -0.19540769823E+03  0.19540769823E+03  0.00000000000E+00 0. -1.
          6    1    1    2  501    0  0.15529417852E+03  0.49271131563E+02  0.43135771123E+03  0.49213555178E+03  0.17200000000E+03 0. -1.
         -6    1    1    2    0  503 -0.15529417852E+03 -0.49271131563E+02 -0.79986142597E+02  0.25005141331E+03  0.17200000000E+03 0. -1.
</event>
<event>
 4    1  0.2889985E+000  0.1726429E+03  0.7818608E-02  0.1175119E+00
         21   -1    0    0  501  502  0.00000000000E+00  0.00000000000E+00  0.36630900183E+03  0.36630900183E+03  0.00000000000E+00 0.  1.
         21   -1    0    0  502  503 -0.00000000000E+00 -0.00000000000E+00 -0.20971894244E+03  0.20971894244E+03  0.00000000000E+00 0.  1.
          6    1    1    2  501    0  0.13145112198E+02 -0.69829919003E+01  0.30361284258E+03  0.34926539240E+03  0.17200000000E+03 0.  1.
         -6    1    1    2    0  503 -0.13145112198E+02  0.69829919003E+01 -0.14702278320E+03  0.22676255187E+03  0.17200000000E+03 0.  1.
</event>
<event>
 4    1  0.2889985E+000  0.6018102E+03  0.7818608E-02  0.9901658E-01
         21   -1    0    0  501  502  0.00000000000E+00  0.00000000000E+00  0.41183306278E+03  0.41183306278E+03  0.00000000000E+00 0. -1.
         21   -1    0    0  502  503 -0.00000000000E+00 -0.00000000000E+00 -0.11158538336E+04  0.11158538336E+04  0.00000000000E+00 0.  1.
          6    1    1    2  501    0  0.49281830688E+03 -0.29953574184E+03 -0.40737185485E+00  0.60181036065E+03  0.17200000000E+03 0. -1.
         -6    1    1    2    0  503 -0.49281830688E+03  0.29953574184E+03 -0.70361339898E+03  0.92587653575E+03  0.17200000000E+03 0.  1.
</event>
<event>
 4    1  0.2889985E+000  0.2062933E+03  0.7818608E-02  0.1144535E+00
         21   -1    0    0  503  502  0.00000000000E+00  0.00000000000E+00  0.41505099307E+02  0.41505099307E+02  0.00000000000E+00 0. -1.
         21   -1    0    0  501  503 -0.00000000000E+00 -0.00000000000E+00 -0.18191238642E+04  0.18191238642E+04  0.00000000000E+00 0. -1.
          6    1    1    2  501    0 -0.10714992717E+03 -0.38624073106E+02 -0.15033480339E+04  0.15174360734E+04  0.17200000000E+03 0. -1.
         -6    1    1    2    0  502  0.10714992717E+03  0.38624073106E+02 -0.27427073096E+03  0.34319289004E+03  0.17200000000E+03 0. -1.
</event>
<event>
 4    1  0.2889985E+000  0.2833316E+03  0.7818608E-02  0.1093883E+00
         21   -1    0    0  501  502  0.00000000000E+00  0.00000000000E+00  0.36809349497E+02  0.36809349497E+02  0.00000000000E+00 0.  1.
         21   -1    0    0  502  503 -0.00000000000E+00 -0.00000000000E+00 -0.22135757680E+04  0.22135757680E+04  0.00000000000E+00 0. -1.
          6    1    1    2  501    0  0.18863301009E+03 -0.12292433035E+03 -0.95163547782E+03  0.99291836831E+03  0.17200000000E+03 0.  1.
         -6    1    1    2    0  503 -0.18863301009E+03  0.12292433035E+03 -0.12251309407E+04  0.12574667492E+04  0.17200000000E+03 0.  1.
</event>
<event>
 4    1  0.2889985E+000  0.1735334E+03  0.7818608E-02  0.1174212E+00
         21   -1    0    0  503  502  0.00000000000E+00  0.00000000000E+00  0.48695717666E+03  0.48695717666E+03  0.00000000000E+00 0. -1.
         21   -1    0    0  501  503 -0.00000000000E+00 -0.00000000000E+00 -0.66301917557E+02  0.66301917557E+02  0.00000000000E+00 0. -1.
          6    1    1    2  501    0 -0.17036751177E+02  0.15478334960E+02  0.28208334814E+03  0.33118702426E+03  0.17200000000E+03 0. -1.
         -6    1    1    2    0  502  0.17036751177E+02 -0.15478334960E+02  0.13857191096E+03  0.22207206995E+03  0.17200000000E+03 0. -1.
</event>
<event>
 4    1  0.2889985E+000  0.1722168E+03  0.7818608E-02  0.1175556E+00
         21   -1    0    0  501  502  0.00000000000E+00  0.00000000000E+00  0.26681004545E+03  0.26681004545E+03  0.00000000000E+00 0.  1.
         21   -1    0    0  502  503 -0.00000000000E+00 -0.00000000000E+00 -0.17998208173E+03  0.17998208173E+03  0.00000000000E+00 0.  1.
          6    1    1    2  501    0 -0.80152074076E+01  0.32217213148E+01  0.18155560862E+03  0.25024200698E+03  0.17200000000E+03 0.  1.
         -6    1    1    2    0  503  0.80152074076E+01 -0.32217213148E+01 -0.94727644902E+02  0.19655012019E+03  0.17200000000E+03 0.  1.
</event>
<event>
 4    1  0.2889985E+000  0.2080241E+03  0.7818608E-02  0.1143140E+00
         21   -1    0    0  503  502  0.00000000000E+00  0.00000000000E+00  0.19233301852E+03  0.19233301852E+03  0.00000000000E+00 0. -1.
         21   -1    0    0  501  503 -0.00000000000E+00 -0.00000000000E+00 -0.30294746920E+03  0.30294746920E+03  0.00000000000E+00 0. -1.
          6    1    1    2  501    0 -0.31931473653E+02  0.11256297782E+03 -0.18092508908E+03  0.27569535876E+03  0.17200000000E+03 0. -1.
         -6    1    1    2    0  502  0.31931473653E+02 -0.11256297782E+03  0.70310638398E+02  0.21958512895E+03  0.17200000000E+03 0. -1.
</event>
<event>
 4    1  0.2889985E+000  0.1819293E+03  0.7818608E-02  0.1165949E+00
         21   -1    0    0  501  502  0.00000000000E+00  0.00000000000E+00  0.28487676006E+03  0.28487676006E+03  0.00000000000E+00 0. -1.
         21   -1    0    0  502  503 -0.00000000000E+00 -0.00000000000E+00 -0.23735066451E+03  0.23735066451E+03  0.00000000000E+00 0. -1.
          6    1    1    2  501    0 -0.65269348186E+01  0.58920757573E+02  0.21032590311E+03  0.27809214672E+03  0.17200000000E+03 0. -1.
         -6    1    1    2    0  503  0.65269348186E+01 -0.58920757573E+02 -0.16279980755E+03  0.24413527785E+03  0.17200000000E+03 0. -1.
</event>
<event>
 4    1  0.2889985E+000  0.2674074E+03  0.7818608E-02  0.1102773E+00
         21   -1    0    0  503  502  0.00000000000E+00  0.00000000000E+00  0.33224330801E+03  0.33224330801E+03  0.00000000000E+00 0.  1.
         21   -1    0    0  501  503 -0.00000000000E+00 -0.00000000000E+00 -0.22119031765E+03  0.22119031765E+03  0.00000000000E+00 0. -1.
          6    1    1    2  501    0 -0.20399905456E+03  0.17525069210E+02  0.10079545879E+02  0.26759734594E+03  0.17200000000E+03 0.  1.
         -6    1    1    2    0  502  0.20399905456E+03 -0.17525069210E+02  0.10097344448E+03  0.28583627972E+03  0.17200000000E+03 0.  1.
</event>
<event>
 4    1  0.2889985E+000  0.1763816E+03  0.7818608E-02  0.1171352E+00
         21   -1    0    0  503  502  0.00000000000E+00  0.00000000000E+00  0.20844670387E+04  0.20844670387E+04  0.00000000000E+00 0. -1.
         21   -1    0    0  501  503 -0.00000000000E+00 -0.00000000000E+00 -0.21056844407E+02  0.21056844407E+02  0.00000000000E+00 0. -1.
          6    1    1    2  501    0  0.36249778395E+02 -0.14575278450E+02  0.46359534449E+03  0.49601525038E+03  0.17200000000E+03 0. -1.
         -6    1    1    2    0  502 -0.36249778395E+02  0.14575278450E+02  0.15998148498E+04  0.16095086327E+04  0.17200000000E+03 0. -1.
</event>
<event>
 4    1  0.2889985E+000  0.2476496E+03  0.7818608E-02  0.1114799E+00
         21   -1    0    0  501  502  0.00000000000E+00  0.00000000000E+00  0.38400714858E+03  0.38400714858E+03  0.00000000000E+00 0. -1.
         21   -1    0    0  502  503 -0.00000000000E+00 -0.00000000000E+00 -0.53248333461E+03  0.53248333461E+03  0.00000000000E+00 0.  1.
          6    1    1    2  501    0 -0.46236722434E+02  0.17207120765E+03  0.30917464211E+03  0.39613040066E+03  0.17200000000E+03 0. -1.
         -6    1    1    2    0  503  0.46236722434E+02 -0.17207120765E+03 -0.45765082813E+03  0.52036008253E+03  0.17200000000E+03 0.  1.
</event>
<event>
 4    1  0.2889985E+000  0.1795769E+03  0.7818608E-02  0.1168213E+00
         21   -1    0    0  503  502  0.00000000000E+00  0.00000000000E+00  0.93230617015E+03  0.93230617015E+03  0.00000000000E+00 0.  1.
         21   -1    0    0  501  503 -0.00000000000E+00 -0.00000000000E+00 -0.59342806376E+02  0.59342806376E+02  0.00000000000E+00 0.  1.
          6    1    1    2  501    0 -0.34925642669E+02  0.38000874556E+02  0.11625181678E+03  0.21392136847E+03  0.17200000000E+03 0.  1.
         -6    1    1    2    0  502  0.34925642669E+02 -0.38000874556E+02  0.75671154698E+03  0.77772760805E+03  0.17200000000E+03 0.  1.
</event>
<event>
 4    1  0.2889985E+000  0.2608533E+03  0.7818608E-02  0.1106632E+00
         21   -1    0    0  503  502  0.00000000000E+00  0.00000000000E+00  0.41717194472E+02  0.41717194472E+02  0.00000000000E+00 0. -1.
         21   -1    0    0  501  503 -0.00000000000E+00 -0.00000000000E+00 -0.18531878745E+04  0.18531878745E+04  0.00000000000E+00 0.  1.
          6    1    1    2  501    0  0.14641357903E+03  0.13047419738E+03 -0.12337332121E+04  0.12610083627E+04  0.17200000000E+03 0. -1.
         -6    1    1    2    0  502 -0.14641357903E+03 -0.13047419738E+03 -0.57773746797E+03  0.63389670625E+03  0.17200000000E+03 0.  1.
</event>
<event>
 4    1  0.2889985E+000  0.2306031E+03  0.7818608E-02  0.1126216E+00
         21   -1    0    0  503  502  0.00000000000E+00  0.00000000000E+00  0.96360621311E+02  0.96360621311E+02  0.00000000000E+00 0.  1.
         21   -1    0    0  501  503 -0.00000000000E+00 -0.00000000000E+00 -0.29839654733E+04  0.29839654733E+04  0.00000000000E+00 0. -1.
          6    1    1    2  501    0  0.15351402049E+03  0.52168945104E+01 -0.28342698592E+04  0.28436355964E+04  0.17200000000E+03 0. -1.
         -6    1    1    2    0  502 -0.15351402049E+03 -0.52168945104E+01 -0.53334992785E+02  0.23669049818E+03  0.17200000000E+03 0.  1.
</event>
<event>
 4    1  0.2889985E+000  0.2286281E+03  0.7818608E-02  0.1127609E+00
         21   -1    0    0  501  502  0.00000000000E+00  0.00000000000E+00  0.20307279624E+03  0.20307279624E+03  0.00000000000E+00 0.  1.
         21   -1    0    0  502  503 -0.00000000000E+00 -0.00000000000E+00 -0.50511987781E+03  0.50511987781E+03  0.00000000000E+00 0.  1.
          6    1    1    2  501    0 -0.11159473567E+03  0.10116046663E+03  0.96949872237E+02  0.24833465881E+03  0.17200000000E+03 0.  1.
         -6    1    1    2    0  503  0.11159473567E+03 -0.10116046663E+03 -0.39899695381E+03  0.45985801524E+03  0.17200000000E+03 0.  1.
</event>
<event>
 4    1  0.2889985E+000  0.3029343E+03  0.7818608E-02  0.1083783E+00
         21   -1    0    0  501  502  0.00000000000E+00  0.00000000000E+00  0.52605755854E+03  0.52605755854E+03  0.00000000000E+00 0.  1.
         21   -1    0    0  502  503 -0.00000000000E+00 -0.00000000000E+00 -0.26882842135E+03  0.26882842135E+03  0.00000000000E+00 0. -1.
          6    1    1    2  501    0  0.13018492456E+03 -0.21269009753E+03  0.36410885746E+03  0.47365013697E+03  0.17200000000E+03 0.  1.
         -6    1    1    2    0  503 -0.13018492456E+03  0.21269009753E+03 -0.10687972027E+03  0.32123584292E+03  0.17200000000E+03 0. -1.
</event>
<event>
 4    1  0.2889985E+000  0.2726591E+03  0.7818608E-02  0.1099767E+00
         21   -1    0    0  503  502  0.00000000000E+00  0.00000000000E+00  0.11424491264E+03  0.11424491264E+03  0.00000000000E+00 0.  1.
         21   -1    0    0  501  503 -0.00000000000E+00 -0.00000000000E+00 -0.65439462687E+03  0.65439462687E+03  0.00000000000E+00 0. -1.
          6    1    1    2  501    0  0.40522751106E+02  0.20764601083E+03 -0.29882216781E+03  0.40452150394E+03  0.17200000000E+03 0.  1.
         -6    1    1    2    0  502 -0.40522751106E+02 -0.20764601083E+03 -0.24132754642E+03  0.36411803557E+03  0.17200000000E+03 0.  1.
</event>
<event>
 4    1  0.2889985E+000  0.1976905E+03  0.7818608E-02  0.1151702E+00
         21   -1    0    0  503  502  0.00000000000E+00  0.00000000000E+00  0.15976155602E+03  0.15976155602E+03  0.00000000000E+00 0. -1.
         21   -1    0    0  501  503 -0.00000000000E+00 -0.00000000000E+00 -0.40481883798E+03  0.40481883798E+03  0.00000000000E+00 0.  1.
          6    1    1    2  501    0  0.86749576097E+02 -0.44407806395E+02 -0.30010675232E+03  0.35936834169E+03  0.17200000000E+03 0.  1.
         -6    1    1    2    0  502 -0.86749576097E+02  0.44407806395E+02  0.55049470365E+02  0.20521205230E+03  0.17200000000E+03 0. -1.
</event>
<event>
 4    1  0.2889985E+000  0.1741328E+03  0.7818608E-02  0.1173605E+00
         21   -1    0    0  501  502  0.00000000000E+00  0.00000000000E+00  0.71380256668E+03  0.71380256668E+03  0.00000000000E+00 0. -1.
         21   -1    0    0  502  503 -0.00000000000E+00 -0.00000000000E+00 -0.71510428944E+02  0.71510428944E+02  0.00000000000E+00 0. -1.
          6    1    1    2  501    0  0.27127220118E+02 -0.15301691825E+01  0.57132799372E+03  0.59727540038E+03  0.17200000000E+03 0. -1.
         -6    1    1    2    0  503 -0.27127220118E+02  0.15301691825E+01  0.70964144013E+02  0.18803759524E+03  0.17200000000E+03 0. -1.
</event>
<event>
 4    1  0.2889985E+000  0.2196045E+03  0.7818608E-02  0.1134178E+00
         21   -1    0    0  501  502  0.00000000000E+00  0.00000000000E+00  0.31709796392E+03  0.31709796392E+03  0.00000000000E+00 0.  1.
         21   -1    0    0  502  503 -0.00000000000E+00 -0.00000000000E+00 -0.22689331677E+03  0.22689331677E+03  0.00000000000E+00 0.  1.
          6    1    1    2  501    0 -0.11289116297E+03 -0.76796550796E+02  0.20128161924E+03  0.29789329488E+03  0.17200000000E+03 0.  1.
         -6    1    1    2    0  503  0.11289116297E+03  0.76796550796E+02 -0.11107697209E+03  0.24609798581E+03  0.17200000000E+03 0.  1.
</event>
<event>
 4    1  0.2889985E+000  0.1954622E+03  0.7818608E-02  0.1153625E+00
         21   -1    0    0  503  502  0.00000000000E+00  0.00000000000E+00  0.43024689003E+03  0.43024689003E+03  0.00000000000E+00 0. -1.
         21   -1    0    0  501  503 -0.00000000000E+00 -0.00000000000E+00 -0.94528107182E+02  0.94528107182E+02  0.00000000000E+00 0. -1.
          6    1    1    2  501    0 -0.89435789319E+02  0.24954429394E+02  0.10326318994E+03  0.22106281993E+03  0.17200000000E+03 0. -1.
         -6    1    1    2    0  502  0.89435789319E+02 -0.24954429394E+02  0.23245559291E+03  0.30371217729E+03  0.17200000000E+03 0. -1.
</event>
<event>
 4    1  0.2889985E+000  0.1737873E+03  0.7818608E-02  0.1173955E+00
         21   -1    0    0  503  502  0.00000000000E+00  0.00000000000E+00  0.97665126032E+02  0.97665126032E+02  0.00000000000E+00 0. -1.
         21   -1    0    0  501  503 -0.00000000000E+00 -0.00000000000E+00 -0.34754951152E+03  0.34754951152E+03  0.00000000000E+00 0. -1.
          6    1    1    2  501    0 -0.24259586098E+02 -0.54325922572E+01 -0.51036152246E+02  0.18112628029E+03  0.17200000000E+03 0. -1.
         -6    1    1    2    0  502  0.24259586098E+02  0.54325922572E+01 -0.19884823324E+03  0.26408835726E+03  0.17200000000E+03 0. -1.
</event>
<event>
 4    1  0.2889985E+000  0.3358057E+03  0.7818608E-02  0.1068597E+00
         21   -1    0    0  503  502  0.00000000000E+00  0.00000000000E+00  0.39506210227E+03  0.39506210227E+03  0.00000000000E+00 0.  1.
         21   -1    0    0  501  503 -0.00000000000E+00 -0.00000000000E+00 -0.29099528760E+03  0.29099528760E+03  0.00000000000E+00 0. -1.
          6    1    1    2  501    0 -0.93828086640E+02  0.27272290608E+03  0.46263560462E+01  0.33583760438E+03  0.17200000000E+03 0. -1.
         -6    1    1    2    0  502  0.93828086640E+02 -0.27272290608E+03  0.99440458625E+02  0.35021978550E+03  0.17200000000E+03 0.  1.
</event>
<event>
 4    1  0.2889985E+000  0.2040238E+03  0.7818608E-02  0.1146388E+00
         21   -1    0    0  501  502  0.00000000000E+00  0.00000000000E+00  0.76965303619E+03  0.76965303619E+03  0.00000000000E+00 0.  1.
         21   -1    0    0  502  503 -0.00000000000E+00 -0.00000000000E+00 -0.73580815662E+02  0.73580815662E+02  0.00000000000E+00 0.  1.
          6    1    1    2  501    0  0.46303979267E+02  0.99486959353E+02  0.56506647152E+03  0.60077103027E+03  0.17200000000E+03 0.  1.
         -6    1    1    2    0  503 -0.46303979267E+02 -0.99486959353E+02  0.13100574901E+03  0.24246282159E+03  0.17200000000E+03 0.  1.
</event>
<event>
 4    1  0.2889985E+000  0.2101542E+03  0.7818608E-02  0.1141444E+00
         21   -1    0    0  501  502  0.00000000000E+00  0.00000000000E+00  0.52160110026E+02  0.52160110026E+02  0.00000000000E+00 0.  1.
         21   -1    0    0  502  503 -0.00000000000E+00 -0.00000000000E+00 -0.97216971434E+03  0.97216971434E+03  0.00000000000E+00 0.  1.
          6    1    1    2  501    0 -0.11817670949E+03 -0.24799853869E+02 -0.27602014307E+03  0.34691769455E+03  0.17200000000E+03 0.  1.
         -6    1    1    2    0  503  0.11817670949E+03  0.24799853869E+02 -0.64398946125E+03  0.67741212981E+03  0.17200000000E+03 0.  1.
</event>
<event>
 4    1  0.2889985E+000  0.1792881E+03  0.7818608E-02  0.1168494E+00
         21   -1    0    0  501  502  0.00000000000E+00  0.00000000000E+00  0.13190303312E+04  0.13190303312E+04  0.00000000000E+00 0. -1.
         21   -1    0    0  502  503 -0.00000000000E+00 -0.00000000000E+00 -0.26969917333E+02  0.26969917333E+02  0.00000000000E+00 0. -1.
          6    1    1    2  501    0  0.44477491336E+02  0.24123937818E+02  0.43705709590E+03  0.47240143595E+03  0.17200000000E+03 0. -1.
         -6    1    1    2    0  503 -0.44477491336E+02 -0.24123937818E+02  0.85500331799E+03  0.87359881260E+03  0.17200000000E+03 0. -1.
</event>
<event>
 4    1  0.2889985E+000  0.1784507E+03  0.7818608E-02  0.1169311E+00
         21   -1    0    0  503  502  0.00000000000E+00  0.00000000000E+00  0.19168874786E+03  0.19168874786E+03  0.00000000000E+00 0. -1.
         21   -1    0    0  501  503 -0.00000000000E+00 -0.00000000000E+00 -0.18592191604E+03  0.18592191604E+03  0.00000000000E+00 0. -1.
          6    1    1    2  501    0  0.15361400595E+02  0.44996513839E+02 -0.58723122672E+02  0.18786448313E+03  0.17200000000E+03 0. -1.
         -6    1    1    2    0  502 -0.15361400595E+02 -0.44996513839E+02  0.64489954485E+02  0.18974618077E+03  0.17200000000E+03 0. -1.
</event>
<event>
 4    1  0.2889985E+000  0.1782645E+03  0.7818608E-02  0.1169493E+00
         21   -1    0    0  501  502  0.00000000000E+00  0.00000000000E+00  0.89608671956E+03  0.89608671956E+03  0.00000000000E+00 0.  1.
         21   -1    0    0  502  503 -0.00000000000E+00 -0.00000000000E+00 -0.26457160207E+03  0.26457160207E+03  0.00000000000E+00 0. -1.
          6    1    1    2  501    0 -0.20713184138E+02 -0.42014161645E+02  0.85579411372E+03  0.87416348062E+03  0.17200000000E+03 0.  1.
         -6    1    1    2    0  503  0.20713184138E+02  0.42014161645E+02 -0.22427899623E+03  0.28649484101E+03  0.17200000000E+03 0. -1.
</event>
<event>
 4    1  0.2889985E+000  0.2657528E+03  0.7818608E-02  0.1103735E+00
         21   -1    0    0  501  502  0.00000000000E+00  0.00000000000E+00  0.47583513932E+03  0.47583513932E+03  0.00000000000E+00 0. -1.
         21   -1    0    0  502  503 -0.00000000000E+00 -0.00000000000E+00 -0.15125319286E+03  0.15125319286E+03  0.00000000000E+00 0. -1.
          6    1    1    2  501    0  0.11521757484E+03 -0.16662968252E+03  0.11939574374E+03  0.29134152515E+03  0.17200000000E+03 0. -1.
         -6    1    1    2    0  503 -0.11521757484E+03  0.16662968252E+03  0.20518620272E+03  0.33574680704E+03  0.17200000000E+03 0. -1.
</event>
<event>
 4    1  0.2889985E+000  0.1822301E+03  0.7818608E-02  0.1165662E+00
         21   -1    0    0  503  502  0.00000000000E+00  0.00000000000E+00  0.25471298365E+02  0.25471298365E+02  0.00000000000E+00 0. -1.
         21   -1    0    0  501  503 -0.00000000000E+00 -0.00000000000E+00 -0.13107666573E+04  0.13107666573E+04  0.00000000000E+00 0. -1.
          6    1    1    2  501    0 -0.21346360400E+01  0.60160347435E+02 -0.69158259801E+03  0.71518830663E+03  0.17200000000E+03 0. -1.
         -6    1    1    2    0  502  0.21346360400E+01 -0.60160347435E+02 -0.59371276089E+03  0.62104964900E+03  0.17200000000E+03 0. -1.
</event>
<event>
 4    1  0.2889985E+000  0.1834778E+03  0.7818608E-02  0.1164479E+00
         21   -1    0    0  501  502  0.00000000000E+00  0.00000000000E+00  0.56133483935E+03  0.56133483935E+03  0.00000000000E+00 0. -1.
         21   -1    0    0  502  503 -0.00000000000E+00 -0.00000000000E+00 -0.67419968622E+02  0.67419968622E+02  0.00000000000E+00 0.  1.
          6    1    1    2  501    0 -0.29001447118E+02  0.56912226489E+02  0.35145132678E+03  0.39646200392E+03  0.17200000000E+03 0. -1.
         -6    1    1    2    0  503  0.29001447118E+02 -0.56912226489E+02  0.14246354395E+03  0.23229280405E+03  0.17200000000E+03 0.  1.
</event>
<event>
 4    1  0.2889985E+000  0.1927617E+03  0.7818608E-02  0.1155994E+00
         21   -1    0    0  501  502  0.00000000000E+00  0.00000000000E+00  0.56746463565E+02  0.56746463565E+02  0.00000000000E+00 0. -1.
         21   -1    0    0  502  503 -0.00000000000E+00 -0.00000000000E+00 -0.15572633293E+04  0.15572633293E+04  0.00000000000E+00 0. -1.
          6    1    1    2  501    0 -0.62337101624E+02  0.60722137379E+02 -0.13591388274E+03  0.23585944062E+03  0.17200000000E+03 0. -1.
         -6    1    1    2    0  503  0.62337101624E+02 -0.60722137379E+02 -0.13646029830E+04  0.13781503522E+04  0.17200000000E+03 0. -1.
</event>
<event>
 4    1  0.2889985E+000  0.2193903E+03  0.7818608E-02  0.1134338E+00
         21   -1    0    0  501  502  0.00000000000E+00  0.00000000000E+00  0.37859032741E+03  0.37859032741E+03  0.00000000000E+00 0. -1.
         21   -1    0    0  502  503 -0.00000000000E+00 -0.00000000000E+00 -0.13141504158E+03  0.13141504158E+03  0.00000000000E+00 0.  1.
          6    1    1    2  501    0 -0.67170819752E+02  0.11847436272E+03  0.77567861635E+02  0.23269909069E+03  0.17200000000E+03 0.  1.
         -6    1    1    2    0  503  0.67170819752E+02 -0.11847436272E+03  0.16960742419E+03  0.27730627831E+03  0.17200000000E+03 0. -1.
</event>
<event>
 4    1  0.2889985E+000  0.1736195E+03  0.7818608E-02  0.1174125E+00
         21   -1    0    0  503  502  0.00000000000E+00  0.00000000000E+00  0.27496321828E+03  0.27496321828E+03  0.00000000000E+00 0. -1.
         21   -1    0    0  501  503 -0.00000000000E+00 -0.00000000000E+00 -0.11200129244E+03  0.11200129244E+03  0.00000000000E+00 0. -1.
          6    1    1    2  501    0  0.46912377708E+01 -0.23189225424E+02  0.53317985619E+02  0.18162201265E+03  0.17200000000E+03 0.  1.
         -6    1    1    2    0  502 -0.46912377708E+01  0.23189225424E+02  0.10964394022E+03  0.20534249807E+03  0.17200000000E+03 0.  1.
</event>
<event>
 4    1  0.2889985E+000  0.3430492E+03  0.7818608E-02  0.1065505E+00
         21   -1    0    0  501  502  0.00000000000E+00  0.00000000000E+00  0.13904912921E+03  0.13904912921E+03  0.00000000000E+00 0. -1.
         21   -1    0    0  502  503 -0.00000000000E+00 -0.00000000000E+00 -0.85577953099E+03  0.85577953099E+03  0.00000000000E+00 0.  1.
          6    1    1    2  501    0 -0.24246620682E+02 -0.29582237509E+03 -0.30612280233E+03  0.45977597406E+03  0.17200000000E+03 0.  1.
         -6    1    1    2    0  503  0.24246620682E+02  0.29582237509E+03 -0.41060759944E+03  0.53505268613E+03  0.17200000000E+03 0. -1.
</event>
<event>
 4    1  0.2889985E+000  0.1903333E+03  0.7818608E-02  0.1158161E+00
         21   -1    0    0  503  502  0.00000000000E+00  0.00000000000E+00  0.16705178393E+03  0.16705178393E+03  0.00000000000E+00 0. -1.
         21   -1    0    0  501  503 -0.00000000000E+00 -0.00000000000E+00 -0.40236617909E+03  0.40236617909E+03  0.00000000000E+00 0. -1.
          6    1    1    2  501    0 -0.80799457798E+02 -0.10686834627E+02 -0.31097428682E+03  0.36459809088E+03  0.17200000000E+03 0. -1.
         -6    1    1    2    0  502  0.80799457798E+02  0.10686834627E+02  0.75659891662E+02  0.20481987213E+03  0.17200000000E+03 0. -1.
</event>
<event>
 4    1  0.2889985E+000  0.2056482E+03  0.7818608E-02  0.1145059E+00
         21   -1    0    0  503  502  0.00000000000E+00  0.00000000000E+00  0.22183437777E+03  0.22183437777E+03  0.00000000000E+00 0.  1.
         21   -1    0    0  501  503 -0.00000000000E+00 -0.00000000000E+00 -0.19109557900E+03  0.19109557900E+03  0.00000000000E+00 0.  1.
          6    1    1    2  501    0  0.44993452127E+02 -0.10335744968E+03  0.25417043649E+02  0.20721293214E+03  0.17200000000E+03 0.  1.
         -6    1    1    2    0  502 -0.44993452127E+02  0.10335744968E+03  0.53217551216E+01  0.20571702462E+03  0.17200000000E+03 0.  1.
</event>
<event>
 4    1  0.2889985E+000  0.1933994E+03  0.7818608E-02  0.1155431E+00
         21   -1    0    0  503  502  0.00000000000E+00  0.00000000000E+00  0.21441957085E+02  0.21441957085E+02  0.00000000000E+00 0. -1.
         21   -1    0    0  501  503 -0.00000000000E+00 -0.00000000000E+00 -0.22258887137E+04  0.22258887137E+04  0.00000000000E+00 0. -1.
          6    1    1    2  501    0  0.77740234706E+02 -0.42139890572E+02 -0.16248349978E+04  0.16363043985E+04  0.17200000000E+03 0. -1.
         -6    1    1    2    0  502 -0.77740234706E+02  0.42139890572E+02 -0.57961175883E+03  0.61102627230E+03  0.17200000000E+03 0. -1.
</event>
<event>
 4    1  0.2889985E+000  0.1814890E+03  0.7818608E-02  0.1166370E+00
         21   -1    0    0  503  502  0.00000000000E+00  0.00000000000E+00  0.10732936297E+04  0.10732936297E+04  0.00000000000E+00 0.  1.
         21   -1    0    0  501  503 -0.00000000000E+00 -0.00000000000E+00 -0.38971392168E+02  0.38971392168E+02  0.00000000000E+00 0. -1.
          6    1    1    2  501    0 -0.51504889379E+02  0.26485903997E+02  0.26078092211E+03  0.31771834395E+03  0.17200000000E+03 0. -1.
         -6    1    1    2    0  502  0.51504889379E+02 -0.26485903997E+02  0.77354131542E+03  0.79454667792E+03  0.17200000000E+03 0.  1.
</event>
<event>
 4    1  0.2889985E+000  0.2065614E+03  0.7818608E-02  0.1144318E+00
         21   -1    0    0  503  502  0.00000000000E+00  0.00000000000E+00  0.73930505723E+02  0.73930505723E+02  0.00000000000E+00 0. -1.
         21   -1    0    0  501  503 -0.00000000000E+00 -0.00000000000E+00 -0.57868203742E+03  0.57868203742E+03  0.00000000000E+00 0.  1.
          6    1    1    2  501    0  0.64442974197E+02  0.94502456799E+02 -0.26926733641E+03  0.33937075555E+03  0.17200000000E+03 0. -1.
         -6    1    1    2    0  502 -0.64442974197E+02 -0.94502456799E+02 -0.23548419529E+03  0.31324178759E+03  0.17200000000E+03 0.  1.
</event>
<event>
 4    1  0.2889985E+000  0.1954691E+03  0.7818608E-02  0.1153619E+00
         21   -1    0    0  501  502  0.00000000000E+00  0.00000000000E+00  0.32077656707E+03  0.32077656707E+03  0.00000000000E+00 0.  1.
         21   -1    0    0  502  503 -0.00000000000E+00 -0.00000000000E+00 -0.22143889998E+03  0.22143889998E+03  0.00000000000E+00 0.  1.
          6    1    1    2  501    0 -0.45246892497E+02 -0.81098013121E+02  0.23396274100E+03  0.30487166676E+03  0.17200000000E+03 0.  1.
         -6    1    1    2    0  503  0.45246892497E+02  0.81098013121E+02 -0.13462507391E+03  0.23734380029E+03  0.17200000000E+03 0.  1.
</event>
<event>
 4    1  0.2889985E+000  0.2065704E+03  0.7818608E-02  0.1144311E+00
         21   -1    0    0  501  502  0.00000000000E+00  0.00000000000E+00  0.68786491887E+02  0.68786491887E+02  0.00000000000E+00 0. -1.
         21   -1    0    0  502  503 -0.00000000000E+00 -0.00000000000E+00 -0.11686494706E+04  0.11686494706E+04  0.00000000000E+00 0. -1.
          6    1    1    2  501    0 -0.70345423496E+02  0.90215575852E+02 -0.12613080214E+03  0.24203369183E+03  0.17200000000E+03 0. -1.
         -6    1    1    2    0  503  0.70345423496E+02 -0.90215575852E+02 -0.97373217661E+03  0.99540227069E+03  0.17200000000E+03 0. -1.
</event>
<event>
 4    1  0.2889985E+000  0.3032956E+03  0.7818608E-02  0.1083605E+00
         21   -1    0    0  501  502  0.00000000000E+00  0.00000000000E+00  0.45887317338E+03  0.45887317338E+03  0.00000000000E+00 0. -1.
         21   -1    0    0  502  503 -0.00000000000E+00 -0.00000000000E+00 -0.20338857554E+03  0.20338857554E+03  0.00000000000E+00 0.  1.
          6    1    1    2  501    0  0.24479515774E+03 -0.49794839999E+02  0.88044752005E+02  0.31581651904E+03  0.17200000000E+03 0. -1.
         -6    1    1    2    0  503 -0.24479515774E+03  0.49794839999E+02  0.16743984583E+03  0.34644522989E+03  0.17200000000E+03 0.  1.
</event>
<event>
 4    1  0.2889985E+000  0.2154491E+03  0.7818608E-02  0.1137322E+00
         21   -1    0    0  503  502  0.00000000000E+00  0.00000000000E+00  0.12525410971E+03  0.12525410971E+03  0.00000000000E+00 0.  1.
         21   -1    0    0  501  503 -0.00000000000E+00 -0.00000000000E+00 -0.40443788344E+03  0.40443788344E+03  0.00000000000E+00 0.  1.
          6    1    1    2  501    0 -0.46203197044E+02 -0.12124177393E+03 -0.21620686057E+03  0.30522730828E+03  0.17200000000E+03 0.  1.
         -6    1    1    2    0  502  0.46203197044E+02  0.12124177393E+03 -0.62976913151E+02  0.22446468487E+03  0.17200000000E+03 0.  1.
</event>
<event>
 4    1  0.2889985E+000  0.3833499E+03  0.7818608E-02  0.1049703E+00
         21   -1    0    0  501  502  0.00000000000E+00  0.00000000000E+00  0.30036060320E+03  0.30036060320E+03  0.00000000000E+00 0.  1.
         21   -1    0    0  502  503 -0.00000000000E+00 -0.00000000000E+00 -0.50087108078E+03  0.50087108078E+03  0.00000000000E+00 0. -1.
          6    1    1    2  501    0  0.22993914847E+02  0.34182509591E+03 -0.39282730927E+02  0.38535730077E+03  0.17200000000E+03 0. -1.
         -6    1    1    2    0  503 -0.22993914847E+02 -0.34182509591E+03 -0.16122774665E+03  0.41587438320E+03  0.17200000000E+03 0. -1.
</event>
<event>
 4    1  0.2889985E+000  0.2115026E+03  0.7818608E-02  0.1140382E+00
         21   -1    0    0  503  502  0.00000000000E+00  0.00000000000E+00  0.17714361383E+03  0.17714361383E+03  0.00000000000E+00 0.  1.
         21   -1    0    0  501  503 -0.00000000000E+00 -0.00000000000E+00 -0.25253322444E+03  0.25253322444E+03  0.00000000000E+00 0.  1.
          6    1    1    2  501    0 -0.11403007613E+03 -0.46330120332E+02 -0.38857249224E+02  0.21504237752E+03  0.17200000000E+03 0.  1.
         -6    1    1    2    0  502  0.11403007613E+03  0.46330120332E+02 -0.36532361386E+02  0.21463446075E+03  0.17200000000E+03 0.  1.
</event>
<event>
 4    1  0.2889985E+000  0.1941820E+03  0.7818608E-02  0.1154743E+00
         21   -1    0    0  503  502  0.00000000000E+00  0.00000000000E+00  0.15261404461E+04  0.15261404461E+04  0.00000000000E+00 0. -1.
         21   -1    0    0  501  503 -0.00000000000E+00 -0.00000000000E+00 -0.48562587972E+02  0.48562587972E+02  0.00000000000E+00 0. -1.
          6    1    1    2  501    0 -0.81871638857E+02 -0.37678829299E+02  0.18695171296E+03  0.26955074180E+03  0.17200000000E+03 0. -1.
         -6    1    1    2    0  502  0.81871638857E+02  0.37678829299E+02  0.12906261451E+04  0.13051522922E+04  0.17200000000E+03 0. -1.
</event>
<event>
 4    1  0.2889985E+000  0.1761466E+03  0.7818608E-02  0.1171585E+00
         21   -1    0    0  501  502  0.00000000000E+00  0.00000000000E+00  0.72024715194E+02  0.72024715194E+02  0.00000000000E+00 0.  1.
         21   -1    0    0  502  503 -0.00000000000E+00 -0.00000000000E+00 -0.46929396944E+03  0.46929396944E+03  0.00000000000E+00 0.  1.
          6    1    1    2  501    0  0.31552960177E+02 -0.21167206119E+02 -0.12110914945E+03  0.21376404280E+03  0.17200000000E+03 0.  1.
         -6    1    1    2    0  503 -0.31552960177E+02  0.21167206119E+02 -0.27616010479E+03  0.32755464184E+03  0.17200000000E+03 0.  1.
</event>
<event>
 4    1  0.2889985E+000  0.1752534E+03  0.7818608E-02  0.1172478E+00
         21   -1    0    0  503  502  0.00000000000E+00  0.00000000000E+00  0.10569029937E+04  0.10569029937E+04  0.00000000000E+00 0.  1.
         21   -1    0    0  501  503 -0.00000000000E+00 -0.00000000000E+00 -0.35944162819E+02  0.35944162819E+02  0.00000000000E+00 0.  1.
          6    1    1    2  501    0 -0.33361816929E+02 -0.40922797028E+01  0.27134827343E+03  0.32302266650E+03  0.17200000000E+03 0.  1.
         -6    1    1    2    0  502  0.33361816929E+02  0.40922797028E+01  0.74961055742E+03  0.76982448999E+03  0.17200000000E+03 0.  1.
</event>
<event>
 4    1  0.2889985E+000  0.2275474E+03  0.7818608E-02  0.1128378E+00
         21   -1    0    0  501  502  0.00000000000E+00  0.00000000000E+00  0.10795355103E+03  0.10795355103E+03  0.00000000000E+00 0.  1.
         21   -1    0    0  502  503 -0.00000000000E+00 -0.00000000000E+00 -0.63216965841E+03  0.63216965841E+03  0.00000000000E+00 0.  1.
          6    1    1    2  501    0 -0.84789528268E+02 -0.12249309900E+03 -0.80327352332E+02  0.24130956661E+03  0.17200000000E+03 0.  1.
         -6    1    1    2    0  503  0.84789528268E+02  0.12249309900E+03 -0.44388875505E+03  0.49881364282E+03  0.17200000000E+03 0.  1.
</event>
<event>
 4    1  0.2889985E+000  0.1970782E+03  0.7818608E-02  0.1152228E+00
         21   -1    0    0  501  502  0.00000000000E+00  0.00000000000E+00  0.16071157514E+03  0.16071157514E+03  0.00000000000E+00 0.  1.
         21   -1    0    0  502  503 -0.00000000000E+00 -0.00000000000E+00 -0.24534549574E+03  0.24534549574E+03  0.00000000000E+00 0.  1.
          6    1    1    2  501    0 -0.69251402192E+02 -0.66783671502E+02 -0.67153280080E+02  0.20820513565E+03  0.17200000000E+03 0.  1.
         -6    1    1    2    0  503  0.69251402192E+02  0.66783671502E+02 -0.17480640519E+02  0.19785193524E+03  0.17200000000E+03 0.  1.
</event>
<event>
 4    1  0.2889985E+000  0.1790630E+03  0.7818608E-02  0.1168713E+00
         21   -1    0    0  501  502  0.00000000000E+00  0.00000000000E+00  0.10009304247E+04  0.10009304247E+04  0.00000000000E+00 0. -1.
         21   -1    0    0  502  503 -0.00000000000E+00 -0.00000000000E+00 -0.79906780078E+02  0.79906780078E+02  0.00000000000E+00 0. -1.
          6    1    1    2  501    0  0.45212900206E+02 -0.20865239722E+02  0.87880799362E+03  0.89686512599E+03  0.17200000000E+03 0. -1.
         -6    1    1    2    0  503 -0.45212900206E+02  0.20865239722E+02  0.42215650971E+02  0.18397207875E+03  0.17200000000E+03 0. -1.
</event>
<event>
 4    1  0.2889985E+000  0.2313090E+03  0.7818608E-02  0.1125722E+00
         21   -1    0    0  501  502  0.00000000000E+00  0.00000000000E+00  0.36343606978E+03  0.36343606978E+03  0.00000000000E+00 0. -1.
         21   -1    0    0  502  503 -0.00000000000E+00 -0.00000000000E+00 -0.15729105266E+03  0.15729105266E+03  0.00000000000E+00 0.  1.
          6    1    1    2  501    0 -0.65167559097E+02  0.14026057929E+03  0.16896528928E+03  0.28644914006E+03  0.17200000000E+03 0.  1.
         -6    1    1    2    0  503  0.65167559097E+02 -0.14026057929E+03  0.37179727848E+02  0.23427798237E+03  0.17200000000E+03 0.  1.
</event>
<event>
 4    1  0.2889985E+000  0.1789770E+03  0.7818608E-02  0.1168797E+00
         21   -1    0    0  501  502  0.00000000000E+00  0.00000000000E+00  0.70912380805E+02  0.70912380805E+02  0.00000000000E+00 0.  1.
         21   -1    0    0  502  503 -0.00000000000E+00 -0.00000000000E+00 -0.75419153448E+03  0.75419153448E+03  0.00000000000E+00 0.  1.
          6    1    1    2  501    0 -0.75139379149E+01  0.48911380011E+02 -0.80376742855E+02  0.19619684796E+03  0.17200000000E+03 0. -1.
         -6    1    1    2    0  503  0.75139379149E+01 -0.48911380011E+02 -0.60290241082E+03  0.62890706732E+03  0.17200000000E+03 0. -1.
</event>
<event>
 4    1  0.2889985E+000  0.1731488E+03  0.7818608E-02  0.1174603E+00
         21   -1    0    0  503  502  0.00000000000E+00  0.00000000000E+00  0.64975335558E+03  0.64975335558E+03  0.00000000000E+00 0.  1.
         21   -1    0    0  501  503 -0.00000000000E+00 -0.00000000000E+00 -0.54693860437E+02  0.54693860437E+02  0.00000000000E+00 0.  1.
          6    1    1    2  501    0  0.51579977304E+01  0.19233018825E+02  0.15824764438E+03  0.23456945860E+03  0.17200000000E+03 0.  1.
         -6    1    1    2    0  502 -0.51579977304E+01 -0.19233018825E+02  0.43681185076E+03  0.46987775742E+03  0.17200000000E+03 0.  1.
</event>
<event>
 4    1  0.2889985E+000  0.2129879E+03  0.7818608E-02  0.1139222E+00
         21   -1    0    0  503  502  0.00000000000E+00  0.00000000000E+00  0.18637643173E+03  0.18637643173E+03  0.00000000000E+00 0. -1.
         21   -1    0    0  501  503 -0.00000000000E+00 -0.00000000000E+00 -0.32859762914E+03  0.32859762914E+03  0.00000000000E+00 0.  1.
          6    1    1    2  501    0 -0.54317709823E+01 -0.12550032457E+03 -0.20222170136E+03  0.29369619014E+03  0.17200000000E+03 0.  1.
         -6    1    1    2    0  502  0.54317709823E+01  0.12550032457E+03  0.60000503943E+02  0.22127787074E+03  0.17200000000E+03 0. -1.
</event>
<event>
 4    1  0.2889985E+000  0.3741150E+03  0.7818608E-02  0.1053131E+00
         21   -1    0    0  501  502  0.00000000000E+00  0.00000000000E+00  0.98204199557E+03  0.98204199557E+03  0.00000000000E+00 0.  1.
         21   -1    0    0  502  503 -0.00000000000E+00 -0.00000000000E+00 -0.14341456241E+03  0.14341456241E+03  0.00000000000E+00 0.  1.
          6    1    1    2  501    0  0.23600707631E+03  0.23383480762E+03  0.37490654035E+03  0.52963852892E+03  0.17200000000E+03 0.  1.
         -6    1    1    2    0  503 -0.23600707631E+03 -0.23383480762E+03  0.46372089281E+03  0.59581802906E+03  0.17200000000E+03 0.  1.
</event>
<event>
 4    1  0.2889985E+000  0.2013030E+03  0.7818608E-02  0.1148644E+00
         21   -1    0    0  501  502  0.00000000000E+00  0.00000000000E+00  0.39990763867E+03  0.39990763867E+03  0.00000000000E+00 0.  1.
         21   -1    0    0  502  503 -0.00000000000E+00 -0.00000000000E+00 -0.14466247788E+03  0.14466247788E+03  0.00000000000E+00 0.  1.
          6    1    1    2  501    0  0.70137994493E+02 -0.77585833312E+02  0.27664423441E+03  0.34213291603E+03  0.17200000000E+03 0.  1.
         -6    1    1    2    0  503 -0.70137994493E+02  0.77585833312E+02 -0.21399073609E+02  0.20243720052E+03  0.17200000000E+03 0.  1.
</event>
<event>
 4    1  0.2889985E+000  0.3071506E+03  0.7818608E-02  0.1081720E+00
         21   -1    0    0  501  502  0.00000000000E+00  0.00000000000E+00  0.97993562276E+03  0.97993562276E+03  0.00000000000E+00 0. -1.
         21   -1    0    0  502  503 -0.00000000000E+00 -0.00000000000E+00 -0.14718924427E+03  0.14718924427E+03  0.00000000000E+00 0. -1.
          6    1    1    2  501    0  0.25269383097E+03  0.30055031540E+02  0.74783354452E+03  0.80845314486E+03  0.17200000000E+03 0. -1.
         -6    1    1    2    0  503 -0.25269383097E+03 -0.30055031540E+02  0.84912833978E+02  0.31867172216E+03  0.17200000000E+03 0. -1.
</event>
<event>
 4    1  0.2889985E+000  0.1817006E+03  0.7818608E-02  0.1166167E+00
         21   -1    0    0  501  502  0.00000000000E+00  0.00000000000E+00  0.43963678754E+02  0.43963678754E+02  0.00000000000E+00 0.  1.
         21   -1    0    0  502  503 -0.00000000000E+00 -0.00000000000E+00 -0.80028193755E+03  0.80028193755E+03  0.00000000000E+00 0.  1.
          6    1    1    2  501    0 -0.39170916146E+02 -0.43551749802E+02 -0.27336855645E+03  0.32824607117E+03  0.17200000000E+03 0.  1.
         -6    1    1    2    0  503  0.39170916146E+02  0.43551749802E+02 -0.48294970235E+03  0.51599954513E+03  0.17200000000E+03 0.  1.
</event>
<event>
 4    1  0.2889985E+000  0.2240463E+03  0.7818608E-02  0.1130902E+00
         21   -1    0    0  501  502  0.00000000000E+00  0.00000000000E+00  0.15575732354E+03  0.15575732354E+03  0.00000000000E+00 0. -1.
         21   -1    0    0  502  503 -0.00000000000E+00 -0.00000000000E+00 -0.33518449321E+03  0.33518449321E+03  0.00000000000E+00 0.  1.
          6    1    1    2  501    0  0.71527527175E+02 -0.12448512840E+03 -0.41540103238E+02  0.22786468466E+03  0.17200000000E+03 0. -1.
         -6    1    1    2    0  503 -0.71527527175E+02  0.12448512840E+03 -0.13788706643E+03  0.26307713209E+03  0.17200000000E+03 0.  1.
</event>
<event>
 4    1  0.2889985E+000  0.1830104E+03  0.7818608E-02  0.1164921E+00
         21   -1    0    0  503  502  0.00000000000E+00  0.00000000000E+00  0.15689709453E+03  0.15689709453E+03  0.00000000000E+00 0.  1.
         21   -1    0    0  501  503 -0.00000000000E+00 -0.00000000000E+00 -0.42007899811E+03  0.42007899811E+03  0.00000000000E+00 0. -1.
          6    1    1    2  501    0  0.56269507470E+02  0.27249799694E+02 -0.33391012688E+03  0.38077392490E+03  0.17200000000E+03 0. -1.
         -6    1    1    2    0  502 -0.56269507470E+02 -0.27249799694E+02  0.70728223299E+02  0.19620216774E+03  0.17200000000E+03 0.  1.
</event>
<event>
 4    1  0.2889985E+000  0.1809183E+03  0.7818608E-02  0.1166917E+00
         21   -1    0    0  503  502  0.00000000000E+00  0.00000000000E+00  0.14684874808E+03  0.14684874808E+03  0.00000000000E+00 0.  1.
         21   -1    0    0  501  503 -0.00000000000E+00 -0.00000000000E+00 -0.23062992568E+03  0.23062992568E+03  0.00000000000E+00 0. -1.
          6    1    1    2  501    0  0.55293135631E+02 -0.94923666335E+01 -0.76461605282E+02  0.19641235438E+03  0.17200000000E+03 0.  1.
         -6    1    1    2    0  502 -0.55293135631E+02  0.94923666335E+01 -0.73195723163E+01  0.18106631937E+03  0.17200000000E+03 0.  1.
</event>
<event>
 4    1  0.2889985E+000  0.1784990E+03  0.7818608E-02  0.1169264E+00
         21   -1    0    0  503  502  0.00000000000E+00  0.00000000000E+00  0.26178476884E+02  0.26178476884E+02  0.00000000000E+00 0.  1.
         21   -1    0    0  501  503 -0.00000000000E+00 -0.00000000000E+00 -0.18375972536E+04  0.18375972536E+04  0.00000000000E+00 0.  1.
          6    1    1    2  501    0  0.38021536795E+02 -0.28849121620E+02 -0.36419838313E+03  0.40558891917E+03  0.17200000000E+03 0.  1.
         -6    1    1    2    0  502 -0.38021536795E+02  0.28849121620E+02 -0.14472203936E+04  0.14581868113E+04  0.17200000000E+03 0.  1.
</event>
<event>
 4    1  0.2889985E+000  0.1823042E+03  0.7818608E-02  0.1165591E+00
         21   -1    0    0  503  502  0.00000000000E+00  0.00000000000E+00  0.13812316185E+03  0.13812316185E+03  0.00000000000E+00 0.  1.
         21   -1    0    0  501  503 -0.00000000000E+00 -0.00000000000E+00 -0.53006429320E+03  0.53006429320E+03  0.00000000000E+00 0.  1.
          6    1    1    2  501    0 -0.26492375171E+02 -0.54304616395E+02 -0.44285203116E+03  0.47890788134E+03  0.17200000000E+03 0.  1.
         -6    1    1    2    0  502  0.26492375171E+02  0.54304616395E+02  0.50910899818E+02  0.18927957371E+03  0.17200000000E+03 0.  1.
</event>
<event>
 4    1  0.2889985E+000  0.2368519E+03  0.7818608E-02  0.1121908E+00
         21   -1    0    0  501  502  0.00000000000E+00  0.00000000000E+00  0.29182654087E+03  0.29182654087E+03  0.00000000000E+00 0.  1.
         21   -1    0    0  502  503 -0.00000000000E+00 -0.00000000000E+00 -0.23550041638E+03  0.23550041638E+03  0.00000000000E+00 0. -1.
          6    1    1    2  501    0  0.30689929190E+02  0.15991550553E+03  0.14117701188E+03  0.27573499841E+03  0.17200000000E+03 0. -1.
         -6    1    1    2    0  503 -0.30689929190E+02 -0.15991550553E+03 -0.84850887398E+02  0.25159195885E+03  0.17200000000E+03 0. -1.
</event>
<event>
 4    1  0.2889985E+000  0.1952765E+03  0.7818608E-02  0.1153787E+00
         21   -1    0    0  503  502  0.00000000000E+00  0.00000000000E+00  0.21865129011E+03  0.21865129011E+03  0.00000000000E+00 0.  1.
         21   -1    0    0  501  503 -0.00000000000E+00 -0.00000000000E+00 -0.22110650462E+03  0.22110650462E+03  0.00000000000E+00 0.  1.
          6    1    1    2  501    0 -0.92095665330E+02 -0.82035501687E+01 -0.10228517014E+03  0.22044311248E+03  0.17200000000E+03 0.  1.
         -6    1    1    2    0  502  0.92095665330E+02  0.82035501687E+01  0.99829955638E+02  0.21931468225E+03  0.17200000000E+03 0.  1.
</event>
<event>
 4    1  0.2889985E+000  0.2064406E+03  0.7818608E-02  0.1144416E+00
         21   -1    0    0  503  502  0.00000000000E+00  0.00000000000E+00  0.19484790234E+03  0.19484790234E+03  0.00000000000E+00 0.  1.
         21   -1    0    0  501  503 -0.00000000000E+00 -0.00000000000E+00 -0.23692270063E+03  0.23692270063E+03  0.00000000000E+00 0. -1.
          6    1    1    2  501    0  0.11263657993E+02  0.11360830367E+03  0.38797136655E+02  0.21005459878E+03  0.17200000000E+03 0.  1.
         -6    1    1    2    0  502 -0.11263657993E+02 -0.11360830367E+03 -0.80871934936E+02  0.22171600419E+03  0.17200000000E+03 0.  1.
</event>
<event>
 4    1  0.2889985E+000  0.1877462E+03  0.7818608E-02  0.1160510E+00
         21   -1    0    0  501  502  0.00000000000E+00  0.00000000000E+00  0.38329380317E+03  0.38329380317E+03  0.00000000000E+00 0. -1.
         21   -1    0    0  502  503 -0.00000000000E+00 -0.00000000000E+00 -0.92115657785E+02  0.92115657785E+02  0.00000000000E+00 0. -1.
          6    1    1    2  501    0 -0.43939415598E+01  0.75135322994E+02  0.15528439524E+03  0.24364290855E+03  0.17200000000E+03 0. -1.
         -6    1    1    2    0  503  0.43939415598E+01 -0.75135322994E+02  0.13589375015E+03  0.23176655241E+03  0.17200000000E+03 0. -1.
</event>
<event>
 4    1  0.2889985E+000  0.1930267E+03  0.7818608E-02  0.1155759E+00
         21   -1    0    0  503  502  0.00000000000E+00  0.00000000000E+00  0.60744159686E+03  0.60744159686E+03  0.00000000000E+00 0. -1.
         21   -1    0    0  501  503 -0.00000000000E+00 -0.00000000000E+00 -0.62607313754E+02  0.62607313754E+02  0.00000000000E+00 0. -1.
          6    1    1    2  501    0 -0.29198274741E+02  0.82600128089E+02  0.32011835084E+03  0.37381155540E+03  0.17200000000E+03 0. -1.
         -6    1    1    2    0  502  0.29198274741E+02 -0.82600128089E+02  0.22471593226E+03  0.29623735521E+03  0.17200000000E+03 0. -1.
</event>
<event>
 4    1  0.2889985E+000  0.1831998E+03  0.7818608E-02  0.1164742E+00
         21   -1    0    0  501  502  0.00000000000E+00  0.00000000000E+00  0.97136953612E+03  0.97136953612E+03  0.00000000000E+00 0.  1.
         21   -1    0    0  502  503 -0.00000000000E+00 -0.00000000000E+00 -0.35147920202E+02  0.35147920202E+02  0.00000000000E+00 0.  1.
          6    1    1    2  501    0  0.13874547787E+01  0.63057440276E+02  0.53367374790E+03  0.56424270930E+03  0.17200000000E+03 0.  1.
         -6    1    1    2    0  503 -0.13874547787E+01 -0.63057440276E+02  0.40254786803E+03  0.44227474703E+03  0.17200000000E+03 0.  1.
</event>
<event>
 4    1  0.2889985E+000  0.1927694E+03  0.7818608E-02  0.1155987E+00
         21   -1    0    0  503  502  0.00000000000E+00  0.00000000000E+00  0.26308148476E+02  0.26308148476E+02  0.00000000000E+00 0.  1.
         21   -1    0    0  501  503 -0.00000000000E+00 -0.00000000000E+00 -0.14126872583E+04  0.14126872583E+04  0.00000000000E+00 0. -1.
          6    1    1    2  501    0 -0.80654993985E+02  0.32723389812E+02 -0.68472991682E+03  0.71134738861E+03  0.17200000000E+03 0. -1.
         -6    1    1    2    0  502  0.80654993985E+02 -0.32723389812E+02 -0.70164919296E+03  0.72764801813E+03  0.17200000000E+03 0.  1.
</event>
<event>
 4    1  0.2889985E+000  0.1821910E+03  0.7818608E-02  0.1165699E+00
         21   -1    0    0  501  502  0.00000000000E+00  0.00000000000E+00  0.10889474693E+04  0.10889474693E+04  0.00000000000E+00 0.  1.
         21   -1    0    0  502  503 -0.00000000000E+00 -0.00000000000E+00 -0.31991087556E+02  0.31991087556E+02  0.00000000000E+00 0.  1.
          6    1    1    2  501    0  0.11307451250E+02  0.59006093083E+02  0.65019692649E+03  0.67524041696E+03  0.17200000000E+03 0.  1.
         -6    1    1    2    0  503 -0.11307451250E+02 -0.59006093083E+02  0.40675945530E+03  0.44569813994E+03  0.17200000000E+03 0.  1.
</event>
<event>
 4    1  0.2889985E+000  0.1839507E+03  0.7818608E-02  0.1164033E+00
         21   -1    0    0  503  502  0.00000000000E+00  0.00000000000E+00  0.45565485133E+03  0.45565485133E+03  0.00000000000E+00 0.  1.
         21   -1    0    0  501  503 -0.00000000000E+00 -0.00000000000E+00 -0.74539613591E+02  0.74539613591E+02  0.00000000000E+00 0.  1.
          6    1    1    2  501    0  0.50833470909E+02 -0.40863410562E+02  0.20673463724E+03  0.27672562281E+03  0.17200000000E+03 0. -1.
         -6    1    1    2    0  502 -0.50833470909E+02  0.40863410562E+02  0.17438060050E+03  0.25346884211E+03  0.17200000000E+03 0. -1.
</event>
<event>
 4    1  0.2889985E+000  0.1871713E+03  0.7818608E-02  0.1161038E+00
         21   -1    0    0  501  502  0.00000000000E+00  0.00000000000E+00  0.21488645082E+04  0.21488645082E+04  0.00000000000E+00 0. -1.
         21   -1    0    0  502  503 -0.00000000000E+00 -0.00000000000E+00 -0.16316811163E+02  0.16316811163E+02  0.00000000000E+00 0.  1.
          6    1    1    2  501    0 -0.55708403021E+02 -0.48432139836E+02  0.10976851562E+04  0.11135285360E+04  0.17200000000E+03 0. -1.
         -6    1    1    2    0  503  0.55708403021E+02  0.48432139836E+02  0.10348625409E+04  0.10516527834E+04  0.17200000000E+03 0. -1.
</event>
<event>
 4    1  0.2889985E+000  0.1790676E+03  0.7818608E-02  0.1168708E+00
         21   -1    0    0  501  502  0.00000000000E+00  0.00000000000E+00  0.33934396823E+03  0.33934396823E+03  0.00000000000E+00 0. -1.
         21   -1    0    0  502  503 -0.00000000000E+00 -0.00000000000E+00 -0.13781683935E+03  0.13781683935E+03  0.00000000000E+00 0. -1.
          6    1    1    2  501    0  0.11403795858E+02 -0.48488840275E+02  0.23453187134E+03  0.29507696092E+03  0.17200000000E+03 0. -1.
         -6    1    1    2    0  503 -0.11403795858E+02  0.48488840275E+02 -0.33004742461E+02  0.18208384666E+03  0.17200000000E+03 0. -1.
</event>
<event>
 4    1  0.2889985E+000  0.1771364E+03  0.7818608E-02  0.1170604E+00
         21   -1    0    0  503  502  0.00000000000E+00  0.00000000000E+00  0.35834341031E+02  0.35834341031E+02  0.00000000000E+00 0. -1.
         21   -1    0    0  501  503 -0.00000000000E+00 -0.00000000000E+00 -0.89684330539E+03  0.89684330539E+03  0.00000000000E+00 0. -1.
          6    1    1    2  501    0  0.38740067717E+02  0.17103481050E+02 -0.35876904541E+03  0.40011567059E+03  0.17200000000E+03 0.  1.
         -6    1    1    2    0  502 -0.38740067717E+02 -0.17103481050E+02 -0.50223991896E+03  0.53256197583E+03  0.17200000000E+03 0.  1.
</event>
<event>
 4    1  0.2889985E+000  0.1757309E+03  0.7818608E-02  0.1172000E+00
         21   -1    0    0  501  502  0.00000000000E+00  0.00000000000E+00  0.13040031292E+03  0.13040031292E+03  0.00000000000E+00 0. -1.
         21   -1    0    0  502  503 -0.00000000000E+00 -0.00000000000E+00 -0.49122203645E+03  0.49122203645E+03  0.00000000000E+00 0. -1.
          6    1    1    2  501    0  0.35799221995E+02 -0.39686491354E+01  0.43264649421E+02  0.18097835329E+03  0.17200000000E+03 0. -1.
         -6    1    1    2    0  503 -0.35799221995E+02  0.39686491354E+01 -0.40408637295E+03  0.44064399608E+03  0.17200000000E+03 0. -1.
</event>
<event>
 4    1  0.2889985E+000  0.2033664E+03  0.7818608E-02  0.1146929E+00
         21   -1    0    0  503  502  0.00000000000E+00  0.00000000000E+00  0.62128453801E+02  0.62128453801E+02  0.00000000000E+00 0.  1.
         21   -1    0    0  501  503 -0.00000000000E+00 -0.00000000000E+00 -0.83569734736E+03  0.83569734736E+03  0.00000000000E+00 0.  1.
          6    1    1    2  501    0  0.32714623604E+02 -0.10345837748E+03 -0.18430553111E+03  0.27445657446E+03  0.17200000000E+03 0.  1.
         -6    1    1    2    0  502 -0.32714623604E+02  0.10345837748E+03 -0.58926336245E+03  0.62336922670E+03  0.17200000000E+03 0.  1.
</event>
<event>
 4    1  0.2889985E+000  0.2465638E+03  0.7818608E-02  0.1115496E+00
         21   -1    0    0  503  502  0.00000000000E+00  0.00000000000E+00  0.81966655507E+02  0.81966655507E+02  0.00000000000E+00 0. -1.
         21   -1    0    0  501  503 -0.00000000000E+00 -0.00000000000E+00 -0.77574268133E+03  0.77574268133E+03  0.00000000000E+00 0.  1.
          6    1    1    2  501    0 -0.58473410843E+02 -0.16670501313E+03 -0.43674222370E+03  0.50153511456E+03  0.17200000000E+03 0. -1.
         -6    1    1    2    0  502  0.58473410843E+02  0.16670501313E+03 -0.25703380212E+03  0.35617422227E+03  0.17200000000E+03 0.  1.
</event>
<event>
 4    1  0.2889985E+000  0.2555426E+03  0.7818608E-02  0.1109851E+00
         21   -1    0    0  501  502  0.00000000000E+00  0.00000000000E+00  0.20477325277E+03  0.20477325277E+03  0.00000000000E+00 0. -1.
         21   -1    0    0  502  503 -0.00000000000E+00 -0.00000000000E+00 -0.12518982003E+04  0.12518982003E+04  0.00000000000E+00 0. -1.
          6    1    1    2  501    0  0.10679593246E+03  0.15592518098E+03  0.10520155439E+03  0.27635014077E+03  0.17200000000E+03 0. -1.
         -6    1    1    2    0  503 -0.10679593246E+03 -0.15592518098E+03 -0.11523265020E+04  0.11803213124E+04  0.17200000000E+03 0. -1.
</event>
<event>
 4    1  0.2889985E+000  0.1860989E+03  0.7818608E-02  0.1162028E+00
         21   -1    0    0  501  502  0.00000000000E+00  0.00000000000E+00  0.29808454507E+03  0.29808454507E+03  0.00000000000E+00 0.  1.
         21   -1    0    0  502  503 -0.00000000000E+00 -0.00000000000E+00 -0.12060538451E+03  0.12060538451E+03  0.00000000000E+00 0. -1.
          6    1    1    2  501    0 -0.36955811265E+02  0.60688361297E+02  0.48659104041E+02  0.19235518602E+03  0.17200000000E+03 0. -1.
         -6    1    1    2    0  503  0.36955811265E+02 -0.60688361297E+02  0.12882005652E+03  0.22633474357E+03  0.17200000000E+03 0. -1.
</event>
<event>
 4    1  0.2889985E+000  0.1751075E+03  0.7818608E-02  0.1172624E+00
         21   -1    0    0  501  502  0.00000000000E+00  0.00000000000E+00  0.10248769083E+03  0.10248769083E+03  0.00000000000E+00 0. -1.
         21   -1    0    0  502  503 -0.00000000000E+00 -0.00000000000E+00 -0.31091016839E+03  0.31091016839E+03  0.00000000000E+00 0. -1.
          6    1    1    2  501    0 -0.16560629786E+02 -0.28361899604E+02 -0.14435364789E+03  0.22693749683E+03  0.17200000000E+03 0.  1.
         -6    1    1    2    0  503  0.16560629786E+02  0.28361899604E+02 -0.64068829662E+02  0.18646036239E+03  0.17200000000E+03 0.  1.
</event>
<event>
 4    1  0.2889985E+000  0.1990414E+03  0.7818608E-02  0.1150550E+00
         21   -1    0    0  503  502  0.00000000000E+00  0.00000000000E+00  0.12303307319E+03  0.12303307319E+03  0.00000000000E+00 0. -1.
         21   -1    0    0  501  503 -0.00000000000E+00 -0.00000000000E+00 -0.34027921625E+03  0.34027921625E+03  0.00000000000E+00 0. -1.
          6    1    1    2  501    0 -0.82184348437E+02 -0.57264421606E+02 -0.16230456545E+03  0.25682728258E+03  0.17200000000E+03 0. -1.
         -6    1    1    2    0  502  0.82184348437E+02  0.57264421606E+02 -0.54941577613E+02  0.20648500687E+03  0.17200000000E+03 0. -1.
</event>
<event>
 4    1  0.2889985E+000  0.2957037E+03  0.7818608E-02  0.1087408E+00
         21   -1    0    0  501  502  0.00000000000E+00  0.00000000000E+00  0.25073822041E+04  0.25073822041E+04  0.00000000000E+00 0. -1.
         21   -1    0    0  502  503 -0.00000000000E+00 -0.00000000000E+00 -0.82394248525E+02  0.82394248525E+02  0.00000000000E+00 0.  1.
          6    1    1    2  501    0  0.18067665697E+03  0.15878491343E+03  0.21958852811E+04  0.22157059532E+04  0.17200000000E+03 0. -1.
         -6    1    1    2    0  503 -0.18067665697E+03 -0.15878491343E+03  0.22910267443E+03  0.37407049942E+03  0.17200000000E+03 0.  1.
</event>
<event>
 4    1  0.2889985E+000  0.1789237E+03  0.7818608E-02  0.1168849E+00
         21   -1    0    0  503  502  0.00000000000E+00  0.00000000000E+00  0.46687194428E+03  0.46687194428E+03  0.00000000000E+00 0.  1.
         21   -1    0    0  501  503 -0.00000000000E+00 -0.00000000000E+00 -0.10656384915E+03  0.10656384915E+03  0.00000000000E+00 0.  1.
          6    1    1    2  501    0 -0.45678904885E+02  0.18523653756E+02  0.89543135441E+01  0.17914761464E+03  0.17200000000E+03 0.  1.
         -6    1    1    2    0  502  0.45678904885E+02 -0.18523653756E+02  0.35135378158E+03  0.39428817879E+03  0.17200000000E+03 0.  1.
</event>
<event>
 4    1  0.2889985E+000  0.1845070E+03  0.7818608E-02  0.1163511E+00
         21   -1    0    0  501  502  0.00000000000E+00  0.00000000000E+00  0.62903889533E+02  0.62903889533E+02  0.00000000000E+00 0. -1.
         21   -1    0    0  502  503 -0.00000000000E+00 -0.00000000000E+00 -0.54166304758E+03  0.54166304758E+03  0.00000000000E+00 0. -1.
          6    1    1    2  501    0 -0.51427875893E+02  0.42591069446E+02 -0.24833222539E+03  0.30937310773E+03  0.17200000000E+03 0. -1.
         -6    1    1    2    0  503  0.51427875893E+02 -0.42591069446E+02 -0.23042693265E+03  0.29519382939E+03  0.17200000000E+03 0. -1.
</event>
<event>
 4    1  0.2889985E+000  0.2076629E+03  0.7818608E-02  0.1143430E+00
         21   -1    0    0  503  502  0.00000000000E+00  0.00000000000E+00  0.20585075297E+03  0.20585075297E+03  0.00000000000E+00 0. -1.
         21   -1    0    0  501  503 -0.00000000000E+00 -0.00000000000E+00 -0.21030327182E+03  0.21030327182E+03  0.00000000000E+00 0.  1.
          6    1    1    2  501    0  0.10529639338E+03  0.49523380086E+02  0.10704725190E+02  0.20793866109E+03  0.17200000000E+03 0. -1.
         -6    1    1    2    0  502 -0.10529639338E+03 -0.49523380086E+02 -0.15157244039E+02  0.20821536370E+03  0.17200000000E+03 0. -1.
</event>
<event>
 4    1  0.2889985E+000  0.1921201E+03  0.7818608E-02  0.1156563E+00
         21   -1    0    0  501  502  0.00000000000E+00  0.00000000000E+00  0.16551621268E+03  0.16551621268E+03  0.00000000000E+00 0.  1.
         21   -1    0    0  502  503 -0.00000000000E+00 -0.00000000000E+00 -0.29234326513E+03  0.29234326513E+03  0.00000000000E+00 0.  1.
          6    1    1    2  501    0 -0.63467376604E+02  0.57428307844E+02  0.48082079967E+02  0.19804546157E+03  0.17200000000E+03 0.  1.
         -6    1    1    2    0  503  0.63467376604E+02 -0.57428307844E+02 -0.17490913241E+03  0.25981401624E+03  0.17200000000E+03 0.  1.
</event>
<event>
 4    1  0.2889985E+000  0.3070710E+03  0.7818608E-02  0.1081758E+00
         21   -1    0    0  503  502  0.00000000000E+00  0.00000000000E+00  0.57814589464E+03  0.57814589464E+03  0.00000000000E+00 0. -1.
         21   -1    0    0  501  503 -0.00000000000E+00 -0.00000000000E+00 -0.18818048943E+03  0.18818048943E+03  0.00000000000E+00 0.  1.
          6    1    1    2  501    0 -0.14263316520E+03 -0.21062853185E+03  0.55085390994E+02  0.31197275289E+03  0.17200000000E+03 0.  1.
         -6    1    1    2    0  502  0.14263316520E+03  0.21062853185E+03  0.33488001421E+03  0.45435363118E+03  0.17200000000E+03 0. -1.
</event>
<event>
 4    1  0.2889985E+000  0.1912585E+03  0.7818608E-02  0.1157331E+00
         21   -1    0    0  501  502  0.00000000000E+00  0.00000000000E+00  0.10151641957E+04  0.10151641957E+04  0.00000000000E+00 0.  1.
         21   -1    0    0  502  503 -0.00000000000E+00 -0.00000000000E+00 -0.10776066963E+03  0.10776066963E+03  0.00000000000E+00 0.  1.
          6    1    1    2  501    0  0.47923451609E+02  0.68550320061E+02  0.91177271622E+03  0.93161649279E+03  0.17200000000E+03 0.  1.
         -6    1    1    2    0  503 -0.47923451609E+02 -0.68550320061E+02 -0.43691901259E+01  0.19130837257E+03  0.17200000000E+03 0.  1.
</event>
<event>
 4    1  0.2889985E+000  0.3012457E+03  0.7818608E-02  0.1084620E+00
         21   -1    0    0  503  502  0.00000000000E+00  0.00000000000E+00  0.47812239162E+03  0.47812239162E+03  0.00000000000E+00 0.  1.
         21   -1    0    0  501  503 -0.00000000000E+00 -0.00000000000E+00 -0.29775709515E+03  0.29775709515E+03  0.00000000000E+00 0. -1.
          6    1    1    2  501    0  0.29436403583E+02  0.24555750255E+03 -0.14340673106E+03  0.33363824635E+03  0.17200000000E+03 0. -1.
         -6    1    1    2    0  502 -0.29436403583E+02 -0.24555750255E+03  0.32377202753E+03  0.44224124042E+03  0.17200000000E+03 0.  1.
</event>
<event>
 4    1  0.2889985E+000  0.1900581E+03  0.7818608E-02  0.1158409E+00
         21   -1    0    0  501  502  0.00000000000E+00  0.00000000000E+00  0.18847374529E+04  0.18847374529E+04  0.00000000000E+00 0.  1.
         21   -1    0    0  502  503 -0.00000000000E+00 -0.00000000000E+00 -0.19407423067E+02  0.19407423067E+02  0.00000000000E+00 0.  1.
          6    1    1    2  501    0  0.71875128323E+02  0.37041361287E+02  0.10389441649E+04  0.10561851515E+04  0.17200000000E+03 0. -1.
         -6    1    1    2    0  503 -0.71875128323E+02 -0.37041361287E+02  0.82638586494E+03  0.84795972445E+03  0.17200000000E+03 0. -1.
</event>
<event>
 4    1  0.2889985E+000  0.2669885E+03  0.7818608E-02  0.1103016E+00
         21   -1    0    0  501  502  0.00000000000E+00  0.00000000000E+00  0.94005222096E+03  0.94005222096E+03  0.00000000000E+00 0.  1.
         21   -1    0    0  502  503 -0.00000000000E+00 -0.00000000000E+00 -0.14146286606E+03  0.14146286606E+03  0.00000000000E+00 0. -1.
          6    1    1    2  501    0  0.49394041180E+02 -0.19813910635E+03  0.30956647570E+02  0.26877721406E+03  0.17200000000E+03 0. -1.
         -6    1    1    2    0  503 -0.49394041180E+02  0.19813910635E+03  0.76763270734E+03  0.81273787296E+03  0.17200000000E+03 0.  1.
</event>
<event>
 4    1  0.2889985E+000  0.5026481E+03  0.7818608E-02  0.1013090E+00
         21   -1    0    0  503  502  0.00000000000E+00  0.00000000000E+00  0.52429502731E+03  0.52429502731E+03  0.00000000000E+00 0.  1.
         21   -1    0    0  501  503 -0.00000000000E+00 -0.00000000000E+00 -0.50937027397E+03  0.50937027397E+03  0.00000000000E+00 0.  1.
          6    1    1    2  501    0  0.28745152343E+03 -0.37475683410E+03 -0.11257196190E+03  0.51509951430E+03  0.17200000000E+03 0.  1.
         -6    1    1    2    0  502 -0.28745152343E+03  0.37475683410E+03  0.12749671523E+03  0.51856578698E+03  0.17200000000E+03 0.  1.
</event>
<event>
 4    1  0.2889985E+000  0.2374484E+03  0.7818608E-02  0.1121504E+00
         21   -1    0    0  501  502  0.00000000000E+00  0.00000000000E+00  0.44282064490E+02  0.44282064490E+02  0.00000000000E+00 0.  1.
         21   -1    0    0  502  503 -0.00000000000E+00 -0.00000000000E+00 -0.13068693658E+04  0.13068693658E+04  0.00000000000E+00 0. -1.
          6    1    1    2  501    0  0.63231266199E+02 -0.15099517465E+03 -0.73966424279E+03  0.77684292354E+03  0.17200000000E+03 0. -1.
         -6    1    1    2    0  503 -0.63231266199E+02  0.15099517465E+03 -0.52292305855E+03  0.57430850678E+03  0.17200000000E+03 0.  1.
</event>
<event>
 4    1  0.2889985E+000  0.1914323E+03  0.7818608E-02  0.1157176E+00
         21   -1    0    0  501  502  0.00000000000E+00  0.00000000000E+00  0.41984156674E+03  0.41984156674E+03  0.00000000000E+00 0.  1.
         21   -1    0    0  502  503 -0.00000000000E+00 -0.00000000000E+00 -0.11159126942E+03  0.11159126942E+03  0.00000000000E+00 0.  1.
          6    1    1    2  501    0 -0.84013466656E+02  0.20132906776E+01  0.27813408138E+03  0.33764609156E+03  0.17200000000E+03 0.  1.
         -6    1    1    2    0  503  0.84013466656E+02 -0.20132906776E+01  0.30116215939E+02  0.19378674460E+03  0.17200000000E+03 0.  1.
</event>
<event>
 4    1  0.2889985E+000  0.2431177E+03  0.7818608E-02  0.1117733E+00
         21   -1    0    0  503  502  0.00000000000E+00  0.00000000000E+00  0.92428911828E+02  0.92428911828E+02  0.00000000000E+00 0. -1.
         21   -1    0    0  501  503 -0.00000000000E+00 -0.00000000000E+00 -0.67179356755E+03  0.67179356755E+03  0.00000000000E+00 0. -1.
          6    1    1    2  501    0  0.55726159972E+02 -0.16253247797E+03 -0.20587518945E+03  0.31857621526E+03  0.17200000000E+03 0. -1.
         -6    1    1    2    0  502 -0.55726159972E+02  0.16253247797E+03 -0.37348946627E+03  0.44564626411E+03  0.17200000000E+03 0. -1.
</event>
<event>
 4    1  0.2889985E+000  0.2365410E+03  0.7818608E-02  0.1122119E+00
         21   -1    0    0  503  502  0.00000000000E+00  0.00000000000E+00  0.54768312878E+03  0.54768312878E+03  0.00000000000E+00 0. -1.
         21   -1    0    0  501  503 -0.00000000000E+00 -0.00000000000E+00 -0.28649227307E+03  0.28649227307E+03  0.00000000000E+00 0.  1.
          6    1    1    2  501    0 -0.15276599250E+03  0.55047356155E+02 -0.20396214158E+03  0.31233349977E+03  0.17200000000E+03 0.  1.
         -6    1    1    2    0  502  0.15276599250E+03 -0.55047356155E+02  0.46515299728E+03  0.52184190208E+03  0.17200000000E+03 0. -1.
</event>
<event>
 4    1  0.2889985E+000  0.2244338E+03  0.7818608E-02  0.1130620E+00
         21   -1    0    0  503  502  0.00000000000E+00  0.00000000000E+00  0.68440048205E+02  0.68440048205E+02  0.00000000000E+00 0. -1.
         21   -1    0    0  501  503 -0.00000000000E+00 -0.00000000000E+00 -0.11947084305E+04  0.11947084305E+04  0.00000000000E+00 0. -1.
          6    1    1    2  501    0  0.85313114527E+02 -0.11622479704E+03 -0.95448938709E+03  0.98052053575E+03  0.17200000000E+03 0. -1.
         -6    1    1    2    0  502 -0.85313114527E+02  0.11622479704E+03 -0.17177899525E+03  0.28262794300E+03  0.17200000000E+03 0. -1.
</event>
<event>
 4    1  0.2889985E+000  0.2005085E+03  0.7818608E-02  0.1149311E+00
         21   -1    0    0  503  502  0.00000000000E+00  0.00000000000E+00  0.12368610009E+04  0.12368610009E+04  0.00000000000E+00 0.  1.
         21   -1    0    0  501  503 -0.00000000000E+00 -0.00000000000E+00 -0.36519430596E+02  0.36519430596E+02  0.00000000000E+00 0.  1.
          6    1    1    2  501    0 -0.99806503784E+02 -0.25657464896E+02  0.38906456437E+03  0.43769267637E+03  0.17200000000E+03 0.  1.
         -6    1    1    2    0  502  0.99806503784E+02  0.25657464896E+02  0.81127700589E+03  0.83568775508E+03  0.17200000000E+03 0.  1.
</event>
<event>
 4    1  0.2889985E+000  0.1791820E+03  0.7818608E-02  0.1168597E+00
         21   -1    0    0  503  502  0.00000000000E+00  0.00000000000E+00  0.75012450685E+02  0.75012450685E+02  0.00000000000E+00 0. -1.
         21   -1    0    0  501  503 -0.00000000000E+00 -0.00000000000E+00 -0.69422213800E+03  0.69422213800E+03  0.00000000000E+00 0. -1.
          6    1    1    2  501    0  0.44618628760E+02 -0.23051339866E+02 -0.54777774060E+03  0.57633899695E+03  0.17200000000E+03 0. -1.
         -6    1    1    2    0  502 -0.44618628760E+02  0.23051339866E+02 -0.71431946718E+02  0.19289559174E+03  0.17200000000E+03 0. -1.
</event>
<event>
 4    1  0.2889985E+000  0.1812714E+03  0.7818608E-02  0.1166578E+00
         21   -1    0    0  503  502  0.00000000000E+00  0.00000000000E+00  0.15369855280E+03  0.15369855280E+03  0.00000000000E+00 0.  1.
         21   -1    0    0  501  503 -0.00000000000E+00 -0.00000000000E+00 -0.24561831930E+03  0.24561831930E+03  0.00000000000E+00 0.  1.
          6    1    1    2  501    0 -0.38717070881E+02  0.42146326843E+02 -0.11783179886E+03  0.21620281512E+03  0.17200000000E+03 0.  1.
         -6    1    1    2    0  502  0.38717070881E+02 -0.42146326843E+02  0.25912032359E+02  0.18311405698E+03  0.17200000000E+03 0.  1.
</event>
<event>
 4    1  0.2889985E+000  0.2931009E+03  0.7818608E-02  0.1088741E+00
         21   -1    0    0  503  502  0.00000000000E+00  0.00000000000E+00  0.91536132186E+02  0.91536132186E+02  0.00000000000E+00 0.  1.
         21   -1    0    0  501  503 -0.00000000000E+00 -0.00000000000E+00 -0.94492331310E+03  0.94492331310E+03  0.00000000000E+00 0. -1.
          6    1    1    2  501    0 -0.55847704916E+02 -0.23066248152E+03 -0.46936666210E+03  0.55336534949E+03  0.17200000000E+03 0. -1.
         -6    1    1    2    0  502  0.55847704916E+02  0.23066248152E+03 -0.38402051882E+03  0.48309409580E+03  0.17200000000E+03 0.  1.
</event>
<event>
 4    1  0.2889985E+000  0.2320586E+03  0.7818608E-02  0.1125199E+00
         21   -1    0    0  503  502  0.00000000000E+00  0.00000000000E+00  0.31647949689E+03  0.31647949689E+03  0.00000000000E+00 0. -1.
         21   -1    0    0  501  503 -0.00000000000E+00 -0.00000000000E+00 -0.39525415652E+03  0.39525415652E+03  0.00000000000E+00 0.  1.
          6    1    1    2  501    0 -0.15272159740E+03 -0.30713382611E+02 -0.30794298260E+03  0.38559055838E+03  0.17200000000E+03 0.  1.
         -6    1    1    2    0  502  0.15272159740E+03  0.30713382611E+02  0.22916832296E+03  0.32614309502E+03  0.17200000000E+03 0. -1.
</event>
<event>
 4    1  0.2889985E+000  0.1722234E+03  0.7818608E-02  0.1175549E+00
         21   -1    0    0  501  502  0.00000000000E+00  0.00000000000E+00  0.46921764202E+03  0.46921764202E+03  0.00000000000E+00 0. -1.
         21   -1    0    0  502  503 -0.00000000000E+00 -0.00000000000E+00 -0.84483865973E+02  0.84483865973E+02  0.00000000000E+00 0. -1.
          6    1    1    2  501    0  0.84810515954E+01  0.22311536108E+01  0.53452914119E+02  0.18032781347E+03  0.17200000000E+03 0.  1.
         -6    1    1    2    0  503 -0.84810515954E+01 -0.22311536108E+01  0.33128086192E+03  0.37337369452E+03  0.17200000000E+03 0.  1.
</event>
<event>
 4    1  0.2889985E+000  0.1979720E+03  0.7818608E-02  0.1151461E+00
         21   -1    0    0  503  502  0.00000000000E+00  0.00000000000E+00  0.30754166560E+02  0.30754166560E+02  0.00000000000E+00 0. -1.
         21   -1    0    0  501  503 -0.00000000000E+00 -0.00000000000E+00 -0.18238209589E+04  0.18238209589E+04  0.00000000000E+00 0. -1.
          6    1    1    2  501    0  0.95830992414E+02  0.20623258434E+02 -0.14054875568E+04  0.14193618884E+04  0.17200000000E+03 0. -1.
         -6    1    1    2    0  502 -0.95830992414E+02 -0.20623258434E+02 -0.38757923551E+03  0.43521323704E+03  0.17200000000E+03 0. -1.
</event>
<event>
 4    1  0.2889985E+000  0.2822851E+03  0.7818608E-02  0.1094447E+00
         21   -1    0    0  503  502  0.00000000000E+00  0.00000000000E+00  0.56216373100E+03  0.56216373100E+03  0.00000000000E+00 0.  1.
         21   -1    0    0  501  503 -0.00000000000E+00 -0.00000000000E+00 -0.23520801944E+03  0.23520801944E+03  0.00000000000E+00 0.  1.
          6    1    1    2  501    0  0.13269637490E+03 -0.18025682402E+03  0.41479421199E+03  0.50173607486E+03  0.17200000000E+03 0.  1.
         -6    1    1    2    0  502 -0.13269637490E+03  0.18025682402E+03 -0.87838500428E+02  0.29563567558E+03  0.17200000000E+03 0.  1.
</event>
<event>
 4    1  0.2889985E+000  0.1736428E+03  0.7818608E-02  0.1174101E+00
         21   -1    0    0  503  502  0.00000000000E+00  0.00000000000E+00  0.58706882200E+03  0.58706882200E+03  0.00000000000E+00 0. -1.
         21   -1    0    0  501  503 -0.00000000000E+00 -0.00000000000E+00 -0.52784560621E+02  0.52784560621E+02  0.00000000000E+00 0. -1.
          6    1    1    2  501    0 -0.74506067301E+01 -0.22634503806E+02  0.21458358964E+03  0.27603976026E+03  0.17200000000E+03 0. -1.
         -6    1    1    2    0  502  0.74506067301E+01  0.22634503806E+02  0.31970067174E+03  0.36381362236E+03  0.17200000000E+03 0. -1.
</event>
<event>
 4    1  0.2889985E+000  0.1810564E+03  0.7818608E-02  0.1166785E+00
         21   -1    0    0  501  502  0.00000000000E+00  0.00000000000E+00  0.16547869387E+04  0.16547869387E+04  0.00000000000E+00 0.  1.
         21   -1    0    0  502  503 -0.00000000000E+00 -0.00000000000E+00 -0.34780374233E+02  0.34780374233E+02  0.00000000000E+00 0. -1.
          6    1    1    2  501    0 -0.19221495567E+02 -0.53178626706E+02  0.13642380981E+04  0.13762002110E+04  0.17200000000E+03 0.  1.
         -6    1    1    2    0  503  0.19221495567E+02  0.53178626706E+02  0.25576846632E+03  0.31336710196E+03  0.17200000000E+03 0. -1.
</event>
<event>
 4    1  0.2889985E+000  0.2206195E+03  0.7818608E-02  0.1133422E+00
         21   -1    0    0  503  502  0.00000000000E+00  0.00000000000E+00  0.39008935963E+02  0.39008935963E+02  0.00000000000E+00 0. -1.
         21   -1    0    0  501  503 -0.00000000000E+00 -0.00000000000E+00 -0.12530823020E+04  0.12530823020E+04  0.00000000000E+00 0. -1.
          6    1    1    2  501    0 -0.11345998841E+03  0.78840301900E+02 -0.56484885348E+03  0.60640513640E+03  0.17200000000E+03 0. -1.
         -6    1    1    2    0  502  0.11345998841E+03 -0.78840301900E+02 -0.64922451254E+03  0.68568610155E+03  0.17200000000E+03 0. -1.
</event>
<event>
 4    1  0.2889985E+000  0.1859921E+03  0.7818608E-02  0.1162127E+00
         21   -1    0    0  503  502  0.00000000000E+00  0.00000000000E+00  0.17054092106E+04  0.17054092106E+04  0.00000000000E+00 0. -1.
         21   -1    0    0  501  503 -0.00000000000E+00 -0.00000000000E+00 -0.20602130908E+02  0.20602130908E+02  0.00000000000E+00 0. -1.
          6    1    1    2  501    0 -0.61426018464E+02 -0.35155375978E+02  0.73521558978E+03  0.75837656851E+03  0.17200000000E+03 0. -1.
         -6    1    1    2    0  502  0.61426018464E+02  0.35155375978E+02  0.94959148986E+03  0.96763477295E+03  0.17200000000E+03 0. -1.
</event>
<event>
 4    1  0.2889985E+000  0.2225611E+03  0.7818608E-02  0.1131988E+00
         21   -1    0    0  501  502  0.00000000000E+00  0.00000000000E+00  0.28753407800E+03  0.28753407800E+03  0.00000000000E+00 0. -1.
         21   -1    0    0  502  503 -0.00000000000E+00 -0.00000000000E+00 -0.38126204190E+03  0.38126204190E+03  0.00000000000E+00 0.  1.
          6    1    1    2  501    0 -0.13992426955E+03 -0.19252115462E+02  0.20071685192E+03  0.29970101736E+03  0.17200000000E+03 0. -1.
         -6    1    1    2    0  503  0.13992426955E+03  0.19252115462E+02 -0.29444481582E+03  0.36909510255E+03  0.17200000000E+03 0.  1.
</event>
<event>
 4    1  0.2889985E+000  0.1775122E+03  0.7818608E-02  0.1170233E+00
         21   -1    0    0  501  502  0.00000000000E+00  0.00000000000E+00  0.11130476459E+03  0.11130476459E+03  0.00000000000E+00 0.  1.
         21   -1    0    0  502  503 -0.00000000000E+00 -0.00000000000E+00 -0.28490022226E+03  0.28490022226E+03  0.00000000000E+00 0.  1.
          6    1    1    2  501    0  0.11242809628E+02 -0.42428341800E+02 -0.10253773288E+03  0.20499890639E+03  0.17200000000E+03 0.  1.
         -6    1    1    2    0  503 -0.11242809628E+02  0.42428341800E+02 -0.71057724790E+02  0.19120608047E+03  0.17200000000E+03 0.  1.
</event>
<event>
 4    1  0.2889985E+000  0.2111453E+03  0.7818608E-02  0.1140662E+00
         21   -1    0    0  503  502  0.00000000000E+00  0.00000000000E+00  0.11378373882E+04  0.11378373882E+04  0.00000000000E+00 0.  1.
         21   -1    0    0  501  503 -0.00000000000E+00 -0.00000000000E+00 -0.39181685506E+02  0.39181685506E+02  0.00000000000E+00 0.  1.
          6    1    1    2  501    0  0.20548847988E+01  0.12245041046E+03  0.55001695624E+03  0.58915276264E+03  0.17200000000E+03 0.  1.
         -6    1    1    2    0  502 -0.20548847988E+01 -0.12245041046E+03  0.54863874642E+03  0.58786631103E+03  0.17200000000E+03 0.  1.
</event>
<event>
 4    1  0.2889985E+000  0.3367823E+03  0.7818608E-02  0.1068175E+00
         21   -1    0    0  501  502  0.00000000000E+00  0.00000000000E+00  0.41524453919E+03  0.41524453919E+03  0.00000000000E+00 0.  1.
         21   -1    0    0  502  503 -0.00000000000E+00 -0.00000000000E+00 -0.27410424066E+03  0.27410424066E+03  0.00000000000E+00 0. -1.
          6    1    1    2  501    0  0.12824325302E+03 -0.25959963259E+03  0.90951554134E+02  0.34884736832E+03  0.17200000000E+03 0. -1.
         -6    1    1    2    0  503 -0.12824325302E+03  0.25959963259E+03  0.50188744392E+02  0.34050141152E+03  0.17200000000E+03 0.  1.
</event>
<event>
 4    1  0.2889985E+000  0.1781086E+03  0.7818608E-02  0.1169646E+00
         21   -1    0    0  503  502  0.00000000000E+00  0.00000000000E+00  0.18035406460E+03  0.18035406460E+03  0.00000000000E+00 0.  1.
         21   -1    0    0  501  503 -0.00000000000E+00 -0.00000000000E+00 -0.18175875194E+03  0.18175875194E+03  0.00000000000E+00 0.  1.
          6    1    1    2  501    0 -0.73495711737E+01 -0.45657883406E+02 -0.33233668567E+02  0.18118260192E+03  0.17200000000E+03 0.  1.
         -6    1    1    2    0  502  0.73495711737E+01  0.45657883406E+02  0.31828981223E+02  0.18093021461E+03  0.17200000000E+03 0.  1.
</event>
<event>
 4    1  0.2889985E+000  0.2172559E+03  0.7818608E-02  0.1135946E+00
         21   -1    0    0  503  502  0.00000000000E+00  0.00000000000E+00  0.11761448321E+03  0.11761448321E+03  0.00000000000E+00 0. -1.
         21   -1    0    0  501  503 -0.00000000000E+00 -0.00000000000E+00 -0.48552733930E+03  0.48552733930E+03  0.00000000000E+00 0. -1.
          6    1    1    2  501    0  0.11401514288E+03 -0.67946132836E+02 -0.30955295454E+03  0.37818403118E+03  0.17200000000E+03 0.  1.
         -6    1    1    2    0  502 -0.11401514288E+03  0.67946132836E+02 -0.58359901539E+02  0.22495779133E+03  0.17200000000E+03 0.  1.
</event>
<event>
 4    1  0.2889985E+000  0.1832749E+03  0.7818608E-02  0.1164671E+00
         21   -1    0    0  501  502  0.00000000000E+00  0.00000000000E+00  0.41154388267E+03  0.41154388267E+03  0.00000000000E+00 0.  1.
         21   -1    0    0  502  503 -0.00000000000E+00 -0.00000000000E+00 -0.10052049030E+03  0.10052049030E+03  0.00000000000E+00 0.  1.
          6    1    1    2  501    0  0.46648919749E+02  0.42773265006E+02  0.44487199257E+02  0.18859688441E+03  0.17200000000E+03 0.  1.
         -6    1    1    2    0  503 -0.46648919749E+02 -0.42773265006E+02  0.26653619311E+03  0.32346748855E+03  0.17200000000E+03 0.  1.
</event>
<event>
 4    1  0.2889985E+000  0.1899649E+03  0.7818608E-02  0.1158493E+00
         21   -1    0    0  503  502  0.00000000000E+00  0.00000000000E+00  0.37949939918E+03  0.37949939918E+03  0.00000000000E+00 0. -1.
         21   -1    0    0  501  503 -0.00000000000E+00 -0.00000000000E+00 -0.13206363839E+03  0.13206363839E+03  0.00000000000E+00 0. -1.
          6    1    1    2  501    0 -0.57329417138E+02  0.56709881863E+02 -0.11620965387E+02  0.19032004520E+03  0.17200000000E+03 0. -1.
         -6    1    1    2    0  502  0.57329417138E+02 -0.56709881863E+02  0.25905672617E+03  0.32124299237E+03  0.17200000000E+03 0. -1.
</event>
<event>
 4    1  0.2889985E+000  0.1766927E+03  0.7818608E-02  0.1171043E+00
         21   -1    0    0  501  502  0.00000000000E+00  0.00000000000E+00  0.15445881999E+04  0.15445881999E+04  0.00000000000E+00 0. -1.
         21   -1    0    0  502  503 -0.00000000000E+00 -0.00000000000E+00 -0.44120916360E+02  0.44120916360E+02  0.00000000000E+00 0. -1.
          6    1    1    2  501    0  0.43292291840E+01 -0.40218890435E+02  0.13349775395E+04  0.13466199658E+04  0.17200000000E+03 0. -1.
         -6    1    1    2    0  503 -0.43292291840E+01  0.40218890435E+02  0.16548974400E+03  0.24208915040E+03  0.17200000000E+03 0. -1.
</event>
<event>
 4    1  0.2889985E+000  0.2595697E+03  0.7818608E-02  0.1107402E+00
         21   -1    0    0  503  502  0.00000000000E+00  0.00000000000E+00  0.11350528321E+04  0.11350528321E+04  0.00000000000E+00 0.  1.
         21   -1    0    0  501  503 -0.00000000000E+00 -0.00000000000E+00 -0.60625343706E+02  0.60625343706E+02  0.00000000000E+00 0. -1.
          6    1    1    2  501    0  0.15461553936E+03 -0.11784092203E+03  0.45083537053E+03  0.52022012575E+03  0.17200000000E+03 0.  1.
         -6    1    1    2    0  502 -0.15461553936E+03  0.11784092203E+03  0.62359211789E+03  0.67545805007E+03  0.17200000000E+03 0. -1.
</event>
<event>
 4    1  0.2889985E+000  0.1922900E+03  0.7818608E-02  0.1156412E+00
         21   -1    0    0  503  502  0.00000000000E+00  0.00000000000E+00  0.29729291349E+03  0.29729291349E+03  0.00000000000E+00 0. -1.
         21   -1    0    0  501  503 -0.00000000000E+00 -0.00000000000E+00 -0.12800956676E+03  0.12800956676E+03  0.00000000000E+00 0. -1.
          6    1    1    2  501    0  0.70247586638E+02  0.49565239017E+02  0.48803379317E+02  0.19838650705E+03  0.17200000000E+03 0. -1.
         -6    1    1    2    0  502 -0.70247586638E+02 -0.49565239017E+02  0.12047996740E+03  0.22691597320E+03  0.17200000000E+03 0. -1.
</event>
<event>
 4    1  0.2889985E+000  0.2060902E+03  0.7818608E-02  0.1144700E+00
         21   -1    0    0  501  502  0.00000000000E+00  0.00000000000E+00  0.30182322837E+04  0.30182322837E+04  0.00000000000E+00 0.  1.
         21   -1    0    0  502  503 -0.00000000000E+00 -0.00000000000E+00 -0.38812698061E+02  0.38812698061E+02  0.00000000000E+00 0. -1.
          6    1    1    2  501    0  0.10547517438E+03  0.42001784292E+02  0.27100731340E+04  0.27178980029E+04  0.17200000000E+03 0.  1.
         -6    1    1    2    0  503 -0.10547517438E+03 -0.42001784292E+02  0.26934645166E+03  0.33914697893E+03  0.17200000000E+03 0. -1.
</event>
<event>
 4    1  0.2889985E+000  0.2083397E+03  0.7818608E-02  0.1142888E+00
         21   -1    0    0  501  502  0.00000000000E+00  0.00000000000E+00  0.10173542849E+03  0.10173542849E+03  0.00000000000E+00 0. -1.
         21   -1    0    0  502  503 -0.00000000000E+00 -0.00000000000E+00 -0.62712916516E+03  0.62712916516E+03  0.00000000000E+00 0. -1.
          6    1    1    2  501    0 -0.11002620596E+03  0.41420774807E+02 -0.46874690898E+03  0.51296112062E+03  0.17200000000E+03 0.  1.
         -6    1    1    2    0  503  0.11002620596E+03 -0.41420774807E+02 -0.56646827686E+02  0.21590347304E+03  0.17200000000E+03 0.  1.
</event>
<event>
 4    1  0.2889985E+000  0.1889111E+03  0.7818608E-02  0.1159447E+00
         21   -1    0    0  503  502  0.00000000000E+00  0.00000000000E+00  0.30596443301E+03  0.30596443301E+03  0.00000000000E+00 0.  1.
         21   -1    0    0  501  503 -0.00000000000E+00 -0.00000000000E+00 -0.12100941826E+03  0.12100941826E+03  0.00000000000E+00 0.  1.
          6    1    1    2  501    0  0.35495786104E+02  0.69595009252E+02  0.51906272978E+02  0.19591242257E+03  0.17200000000E+03 0.  1.
         -6    1    1    2    0  502 -0.35495786104E+02 -0.69595009252E+02  0.13304874178E+03  0.23106142870E+03  0.17200000000E+03 0.  1.
</event>
<event>
 4    1  0.2889985E+000  0.1825493E+03  0.7818608E-02  0.1165358E+00
         21   -1    0    0  501  502  0.00000000000E+00  0.00000000000E+00  0.96444688718E+03  0.96444688718E+03  0.00000000000E+00 0. -1.
         21   -1    0    0  502  503 -0.00000000000E+00 -0.00000000000E+00 -0.44667985548E+02  0.44667985548E+02  0.00000000000E+00 0. -1.
          6    1    1    2  501    0 -0.58398096038E+02 -0.18163210763E+02  0.69999466587E+03  0.72340636719E+03  0.17200000000E+03 0.  1.
         -6    1    1    2    0  503  0.58398096038E+02  0.18163210763E+02  0.21978423576E+03  0.28570850553E+03  0.17200000000E+03 0.  1.
</event>
<event>
 4    1  0.2889985E+000  0.2021258E+03  0.7818608E-02  0.1147958E+00
         21   -1    0    0  501  502  0.00000000000E+00  0.00000000000E+00  0.58168857625E+03  0.58168857625E+03  0.00000000000E+00 0. -1.
         21   -1    0    0  502  503 -0.00000000000E+00 -0.00000000000E+00 -0.10125658752E+03  0.10125658752E+03  0.00000000000E+00 0. -1.
          6    1    1    2  501    0  0.24956219282E+02  0.10318922010E+03  0.42922262323E+03  0.47443322851E+03  0.17200000000E+03 0. -1.
         -6    1    1    2    0  503 -0.24956219282E+02 -0.10318922010E+03  0.51209365499E+02  0.20851193525E+03  0.17200000000E+03 0. -1.
</event>
<event>
 4    1  0.2889985E+000  0.2697156E+03  0.7818608E-02  0.1101442E+00
         21   -1    0    0  503  502  0.00000000000E+00  0.00000000000E+00  0.30478506759E+03  0.30478506759E+03  0.00000000000E+00 0.  1.
         21   -1    0    0  501  503 -0.00000000000E+00 -0.00000000000E+00 -0.34951667064E+03  0.34951667064E+03  0.00000000000E+00 0.  1.
          6    1    1    2  501    0 -0.46830724983E+02  0.20240902289E+03 -0.20659272795E+03  0.33974561748E+03  0.17200000000E+03 0.  1.
         -6    1    1    2    0  502  0.46830724983E+02 -0.20240902289E+03  0.16186112490E+03  0.31455612076E+03  0.17200000000E+03 0.  1.
</event>
<event>
 4    1  0.2889985E+000  0.1823411E+03  0.7818608E-02  0.1165556E+00
         21   -1    0    0  503  502  0.00000000000E+00  0.00000000000E+00  0.40188818195E+03  0.40188818195E+03  0.00000000000E+00 0.  1.
         21   -1    0    0  501  503 -0.00000000000E+00 -0.00000000000E+00 -0.90120833272E+02  0.90120833272E+02  0.00000000000E+00 0.  1.
          6    1    1    2  501    0  0.46871602377E+02 -0.38305700555E+02  0.85435060554E+02  0.20136390783E+03  0.17200000000E+03 0. -1.
         -6    1    1    2    0  502 -0.46871602377E+02  0.38305700555E+02  0.22633228813E+03  0.29064510740E+03  0.17200000000E+03 0. -1.
</event>
<event>
 4    1  0.2889985E+000  0.1920810E+03  0.7818608E-02  0.1156598E+00
         21   -1    0    0  501  502  0.00000000000E+00  0.00000000000E+00  0.14787553366E+03  0.14787553366E+03  0.00000000000E+00 0. -1.
         21   -1    0    0  502  503 -0.00000000000E+00 -0.00000000000E+00 -0.31504024988E+03  0.31504024988E+03  0.00000000000E+00 0. -1.
          6    1    1    2  501    0 -0.77465141538E+02  0.36197604838E+02 -0.18915204393E+03  0.26958043414E+03  0.17200000000E+03 0. -1.
         -6    1    1    2    0  503  0.77465141538E+02 -0.36197604838E+02  0.21987327710E+02  0.19333534940E+03  0.17200000000E+03 0. -1.
</event>
<event>
 4    1  0.2889985E+000  0.1906997E+03  0.7818608E-02  0.1157832E+00
         21   -1    0    0  501  502  0.00000000000E+00  0.00000000000E+00  0.24697071778E+03  0.24697071778E+03  0.00000000000E+00 0. -1.
         21   -1    0    0  502  503 -0.00000000000E+00 -0.00000000000E+00 -0.23537823315E+03  0.23537823315E+03  0.00000000000E+00 0. -1.
          6    1    1    2  501    0 -0.70430973167E+02 -0.42683296710E+02  0.15336901859E+03  0.24472115083E+03  0.17200000000E+03 0. -1.
         -6    1    1    2    0  503  0.70430973167E+02  0.42683296710E+02 -0.14177653396E+03  0.23762780010E+03  0.17200000000E+03 0. -1.
</event>
<event>
 4    1  0.2889985E+000  0.2018627E+03  0.7818608E-02  0.1148177E+00
         21   -1    0    0  503  502  0.00000000000E+00  0.00000000000E+00  0.74075327988E+03  0.74075327988E+03  0.00000000000E+00 0. -1.
         21   -1    0    0  501  503 -0.00000000000E+00 -0.00000000000E+00 -0.57163344766E+02  0.57163344766E+02  0.00000000000E+00 0. -1.
          6    1    1    2  501    0  0.39474864644E+02  0.98011651914E+02  0.41923487691E+03  0.46530251543E+03  0.17200000000E+03 0.  1.
         -6    1    1    2    0  502 -0.39474864644E+02 -0.98011651914E+02  0.26435505820E+03  0.33261410921E+03  0.17200000000E+03 0.  1.
</event>
<event>
 4    1  0.2889985E+000  0.2135979E+03  0.7818608E-02  0.1138748E+00
         21   -1    0    0  503  502  0.00000000000E+00  0.00000000000E+00  0.49572900145E+03  0.49572900145E+03  0.00000000000E+00 0.  1.
         21   -1    0    0  501  503 -0.00000000000E+00 -0.00000000000E+00 -0.18306476513E+03  0.18306476513E+03  0.00000000000E+00 0. -1.
          6    1    1    2  501    0 -0.73125695358E+02  0.10340558905E+03 -0.82998792812E+02  0.22915689555E+03  0.17200000000E+03 0. -1.
         -6    1    1    2    0  502  0.73125695358E+02 -0.10340558905E+03  0.39566302913E+03  0.44963687103E+03  0.17200000000E+03 0.  1.
</event>
<event>
 4    1  0.2889985E+000  0.2004306E+03  0.7818608E-02  0.1149376E+00
         21   -1    0    0  501  502  0.00000000000E+00  0.00000000000E+00  0.13367400952E+04  0.13367400952E+04  0.00000000000E+00 0.  1.
         21   -1    0    0  502  503 -0.00000000000E+00 -0.00000000000E+00 -0.90277636918E+02  0.90277636918E+02  0.00000000000E+00 0.  1.
          6    1    1    2  501    0 -0.87969084476E+02  0.53384070629E+02  0.12060024284E+04  0.12225441817E+04  0.17200000000E+03 0.  1.
         -6    1    1    2    0  503  0.87969084476E+02 -0.53384070629E+02  0.40460029896E+02  0.20447355046E+03  0.17200000000E+03 0.  1.
</event>
<event>
 4    1  0.2889985E+000  0.2067187E+03  0.7818608E-02  0.1144191E+00
         21   -1    0    0  501  502  0.00000000000E+00  0.00000000000E+00  0.75594316382E+02  0.75594316382E+02  0.00000000000E+00 0.  1.
         21   -1    0    0  502  503 -0.00000000000E+00 -0.00000000000E+00 -0.70395813344E+03  0.70395813344E+03  0.00000000000E+00 0. -1.
          6    1    1    2  501    0 -0.71706668685E+02 -0.89480547048E+02 -0.14118742169E+03  0.25033278387E+03  0.17200000000E+03 0.  1.
         -6    1    1    2    0  503  0.71706668685E+02  0.89480547048E+02 -0.48717639537E+03  0.52921966596E+03  0.17200000000E+03 0. -1.
</event>
<event>
 4    1  0.2889985E+000  0.2085333E+03  0.7818608E-02  0.1142733E+00
         21   -1    0    0  501  502  0.00000000000E+00  0.00000000000E+00  0.27168299672E+03  0.27168299672E+03  0.00000000000E+00 0. -1.
         21   -1    0    0  502  503 -0.00000000000E+00 -0.00000000000E+00 -0.18153780426E+03  0.18153780426E+03  0.00000000000E+00 0. -1.
          6    1    1    2  501    0  0.38850532990E+02  0.11132289396E+03  0.12301432240E+03  0.24211293676E+03  0.17200000000E+03 0. -1.
         -6    1    1    2    0  503 -0.38850532990E+02 -0.11132289396E+03 -0.32869129943E+02  0.21110786422E+03  0.17200000000E+03 0. -1.
</event>
<event>
 4    1  0.2889985E+000  0.2519400E+03  0.7818608E-02  0.1112085E+00
         21   -1    0    0  501  502  0.00000000000E+00  0.00000000000E+00  0.10120695423E+03  0.10120695423E+03  0.00000000000E+00 0.  1.
         21   -1    0    0  502  503 -0.00000000000E+00 -0.00000000000E+00 -0.69869761058E+03  0.69869761058E+03  0.00000000000E+00 0. -1.
          6    1    1    2  501    0 -0.16963258654E+03 -0.71516190066E+02 -0.42671468209E+03  0.49553930194E+03  0.17200000000E+03 0. -1.
         -6    1    1    2    0  503  0.16963258654E+03  0.71516190066E+02 -0.17077597425E+03  0.30436526287E+03  0.17200000000E+03 0.  1.
</event>
<event>
 4    1  0.2889985E+000  0.2357183E+03  0.7818608E-02  0.1122678E+00
         21   -1    0    0  501  502  0.00000000000E+00  0.00000000000E+00  0.19962303168E+03  0.19962303168E+03  0.00000000000E+00 0. -1.
         21   -1    0    0  502  503 -0.00000000000E+00 -0.00000000000E+00 -0.34032823459E+03  0.34032823459E+03  0.00000000000E+00 0.  1.
          6    1    1    2  501    0  0.11084949451E+03  0.11701066163E+03  0.44867876533E+02  0.23995047763E+03  0.17200000000E+03 0. -1.
         -6    1    1    2    0  503 -0.11084949451E+03 -0.11701066163E+03 -0.18557307944E+03  0.30000078864E+03  0.17200000000E+03 0.  1.
</event>
<event>
 4    1  0.2889985E+000  0.2339828E+03  0.7818608E-02  0.1123867E+00
         21   -1    0    0  503  502  0.00000000000E+00  0.00000000000E+00  0.14239590647E+04  0.14239590647E+04  0.00000000000E+00 0.  1.
         21   -1    0    0  501  503 -0.00000000000E+00 -0.00000000000E+00 -0.40714909858E+02  0.40714909858E+02  0.00000000000E+00 0.  1.
          6    1    1    2  501    0 -0.98953268524E+02 -0.12398463708E+03  0.51880730882E+03  0.56913000559E+03  0.17200000000E+03 0.  1.
         -6    1    1    2    0  502  0.98953268524E+02  0.12398463708E+03  0.86443684603E+03  0.89554396897E+03  0.17200000000E+03 0.  1.
</event>
<event>
 4    1  0.2889985E+000  0.2302805E+03  0.7818608E-02  0.1126442E+00
         21   -1    0    0  503  502  0.00000000000E+00  0.00000000000E+00  0.46695600105E+03  0.46695600105E+03  0.00000000000E+00 0. -1.
         21   -1    0    0  501  503 -0.00000000000E+00 -0.00000000000E+00 -0.17617038946E+03  0.17617038946E+03  0.00000000000E+00 0. -1.
          6    1    1    2  501    0  0.11218269444E+02  0.15270649582E+03  0.33708798760E+03  0.40823698365E+03  0.17200000000E+03 0. -1.
         -6    1    1    2    0  502 -0.11218269444E+02 -0.15270649582E+03 -0.46302376008E+02  0.23488940687E+03  0.17200000000E+03 0. -1.
</event>
<event>
 4    1  0.2889985E+000  0.2597860E+03  0.7818608E-02  0.1107272E+00
         21   -1    0    0  503  502  0.00000000000E+00  0.00000000000E+00  0.15998852182E+04  0.15998852182E+04  0.00000000000E+00 0.  1.
         21   -1    0    0  501  503 -0.00000000000E+00 -0.00000000000E+00 -0.42256337301E+02  0.42256337301E+02  0.00000000000E+00 0.  1.
          6    1    1    2  501    0 -0.17985923422E+03 -0.74534618194E+02  0.74472496845E+03  0.78873571751E+03  0.17200000000E+03 0. -1.
         -6    1    1    2    0  502  0.17985923422E+03  0.74534618194E+02  0.81290391247E+03  0.85340583801E+03  0.17200000000E+03 0. -1.
</event>
<event>
 4    1  0.2889985E+000  0.2806990E+03  0.7818608E-02  0.1095308E+00
         21   -1    0    0  501  502  0.00000000000E+00  0.00000000000E+00  0.55089288155E+03  0.55089288155E+03  0.00000000000E+00 0. -1.
         21   -1    0    0  502  503 -0.00000000000E+00 -0.00000000000E+00 -0.15699172763E+03  0.15699172763E+03  0.00000000000E+00 0. -1.
          6    1    1    2  501    0 -0.11168663340E+03  0.19166115470E+03  0.30251772290E+03  0.41268495850E+03  0.17200000000E+03 0. -1.
         -6    1    1    2    0  503  0.11168663340E+03 -0.19166115470E+03  0.91383431022E+02  0.29519965069E+03  0.17200000000E+03 0. -1.
</event>
<event>
 4    1  0.2889985E+000  0.2027855E+03  0.7818608E-02  0.1147410E+00
         21   -1    0    0  503  502  0.00000000000E+00  0.00000000000E+00  0.16877318665E+03  0.16877318665E+03  0.00000000000E+00 0. -1.
         21   -1    0    0  501  503 -0.00000000000E+00 -0.00000000000E+00 -0.26917498633E+03  0.26917498633E+03  0.00000000000E+00 0. -1.
          6    1    1    2  501    0  0.79729410723E+02 -0.71980276109E+02 -0.11762891580E+03  0.23443229495E+03  0.17200000000E+03 0. -1.
         -6    1    1    2    0  502 -0.79729410723E+02  0.71980276109E+02  0.17227116113E+02  0.20351587804E+03  0.17200000000E+03 0. -1.
</event>
<event>
 4    1  0.2889985E+000  0.2865257E+03  0.7818608E-02  0.1092177E+00
         21   -1    0    0  501  502  0.00000000000E+00  0.00000000000E+00  0.31181844503E+03  0.31181844503E+03  0.00000000000E+00 0. -1.
         21   -1    0    0  502  503 -0.00000000000E+00 -0.00000000000E+00 -0.28314416621E+03  0.28314416621E+03  0.00000000000E+00 0. -1.
          6    1    1    2  501    0  0.22108341715E+03  0.60291687501E+02  0.93121821830E+02  0.30127834078E+03  0.17200000000E+03 0. -1.
         -6    1    1    2    0  503 -0.22108341715E+03 -0.60291687501E+02 -0.64447543013E+02  0.29368427047E+03  0.17200000000E+03 0. -1.
</event>
<event>
 4    1  0.2889985E+000  0.2330359E+03  0.7818608E-02  0.1124521E+00
         21   -1    0    0  501  502  0.00000000000E+00  0.00000000000E+00  0.10583038510E+04  0.10583038510E+04  0.00000000000E+00 0.  1.
         21   -1    0    0  502  503 -0.00000000000E+00 -0.00000000000E+00 -0.67388703288E+02  0.67388703288E+02  0.00000000000E+00 0.  1.
          6    1    1    2  501    0  0.10557039011E+03  0.11651870611E+03  0.77035384561E+03  0.80482964880E+03  0.17200000000E+03 0.  1.
         -6    1    1    2    0  503 -0.10557039011E+03 -0.11651870611E+03  0.22056130215E+03  0.32086290553E+03  0.17200000000E+03 0.  1.
</event>
<event>
 4    1  0.2889985E+000  0.2214218E+03  0.7818608E-02  0.1132827E+00
         21   -1    0    0  501  502  0.00000000000E+00  0.00000000000E+00  0.48761729810E+03  0.48761729810E+03  0.00000000000E+00 0.  1.
         21   -1    0    0  502  503 -0.00000000000E+00 -0.00000000000E+00 -0.10326840216E+03  0.10326840216E+03  0.00000000000E+00 0. -1.
          6    1    1    2  501    0 -0.13103447527E+03  0.47681924239E+02  0.14419819918E+03  0.26423610702E+03  0.17200000000E+03 0. -1.
         -6    1    1    2    0  503  0.13103447527E+03 -0.47681924239E+02  0.24015069676E+03  0.32664959324E+03  0.17200000000E+03 0.  1.
</event>
<event>
 4    1  0.2889985E+000  0.2143113E+03  0.7818608E-02  0.1138197E+00
         21   -1    0    0  501  502  0.00000000000E+00  0.00000000000E+00  0.11421804149E+03  0.11421804149E+03  0.00000000000E+00 0.  1.
         21   -1    0    0  502  503 -0.00000000000E+00 -0.00000000000E+00 -0.41077054915E+03  0.41077054915E+03  0.00000000000E+00 0. -1.
          6    1    1    2  501    0  0.12414452574E+03 -0.30552733693E+02 -0.11018302542E+03  0.24097641357E+03  0.17200000000E+03 0. -1.
         -6    1    1    2    0  503 -0.12414452574E+03  0.30552733693E+02 -0.18636948225E+03  0.28401217706E+03  0.17200000000E+03 0. -1.
</event>
<event>
 4    1  0.2889985E+000  0.1923514E+03  0.7818608E-02  0.1156358E+00
         21   -1    0    0  503  502  0.00000000000E+00  0.00000000000E+00  0.25725923843E+02  0.25725923843E+02  0.00000000000E+00 0. -1.
         21   -1    0    0  501  503 -0.00000000000E+00 -0.00000000000E+00 -0.16045340779E+04  0.16045340779E+04  0.00000000000E+00 0. -1.
          6    1    1    2  501    0  0.25986025328E+02  0.82096099616E+02 -0.10518513336E+04  0.10692942865E+04  0.17200000000E+03 0. -1.
         -6    1    1    2    0  502 -0.25986025328E+02 -0.82096099616E+02 -0.52695682047E+03  0.56096571529E+03  0.17200000000E+03 0. -1.
</event>
<event>
 4    1  0.2889985E+000  0.1723678E+03  0.7818608E-02  0.1175401E+00
         21   -1    0    0  503  502  0.00000000000E+00  0.00000000000E+00  0.39854158518E+02  0.39854158518E+02  0.00000000000E+00 0. -1.
         21   -1    0    0  501  503 -0.00000000000E+00 -0.00000000000E+00 -0.76743489358E+03  0.76743489358E+03  0.00000000000E+00 0. -1.
          6    1    1    2  501    0 -0.82238046241E+01 -0.76827782120E+01 -0.43205563526E+03  0.46516956909E+03  0.17200000000E+03 0. -1.
         -6    1    1    2    0  502  0.82238046241E+01  0.76827782120E+01 -0.29552509980E+03  0.34211948301E+03  0.17200000000E+03 0. -1.
</event>
<event>
 4    1  0.2889985E+000  0.1722750E+03  0.7818608E-02  0.1175496E+00
         21   -1    0    0  501  502  0.00000000000E+00  0.00000000000E+00  0.49479808024E+03  0.49479808024E+03  0.00000000000E+00 0. -1.
         21   -1    0    0  502  503 -0.00000000000E+00 -0.00000000000E+00 -0.89229616910E+02  0.89229616910E+02  0.00000000000E+00 0. -1.
          6    1    1    2  501    0 -0.60533149591E+01 -0.76169131290E+01  0.36996986516E+03  0.40811317195E+03  0.17200000000E+03 0. -1.
         -6    1    1    2    0  503  0.60533149591E+01  0.76169131290E+01  0.35598598172E+02  0.17591452521E+03  0.17200000000E+03 0. -1.
</event>
<event>
 4    1  0.2889985E+000  0.1892020E+03  0.7818608E-02  0.1159183E+00
         21   -1    0    0  503  502  0.00000000000E+00  0.00000000000E+00  0.24310363833E+03  0.24310363833E+03  0.00000000000E+00 0. -1.
         21   -1    0    0  501  503 -0.00000000000E+00 -0.00000000000E+00 -0.26382822835E+03  0.26382822835E+03  0.00000000000E+00 0. -1.
          6    1    1    2  501    0  0.38463630330E+02  0.68803646467E+02 -0.17884866202E+03  0.26035405995E+03  0.17200000000E+03 0. -1.
         -6    1    1    2    0  502 -0.38463630330E+02 -0.68803646467E+02  0.15812407201E+03  0.24657780673E+03  0.17200000000E+03 0. -1.
</event>
<event>
 4    1  0.2889985E+000  0.1818235E+03  0.7818608E-02  0.1166050E+00
         21   -1    0    0  503  502  0.00000000000E+00  0.00000000000E+00  0.13835869223E+03  0.13835869223E+03  0.00000000000E+00 0. -1.
         21   -1    0    0  501  503 -0.00000000000E+00 -0.00000000000E+00 -0.71994905435E+03  0.71994905435E+03  0.00000000000E+00 0.  1.
          6    1    1    2  501    0  0.29786052813E+02  0.50878008634E+02 -0.64157744113E+03  0.66684435491E+03  0.17200000000E+03 0.  1.
         -6    1    1    2    0  502 -0.29786052813E+02 -0.50878008634E+02  0.59987079007E+02  0.19146339168E+03  0.17200000000E+03 0. -1.
</event>
<event>
 4    1  0.2889985E+000  0.1928057E+03  0.7818608E-02  0.1155955E+00
         21   -1    0    0  503  502  0.00000000000E+00  0.00000000000E+00  0.30323415842E+03  0.30323415842E+03  0.00000000000E+00 0. -1.
         21   -1    0    0  501  503 -0.00000000000E+00 -0.00000000000E+00 -0.13064013682E+03  0.13064013682E+03  0.00000000000E+00 0. -1.
          6    1    1    2  501    0  0.84371662361E+02  0.21713332237E+02  0.32451876052E+02  0.19551769860E+03  0.17200000000E+03 0. -1.
         -6    1    1    2    0  502 -0.84371662361E+02 -0.21713332237E+02  0.14014214555E+03  0.23835659665E+03  0.17200000000E+03 0. -1.
</event>
<event>
 4    1  0.2889985E+000  0.1734434E+03  0.7818608E-02  0.1174304E+00
         21   -1    0    0  503  502  0.00000000000E+00  0.00000000000E+00  0.70078683178E+02  0.70078683178E+02  0.00000000000E+00 0. -1.
         21   -1    0    0  501  503 -0.00000000000E+00 -0.00000000000E+00 -0.42930383799E+03  0.42930383799E+03  0.00000000000E+00 0. -1.
          6    1    1    2  501    0  0.19245362673E+02  0.11323996128E+02 -0.17736817614E+03  0.24807677598E+03  0.17200000000E+03 0. -1.
         -6    1    1    2    0  502 -0.19245362673E+02 -0.11323996128E+02 -0.18185697867E+03  0.25130574519E+03  0.17200000000E+03 0. -1.
</event>
<event>
 4    1  0.2889985E+000  0.2657432E+03  0.7818608E-02  0.1103741E+00
         21   -1    0    0  503  502  0.00000000000E+00  0.00000000000E+00  0.38103868026E+02  0.38103868026E+02  0.00000000000E+00 0. -1.
         21   -1    0    0  501  503 -0.00000000000E+00 -0.00000000000E+00 -0.21538953105E+04  0.21538953105E+04  0.00000000000E+00 0.  1.
          6    1    1    2  501    0  0.19382571080E+03 -0.58881610213E+02 -0.14673069777E+04  0.14911771246E+04  0.17200000000E+03 0.  1.
         -6    1    1    2    0  502 -0.19382571080E+03  0.58881610213E+02 -0.64848446484E+03  0.70082205396E+03  0.17200000000E+03 0. -1.
</event>
<event>
 4    1  0.2889985E+000  0.1926371E+03  0.7818608E-02  0.1156104E+00
         21   -1    0    0  501  502  0.00000000000E+00  0.00000000000E+00  0.66173637638E+03  0.66173637638E+03  0.00000000000E+00 0. -1.
         21   -1    0    0  502  503 -0.00000000000E+00 -0.00000000000E+00 -0.73549814992E+02  0.73549814992E+02  0.00000000000E+00 0. -1.
          6    1    1    2  501    0  0.86728174243E+02 -0.18073774594E+01  0.47327803640E+03  0.51098056965E+03  0.17200000000E+03 0. -1.
         -6    1    1    2    0  503 -0.86728174243E+02  0.18073774594E+01  0.11490852499E+03  0.22430562172E+03  0.17200000000E+03 0. -1.
</event>
<event>
 4    1  0.2889985E+000  0.1938207E+03  0.7818608E-02  0.1155060E+00
         21   -1    0    0  501  502  0.00000000000E+00  0.00000000000E+00  0.81256593145E+02  0.81256593145E+02  0.00000000000E+00 0. -1.
         21   -1    0    0  502  503 -0.00000000000E+00 -0.00000000000E+00 -0.47403857004E+03  0.47403857004E+03  0.00000000000E+00 0. -1.
          6    1    1    2  501    0  0.43366143066E+02 -0.78114339987E+02 -0.15273522173E+03  0.24676815117E+03  0.17200000000E+03 0. -1.
         -6    1    1    2    0  503 -0.43366143066E+02  0.78114339987E+02 -0.24004675516E+03  0.30852701201E+03  0.17200000000E+03 0. -1.
</event>
<event>
 4    1  0.2889985E+000  0.1834000E+03  0.7818608E-02  0.1164553E+00
         21   -1    0    0  503  502  0.00000000000E+00  0.00000000000E+00  0.13617989783E+03  0.13617989783E+03  0.00000000000E+00 0.  1.
         21   -1    0    0  501  503 -0.00000000000E+00 -0.00000000000E+00 -0.27270342396E+03  0.27270342396E+03  0.00000000000E+00 0.  1.
          6    1    1    2  501    0 -0.58455088777E+02 -0.25190337198E+02 -0.13103498867E+03  0.22540123946E+03  0.17200000000E+03 0.  1.
         -6    1    1    2    0  502  0.58455088777E+02  0.25190337198E+02 -0.54885374552E+01  0.18348208233E+03  0.17200000000E+03 0.  1.
</event>
<event>
 4    1  0.2889985E+000  0.1958539E+03  0.7818608E-02  0.1153285E+00
         21   -1    0    0  501  502  0.00000000000E+00  0.00000000000E+00  0.30186666612E+03  0.30186666612E+03  0.00000000000E+00 0.  1.
         21   -1    0    0  502  503 -0.00000000000E+00 -0.00000000000E+00 -0.24548039760E+03  0.24548039760E+03  0.00000000000E+00 0.  1.
          6    1    1    2  501    0  0.20006273449E+02  0.91512261356E+02  0.21826418711E+03  0.29325415654E+03  0.17200000000E+03 0.  1.
         -6    1    1    2    0  503 -0.20006273449E+02 -0.91512261356E+02 -0.16187791859E+03  0.25409290719E+03  0.17200000000E+03 0.  1.
</event>
<event>
 4    1  0.2889985E+000  0.1835446E+03  0.7818608E-02  0.1164416E+00
         21   -1    0    0  503  502  0.00000000000E+00  0.00000000000E+00  0.67988462144E+03  0.67988462144E+03  0.00000000000E+00 0.  1.
         21   -1    0    0  501  503 -0.00000000000E+00 -0.00000000000E+00 -0.52737590881E+02  0.52737590881E+02  0.00000000000E+00 0. -1.
          6    1    1    2  501    0 -0.74227406848E+01  0.63635832105E+02  0.22352266023E+03  0.28922481886E+03  0.17200000000E+03 0. -1.
         -6    1    1    2    0  502  0.74227406848E+01 -0.63635832105E+02  0.40362437033E+03  0.44339739346E+03  0.17200000000E+03 0.  1.
</event>
<event>
 4    1  0.2889985E+000  0.2224795E+03  0.7818608E-02  0.1132048E+00
         21   -1    0    0  501  502  0.00000000000E+00  0.00000000000E+00  0.56179554574E+03  0.56179554574E+03  0.00000000000E+00 0.  1.
         21   -1    0    0  502  503 -0.00000000000E+00 -0.00000000000E+00 -0.12545236682E+03  0.12545236682E+03  0.00000000000E+00 0.  1.
          6    1    1    2  501    0  0.11894849561E+03  0.75923562678E+02  0.40565920950E+03  0.46266243227E+03  0.17200000000E+03 0.  1.
         -6    1    1    2    0  503 -0.11894849561E+03 -0.75923562678E+02  0.30683969415E+02  0.22458548029E+03  0.17200000000E+03 0.  1.
</event>
<event>
 4    1  0.2889985E+000  0.1905148E+03  0.7818608E-02  0.1157998E+00
         21   -1    0    0  501  502  0.00000000000E+00  0.00000000000E+00  0.10370006024E+04  0.10370006024E+04  0.00000000000E+00 0. -1.
         21   -1    0    0  502  503 -0.00000000000E+00 -0.00000000000E+00 -0.46532309109E+02  0.46532309109E+02  0.00000000000E+00 0.  1.
          6    1    1    2  501    0  0.75005636123E+02  0.32955299728E+02  0.76493171912E+03  0.78829970959E+03  0.17200000000E+03 0. -1.
         -6    1    1    2    0  503 -0.75005636123E+02 -0.32955299728E+02  0.22553657421E+03  0.29523320196E+03  0.17200000000E+03 0.  1.
</event>
<event>
 4    1  0.2889985E+000  0.1726875E+03  0.7818608E-02  0.1175074E+00
         21   -1    0    0  503  502  0.00000000000E+00  0.00000000000E+00  0.71008971463E+03  0.71008971463E+03  0.00000000000E+00 0. -1.
         21   -1    0    0  501  503 -0.00000000000E+00 -0.00000000000E+00 -0.10015520052E+03  0.10015520052E+03  0.00000000000E+00 0. -1.
          6    1    1    2  501    0  0.13695892970E+02  0.70290866164E+01 -0.37482718259E+01  0.17272821161E+03  0.17200000000E+03 0. -1.
         -6    1    1    2    0  502 -0.13695892970E+02 -0.70290866164E+01  0.61368278594E+03  0.63751670354E+03  0.17200000000E+03 0. -1.
</event>
<event>
 4    1  0.2889985E+000  0.2106959E+03  0.7818608E-02  0.1141016E+00
         21   -1    0    0  501  502  0.00000000000E+00  0.00000000000E+00  0.17127022082E+03  0.17127022082E+03  0.00000000000E+00 0. -1.
         21   -1    0    0  502  503 -0.00000000000E+00 -0.00000000000E+00 -0.31412292743E+03  0.31412292743E+03  0.00000000000E+00 0. -1.
          6    1    1    2  501    0 -0.98812117906E+02  0.71027530854E+02  0.30058709905E+02  0.21282920576E+03  0.17200000000E+03 0. -1.
         -6    1    1    2    0  503  0.98812117906E+02 -0.71027530854E+02 -0.17291141652E+03  0.27256394249E+03  0.17200000000E+03 0. -1.
</event>
<event>
 4    1  0.2889985E+000  0.1921725E+03  0.7818608E-02  0.1156516E+00
         21   -1    0    0  501  502  0.00000000000E+00  0.00000000000E+00  0.50960093593E+02  0.50960093593E+02  0.00000000000E+00 0. -1.
         21   -1    0    0  502  503 -0.00000000000E+00 -0.00000000000E+00 -0.98712443623E+03  0.98712443623E+03  0.00000000000E+00 0.  1.
          6    1    1    2  501    0  0.75234823044E+02  0.41060729642E+02 -0.20045678056E+03  0.27769260522E+03  0.17200000000E+03 0. -1.
         -6    1    1    2    0  503 -0.75234823044E+02 -0.41060729642E+02 -0.73570756207E+03  0.76039192461E+03  0.17200000000E+03 0.  1.
</event>
<event>
 4    1  0.2889985E+000  0.1721488E+03  0.7818608E-02  0.1175625E+00
         21   -1    0    0  501  502  0.00000000000E+00  0.00000000000E+00  0.34419285591E+03  0.34419285591E+03  0.00000000000E+00 0.  1.
         21   -1    0    0  502  503 -0.00000000000E+00 -0.00000000000E+00 -0.21626421791E+03  0.21626421791E+03  0.00000000000E+00 0.  1.
          6    1    1    2  501    0  0.60669463366E+01  0.37944831526E+01  0.28136698074E+03  0.32985236666E+03  0.17200000000E+03 0.  1.
         -6    1    1    2    0  503 -0.60669463366E+01 -0.37944831526E+01 -0.15343834275E+03  0.23060470716E+03  0.17200000000E+03 0.  1.
</event>
<event>
 4    1  0.2889985E+000  0.1721803E+03  0.7818608E-02  0.1175593E+00
         21   -1    0    0  503  502  0.00000000000E+00  0.00000000000E+00  0.54388404997E+02  0.54388404997E+02  0.00000000000E+00 0. -1.
         21   -1    0    0  501  503 -0.00000000000E+00 -0.00000000000E+00 -0.55530184950E+03  0.55530184950E+03  0.00000000000E+00 0. -1.
          6    1    1    2  501    0 -0.54681689502E+01 -0.56704479302E+01 -0.29181576068E+03  0.33882516588E+03  0.17200000000E+03 0. -1.
         -6    1    1    2    0  502  0.54681689502E+01  0.56704479302E+01 -0.20909768382E+03  0.27086508862E+03  0.17200000000E+03 0. -1.
</event>
<event>
 4    1  0.2889985E+000  0.2216994E+03  0.7818608E-02  0.1132622E+00
         21   -1    0    0  501  502  0.00000000000E+00  0.00000000000E+00  0.11192773705E+03  0.11192773705E+03  0.00000000000E+00 0.  1.
         21   -1    0    0  502  503 -0.00000000000E+00 -0.00000000000E+00 -0.80372324241E+03  0.80372324241E+03  0.00000000000E+00 0. -1.
          6    1    1    2  501    0 -0.77525671791E+00  0.13987857907E+03 -0.37541949740E+02  0.22485554451E+03  0.17200000000E+03 0.  1.
         -6    1    1    2    0  503  0.77525671791E+00 -0.13987857907E+03 -0.65425355563E+03  0.69079543495E+03  0.17200000000E+03 0. -1.
</event>
<event>
 4    1  0.2889985E+000  0.1727934E+03  0.7818608E-02  0.1174966E+00
         21   -1    0    0  501  502  0.00000000000E+00  0.00000000000E+00  0.11169350938E+03  0.11169350938E+03  0.00000000000E+00 0.  1.
         21   -1    0    0  502  503 -0.00000000000E+00 -0.00000000000E+00 -0.57990851971E+03  0.57990851971E+03  0.00000000000E+00 0.  1.
          6    1    1    2  501    0 -0.13522198740E+02  0.95242144992E+01  0.19776416046E+02  0.17392143960E+03  0.17200000000E+03 0.  1.
         -6    1    1    2    0  503  0.13522198740E+02 -0.95242144992E+01 -0.48799142637E+03  0.51768058949E+03  0.17200000000E+03 0.  1.
</event>
<event>
 4    1  0.2889985E+000  0.1818145E+03  0.7818608E-02  0.1166058E+00
         21   -1    0    0  501  502  0.00000000000E+00  0.00000000000E+00  0.18782630939E+03  0.18782630939E+03  0.00000000000E+00 0. -1.
         21   -1    0    0  502  503 -0.00000000000E+00 -0.00000000000E+00 -0.22567360463E+03  0.22567360463E+03  0.00000000000E+00 0. -1.
          6    1    1    2  501    0  0.80167014174E+01  0.58380090363E+02  0.78080316079E+02  0.19787126677E+03  0.17200000000E+03 0. -1.
         -6    1    1    2    0  503 -0.80167014174E+01 -0.58380090363E+02 -0.11592761132E+03  0.21562864726E+03  0.17200000000E+03 0. -1.
</event>
<event>
 4    1  0.2889985E+000  0.2266552E+03  0.7818608E-02  0.1129016E+00
         21   -1    0    0  503  502  0.00000000000E+00  0.00000000000E+00  0.74270210139E+02  0.74270210139E+02  0.00000000000E+00 0.  1.
         21   -1    0    0  501  503 -0.00000000000E+00 -0.00000000000E+00 -0.10918586421E+04  0.10918586421E+04  0.00000000000E+00 0.  1.
          6    1    1    2  501    0  0.10611832107E+03  0.10260342234E+03 -0.86177453367E+03  0.89108243570E+03  0.17200000000E+03 0.  1.
         -6    1    1    2    0  502 -0.10611832107E+03 -0.10260342234E+03 -0.15581389827E+03  0.27504641652E+03  0.17200000000E+03 0.  1.
</event>
<event>
 4    1  0.2889985E+000  0.1899431E+03  0.7818608E-02  0.1158513E+00
         21   -1    0    0  501  502  0.00000000000E+00  0.00000000000E+00  0.38861668467E+03  0.38861668467E+03  0.00000000000E+00 0.  1.
         21   -1    0    0  502  503 -0.00000000000E+00 -0.00000000000E+00 -0.94568652188E+02  0.94568652188E+02  0.00000000000E+00 0.  1.
          6    1    1    2  501    0  0.15151035283E+02 -0.79150663569E+02  0.17970684845E+03  0.26148218447E+03  0.17200000000E+03 0.  1.
         -6    1    1    2    0  503 -0.15151035283E+02  0.79150663569E+02  0.11434118403E+03  0.22170315239E+03  0.17200000000E+03 0.  1.
</event>
<event>
 4    1  0.2889985E+000  0.2190616E+03  0.7818608E-02  0.1134585E+00
         21   -1    0    0  501  502  0.00000000000E+00  0.00000000000E+00  0.24537924305E+03  0.24537924305E+03  0.00000000000E+00 0. -1.
         21   -1    0    0  502  503 -0.00000000000E+00 -0.00000000000E+00 -0.30297851242E+03  0.30297851242E+03  0.00000000000E+00 0. -1.
          6    1    1    2  501    0  0.96118251583E+02 -0.95735378458E+02  0.13445079449E+03  0.25703112091E+03  0.17200000000E+03 0. -1.
         -6    1    1    2    0  503 -0.96118251583E+02  0.95735378458E+02 -0.19205006386E+03  0.29132663456E+03  0.17200000000E+03 0. -1.
</event>
<event>
 4    1  0.2889985E+000  0.1830823E+03  0.7818608E-02  0.1164853E+00
         21   -1    0    0  501  502  0.00000000000E+00  0.00000000000E+00  0.15391996586E+04  0.15391996586E+04  0.00000000000E+00 0. -1.
         21   -1    0    0  502  503 -0.00000000000E+00 -0.00000000000E+00 -0.82238517010E+02  0.82238517010E+02  0.00000000000E+00 0. -1.
          6    1    1    2  501    0  0.25069753414E+02 -0.57503486811E+02  0.14236206041E+04  0.14353448254E+04  0.17200000000E+03 0. -1.
         -6    1    1    2    0  503 -0.25069753414E+02  0.57503486811E+02  0.33340537485E+02  0.18609335015E+03  0.17200000000E+03 0. -1.
</event>
<event>
 4    1  0.2889985E+000  0.1771663E+03  0.7818608E-02  0.1170574E+00
         21   -1    0    0  503  502  0.00000000000E+00  0.00000000000E+00  0.85027278641E+02  0.85027278641E+02  0.00000000000E+00 0. -1.
         21   -1    0    0  501  503 -0.00000000000E+00 -0.00000000000E+00 -0.40456715354E+03  0.40456715354E+03  0.00000000000E+00 0.  1.
          6    1    1    2  501    0 -0.19357178448E+02  0.37804563813E+02 -0.23219906754E+03  0.29206898564E+03  0.17200000000E+03 0. -1.
         -6    1    1    2    0  502  0.19357178448E+02 -0.37804563813E+02 -0.87340807352E+02  0.19752544654E+03  0.17200000000E+03 0. -1.
</event>
<event>
 4    1  0.2889985E+000  0.2016570E+03  0.7818608E-02  0.1148348E+00
         21   -1    0    0  503  502  0.00000000000E+00  0.00000000000E+00  0.76683719500E+02  0.76683719500E+02  0.00000000000E+00 0.  1.
         21   -1    0    0  501  503 -0.00000000000E+00 -0.00000000000E+00 -0.57442786455E+03  0.57442786455E+03  0.00000000000E+00 0. -1.
          6    1    1    2  501    0  0.49969299290E+02 -0.92653194122E+02 -0.15864158575E+03  0.25657883385E+03  0.17200000000E+03 0.  1.
         -6    1    1    2    0  502 -0.49969299290E+02  0.92653194122E+02 -0.33910255931E+03  0.39453275020E+03  0.17200000000E+03 0. -1.
</event>
<event>
 4    1  0.2889985E+000  0.1720204E+03  0.7818608E-02  0.1175757E+00
         21   -1    0    0  503  502  0.00000000000E+00  0.00000000000E+00  0.19781507951E+03  0.19781507951E+03  0.00000000000E+00 0. -1.
         21   -1    0    0  501  503 -0.00000000000E+00 -0.00000000000E+00 -0.28507431386E+03  0.28507431386E+03  0.00000000000E+00 0. -1.
          6    1    1    2  501    0 -0.26079278048E+01 -0.45370513774E+00 -0.21007983013E+03  0.27152263656E+03  0.17200000000E+03 0. -1.
         -6    1    1    2    0  502  0.26079278048E+01  0.45370513774E+00  0.12282059579E+03  0.21136675681E+03  0.17200000000E+03 0. -1.
</event>
<event>
 4    1  0.2889985E+000  0.2117865E+03  0.7818608E-02  0.1140159E+00
         21   -1    0    0  503  502  0.00000000000E+00  0.00000000000E+00  0.67079728927E+03  0.67079728927E+03  0.00000000000E+00 0.  1.
         21   -1    0    0  501  503 -0.00000000000E+00 -0.00000000000E+00 -0.10634097283E+03  0.10634097283E+03  0.00000000000E+00 0.  1.
          6    1    1    2  501    0  0.44969598798E+02  0.11509677614E+03  0.45484206749E+02  0.21661566369E+03  0.17200000000E+03 0.  1.
         -6    1    1    2    0  502 -0.44969598798E+02 -0.11509677614E+03  0.51897210968E+03  0.56052259841E+03  0.17200000000E+03 0.  1.
</event>
<event>
 4    1  0.2889985E+000  0.1851682E+03  0.7818608E-02  0.1162893E+00
         21   -1    0    0  503  502  0.00000000000E+00  0.00000000000E+00  0.48277133448E+02  0.48277133448E+02  0.00000000000E+00 0. -1.
         21   -1    0    0  501  503 -0.00000000000E+00 -0.00000000000E+00 -0.72869175804E+03  0.72869175804E+03  0.00000000000E+00 0. -1.
          6    1    1    2  501    0 -0.18895468646E+00  0.68580011067E+02 -0.40206418865E+03  0.44265434079E+03  0.17200000000E+03 0. -1.
         -6    1    1    2    0  502  0.18895468646E+00 -0.68580011067E+02 -0.27835043594E+03  0.33431455070E+03  0.17200000000E+03 0. -1.
</event>
<event>
 4    1  0.2889985E+000  0.2415900E+03  0.7818608E-02  0.1118738E+00
         21   -1    0    0  503  502  0.00000000000E+00  0.00000000000E+00  0.15007982009E+04  0.15007982009E+04  0.00000000000E+00 0.  1.
         21   -1    0    0  501  503 -0.00000000000E+00 -0.00000000000E+00 -0.85022532582E+02  0.85022532582E+02  0.00000000000E+00 0. -1.
          6    1    1    2  501    0  0.19479300447E+02 -0.16852977782E+03  0.12382212780E+03  0.27147310823E+03  0.17200000000E+03 0. -1.
         -6    1    1    2    0  502 -0.19479300447E+02  0.16852977782E+03  0.12919535405E+04  0.13143476253E+04  0.17200000000E+03 0.  1.
</event>
<event>
 4    1  0.2889985E+000  0.2031380E+03  0.7818608E-02  0.1147118E+00
         21   -1    0    0  503  502  0.00000000000E+00  0.00000000000E+00  0.55203697849E+03  0.55203697849E+03  0.00000000000E+00 0. -1.
         21   -1    0    0  501  503 -0.00000000000E+00 -0.00000000000E+00 -0.94835617761E+02  0.94835617761E+02  0.00000000000E+00 0. -1.
          6    1    1    2  501    0 -0.87498555051E+02  0.63443157597E+02  0.79753578878E+02  0.21823305141E+03  0.17200000000E+03 0. -1.
         -6    1    1    2    0  502  0.87498555051E+02 -0.63443157597E+02  0.37744778185E+03  0.42863954485E+03  0.17200000000E+03 0. -1.
</event>
<event>
 4    1  0.2889985E+000  0.1778319E+03  0.7818608E-02  0.1169918E+00
         21   -1    0    0  503  502  0.00000000000E+00  0.00000000000E+00  0.78221837719E+02  0.78221837719E+02  0.00000000000E+00 0.  1.
         21   -1    0    0  501  503 -0.00000000000E+00 -0.00000000000E+00 -0.41763557697E+03  0.41763557697E+03  0.00000000000E+00 0.  1.
          6    1    1    2  501    0  0.96960958758E-01 -0.45168194824E+02 -0.21402935557E+03  0.27826738988E+03  0.17200000000E+03 0.  1.
         -6    1    1    2    0  502 -0.96960958758E-01  0.45168194824E+02 -0.12538438368E+03  0.21759002481E+03  0.17200000000E+03 0.  1.
</event>
<event>
 4    1  0.2889985E+000  0.1854551E+03  0.7818608E-02  0.1162626E+00
         21   -1    0    0  503  502  0.00000000000E+00  0.00000000000E+00  0.41184306207E+03  0.41184306207E+03  0.00000000000E+00 0.  1.
         21   -1    0    0  501  503 -0.00000000000E+00 -0.00000000000E+00 -0.12332177870E+03  0.12332177870E+03  0.00000000000E+00 0.  1.
          6    1    1    2  501    0  0.68586575368E+02  0.10270081497E+02  0.29629292325E+03  0.34954697719E+03  0.17200000000E+03 0.  1.
         -6    1    1    2    0  502 -0.68586575368E+02 -0.10270081497E+02 -0.77716398857E+01  0.18561786358E+03  0.17200000000E+03 0.  1.
</event>
<event>
 4    1  0.2889985E+000  0.2157056E+03  0.7818608E-02  0.1137126E+00
         21   -1    0    0  503  502  0.00000000000E+00  0.00000000000E+00  0.50841234893E+02  0.50841234893E+02  0.00000000000E+00 0.  1.
         21   -1    0    0  501  503 -0.00000000000E+00 -0.00000000000E+00 -0.93729318533E+03  0.93729318533E+03  0.00000000000E+00 0.  1.
          6    1    1    2  501    0  0.12006384124E+03  0.50294725301E+02 -0.51911398780E+03  0.56214608217E+03  0.17200000000E+03 0.  1.
         -6    1    1    2    0  502 -0.12006384124E+03 -0.50294725301E+02 -0.36733796263E+03  0.42598833805E+03  0.17200000000E+03 0.  1.
</event>
<event>
 4    1  0.2889985E+000  0.2221415E+03  0.7818608E-02  0.1132297E+00
         21   -1    0    0  501  502  0.00000000000E+00  0.00000000000E+00  0.77080740874E+03  0.77080740874E+03  0.00000000000E+00 0.  1.
         21   -1    0    0  502  503 -0.00000000000E+00 -0.00000000000E+00 -0.72953157735E+02  0.72953157735E+02  0.00000000000E+00 0. -1.
          6    1    1    2  501    0 -0.44571829753E+01  0.14050966648E+03  0.20129604391E+03  0.29977813488E+03  0.17200000000E+03 0. -1.
         -6    1    1    2    0  503  0.44571829753E+01 -0.14050966648E+03  0.49655820709E+03  0.54398243160E+03  0.17200000000E+03 0.  1.
</event>
<event>
 4    1  0.2889985E+000  0.1737557E+03  0.7818608E-02  0.1173987E+00
         21   -1    0    0  503  502  0.00000000000E+00  0.00000000000E+00  0.78390427616E+03  0.78390427616E+03  0.00000000000E+00 0. -1.
         21   -1    0    0  501  503 -0.00000000000E+00 -0.00000000000E+00 -0.10670112294E+03  0.10670112294E+03  0.00000000000E+00 0. -1.
          6    1    1    2  501    0 -0.21384512605E+02 -0.12237334292E+02 -0.17376284556E+02  0.17462240691E+03  0.17200000000E+03 0. -1.
         -6    1    1    2    0  502  0.21384512605E+02  0.12237334292E+02  0.69457943778E+03  0.71598299220E+03  0.17200000000E+03 0. -1.
</event>
<event>
 4    1  0.2889985E+000  0.1727277E+03  0.7818608E-02  0.1175033E+00
         21   -1    0    0  503  502  0.00000000000E+00  0.00000000000E+00  0.50527575139E+03  0.50527575139E+03  0.00000000000E+00 0.  1.
         21   -1    0    0  501  503 -0.00000000000E+00 -0.00000000000E+00 -0.96967426490E+02  0.96967426490E+02  0.00000000000E+00 0.  1.
          6    1    1    2  501    0  0.73800771477E-01  0.15838603062E+02  0.15846812830E+02  0.17345312990E+03  0.17200000000E+03 0.  1.
         -6    1    1    2    0  502 -0.73800771477E-01 -0.15838603062E+02  0.39246151207E+03  0.42879004798E+03  0.17200000000E+03 0.  1.
</event>
<event>
 4    1  0.2889985E+000  0.4934703E+03  0.7818608E-02  0.1015497E+00
         21   -1    0    0  501  502  0.00000000000E+00  0.00000000000E+00  0.12667833190E+04  0.12667833190E+04  0.00000000000E+00 0. -1.
         21   -1    0    0  502  503 -0.00000000000E+00 -0.00000000000E+00 -0.21294115732E+03  0.21294115732E+03  0.00000000000E+00 0.  1.
          6    1    1    2  501    0 -0.27474216245E+03 -0.37208284580E+03  0.75766503840E+03  0.90419533862E+03  0.17200000000E+03 0.  1.
         -6    1    1    2    0  503  0.27474216245E+03  0.37208284580E+03  0.29617712323E+03  0.57552913766E+03  0.17200000000E+03 0. -1.
</event>
<event>
 4    1  0.2889985E+000  0.1741352E+03  0.7818608E-02  0.1173603E+00
         21   -1    0    0  501  502  0.00000000000E+00  0.00000000000E+00  0.70685944368E+02  0.70685944368E+02  0.00000000000E+00 0.  1.
         21   -1    0    0  502  503 -0.00000000000E+00 -0.00000000000E+00 -0.44412088844E+03  0.44412088844E+03  0.00000000000E+00 0.  1.
          6    1    1    2  501    0  0.23972308605E+02  0.12821750154E+02 -0.13919530034E+03  0.22293138068E+03  0.17200000000E+03 0.  1.
         -6    1    1    2    0  503 -0.23972308605E+02 -0.12821750154E+02 -0.23423964373E+03  0.29187545212E+03  0.17200000000E+03 0.  1.
</event>
<event>
 4    1  0.2889985E+000  0.1922152E+03  0.7818608E-02  0.1156478E+00
         21   -1    0    0  503  502  0.00000000000E+00  0.00000000000E+00  0.66751387828E+03  0.66751387828E+03  0.00000000000E+00 0.  1.
         21   -1    0    0  501  503 -0.00000000000E+00 -0.00000000000E+00 -0.11157800272E+03  0.11157800272E+03  0.00000000000E+00 0. -1.
          6    1    1    2  501    0 -0.73253363817E+02 -0.44683528603E+02  0.55450095577E+03  0.58687135131E+03  0.17200000000E+03 0.  1.
         -6    1    1    2    0  502  0.73253363817E+02  0.44683528603E+02  0.14349197853E+01  0.19222052969E+03  0.17200000000E+03 0. -1.
</event>
<event>
 4    1  0.2889985E+000  0.1890141E+03  0.7818608E-02  0.1159354E+00
         21   -1    0    0  503  502  0.00000000000E+00  0.00000000000E+00  0.52666340381E+03  0.52666340381E+03  0.00000000000E+00 0.  1.
         21   -1    0    0  501  503 -0.00000000000E+00 -0.00000000000E+00 -0.10734495869E+03  0.10734495869E+03  0.00000000000E+00 0. -1.
          6    1    1    2  501    0 -0.78047637193E+02  0.71333713335E+01  0.17338386326E+02  0.18980763498E+03  0.17200000000E+03 0. -1.
         -6    1    1    2    0  502  0.78047637193E+02 -0.71333713335E+01  0.40198005879E+03  0.44420072751E+03  0.17200000000E+03 0.  1.
</event>
<event>
 4    1  0.2889985E+000  0.2111644E+03  0.7818608E-02  0.1140647E+00
         21   -1    0    0  501  502  0.00000000000E+00  0.00000000000E+00  0.91959662900E+03  0.91959662900E+03  0.00000000000E+00 0. -1.
         21   -1    0    0  502  503 -0.00000000000E+00 -0.00000000000E+00 -0.80096514163E+02  0.80096514163E+02  0.00000000000E+00 0. -1.
          6    1    1    2  501    0 -0.95248752535E+02  0.77032869207E+02  0.73374639382E+03  0.76352744433E+03  0.17200000000E+03 0. -1.
         -6    1    1    2    0  503  0.95248752535E+02 -0.77032869207E+02  0.10575372102E+03  0.23616569884E+03  0.17200000000E+03 0. -1.
</event>
<event>
 4    1  0.2889985E+000  0.2543718E+03  0.7818608E-02  0.1110573E+00
         21   -1    0    0  503  502  0.00000000000E+00  0.00000000000E+00  0.31537575936E+03  0.31537575936E+03  0.00000000000E+00 0.  1.
         21   -1    0    0  501  503 -0.00000000000E+00 -0.00000000000E+00 -0.47752530704E+03  0.47752530704E+03  0.00000000000E+00 0.  1.
          6    1    1    2  501    0 -0.14315273884E+03  0.12094760329E+03 -0.38048062708E+03  0.45767951338E+03  0.17200000000E+03 0.  1.
         -6    1    1    2    0  502  0.14315273884E+03 -0.12094760329E+03  0.21833107940E+03  0.33522155302E+03  0.17200000000E+03 0.  1.
</event>
<event>
 4    1  0.2889985E+000  0.2006207E+03  0.7818608E-02  0.1149216E+00
         21   -1    0    0  501  502  0.00000000000E+00  0.00000000000E+00  0.18655851013E+03  0.18655851013E+03  0.00000000000E+00 0.  1.
         21   -1    0    0  502  503 -0.00000000000E+00 -0.00000000000E+00 -0.23277038876E+03  0.23277038876E+03  0.00000000000E+00 0. -1.
          6    1    1    2  501    0 -0.93585106271E+02  0.43663615544E+02 -0.79812797705E+02  0.21591379325E+03  0.17200000000E+03 0. -1.
         -6    1    1    2    0  503  0.93585106271E+02 -0.43663615544E+02  0.33600919071E+02  0.20341510564E+03  0.17200000000E+03 0.  1.
</event>
<event>
 4    1  0.2889985E+000  0.2652734E+03  0.7818608E-02  0.1104016E+00
         21   -1    0    0  501  502  0.00000000000E+00  0.00000000000E+00  0.57352556150E+02  0.57352556150E+02  0.00000000000E+00 0. -1.
         21   -1    0    0  502  503 -0.00000000000E+00 -0.00000000000E+00 -0.12686914893E+04  0.12686914893E+04  0.00000000000E+00 0. -1.
          6    1    1    2  501    0 -0.10778057072E+03 -0.17079029626E+03 -0.48543754791E+03  0.55319037378E+03  0.17200000000E+03 0. -1.
         -6    1    1    2    0  503  0.10778057072E+03  0.17079029626E+03 -0.72590138522E+03  0.77285367165E+03  0.17200000000E+03 0. -1.
</event>
<event>
 4    1  0.2889985E+000  0.2241712E+03  0.7818608E-02  0.1130811E+00
         21   -1    0    0  503  502  0.00000000000E+00  0.00000000000E+00  0.33371252459E+03  0.33371252459E+03  0.00000000000E+00 0.  1.
         21   -1    0    0  501  503 -0.00000000000E+00 -0.00000000000E+00 -0.17410807693E+03  0.17410807693E+03  0.00000000000E+00 0.  1.
          6    1    1    2  501    0 -0.73893264774E+02 -0.12332275387E+03  0.17312784583E+03  0.28324188815E+03  0.17200000000E+03 0.  1.
         -6    1    1    2    0  502  0.73893264774E+02  0.12332275387E+03 -0.13523398175E+02  0.22457871337E+03  0.17200000000E+03 0.  1.
</event>
<event>
 4    1  0.2889985E+000  0.1740322E+03  0.7818608E-02  0.1173707E+00
         21   -1    0    0  501  502  0.00000000000E+00  0.00000000000E+00  0.11837661116E+03  0.11837661116E+03  0.00000000000E+00 0. -1.
         21   -1    0    0  502  503 -0.00000000000E+00 -0.00000000000E+00 -0.26343582644E+03  0.26343582644E+03  0.00000000000E+00 0. -1.
          6    1    1    2  501    0 -0.25340303524E+02  0.78144106848E+01 -0.40143893333E+02  0.17860215052E+03  0.17200000000E+03 0. -1.
         -6    1    1    2    0  503  0.25340303524E+02 -0.78144106848E+01 -0.10491532195E+03  0.20321028708E+03  0.17200000000E+03 0. -1.
</event>
<event>
 4    1  0.2889985E+000  0.2044909E+03  0.7818608E-02  0.1146004E+00
         21   -1    0    0  501  502  0.00000000000E+00  0.00000000000E+00  0.97140548728E+03  0.97140548728E+03  0.00000000000E+00 0.  1.
         21   -1    0    0  502  503 -0.00000000000E+00 -0.00000000000E+00 -0.43971228722E+02  0.43971228722E+02  0.00000000000E+00 0. -1.
          6    1    1    2  501    0  0.46041377818E+02  0.10056194595E+03  0.53730405844E+03  0.57490187394E+03  0.17200000000E+03 0.  1.
         -6    1    1    2    0  503 -0.46041377818E+02 -0.10056194595E+03  0.39013020012E+03  0.44047484206E+03  0.17200000000E+03 0. -1.
</event>
<event>
 4    1  0.2889985E+000  0.1860901E+03  0.7818608E-02  0.1162036E+00
         21   -1    0    0  501  502  0.00000000000E+00  0.00000000000E+00  0.13599261525E+03  0.13599261525E+03  0.00000000000E+00 0.  1.
         21   -1    0    0  502  503 -0.00000000000E+00 -0.00000000000E+00 -0.31026397005E+03  0.31026397005E+03  0.00000000000E+00 0.  1.
          6    1    1    2  501    0 -0.70335125509E+02 -0.99251072221E+01  0.73376272594E+01  0.18623474007E+03  0.17200000000E+03 0.  1.
         -6    1    1    2    0  503  0.70335125509E+02  0.99251072221E+01 -0.18160898206E+03  0.26002184523E+03  0.17200000000E+03 0.  1.
</event>
<event>
 4    1  0.2889985E+000  0.1757810E+03  0.7818608E-02  0.1171950E+00
         21   -1    0    0  501  502  0.00000000000E+00  0.00000000000E+00  0.13951370606E+04  0.13951370606E+04  0.00000000000E+00 0. -1.
         21   -1    0    0  502  503 -0.00000000000E+00 -0.00000000000E+00 -0.22178441631E+02  0.22178441631E+02  0.00000000000E+00 0. -1.
          6    1    1    2  501    0 -0.33573960879E+02  0.13701564801E+02  0.71290391976E+03  0.73425536603E+03  0.17200000000E+03 0.  1.
         -6    1    1    2    0  503  0.33573960879E+02 -0.13701564801E+02  0.66005469925E+03  0.68306013625E+03  0.17200000000E+03 0.  1.
</event>
<event>
 4    1  0.2889985E+000  0.1724513E+03  0.7818608E-02  0.1175315E+00
         21   -1    0    0  501  502  0.00000000000E+00  0.00000000000E+00  0.11593401179E+04  0.11593401179E+04  0.00000000000E+00 0.  1.
         21   -1    0    0  502  503 -0.00000000000E+00 -0.00000000000E+00 -0.71938380172E+02  0.71938380172E+02  0.00000000000E+00 0.  1.
          6    1    1    2  501    0  0.11982852585E+02 -0.34426020731E+01  0.49876645925E+02  0.17951913568E+03  0.17200000000E+03 0.  1.
         -6    1    1    2    0  503 -0.11982852585E+02  0.34426020731E+01  0.10375250918E+04  0.10517593624E+04  0.17200000000E+03 0.  1.
</event>
<event>
 4    1  0.2889985E+000  0.2815503E+03  0.7818608E-02  0.1094845E+00
         21   -1    0    0  501  502  0.00000000000E+00  0.00000000000E+00  0.84561938566E+03  0.84561938566E+03  0.00000000000E+00 0.  1.
         21   -1    0    0  502  503 -0.00000000000E+00 -0.00000000000E+00 -0.95389871293E+02  0.95389871293E+02  0.00000000000E+00 0.  1.
          6    1    1    2  501    0 -0.19743220814E+03 -0.10347505446E+03  0.43694411395E+03  0.51979873261E+03  0.17200000000E+03 0.  1.
         -6    1    1    2    0  503  0.19743220814E+03  0.10347505446E+03  0.31328540042E+03  0.42121052434E+03  0.17200000000E+03 0.  1.
</event>
<event>
 4    1  0.2889985E+000  0.1726398E+03  0.7818608E-02  0.1175123E+00
         21   -1    0    0  503  502  0.00000000000E+00  0.00000000000E+00  0.31552099345E+03  0.31552099345E+03  0.00000000000E+00 0. -1.
         21   -1    0    0  501  503 -0.00000000000E+00 -0.00000000000E+00 -0.99543248442E+02  0.99543248442E+02  0.00000000000E+00 0. -1.
          6    1    1    2  501    0  0.48184885844E+01 -0.14045586902E+02  0.61096933996E+02  0.18313200618E+03  0.17200000000E+03 0. -1.
         -6    1    1    2    0  502 -0.48184885844E+01  0.14045586902E+02  0.15488081101E+03  0.23193223572E+03  0.17200000000E+03 0. -1.
</event>
<event>
 4    1  0.2889985E+000  0.2274362E+03  0.7818608E-02  0.1128457E+00
         21   -1    0    0  501  502  0.00000000000E+00  0.00000000000E+00  0.50877786826E+02  0.50877786826E+02  0.00000000000E+00 0. -1.
         21   -1    0    0  502  503 -0.00000000000E+00 -0.00000000000E+00 -0.12039000899E+04  0.12039000899E+04  0.00000000000E+00 0. -1.
          6    1    1    2  501    0 -0.14816229899E+03 -0.13826104719E+02 -0.32911119036E+03  0.40005175120E+03  0.17200000000E+03 0. -1.
         -6    1    1    2    0  503  0.14816229899E+03  0.13826104719E+02 -0.82391111275E+03  0.85472612556E+03  0.17200000000E+03 0. -1.
</event>
<event>
 4    1  0.2889985E+000  0.2052365E+03  0.7818608E-02  0.1145395E+00
         21   -1    0    0  501  502  0.00000000000E+00  0.00000000000E+00  0.66606930766E+02  0.66606930766E+02  0.00000000000E+00 0.  1.
         21   -1    0    0  502  503 -0.00000000000E+00 -0.00000000000E+00 -0.12824117195E+04  0.12824117195E+04  0.00000000000E+00 0.  1.
          6    1    1    2  501    0  0.11101776804E+03  0.14596440129E+02 -0.12768716762E+03  0.24171473613E+03  0.17200000000E+03 0.  1.
         -6    1    1    2    0  503 -0.11101776804E+03 -0.14596440129E+02 -0.10881176211E+04  0.11073039141E+04  0.17200000000E+03 0.  1.
</event>
<event>
 4    1  0.2889985E+000  0.2776977E+03  0.7818608E-02  0.1096953E+00
         21   -1    0    0  501  502  0.00000000000E+00  0.00000000000E+00  0.35076596466E+03  0.35076596466E+03  0.00000000000E+00 0. -1.
         21   -1    0    0  502  503 -0.00000000000E+00 -0.00000000000E+00 -0.24402957500E+03  0.24402957500E+03  0.00000000000E+00 0. -1.
          6    1    1    2  501    0  0.20891814261E+03 -0.62331464183E+02  0.14698161966E+03  0.31419675086E+03  0.17200000000E+03 0. -1.
         -6    1    1    2    0  503 -0.20891814261E+03  0.62331464183E+02 -0.40245229994E+02  0.28059878880E+03  0.17200000000E+03 0. -1.
</event>
<event>
 4    1  0.2889985E+000  0.1949256E+03  0.7818608E-02  0.1154092E+00
         21   -1    0    0  503  502  0.00000000000E+00  0.00000000000E+00  0.11534583522E+03  0.11534583522E+03  0.00000000000E+00 0.  1.
         21   -1    0    0  501  503 -0.00000000000E+00 -0.00000000000E+00 -0.52855048486E+03  0.52855048486E+03  0.00000000000E+00 0.  1.
          6    1    1    2  501    0  0.84587270081E+02  0.35454212818E+02 -0.40421877596E+03  0.44876366420E+03  0.17200000000E+03 0.  1.
         -6    1    1    2    0  502 -0.84587270081E+02 -0.35454212818E+02 -0.89858736876E+01  0.19513265588E+03  0.17200000000E+03 0.  1.
</event>
<event>
 4    1  0.2889985E+000  0.2460450E+03  0.7818608E-02  0.1115830E+00
         21   -1    0    0  501  502  0.00000000000E+00  0.00000000000E+00  0.31819078179E+03  0.31819078179E+03  0.00000000000E+00 0.  1.
         21   -1    0    0  502  503 -0.00000000000E+00 -0.00000000000E+00 -0.12763192561E+04  0.12763192561E+04  0.00000000000E+00 0. -1.
          6    1    1    2  501    0  0.96045338065E+02  0.14740902306E+03  0.25637178245E+03  0.35533732970E+03  0.17200000000E+03 0.  1.
         -6    1    1    2    0  503 -0.96045338065E+02 -0.14740902306E+03 -0.12145002568E+04  0.12391727082E+04  0.17200000000E+03 0. -1.
</event>
<event>
 4    1  0.2889985E+000  0.1949232E+03  0.7818608E-02  0.1154094E+00
         21   -1    0    0  503  502  0.00000000000E+00  0.00000000000E+00  0.81637698832E+03  0.81637698832E+03  0.00000000000E+00 0. -1.
         21   -1    0    0  501  503 -0.00000000000E+00 -0.00000000000E+00 -0.53583842221E+02  0.53583842221E+02  0.00000000000E+00 0. -1.
          6    1    1    2  501    0 -0.32436262915E+02  0.85784306447E+02  0.22369914666E+03  0.29670922904E+03  0.17200000000E+03 0. -1.
         -6    1    1    2    0  502  0.32436262915E+02 -0.85784306447E+02  0.53909399944E+03  0.57325160149E+03  0.17200000000E+03 0. -1.
</event>
<event>
 4    1  0.2889985E+000  0.2067211E+03  0.7818608E-02  0.1144189E+00
         21   -1    0    0  503  502  0.00000000000E+00  0.00000000000E+00  0.10598616103E+04  0.10598616103E+04  0.00000000000E+00 0. -1.
         21   -1    0    0  501  503 -0.00000000000E+00 -0.00000000000E+00 -0.80577230367E+02  0.80577230367E+02  0.00000000000E+00 0. -1.
          6    1    1    2  501    0  0.11418963174E+03  0.10504386707E+02  0.86593222057E+02  0.22412496568E+03  0.17200000000E+03 0. -1.
         -6    1    1    2    0  502 -0.11418963174E+03 -0.10504386707E+02  0.89269115788E+03  0.91631387498E+03  0.17200000000E+03 0. -1.
</event>
<event>
 4    1  0.2889985E+000  0.1983237E+03  0.7818608E-02  0.1151161E+00
         21   -1    0    0  501  502  0.00000000000E+00  0.00000000000E+00  0.22919469975E+03  0.22919469975E+03  0.00000000000E+00 0. -1.
         21   -1    0    0  502  503 -0.00000000000E+00 -0.00000000000E+00 -0.20571728738E+03  0.20571728738E+03  0.00000000000E+00 0. -1.
          6    1    1    2  501    0  0.84225644179E+02  0.51520246825E+02  0.10028170552E+03  0.22223572043E+03  0.17200000000E+03 0. -1.
         -6    1    1    2    0  503 -0.84225644179E+02 -0.51520246825E+02 -0.76804293153E+02  0.21267626670E+03  0.17200000000E+03 0. -1.
</event>
<event>
 4    1  0.2889985E+000  0.1763257E+03  0.7818608E-02  0.1171407E+00
         21   -1    0    0  501  502  0.00000000000E+00  0.00000000000E+00  0.34062145989E+03  0.34062145989E+03  0.00000000000E+00 0.  1.
         21   -1    0    0  502  503 -0.00000000000E+00 -0.00000000000E+00 -0.94426023334E+02  0.94426023334E+02  0.00000000000E+00 0.  1.
          6    1    1    2  501    0  0.26813168225E+02  0.28068195737E+02  0.16282383934E+03  0.24000494216E+03  0.17200000000E+03 0.  1.
         -6    1    1    2    0  503 -0.26813168225E+02 -0.28068195737E+02  0.83371597209E+02  0.19504254106E+03  0.17200000000E+03 0.  1.
</event>
<event>
 4    1  0.2889985E+000  0.2359979E+03  0.7818608E-02  0.1122488E+00
         21   -1    0    0  503  502  0.00000000000E+00  0.00000000000E+00  0.11709372549E+03  0.11709372549E+03  0.00000000000E+00 0.  1.
         21   -1    0    0  501  503 -0.00000000000E+00 -0.00000000000E+00 -0.70130374508E+03  0.70130374508E+03  0.00000000000E+00 0.  1.
          6    1    1    2  501    0 -0.14959784205E+03  0.61085910400E+02 -0.52422237670E+03  0.57489486259E+03  0.17200000000E+03 0.  1.
         -6    1    1    2    0  502  0.14959784205E+03 -0.61085910400E+02 -0.59987642890E+02  0.24350260798E+03  0.17200000000E+03 0.  1.
</event>
<event>
 4    1  0.2889985E+000  0.1820088E+03  0.7818608E-02  0.1165873E+00
         21   -1    0    0  503  502  0.00000000000E+00  0.00000000000E+00  0.42248090810E+02  0.42248090810E+02  0.00000000000E+00 0. -1.
         21   -1    0    0  501  503 -0.00000000000E+00 -0.00000000000E+00 -0.88330790258E+03  0.88330790258E+03  0.00000000000E+00 0.  1.
          6    1    1    2  501    0 -0.39210439138E+02  0.44785474831E+02 -0.57561335927E+03  0.60370351718E+03  0.17200000000E+03 0.  1.
         -6    1    1    2    0  502  0.39210439138E+02 -0.44785474831E+02 -0.26544645250E+03  0.32185247620E+03  0.17200000000E+03 0. -1.
</event>
<event>
 4    1  0.2889985E+000  0.1728396E+03  0.7818608E-02  0.1174919E+00
         21   -1    0    0  503  502  0.00000000000E+00  0.00000000000E+00  0.83388774774E+02  0.83388774774E+02  0.00000000000E+00 0.  1.
         21   -1    0    0  501  503 -0.00000000000E+00 -0.00000000000E+00 -0.37932237002E+03  0.37932237002E+03  0.00000000000E+00 0.  1.
          6    1    1    2  501    0  0.10380880561E+02 -0.13481392043E+02 -0.20250444820E+03  0.26623591447E+03  0.17200000000E+03 0. -1.
         -6    1    1    2    0  502 -0.10380880561E+02  0.13481392043E+02 -0.93429147041E+02  0.19647523032E+03  0.17200000000E+03 0. -1.
</event>
<event>
 4    1  0.2889985E+000  0.2140888E+03  0.7818608E-02  0.1138368E+00
         21   -1    0    0  501  502  0.00000000000E+00  0.00000000000E+00  0.17223986006E+03  0.17223986006E+03  0.00000000000E+00 0. -1.
         21   -1    0    0  502  503 -0.00000000000E+00 -0.00000000000E+00 -0.78644227416E+03  0.78644227416E+03  0.00000000000E+00 0. -1.
          6    1    1    2  501    0 -0.30726770981E+02  0.12371688273E+03 -0.69700136111E+03  0.72913983496E+03  0.17200000000E+03 0. -1.
         -6    1    1    2    0  503  0.30726770981E+02 -0.12371688273E+03  0.82798947011E+02  0.22954229927E+03  0.17200000000E+03 0. -1.
</event>
<event>
 4    1  0.2889985E+000  0.2212413E+03  0.7818608E-02  0.1132961E+00
         21   -1    0    0  503  502  0.00000000000E+00  0.00000000000E+00  0.46641927786E+03  0.46641927786E+03  0.00000000000E+00 0. -1.
         21   -1    0    0  501  503 -0.00000000000E+00 -0.00000000000E+00 -0.13725386874E+03  0.13725386874E+03  0.00000000000E+00 0.  1.
          6    1    1    2  501    0 -0.71040144695E+02 -0.11965369863E+03  0.18135876277E+02  0.22198337722E+03  0.17200000000E+03 0.  1.
         -6    1    1    2    0  502  0.71040144695E+02  0.11965369863E+03  0.31102953284E+03  0.38168976938E+03  0.17200000000E+03 0. -1.
</event>
<event>
 4    1  0.2889985E+000  0.2219094E+03  0.7818608E-02  0.1132468E+00
         21   -1    0    0  501  502  0.00000000000E+00  0.00000000000E+00  0.34870482945E+03  0.34870482945E+03  0.00000000000E+00 0. -1.
         21   -1    0    0  502  503 -0.00000000000E+00 -0.00000000000E+00 -0.27302749509E+03  0.27302749509E+03  0.00000000000E+00 0. -1.
          6    1    1    2  501    0  0.57402625479E+02 -0.12792458812E+03  0.25383276922E+03  0.33715699071E+03  0.17200000000E+03 0. -1.
         -6    1    1    2    0  503 -0.57402625479E+02  0.12792458812E+03 -0.17815543485E+03  0.28457533383E+03  0.17200000000E+03 0. -1.
</event>
<event>
 4    1  0.2889985E+000  0.1973623E+03  0.7818608E-02  0.1151984E+00
         21   -1    0    0  503  502  0.00000000000E+00  0.00000000000E+00  0.12457799894E+03  0.12457799894E+03  0.00000000000E+00 0. -1.
         21   -1    0    0  501  503 -0.00000000000E+00 -0.00000000000E+00 -0.69525186731E+03  0.69525186731E+03  0.00000000000E+00 0. -1.
          6    1    1    2  501    0  0.30190150133E+02 -0.91958892955E+02 -0.58941457254E+03  0.62157977886E+03  0.17200000000E+03 0. -1.
         -6    1    1    2    0  502 -0.30190150133E+02  0.91958892955E+02  0.18740704176E+02  0.19825008739E+03  0.17200000000E+03 0. -1.
</event>
<event>
 4    1  0.2889985E+000  0.1895556E+03  0.7818608E-02  0.1158863E+00
         21   -1    0    0  501  502  0.00000000000E+00  0.00000000000E+00  0.18295579156E+03  0.18295579156E+03  0.00000000000E+00 0. -1.
         21   -1    0    0  502  503 -0.00000000000E+00 -0.00000000000E+00 -0.23949529425E+03  0.23949529425E+03  0.00000000000E+00 0. -1.
          6    1    1    2  501    0  0.76904316629E+02 -0.20809888990E+02  0.61338024137E+02  0.19923272472E+03  0.17200000000E+03 0. -1.
         -6    1    1    2    0  503 -0.76904316629E+02  0.20809888990E+02 -0.11787752683E+03  0.22321836109E+03  0.17200000000E+03 0. -1.
</event>
<event>
 4    1  0.2889985E+000  0.2280356E+03  0.7818608E-02  0.1128030E+00
         21   -1    0    0  501  502  0.00000000000E+00  0.00000000000E+00  0.19194357684E+04  0.19194357684E+04  0.00000000000E+00 0.  1.
         21   -1    0    0  502  503 -0.00000000000E+00 -0.00000000000E+00 -0.32464432121E+02  0.32464432121E+02  0.00000000000E+00 0. -1.
          6    1    1    2  501    0 -0.90096793182E+02 -0.11957753504E+03  0.13405245795E+04  0.13597817352E+04  0.17200000000E+03 0.  1.
         -6    1    1    2    0  503  0.90096793182E+02  0.11957753504E+03  0.54644675677E+03  0.59211846535E+03  0.17200000000E+03 0. -1.
</event>
<event>
 4    1  0.2889985E+000  0.2943234E+03  0.7818608E-02  0.1088113E+00
         21   -1    0    0  501  502  0.00000000000E+00  0.00000000000E+00  0.62136273985E+03  0.62136273985E+03  0.00000000000E+00 0. -1.
         21   -1    0    0  502  503 -0.00000000000E+00 -0.00000000000E+00 -0.14163738804E+03  0.14163738804E+03  0.00000000000E+00 0. -1.
          6    1    1    2  501    0  0.18728890641E+03  0.14820636909E+03  0.28766803458E+03  0.41155699535E+03  0.17200000000E+03 0. -1.
         -6    1    1    2    0  503 -0.18728890641E+03 -0.14820636909E+03  0.19205731723E+03  0.35144313253E+03  0.17200000000E+03 0. -1.
</event>
<event>
 4    1  0.2889985E+000  0.1957101E+03  0.7818608E-02  0.1153410E+00
         21   -1    0    0  503  502  0.00000000000E+00  0.00000000000E+00  0.39279353543E+02  0.39279353543E+02  0.00000000000E+00 0.  1.
         21   -1    0    0  501  503 -0.00000000000E+00 -0.00000000000E+00 -0.98478598969E+03  0.98478598969E+03  0.00000000000E+00 0.  1.
          6    1    1    2  501    0 -0.45132411658E+02  0.81740481785E+02 -0.42204896800E+03  0.46521798367E+03  0.17200000000E+03 0.  1.
         -6    1    1    2    0  502  0.45132411658E+02 -0.81740481785E+02 -0.52345766815E+03  0.55884735956E+03  0.17200000000E+03 0.  1.
</event>
<event>
 4    1  0.2889985E+000  0.1937737E+03  0.7818608E-02  0.1155101E+00
         21   -1    0    0  501  502  0.00000000000E+00  0.00000000000E+00  0.14179929229E+03  0.14179929229E+03  0.00000000000E+00 0.  1.
         21   -1    0    0  502  503 -0.00000000000E+00 -0.00000000000E+00 -0.35784826576E+03  0.35784826576E+03  0.00000000000E+00 0.  1.
          6    1    1    2  501    0 -0.48052068596E+01  0.89113213748E+02  0.19367382668E+02  0.19473918555E+03  0.17200000000E+03 0.  1.
         -6    1    1    2    0  503  0.48052068596E+01 -0.89113213748E+02 -0.23541635614E+03  0.30490837249E+03  0.17200000000E+03 0.  1.
</event>
<event>
 4    1  0.2889985E+000  0.2121257E+03  0.7818608E-02  0.1139894E+00
         21   -1    0    0  503  502  0.00000000000E+00  0.00000000000E+00  0.83669068972E+02  0.83669068972E+02  0.00000000000E+00 0. -1.
         21   -1    0    0  501  503 -0.00000000000E+00 -0.00000000000E+00 -0.70013184428E+03  0.70013184428E+03  0.00000000000E+00 0. -1.
          6    1    1    2  501    0  0.10579407507E+02  0.12369880149E+03 -0.49693761987E+03  0.54031871649E+03  0.17200000000E+03 0. -1.
         -6    1    1    2    0  502 -0.10579407507E+02 -0.12369880149E+03 -0.11952515544E+03  0.24348219676E+03  0.17200000000E+03 0. -1.
</event>
<event>
 4    1  0.2889985E+000  0.1806879E+03  0.7818608E-02  0.1167139E+00
         21   -1    0    0  503  502  0.00000000000E+00  0.00000000000E+00  0.56937158859E+03  0.56937158859E+03  0.00000000000E+00 0. -1.
         21   -1    0    0  501  503 -0.00000000000E+00 -0.00000000000E+00 -0.92806712210E+02  0.92806712210E+02  0.00000000000E+00 0. -1.
          6    1    1    2  501    0 -0.32025131919E+02 -0.45150019757E+02  0.33608860847E+02  0.18378707486E+03  0.17200000000E+03 0. -1.
         -6    1    1    2    0  502  0.32025131919E+02  0.45150019757E+02  0.44295601554E+03  0.47839122594E+03  0.17200000000E+03 0. -1.
</event>
<event>
 4    1  0.2889985E+000  0.1820969E+03  0.7818608E-02  0.1165789E+00
         21   -1    0    0  503  502  0.00000000000E+00  0.00000000000E+00  0.18937444976E+03  0.18937444976E+03  0.00000000000E+00 0.  1.
         21   -1    0    0  501  503 -0.00000000000E+00 -0.00000000000E+00 -0.20702225797E+03  0.20702225797E+03  0.00000000000E+00 0. -1.
          6    1    1    2  501    0 -0.25078177403E+02  0.54280482669E+02 -0.86653504930E+02  0.20166337223E+03  0.17200000000E+03 0. -1.
         -6    1    1    2    0  502  0.25078177403E+02 -0.54280482669E+02  0.69005696720E+02  0.19473333551E+03  0.17200000000E+03 0.  1.
</event>
<event>
 4    1  0.2889985E+000  0.2002344E+03  0.7818608E-02  0.1149541E+00
         21   -1    0    0  501  502  0.00000000000E+00  0.00000000000E+00  0.45957190398E+03  0.45957190398E+03  0.00000000000E+00 0.  1.
         21   -1    0    0  502  503 -0.00000000000E+00 -0.00000000000E+00 -0.14426492940E+03  0.14426492940E+03  0.00000000000E+00 0.  1.
          6    1    1    2  501    0  0.10249851790E+03 -0.19639357092E+01  0.34747060853E+03  0.40103569294E+03  0.17200000000E+03 0.  1.
         -6    1    1    2    0  503 -0.10249851790E+03  0.19639357092E+01 -0.32163633954E+02  0.20280114044E+03  0.17200000000E+03 0.  1.
</event>
<event>
 4    1  0.2889985E+000  0.1906599E+03  0.7818608E-02  0.1157867E+00
         21   -1    0    0  501  502  0.00000000000E+00  0.00000000000E+00  0.25050051681E+03  0.25050051681E+03  0.00000000000E+00 0.  1.
         21   -1    0    0  502  503 -0.00000000000E+00 -0.00000000000E+00 -0.15355557241E+03  0.15355557241E+03  0.00000000000E+00 0.  1.
          6    1    1    2  501    0 -0.82106016780E+02  0.50790743538E+01  0.95840366193E+02  0.21339299609E+03  0.17200000000E+03 0. -1.
         -6    1    1    2    0  503  0.82106016780E+02 -0.50790743538E+01  0.11045782092E+01  0.19066309313E+03  0.17200000000E+03 0. -1.
</event>
<event>
 4    1  0.2889985E+000  0.1906522E+03  0.7818608E-02  0.1157874E+00
         21   -1    0    0  503  502  0.00000000000E+00  0.00000000000E+00  0.54514988278E+03  0.54514988278E+03  0.00000000000E+00 0.  1.
         21   -1    0    0  501  503 -0.00000000000E+00 -0.00000000000E+00 -0.13094449453E+03  0.13094449453E+03  0.00000000000E+00 0.  1.
          6    1    1    2  501    0  0.82224399895E+02  0.18467034224E+01 -0.29725666146E+02  0.19295563604E+03  0.17200000000E+03 0.  1.
         -6    1    1    2    0  502 -0.82224399895E+02 -0.18467034224E+01  0.44393105440E+03  0.48313874126E+03  0.17200000000E+03 0.  1.
</event>
<event>
 4    1  0.2889985E+000  0.1723031E+03  0.7818608E-02  0.1175467E+00
         21   -1    0    0  501  502  0.00000000000E+00  0.00000000000E+00  0.72986119339E+03  0.72986119339E+03  0.00000000000E+00 0.  1.
         21   -1    0    0  502  503 -0.00000000000E+00 -0.00000000000E+00 -0.97723066329E+02  0.97723066329E+02  0.00000000000E+00 0.  1.
          6    1    1    2  501    0  0.96273031338E+01 -0.34161334393E+01  0.63222229406E+03  0.65528114885E+03  0.17200000000E+03 0.  1.
         -6    1    1    2    0  503 -0.96273031338E+01  0.34161334393E+01 -0.84166990650E-01  0.17230311088E+03  0.17200000000E+03 0.  1.
</event>
<event>
 4    1  0.2889985E+000  0.1928032E+03  0.7818608E-02  0.1155957E+00
         21   -1    0    0  503  502  0.00000000000E+00  0.00000000000E+00  0.44696724166E+03  0.44696724166E+03  0.00000000000E+00 0.  1.
         21   -1    0    0  501  503 -0.00000000000E+00 -0.00000000000E+00 -0.10366255074E+03  0.10366255074E+03  0.00000000000E+00 0.  1.
          6    1    1    2  501    0  0.63061379287E+02  0.60102632432E+02  0.29407033890E+03  0.35163962831E+03  0.17200000000E+03 0.  1.
         -6    1    1    2    0  502 -0.63061379287E+02 -0.60102632432E+02  0.49234352021E+02  0.19899016408E+03  0.17200000000E+03 0.  1.
</event>
<event>
 4    1  0.2889985E+000  0.1747972E+03  0.7818608E-02  0.1172935E+00
         21   -1    0    0  501  502  0.00000000000E+00  0.00000000000E+00  0.32254849799E+03  0.32254849799E+03  0.00000000000E+00 0. -1.
         21   -1    0    0  502  503 -0.00000000000E+00 -0.00000000000E+00 -0.95702191954E+02  0.95702191954E+02  0.00000000000E+00 0. -1.
          6    1    1    2  501    0  0.28376012928E+02 -0.12840542839E+02  0.13453240174E+03  0.22057435202E+03  0.17200000000E+03 0.  1.
         -6    1    1    2    0  503 -0.28376012928E+02  0.12840542839E+02  0.92313904296E+02  0.19767633793E+03  0.17200000000E+03 0.  1.
</event>
<event>
 4    1  0.2889985E+000  0.1817309E+03  0.7818608E-02  0.1166138E+00
         21   -1    0    0  501  502  0.00000000000E+00  0.00000000000E+00  0.19725113805E+02  0.19725113805E+02  0.00000000000E+00 0.  1.
         21   -1    0    0  502  503 -0.00000000000E+00 -0.00000000000E+00 -0.17166919500E+04  0.17166919500E+04  0.00000000000E+00 0.  1.
          6    1    1    2  501    0  0.58054609539E+02 -0.84724818721E+01 -0.98488687575E+03  0.10015129948E+04  0.17200000000E+03 0.  1.
         -6    1    1    2    0  503 -0.58054609539E+02  0.84724818721E+01 -0.71207996042E+03  0.73490406902E+03  0.17200000000E+03 0.  1.
</event>
<event>
 4    1  0.2889985E+000  0.2513541E+03  0.7818608E-02  0.1112452E+00
         21   -1    0    0  503  502  0.00000000000E+00  0.00000000000E+00  0.33528648281E+03  0.33528648281E+03  0.00000000000E+00 0. -1.
         21   -1    0    0  501  503 -0.00000000000E+00 -0.00000000000E+00 -0.25310576664E+03  0.25310576664E+03  0.00000000000E+00 0.  1.
          6    1    1    2  501    0 -0.32001060163E+02  0.18047391412E+03 -0.10762232612E+03  0.27342543153E+03  0.17200000000E+03 0.  1.
         -6    1    1    2    0  502  0.32001060163E+02 -0.18047391412E+03  0.18980304229E+03  0.31496681792E+03  0.17200000000E+03 0. -1.
</event>
<event>
 4    1  0.2889985E+000  0.1899239E+03  0.7818608E-02  0.1158530E+00
         21   -1    0    0  503  502  0.00000000000E+00  0.00000000000E+00  0.16988257380E+03  0.16988257380E+03  0.00000000000E+00 0.  1.
         21   -1    0    0  501  503 -0.00000000000E+00 -0.00000000000E+00 -0.29332427910E+03  0.29332427910E+03  0.00000000000E+00 0.  1.
          6    1    1    2  501    0  0.23401882555E+02 -0.77067777918E+02  0.59981606016E+02  0.19917048868E+03  0.17200000000E+03 0.  1.
         -6    1    1    2    0  502 -0.23401882555E+02  0.77067777918E+02 -0.18342331131E+03  0.26403636423E+03  0.17200000000E+03 0.  1.
</event>
<event>
 4    1  0.2889985E+000  0.2043348E+03  0.7818608E-02  0.1146132E+00
         21   -1    0    0  503  502  0.00000000000E+00  0.00000000000E+00  0.31147353919E+03  0.31147353919E+03  0.00000000000E+00 0.  1.
         21   -1    0    0  501  503 -0.00000000000E+00 -0.00000000000E+00 -0.14587764531E+03  0.14587764531E+03  0.00000000000E+00 0. -1.
          6    1    1    2  501    0 -0.64035465737E+02 -0.89822897251E+02  0.17680962005E+02  0.20509829390E+03  0.17200000000E+03 0. -1.
         -6    1    1    2    0  502  0.64035465737E+02  0.89822897251E+02  0.14791493188E+03  0.25225289060E+03  0.17200000000E+03 0.  1.
</event>
<event>
 4    1  0.2889985E+000  0.2061548E+03  0.7818608E-02  0.1144648E+00
         21   -1    0    0  501  502  0.00000000000E+00  0.00000000000E+00  0.90804592465E+03  0.90804592465E+03  0.00000000000E+00 0. -1.
         21   -1    0    0  502  503 -0.00000000000E+00 -0.00000000000E+00 -0.50308466705E+02  0.50308466705E+02  0.00000000000E+00 0. -1.
          6    1    1    2  501    0  0.10323929512E+03 -0.47512787146E+02  0.55534569484E+03  0.59237543651E+03  0.17200000000E+03 0. -1.
         -6    1    1    2    0  503 -0.10323929512E+03  0.47512787146E+02  0.30239176310E+03  0.36597895485E+03  0.17200000000E+03 0. -1.
</event>
<event>
 4    1  0.2889985E+000  0.1727306E+03  0.7818608E-02  0.1175030E+00
         21   -1    0    0  503  502  0.00000000000E+00  0.00000000000E+00  0.24916253036E+03  0.24916253036E+03  0.00000000000E+00 0.  1.
         21   -1    0    0  501  503 -0.00000000000E+00 -0.00000000000E+00 -0.12736461818E+03  0.12736461818E+03  0.00000000000E+00 0.  1.
          6    1    1    2  501    0  0.77711868982E+01 -0.13837045019E+02  0.10694807442E+03  0.20315940978E+03  0.17200000000E+03 0. -1.
         -6    1    1    2    0  502 -0.77711868982E+01  0.13837045019E+02  0.14849837749E+02  0.17336773876E+03  0.17200000000E+03 0. -1.
</event>
<event>
 4    1  0.2889985E+000  0.1847152E+03  0.7818608E-02  0.1163316E+00
         21   -1    0    0  501  502  0.00000000000E+00  0.00000000000E+00  0.23091045322E+03  0.23091045322E+03  0.00000000000E+00 0. -1.
         21   -1    0    0  502  503 -0.00000000000E+00 -0.00000000000E+00 -0.17906215239E+03  0.17906215239E+03  0.00000000000E+00 0.  1.
          6    1    1    2  501    0  0.62729117445E+02 -0.24510131338E+02  0.11162778159E+03  0.21582504566E+03  0.17200000000E+03 0. -1.
         -6    1    1    2    0  503 -0.62729117445E+02  0.24510131338E+02 -0.59779480749E+02  0.19414755994E+03  0.17200000000E+03 0.  1.
</event>
<event>
 4    1  0.2889985E+000  0.1777985E+03  0.7818608E-02  0.1169951E+00
         21   -1    0    0  501  502  0.00000000000E+00  0.00000000000E+00  0.26681011975E+03  0.26681011975E+03  0.00000000000E+00 0. -1.
         21   -1    0    0  502  503 -0.00000000000E+00 -0.00000000000E+00 -0.11868599441E+03  0.11868599441E+03  0.00000000000E+00 0. -1.
          6    1    1    2  501    0  0.63863220704E+01 -0.44581702992E+02  0.82044456370E+02  0.19581523478E+03  0.17200000000E+03 0.  1.
         -6    1    1    2    0  503 -0.63863220704E+01  0.44581702992E+02  0.66079668967E+02  0.18968087938E+03  0.17200000000E+03 0.  1.
</event>
<event>
 4    1  0.2889985E+000  0.2890015E+03  0.7818608E-02  0.1090872E+00
         21   -1    0    0  501  502  0.00000000000E+00  0.00000000000E+00  0.94834769550E+02  0.94834769550E+02  0.00000000000E+00 0.  1.
         21   -1    0    0  502  503 -0.00000000000E+00 -0.00000000000E+00 -0.10040772810E+04  0.10040772810E+04  0.00000000000E+00 0. -1.
          6    1    1    2  501    0 -0.23215657440E+03  0.64179338442E+01 -0.26202378811E+03  0.39010041072E+03  0.17200000000E+03 0.  1.
         -6    1    1    2    0  503  0.23215657440E+03 -0.64179338442E+01 -0.64721872337E+03  0.70881163985E+03  0.17200000000E+03 0.  1.
</event>
<event>
 4    1  0.2889985E+000  0.3801525E+03  0.7818608E-02  0.1050877E+00
         21   -1    0    0  503  502  0.00000000000E+00  0.00000000000E+00  0.11144982362E+04  0.11144982362E+04  0.00000000000E+00 0. -1.
         21   -1    0    0  501  503 -0.00000000000E+00 -0.00000000000E+00 -0.13071349739E+03  0.13071349739E+03  0.00000000000E+00 0. -1.
          6    1    1    2  501    0  0.23825169655E+03 -0.24118058495E+03  0.43623881247E+03  0.57863654134E+03  0.17200000000E+03 0. -1.
         -6    1    1    2    0  502 -0.23825169655E+03  0.24118058495E+03  0.54754592639E+03  0.66657519229E+03  0.17200000000E+03 0. -1.
</event>
<event>
 4    1  0.2889985E+000  0.1909254E+03  0.7818608E-02  0.1157629E+00
         21   -1    0    0  501  502  0.00000000000E+00  0.00000000000E+00  0.35205828496E+02  0.35205828496E+02  0.00000000000E+00 0. -1.
         21   -1    0    0  502  503 -0.00000000000E+00 -0.00000000000E+00 -0.10408420434E+04  0.10408420434E+04  0.00000000000E+00 0.  1.
          6    1    1    2  501    0 -0.19272318986E+02  0.80604554449E+02 -0.46395527248E+03  0.50170410735E+03  0.17200000000E+03 0. -1.
         -6    1    1    2    0  503  0.19272318986E+02 -0.80604554449E+02 -0.54168094238E+03  0.57434376450E+03  0.17200000000E+03 0.  1.
</event>
<event>
 4    1  0.2889985E+000  0.2001011E+03  0.7818608E-02  0.1149654E+00
         21   -1    0    0  501  502  0.00000000000E+00  0.00000000000E+00  0.43840412333E+02  0.43840412333E+02  0.00000000000E+00 0.  1.
         21   -1    0    0  502  503 -0.00000000000E+00 -0.00000000000E+00 -0.11695532953E+04  0.11695532953E+04  0.00000000000E+00 0.  1.
          6    1    1    2  501    0  0.98077097416E+02  0.28936934439E+02 -0.27888357121E+03  0.34324409609E+03  0.17200000000E+03 0.  1.
         -6    1    1    2    0  503 -0.98077097416E+02 -0.28936934439E+02 -0.84682931178E+03  0.87014961156E+03  0.17200000000E+03 0.  1.
</event>
<event>
 4    1  0.2889985E+000  0.2459526E+03  0.7818608E-02  0.1115890E+00
         21   -1    0    0  501  502  0.00000000000E+00  0.00000000000E+00  0.65235840640E+02  0.65235840640E+02  0.00000000000E+00 0. -1.
         21   -1    0    0  502  503 -0.00000000000E+00 -0.00000000000E+00 -0.16568547557E+04  0.16568547557E+04  0.00000000000E+00 0. -1.
          6    1    1    2  501    0 -0.23154879584E+02 -0.17427716206E+03 -0.22444254495E+03  0.33296716602E+03  0.17200000000E+03 0. -1.
         -6    1    1    2    0  503  0.23154879584E+02  0.17427716206E+03 -0.13671763701E+04  0.13891234303E+04  0.17200000000E+03 0. -1.
</event>
<event>
 4    1  0.2889985E+000  0.2132669E+03  0.7818608E-02  0.1139005E+00
         21   -1    0    0  501  502  0.00000000000E+00  0.00000000000E+00  0.42488922089E+03  0.42488922089E+03  0.00000000000E+00 0.  1.
         21   -1    0    0  502  503 -0.00000000000E+00 -0.00000000000E+00 -0.18360939163E+03  0.18360939163E+03  0.00000000000E+00 0.  1.
          6    1    1    2  501    0 -0.88986013960E+02 -0.89332188522E+02  0.31710814733E+03  0.38215223104E+03  0.17200000000E+03 0.  1.
         -6    1    1    2    0  503  0.88986013960E+02  0.89332188522E+02 -0.75828318074E+02  0.22634638148E+03  0.17200000000E+03 0.  1.
</event>
<event>
 4    1  0.2889985E+000  0.2127901E+03  0.7818608E-02  0.1139375E+00
         21   -1    0    0  503  502  0.00000000000E+00  0.00000000000E+00  0.44410453461E+03  0.44410453461E+03  0.00000000000E+00 0. -1.
         21   -1    0    0  501  503 -0.00000000000E+00 -0.00000000000E+00 -0.21414802001E+03  0.21414802001E+03  0.00000000000E+00 0.  1.
          6    1    1    2  501    0  0.12391662368E+03  0.18446794014E+02 -0.12324511369E+03  0.24590439582E+03  0.17200000000E+03 0.  1.
         -6    1    1    2    0  502 -0.12391662368E+03 -0.18446794014E+02  0.35320162830E+03  0.41234815880E+03  0.17200000000E+03 0. -1.
</event>
<event>
 4    1  0.2889985E+000  0.2219607E+03  0.7818608E-02  0.1132430E+00
         21   -1    0    0  503  502  0.00000000000E+00  0.00000000000E+00  0.25059010007E+04  0.25059010007E+04  0.00000000000E+00 0.  1.
         21   -1    0    0  501  503 -0.00000000000E+00 -0.00000000000E+00 -0.22975846489E+02  0.22975846489E+02  0.00000000000E+00 0. -1.
          6    1    1    2  501    0  0.13986161596E+03 -0.11013747054E+02  0.76112730148E+03  0.79283121993E+03  0.17200000000E+03 0. -1.
         -6    1    1    2    0  502 -0.13986161596E+03  0.11013747054E+02  0.17217978527E+04  0.17360456273E+04  0.17200000000E+03 0.  1.
</event>
<event>
 4    1  0.2889985E+000  0.3873604E+03  0.7818608E-02  0.1048246E+00
         21   -1    0    0  503  502  0.00000000000E+00  0.00000000000E+00  0.25130716634E+03  0.25130716634E+03  0.00000000000E+00 0. -1.
         21   -1    0    0  501  503 -0.00000000000E+00 -0.00000000000E+00 -0.59707103189E+03  0.59707103189E+03  0.00000000000E+00 0. -1.
          6    1    1    2  501    0  0.30350316673E+03 -0.16837430993E+03 -0.17245969797E+03  0.42401701367E+03  0.17200000000E+03 0.  1.
         -6    1    1    2    0  502 -0.30350316673E+03  0.16837430993E+03 -0.17330416758E+03  0.42436118455E+03  0.17200000000E+03 0.  1.
</event>
<event>
 4    1  0.2889985E+000  0.1797694E+03  0.7818608E-02  0.1168026E+00
         21   -1    0    0  503  502  0.00000000000E+00  0.00000000000E+00  0.98390161478E+02  0.98390161478E+02  0.00000000000E+00 0.  1.
         21   -1    0    0  501  503 -0.00000000000E+00 -0.00000000000E+00 -0.51389993153E+03  0.51389993153E+03  0.00000000000E+00 0. -1.
          6    1    1    2  501    0 -0.41807469179E+02 -0.31387193261E+02 -0.23850489347E+02  0.18134460627E+03  0.17200000000E+03 0.  1.
         -6    1    1    2    0  502  0.41807469179E+02  0.31387193261E+02 -0.39165928070E+03  0.43094548674E+03  0.17200000000E+03 0. -1.
</event>
<event>
 4    1  0.2889985E+000  0.2162781E+03  0.7818608E-02  0.1136689E+00
         21   -1    0    0  501  502  0.00000000000E+00  0.00000000000E+00  0.16996324581E+03  0.16996324581E+03  0.00000000000E+00 0. -1.
         21   -1    0    0  502  503 -0.00000000000E+00 -0.00000000000E+00 -0.27957017990E+03  0.27957017990E+03  0.00000000000E+00 0.  1.
          6    1    1    2  501    0 -0.72052954949E+02  0.10954713725E+03 -0.26745422266E+02  0.21792549463E+03  0.17200000000E+03 0. -1.
         -6    1    1    2    0  503  0.72052954949E+02 -0.10954713725E+03 -0.82861511831E+02  0.23160793108E+03  0.17200000000E+03 0.  1.
</event>
<event>
 4    1  0.2889985E+000  0.2112642E+03  0.7818608E-02  0.1140569E+00
         21   -1    0    0  503  502  0.00000000000E+00  0.00000000000E+00  0.21903699205E+03  0.21903699205E+03  0.00000000000E+00 0.  1.
         21   -1    0    0  501  503 -0.00000000000E+00 -0.00000000000E+00 -0.39595800239E+03  0.39595800239E+03  0.00000000000E+00 0.  1.
          6    1    1    2  501    0 -0.11209345369E+03  0.49835768261E+02 -0.30269202379E+03  0.36912735936E+03  0.17200000000E+03 0.  1.
         -6    1    1    2    0  502  0.11209345369E+03 -0.49835768261E+02  0.12577101344E+03  0.24586763508E+03  0.17200000000E+03 0.  1.
</event>
<event>
 4    1  0.2889985E+000  0.2523407E+03  0.7818608E-02  0.1111834E+00
         21   -1    0    0  501  502  0.00000000000E+00  0.00000000000E+00  0.38693449703E+03  0.38693449703E+03  0.00000000000E+00 0. -1.
         21   -1    0    0  502  503 -0.00000000000E+00 -0.00000000000E+00 -0.17024927807E+03  0.17024927807E+03  0.00000000000E+00 0.  1.
          6    1    1    2  501    0  0.20461382635E+02 -0.18350249966E+03  0.57436790682E+02  0.25879493906E+03  0.17200000000E+03 0.  1.
         -6    1    1    2    0  503 -0.20461382635E+02  0.18350249966E+03  0.15924842828E+03  0.29838883603E+03  0.17200000000E+03 0.  1.
</event>
<event>
 4    1  0.2889985E+000  0.1776591E+03  0.7818608E-02  0.1170088E+00
         21   -1    0    0  503  502  0.00000000000E+00  0.00000000000E+00  0.34427897959E+03  0.34427897959E+03  0.00000000000E+00 0. -1.
         21   -1    0    0  501  503 -0.00000000000E+00 -0.00000000000E+00 -0.14189224615E+03  0.14189224615E+03  0.00000000000E+00 0. -1.
          6    1    1    2  501    0 -0.35144159106E+02 -0.27269946979E+02  0.24580191951E+03  0.30328426527E+03  0.17200000000E+03 0. -1.
         -6    1    1    2    0  502  0.35144159106E+02  0.27269946979E+02 -0.43415186068E+02  0.18288696047E+03  0.17200000000E+03 0. -1.
</event>
<event>
 4    1  0.2889985E+000  0.1759588E+03  0.7818608E-02  0.1171772E+00
         21   -1    0    0  501  502  0.00000000000E+00  0.00000000000E+00  0.19974296308E+03  0.19974296308E+03  0.00000000000E+00 0. -1.
         21   -1    0    0  502  503 -0.00000000000E+00 -0.00000000000E+00 -0.18744095212E+03  0.18744095212E+03  0.00000000000E+00 0. -1.
          6    1    1    2  501    0  0.22281888104E+02  0.29681691730E+02  0.86680954374E+02  0.19615063908E+03  0.17200000000E+03 0. -1.
         -6    1    1    2    0  503 -0.22281888104E+02 -0.29681691730E+02 -0.74378943419E+02  0.19103327612E+03  0.17200000000E+03 0. -1.
</event>
<event>
 4    1  0.2889985E+000  0.1814438E+03  0.7818608E-02  0.1166413E+00
         21   -1    0    0  503  502  0.00000000000E+00  0.00000000000E+00  0.26077839094E+03  0.26077839094E+03  0.00000000000E+00 0.  1.
         21   -1    0    0  501  503 -0.00000000000E+00 -0.00000000000E+00 -0.13713411286E+03  0.13713411286E+03  0.00000000000E+00 0.  1.
          6    1    1    2  501    0 -0.49594280174E+02 -0.29635431512E+02  0.57573747016E+01  0.18153511724E+03  0.17200000000E+03 0.  1.
         -6    1    1    2    0  502  0.49594280174E+02  0.29635431512E+02  0.11788690338E+03  0.21637738656E+03  0.17200000000E+03 0.  1.
</event>
<event>
 4    1  0.2889985E+000  0.2596767E+03  0.7818608E-02  0.1107338E+00
         21   -1    0    0  503  502  0.00000000000E+00  0.00000000000E+00  0.38890721683E+02  0.38890721683E+02  0.00000000000E+00 0. -1.
         21   -1    0    0  501  503 -0.00000000000E+00 -0.00000000000E+00 -0.17784976600E+04  0.17784976600E+04  0.00000000000E+00 0. -1.
          6    1    1    2  501    0  0.27830783452E+02 -0.19254466325E+03 -0.10137247638E+04  0.10464558742E+04  0.17200000000E+03 0. -1.
         -6    1    1    2    0  502 -0.27830783452E+02  0.19254466325E+03 -0.72588217454E+03  0.77093250753E+03  0.17200000000E+03 0. -1.
</event>
<event>
 4    1  0.2889985E+000  0.2577977E+03  0.7818608E-02  0.1108474E+00
         21   -1    0    0  503  502  0.00000000000E+00  0.00000000000E+00  0.25818806987E+03  0.25818806987E+03  0.00000000000E+00 0.  1.
         21   -1    0    0  501  503 -0.00000000000E+00 -0.00000000000E+00 -0.29631031784E+03  0.29631031784E+03  0.00000000000E+00 0.  1.
          6    1    1    2  501    0  0.71458622692E+02  0.17823956106E+03 -0.11951914489E+03  0.28415577045E+03  0.17200000000E+03 0.  1.
         -6    1    1    2    0  502 -0.71458622692E+02 -0.17823956106E+03  0.81396896924E+02  0.27034261727E+03  0.17200000000E+03 0.  1.
</event>
<event>
 4    1  0.2889985E+000  0.1762393E+03  0.7818608E-02  0.1171493E+00
         21   -1    0    0  503  502  0.00000000000E+00  0.00000000000E+00  0.16616587266E+03  0.16616587266E+03  0.00000000000E+00 0. -1.
         21   -1    0    0  501  503 -0.00000000000E+00 -0.00000000000E+00 -0.37274021098E+03  0.37274021098E+03  0.00000000000E+00 0. -1.
          6    1    1    2  501    0  0.57430183394E+01  0.37990948259E+02 -0.29353619281E+03  0.34237960058E+03  0.17200000000E+03 0. -1.
         -6    1    1    2    0  502 -0.57430183394E+01 -0.37990948259E+02  0.86961854482E+02  0.19652648306E+03  0.17200000000E+03 0. -1.
</event>
<event>
 4    1  0.2889985E+000  0.1725368E+03  0.7818608E-02  0.1175228E+00
         21   -1    0    0  501  502  0.00000000000E+00  0.00000000000E+00  0.12254436378E+03  0.12254436378E+03  0.00000000000E+00 0. -1.
         21   -1    0    0  502  503 -0.00000000000E+00 -0.00000000000E+00 -0.42435325085E+03  0.42435325085E+03  0.00000000000E+00 0. -1.
          6    1    1    2  501    0  0.43065918438E+01 -0.12900256120E+02  0.27894914996E+02  0.17477725717E+03  0.17200000000E+03 0. -1.
         -6    1    1    2    0  503 -0.43065918438E+01  0.12900256120E+02 -0.32970380207E+03  0.37212035747E+03  0.17200000000E+03 0. -1.
</event>
<event>
 4    1  0.2889985E+000  0.1793392E+03  0.7818608E-02  0.1168444E+00
         21   -1    0    0  501  502  0.00000000000E+00  0.00000000000E+00  0.18613515256E+03  0.18613515256E+03  0.00000000000E+00 0. -1.
         21   -1    0    0  502  503 -0.00000000000E+00 -0.00000000000E+00 -0.17514643386E+03  0.17514643386E+03  0.00000000000E+00 0. -1.
          6    1    1    2  501    0  0.48878319173E+02  0.13764724501E+02 -0.15452152710E+02  0.18000368538E+03  0.17200000000E+03 0. -1.
         -6    1    1    2    0  503 -0.48878319173E+02 -0.13764724501E+02  0.26440871410E+02  0.18127790104E+03  0.17200000000E+03 0. -1.
</event>
<event>
 4    1  0.2889985E+000  0.2092870E+03  0.7818608E-02  0.1142132E+00
         21   -1    0    0  501  502  0.00000000000E+00  0.00000000000E+00  0.27184843599E+03  0.27184843599E+03  0.00000000000E+00 0.  1.
         21   -1    0    0  502  503 -0.00000000000E+00 -0.00000000000E+00 -0.26748603177E+03  0.26748603177E+03  0.00000000000E+00 0.  1.
          6    1    1    2  501    0 -0.47432924122E+02 -0.10939445908E+03  0.17222978706E+03  0.27104267103E+03  0.17200000000E+03 0.  1.
         -6    1    1    2    0  503  0.47432924122E+02  0.10939445908E+03 -0.16786738284E+03  0.26829179672E+03  0.17200000000E+03 0.  1.
</event>
<event>
 4    1  0.2889985E+000  0.3212320E+03  0.7818608E-02  0.1075084E+00
         21   -1    0    0  503  502  0.00000000000E+00  0.00000000000E+00  0.12588023777E+04  0.12588023777E+04  0.00000000000E+00 0. -1.
         21   -1    0    0  501  503 -0.00000000000E+00 -0.00000000000E+00 -0.30739301938E+03  0.30739301938E+03  0.00000000000E+00 0.  1.
          6    1    1    2  501    0  0.10517326325E+03 -0.25008915152E+03 -0.19489526261E+03  0.37573150306E+03  0.17200000000E+03 0.  1.
         -6    1    1    2    0  502 -0.10517326325E+03  0.25008915152E+03  0.11463046209E+04  0.11904638940E+04  0.17200000000E+03 0. -1.
</event>
<event>
 4    1  0.2889985E+000  0.1970399E+03  0.7818608E-02  0.1152261E+00
         21   -1    0    0  501  502  0.00000000000E+00  0.00000000000E+00  0.95262804840E+02  0.95262804840E+02  0.00000000000E+00 0. -1.
         21   -1    0    0  502  503 -0.00000000000E+00 -0.00000000000E+00 -0.48838755630E+03  0.48838755630E+03  0.00000000000E+00 0.  1.
          6    1    1    2  501    0  0.88585060113E+02 -0.37328285143E+02 -0.77838799154E+02  0.21185748134E+03  0.17200000000E+03 0. -1.
         -6    1    1    2    0  503 -0.88585060113E+02  0.37328285143E+02 -0.31528595231E+03  0.37179287980E+03  0.17200000000E+03 0.  1.
</event>
<event>
 4    1  0.2889985E+000  0.1913153E+03  0.7818608E-02  0.1157280E+00
         21   -1    0    0  501  502  0.00000000000E+00  0.00000000000E+00  0.42811535755E+03  0.42811535755E+03  0.00000000000E+00 0. -1.
         21   -1    0    0  502  503 -0.00000000000E+00 -0.00000000000E+00 -0.86063379036E+02  0.86063379036E+02  0.00000000000E+00 0. -1.
          6    1    1    2  501    0 -0.80561169441E+02 -0.22965986646E+02  0.19192655399E+03  0.27099324843E+03  0.17200000000E+03 0. -1.
         -6    1    1    2    0  503  0.80561169441E+02  0.22965986646E+02  0.15012542452E+03  0.24318548816E+03  0.17200000000E+03 0. -1.
</event>
<event>
 4    1  0.2889985E+000  0.2679007E+03  0.7818608E-02  0.1102487E+00
         21   -1    0    0  501  502  0.00000000000E+00  0.00000000000E+00  0.18118575662E+03  0.18118575662E+03  0.00000000000E+00 0.  1.
         21   -1    0    0  502  503 -0.00000000000E+00 -0.00000000000E+00 -0.50902835081E+03  0.50902835081E+03  0.00000000000E+00 0. -1.
          6    1    1    2  501    0 -0.46547497603E+02  0.20005033278E+03 -0.13847030594E+01  0.26790431609E+03  0.17200000000E+03 0.  1.
         -6    1    1    2    0  503  0.46547497603E+02 -0.20005033278E+03 -0.32645789113E+03  0.42230979134E+03  0.17200000000E+03 0. -1.
</event>
<event>
 4    1  0.2889985E+000  0.1952589E+03  0.7818608E-02  0.1153802E+00
         21   -1    0    0  501  502  0.00000000000E+00  0.00000000000E+00  0.31582715232E+02  0.31582715232E+02  0.00000000000E+00 0. -1.
         21   -1    0    0  502  503 -0.00000000000E+00 -0.00000000000E+00 -0.18298093617E+04  0.18298093617E+04  0.00000000000E+00 0. -1.
          6    1    1    2  501    0 -0.73434611123E+02 -0.56119345458E+02 -0.35621346074E+03  0.40621921749E+03  0.17200000000E+03 0. -1.
         -6    1    1    2    0  503  0.73434611123E+02  0.56119345458E+02 -0.14420131858E+04  0.14551728595E+04  0.17200000000E+03 0. -1.
</event>
<event>
 4    1  0.2889985E+000  0.1835584E+03  0.7818608E-02  0.1164403E+00
         21   -1    0    0  501  502  0.00000000000E+00  0.00000000000E+00  0.28149949656E+03  0.28149949656E+03  0.00000000000E+00 0. -1.
         21   -1    0    0  502  503 -0.00000000000E+00 -0.00000000000E+00 -0.12817711318E+03  0.12817711318E+03  0.00000000000E+00 0. -1.
          6    1    1    2  501    0  0.50633720945E+02 -0.39318077565E+02  0.12935918676E+03  0.22456064686E+03  0.17200000000E+03 0. -1.
         -6    1    1    2    0  503 -0.50633720945E+02  0.39318077565E+02  0.23963196619E+02  0.18511596288E+03  0.17200000000E+03 0. -1.
</event>
<event>
 4    1  0.2889985E+000  0.1879492E+03  0.7818608E-02  0.1160324E+00
         21   -1    0    0  501  502  0.00000000000E+00  0.00000000000E+00  0.47475208014E+03  0.47475208014E+03  0.00000000000E+00 0. -1.
         21   -1    0    0  502  503 -0.00000000000E+00 -0.00000000000E+00 -0.14305409467E+03  0.14305409467E+03  0.00000000000E+00 0. -1.
          6    1    1    2  501    0 -0.75723584284E+02  0.26146749764E+01  0.37983385509E+03  0.42379081540E+03  0.17200000000E+03 0. -1.
         -6    1    1    2    0  503  0.75723584284E+02 -0.26146749764E+01 -0.48135869617E+02  0.19401535941E+03  0.17200000000E+03 0. -1.
</event>
<event>
 4    1  0.2889985E+000  0.1800405E+03  0.7818608E-02  0.1167764E+00
         21   -1    0    0  503  502  0.00000000000E+00  0.00000000000E+00  0.19111925068E+03  0.19111925068E+03  0.00000000000E+00 0. -1.
         21   -1    0    0  501  503 -0.00000000000E+00 -0.00000000000E+00 -0.71108211274E+03  0.71108211274E+03  0.00000000000E+00 0.  1.
          6    1    1    2  501    0  0.45528501888E+00 -0.53201154871E+02 -0.65362585138E+03  0.67796852711E+03  0.17200000000E+03 0.  1.
         -6    1    1    2    0  502 -0.45528501888E+00  0.53201154871E+02  0.13366298932E+03  0.22423283631E+03  0.17200000000E+03 0. -1.
</event>
<event>
 4    1  0.2889985E+000  0.1743709E+03  0.7818608E-02  0.1173365E+00
         21   -1    0    0  501  502  0.00000000000E+00  0.00000000000E+00  0.13781455614E+04  0.13781455614E+04  0.00000000000E+00 0. -1.
         21   -1    0    0  502  503 -0.00000000000E+00 -0.00000000000E+00 -0.30924600315E+02  0.30924600315E+02  0.00000000000E+00 0. -1.
          6    1    1    2  501    0 -0.15392668327E+02 -0.24171471059E+02  0.10507668393E+04  0.10651366789E+04  0.17200000000E+03 0. -1.
         -6    1    1    2    0  503  0.15392668327E+02  0.24171471059E+02  0.29645412179E+03  0.34393348278E+03  0.17200000000E+03 0. -1.
</event>
<event>
 4    1  0.2889985E+000  0.2961823E+03  0.7818608E-02  0.1087165E+00
         21   -1    0    0  503  502  0.00000000000E+00  0.00000000000E+00  0.16664255970E+03  0.16664255970E+03  0.00000000000E+00 0.  1.
         21   -1    0    0  501  503 -0.00000000000E+00 -0.00000000000E+00 -0.52642758626E+03  0.52642758626E+03  0.00000000000E+00 0.  1.
          6    1    1    2  501    0 -0.23079700338E+03 -0.69804831553E+02 -0.17857441038E+03  0.34585082235E+03  0.17200000000E+03 0.  1.
         -6    1    1    2    0  502  0.23079700338E+03  0.69804831553E+02 -0.18121061617E+03  0.34721932362E+03  0.17200000000E+03 0.  1.
</event>
<event>
 4    1  0.2889985E+000  0.1853734E+03  0.7818608E-02  0.1162702E+00
         21   -1    0    0  503  502  0.00000000000E+00  0.00000000000E+00  0.10626992861E+03  0.10626992861E+03  0.00000000000E+00 0.  1.
         21   -1    0    0  501  503 -0.00000000000E+00 -0.00000000000E+00 -0.33683138362E+03  0.33683138362E+03  0.00000000000E+00 0.  1.
          6    1    1    2  501    0  0.48327380200E+02  0.49434423271E+02 -0.15959004367E+03  0.24460637751E+03  0.17200000000E+03 0.  1.
         -6    1    1    2    0  502 -0.48327380200E+02 -0.49434423271E+02 -0.70971411330E+02  0.19849493471E+03  0.17200000000E+03 0.  1.
</event>
<event>
 4    1  0.2889985E+000  0.2594033E+03  0.7818608E-02  0.1107502E+00
         21   -1    0    0  503  502  0.00000000000E+00  0.00000000000E+00  0.25602623093E+04  0.25602623093E+04  0.00000000000E+00 0. -1.
         21   -1    0    0  501  503 -0.00000000000E+00 -0.00000000000E+00 -0.37213780048E+02  0.37213780048E+02  0.00000000000E+00 0. -1.
          6    1    1    2  501    0 -0.16806164759E+03 -0.97269485369E+02  0.55763333997E+03  0.61501626972E+03  0.17200000000E+03 0. -1.
         -6    1    1    2    0  502  0.16806164759E+03  0.97269485369E+02  0.19654151893E+04  0.19824598196E+04  0.17200000000E+03 0. -1.
</event>
<event>
 4    1  0.2889985E+000  0.1823130E+03  0.7818608E-02  0.1165583E+00
         21   -1    0    0  503  502  0.00000000000E+00  0.00000000000E+00  0.93509510907E+03  0.93509510907E+03  0.00000000000E+00 0. -1.
         21   -1    0    0  501  503 -0.00000000000E+00 -0.00000000000E+00 -0.35930659578E+02  0.35930659578E+02  0.00000000000E+00 0. -1.
          6    1    1    2  501    0 -0.60379469992E+02 -0.28903199591E+01  0.49987699580E+03  0.53208556199E+03  0.17200000000E+03 0.  1.
         -6    1    1    2    0  502  0.60379469992E+02  0.28903199591E+01  0.39928745369E+03  0.43894020665E+03  0.17200000000E+03 0.  1.
</event>
<event>
 4    1  0.2889985E+000  0.2132422E+03  0.7818608E-02  0.1139024E+00
         21   -1    0    0  503  502  0.00000000000E+00  0.00000000000E+00  0.22749578356E+03  0.22749578356E+03  0.00000000000E+00 0.  1.
         21   -1    0    0  501  503 -0.00000000000E+00 -0.00000000000E+00 -0.22018688654E+03  0.22018688654E+03  0.00000000000E+00 0. -1.
          6    1    1    2  501    0 -0.82722821457E+02 -0.95106039836E+02 -0.64320516419E+02  0.22273157126E+03  0.17200000000E+03 0. -1.
         -6    1    1    2    0  502  0.82722821457E+02  0.95106039836E+02  0.71629413440E+02  0.22495109885E+03  0.17200000000E+03 0.  1.
</event>
<event>
 4    1  0.2889985E+000  0.1788504E+03  0.7818608E-02  0.1168920E+00
         21   -1    0    0  501  502  0.00000000000E+00  0.00000000000E+00  0.27870199533E+02  0.27870199533E+02  0.00000000000E+00 0.  1.
         21   -1    0    0  502  503 -0.00000000000E+00 -0.00000000000E+00 -0.11539706349E+04  0.11539706349E+04  0.00000000000E+00 0.  1.
          6    1    1    2  501    0 -0.47692121228E+02  0.11354160389E+02 -0.51959350232E+03  0.54951329651E+03  0.17200000000E+03 0.  1.
         -6    1    1    2    0  503  0.47692121228E+02 -0.11354160389E+02 -0.60650693307E+03  0.63232753794E+03  0.17200000000E+03 0.  1.
</event>
<event>
 4    1  0.2889985E+000  0.2428901E+03  0.7818608E-02  0.1117882E+00
         21   -1    0    0  501  502  0.00000000000E+00  0.00000000000E+00  0.11241348063E+03  0.11241348063E+03  0.00000000000E+00 0.  1.
         21   -1    0    0  502  503 -0.00000000000E+00 -0.00000000000E+00 -0.86697829574E+03  0.86697829574E+03  0.00000000000E+00 0. -1.
          6    1    1    2  501    0  0.16997887349E+03 -0.22776467623E+02 -0.69642279292E+02  0.25267693202E+03  0.17200000000E+03 0.  1.
         -6    1    1    2    0  503 -0.16997887349E+03  0.22776467623E+02 -0.68492253583E+03  0.72671484435E+03  0.17200000000E+03 0. -1.
</event>
<event>
 4    1  0.2889985E+000  0.2513024E+03  0.7818608E-02  0.1112484E+00
         21   -1    0    0  501  502  0.00000000000E+00  0.00000000000E+00  0.10733149594E+03  0.10733149594E+03  0.00000000000E+00 0. -1.
         21   -1    0    0  502  503 -0.00000000000E+00 -0.00000000000E+00 -0.59690367205E+03  0.59690367205E+03  0.00000000000E+00 0.  1.
          6    1    1    2  501    0  0.11822475252E+03 -0.13997075042E+03 -0.28683594609E+03  0.38134992206E+03  0.17200000000E+03 0.  1.
         -6    1    1    2    0  503 -0.11822475252E+03  0.13997075042E+03 -0.20273623001E+03  0.32288524594E+03  0.17200000000E+03 0.  1.
</event>
<event>
 4    1  0.2889985E+000  0.3020553E+03  0.7818608E-02  0.1084218E+00
         21   -1    0    0  501  502  0.00000000000E+00  0.00000000000E+00  0.45780675990E+03  0.45780675990E+03  0.00000000000E+00 0.  1.
         21   -1    0    0  502  503 -0.00000000000E+00 -0.00000000000E+00 -0.25578747460E+03  0.25578747460E+03  0.00000000000E+00 0.  1.
          6    1    1    2  501    0  0.40294520930E+02  0.24500965481E+03  0.26869194665E+03  0.40426815551E+03  0.17200000000E+03 0.  1.
         -6    1    1    2    0  503 -0.40294520930E+02 -0.24500965481E+03 -0.66672661355E+02  0.30932607898E+03  0.17200000000E+03 0.  1.
</event>
<event>
 4    1  0.2889985E+000  0.1867413E+03  0.7818608E-02  0.1161434E+00
         21   -1    0    0  503  502  0.00000000000E+00  0.00000000000E+00  0.13508895060E+03  0.13508895060E+03  0.00000000000E+00 0.  1.
         21   -1    0    0  501  503 -0.00000000000E+00 -0.00000000000E+00 -0.25940261464E+03  0.25940261464E+03  0.00000000000E+00 0. -1.
          6    1    1    2  501    0  0.60312364621E+02  0.40628977492E+02 -0.75900525360E+02  0.20157674689E+03  0.17200000000E+03 0. -1.
         -6    1    1    2    0  502 -0.60312364621E+02 -0.40628977492E+02 -0.48413138678E+02  0.19291481834E+03  0.17200000000E+03 0.  1.
</event>
<event>
 4    1  0.2889985E+000  0.2355000E+03  0.7818608E-02  0.1122827E+00
         21   -1    0    0  503  502  0.00000000000E+00  0.00000000000E+00  0.18475049059E+03  0.18475049059E+03  0.00000000000E+00 0.  1.
         21   -1    0    0  501  503 -0.00000000000E+00 -0.00000000000E+00 -0.40626800532E+03  0.40626800532E+03  0.00000000000E+00 0.  1.
          6    1    1    2  501    0 -0.15416219072E+03 -0.45937835607E+02 -0.26175886631E+03  0.35210505518E+03  0.17200000000E+03 0.  1.
         -6    1    1    2    0  502  0.15416219072E+03  0.45937835607E+02  0.40241351580E+02  0.23891344073E+03  0.17200000000E+03 0.  1.
</event>
<event>
 4    1  0.2889985E+000  0.1892770E+03  0.7818608E-02  0.1159115E+00
         21   -1    0    0  503  502  0.00000000000E+00  0.00000000000E+00  0.59924836235E+02  0.59924836235E+02  0.00000000000E+00 0. -1.
         21   -1    0    0  501  503 -0.00000000000E+00 -0.00000000000E+00 -0.62816178169E+03  0.62816178169E+03  0.00000000000E+00 0. -1.
          6    1    1    2  501    0  0.54451666009E+02 -0.57243305199E+02 -0.20853671760E+03  0.28162624613E+03  0.17200000000E+03 0. -1.
         -6    1    1    2    0  502 -0.54451666009E+02  0.57243305199E+02 -0.35970022785E+03  0.40646037179E+03  0.17200000000E+03 0. -1.
</event>
<event>
 4    1  0.2889985E+000  0.2335762E+03  0.7818608E-02  0.1124148E+00
         21   -1    0    0  503  502  0.00000000000E+00  0.00000000000E+00  0.34205431042E+02  0.34205431042E+02  0.00000000000E+00 0.  1.
         21   -1    0    0  501  503 -0.00000000000E+00 -0.00000000000E+00 -0.28283690964E+04  0.28283690964E+04  0.00000000000E+00 0. -1.
          6    1    1    2  501    0  0.14955089785E+03  0.51072151004E+02 -0.23422398119E+04  0.23538575089E+04  0.17200000000E+03 0. -1.
         -6    1    1    2    0  502 -0.14955089785E+03 -0.51072151004E+02 -0.45192385350E+03  0.50871701860E+03  0.17200000000E+03 0.  1.
</event>
<event>
 4    1  0.2889985E+000  0.1726210E+03  0.7818608E-02  0.1175142E+00
         21   -1    0    0  503  502  0.00000000000E+00  0.00000000000E+00  0.16700161698E+03  0.16700161698E+03  0.00000000000E+00 0.  1.
         21   -1    0    0  501  503 -0.00000000000E+00 -0.00000000000E+00 -0.20039361104E+03  0.20039361104E+03  0.00000000000E+00 0.  1.
          6    1    1    2  501    0 -0.25132165407E+00  0.14626720225E+02  0.44120169434E+02  0.17817012504E+03  0.17200000000E+03 0.  1.
         -6    1    1    2    0  502  0.25132165407E+00 -0.14626720225E+02 -0.77512163490E+02  0.18922510298E+03  0.17200000000E+03 0.  1.
</event>
<event>
 4    1  0.2889985E+000  0.1906956E+03  0.7818608E-02  0.1157835E+00
         21   -1    0    0  503  502  0.00000000000E+00  0.00000000000E+00  0.20341152112E+02  0.20341152112E+02  0.00000000000E+00 0.  1.
         21   -1    0    0  501  503 -0.00000000000E+00 -0.00000000000E+00 -0.18405187216E+04  0.18405187216E+04  0.00000000000E+00 0. -1.
          6    1    1    2  501    0 -0.63407320736E+02 -0.52538635977E+02 -0.75253759526E+03  0.77632314720E+03  0.17200000000E+03 0.  1.
         -6    1    1    2    0  502  0.63407320736E+02  0.52538635977E+02 -0.10676399743E+04  0.10845367265E+04  0.17200000000E+03 0.  1.
</event>
<event>
 4    1  0.2889985E+000  0.2550189E+03  0.7818608E-02  0.1110173E+00
         21   -1    0    0  503  502  0.00000000000E+00  0.00000000000E+00  0.15324604835E+03  0.15324604835E+03  0.00000000000E+00 0. -1.
         21   -1    0    0  501  503 -0.00000000000E+00 -0.00000000000E+00 -0.15453679548E+04  0.15453679548E+04  0.00000000000E+00 0. -1.
          6    1    1    2  501    0 -0.14494186099E+03  0.12017694615E+03 -0.14194120108E+04  0.14421390702E+04  0.17200000000E+03 0. -1.
         -6    1    1    2    0  502  0.14494186099E+03 -0.12017694615E+03  0.27290104305E+02  0.25647493298E+03  0.17200000000E+03 0. -1.
</event>
<event>
 4    1  0.2889985E+000  0.2086804E+03  0.7818608E-02  0.1142615E+00
         21   -1    0    0  501  502  0.00000000000E+00  0.00000000000E+00  0.89311005111E+02  0.89311005111E+02  0.00000000000E+00 0. -1.
         21   -1    0    0  502  503 -0.00000000000E+00 -0.00000000000E+00 -0.59917479318E+03  0.59917479318E+03  0.00000000000E+00 0. -1.
          6    1    1    2  501    0 -0.81053268499E+02  0.85987654573E+02 -0.10637836595E+03  0.23423036911E+03  0.17200000000E+03 0. -1.
         -6    1    1    2    0  503  0.81053268499E+02 -0.85987654573E+02 -0.40348542212E+03  0.45425542918E+03  0.17200000000E+03 0. -1.
</event>
<event>
 4    1  0.2889985E+000  0.1721475E+03  0.7818608E-02  0.1175627E+00
         21   -1    0    0  501  502  0.00000000000E+00  0.00000000000E+00  0.85333886359E+03  0.85333886359E+03  0.00000000000E+00 0. -1.
         21   -1    0    0  502  503 -0.00000000000E+00 -0.00000000000E+00 -0.67045109466E+02  0.67045109466E+02  0.00000000000E+00 0. -1.
          6    1    1    2  501    0 -0.57929696039E+01  0.41493189063E+01  0.71264739834E+03  0.73314465810E+03  0.17200000000E+03 0. -1.
         -6    1    1    2    0  503  0.57929696039E+01 -0.41493189063E+01  0.73646355786E+02  0.18723931495E+03  0.17200000000E+03 0. -1.
</event>
<event>
 4    1  0.2889985E+000  0.1751898E+03  0.7818608E-02  0.1172541E+00
         21   -1    0    0  503  502  0.00000000000E+00  0.00000000000E+00  0.15868491310E+03  0.15868491310E+03  0.00000000000E+00 0. -1.
         21   -1    0    0  501  503 -0.00000000000E+00 -0.00000000000E+00 -0.84735764930E+03  0.84735764930E+03  0.00000000000E+00 0. -1.
          6    1    1    2  501    0  0.31451757904E+02  0.10873840354E+02 -0.78623641290E+03  0.80551793925E+03  0.17200000000E+03 0. -1.
         -6    1    1    2    0  502 -0.31451757904E+02 -0.10873840354E+02  0.97563676700E+02  0.20052462315E+03  0.17200000000E+03 0. -1.
</event>
<event>
 4    1  0.2889985E+000  0.2140053E+03  0.7818608E-02  0.1138433E+00
         21   -1    0    0  503  502  0.00000000000E+00  0.00000000000E+00  0.35172375029E+03  0.35172375029E+03  0.00000000000E+00 0. -1.
         21   -1    0    0  501  503 -0.00000000000E+00 -0.00000000000E+00 -0.19452346047E+03  0.19452346047E+03  0.00000000000E+00 0. -1.
          6    1    1    2  501    0 -0.10324348865E+02  0.12691605888E+03 -0.78443738972E+02  0.22792915207E+03  0.17200000000E+03 0. -1.
         -6    1    1    2    0  502  0.10324348865E+02 -0.12691605888E+03  0.23564402880E+03  0.31831805869E+03  0.17200000000E+03 0. -1.
</event>
<event>
 4    1  0.2889985E+000  0.1845574E+03  0.7818608E-02  0.1163464E+00
         21   -1    0    0  503  502  0.00000000000E+00  0.00000000000E+00  0.47350481373E+02  0.47350481373E+02  0.00000000000E+00 0. -1.
         21   -1    0    0  501  503 -0.00000000000E+00 -0.00000000000E+00 -0.72394010513E+03  0.72394010513E+03  0.00000000000E+00 0. -1.
          6    1    1    2  501    0  0.28329251025E+02  0.60620765719E+02 -0.36901281142E+03  0.41259166096E+03  0.17200000000E+03 0. -1.
         -6    1    1    2    0  502 -0.28329251025E+02 -0.60620765719E+02 -0.30757681233E+03  0.35869892554E+03  0.17200000000E+03 0. -1.
</event>
<event>
 4    1  0.2889985E+000  0.2330575E+03  0.7818608E-02  0.1124506E+00
         21   -1    0    0  501  502  0.00000000000E+00  0.00000000000E+00  0.27620029990E+03  0.27620029990E+03  0.00000000000E+00 0. -1.
         21   -1    0    0  502  503 -0.00000000000E+00 -0.00000000000E+00 -0.46916293860E+03  0.46916293860E+03  0.00000000000E+00 0.  1.
          6    1    1    2  501    0  0.93376206616E+02  0.12654126983E+03  0.18755033655E+03  0.29915035964E+03  0.17200000000E+03 0. -1.
         -6    1    1    2    0  503 -0.93376206616E+02 -0.12654126983E+03 -0.38051297524E+03  0.44621287886E+03  0.17200000000E+03 0.  1.
</event>
<event>
 4    1  0.2889985E+000  0.3172103E+03  0.7818608E-02  0.1076940E+00
         21   -1    0    0  503  502  0.00000000000E+00  0.00000000000E+00  0.14475560994E+03  0.14475560994E+03  0.00000000000E+00 0.  1.
         21   -1    0    0  501  503 -0.00000000000E+00 -0.00000000000E+00 -0.79254017395E+03  0.79254017395E+03  0.00000000000E+00 0. -1.
          6    1    1    2  501    0 -0.24556389394E+03  0.10361840872E+03 -0.15958292094E+03  0.35509028329E+03  0.17200000000E+03 0.  1.
         -6    1    1    2    0  502  0.24556389394E+03 -0.10361840872E+03 -0.48820164307E+03  0.58220550060E+03  0.17200000000E+03 0.  1.
</event>
<event>
 4    1  0.2889985E+000  0.1880153E+03  0.7818608E-02  0.1160264E+00
         21   -1    0    0  503  502  0.00000000000E+00  0.00000000000E+00  0.19050245599E+03  0.19050245599E+03  0.00000000000E+00 0.  1.
         21   -1    0    0  501  503 -0.00000000000E+00 -0.00000000000E+00 -0.21127052711E+03  0.21127052711E+03  0.00000000000E+00 0. -1.
          6    1    1    2  501    0 -0.72509390787E+02  0.22542153088E+02 -0.80461961278E+02  0.20450889377E+03  0.17200000000E+03 0. -1.
         -6    1    1    2    0  502  0.72509390787E+02 -0.22542153088E+02  0.59693890161E+02  0.19726408933E+03  0.17200000000E+03 0.  1.
</event>
<event>
 4    1  0.2889985E+000  0.2042071E+03  0.7818608E-02  0.1146237E+00
         21   -1    0    0  501  502  0.00000000000E+00  0.00000000000E+00  0.10566403455E+04  0.10566403455E+04  0.00000000000E+00 0.  1.
         21   -1    0    0  502  503 -0.00000000000E+00 -0.00000000000E+00 -0.39603483983E+02  0.39603483983E+02  0.00000000000E+00 0.  1.
          6    1    1    2  501    0  0.48432600196E+02 -0.98847387113E+02  0.54090733141E+03  0.57817061831E+03  0.17200000000E+03 0.  1.
         -6    1    1    2    0  503 -0.48432600196E+02  0.98847387113E+02  0.47612953014E+03  0.51807321121E+03  0.17200000000E+03 0.  1.
</event>
<event>
 4    1  0.2889985E+000  0.1747577E+03  0.7818608E-02  0.1172975E+00
         21   -1    0    0  501  502  0.00000000000E+00  0.00000000000E+00  0.20487110212E+04  0.20487110212E+04  0.00000000000E+00 0. -1.
         21   -1    0    0  502  503 -0.00000000000E+00 -0.00000000000E+00 -0.39945467021E+02  0.39945467021E+02  0.00000000000E+00 0. -1.
          6    1    1    2  501    0  0.25726114207E+02  0.17158314058E+02  0.18311946292E+04  0.18395146128E+04  0.17200000000E+03 0. -1.
         -6    1    1    2    0  503 -0.25726114207E+02 -0.17158314058E+02  0.17757092500E+03  0.24914187544E+03  0.17200000000E+03 0. -1.
</event>
<event>
 4    1  0.2889985E+000  0.1817648E+03  0.7818608E-02  0.1166106E+00
         21   -1    0    0  501  502  0.00000000000E+00  0.00000000000E+00  0.16491326442E+03  0.16491326442E+03  0.00000000000E+00 0. -1.
         21   -1    0    0  502  503 -0.00000000000E+00 -0.00000000000E+00 -0.25891901227E+03  0.25891901227E+03  0.00000000000E+00 0. -1.
          6    1    1    2  501    0  0.29606375618E+02  0.50773042446E+02  0.53796879152E+02  0.18955881283E+03  0.17200000000E+03 0. -1.
         -6    1    1    2    0  503 -0.29606375618E+02 -0.50773042446E+02 -0.14780262701E+03  0.23427346386E+03  0.17200000000E+03 0. -1.
</event>
<event>
 4    1  0.2889985E+000  0.1837017E+03  0.7818608E-02  0.1164268E+00
         21   -1    0    0  503  502  0.00000000000E+00  0.00000000000E+00  0.31201656679E+02  0.31201656679E+02  0.00000000000E+00 0.  1.
         21   -1    0    0  501  503 -0.00000000000E+00 -0.00000000000E+00 -0.12076022729E+04  0.12076022729E+04  0.00000000000E+00 0.  1.
          6    1    1    2  501    0  0.31700008245E+02 -0.56190912229E+02 -0.78831421462E+03  0.80943536500E+03  0.17200000000E+03 0.  1.
         -6    1    1    2    0  502 -0.31700008245E+02  0.56190912229E+02 -0.38808640158E+03  0.42936856456E+03  0.17200000000E+03 0.  1.
</event>
<event>
 4    1  0.2889985E+000  0.2202675E+03  0.7818608E-02  0.1133684E+00
         21   -1    0    0  501  502  0.00000000000E+00  0.00000000000E+00  0.24588017799E+03  0.24588017799E+03  0.00000000000E+00 0.  1.
         21   -1    0    0  502  503 -0.00000000000E+00 -0.00000000000E+00 -0.20990418782E+03  0.20990418782E+03  0.00000000000E+00 0.  1.
          6    1    1    2  501    0  0.35278298747E+02  0.13300086505E+03  0.73781226742E+02  0.23229605655E+03  0.17200000000E+03 0.  1.
         -6    1    1    2    0  503 -0.35278298747E+02 -0.13300086505E+03 -0.37805236570E+02  0.22348830927E+03  0.17200000000E+03 0.  1.
</event>
<event>
 4    1  0.2889985E+000  0.2816871E+03  0.7818608E-02  0.1094771E+00
         21   -1    0    0  501  502  0.00000000000E+00  0.00000000000E+00  0.44527594995E+03  0.44527594995E+03  0.00000000000E+00 0. -1.
         21   -1    0    0  502  503 -0.00000000000E+00 -0.00000000000E+00 -0.21177260464E+03  0.21177260464E+03  0.00000000000E+00 0.  1.
          6    1    1    2  501    0  0.32211561552E+02  0.22073971485E+03  0.24755938371E+03  0.37501100633E+03  0.17200000000E+03 0. -1.
         -6    1    1    2    0  503 -0.32211561552E+02 -0.22073971485E+03 -0.14056038396E+02  0.28203754826E+03  0.17200000000E+03 0.  1.
</event>
<event>
 4    1  0.2889985E+000  0.1802153E+03  0.7818608E-02  0.1167595E+00
         21   -1    0    0  501  502  0.00000000000E+00  0.00000000000E+00  0.11343383270E+03  0.11343383270E+03  0.00000000000E+00 0.  1.
         21   -1    0    0  502  503 -0.00000000000E+00 -0.00000000000E+00 -0.46979915061E+03  0.46979915061E+03  0.00000000000E+00 0.  1.
          6    1    1    2  501    0 -0.14806326783E+02  0.51713853087E+02  0.40633119436E+01  0.18026108958E+03  0.17200000000E+03 0.  1.
         -6    1    1    2    0  503  0.14806326783E+02 -0.51713853087E+02 -0.36042862985E+03  0.40297189373E+03  0.17200000000E+03 0.  1.
</event>
<event>
 4    1  0.2889985E+000  0.1861919E+03  0.7818608E-02  0.1161942E+00
         21   -1    0    0  501  502  0.00000000000E+00  0.00000000000E+00  0.24984719849E+03  0.24984719849E+03  0.00000000000E+00 0.  1.
         21   -1    0    0  502  503 -0.00000000000E+00 -0.00000000000E+00 -0.19975191443E+03  0.19975191443E+03  0.00000000000E+00 0. -1.
          6    1    1    2  501    0  0.52998736682E+02  0.47692150464E+02  0.14927175753E+03  0.23864087014E+03  0.17200000000E+03 0.  1.
         -6    1    1    2    0  503 -0.52998736682E+02 -0.47692150464E+02 -0.99176473472E+02  0.21095824278E+03  0.17200000000E+03 0. -1.
</event>
<event>
 4    1  0.2889985E+000  0.2803089E+03  0.7818608E-02  0.1095520E+00
         21   -1    0    0  501  502  0.00000000000E+00  0.00000000000E+00  0.22841486225E+03  0.22841486225E+03  0.00000000000E+00 0. -1.
         21   -1    0    0  502  503 -0.00000000000E+00 -0.00000000000E+00 -0.14689530778E+04  0.14689530778E+04  0.00000000000E+00 0.  1.
          6    1    1    2  501    0  0.12367225771E+03  0.18355998716E+03  0.12242607603E+03  0.30587781924E+03  0.17200000000E+03 0. -1.
         -6    1    1    2    0  503 -0.12367225771E+03 -0.18355998716E+03 -0.13629642916E+04  0.13914901209E+04  0.17200000000E+03 0.  1.
</event>
<event>
 4    1  0.2889985E+000  0.2138248E+03  0.7818608E-02  0.1138572E+00
         21   -1    0    0  503  502  0.00000000000E+00  0.00000000000E+00  0.31755755524E+03  0.31755755524E+03  0.00000000000E+00 0.  1.
         21   -1    0    0  501  503 -0.00000000000E+00 -0.00000000000E+00 -0.18106801847E+03  0.18106801847E+03  0.00000000000E+00 0.  1.
          6    1    1    2  501    0  0.87213869074E+02  0.92362285669E+02 -0.44593608291E+02  0.21842536637E+03  0.17200000000E+03 0.  1.
         -6    1    1    2    0  502 -0.87213869074E+02 -0.92362285669E+02  0.18108314505E+03  0.28020020734E+03  0.17200000000E+03 0.  1.
</event>
<event>
 4    1  0.2889985E+000  0.2365276E+03  0.7818608E-02  0.1122128E+00
         21   -1    0    0  503  502  0.00000000000E+00  0.00000000000E+00  0.21458023194E+03  0.21458023194E+03  0.00000000000E+00 0. -1.
         21   -1    0    0  501  503 -0.00000000000E+00 -0.00000000000E+00 -0.27053625928E+03  0.27053625928E+03  0.00000000000E+00 0. -1.
          6    1    1    2  501    0 -0.32835047649E+02 -0.15900684277E+03 -0.74182123630E+02  0.24788768398E+03  0.17200000000E+03 0. -1.
         -6    1    1    2    0  502  0.32835047649E+02  0.15900684277E+03  0.18226096290E+02  0.23722880725E+03  0.17200000000E+03 0. -1.
</event>
<event>
 4    1  0.2889985E+000  0.2072982E+03  0.7818608E-02  0.1143724E+00
         21   -1    0    0  503  502  0.00000000000E+00  0.00000000000E+00  0.81948368938E+02  0.81948368938E+02  0.00000000000E+00 0. -1.
         21   -1    0    0  501  503 -0.00000000000E+00 -0.00000000000E+00 -0.67474063157E+03  0.67474063157E+03  0.00000000000E+00 0. -1.
          6    1    1    2  501    0  0.11134035769E+03  0.31493814201E+02 -0.47499476654E+03  0.51825916666E+03  0.17200000000E+03 0. -1.
         -6    1    1    2    0  502 -0.11134035769E+03 -0.31493814201E+02 -0.11779749609E+03  0.23842983385E+03  0.17200000000E+03 0. -1.
</event>
<event>
 4    1  0.2889985E+000  0.1740459E+03  0.7818608E-02  0.1173693E+00
         21   -1    0    0  503  502  0.00000000000E+00  0.00000000000E+00  0.83136077080E+02  0.83136077080E+02  0.00000000000E+00 0.  1.
         21   -1    0    0  501  503 -0.00000000000E+00 -0.00000000000E+00 -0.43574808294E+03  0.43574808294E+03  0.00000000000E+00 0.  1.
          6    1    1    2  501    0  0.26199747658E+02  0.46423242246E+01 -0.28131260887E+03  0.33080018420E+03  0.17200000000E+03 0. -1.
         -6    1    1    2    0  502 -0.26199747658E+02 -0.46423242246E+01 -0.71299396985E+02  0.18808397582E+03  0.17200000000E+03 0. -1.
</event>
<event>
 4    1  0.2889985E+000  0.1860292E+03  0.7818608E-02  0.1162092E+00
         21   -1    0    0  501  502  0.00000000000E+00  0.00000000000E+00  0.26008202989E+02  0.26008202989E+02  0.00000000000E+00 0. -1.
         21   -1    0    0  502  503 -0.00000000000E+00 -0.00000000000E+00 -0.17195519468E+04  0.17195519468E+04  0.00000000000E+00 0.  1.
          6    1    1    2  501    0  0.70467396883E+02 -0.75637095335E+01 -0.12618574647E+04  0.12754964229E+04  0.17200000000E+03 0.  1.
         -6    1    1    2    0  503 -0.70467396883E+02  0.75637095335E+01 -0.43168627917E+03  0.47006372690E+03  0.17200000000E+03 0. -1.
</event>
<event>
 4    1  0.2889985E+000  0.1846046E+03  0.7818608E-02  0.1163420E+00
         21   -1    0    0  501  502  0.00000000000E+00  0.00000000000E+00  0.87940234896E+03  0.87940234896E+03  0.00000000000E+00 0. -1.
         21   -1    0    0  502  503 -0.00000000000E+00 -0.00000000000E+00 -0.55951796545E+02  0.55951796545E+02  0.00000000000E+00 0. -1.
          6    1    1    2  501    0 -0.45739761111E+02  0.49017517494E+02  0.15242843335E+03  0.23940190070E+03  0.17200000000E+03 0. -1.
         -6    1    1    2    0  503  0.45739761111E+02 -0.49017517494E+02  0.67102211907E+03  0.69595224480E+03  0.17200000000E+03 0. -1.
</event>
<event>
 4    1  0.2889985E+000  0.2245994E+03  0.7818608E-02  0.1130500E+00
         21   -1    0    0  501  502  0.00000000000E+00  0.00000000000E+00  0.37072165347E+03  0.37072165347E+03  0.00000000000E+00 0.  1.
         21   -1    0    0  502  503 -0.00000000000E+00 -0.00000000000E+00 -0.14862125338E+03  0.14862125338E+03  0.00000000000E+00 0.  1.
          6    1    1    2  501    0 -0.93497633477E+02  0.11008661586E+03  0.35594661429E+02  0.22740239748E+03  0.17200000000E+03 0.  1.
         -6    1    1    2    0  503  0.93497633477E+02 -0.11008661586E+03  0.18650573866E+03  0.29194050937E+03  0.17200000000E+03 0.  1.
</event>
<event>
 4    1  0.2889985E+000  0.2457655E+03  0.7818608E-02  0.1116011E+00
         21   -1    0    0  501  502  0.00000000000E+00  0.00000000000E+00  0.43184516545E+03  0.43184516545E+03  0.00000000000E+00 0. -1.
         21   -1    0    0  502  503 -0.00000000000E+00 -0.00000000000E+00 -0.18316816592E+03  0.18316816592E+03  0.00000000000E+00 0. -1.
          6    1    1    2  501    0 -0.48491674123E+02 -0.16871646148E+03  0.27385243217E+03  0.36796173910E+03  0.17200000000E+03 0. -1.
         -6    1    1    2    0  503  0.48491674123E+02  0.16871646148E+03 -0.25175432636E+02  0.24705159227E+03  0.17200000000E+03 0. -1.
</event>
<event>
 4    1  0.2889985E+000  0.2383496E+03  0.7818608E-02  0.1120897E+00
         21   -1    0    0  501  502  0.00000000000E+00  0.00000000000E+00  0.39962074957E+03  0.39962074957E+03  0.00000000000E+00 0.  1.
         21   -1    0    0  502  503 -0.00000000000E+00 -0.00000000000E+00 -0.21218891874E+03  0.21218891874E+03  0.00000000000E+00 0. -1.
          6    1    1    2  501    0 -0.11249687856E+03 -0.12071037309E+03  0.26945168255E+03  0.35974261784E+03  0.17200000000E+03 0.  1.
         -6    1    1    2    0  503  0.11249687856E+03  0.12071037309E+03 -0.82019851714E+02  0.25206705047E+03  0.17200000000E+03 0. -1.
</event>
<event>
 4    1  0.2889985E+000  0.2197767E+03  0.7818608E-02  0.1134050E+00
         21   -1    0    0  503  502  0.00000000000E+00  0.00000000000E+00  0.10212900343E+03  0.10212900343E+03  0.00000000000E+00 0. -1.
         21   -1    0    0  501  503 -0.00000000000E+00 -0.00000000000E+00 -0.53871449480E+03  0.53871449480E+03  0.00000000000E+00 0.  1.
          6    1    1    2  501    0  0.70780759899E+02 -0.11708071956E+03 -0.10633821446E+03  0.24415082781E+03  0.17200000000E+03 0. -1.
         -6    1    1    2    0  502 -0.70780759899E+02  0.11708071956E+03 -0.33024727691E+03  0.39669267043E+03  0.17200000000E+03 0.  1.
</event>
<event>
 4    1  0.2889985E+000  0.1906562E+03  0.7818608E-02  0.1157871E+00
         21   -1    0    0  503  502  0.00000000000E+00  0.00000000000E+00  0.13178336765E+03  0.13178336765E+03  0.00000000000E+00 0.  1.
         21   -1    0    0  501  503 -0.00000000000E+00 -0.00000000000E+00 -0.57176535680E+03  0.57176535680E+03  0.00000000000E+00 0.  1.
          6    1    1    2  501    0 -0.47945838488E+02 -0.66835598688E+02 -0.47306860454E+03  0.51004284651E+03  0.17200000000E+03 0.  1.
         -6    1    1    2    0  502  0.47945838488E+02  0.66835598688E+02  0.33086615382E+02  0.19350587794E+03  0.17200000000E+03 0.  1.
</event>
<event>
 4    1  0.2889985E+000  0.2199229E+03  0.7818608E-02  0.1133941E+00
         21   -1    0    0  501  502  0.00000000000E+00  0.00000000000E+00  0.10340881364E+03  0.10340881364E+03  0.00000000000E+00 0. -1.
         21   -1    0    0  502  503 -0.00000000000E+00 -0.00000000000E+00 -0.47268038294E+03  0.47268038294E+03  0.00000000000E+00 0.  1.
          6    1    1    2  501    0 -0.10377645338E+03  0.89512686986E+02 -0.21415190032E+03  0.30696434617E+03  0.17200000000E+03 0.  1.
         -6    1    1    2    0  503  0.10377645338E+03 -0.89512686986E+02 -0.15511966897E+03  0.26912485041E+03  0.17200000000E+03 0. -1.
</event>
<event>
 4    1  0.2889985E+000  0.2002415E+03  0.7818608E-02  0.1149535E+00
         21   -1    0    0  503  502  0.00000000000E+00  0.00000000000E+00  0.36677920660E+03  0.36677920660E+03  0.00000000000E+00 0.  1.
         21   -1    0    0  501  503 -0.00000000000E+00 -0.00000000000E+00 -0.15296651129E+03  0.15296651129E+03  0.00000000000E+00 0. -1.
          6    1    1    2  501    0  0.14724025227E+02  0.10146848908E+03 -0.31907498117E+02  0.20276769869E+03  0.17200000000E+03 0. -1.
         -6    1    1    2    0  502 -0.14724025227E+02 -0.10146848908E+03  0.24572019343E+03  0.31697801920E+03  0.17200000000E+03 0.  1.
</event>
<event>
 4    1  0.2889985E+000  0.1870336E+03  0.7818608E-02  0.1161164E+00
         21   -1    0    0  503  502  0.00000000000E+00  0.00000000000E+00  0.25439758492E+03  0.25439758492E+03  0.00000000000E+00 0. -1.
         21   -1    0    0  501  503 -0.00000000000E+00 -0.00000000000E+00 -0.13811215492E+03  0.13811215492E+03  0.00000000000E+00 0.  1.
          6    1    1    2  501    0 -0.68649186667E+02 -0.26169642374E+02  0.71128832117E+02  0.20010215334E+03  0.17200000000E+03 0.  1.
         -6    1    1    2    0  502  0.68649186667E+02  0.26169642374E+02  0.45156597875E+02  0.19240758650E+03  0.17200000000E+03 0.  1.
</event>
<event>
 4    1  0.2889985E+000  0.2006097E+03  0.7818608E-02  0.1149226E+00
         21   -1    0    0  501  502  0.00000000000E+00  0.00000000000E+00  0.63593941049E+03  0.63593941049E+03  0.00000000000E+00 0.  1.
         21   -1    0    0  502  503 -0.00000000000E+00 -0.00000000000E+00 -0.63329986421E+02  0.63329986421E+02  0.00000000000E+00 0.  1.
          6    1    1    2  501    0 -0.10319426976E+03  0.33447395891E+01  0.29581370579E+03  0.35742131040E+03  0.17200000000E+03 0.  1.
         -6    1    1    2    0  503  0.10319426976E+03 -0.33447395891E+01  0.27679571827E+03  0.34184808650E+03  0.17200000000E+03 0.  1.
</event>
<event>
 4    1  0.2889985E+000  0.2573169E+03  0.7818608E-02  0.1108766E+00
         21   -1    0    0  501  502  0.00000000000E+00  0.00000000000E+00  0.18973332018E+03  0.18973332018E+03  0.00000000000E+00 0.  1.
         21   -1    0    0  502  503 -0.00000000000E+00 -0.00000000000E+00 -0.50307381210E+03  0.50307381210E+03  0.00000000000E+00 0. -1.
          6    1    1    2  501    0 -0.22028779914E+02  0.19011233321E+03 -0.34839040089E+03  0.43311411639E+03  0.17200000000E+03 0. -1.
         -6    1    1    2    0  503  0.22028779914E+02 -0.19011233321E+03  0.35049908968E+02  0.25969301589E+03  0.17200000000E+03 0.  1.
</event>
<event>
 4    1  0.2889985E+000  0.2011915E+03  0.7818608E-02  0.1148738E+00
         21   -1    0    0  501  502  0.00000000000E+00  0.00000000000E+00  0.10901185361E+04  0.10901185361E+04  0.00000000000E+00 0.  1.
         21   -1    0    0  502  503 -0.00000000000E+00 -0.00000000000E+00 -0.78797343121E+02  0.78797343121E+02  0.00000000000E+00 0.  1.
          6    1    1    2  501    0  0.93938092389E+02 -0.45493370749E+02  0.93065796928E+03  0.95215664035E+03  0.17200000000E+03 0.  1.
         -6    1    1    2    0  503 -0.93938092389E+02  0.45493370749E+02  0.80663223722E+02  0.21675923889E+03  0.17200000000E+03 0.  1.
</event>
<event>
 4    1  0.2889985E+000  0.2066124E+03  0.7818608E-02  0.1144277E+00
         21   -1    0    0  503  502  0.00000000000E+00  0.00000000000E+00  0.18414322432E+04  0.18414322432E+04  0.00000000000E+00 0. -1.
         21   -1    0    0  501  503 -0.00000000000E+00 -0.00000000000E+00 -0.10767232087E+03  0.10767232087E+03  0.00000000000E+00 0. -1.
          6    1    1    2  501    0 -0.27393781506E+02  0.11114975944E+03  0.35918908262E+01  0.20664363036E+03  0.17200000000E+03 0. -1.
         -6    1    1    2    0  502  0.27393781506E+02 -0.11114975944E+03  0.17301680315E+04  0.17424609337E+04  0.17200000000E+03 0. -1.
</event>
<event>
 4    1  0.2889985E+000  0.1830750E+03  0.7818608E-02  0.1164860E+00
         21   -1    0    0  501  502  0.00000000000E+00  0.00000000000E+00  0.76556665538E+02  0.76556665538E+02  0.00000000000E+00 0.  1.
         21   -1    0    0  502  503 -0.00000000000E+00 -0.00000000000E+00 -0.45714317264E+03  0.45714317264E+03  0.00000000000E+00 0.  1.
          6    1    1    2  501    0 -0.62669155697E+02 -0.22454857546E+01 -0.13540099507E+03  0.22770571962E+03  0.17200000000E+03 0.  1.
         -6    1    1    2    0  503  0.62669155697E+02  0.22454857546E+01 -0.24518551203E+03  0.30599411856E+03  0.17200000000E+03 0.  1.
</event>
<event>
 4    1  0.2889985E+000  0.2590857E+03  0.7818608E-02  0.1107694E+00
         21   -1    0    0  503  502  0.00000000000E+00  0.00000000000E+00  0.23226397152E+03  0.23226397152E+03  0.00000000000E+00 0.  1.
         21   -1    0    0  501  503 -0.00000000000E+00 -0.00000000000E+00 -0.36847343374E+03  0.36847343374E+03  0.00000000000E+00 0. -1.
          6    1    1    2  501    0 -0.10218751650E+03 -0.16461811703E+03  0.71387281221E+02  0.26874068710E+03  0.17200000000E+03 0.  1.
         -6    1    1    2    0  502  0.10218751650E+03  0.16461811703E+03 -0.20759674344E+03  0.33199671816E+03  0.17200000000E+03 0.  1.
</event>
<event>
 4    1  0.2889985E+000  0.1864594E+03  0.7818608E-02  0.1161694E+00
         21   -1    0    0  503  502  0.00000000000E+00  0.00000000000E+00  0.14995321365E+03  0.14995321365E+03  0.00000000000E+00 0.  1.
         21   -1    0    0  501  503 -0.00000000000E+00 -0.00000000000E+00 -0.36104733859E+03  0.36104733859E+03  0.00000000000E+00 0.  1.
          6    1    1    2  501    0 -0.29843529035E+02 -0.65516907441E+02 -0.25838495940E+03  0.31863755057E+03  0.17200000000E+03 0.  1.
         -6    1    1    2    0  502  0.29843529035E+02  0.65516907441E+02  0.47290834460E+02  0.19236300167E+03  0.17200000000E+03 0.  1.
</event>
<event>
 4    1  0.2889985E+000  0.1800861E+03  0.7818608E-02  0.1167720E+00
         21   -1    0    0  503  502  0.00000000000E+00  0.00000000000E+00  0.49102259684E+03  0.49102259684E+03  0.00000000000E+00 0. -1.
         21   -1    0    0  501  503 -0.00000000000E+00 -0.00000000000E+00 -0.17973021072E+03  0.17973021072E+03  0.00000000000E+00 0. -1.
          6    1    1    2  501    0  0.41605925917E+02  0.33405649825E+02 -0.11108173364E+03  0.21158956038E+03  0.17200000000E+03 0. -1.
         -6    1    1    2    0  502 -0.41605925917E+02 -0.33405649825E+02  0.42237411976E+03  0.45916324718E+03  0.17200000000E+03 0. -1.
</event>
<event>
 4    1  0.2889985E+000  0.2066938E+03  0.7818608E-02  0.1144211E+00
         21   -1    0    0  503  502  0.00000000000E+00  0.00000000000E+00  0.49293854236E+02  0.49293854236E+02  0.00000000000E+00 0.  1.
         21   -1    0    0  501  503 -0.00000000000E+00 -0.00000000000E+00 -0.87674309127E+03  0.87674309127E+03  0.00000000000E+00 0.  1.
          6    1    1    2  501    0  0.87010116011E+02  0.74616190321E+02 -0.46331296107E+03  0.50732754315E+03  0.17200000000E+03 0.  1.
         -6    1    1    2    0  502 -0.87010116011E+02 -0.74616190321E+02 -0.36413627596E+03  0.41870940235E+03  0.17200000000E+03 0.  1.
</event>
<event>
 4    1  0.2889985E+000  0.2080987E+03  0.7818608E-02  0.1143081E+00
         21   -1    0    0  503  502  0.00000000000E+00  0.00000000000E+00  0.18446020678E+04  0.18446020678E+04  0.00000000000E+00 0. -1.
         21   -1    0    0  501  503 -0.00000000000E+00 -0.00000000000E+00 -0.11169340813E+03  0.11169340813E+03  0.00000000000E+00 0. -1.
          6    1    1    2  501    0  0.90904930599E+02 -0.73873930449E+02 -0.28388012108E+01  0.20811805015E+03  0.17200000000E+03 0. -1.
         -6    1    1    2    0  502 -0.90904930599E+02  0.73873930449E+02  0.17357474609E+04  0.17481774258E+04  0.17200000000E+03 0. -1.
</event>
<event>
 4    1  0.2889985E+000  0.1736585E+03  0.7818608E-02  0.1174085E+00
         21   -1    0    0  503  502  0.00000000000E+00  0.00000000000E+00  0.19121049878E+03  0.19121049878E+03  0.00000000000E+00 0. -1.
         21   -1    0    0  501  503 -0.00000000000E+00 -0.00000000000E+00 -0.60262356707E+03  0.60262356707E+03  0.00000000000E+00 0. -1.
          6    1    1    2  501    0 -0.95239452218E+01  0.21967575577E+02 -0.54675079630E+03  0.57366690088E+03  0.17200000000E+03 0. -1.
         -6    1    1    2    0  502  0.95239452218E+01 -0.21967575577E+02  0.13533772801E+03  0.22016716497E+03  0.17200000000E+03 0. -1.
</event>
<event>
 4    1  0.2889985E+000  0.2577588E+03  0.7818608E-02  0.1108497E+00
         21   -1    0    0  501  502  0.00000000000E+00  0.00000000000E+00  0.92145758137E+02  0.92145758137E+02  0.00000000000E+00 0.  1.
         21   -1    0    0  502  503 -0.00000000000E+00 -0.00000000000E+00 -0.72221439167E+03  0.72221439167E+03  0.00000000000E+00 0.  1.
          6    1    1    2  501    0  0.18708100639E+03 -0.43084767404E+02 -0.33154289216E+03  0.41995272290E+03  0.17200000000E+03 0.  1.
         -6    1    1    2    0  503 -0.18708100639E+03  0.43084767404E+02 -0.29852574138E+03  0.39440742691E+03  0.17200000000E+03 0.  1.
</event>
<event>
 4    1  0.2889985E+000  0.2082077E+03  0.7818608E-02  0.1142993E+00
         21   -1    0    0  503  502  0.00000000000E+00  0.00000000000E+00  0.11652854519E+04  0.11652854519E+04  0.00000000000E+00 0. -1.
         21   -1    0    0  501  503 -0.00000000000E+00 -0.00000000000E+00 -0.37228970794E+02  0.37228970794E+02  0.00000000000E+00 0. -1.
          6    1    1    2  501    0 -0.36084602468E+02 -0.11164380426E+03  0.58034276459E+03  0.61656156382E+03  0.17200000000E+03 0.  1.
         -6    1    1    2    0  502  0.36084602468E+02  0.11164380426E+03  0.54771371650E+03  0.58595285886E+03  0.17200000000E+03 0.  1.
</event>
<event>
 4    1  0.2889985E+000  0.2160768E+03  0.7818608E-02  0.1136842E+00
         21   -1    0    0  501  502  0.00000000000E+00  0.00000000000E+00  0.28082516959E+03  0.28082516959E+03  0.00000000000E+00 0. -1.
         21   -1    0    0  502  503 -0.00000000000E+00 -0.00000000000E+00 -0.25448342277E+03  0.25448342277E+03  0.00000000000E+00 0. -1.
          6    1    1    2  501    0 -0.13077178163E+03 -0.19773088877E+01  0.17076631234E+03  0.27540933545E+03  0.17200000000E+03 0. -1.
         -6    1    1    2    0  503  0.13077178163E+03  0.19773088877E+01 -0.14442456551E+03  0.25989925692E+03  0.17200000000E+03 0. -1.
</event>
<event>
 4    1  0.2889985E+000  0.1873959E+03  0.7818608E-02  0.1160831E+00
         21   -1    0    0  503  502  0.00000000000E+00  0.00000000000E+00  0.16721419744E+03  0.16721419744E+03  0.00000000000E+00 0. -1.
         21   -1    0    0  501  503 -0.00000000000E+00 -0.00000000000E+00 -0.31810135871E+03  0.31810135871E+03  0.00000000000E+00 0.  1.
          6    1    1    2  501    0  0.45532748396E+02  0.58821662577E+02 -0.21689266735E+03  0.28663504377E+03  0.17200000000E+03 0.  1.
         -6    1    1    2    0  502 -0.45532748396E+02 -0.58821662577E+02  0.66005506082E+02  0.19868051238E+03  0.17200000000E+03 0. -1.
</event>
<event>
 4    1  0.2889985E+000  0.1816899E+03  0.7818608E-02  0.1166177E+00
         21   -1    0    0  503  502  0.00000000000E+00  0.00000000000E+00  0.29018649388E+04  0.29018649388E+04  0.00000000000E+00 0. -1.
         21   -1    0    0  501  503 -0.00000000000E+00 -0.00000000000E+00 -0.15627053502E+02  0.15627053502E+02  0.00000000000E+00 0. -1.
          6    1    1    2  501    0 -0.49854653902E+01 -0.58329842856E+02  0.68227378687E+03  0.70605151773E+03  0.17200000000E+03 0. -1.
         -6    1    1    2    0  502  0.49854653902E+01  0.58329842856E+02  0.22039640984E+04  0.22114404746E+04  0.17200000000E+03 0. -1.
</event>
<event>
 4    1  0.2889985E+000  0.1805266E+03  0.7818608E-02  0.1167294E+00
         21   -1    0    0  503  502  0.00000000000E+00  0.00000000000E+00  0.42516325238E+03  0.42516325238E+03  0.00000000000E+00 0.  1.
         21   -1    0    0  501  503 -0.00000000000E+00 -0.00000000000E+00 -0.22558361768E+03  0.22558361768E+03  0.00000000000E+00 0.  1.
          6    1    1    2  501    0 -0.31960615623E+02  0.44546322586E+02 -0.16458551857E+03  0.24429131939E+03  0.17200000000E+03 0.  1.
         -6    1    1    2    0  502  0.31960615623E+02 -0.44546322586E+02  0.36416515327E+03  0.40645555066E+03  0.17200000000E+03 0.  1.
</event>
<event>
 4    1  0.2889985E+000  0.2211672E+03  0.7818608E-02  0.1133016E+00
         21   -1    0    0  503  502  0.00000000000E+00  0.00000000000E+00  0.17386667917E+04  0.17386667917E+04  0.00000000000E+00 0. -1.
         21   -1    0    0  501  503 -0.00000000000E+00 -0.00000000000E+00 -0.51015909809E+02  0.51015909809E+02  0.00000000000E+00 0. -1.
          6    1    1    2  501    0  0.11868368936E+03 -0.72423222389E+02  0.24452687567E+03  0.32970946936E+03  0.17200000000E+03 0. -1.
         -6    1    1    2    0  502 -0.11868368936E+03  0.72423222389E+02  0.14431240063E+04  0.14599732322E+04  0.17200000000E+03 0. -1.
</event>
<event>
 4    1  0.2889985E+000  0.2755557E+03  0.7818608E-02  0.1098141E+00
         21   -1    0    0  503  502  0.00000000000E+00  0.00000000000E+00  0.14715721717E+03  0.14715721717E+03  0.00000000000E+00 0. -1.
         21   -1    0    0  501  503 -0.00000000000E+00 -0.00000000000E+00 -0.78561979321E+03  0.78561979321E+03  0.00000000000E+00 0.  1.
          6    1    1    2  501    0 -0.14799645147E+03 -0.15634576436E+03 -0.59246194492E+03  0.65340806841E+03  0.17200000000E+03 0.  1.
         -6    1    1    2    0  502  0.14799645147E+03  0.15634576436E+03 -0.46000631116E+02  0.27936894198E+03  0.17200000000E+03 0. -1.
</event>
<event>
 4    1  0.2889985E+000  0.1777945E+03  0.7818608E-02  0.1169955E+00
         21   -1    0    0  503  502  0.00000000000E+00  0.00000000000E+00  0.24500758332E+03  0.24500758332E+03  0.00000000000E+00 0. -1.
         21   -1    0    0  501  503 -0.00000000000E+00 -0.00000000000E+00 -0.21560687052E+03  0.21560687052E+03  0.00000000000E+00 0. -1.
          6    1    1    2  501    0 -0.33709599218E+02 -0.29842001184E+02 -0.13124902272E+03  0.22099137558E+03  0.17200000000E+03 0. -1.
         -6    1    1    2    0  502  0.33709599218E+02  0.29842001184E+02  0.16064973552E+03  0.23962307827E+03  0.17200000000E+03 0. -1.
</event>
<event>
 4    1  0.2889985E+000  0.2151902E+03  0.7818608E-02  0.1137521E+00
         21   -1    0    0  501  502  0.00000000000E+00  0.00000000000E+00  0.32342294112E+02  0.32342294112E+02  0.00000000000E+00 0. -1.
         21   -1    0    0  502  503 -0.00000000000E+00 -0.00000000000E+00 -0.14820490427E+04  0.14820490427E+04  0.00000000000E+00 0.  1.
          6    1    1    2  501    0 -0.17837046777E+02  0.12808066741E+03 -0.58539064503E+03  0.62368984671E+03  0.17200000000E+03 0. -1.
         -6    1    1    2    0  503  0.17837046777E+02 -0.12808066741E+03 -0.86431610357E+03  0.89070149011E+03  0.17200000000E+03 0.  1.
</event>
<event>
 4    1  0.2889985E+000  0.1994770E+03  0.7818608E-02  0.1150181E+00
         21   -1    0    0  503  502  0.00000000000E+00  0.00000000000E+00  0.22617953618E+04  0.22617953618E+04  0.00000000000E+00 0. -1.
         21   -1    0    0  501  503 -0.00000000000E+00 -0.00000000000E+00 -0.19580051612E+02  0.19580051612E+02  0.00000000000E+00 0. -1.
          6    1    1    2  501    0  0.10067586257E+03 -0.84519627930E+01  0.75769648071E+03  0.78351453200E+03  0.17200000000E+03 0. -1.
         -6    1    1    2    0  502 -0.10067586257E+03  0.84519627930E+01  0.14845188294E+04  0.14978608814E+04  0.17200000000E+03 0. -1.
</event>
<event>
 4    1  0.2889985E+000  0.2152556E+03  0.7818608E-02  0.1137470E+00
         21   -1    0    0  503  502  0.00000000000E+00  0.00000000000E+00  0.32591113380E+03  0.32591113380E+03  0.00000000000E+00 0.  1.
         21   -1    0    0  501  503 -0.00000000000E+00 -0.00000000000E+00 -0.17070524894E+03  0.17070524894E+03  0.00000000000E+00 0. -1.
          6    1    1    2  501    0  0.10964279070E+03  0.68771018042E+02 -0.23917516316E+02  0.21658033628E+03  0.17200000000E+03 0.  1.
         -6    1    1    2    0  502 -0.10964279070E+03 -0.68771018042E+02  0.17912340118E+03  0.28003604647E+03  0.17200000000E+03 0. -1.
</event>
<event>
 4    1  0.2889985E+000  0.2270435E+03  0.7818608E-02  0.1128738E+00
         21   -1    0    0  501  502  0.00000000000E+00  0.00000000000E+00  0.18457415501E+03  0.18457415501E+03  0.00000000000E+00 0.  1.
         21   -1    0    0  502  503 -0.00000000000E+00 -0.00000000000E+00 -0.51415239562E+03  0.51415239562E+03  0.00000000000E+00 0.  1.
          6    1    1    2  501    0  0.11096761889E+03 -0.98239264849E+02  0.71336342058E+02  0.23798663681E+03  0.17200000000E+03 0.  1.
         -6    1    1    2    0  503 -0.11096761889E+03  0.98239264849E+02 -0.40091458267E+03  0.46073991383E+03  0.17200000000E+03 0.  1.
</event>
<event>
 4    1  0.2889985E+000  0.1985366E+03  0.7818608E-02  0.1150980E+00
         21   -1    0    0  501  502  0.00000000000E+00  0.00000000000E+00  0.17972464717E+03  0.17972464717E+03  0.00000000000E+00 0. -1.
         21   -1    0    0  502  503 -0.00000000000E+00 -0.00000000000E+00 -0.42708107117E+03  0.42708107117E+03  0.00000000000E+00 0. -1.
          6    1    1    2  501    0  0.36508548913E+02  0.92194987956E+02 -0.33529447262E+03  0.38966546333E+03  0.17200000000E+03 0. -1.
         -6    1    1    2    0  503 -0.36508548913E+02 -0.92194987956E+02  0.87938048617E+02  0.21714025500E+03  0.17200000000E+03 0. -1.
</event>
<event>
 4    1  0.2889985E+000  0.2026175E+03  0.7818608E-02  0.1147549E+00
         21   -1    0    0  501  502  0.00000000000E+00  0.00000000000E+00  0.10249908325E+04  0.10249908325E+04  0.00000000000E+00 0. -1.
         21   -1    0    0  502  503 -0.00000000000E+00 -0.00000000000E+00 -0.10990166752E+03  0.10990166752E+03  0.00000000000E+00 0. -1.
          6    1    1    2  501    0  0.96245424447E+02 -0.46975121894E+02  0.90992312590E+03  0.93220917119E+03  0.17200000000E+03 0. -1.
         -6    1    1    2    0  503 -0.96245424447E+02  0.46975121894E+02  0.51660390300E+01  0.20268332877E+03  0.17200000000E+03 0. -1.
</event>
<event>
 4    1  0.2889985E+000  0.1768211E+03  0.7818608E-02  0.1170916E+00
         21   -1    0    0  503  502  0.00000000000E+00  0.00000000000E+00  0.10328127747E+03  0.10328127747E+03  0.00000000000E+00 0. -1.
         21   -1    0    0  501  503 -0.00000000000E+00 -0.00000000000E+00 -0.39139797304E+03  0.39139797304E+03  0.00000000000E+00 0. -1.
          6    1    1    2  501    0 -0.39548860572E+02  0.10843790135E+02 -0.26329470952E+02  0.17877063852E+03  0.17200000000E+03 0. -1.
         -6    1    1    2    0  502  0.39548860572E+02 -0.10843790135E+02 -0.26178722462E+03  0.31590861199E+03  0.17200000000E+03 0. -1.
</event>
<event>
 4    1  0.2889985E+000  0.1799669E+03  0.7818608E-02  0.1167835E+00
         21   -1    0    0  501  502  0.00000000000E+00  0.00000000000E+00  0.62814676082E+02  0.62814676082E+02  0.00000000000E+00 0. -1.
         21   -1    0    0  502  503 -0.00000000000E+00 -0.00000000000E+00 -0.51577054152E+03  0.51577054152E+03  0.00000000000E+00 0. -1.
          6    1    1    2  501    0 -0.10860298184E+02 -0.51827987432E+02 -0.23152810461E+03  0.29324622689E+03  0.17200000000E+03 0. -1.
         -6    1    1    2    0  503  0.10860298184E+02  0.51827987432E+02 -0.22142776082E+03  0.28533899071E+03  0.17200000000E+03 0. -1.
</event>
<event>
 4    1  0.2889985E+000  0.2045535E+03  0.7818608E-02  0.1145953E+00
         21   -1    0    0  503  502  0.00000000000E+00  0.00000000000E+00  0.84525262167E+02  0.84525262167E+02  0.00000000000E+00 0. -1.
         21   -1    0    0  501  503 -0.00000000000E+00 -0.00000000000E+00 -0.49806709972E+03  0.49806709972E+03  0.00000000000E+00 0.  1.
          6    1    1    2  501    0 -0.55446884232E+02  0.95832020912E+02 -0.18400607542E+03  0.27513700041E+03  0.17200000000E+03 0.  1.
         -6    1    1    2    0  502  0.55446884232E+02 -0.95832020912E+02 -0.22953576213E+03  0.30745536147E+03  0.17200000000E+03 0. -1.
</event>
<event>
 4    1  0.2889985E+000  0.3618815E+03  0.7818608E-02  0.1057841E+00
         21   -1    0    0  501  502  0.00000000000E+00  0.00000000000E+00  0.82968445405E+02  0.82968445405E+02  0.00000000000E+00 0. -1.
         21   -1    0    0  502  503 -0.00000000000E+00 -0.00000000000E+00 -0.21826333601E+04  0.21826333601E+04  0.00000000000E+00 0.  1.
          6    1    1    2  501    0  0.28609631366E+03  0.13972504671E+03 -0.45381072215E+03  0.58043290818E+03  0.17200000000E+03 0. -1.
         -6    1    1    2    0  503 -0.28609631366E+03 -0.13972504671E+03 -0.16458541926E+04  0.16851688973E+04  0.17200000000E+03 0.  1.
</event>
<event>
 4    1  0.2889985E+000  0.2778828E+03  0.7818608E-02  0.1096851E+00
         21   -1    0    0  503  502  0.00000000000E+00  0.00000000000E+00  0.11588255603E+03  0.11588255603E+03  0.00000000000E+00 0.  1.
         21   -1    0    0  501  503 -0.00000000000E+00 -0.00000000000E+00 -0.68886062934E+03  0.68886062934E+03  0.00000000000E+00 0.  1.
          6    1    1    2  501    0  0.15694421528E+03 -0.15166865759E+03 -0.35921869692E+03  0.45415519442E+03  0.17200000000E+03 0.  1.
         -6    1    1    2    0  502 -0.15694421528E+03  0.15166865759E+03 -0.21375937638E+03  0.35058799094E+03  0.17200000000E+03 0.  1.
</event>
<event>
 4    1  0.2889985E+000  0.2085299E+03  0.7818608E-02  0.1142735E+00
         21   -1    0    0  503  502  0.00000000000E+00  0.00000000000E+00  0.24151097034E+04  0.24151097034E+04  0.00000000000E+00 0.  1.
         21   -1    0    0  501  503 -0.00000000000E+00 -0.00000000000E+00 -0.18226363544E+02  0.18226363544E+02  0.00000000000E+00 0.  1.
          6    1    1    2  501    0 -0.54057480450E+02 -0.10477833823E+03  0.10644411671E+04  0.10846749327E+04  0.17200000000E+03 0.  1.
         -6    1    1    2    0  502  0.54057480450E+02  0.10477833823E+03  0.13324421727E+04  0.13486611342E+04  0.17200000000E+03 0.  1.
</event>
<event>
 4    1  0.2889985E+000  0.1933792E+03  0.7818608E-02  0.1155448E+00
         21   -1    0    0  503  502  0.00000000000E+00  0.00000000000E+00  0.57083195665E+02  0.57083195665E+02  0.00000000000E+00 0. -1.
         21   -1    0    0  501  503 -0.00000000000E+00 -0.00000000000E+00 -0.65510634818E+03  0.65510634818E+03  0.00000000000E+00 0.  1.
          6    1    1    2  501    0  0.21682477902E+02 -0.85681949449E+02 -0.29865477038E+03  0.35579516323E+03  0.17200000000E+03 0.  1.
         -6    1    1    2    0  502 -0.21682477902E+02  0.85681949449E+02 -0.29936838214E+03  0.35639438062E+03  0.17200000000E+03 0.  1.
</event>
<event>
 4    1  0.2889985E+000  0.1963505E+03  0.7818608E-02  0.1152855E+00
         21   -1    0    0  503  502  0.00000000000E+00  0.00000000000E+00  0.34153771700E+03  0.34153771700E+03  0.00000000000E+00 0.  1.
         21   -1    0    0  501  503 -0.00000000000E+00 -0.00000000000E+00 -0.13189006300E+03  0.13189006300E+03  0.00000000000E+00 0.  1.
          6    1    1    2  501    0 -0.94070761748E+02  0.10964731387E+02  0.14960147957E+02  0.19691962720E+03  0.17200000000E+03 0.  1.
         -6    1    1    2    0  502  0.94070761748E+02 -0.10964731387E+02  0.19468750604E+03  0.27650815279E+03  0.17200000000E+03 0.  1.
</event>
<event>
 4    1  0.2889985E+000  0.2059867E+03  0.7818608E-02  0.1144784E+00
         21   -1    0    0  501  502  0.00000000000E+00  0.00000000000E+00  0.18793911218E+03  0.18793911218E+03  0.00000000000E+00 0.  1.
         21   -1    0    0  502  503 -0.00000000000E+00 -0.00000000000E+00 -0.22819204887E+03  0.22819204887E+03  0.00000000000E+00 0.  1.
          6    1    1    2  501    0 -0.24994306513E+02 -0.11055219344E+03  0.13214350207E+01  0.20599089548E+03  0.17200000000E+03 0.  1.
         -6    1    1    2    0  503  0.24994306513E+02  0.11055219344E+03 -0.41574371710E+02  0.21014026557E+03  0.17200000000E+03 0.  1.
</event>
<event>
 4    1  0.2889985E+000  0.2563456E+03  0.7818608E-02  0.1109359E+00
         21   -1    0    0  503  502  0.00000000000E+00  0.00000000000E+00  0.68958233059E+02  0.68958233059E+02  0.00000000000E+00 0. -1.
         21   -1    0    0  501  503 -0.00000000000E+00 -0.00000000000E+00 -0.11619711112E+04  0.11619711112E+04  0.00000000000E+00 0.  1.
          6    1    1    2  501    0 -0.18224683166E+03 -0.53992312602E+02 -0.80754859308E+03  0.84725899680E+03  0.17200000000E+03 0.  1.
         -6    1    1    2    0  502  0.18224683166E+03  0.53992312602E+02 -0.28546428505E+03  0.38367034745E+03  0.17200000000E+03 0. -1.
</event>
<event>
 4    1  0.2889985E+000  0.1943693E+03  0.7818608E-02  0.1154579E+00
         21   -1    0    0  503  502  0.00000000000E+00  0.00000000000E+00  0.38212054422E+03  0.38212054422E+03  0.00000000000E+00 0. -1.
         21   -1    0    0  501  503 -0.00000000000E+00 -0.00000000000E+00 -0.14513356972E+03  0.14513356972E+03  0.00000000000E+00 0. -1.
          6    1    1    2  501    0  0.50103500838E+02 -0.75399377824E+02 -0.30352051663E+02  0.19672486882E+03  0.17200000000E+03 0. -1.
         -6    1    1    2    0  502 -0.50103500838E+02  0.75399377824E+02  0.26733902616E+03  0.33052924512E+03  0.17200000000E+03 0. -1.
</event>
<event>
 4    1  0.2889985E+000  0.1764533E+03  0.7818608E-02  0.1171280E+00
         21   -1    0    0  503  502  0.00000000000E+00  0.00000000000E+00  0.56014264590E+02  0.56014264590E+02  0.00000000000E+00 0.  1.
         21   -1    0    0  501  503 -0.00000000000E+00 -0.00000000000E+00 -0.99469234177E+03  0.99469234177E+03  0.00000000000E+00 0.  1.
          6    1    1    2  501    0  0.15138321201E+02  0.36367759649E+02 -0.81828574263E+03  0.83709458205E+03  0.17200000000E+03 0.  1.
         -6    1    1    2    0  502 -0.15138321201E+02 -0.36367759649E+02 -0.12039233455E+03  0.21361202431E+03  0.17200000000E+03 0.  1.
</event>
<event>
 4    1  0.2889985E+000  0.2734574E+03  0.7818608E-02  0.1099317E+00
         21   -1    0    0  503  502  0.00000000000E+00  0.00000000000E+00  0.61232012274E+03  0.61232012274E+03  0.00000000000E+00 0.  1.
         21   -1    0    0  501  503 -0.00000000000E+00 -0.00000000000E+00 -0.14455024311E+03  0.14455024311E+03  0.00000000000E+00 0. -1.
          6    1    1    2  501    0  0.19056956891E+03  0.94224274256E+02  0.38294472305E+03  0.47055885431E+03  0.17200000000E+03 0.  1.
         -6    1    1    2    0  502 -0.19056956891E+03 -0.94224274256E+02  0.84825156575E+02  0.28631151154E+03  0.17200000000E+03 0.  1.
</event>
<event>
 4    1  0.2889985E+000  0.1912799E+03  0.7818608E-02  0.1157312E+00
         21   -1    0    0  501  502  0.00000000000E+00  0.00000000000E+00  0.65520571902E+02  0.65520571902E+02  0.00000000000E+00 0.  1.
         21   -1    0    0  502  503 -0.00000000000E+00 -0.00000000000E+00 -0.13504137436E+04  0.13504137436E+04  0.00000000000E+00 0.  1.
          6    1    1    2  501    0 -0.51294078298E+02  0.66127925434E+02 -0.10027017820E+03  0.21596780692E+03  0.17200000000E+03 0.  1.
         -6    1    1    2    0  503  0.51294078298E+02 -0.66127925434E+02 -0.11846229935E+04  0.11999665085E+04  0.17200000000E+03 0.  1.
</event>
<event>
 4    1  0.2889985E+000  0.1785581E+03  0.7818608E-02  0.1169206E+00
         21   -1    0    0  503  502  0.00000000000E+00  0.00000000000E+00  0.22241101318E+02  0.22241101318E+02  0.00000000000E+00 0. -1.
         21   -1    0    0  501  503 -0.00000000000E+00 -0.00000000000E+00 -0.15012436705E+04  0.15012436705E+04  0.00000000000E+00 0.  1.
          6    1    1    2  501    0  0.43137299995E+02  0.20932241535E+02 -0.90129589138E+03  0.91881296747E+03  0.17200000000E+03 0.  1.
         -6    1    1    2    0  502 -0.43137299995E+02 -0.20932241535E+02 -0.57770667781E+03  0.60467180434E+03  0.17200000000E+03 0. -1.
</event>
<event>
 4    1  0.2889985E+000  0.2207684E+03  0.7818608E-02  0.1133311E+00
         21   -1    0    0  501  502  0.00000000000E+00  0.00000000000E+00  0.66415762839E+02  0.66415762839E+02  0.00000000000E+00 0. -1.
         21   -1    0    0  502  503 -0.00000000000E+00 -0.00000000000E+00 -0.73419936438E+03  0.73419936438E+03  0.00000000000E+00 0. -1.
          6    1    1    2  501    0 -0.92252037090E+02 -0.10317097674E+03 -0.32506247521E+03  0.39294312766E+03  0.17200000000E+03 0. -1.
         -6    1    1    2    0  503  0.92252037090E+02  0.10317097674E+03 -0.34272112633E+03  0.40767199955E+03  0.17200000000E+03 0. -1.
</event>
<event>
 4    1  0.2889985E+000  0.2015706E+03  0.7818608E-02  0.1148421E+00
         21   -1    0    0  503  502  0.00000000000E+00  0.00000000000E+00  0.18700294547E+02  0.18700294547E+02  0.00000000000E+00 0.  1.
         21   -1    0    0  501  503 -0.00000000000E+00 -0.00000000000E+00 -0.23237426104E+04  0.23237426104E+04  0.00000000000E+00 0.  1.
          6    1    1    2  501    0  0.65966760735E+02  0.81823479422E+02 -0.14510946735E+04  0.14650277972E+04  0.17200000000E+03 0.  1.
         -6    1    1    2    0  502 -0.65966760735E+02 -0.81823479422E+02 -0.85394764242E+03  0.87741510775E+03  0.17200000000E+03 0.  1.
</event>
<event>
 4    1  0.2889985E+000  0.1938238E+03  0.7818608E-02  0.1155057E+00
         21   -1    0    0  503  502  0.00000000000E+00  0.00000000000E+00  0.29295164233E+04  0.29295164233E+04  0.00000000000E+00 0.  1.
         21   -1    0    0  501  503 -0.00000000000E+00 -0.00000000000E+00 -0.12983635347E+02  0.12983635347E+02  0.00000000000E+00 0.  1.
          6    1    1    2  501    0 -0.31927660477E+02 -0.83452260531E+02  0.12950484553E+04  0.13094724727E+04  0.17200000000E+03 0. -1.
         -6    1    1    2    0  502  0.31927660477E+02  0.83452260531E+02  0.16214843327E+04  0.16330275860E+04  0.17200000000E+03 0. -1.
</event>
<event>
 4    1  0.2889985E+000  0.2196229E+03  0.7818608E-02  0.1134165E+00
         21   -1    0    0  501  502  0.00000000000E+00  0.00000000000E+00  0.99809528203E+02  0.99809528203E+02  0.00000000000E+00 0. -1.
         21   -1    0    0  502  503 -0.00000000000E+00 -0.00000000000E+00 -0.52023507950E+03  0.52023507950E+03  0.00000000000E+00 0. -1.
          6    1    1    2  501    0  0.55489679507E+02  0.12478419703E+03 -0.12756463224E+03  0.25398215638E+03  0.17200000000E+03 0. -1.
         -6    1    1    2    0  503 -0.55489679507E+02 -0.12478419703E+03 -0.29286091906E+03  0.36606245133E+03  0.17200000000E+03 0. -1.
</event>
<event>
 4    1  0.2889985E+000  0.2136389E+03  0.7818608E-02  0.1138716E+00
         21   -1    0    0  503  502  0.00000000000E+00  0.00000000000E+00  0.25540185075E+03  0.25540185075E+03  0.00000000000E+00 0. -1.
         21   -1    0    0  501  503 -0.00000000000E+00 -0.00000000000E+00 -0.19456176075E+03  0.19456176075E+03  0.00000000000E+00 0. -1.
          6    1    1    2  501    0  0.51600870244E+02 -0.11573646419E+03 -0.33808245363E+02  0.21629742580E+03  0.17200000000E+03 0. -1.
         -6    1    1    2    0  502 -0.51600870244E+02  0.11573646419E+03  0.94648335363E+02  0.23366618570E+03  0.17200000000E+03 0. -1.
</event>
<event>
 4    1  0.2889985E+000  0.1734903E+03  0.7818608E-02  0.1174256E+00
         21   -1    0    0  501  502  0.00000000000E+00  0.00000000000E+00  0.30807298391E+03  0.30807298391E+03  0.00000000000E+00 0. -1.
         21   -1    0    0  502  503 -0.00000000000E+00 -0.00000000000E+00 -0.14398821570E+03  0.14398821570E+03  0.00000000000E+00 0. -1.
          6    1    1    2  501    0  0.65616677285E+01  0.21721332974E+02  0.21019776079E+03  0.27254718936E+03  0.17200000000E+03 0. -1.
         -6    1    1    2    0  503 -0.65616677285E+01 -0.21721332974E+02 -0.46112992576E+02  0.17951401024E+03  0.17200000000E+03 0. -1.
</event>
<event>
 4    1  0.2889985E+000  0.2690739E+03  0.7818608E-02  0.1101811E+00
         21   -1    0    0  503  502  0.00000000000E+00  0.00000000000E+00  0.11273565938E+03  0.11273565938E+03  0.00000000000E+00 0.  1.
         21   -1    0    0  501  503 -0.00000000000E+00 -0.00000000000E+00 -0.96235008442E+03  0.96235008442E+03  0.00000000000E+00 0.  1.
          6    1    1    2  501    0 -0.18823406319E+03 -0.85934367364E+02 -0.73484292015E+03  0.78255664033E+03  0.17200000000E+03 0.  1.
         -6    1    1    2    0  502  0.18823406319E+03  0.85934367364E+02 -0.11477150489E+03  0.29252910346E+03  0.17200000000E+03 0.  1.
</event>
<event>
 4    1  0.2889985E+000  0.2261030E+03  0.7818608E-02  0.1129413E+00
         21   -1    0    0  501  502  0.00000000000E+00  0.00000000000E+00  0.81082182410E+03  0.81082182410E+03  0.00000000000E+00 0.  1.
         21   -1    0    0  502  503 -0.00000000000E+00 -0.00000000000E+00 -0.15353769562E+03  0.15353769562E+03  0.00000000000E+00 0.  1.
          6    1    1    2  501    0  0.13176306072E+03 -0.64630207623E+02  0.69880717777E+03  0.73447534990E+03  0.17200000000E+03 0.  1.
         -6    1    1    2    0  503 -0.13176306072E+03  0.64630207623E+02 -0.41523049298E+02  0.22988416981E+03  0.17200000000E+03 0.  1.
</event>
<event>
 4    1  0.2889985E+000  0.1998631E+03  0.7818608E-02  0.1149855E+00
         21   -1    0    0  501  502  0.00000000000E+00  0.00000000000E+00  0.19647052425E+03  0.19647052425E+03  0.00000000000E+00 0.  1.
         21   -1    0    0  502  503 -0.00000000000E+00 -0.00000000000E+00 -0.31022754024E+03  0.31022754024E+03  0.00000000000E+00 0.  1.
          6    1    1    2  501    0  0.94724433455E+02  0.37263260182E+02  0.91850199213E+02  0.21995846869E+03  0.17200000000E+03 0.  1.
         -6    1    1    2    0  503 -0.94724433455E+02 -0.37263260182E+02 -0.20560721520E+03  0.28673959579E+03  0.17200000000E+03 0.  1.
</event>
<event>
 4    1  0.2889985E+000  0.2578023E+03  0.7818608E-02  0.1108471E+00
         21   -1    0    0  503  502  0.00000000000E+00  0.00000000000E+00  0.39318793557E+02  0.39318793557E+02  0.00000000000E+00 0.  1.
         21   -1    0    0  501  503 -0.00000000000E+00 -0.00000000000E+00 -0.17901195998E+04  0.17901195998E+04  0.00000000000E+00 0. -1.
          6    1    1    2  501    0  0.16269101804E+03  0.10202764799E+03 -0.10913609192E+04  0.11213967470E+04  0.17200000000E+03 0.  1.
         -6    1    1    2    0  502 -0.16269101804E+03 -0.10202764799E+03 -0.65943988708E+03  0.70804164636E+03  0.17200000000E+03 0.  1.
</event>
<event>
 4    1  0.2889985E+000  0.2252568E+03  0.7818608E-02  0.1130023E+00
         21   -1    0    0  503  502  0.00000000000E+00  0.00000000000E+00  0.15205541228E+04  0.15205541228E+04  0.00000000000E+00 0.  1.
         21   -1    0    0  501  503 -0.00000000000E+00 -0.00000000000E+00 -0.15934863142E+03  0.15934863142E+03  0.00000000000E+00 0.  1.
          6    1    1    2  501    0  0.84003977793E+02 -0.11874328529E+03 -0.66239213591E+02  0.23479410023E+03  0.17200000000E+03 0.  1.
         -6    1    1    2    0  502 -0.84003977793E+02  0.11874328529E+03  0.14274447050E+04  0.14451086540E+04  0.17200000000E+03 0.  1.
</event>
<event>
 4    1  0.2889985E+000  0.1799419E+03  0.7818608E-02  0.1167859E+00
         21   -1    0    0  503  502  0.00000000000E+00  0.00000000000E+00  0.14317039693E+03  0.14317039693E+03  0.00000000000E+00 0.  1.
         21   -1    0    0  501  503 -0.00000000000E+00 -0.00000000000E+00 -0.24404675122E+03  0.24404675122E+03  0.00000000000E+00 0.  1.
          6    1    1    2  501    0  0.43114435063E+02  0.30597735953E+02 -0.10285645137E+03  0.20726438562E+03  0.17200000000E+03 0. -1.
         -6    1    1    2    0  502 -0.43114435063E+02 -0.30597735953E+02  0.19800970843E+01  0.17995276253E+03  0.17200000000E+03 0. -1.
</event>
<event>
 4    1  0.2889985E+000  0.1893093E+03  0.7818608E-02  0.1159086E+00
         21   -1    0    0  501  502  0.00000000000E+00  0.00000000000E+00  0.53938045349E+02  0.53938045349E+02  0.00000000000E+00 0.  1.
         21   -1    0    0  502  503 -0.00000000000E+00 -0.00000000000E+00 -0.10716369684E+04  0.10716369684E+04  0.00000000000E+00 0.  1.
          6    1    1    2  501    0  0.77850364484E+02 -0.13904102998E+02 -0.16192995439E+03  0.24911706778E+03  0.17200000000E+03 0.  1.
         -6    1    1    2    0  503 -0.77850364484E+02  0.13904102998E+02 -0.85576896866E+03  0.87645794597E+03  0.17200000000E+03 0.  1.
</event>
<event>
 4    1  0.2889985E+000  0.1816311E+03  0.7818608E-02  0.1166234E+00
         21   -1    0    0  503  502  0.00000000000E+00  0.00000000000E+00  0.65581655678E+03  0.65581655678E+03  0.00000000000E+00 0.  1.
         21   -1    0    0  501  503 -0.00000000000E+00 -0.00000000000E+00 -0.88309776054E+02  0.88309776054E+02  0.00000000000E+00 0.  1.
          6    1    1    2  501    0  0.29472750136E+02  0.50370662940E+02  0.52783785156E+03  0.55821379795E+03  0.17200000000E+03 0.  1.
         -6    1    1    2    0  502 -0.29472750136E+02 -0.50370662940E+02  0.39668929169E+02  0.18591253488E+03  0.17200000000E+03 0.  1.
</event>
<event>
 4    1  0.2889985E+000  0.2169865E+03  0.7818608E-02  0.1136150E+00
         21   -1    0    0  503  502  0.00000000000E+00  0.00000000000E+00  0.10195741109E+04  0.10195741109E+04  0.00000000000E+00 0.  1.
         21   -1    0    0  501  503 -0.00000000000E+00 -0.00000000000E+00 -0.28844248359E+03  0.28844248359E+03  0.00000000000E+00 0.  1.
          6    1    1    2  501    0  0.12892493474E+03  0.29622415044E+02 -0.23380754644E+03  0.31898133965E+03  0.17200000000E+03 0.  1.
         -6    1    1    2    0  502 -0.12892493474E+03 -0.29622415044E+02  0.96493917375E+03  0.98903525484E+03  0.17200000000E+03 0.  1.
</event>
<event>
 4    1  0.2889985E+000  0.1926633E+03  0.7818608E-02  0.1156081E+00
         21   -1    0    0  503  502  0.00000000000E+00  0.00000000000E+00  0.82051721553E+03  0.82051721553E+03  0.00000000000E+00 0.  1.
         21   -1    0    0  501  503 -0.00000000000E+00 -0.00000000000E+00 -0.53126373982E+02  0.53126373982E+02  0.00000000000E+00 0.  1.
          6    1    1    2  501    0 -0.44679931435E+02  0.74423369504E+02  0.55201072975E+03  0.58466655450E+03  0.17200000000E+03 0.  1.
         -6    1    1    2    0  502  0.44679931435E+02 -0.74423369504E+02  0.21538011180E+03  0.28897703500E+03  0.17200000000E+03 0.  1.
</event>
<event>
 4    1  0.2889985E+000  0.2305419E+03  0.7818608E-02  0.1126259E+00
         21   -1    0    0  501  502  0.00000000000E+00  0.00000000000E+00  0.84003292375E+02  0.84003292375E+02  0.00000000000E+00 0. -1.
         21   -1    0    0  502  503 -0.00000000000E+00 -0.00000000000E+00 -0.71909589693E+03  0.71909589693E+03  0.00000000000E+00 0. -1.
          6    1    1    2  501    0  0.12486108245E+03 -0.89304397497E+02 -0.45672473180E+03  0.51161220271E+03  0.17200000000E+03 0. -1.
         -6    1    1    2    0  503 -0.12486108245E+03  0.89304397497E+02 -0.17836787275E+03  0.29148698660E+03  0.17200000000E+03 0. -1.
</event>
<event>
 4    1  0.2889985E+000  0.1839219E+03  0.7818608E-02  0.1164061E+00
         21   -1    0    0  501  502  0.00000000000E+00  0.00000000000E+00  0.20099082378E+03  0.20099082378E+03  0.00000000000E+00 0.  1.
         21   -1    0    0  502  503 -0.00000000000E+00 -0.00000000000E+00 -0.43510932021E+03  0.43510932021E+03  0.00000000000E+00 0.  1.
          6    1    1    2  501    0  0.54379866600E+02 -0.35862068790E+02  0.13199546771E+03  0.22638476399E+03  0.17200000000E+03 0.  1.
         -6    1    1    2    0  503 -0.54379866600E+02  0.35862068790E+02 -0.36611396414E+03  0.40971538000E+03  0.17200000000E+03 0.  1.
</event>
<event>
 4    1  0.2889985E+000  0.2089663E+03  0.7818608E-02  0.1142387E+00
         21   -1    0    0  503  502  0.00000000000E+00  0.00000000000E+00  0.55357504783E+02  0.55357504783E+02  0.00000000000E+00 0.  1.
         21   -1    0    0  501  503 -0.00000000000E+00 -0.00000000000E+00 -0.78930392259E+03  0.78930392259E+03  0.00000000000E+00 0. -1.
          6    1    1    2  501    0  0.93030272407E+02 -0.73676779042E+02 -0.37747091789E+03  0.43145242288E+03  0.17200000000E+03 0. -1.
         -6    1    1    2    0  502 -0.93030272407E+02  0.73676779042E+02 -0.35647549992E+03  0.41320900449E+03  0.17200000000E+03 0. -1.
</event>
<event>
 4    1  0.2889985E+000  0.1937036E+03  0.7818608E-02  0.1155163E+00
         21   -1    0    0  501  502  0.00000000000E+00  0.00000000000E+00  0.26502934498E+03  0.26502934498E+03  0.00000000000E+00 0. -1.
         21   -1    0    0  502  503 -0.00000000000E+00 -0.00000000000E+00 -0.30079821563E+03  0.30079821563E+03  0.00000000000E+00 0.  1.
          6    1    1    2  501    0 -0.13385487840E+02  0.88079014464E+02  0.18795186220E+03  0.26990180914E+03  0.17200000000E+03 0. -1.
         -6    1    1    2    0  503  0.13385487840E+02 -0.88079014464E+02 -0.22372073285E+03  0.29592575147E+03  0.17200000000E+03 0.  1.
</event>
<event>
 4    1  0.2889985E+000  0.2028769E+03  0.7818608E-02  0.1147334E+00
         21   -1    0    0  501  502  0.00000000000E+00  0.00000000000E+00  0.10014688763E+03  0.10014688763E+03  0.00000000000E+00 0. -1.
         21   -1    0    0  502  503 -0.00000000000E+00 -0.00000000000E+00 -0.41206222119E+03  0.41206222119E+03  0.00000000000E+00 0.  1.
          6    1    1    2  501    0  0.95395220398E+02  0.49747131133E+02 -0.14287268667E+03  0.24813631280E+03  0.17200000000E+03 0.  1.
         -6    1    1    2    0  503 -0.95395220398E+02 -0.49747131133E+02 -0.16904264689E+03  0.26407279602E+03  0.17200000000E+03 0. -1.
</event>
<event>
 4    1  0.2889985E+000  0.2751534E+03  0.7818608E-02  0.1098366E+00
         21   -1    0    0  501  502  0.00000000000E+00  0.00000000000E+00  0.11079210736E+04  0.11079210736E+04  0.00000000000E+00 0. -1.
         21   -1    0    0  502  503 -0.00000000000E+00 -0.00000000000E+00 -0.73989938880E+02  0.73989938880E+02  0.00000000000E+00 0. -1.
          6    1    1    2  501    0  0.16912015596E+03 -0.13237746556E+03  0.68034413807E+03  0.73387844140E+03  0.17200000000E+03 0. -1.
         -6    1    1    2    0  503 -0.16912015596E+03  0.13237746556E+03  0.35358699660E+03  0.44803257103E+03  0.17200000000E+03 0. -1.
</event>
<event>
 4    1  0.2889985E+000  0.2060008E+03  0.7818608E-02  0.1144773E+00
         21   -1    0    0  501  502  0.00000000000E+00  0.00000000000E+00  0.27846796390E+03  0.27846796390E+03  0.00000000000E+00 0. -1.
         21   -1    0    0  502  503 -0.00000000000E+00 -0.00000000000E+00 -0.22466033804E+03  0.22466033804E+03  0.00000000000E+00 0. -1.
          6    1    1    2  501    0  0.11330859817E+03 -0.36723582646E+01  0.16958253397E+03  0.26682308832E+03  0.17200000000E+03 0. -1.
         -6    1    1    2    0  503 -0.11330859817E+03  0.36723582646E+01 -0.11577490812E+03  0.23630521362E+03  0.17200000000E+03 0. -1.
</event>
<event>
 4    1  0.2889985E+000  0.1807318E+03  0.7818608E-02  0.1167097E+00
         21   -1    0    0  503  502  0.00000000000E+00  0.00000000000E+00  0.93917293893E+02  0.93917293893E+02  0.00000000000E+00 0.  1.
         21   -1    0    0  501  503 -0.00000000000E+00 -0.00000000000E+00 -0.43792144153E+03  0.43792144153E+03  0.00000000000E+00 0. -1.
          6    1    1    2  501    0  0.51555282400E+02 -0.20543379826E+02 -0.29263827682E+03  0.34394932571E+03  0.17200000000E+03 0. -1.
         -6    1    1    2    0  502 -0.51555282400E+02  0.20543379826E+02 -0.51365870823E+02  0.18788940972E+03  0.17200000000E+03 0.  1.
</event>
<event>
 4    1  0.2889985E+000  0.2633007E+03  0.7818608E-02  0.1105176E+00
         21   -1    0    0  503  502  0.00000000000E+00  0.00000000000E+00  0.55360365528E+03  0.55360365528E+03  0.00000000000E+00 0.  1.
         21   -1    0    0  501  503 -0.00000000000E+00 -0.00000000000E+00 -0.38581656994E+03  0.38581656994E+03  0.00000000000E+00 0.  1.
          6    1    1    2  501    0 -0.17771312529E+03  0.90340026305E+02 -0.30213218978E+03  0.40076319112E+03  0.17200000000E+03 0.  1.
         -6    1    1    2    0  502  0.17771312529E+03 -0.90340026305E+02  0.46991927512E+03  0.53865703410E+03  0.17200000000E+03 0.  1.
</event>
<event>
 4    1  0.2889985E+000  0.1844551E+03  0.7818608E-02  0.1163560E+00
         21   -1    0    0  501  502  0.00000000000E+00  0.00000000000E+00  0.33635328078E+03  0.33635328078E+03  0.00000000000E+00 0.  1.
         21   -1    0    0  502  503 -0.00000000000E+00 -0.00000000000E+00 -0.10905551124E+03  0.10905551124E+03  0.00000000000E+00 0.  1.
          6    1    1    2  501    0 -0.47209749102E+02 -0.47020385092E+02  0.17359263969E+03  0.25329445627E+03  0.17200000000E+03 0.  1.
         -6    1    1    2    0  503  0.47209749102E+02  0.47020385092E+02  0.53705129852E+02  0.19211433574E+03  0.17200000000E+03 0.  1.
</event>
<event>
 4    1  0.2889985E+000  0.2025799E+03  0.7818608E-02  0.1147580E+00
         21   -1    0    0  503  502  0.00000000000E+00  0.00000000000E+00  0.13890343216E+03  0.13890343216E+03  0.00000000000E+00 0. -1.
         21   -1    0    0  501  503 -0.00000000000E+00 -0.00000000000E+00 -0.34511445073E+03  0.34511445073E+03  0.00000000000E+00 0. -1.
          6    1    1    2  501    0 -0.10701763032E+03  0.13639197026E+01 -0.11296607178E+02  0.20289466925E+03  0.17200000000E+03 0.  1.
         -6    1    1    2    0  502  0.10701763032E+03 -0.13639197026E+01 -0.19491441140E+03  0.28112321364E+03  0.17200000000E+03 0.  1.
</event>
<event>
 4    1  0.2889985E+000  0.1923348E+03  0.7818608E-02  0.1156372E+00
         21   -1    0    0  503  502  0.00000000000E+00  0.00000000000E+00  0.36551652328E+02  0.36551652328E+02  0.00000000000E+00 0.  1.
         21   -1    0    0  501  503 -0.00000000000E+00 -0.00000000000E+00 -0.15241923094E+04  0.15241923094E+04  0.00000000000E+00 0.  1.
          6    1    1    2  501    0 -0.85615038253E+02  0.88730605108E+01 -0.29147454754E+03  0.34921351326E+03  0.17200000000E+03 0.  1.
         -6    1    1    2    0  502  0.85615038253E+02 -0.88730605108E+01 -0.11961661095E+04  0.12115304484E+04  0.17200000000E+03 0.  1.
</event>
<event>
 4    1  0.2889985E+000  0.1993741E+03  0.7818608E-02  0.1150268E+00
         21   -1    0    0  501  502  0.00000000000E+00  0.00000000000E+00  0.14565674359E+03  0.14565674359E+03  0.00000000000E+00 0.  1.
         21   -1    0    0  502  503 -0.00000000000E+00 -0.00000000000E+00 -0.27492412405E+03  0.27492412405E+03  0.00000000000E+00 0.  1.
          6    1    1    2  501    0  0.24496002936E+02 -0.97805864922E+02 -0.46599412513E+02  0.20474751920E+03  0.17200000000E+03 0.  1.
         -6    1    1    2    0  503 -0.24496002936E+02  0.97805864922E+02 -0.82667967947E+02  0.21583334844E+03  0.17200000000E+03 0.  1.
</event>
<event>
 4    1  0.2889985E+000  0.1961978E+03  0.7818608E-02  0.1152987E+00
         21   -1    0    0  503  502  0.00000000000E+00  0.00000000000E+00  0.22088212220E+03  0.22088212220E+03  0.00000000000E+00 0.  1.
         21   -1    0    0  501  503 -0.00000000000E+00 -0.00000000000E+00 -0.22271336923E+03  0.22271336923E+03  0.00000000000E+00 0.  1.
          6    1    1    2  501    0  0.18286787803E+02  0.92602167978E+02 -0.10435650453E+03  0.22222476946E+03  0.17200000000E+03 0.  1.
         -6    1    1    2    0  502 -0.18286787803E+02 -0.92602167978E+02  0.10252525750E+03  0.22137072198E+03  0.17200000000E+03 0.  1.
</event>
<event>
 4    1  0.2889985E+000  0.1989845E+03  0.7818608E-02  0.1150599E+00
         21   -1    0    0  503  502  0.00000000000E+00  0.00000000000E+00  0.60946142215E+02  0.60946142215E+02  0.00000000000E+00 0. -1.
         21   -1    0    0  501  503 -0.00000000000E+00 -0.00000000000E+00 -0.79852432034E+03  0.79852432034E+03  0.00000000000E+00 0. -1.
          6    1    1    2  501    0 -0.28934471210E+02  0.95779139918E+02 -0.18324872820E+03  0.27050867575E+03  0.17200000000E+03 0. -1.
         -6    1    1    2    0  502  0.28934471210E+02 -0.95779139918E+02 -0.55432944992E+03  0.58896178681E+03  0.17200000000E+03 0. -1.
</event>
<event>
 4    1  0.2889985E+000  0.1740598E+03  0.7818608E-02  0.1173679E+00
         21   -1    0    0  501  502  0.00000000000E+00  0.00000000000E+00  0.29247424351E+03  0.29247424351E+03  0.00000000000E+00 0.  1.
         21   -1    0    0  502  503 -0.00000000000E+00 -0.00000000000E+00 -0.20803760411E+03  0.20803760411E+03  0.00000000000E+00 0.  1.
          6    1    1    2  501    0  0.12917546884E+02 -0.23365357849E+02  0.21954209893E+03  0.28017054836E+03  0.17200000000E+03 0.  1.
         -6    1    1    2    0  503 -0.12917546884E+02  0.23365357849E+02 -0.13510545953E+03  0.22034129926E+03  0.17200000000E+03 0.  1.
</event>
<event>
 4    1  0.2889985E+000  0.2605166E+03  0.7818608E-02  0.1106833E+00
         21   -1    0    0  501  502  0.00000000000E+00  0.00000000000E+00  0.50954565349E+02  0.50954565349E+02  0.00000000000E+00 0.  1.
         21   -1    0    0  502  503 -0.00000000000E+00 -0.00000000000E+00 -0.13466218955E+04  0.13466218955E+04  0.00000000000E+00 0. -1.
          6    1    1    2  501    0 -0.29949683845E+02  0.19335954071E+03 -0.57489180593E+03  0.63116517971E+03  0.17200000000E+03 0.  1.
         -6    1    1    2    0  503  0.29949683845E+02 -0.19335954071E+03 -0.72077552418E+03  0.76641128110E+03  0.17200000000E+03 0. -1.
</event>
<event>
 4    1  0.2889985E+000  0.1830211E+03  0.7818608E-02  0.1164911E+00
         21   -1    0    0  503  502  0.00000000000E+00  0.00000000000E+00  0.14949753573E+04  0.14949753573E+04  0.00000000000E+00 0.  1.
         21   -1    0    0  501  503 -0.00000000000E+00 -0.00000000000E+00 -0.23868497641E+02  0.23868497641E+02  0.00000000000E+00 0.  1.
          6    1    1    2  501    0 -0.62384922305E+02 -0.45657219344E+01  0.92352308112E+03  0.94148372567E+03  0.17200000000E+03 0. -1.
         -6    1    1    2    0  502  0.62384922305E+02  0.45657219344E+01  0.54758377855E+03  0.57736012928E+03  0.17200000000E+03 0. -1.
</event>
<event>
 4    1  0.2889985E+000  0.1991518E+03  0.7818608E-02  0.1150457E+00
         21   -1    0    0  503  502  0.00000000000E+00  0.00000000000E+00  0.75284379306E+03  0.75284379306E+03  0.00000000000E+00 0. -1.
         21   -1    0    0  501  503 -0.00000000000E+00 -0.00000000000E+00 -0.54771377158E+02  0.54771377158E+02  0.00000000000E+00 0.  1.
          6    1    1    2  501    0 -0.87039908583E+02  0.50014845078E+02  0.42790230800E+03  0.47197649900E+03  0.17200000000E+03 0. -1.
         -6    1    1    2    0  502  0.87039908583E+02 -0.50014845078E+02  0.27017010790E+03  0.33563867122E+03  0.17200000000E+03 0. -1.
</event>
<event>
 4    1  0.2889985E+000  0.3868716E+03  0.7818608E-02  0.1048423E+00
         21   -1    0    0  503  502  0.00000000000E+00  0.00000000000E+00  0.28340019151E+03  0.28340019151E+03  0.00000000000E+00 0. -1.
         21   -1    0    0  501  503 -0.00000000000E+00 -0.00000000000E+00 -0.52982912837E+03  0.52982912837E+03  0.00000000000E+00 0.  1.
          6    1    1    2  501    0 -0.24451927863E+03 -0.24555234457E+03 -0.10012798032E+03  0.39961887341E+03  0.17200000000E+03 0.  1.
         -6    1    1    2    0  502  0.24451927863E+03  0.24555234457E+03 -0.14630095654E+03  0.41361044647E+03  0.17200000000E+03 0.  1.
</event>
<event>
 4    1  0.2889985E+000  0.2056637E+03  0.7818608E-02  0.1145047E+00
         21   -1    0    0  503  502  0.00000000000E+00  0.00000000000E+00  0.15191425609E+03  0.15191425609E+03  0.00000000000E+00 0.  1.
         21   -1    0    0  501  503 -0.00000000000E+00 -0.00000000000E+00 -0.27898883427E+03  0.27898883427E+03  0.00000000000E+00 0. -1.
          6    1    1    2  501    0  0.37852440296E+02 -0.10621094014E+03 -0.73175155747E+02  0.21829378017E+03  0.17200000000E+03 0.  1.
         -6    1    1    2    0  502 -0.37852440296E+02  0.10621094014E+03 -0.53899422435E+02  0.21260931019E+03  0.17200000000E+03 0.  1.
</event>
<event>
 4    1  0.2889985E+000  0.1818179E+03  0.7818608E-02  0.1166055E+00
         21   -1    0    0  503  502  0.00000000000E+00  0.00000000000E+00  0.99426678589E+03  0.99426678589E+03  0.00000000000E+00 0.  1.
         21   -1    0    0  501  503 -0.00000000000E+00 -0.00000000000E+00 -0.33615685046E+02  0.33615685046E+02  0.00000000000E+00 0.  1.
          6    1    1    2  501    0 -0.58352391869E+02  0.82911051472E+01  0.42660191945E+03  0.46373154060E+03  0.17200000000E+03 0.  1.
         -6    1    1    2    0  502  0.58352391869E+02 -0.82911051472E+01  0.53404918139E+03  0.56415093034E+03  0.17200000000E+03 0.  1.
</event>
<event>
 4    1  0.2889985E+000  0.2504521E+03  0.7818608E-02  0.1113019E+00
         21   -1    0    0  501  502  0.00000000000E+00  0.00000000000E+00  0.13430718405E+03  0.13430718405E+03  0.00000000000E+00 0.  1.
         21   -1    0    0  502  503 -0.00000000000E+00 -0.00000000000E+00 -0.85455318519E+03  0.85455318519E+03  0.00000000000E+00 0. -1.
          6    1    1    2  501    0  0.48142679531E+02 -0.17556912948E+03 -0.27171380051E+02  0.25192165590E+03  0.17200000000E+03 0.  1.
         -6    1    1    2    0  503 -0.48142679531E+02  0.17556912948E+03 -0.69307462109E+03  0.73693871334E+03  0.17200000000E+03 0. -1.
</event>
<event>
 4    1  0.2889985E+000  0.1992408E+03  0.7818608E-02  0.1150381E+00
         21   -1    0    0  503  502  0.00000000000E+00  0.00000000000E+00  0.25697317573E+03  0.25697317573E+03  0.00000000000E+00 0.  1.
         21   -1    0    0  501  503 -0.00000000000E+00 -0.00000000000E+00 -0.21042281029E+03  0.21042281029E+03  0.00000000000E+00 0. -1.
          6    1    1    2  501    0  0.80115622901E+02  0.60781398745E+02 -0.97224421088E+02  0.22169681893E+03  0.17200000000E+03 0.  1.
         -6    1    1    2    0  502 -0.80115622901E+02 -0.60781398745E+02  0.14377478654E+03  0.24569916709E+03  0.17200000000E+03 0.  1.
</event>
<event>
 4    1  0.2889985E+000  0.3281731E+03  0.7818608E-02  0.1071948E+00
         21   -1    0    0  501  502  0.00000000000E+00  0.00000000000E+00  0.94647094321E+03  0.94647094321E+03  0.00000000000E+00 0. -1.
         21   -1    0    0  502  503 -0.00000000000E+00 -0.00000000000E+00 -0.11800102711E+03  0.11800102711E+03  0.00000000000E+00 0. -1.
          6    1    1    2  501    0  0.97630634244E+02 -0.26188133898E+03  0.51479582703E+03  0.61050169531E+03  0.17200000000E+03 0. -1.
         -6    1    1    2    0  503 -0.97630634244E+02  0.26188133898E+03  0.31367408907E+03  0.45397027502E+03  0.17200000000E+03 0. -1.
</event>
<event>
 4    1  0.2889985E+000  0.1752184E+03  0.7818608E-02  0.1172513E+00
         21   -1    0    0  503  502  0.00000000000E+00  0.00000000000E+00  0.36754203884E+03  0.36754203884E+03  0.00000000000E+00 0. -1.
         21   -1    0    0  501  503 -0.00000000000E+00 -0.00000000000E+00 -0.12635844200E+03  0.12635844200E+03  0.00000000000E+00 0. -1.
          6    1    1    2  501    0  0.35313816450E+01  0.33241759944E+02 -0.23176727775E+02  0.17674457834E+03  0.17200000000E+03 0. -1.
         -6    1    1    2    0  502 -0.35313816450E+01 -0.33241759944E+02  0.26436032462E+03  0.31715590250E+03  0.17200000000E+03 0. -1.
</event>
<event>
 4    1  0.2889985E+000  0.1773912E+03  0.7818608E-02  0.1170352E+00
         21   -1    0    0  503  502  0.00000000000E+00  0.00000000000E+00  0.37991396452E+03  0.37991396452E+03  0.00000000000E+00 0. -1.
         21   -1    0    0  501  503 -0.00000000000E+00 -0.00000000000E+00 -0.16613447363E+03  0.16613447363E+03  0.00000000000E+00 0. -1.
          6    1    1    2  501    0 -0.62190583219E+01  0.42952868776E+02 -0.86444996204E+02  0.19733312695E+03  0.17200000000E+03 0. -1.
         -6    1    1    2    0  502  0.62190583219E+01 -0.42952868776E+02  0.30022448709E+03  0.34871531121E+03  0.17200000000E+03 0. -1.
</event>
<event>
 4    1  0.2889985E+000  0.1987320E+03  0.7818608E-02  0.1150813E+00
         21   -1    0    0  501  502  0.00000000000E+00  0.00000000000E+00  0.10628442734E+03  0.10628442734E+03  0.00000000000E+00 0. -1.
         21   -1    0    0  502  503 -0.00000000000E+00 -0.00000000000E+00 -0.52355484129E+03  0.52355484129E+03  0.00000000000E+00 0. -1.
          6    1    1    2  501    0  0.53035116567E+02  0.84247673204E+02 -0.38971868478E+02  0.20251716115E+03  0.17200000000E+03 0. -1.
         -6    1    1    2    0  503 -0.53035116567E+02 -0.84247673204E+02 -0.37829854547E+03  0.42732210747E+03  0.17200000000E+03 0. -1.
</event>
<event>
 4    1  0.2889985E+000  0.2213142E+03  0.7818608E-02  0.1132907E+00
         21   -1    0    0  503  502  0.00000000000E+00  0.00000000000E+00  0.25587307350E+02  0.25587307350E+02  0.00000000000E+00 0. -1.
         21   -1    0    0  501  503 -0.00000000000E+00 -0.00000000000E+00 -0.19724642076E+04  0.19724642076E+04  0.00000000000E+00 0.  1.
          6    1    1    2  501    0  0.15984355552E+02  0.13834902838E+03 -0.11450975194E+04  0.11662882501E+04  0.17200000000E+03 0.  1.
         -6    1    1    2    0  502 -0.15984355552E+02 -0.13834902838E+03 -0.80177938086E+03  0.83176326491E+03  0.17200000000E+03 0. -1.
</event>
<event>
 4    1  0.2889985E+000  0.1808873E+03  0.7818608E-02  0.1166947E+00
         21   -1    0    0  503  502  0.00000000000E+00  0.00000000000E+00  0.38876838365E+03  0.38876838365E+03  0.00000000000E+00 0.  1.
         21   -1    0    0  501  503 -0.00000000000E+00 -0.00000000000E+00 -0.30476249351E+03  0.30476249351E+03  0.00000000000E+00 0.  1.
          6    1    1    2  501    0 -0.54070999453E+02  0.14579281491E+02 -0.25302048269E+03  0.31102989099E+03  0.17200000000E+03 0.  1.
         -6    1    1    2    0  502  0.54070999453E+02 -0.14579281491E+02  0.33702637283E+03  0.38250098616E+03  0.17200000000E+03 0.  1.
</event>
<event>
 4    1  0.2889985E+000  0.1872297E+03  0.7818608E-02  0.1160984E+00
         21   -1    0    0  501  502  0.00000000000E+00  0.00000000000E+00  0.10833408869E+04  0.10833408869E+04  0.00000000000E+00 0.  1.
         21   -1    0    0  502  503 -0.00000000000E+00 -0.00000000000E+00 -0.62339556512E+03  0.62339556512E+03  0.00000000000E+00 0.  1.
          6    1    1    2  501    0 -0.47058209042E+02 -0.57065677372E+02  0.10608981498E+04  0.10772928343E+04  0.17200000000E+03 0.  1.
         -6    1    1    2    0  503  0.47058209042E+02  0.57065677372E+02 -0.60095282795E+03  0.62944361780E+03  0.17200000000E+03 0.  1.
</event>
<event>
 4    1  0.2889985E+000  0.1735559E+03  0.7818608E-02  0.1174190E+00
         21   -1    0    0  501  502  0.00000000000E+00  0.00000000000E+00  0.18039080073E+02  0.18039080073E+02  0.00000000000E+00 0. -1.
         21   -1    0    0  502  503 -0.00000000000E+00 -0.00000000000E+00 -0.16856253597E+04  0.16856253597E+04  0.00000000000E+00 0. -1.
          6    1    1    2  501    0  0.11155975973E+02  0.20327144378E+02 -0.75125476981E+03  0.77104174839E+03  0.17200000000E+03 0. -1.
         -6    1    1    2    0  503 -0.11155975973E+02 -0.20327144378E+02 -0.91633150983E+03  0.93262269140E+03  0.17200000000E+03 0. -1.
</event>
<event>
 4    1  0.2889985E+000  0.2098892E+03  0.7818608E-02  0.1141654E+00
         21   -1    0    0  503  502  0.00000000000E+00  0.00000000000E+00  0.69023423155E+02  0.69023423155E+02  0.00000000000E+00 0. -1.
         21   -1    0    0  501  503 -0.00000000000E+00 -0.00000000000E+00 -0.80186228136E+03  0.80186228136E+03  0.00000000000E+00 0. -1.
          6    1    1    2  501    0  0.78442814719E+02 -0.91193292657E+02 -0.56311873947E+03  0.60096273308E+03  0.17200000000E+03 0. -1.
         -6    1    1    2    0  502 -0.78442814719E+02  0.91193292657E+02 -0.16972011874E+03  0.26992297144E+03  0.17200000000E+03 0. -1.
</event>
<event>
 4    1  0.2889985E+000  0.2021349E+03  0.7818608E-02  0.1147950E+00
         21   -1    0    0  503  502  0.00000000000E+00  0.00000000000E+00  0.32421083944E+03  0.32421083944E+03  0.00000000000E+00 0. -1.
         21   -1    0    0  501  503 -0.00000000000E+00 -0.00000000000E+00 -0.12925571531E+03  0.12925571531E+03  0.00000000000E+00 0.  1.
          6    1    1    2  501    0  0.95108285806E+02  0.47211441114E+02  0.13332630269E+03  0.24214542983E+03  0.17200000000E+03 0. -1.
         -6    1    1    2    0  502 -0.95108285806E+02 -0.47211441114E+02  0.61628821443E+02  0.21132112491E+03  0.17200000000E+03 0. -1.
</event>
<event>
 4    1  0.2889985E+000  0.1965193E+03  0.7818608E-02  0.1152709E+00
         21   -1    0    0  503  502  0.00000000000E+00  0.00000000000E+00  0.19490285924E+03  0.19490285924E+03  0.00000000000E+00 0.  1.
         21   -1    0    0  501  503 -0.00000000000E+00 -0.00000000000E+00 -0.20627225300E+03  0.20627225300E+03  0.00000000000E+00 0.  1.
          6    1    1    2  501    0 -0.66321831357E+01  0.94825430608E+02 -0.45490178267E+02  0.20171565250E+03  0.17200000000E+03 0.  1.
         -6    1    1    2    0  502  0.66321831357E+01 -0.94825430608E+02  0.34120784508E+02  0.19945945974E+03  0.17200000000E+03 0.  1.
</event>
<event>
 4    1  0.2889985E+000  0.2843206E+03  0.7818608E-02  0.1093352E+00
         21   -1    0    0  503  502  0.00000000000E+00  0.00000000000E+00  0.12208131165E+04  0.12208131165E+04  0.00000000000E+00 0. -1.
         21   -1    0    0  501  503 -0.00000000000E+00 -0.00000000000E+00 -0.81818436827E+02  0.81818436827E+02  0.00000000000E+00 0.  1.
          6    1    1    2  501    0 -0.14309212932E+03 -0.17543895458E+03  0.28508211293E+03  0.40262885561E+03  0.17200000000E+03 0.  1.
         -6    1    1    2    0  502  0.14309212932E+03  0.17543895458E+03  0.85391256675E+03  0.90000269773E+03  0.17200000000E+03 0.  1.
</event>
<event>
 4    1  0.2889985E+000  0.1846340E+03  0.7818608E-02  0.1163392E+00
         21   -1    0    0  503  502  0.00000000000E+00  0.00000000000E+00  0.11733651796E+04  0.11733651796E+04  0.00000000000E+00 0.  1.
         21   -1    0    0  501  503 -0.00000000000E+00 -0.00000000000E+00 -0.61282562832E+02  0.61282562832E+02  0.00000000000E+00 0.  1.
          6    1    1    2  501    0  0.16551711082E+02  0.65052014395E+02  0.10037258861E+04  0.10205662047E+04  0.17200000000E+03 0.  1.
         -6    1    1    2    0  502 -0.16551711082E+02 -0.65052014395E+02  0.10835673064E+03  0.21408153772E+03  0.17200000000E+03 0.  1.
</event>
<event>
 4    1  0.2889985E+000  0.1989894E+03  0.7818608E-02  0.1150594E+00
         21   -1    0    0  503  502  0.00000000000E+00  0.00000000000E+00  0.22677261600E+03  0.22677261600E+03  0.00000000000E+00 0.  1.
         21   -1    0    0  501  503 -0.00000000000E+00 -0.00000000000E+00 -0.18932035365E+03  0.18932035365E+03  0.00000000000E+00 0.  1.
          6    1    1    2  501    0 -0.49798772946E+02 -0.86792076485E+02 -0.39266425296E+02  0.20282661187E+03  0.17200000000E+03 0.  1.
         -6    1    1    2    0  502  0.49798772946E+02  0.86792076485E+02  0.76718687638E+02  0.21326635778E+03  0.17200000000E+03 0.  1.
</event>
<event>
 4    1  0.2889985E+000  0.1921593E+03  0.7818608E-02  0.1156528E+00
         21   -1    0    0  503  502  0.00000000000E+00  0.00000000000E+00  0.65760128046E+03  0.65760128046E+03  0.00000000000E+00 0. -1.
         21   -1    0    0  501  503 -0.00000000000E+00 -0.00000000000E+00 -0.94824892115E+02  0.94824892115E+02  0.00000000000E+00 0. -1.
          6    1    1    2  501    0  0.73456074639E+02 -0.44106622194E+02  0.41129127435E+02  0.19651156237E+03  0.17200000000E+03 0. -1.
         -6    1    1    2    0  502 -0.73456074639E+02  0.44106622194E+02  0.52164726091E+03  0.55591461021E+03  0.17200000000E+03 0. -1.
</event>
<event>
 4    1  0.2889985E+000  0.2345028E+03  0.7818608E-02  0.1123510E+00
         21   -1    0    0  501  502  0.00000000000E+00  0.00000000000E+00  0.65182791340E+03  0.65182791340E+03  0.00000000000E+00 0. -1.
         21   -1    0    0  502  503 -0.00000000000E+00 -0.00000000000E+00 -0.10369752038E+03  0.10369752038E+03  0.00000000000E+00 0.  1.
          6    1    1    2  501    0 -0.10256348058E+03 -0.12201760071E+03  0.43717400441E+03  0.49609744261E+03  0.17200000000E+03 0. -1.
         -6    1    1    2    0  503  0.10256348058E+03  0.12201760071E+03  0.11095638861E+03  0.25942799117E+03  0.17200000000E+03 0.  1.
</event>
<event>
 4    1  0.2889985E+000  0.2205962E+03  0.7818608E-02  0.1133439E+00
         21   -1    0    0  503  502  0.00000000000E+00  0.00000000000E+00  0.51294685164E+03  0.51294685164E+03  0.00000000000E+00 0. -1.
         21   -1    0    0  501  503 -0.00000000000E+00 -0.00000000000E+00 -0.12164478373E+03  0.12164478373E+03  0.00000000000E+00 0. -1.
          6    1    1    2  501    0 -0.15591094392E+02 -0.13724286394E+03  0.46786998386E+02  0.22550323533E+03  0.17200000000E+03 0. -1.
         -6    1    1    2    0  502  0.15591094392E+02  0.13724286394E+03  0.34451506952E+03  0.40908840005E+03  0.17200000000E+03 0. -1.
</event>
<event>
 4    1  0.2889985E+000  0.2526068E+03  0.7818608E-02  0.1111668E+00
         21   -1    0    0  501  502  0.00000000000E+00  0.00000000000E+00  0.45998195243E+03  0.45998195243E+03  0.00000000000E+00 0. -1.
         21   -1    0    0  502  503 -0.00000000000E+00 -0.00000000000E+00 -0.29473317163E+03  0.29473317163E+03  0.00000000000E+00 0. -1.
          6    1    1    2  501    0  0.57212101916E+02 -0.17593459517E+03  0.35717006923E+03  0.43747075872E+03  0.17200000000E+03 0. -1.
         -6    1    1    2    0  503 -0.57212101916E+02  0.17593459517E+03 -0.19192128843E+03  0.31724436534E+03  0.17200000000E+03 0. -1.
</event>
<event>
 4    1  0.2889985E+000  0.3139680E+03  0.7818608E-02  0.1078459E+00
         21   -1    0    0  503  502  0.00000000000E+00  0.00000000000E+00  0.14384784503E+03  0.14384784503E+03  0.00000000000E+00 0. -1.
         21   -1    0    0  501  503 -0.00000000000E+00 -0.00000000000E+00 -0.15270750967E+04  0.15270750967E+04  0.00000000000E+00 0.  1.
          6    1    1    2  501    0  0.20491640727E+03  0.16432029224E+03 -0.13119106669E+04  0.13489571863E+04  0.17200000000E+03 0.  1.
         -6    1    1    2    0  502 -0.20491640727E+03 -0.16432029224E+03 -0.71316584705E+02  0.32196575542E+03  0.17200000000E+03 0. -1.
</event>
<event>
 4    1  0.2889985E+000  0.1861074E+03  0.7818608E-02  0.1162020E+00
         21   -1    0    0  503  502  0.00000000000E+00  0.00000000000E+00  0.15659329273E+04  0.15659329273E+04  0.00000000000E+00 0.  1.
         21   -1    0    0  501  503 -0.00000000000E+00 -0.00000000000E+00 -0.35723925765E+02  0.35723925765E+02  0.00000000000E+00 0.  1.
          6    1    1    2  501    0  0.70700684570E+02  0.73058009762E+01  0.27088799761E+03  0.32865828573E+03  0.17200000000E+03 0. -1.
         -6    1    1    2    0  502 -0.70700684570E+02 -0.73058009762E+01  0.12593210039E+04  0.12729985673E+04  0.17200000000E+03 0. -1.
</event>
<event>
 4    1  0.2889985E+000  0.1734258E+03  0.7818608E-02  0.1174322E+00
         21   -1    0    0  501  502  0.00000000000E+00  0.00000000000E+00  0.34225603484E+03  0.34225603484E+03  0.00000000000E+00 0.  1.
         21   -1    0    0  502  503 -0.00000000000E+00 -0.00000000000E+00 -0.15599079214E+03  0.15599079214E+03  0.00000000000E+00 0.  1.
          6    1    1    2  501    0 -0.20741217761E+02 -0.78933638328E+01  0.25775237390E+03  0.31066507618E+03  0.17200000000E+03 0.  1.
         -6    1    1    2    0  503  0.20741217761E+02  0.78933638328E+01 -0.71487131200E+02  0.18758175080E+03  0.17200000000E+03 0.  1.
</event>
<event>
 4    1  0.2889985E+000  0.1721571E+03  0.7818608E-02  0.1175617E+00
         21   -1    0    0  503  502  0.00000000000E+00  0.00000000000E+00  0.19126350440E+03  0.19126350440E+03  0.00000000000E+00 0.  1.
         21   -1    0    0  501  503 -0.00000000000E+00 -0.00000000000E+00 -0.18171974349E+03  0.18171974349E+03  0.00000000000E+00 0.  1.
          6    1    1    2  501    0  0.51034254991E+01  0.52933684084E+01 -0.66793778475E+02  0.18466042766E+03  0.17200000000E+03 0.  1.
         -6    1    1    2    0  502 -0.51034254991E+01 -0.52933684084E+01  0.76337539387E+02  0.18832282023E+03  0.17200000000E+03 0.  1.
</event>
<event>
 4    1  0.2889985E+000  0.1739442E+03  0.7818608E-02  0.1173796E+00
         21   -1    0    0  503  502  0.00000000000E+00  0.00000000000E+00  0.31753610485E+02  0.31753610485E+02  0.00000000000E+00 0.  1.
         21   -1    0    0  501  503 -0.00000000000E+00 -0.00000000000E+00 -0.10017405478E+04  0.10017405478E+04  0.00000000000E+00 0.  1.
          6    1    1    2  501    0 -0.19416969760E+02  0.17191904753E+02 -0.59914756924E+03  0.62388652015E+03  0.17200000000E+03 0. -1.
         -6    1    1    2    0  502  0.19416969760E+02 -0.17191904753E+02 -0.37083936811E+03  0.40960763816E+03  0.17200000000E+03 0. -1.
</event>
<event>
 4    1  0.2889985E+000  0.2125726E+03  0.7818608E-02  0.1139545E+00
         21   -1    0    0  503  502  0.00000000000E+00  0.00000000000E+00  0.21006650944E+03  0.21006650944E+03  0.00000000000E+00 0. -1.
         21   -1    0    0  501  503 -0.00000000000E+00 -0.00000000000E+00 -0.54820233482E+03  0.54820233482E+03  0.00000000000E+00 0.  1.
          6    1    1    2  501    0 -0.11833610040E+03  0.39995799099E+02 -0.46460096422E+03  0.51092186541E+03  0.17200000000E+03 0.  1.
         -6    1    1    2    0  502  0.11833610040E+03 -0.39995799099E+02  0.12646513884E+03  0.24734697884E+03  0.17200000000E+03 0. -1.
</event>
<event>
 4    1  0.2889985E+000  0.1827003E+03  0.7818608E-02  0.1165215E+00
         21   -1    0    0  503  502  0.00000000000E+00  0.00000000000E+00  0.10768624918E+03  0.10768624918E+03  0.00000000000E+00 0.  1.
         21   -1    0    0  501  503 -0.00000000000E+00 -0.00000000000E+00 -0.10383059247E+04  0.10383059247E+04  0.00000000000E+00 0. -1.
          6    1    1    2  501    0 -0.51452765732E+02 -0.33882581060E+02 -0.94521465104E+03  0.96270979685E+03  0.17200000000E+03 0. -1.
         -6    1    1    2    0  502  0.51452765732E+02  0.33882581060E+02  0.14594975567E+02  0.18328237698E+03  0.17200000000E+03 0.  1.
</event>
<event>
 4    1  0.2889985E+000  0.3366369E+03  0.7818608E-02  0.1068237E+00
         21   -1    0    0  503  502  0.00000000000E+00  0.00000000000E+00  0.16167231700E+03  0.16167231700E+03  0.00000000000E+00 0.  1.
         21   -1    0    0  501  503 -0.00000000000E+00 -0.00000000000E+00 -0.79771612420E+03  0.79771612420E+03  0.00000000000E+00 0. -1.
          6    1    1    2  501    0  0.23191368201E+03  0.17307938496E+03 -0.15095172493E+03  0.36893204342E+03  0.17200000000E+03 0.  1.
         -6    1    1    2    0  502 -0.23191368201E+03 -0.17307938496E+03 -0.48509208227E+03  0.59045639778E+03  0.17200000000E+03 0. -1.
</event>
<event>
 4    1  0.2889985E+000  0.1822412E+03  0.7818608E-02  0.1165651E+00
         21   -1    0    0  501  502  0.00000000000E+00  0.00000000000E+00  0.86143404198E+03  0.86143404198E+03  0.00000000000E+00 0. -1.
         21   -1    0    0  502  503 -0.00000000000E+00 -0.00000000000E+00 -0.84054611479E+02  0.84054611479E+02  0.00000000000E+00 0.  1.
          6    1    1    2  501    0  0.60071709126E+02 -0.43862124256E+01  0.73650887304E+03  0.75872074518E+03  0.17200000000E+03 0. -1.
         -6    1    1    2    0  503 -0.60071709126E+02  0.43862124256E+01  0.40870557461E+02  0.18676790828E+03  0.17200000000E+03 0.  1.
</event>
<event>
 4    1  0.2889985E+000  0.4451790E+03  0.7818608E-02  0.1029170E+00
         21   -1    0    0  503  502  0.00000000000E+00  0.00000000000E+00  0.19502028942E+04  0.19502028942E+04  0.00000000000E+00 0. -1.
         21   -1    0    0  501  503 -0.00000000000E+00 -0.00000000000E+00 -0.11266571916E+03  0.11266571916E+03  0.00000000000E+00 0.  1.
          6    1    1    2  501    0 -0.25901514408E+03 -0.31860862545E+03  0.59584820159E+03  0.74378718758E+03  0.17200000000E+03 0. -1.
         -6    1    1    2    0  502  0.25901514408E+03  0.31860862545E+03  0.12416889734E+04  0.13190814258E+04  0.17200000000E+03 0. -1.
</event>
<event>
 4    1  0.2889985E+000  0.1908472E+03  0.7818608E-02  0.1157699E+00
         21   -1    0    0  501  502  0.00000000000E+00  0.00000000000E+00  0.26448692367E+04  0.26448692367E+04  0.00000000000E+00 0.  1.
         21   -1    0    0  502  503 -0.00000000000E+00 -0.00000000000E+00 -0.14532524186E+02  0.14532524186E+02  0.00000000000E+00 0.  1.
          6    1    1    2  501    0 -0.31420304880E+02 -0.76494622302E+02  0.16195420453E+04  0.16307480183E+04  0.17200000000E+03 0. -1.
         -6    1    1    2    0  503  0.31420304880E+02  0.76494622302E+02  0.10107946672E+04  0.10286537425E+04  0.17200000000E+03 0. -1.
</event>
<event>
 4    1  0.2889985E+000  0.2233843E+03  0.7818608E-02  0.1131385E+00
         21   -1    0    0  503  502  0.00000000000E+00  0.00000000000E+00  0.32263651175E+03  0.32263651175E+03  0.00000000000E+00 0. -1.
         21   -1    0    0  501  503 -0.00000000000E+00 -0.00000000000E+00 -0.17068359006E+03  0.17068359006E+03  0.00000000000E+00 0. -1.
          6    1    1    2  501    0  0.67579953047E+02  0.12549694899E+03  0.41213127351E+00  0.22338465505E+03  0.17200000000E+03 0. -1.
         -6    1    1    2    0  502 -0.67579953047E+02 -0.12549694899E+03  0.15154079041E+03  0.26993544676E+03  0.17200000000E+03 0. -1.
</event>
<event>
 4    1  0.2889985E+000  0.2108648E+03  0.7818608E-02  0.1140883E+00
         21   -1    0    0  503  502  0.00000000000E+00  0.00000000000E+00  0.13348436715E+04  0.13348436715E+04  0.00000000000E+00 0.  1.
         21   -1    0    0  501  503 -0.00000000000E+00 -0.00000000000E+00 -0.44867418160E+02  0.44867418160E+02  0.00000000000E+00 0.  1.
          6    1    1    2  501    0 -0.83136649005E+02 -0.89265140854E+02  0.29486688709E+03  0.36250579152E+03  0.17200000000E+03 0.  1.
         -6    1    1    2    0  502  0.83136649005E+02  0.89265140854E+02  0.99510936626E+03  0.10172052982E+04  0.17200000000E+03 0.  1.
</event>
<event>
 4    1  0.2889985E+000  0.1767453E+03  0.7818608E-02  0.1170991E+00
         21   -1    0    0  503  502  0.00000000000E+00  0.00000000000E+00  0.18940466922E+04  0.18940466922E+04  0.00000000000E+00 0. -1.
         21   -1    0    0  501  503 -0.00000000000E+00 -0.00000000000E+00 -0.28437757229E+02  0.28437757229E+02  0.00000000000E+00 0. -1.
          6    1    1    2  501    0  0.25446263547E+02  0.31739162712E+02  0.30983001638E+03  0.35669808778E+03  0.17200000000E+03 0. -1.
         -6    1    1    2    0  502 -0.25446263547E+02 -0.31739162712E+02  0.15557789186E+04  0.15657863616E+04  0.17200000000E+03 0. -1.
</event>
<event>
 4    1  0.2889985E+000  0.2123283E+03  0.7818608E-02  0.1139735E+00
         21   -1    0    0  501  502  0.00000000000E+00  0.00000000000E+00  0.16539431983E+03  0.16539431983E+03  0.00000000000E+00 0.  1.
         21   -1    0    0  502  503 -0.00000000000E+00 -0.00000000000E+00 -0.45678396966E+03  0.45678396966E+03  0.00000000000E+00 0. -1.
          6    1    1    2  501    0 -0.12044708433E+03  0.31492642387E+02  0.51855700259E+02  0.21856875417E+03  0.17200000000E+03 0.  1.
         -6    1    1    2    0  503  0.12044708433E+03 -0.31492642387E+02 -0.34324535009E+03  0.40360953533E+03  0.17200000000E+03 0. -1.
</event>
<event>
 4    1  0.2889985E+000  0.1927199E+03  0.7818608E-02  0.1156031E+00
         21   -1    0    0  503  502  0.00000000000E+00  0.00000000000E+00  0.52222609813E+03  0.52222609813E+03  0.00000000000E+00 0.  1.
         21   -1    0    0  501  503 -0.00000000000E+00 -0.00000000000E+00 -0.10754741260E+03  0.10754741260E+03  0.00000000000E+00 0.  1.
          6    1    1    2  501    0 -0.71216291556E+02  0.49851601451E+02  0.24080037360E+02  0.19421840940E+03  0.17200000000E+03 0.  1.
         -6    1    1    2    0  502  0.71216291556E+02 -0.49851601451E+02  0.39059864817E+03  0.43555510134E+03  0.17200000000E+03 0.  1.
</event>
<event>
 4    1  0.2889985E+000  0.2839508E+03  0.7818608E-02  0.1093550E+00
         21   -1    0    0  501  502  0.00000000000E+00  0.00000000000E+00  0.88853958289E+03  0.88853958289E+03  0.00000000000E+00 0.  1.
         21   -1    0    0  502  503 -0.00000000000E+00 -0.00000000000E+00 -0.91242626782E+02  0.91242626782E+02  0.00000000000E+00 0. -1.
          6    1    1    2  501    0 -0.90998182822E+01  0.22574596671E+03  0.36236864737E+03  0.46036842287E+03  0.17200000000E+03 0. -1.
         -6    1    1    2    0  503  0.90998182822E+01 -0.22574596671E+03  0.43492830873E+03  0.51941378680E+03  0.17200000000E+03 0.  1.
</event>
<event>
 4    1  0.2889985E+000  0.1750973E+03  0.7818608E-02  0.1172634E+00
         21   -1    0    0  503  502  0.00000000000E+00  0.00000000000E+00  0.36926496964E+03  0.36926496964E+03  0.00000000000E+00 0. -1.
         21   -1    0    0  501  503 -0.00000000000E+00 -0.00000000000E+00 -0.83237100256E+02  0.83237100256E+02  0.00000000000E+00 0. -1.
          6    1    1    2  501    0 -0.13340699549E+02 -0.29951478379E+02  0.13165447200E+03  0.21907068567E+03  0.17200000000E+03 0.  1.
         -6    1    1    2    0  502  0.13340699549E+02  0.29951478379E+02  0.15437339738E+03  0.23343138423E+03  0.17200000000E+03 0.  1.
</event>
<event>
 4    1  0.2889985E+000  0.1828130E+03  0.7818608E-02  0.1165108E+00
         21   -1    0    0  503  502  0.00000000000E+00  0.00000000000E+00  0.10481927088E+03  0.10481927088E+03  0.00000000000E+00 0.  1.
         21   -1    0    0  501  503 -0.00000000000E+00 -0.00000000000E+00 -0.48346857922E+03  0.48346857922E+03  0.00000000000E+00 0.  1.
          6    1    1    2  501    0  0.61797954640E+02 -0.41964969448E+01 -0.36096844644E+03  0.40462181986E+03  0.17200000000E+03 0.  1.
         -6    1    1    2    0  502 -0.61797954640E+02  0.41964969448E+01 -0.17680861907E+02  0.18366603023E+03  0.17200000000E+03 0.  1.
</event>
<event>
 4    1  0.2889985E+000  0.2062737E+03  0.7818608E-02  0.1144551E+00
         21   -1    0    0  501  502  0.00000000000E+00  0.00000000000E+00  0.78302286394E+03  0.78302286394E+03  0.00000000000E+00 0. -1.
         21   -1    0    0  502  503 -0.00000000000E+00 -0.00000000000E+00 -0.54753443769E+02  0.54753443769E+02  0.00000000000E+00 0. -1.
          6    1    1    2  501    0 -0.52318905328E+02 -0.10113140664E+03  0.32769919893E+03  0.38721517822E+03  0.17200000000E+03 0. -1.
         -6    1    1    2    0  503  0.52318905328E+02  0.10113140664E+03  0.40057022124E+03  0.45056112949E+03  0.17200000000E+03 0. -1.
</event>
<event>
 4    1  0.2889985E+000  0.1850191E+03  0.7818608E-02  0.1163032E+00
         21   -1    0    0  503  502  0.00000000000E+00  0.00000000000E+00  0.19200345073E+04  0.19200345073E+04  0.00000000000E+00 0. -1.
         21   -1    0    0  501  503 -0.00000000000E+00 -0.00000000000E+00 -0.18197168501E+02  0.18197168501E+02  0.00000000000E+00 0. -1.
          6    1    1    2  501    0 -0.58571126104E+02  0.34892437849E+02  0.81304871189E+03  0.83383467602E+03  0.17200000000E+03 0. -1.
         -6    1    1    2    0  502  0.58571126104E+02 -0.34892437849E+02  0.10887886269E+04  0.11043969997E+04  0.17200000000E+03 0. -1.
</event>
<event>
 4    1  0.2889985E+000  0.1738522E+03  0.7818608E-02  0.1173889E+00
         21   -1    0    0  501  502  0.00000000000E+00  0.00000000000E+00  0.45058742725E+03  0.45058742725E+03  0.00000000000E+00 0. -1.
         21   -1    0    0  502  503 -0.00000000000E+00 -0.00000000000E+00 -0.97402641656E+02  0.97402641656E+02  0.00000000000E+00 0. -1.
          6    1    1    2  501    0  0.46761940189E+01 -0.24873896421E+02  0.32947355873E+03  0.37252839277E+03  0.17200000000E+03 0. -1.
         -6    1    1    2    0  503 -0.46761940189E+01  0.24873896421E+02  0.23711226861E+02  0.17546167614E+03  0.17200000000E+03 0. -1.
</event>
<event>
 4    1  0.2889985E+000  0.2046622E+03  0.7818608E-02  0.1145864E+00
         21   -1    0    0  503  502  0.00000000000E+00  0.00000000000E+00  0.12072339861E+03  0.12072339861E+03  0.00000000000E+00 0. -1.
         21   -1    0    0  501  503 -0.00000000000E+00 -0.00000000000E+00 -0.57849637642E+03  0.57849637642E+03  0.00000000000E+00 0.  1.
          6    1    1    2  501    0 -0.33794642293E+02 -0.10564340365E+03 -0.45006338954E+03  0.49441244036E+03  0.17200000000E+03 0.  1.
         -6    1    1    2    0  502  0.33794642293E+02  0.10564340365E+03 -0.77095882673E+01  0.20480733467E+03  0.17200000000E+03 0. -1.
</event>
<event>
 4    1  0.2889985E+000  0.1802578E+03  0.7818608E-02  0.1167554E+00
         21   -1    0    0  501  502  0.00000000000E+00  0.00000000000E+00  0.17783440044E+04  0.17783440044E+04  0.00000000000E+00 0.  1.
         21   -1    0    0  502  503 -0.00000000000E+00 -0.00000000000E+00 -0.30397836384E+02  0.30397836384E+02  0.00000000000E+00 0.  1.
          6    1    1    2  501    0  0.49517835744E+01 -0.53706085451E+02  0.30276866862E+03  0.35236590425E+03  0.17200000000E+03 0.  1.
         -6    1    1    2    0  503 -0.49517835744E+01  0.53706085451E+02  0.14451774994E+04  0.14563759365E+04  0.17200000000E+03 0.  1.
</event>
<event>
 4    1  0.2889985E+000  0.2095629E+03  0.7818608E-02  0.1141913E+00
         21   -1    0    0  503  502  0.00000000000E+00  0.00000000000E+00  0.28969160229E+02  0.28969160229E+02  0.00000000000E+00 0. -1.
         21   -1    0    0  501  503 -0.00000000000E+00 -0.00000000000E+00 -0.15228128937E+04  0.15228128937E+04  0.00000000000E+00 0. -1.
          6    1    1    2  501    0 -0.49409807707E+02  0.10904721694E+03 -0.69494299493E+03  0.72585287133E+03  0.17200000000E+03 0. -1.
         -6    1    1    2    0  502  0.49409807707E+02 -0.10904721694E+03 -0.79890073851E+03  0.82592918257E+03  0.17200000000E+03 0. -1.
</event>
<event>
 4    1  0.2889985E+000  0.1749273E+03  0.7818608E-02  0.1172805E+00
         21   -1    0    0  501  502  0.00000000000E+00  0.00000000000E+00  0.40435688218E+03  0.40435688218E+03  0.00000000000E+00 0. -1.
         21   -1    0    0  502  503 -0.00000000000E+00 -0.00000000000E+00 -0.10532372551E+03  0.10532372551E+03  0.00000000000E+00 0. -1.
          6    1    1    2  501    0 -0.31713752862E+02 -0.31277109916E+01  0.28472724790E+03  0.33416934388E+03  0.17200000000E+03 0. -1.
         -6    1    1    2    0  503  0.31713752862E+02  0.31277109916E+01  0.14305908776E+02  0.17551126381E+03  0.17200000000E+03 0. -1.
</event>
<event>
 4    1  0.2889985E+000  0.2516674E+03  0.7818608E-02  0.1112256E+00
         21   -1    0    0  501  502  0.00000000000E+00  0.00000000000E+00  0.62889825036E+03  0.62889825036E+03  0.00000000000E+00 0.  1.
         21   -1    0    0  502  503 -0.00000000000E+00 -0.00000000000E+00 -0.18219142418E+03  0.18219142418E+03  0.00000000000E+00 0. -1.
          6    1    1    2  501    0 -0.16617544410E+03 -0.78346519804E+02  0.49456219003E+03  0.55491279964E+03  0.17200000000E+03 0.  1.
         -6    1    1    2    0  503  0.16617544410E+03  0.78346519804E+02 -0.47855363847E+02  0.25617687491E+03  0.17200000000E+03 0. -1.
</event>
<event>
 4    1  0.2889985E+000  0.3759657E+03  0.7818608E-02  0.1052435E+00
         21   -1    0    0  503  502  0.00000000000E+00  0.00000000000E+00  0.13595089245E+03  0.13595089245E+03  0.00000000000E+00 0.  1.
         21   -1    0    0  501  503 -0.00000000000E+00 -0.00000000000E+00 -0.13307672906E+04  0.13307672906E+04  0.00000000000E+00 0. -1.
          6    1    1    2  501    0  0.19797723788E+02  0.33372781899E+03 -0.94037414169E+03  0.10127456410E+04  0.17200000000E+03 0. -1.
         -6    1    1    2    0  502 -0.19797723788E+02 -0.33372781899E+03 -0.25444225643E+03  0.45397254201E+03  0.17200000000E+03 0.  1.
</event>
<event>
 4    1  0.2889985E+000  0.1934506E+03  0.7818608E-02  0.1155385E+00
         21   -1    0    0  501  502  0.00000000000E+00  0.00000000000E+00  0.11165511653E+03  0.11165511653E+03  0.00000000000E+00 0. -1.
         21   -1    0    0  502  503 -0.00000000000E+00 -0.00000000000E+00 -0.33962062312E+03  0.33962062312E+03  0.00000000000E+00 0. -1.
          6    1    1    2  501    0  0.82656446506E+02  0.31734133036E+02 -0.88144846609E+02  0.21258564705E+03  0.17200000000E+03 0.  1.
         -6    1    1    2    0  503 -0.82656446506E+02 -0.31734133036E+02 -0.13982065997E+03  0.23869009260E+03  0.17200000000E+03 0.  1.
</event>
<event>
 4    1  0.2889985E+000  0.2546623E+03  0.7818608E-02  0.1110393E+00
         21   -1    0    0  503  502  0.00000000000E+00  0.00000000000E+00  0.10947396301E+04  0.10947396301E+04  0.00000000000E+00 0.  1.
         21   -1    0    0  501  503 -0.00000000000E+00 -0.00000000000E+00 -0.13887870953E+03  0.13887870953E+03  0.00000000000E+00 0.  1.
          6    1    1    2  501    0  0.18428695675E+03 -0.36155182314E+02  0.10847700913E+02  0.25489321735E+03  0.17200000000E+03 0.  1.
         -6    1    1    2    0  502 -0.18428695675E+03  0.36155182314E+02  0.94501321963E+03  0.97872512224E+03  0.17200000000E+03 0.  1.
</event>
<event>
 4    1  0.2889985E+000  0.3458168E+03  0.7818608E-02  0.1064345E+00
         21   -1    0    0  501  502  0.00000000000E+00  0.00000000000E+00  0.24414347255E+03  0.24414347255E+03  0.00000000000E+00 0. -1.
         21   -1    0    0  502  503 -0.00000000000E+00 -0.00000000000E+00 -0.71608487056E+03  0.71608487056E+03  0.00000000000E+00 0.  1.
          6    1    1    2  501    0 -0.25839940191E+03  0.15243024348E+03  0.33902366994E+02  0.34747460414E+03  0.17200000000E+03 0. -1.
         -6    1    1    2    0  503  0.25839940191E+03 -0.15243024348E+03 -0.50584376500E+03  0.61275373897E+03  0.17200000000E+03 0.  1.
</event>
<event>
 4    1  0.2889985E+000  0.3166516E+03  0.7818608E-02  0.1077201E+00
         21   -1    0    0  503  502  0.00000000000E+00  0.00000000000E+00  0.38232045893E+03  0.38232045893E+03  0.00000000000E+00 0.  1.
         21   -1    0    0  501  503 -0.00000000000E+00 -0.00000000000E+00 -0.38604775099E+03  0.38604775099E+03  0.00000000000E+00 0. -1.
          6    1    1    2  501    0  0.26048502880E+03 -0.53214528908E+02 -0.21941095278E+03  0.38523940935E+03  0.17200000000E+03 0. -1.
         -6    1    1    2    0  502 -0.26048502880E+03  0.53214528908E+02  0.21568366073E+03  0.38312880057E+03  0.17200000000E+03 0.  1.
</event>
<event>
 4    1  0.2889985E+000  0.2407952E+03  0.7818608E-02  0.1119264E+00
         21   -1    0    0  501  502  0.00000000000E+00  0.00000000000E+00  0.56235317863E+02  0.56235317863E+02  0.00000000000E+00 0. -1.
         21   -1    0    0  502  503 -0.00000000000E+00 -0.00000000000E+00 -0.15422442620E+04  0.15422442620E+04  0.00000000000E+00 0.  1.
          6    1    1    2  501    0  0.13511852284E+03  0.10070416125E+03 -0.28286810425E+03  0.37147908113E+03  0.17200000000E+03 0. -1.
         -6    1    1    2    0  503 -0.13511852284E+03 -0.10070416125E+03 -0.12031408399E+04  0.12270004987E+04  0.17200000000E+03 0.  1.
</event>
<event>
 4    1  0.2889985E+000  0.2839216E+03  0.7818608E-02  0.1093566E+00
         21   -1    0    0  503  502  0.00000000000E+00  0.00000000000E+00  0.20478933569E+03  0.20478933569E+03  0.00000000000E+00 0. -1.
         21   -1    0    0  501  503 -0.00000000000E+00 -0.00000000000E+00 -0.11105837931E+04  0.11105837931E+04  0.00000000000E+00 0.  1.
          6    1    1    2  501    0  0.15143942721E+03 -0.16761131696E+03 -0.98132854977E+03  0.10215758299E+04  0.17200000000E+03 0.  1.
         -6    1    1    2    0  502 -0.15143942721E+03  0.16761131696E+03  0.75534092392E+02  0.29379729883E+03  0.17200000000E+03 0. -1.
</event>
<event>
 4    1  0.2889985E+000  0.2216507E+03  0.7818608E-02  0.1132658E+00
         21   -1    0    0  501  502  0.00000000000E+00  0.00000000000E+00  0.43788410492E+03  0.43788410492E+03  0.00000000000E+00 0.  1.
         21   -1    0    0  502  503 -0.00000000000E+00 -0.00000000000E+00 -0.12805047432E+03  0.12805047432E+03  0.00000000000E+00 0. -1.
          6    1    1    2  501    0 -0.99166137499E+02 -0.98544884626E+02  0.25448398919E+03  0.33747758128E+03  0.17200000000E+03 0.  1.
         -6    1    1    2    0  503  0.99166137499E+02  0.98544884626E+02  0.55349641407E+02  0.22845699796E+03  0.17200000000E+03 0. -1.
</event>
<event>
 4    1  0.2889985E+000  0.2131648E+03  0.7818608E-02  0.1139084E+00
         21   -1    0    0  501  502  0.00000000000E+00  0.00000000000E+00  0.10452322145E+04  0.10452322145E+04  0.00000000000E+00 0.  1.
         21   -1    0    0  502  503 -0.00000000000E+00 -0.00000000000E+00 -0.44677796305E+02  0.44677796305E+02  0.00000000000E+00 0.  1.
          6    1    1    2  501    0  0.12181483838E+03 -0.31880657596E+02  0.58977189709E+03  0.62711252721E+03  0.17200000000E+03 0.  1.
         -6    1    1    2    0  503 -0.12181483838E+03  0.31880657596E+02  0.41078252107E+03  0.46279748356E+03  0.17200000000E+03 0.  1.
</event>
<event>
 4    1  0.2889985E+000  0.1864354E+03  0.7818608E-02  0.1161716E+00
         21   -1    0    0  503  502  0.00000000000E+00  0.00000000000E+00  0.22525740132E+03  0.22525740132E+03  0.00000000000E+00 0. -1.
         21   -1    0    0  501  503 -0.00000000000E+00 -0.00000000000E+00 -0.15596889949E+03  0.15596889949E+03  0.00000000000E+00 0. -1.
          6    1    1    2  501    0 -0.62001048667E+02 -0.36469588610E+02  0.14951651861E+02  0.18703398842E+03  0.17200000000E+03 0. -1.
         -6    1    1    2    0  502  0.62001048667E+02  0.36469588610E+02  0.54336849970E+02  0.19419231240E+03  0.17200000000E+03 0. -1.
</event>
<event>
 4    1  0.2889985E+000  0.1754256E+03  0.7818608E-02  0.1172305E+00
         21   -1    0    0  501  502  0.00000000000E+00  0.00000000000E+00  0.21083536876E+03  0.21083536876E+03  0.00000000000E+00 0. -1.
         21   -1    0    0  502  503 -0.00000000000E+00 -0.00000000000E+00 -0.28411673275E+03  0.28411673275E+03  0.00000000000E+00 0. -1.
          6    1    1    2  501    0 -0.26220217477E+02 -0.22419497895E+02  0.13592971602E+03  0.22192571142E+03  0.17200000000E+03 0. -1.
         -6    1    1    2    0  503  0.26220217477E+02  0.22419497895E+02 -0.20921108001E+03  0.27302639010E+03  0.17200000000E+03 0. -1.
</event>
<event>
 4    1  0.2889985E+000  0.1827317E+03  0.7818608E-02  0.1165185E+00
         21   -1    0    0  503  502  0.00000000000E+00  0.00000000000E+00  0.31638021913E+02  0.31638021913E+02  0.00000000000E+00 0.  1.
         21   -1    0    0  501  503 -0.00000000000E+00 -0.00000000000E+00 -0.12139932981E+04  0.12139932981E+04  0.00000000000E+00 0.  1.
          6    1    1    2  501    0  0.95574059139E+01 -0.60955201254E+02 -0.81628460546E+03  0.83648755978E+03  0.17200000000E+03 0.  1.
         -6    1    1    2    0  502 -0.95574059139E+01  0.60955201254E+02 -0.36607067076E+03  0.40914376026E+03  0.17200000000E+03 0.  1.
</event>
<event>
 4    1  0.2889985E+000  0.1780201E+03  0.7818608E-02  0.1169733E+00
         21   -1    0    0  503  502  0.00000000000E+00  0.00000000000E+00  0.25472479692E+03  0.25472479692E+03  0.00000000000E+00 0.  1.
         21   -1    0    0  501  503 -0.00000000000E+00 -0.00000000000E+00 -0.14293744624E+03  0.14293744624E+03  0.00000000000E+00 0.  1.
          6    1    1    2  501    0  0.45818304208E+02 -0.28028308384E+01 -0.15684318175E+02  0.17870973868E+03  0.17200000000E+03 0.  1.
         -6    1    1    2    0  502 -0.45818304208E+02  0.28028308384E+01  0.12747166885E+03  0.21895250448E+03  0.17200000000E+03 0.  1.
</event>
<event>
 4    1  0.2889985E+000  0.2226189E+03  0.7818608E-02  0.1131946E+00
         21   -1    0    0  501  502  0.00000000000E+00  0.00000000000E+00  0.58016870579E+03  0.58016870579E+03  0.00000000000E+00 0.  1.
         21   -1    0    0  502  503 -0.00000000000E+00 -0.00000000000E+00 -0.14995171444E+03  0.14995171444E+03  0.00000000000E+00 0. -1.
          6    1    1    2  501    0  0.14069463534E+03 -0.13422894141E+02  0.45458822029E+03  0.50617151690E+03  0.17200000000E+03 0.  1.
         -6    1    1    2    0  503 -0.14069463534E+03  0.13422894141E+02 -0.24371228938E+02  0.22394890332E+03  0.17200000000E+03 0. -1.
</event>
<event>
 4    1  0.2889985E+000  0.1755976E+03  0.7818608E-02  0.1172133E+00
         21   -1    0    0  503  502  0.00000000000E+00  0.00000000000E+00  0.22768365739E+04  0.22768365739E+04  0.00000000000E+00 0.  1.
         21   -1    0    0  501  503 -0.00000000000E+00 -0.00000000000E+00 -0.18954914209E+02  0.18954914209E+02  0.00000000000E+00 0.  1.
          6    1    1    2  501    0  0.10694356159E+02  0.33706932120E+02  0.51556195610E+03  0.54464544164E+03  0.17200000000E+03 0.  1.
         -6    1    1    2    0  502 -0.10694356159E+02 -0.33706932120E+02  0.17423197036E+04  0.17511460465E+04  0.17200000000E+03 0.  1.
</event>
<event>
 4    1  0.2889985E+000  0.1737328E+03  0.7818608E-02  0.1174010E+00
         21   -1    0    0  501  502  0.00000000000E+00  0.00000000000E+00  0.11896273162E+03  0.11896273162E+03  0.00000000000E+00 0.  1.
         21   -1    0    0  502  503 -0.00000000000E+00 -0.00000000000E+00 -0.26098468030E+03  0.26098468030E+03  0.00000000000E+00 0.  1.
          6    1    1    2  501    0 -0.20259396397E+01  0.24392457643E+02 -0.39313375747E+02  0.17812534332E+03  0.17200000000E+03 0. -1.
         -6    1    1    2    0  503  0.20259396397E+01 -0.24392457643E+02 -0.10270857293E+03  0.20182206860E+03  0.17200000000E+03 0. -1.
</event>
<event>
 4    1  0.2889985E+000  0.1973942E+03  0.7818608E-02  0.1151956E+00
         21   -1    0    0  503  502  0.00000000000E+00  0.00000000000E+00  0.11126340011E+03  0.11126340011E+03  0.00000000000E+00 0. -1.
         21   -1    0    0  501  503 -0.00000000000E+00 -0.00000000000E+00 -0.36338757445E+03  0.36338757445E+03  0.00000000000E+00 0. -1.
          6    1    1    2  501    0  0.69122749211E+02  0.67841866152E+02 -0.17127237656E+03  0.26134020019E+03  0.17200000000E+03 0. -1.
         -6    1    1    2    0  502 -0.69122749211E+02 -0.67841866152E+02 -0.80851797777E+02  0.21331077438E+03  0.17200000000E+03 0. -1.
</event>
<event>
 4    1  0.2889985E+000  0.2346595E+03  0.7818608E-02  0.1123403E+00
         21   -1    0    0  501  502  0.00000000000E+00  0.00000000000E+00  0.76748206516E+03  0.76748206516E+03  0.00000000000E+00 0.  1.
         21   -1    0    0  502  503 -0.00000000000E+00 -0.00000000000E+00 -0.10451785049E+03  0.10451785049E+03  0.00000000000E+00 0.  1.
          6    1    1    2  501    0 -0.15918243195E+03  0.11917454684E+02  0.57561732648E+03  0.62161111550E+03  0.17200000000E+03 0.  1.
         -6    1    1    2    0  503  0.15918243195E+03 -0.11917454684E+02  0.87346888198E+02  0.25038880016E+03  0.17200000000E+03 0.  1.
</event>
<event>
 4    1  0.2889985E+000  0.1846804E+03  0.7818608E-02  0.1163349E+00
         21   -1    0    0  503  502  0.00000000000E+00  0.00000000000E+00  0.11550420334E+03  0.11550420334E+03  0.00000000000E+00 0. -1.
         21   -1    0    0  501  503 -0.00000000000E+00 -0.00000000000E+00 -0.63421505517E+03  0.63421505517E+03  0.00000000000E+00 0. -1.
          6    1    1    2  501    0  0.64292567393E+02  0.19731006158E+02 -0.53338939136E+03  0.56445645504E+03  0.17200000000E+03 0. -1.
         -6    1    1    2    0  502 -0.64292567393E+02 -0.19731006158E+02  0.14678539535E+02  0.18526280347E+03  0.17200000000E+03 0. -1.
</event>
<event>
 4    1  0.2889985E+000  0.1849026E+03  0.7818608E-02  0.1163141E+00
         21   -1    0    0  503  502  0.00000000000E+00  0.00000000000E+00  0.60426310430E+03  0.60426310430E+03  0.00000000000E+00 0. -1.
         21   -1    0    0  501  503 -0.00000000000E+00 -0.00000000000E+00 -0.65134541674E+02  0.65134541674E+02  0.00000000000E+00 0. -1.
          6    1    1    2  501    0  0.57572799970E+02 -0.35921248516E+02  0.14826531852E+03  0.23700541780E+03  0.17200000000E+03 0. -1.
         -6    1    1    2    0  502 -0.57572799970E+02  0.35921248516E+02  0.39086324410E+03  0.43239222817E+03  0.17200000000E+03 0. -1.
</event>
<event>
 4    1  0.2889985E+000  0.1874553E+03  0.7818608E-02  0.1160777E+00
         21   -1    0    0  501  502  0.00000000000E+00  0.00000000000E+00  0.21942288536E+03  0.21942288536E+03  0.00000000000E+00 0. -1.
         21   -1    0    0  502  503 -0.00000000000E+00 -0.00000000000E+00 -0.18240534285E+03  0.18240534285E+03  0.00000000000E+00 0. -1.
          6    1    1    2  501    0 -0.28168791422E+02 -0.69007334341E+02  0.88695810978E+02  0.20737994090E+03  0.17200000000E+03 0. -1.
         -6    1    1    2    0  503  0.28168791422E+02  0.69007334341E+02 -0.51678268468E+02  0.19444828730E+03  0.17200000000E+03 0. -1.
</event>
<event>
 4    1  0.2889985E+000  0.2023675E+03  0.7818608E-02  0.1147757E+00
         21   -1    0    0  501  502  0.00000000000E+00  0.00000000000E+00  0.19975759772E+04  0.19975759772E+04  0.00000000000E+00 0. -1.
         21   -1    0    0  502  503 -0.00000000000E+00 -0.00000000000E+00 -0.20548350183E+02  0.20548350183E+02  0.00000000000E+00 0. -1.
          6    1    1    2  501    0  0.10662257606E+03  0.47909552936E+00  0.10368758640E+04  0.10564393786E+04  0.17200000000E+03 0.  1.
         -6    1    1    2    0  503 -0.10662257606E+03 -0.47909552936E+00  0.94015176298E+03  0.96168494877E+03  0.17200000000E+03 0.  1.
</event>
<event>
 4    1  0.2889985E+000  0.1794803E+03  0.7818608E-02  0.1168307E+00
         21   -1    0    0  503  502  0.00000000000E+00  0.00000000000E+00  0.11441695415E+04  0.11441695415E+04  0.00000000000E+00 0.  1.
         21   -1    0    0  501  503 -0.00000000000E+00 -0.00000000000E+00 -0.41785232799E+02  0.41785232799E+02  0.00000000000E+00 0.  1.
          6    1    1    2  501    0  0.44821298357E+02 -0.24904293842E+02  0.21251088674E+03  0.27816191260E+03  0.17200000000E+03 0.  1.
         -6    1    1    2    0  502 -0.44821298357E+02  0.24904293842E+02  0.88987342196E+03  0.90779286170E+03  0.17200000000E+03 0.  1.
</event>
<event>
 4    1  0.2889985E+000  0.1829303E+03  0.7818608E-02  0.1164997E+00
         21   -1    0    0  501  502  0.00000000000E+00  0.00000000000E+00  0.12370510553E+03  0.12370510553E+03  0.00000000000E+00 0.  1.
         21   -1    0    0  502  503 -0.00000000000E+00 -0.00000000000E+00 -0.29778468992E+03  0.29778468992E+03  0.00000000000E+00 0.  1.
          6    1    1    2  501    0  0.30887552413E+02  0.54087390326E+02 -0.23259779600E+02  0.18440310202E+03  0.17200000000E+03 0.  1.
         -6    1    1    2    0  503 -0.30887552413E+02 -0.54087390326E+02 -0.15081980479E+03  0.23708669344E+03  0.17200000000E+03 0.  1.
</event>
<event>
 4    1  0.2889985E+000  0.3053101E+03  0.7818608E-02  0.1082616E+00
         21   -1    0    0  503  502  0.00000000000E+00  0.00000000000E+00  0.47651912249E+03  0.47651912249E+03  0.00000000000E+00 0. -1.
         21   -1    0    0  501  503 -0.00000000000E+00 -0.00000000000E+00 -0.28078781323E+03  0.28078781323E+03  0.00000000000E+00 0.  1.
          6    1    1    2  501    0  0.59350806811E+02 -0.24516874156E+03 -0.11068118743E+03  0.32475306828E+03  0.17200000000E+03 0.  1.
         -6    1    1    2    0  502 -0.59350806811E+02  0.24516874156E+03  0.30641249670E+03  0.43255386744E+03  0.17200000000E+03 0. -1.
</event>
<event>
 4    1  0.2889985E+000  0.3167424E+03  0.7818608E-02  0.1077158E+00
         21   -1    0    0  501  502  0.00000000000E+00  0.00000000000E+00  0.12974324959E+04  0.12974324959E+04  0.00000000000E+00 0.  1.
         21   -1    0    0  502  503 -0.00000000000E+00 -0.00000000000E+00 -0.86212103343E+02  0.86212103343E+02  0.00000000000E+00 0. -1.
          6    1    1    2  501    0  0.46938386219E+02  0.26179867124E+03  0.82771444394E+03  0.88624881217E+03  0.17200000000E+03 0.  1.
         -6    1    1    2    0  503 -0.46938386219E+02 -0.26179867124E+03  0.38350594859E+03  0.49739578705E+03  0.17200000000E+03 0.  1.
</event>
<event>
 4    1  0.2889985E+000  0.2042362E+03  0.7818608E-02  0.1146213E+00
         21   -1    0    0  503  502  0.00000000000E+00  0.00000000000E+00  0.10493864872E+03  0.10493864872E+03  0.00000000000E+00 0.  1.
         21   -1    0    0  501  503 -0.00000000000E+00 -0.00000000000E+00 -0.46899830335E+03  0.46899830335E+03  0.00000000000E+00 0.  1.
          6    1    1    2  501    0 -0.10278116440E+03 -0.39553097423E+02 -0.29408105319E+03  0.35804480323E+03  0.17200000000E+03 0.  1.
         -6    1    1    2    0  502  0.10278116440E+03  0.39553097423E+02 -0.69978601436E+02  0.21589214884E+03  0.17200000000E+03 0.  1.
</event>
<event>
 4    1  0.2889985E+000  0.2062984E+03  0.7818608E-02  0.1144531E+00
         21   -1    0    0  503  502  0.00000000000E+00  0.00000000000E+00  0.63702329045E+02  0.63702329045E+02  0.00000000000E+00 0.  1.
         21   -1    0    0  501  503 -0.00000000000E+00 -0.00000000000E+00 -0.86904839871E+03  0.86904839871E+03  0.00000000000E+00 0.  1.
          6    1    1    2  501    0 -0.38874123386E+02 -0.10706936206E+03 -0.62693934666E+03  0.66000908338E+03  0.17200000000E+03 0.  1.
         -6    1    1    2    0  502  0.38874123386E+02  0.10706936206E+03 -0.17840672300E+03  0.27274164437E+03  0.17200000000E+03 0.  1.
</event>
<event>
 4    1  0.2889985E+000  0.2096075E+03  0.7818608E-02  0.1141877E+00
         21   -1    0    0  503  502  0.00000000000E+00  0.00000000000E+00  0.11050224769E+03  0.11050224769E+03  0.00000000000E+00 0.  1.
         21   -1    0    0  501  503 -0.00000000000E+00 -0.00000000000E+00 -0.45047955062E+03  0.45047955062E+03  0.00000000000E+00 0.  1.
          6    1    1    2  501    0  0.81275249981E+02 -0.88009217698E+02 -0.26609236351E+03  0.33873357463E+03  0.17200000000E+03 0.  1.
         -6    1    1    2    0  502 -0.81275249981E+02  0.88009217698E+02 -0.73884939415E+02  0.22224822369E+03  0.17200000000E+03 0.  1.
</event>
<event>
 4    1  0.2889985E+000  0.2493304E+03  0.7818608E-02  0.1113729E+00
         21   -1    0    0  503  502  0.00000000000E+00  0.00000000000E+00  0.67629155097E+03  0.67629155097E+03  0.00000000000E+00 0. -1.
         21   -1    0    0  501  503 -0.00000000000E+00 -0.00000000000E+00 -0.16560135112E+03  0.16560135112E+03  0.00000000000E+00 0. -1.
          6    1    1    2  501    0  0.15756568025E+03  0.88060883304E+02 -0.25437113878E+02  0.25062463870E+03  0.17200000000E+03 0. -1.
         -6    1    1    2    0  502 -0.15756568025E+03 -0.88060883304E+02  0.53612731373E+03  0.59126826338E+03  0.17200000000E+03 0. -1.
</event>
<event>
 4    1  0.2889985E+000  0.2017422E+03  0.7818608E-02  0.1148277E+00
         21   -1    0    0  501  502  0.00000000000E+00  0.00000000000E+00  0.66803758226E+02  0.66803758226E+02  0.00000000000E+00 0. -1.
         21   -1    0    0  502  503 -0.00000000000E+00 -0.00000000000E+00 -0.71482491917E+03  0.71482491917E+03  0.00000000000E+00 0. -1.
          6    1    1    2  501    0  0.50940103380E+02 -0.92309306305E+02 -0.17381405751E+03  0.26629162351E+03  0.17200000000E+03 0. -1.
         -6    1    1    2    0  503 -0.50940103380E+02  0.92309306305E+02 -0.47420710343E+03  0.51533705389E+03  0.17200000000E+03 0. -1.
</event>
<event>
 4    1  0.2889985E+000  0.1910001E+03  0.7818608E-02  0.1157562E+00
         21   -1    0    0  503  502  0.00000000000E+00  0.00000000000E+00  0.22221850090E+03  0.22221850090E+03  0.00000000000E+00 0.  1.
         21   -1    0    0  501  503 -0.00000000000E+00 -0.00000000000E+00 -0.18860233376E+03  0.18860233376E+03  0.00000000000E+00 0.  1.
          6    1    1    2  501    0 -0.31828880311E+02  0.76706904701E+02 -0.57127717667E+02  0.19936048499E+03  0.17200000000E+03 0.  1.
         -6    1    1    2    0  502  0.31828880311E+02 -0.76706904701E+02  0.90743884812E+02  0.21146034967E+03  0.17200000000E+03 0.  1.
</event>
<event>
 4    1  0.2889985E+000  0.1949800E+03  0.7818608E-02  0.1154045E+00
         21   -1    0    0  501  502  0.00000000000E+00  0.00000000000E+00  0.54418617227E+02  0.54418617227E+02  0.00000000000E+00 0. -1.
         21   -1    0    0  502  503 -0.00000000000E+00 -0.00000000000E+00 -0.15153459611E+04  0.15153459611E+04  0.00000000000E+00 0. -1.
          6    1    1    2  501    0 -0.47692559292E+02  0.78476874003E+02 -0.15424092316E+03  0.24861106641E+03  0.17200000000E+03 0. -1.
         -6    1    1    2    0  503  0.47692559292E+02 -0.78476874003E+02 -0.13066864207E+04  0.13211535119E+04  0.17200000000E+03 0. -1.
</event>
<event>
 4    1  0.2889985E+000  0.1897344E+03  0.7818608E-02  0.1158701E+00
         21   -1    0    0  503  502  0.00000000000E+00  0.00000000000E+00  0.91628927391E+02  0.91628927391E+02  0.00000000000E+00 0. -1.
         21   -1    0    0  501  503 -0.00000000000E+00 -0.00000000000E+00 -0.42074887628E+03  0.42074887628E+03  0.00000000000E+00 0. -1.
          6    1    1    2  501    0 -0.76065861680E+02 -0.25082299361E+02 -0.98625641835E+02  0.21383674680E+03  0.17200000000E+03 0.  1.
         -6    1    1    2    0  502  0.76065861680E+02  0.25082299361E+02 -0.23049430706E+03  0.29854105688E+03  0.17200000000E+03 0.  1.
</event>
<event>
 4    1  0.2889985E+000  0.2456769E+03  0.7818608E-02  0.1116068E+00
         21   -1    0    0  501  502  0.00000000000E+00  0.00000000000E+00  0.67406484082E+03  0.67406484082E+03  0.00000000000E+00 0.  1.
         21   -1    0    0  502  503 -0.00000000000E+00 -0.00000000000E+00 -0.11103282866E+03  0.11103282866E+03  0.00000000000E+00 0. -1.
          6    1    1    2  501    0  0.48132854358E+02 -0.16869021560E+03  0.10881539517E+03  0.26869676353E+03  0.17200000000E+03 0.  1.
         -6    1    1    2    0  503 -0.48132854358E+02  0.16869021560E+03  0.45421661699E+03  0.51640090594E+03  0.17200000000E+03 0. -1.
</event>
<event>
 4    1  0.2889985E+000  0.2027935E+03  0.7818608E-02  0.1147403E+00
         21   -1    0    0  501  502  0.00000000000E+00  0.00000000000E+00  0.14526620299E+03  0.14526620299E+03  0.00000000000E+00 0. -1.
         21   -1    0    0  502  503 -0.00000000000E+00 -0.00000000000E+00 -0.81544533493E+03  0.81544533493E+03  0.00000000000E+00 0. -1.
          6    1    1    2  501    0  0.52544955005E+02 -0.93702942494E+02  0.53026234382E+02  0.20961153418E+03  0.17200000000E+03 0. -1.
         -6    1    1    2    0  503 -0.52544955005E+02  0.93702942494E+02 -0.72320536632E+03  0.75110000373E+03  0.17200000000E+03 0. -1.
</event>
<event>
 4    1  0.2889985E+000  0.1797999E+03  0.7818608E-02  0.1167997E+00
         21   -1    0    0  501  502  0.00000000000E+00  0.00000000000E+00  0.15879765917E+03  0.15879765917E+03  0.00000000000E+00 0.  1.
         21   -1    0    0  502  503 -0.00000000000E+00 -0.00000000000E+00 -0.52657591565E+03  0.52657591565E+03  0.00000000000E+00 0. -1.
          6    1    1    2  501    0  0.52118861573E+02 -0.52573107154E+01  0.84500316712E+02  0.19866634987E+03  0.17200000000E+03 0.  1.
         -6    1    1    2    0  503 -0.52118861573E+02  0.52573107154E+01 -0.45227857319E+03  0.48670722494E+03  0.17200000000E+03 0. -1.
</event>
<event>
 4    1  0.2889985E+000  0.2031761E+03  0.7818608E-02  0.1147087E+00
         21   -1    0    0  501  502  0.00000000000E+00  0.00000000000E+00  0.18114011238E+03  0.18114011238E+03  0.00000000000E+00 0. -1.
         21   -1    0    0  502  503 -0.00000000000E+00 -0.00000000000E+00 -0.35113929727E+03  0.35113929727E+03  0.00000000000E+00 0.  1.
          6    1    1    2  501    0  0.36214214608E+02  0.10190709489E+03 -0.24267256882E+03  0.31649723694E+03  0.17200000000E+03 0.  1.
         -6    1    1    2    0  503 -0.36214214608E+02 -0.10190709489E+03  0.72673383937E+02  0.21578217271E+03  0.17200000000E+03 0. -1.
</event>
<event>
 4    1  0.2889985E+000  0.1933688E+03  0.7818608E-02  0.1155458E+00
         21   -1    0    0  503  502  0.00000000000E+00  0.00000000000E+00  0.27107258236E+03  0.27107258236E+03  0.00000000000E+00 0. -1.
         21   -1    0    0  501  503 -0.00000000000E+00 -0.00000000000E+00 -0.36703464299E+03  0.36703464299E+03  0.00000000000E+00 0.  1.
          6    1    1    2  501    0  0.84385056985E+02 -0.26203876410E+02 -0.30004951607E+03  0.35696105260E+03  0.17200000000E+03 0.  1.
         -6    1    1    2    0  502 -0.84385056985E+02  0.26203876410E+02  0.20408745545E+03  0.28114617275E+03  0.17200000000E+03 0. -1.
</event>
<event>
 4    1  0.2889985E+000  0.2127046E+03  0.7818608E-02  0.1139442E+00
         21   -1    0    0  501  502  0.00000000000E+00  0.00000000000E+00  0.27762543688E+03  0.27762543688E+03  0.00000000000E+00 0.  1.
         21   -1    0    0  502  503 -0.00000000000E+00 -0.00000000000E+00 -0.16302356905E+03  0.16302356905E+03  0.00000000000E+00 0.  1.
          6    1    1    2  501    0  0.11009743937E+03 -0.59479273301E+02  0.61476940536E+02  0.22141057862E+03  0.17200000000E+03 0.  1.
         -6    1    1    2    0  503 -0.11009743937E+03  0.59479273301E+02  0.53124927297E+02  0.21923842731E+03  0.17200000000E+03 0.  1.
</event>
<event>
 4    1  0.2889985E+000  0.1766523E+03  0.7818608E-02  0.1171083E+00
         21   -1    0    0  503  502  0.00000000000E+00  0.00000000000E+00  0.84804833370E+02  0.84804833370E+02  0.00000000000E+00 0.  1.
         21   -1    0    0  501  503 -0.00000000000E+00 -0.00000000000E+00 -0.76211649639E+03  0.76211649639E+03  0.00000000000E+00 0.  1.
          6    1    1    2  501    0  0.15737401756E+02 -0.37072550359E+02 -0.64318478940E+03  0.66700278345E+03  0.17200000000E+03 0.  1.
         -6    1    1    2    0  502 -0.15737401756E+02  0.37072550359E+02 -0.34126873614E+02  0.17991854631E+03  0.17200000000E+03 0.  1.
</event>
<event>
 4    1  0.2889985E+000  0.1745975E+03  0.7818608E-02  0.1173136E+00
         21   -1    0    0  501  502  0.00000000000E+00  0.00000000000E+00  0.31144993510E+03  0.31144993510E+03  0.00000000000E+00 0.  1.
         21   -1    0    0  502  503 -0.00000000000E+00 -0.00000000000E+00 -0.98934225664E+02  0.98934225664E+02  0.00000000000E+00 0.  1.
          6    1    1    2  501    0 -0.22242064681E+02  0.20139091178E+02  0.12745300310E+03  0.21616789871E+03  0.17200000000E+03 0.  1.
         -6    1    1    2    0  503  0.22242064681E+02 -0.20139091178E+02  0.85062706331E+02  0.19421626205E+03  0.17200000000E+03 0.  1.
</event>
<event>
 4    1  0.2889985E+000  0.2545148E+03  0.7818608E-02  0.1110484E+00
         21   -1    0    0  501  502  0.00000000000E+00  0.00000000000E+00  0.39615207312E+03  0.39615207312E+03  0.00000000000E+00 0. -1.
         21   -1    0    0  502  503 -0.00000000000E+00 -0.00000000000E+00 -0.24012610027E+03  0.24012610027E+03  0.00000000000E+00 0.  1.
          6    1    1    2  501    0  0.67255819111E+02  0.17512978276E+03  0.25770806608E+03  0.36220330388E+03  0.17200000000E+03 0. -1.
         -6    1    1    2    0  503 -0.67255819111E+02 -0.17512978276E+03 -0.10168209323E+03  0.27407486951E+03  0.17200000000E+03 0.  1.
</event>
<event>
 4    1  0.2889985E+000  0.2793672E+03  0.7818608E-02  0.1096035E+00
         21   -1    0    0  501  502  0.00000000000E+00  0.00000000000E+00  0.17100001213E+04  0.17100001213E+04  0.00000000000E+00 0.  1.
         21   -1    0    0  502  503 -0.00000000000E+00 -0.00000000000E+00 -0.11313160110E+03  0.11313160110E+03  0.00000000000E+00 0.  1.
          6    1    1    2  501    0  0.15787643243E+03  0.15341793087E+03  0.15025075930E+04  0.15282588447E+04  0.17200000000E+03 0.  1.
         -6    1    1    2    0  503 -0.15787643243E+03 -0.15341793087E+03  0.94360927240E+02  0.29487287773E+03  0.17200000000E+03 0.  1.
</event>
<event>
 4    1  0.2889985E+000  0.1797275E+03  0.7818608E-02  0.1168067E+00
         21   -1    0    0  503  502  0.00000000000E+00  0.00000000000E+00  0.23603629059E+03  0.23603629059E+03  0.00000000000E+00 0. -1.
         21   -1    0    0  501  503 -0.00000000000E+00 -0.00000000000E+00 -0.19256140755E+03  0.19256140755E+03  0.00000000000E+00 0. -1.
          6    1    1    2  501    0 -0.28701252561E+02 -0.43522526018E+02 -0.93528387196E+02  0.20260683942E+03  0.17200000000E+03 0. -1.
         -6    1    1    2    0  502  0.28701252561E+02  0.43522526018E+02  0.13700327024E+03  0.22599085872E+03  0.17200000000E+03 0. -1.
</event>
<event>
 4    1  0.2889985E+000  0.2878691E+03  0.7818608E-02  0.1091467E+00
         21   -1    0    0  501  502  0.00000000000E+00  0.00000000000E+00  0.28808936098E+03  0.28808936098E+03  0.00000000000E+00 0. -1.
         21   -1    0    0  502  503 -0.00000000000E+00 -0.00000000000E+00 -0.28989742895E+03  0.28989742895E+03  0.00000000000E+00 0. -1.
          6    1    1    2  501    0  0.22819542160E+03 -0.34805965374E+02 -0.26355276155E+02  0.28907301197E+03  0.17200000000E+03 0. -1.
         -6    1    1    2    0  503 -0.22819542160E+03  0.34805965374E+02  0.24547208188E+02  0.28891377796E+03  0.17200000000E+03 0. -1.
</event>
<event>
 4    1  0.2889985E+000  0.1926044E+03  0.7818608E-02  0.1156133E+00
         21   -1    0    0  503  502  0.00000000000E+00  0.00000000000E+00  0.17298245825E+03  0.17298245825E+03  0.00000000000E+00 0.  1.
         21   -1    0    0  501  503 -0.00000000000E+00 -0.00000000000E+00 -0.47437485953E+03  0.47437485953E+03  0.00000000000E+00 0.  1.
          6    1    1    2  501    0 -0.65458358923E+02  0.56812644606E+02 -0.39028983894E+03  0.43522710362E+03  0.17200000000E+03 0.  1.
         -6    1    1    2    0  502  0.65458358923E+02 -0.56812644606E+02  0.88897437659E+02  0.21213021417E+03  0.17200000000E+03 0.  1.
</event>
<event>
 4    1  0.2889985E+000  0.2242474E+03  0.7818608E-02  0.1130755E+00
         21   -1    0    0  501  502  0.00000000000E+00  0.00000000000E+00  0.15379797553E+03  0.15379797553E+03  0.00000000000E+00 0.  1.
         21   -1    0    0  502  503 -0.00000000000E+00 -0.00000000000E+00 -0.12224203124E+04  0.12224203124E+04  0.00000000000E+00 0. -1.
          6    1    1    2  501    0  0.10058399602E+03 -0.10288714481E+03  0.54625312959E+02  0.23080474353E+03  0.17200000000E+03 0.  1.
         -6    1    1    2    0  503 -0.10058399602E+03  0.10288714481E+03 -0.11232476499E+04  0.11454135444E+04  0.17200000000E+03 0. -1.
</event>
<event>
 4    1  0.2889985E+000  0.2367317E+03  0.7818608E-02  0.1121989E+00
         21   -1    0    0  503  502  0.00000000000E+00  0.00000000000E+00  0.15554667687E+03  0.15554667687E+03  0.00000000000E+00 0. -1.
         21   -1    0    0  501  503 -0.00000000000E+00 -0.00000000000E+00 -0.36119965991E+03  0.36119965991E+03  0.00000000000E+00 0. -1.
          6    1    1    2  501    0 -0.11736672143E+03  0.11261852384E+03 -0.11579422006E+03  0.26353402173E+03  0.17200000000E+03 0. -1.
         -6    1    1    2    0  502  0.11736672143E+03 -0.11261852384E+03 -0.89858762969E+02  0.25321231505E+03  0.17200000000E+03 0. -1.
</event>
<event>
 4    1  0.2889985E+000  0.3375569E+03  0.7818608E-02  0.1067841E+00
         21   -1    0    0  501  502  0.00000000000E+00  0.00000000000E+00  0.16028209667E+03  0.16028209667E+03  0.00000000000E+00 0.  1.
         21   -1    0    0  502  503 -0.00000000000E+00 -0.00000000000E+00 -0.12560992533E+04  0.12560992533E+04  0.00000000000E+00 0.  1.
          6    1    1    2  501    0  0.45539408314E+02 -0.28685678426E+03 -0.10144772545E+04  0.10691626408E+04  0.17200000000E+03 0.  1.
         -6    1    1    2    0  503 -0.45539408314E+02  0.28685678426E+03 -0.81339902124E+02  0.34721870927E+03  0.17200000000E+03 0.  1.
</event>
<event>
 4    1  0.2889985E+000  0.1925657E+03  0.7818608E-02  0.1156167E+00
         21   -1    0    0  501  502  0.00000000000E+00  0.00000000000E+00  0.64777892866E+02  0.64777892866E+02  0.00000000000E+00 0. -1.
         21   -1    0    0  502  503 -0.00000000000E+00 -0.00000000000E+00 -0.58727774161E+03  0.58727774161E+03  0.00000000000E+00 0. -1.
          6    1    1    2  501    0  0.75227584592E+02 -0.42875917778E+02 -0.20942968288E+03  0.28450364827E+03  0.17200000000E+03 0. -1.
         -6    1    1    2    0  503 -0.75227584592E+02  0.42875917778E+02 -0.31307016587E+03  0.36755198621E+03  0.17200000000E+03 0. -1.
</event>
<event>
 4    1  0.2889985E+000  0.3201128E+03  0.7818608E-02  0.1075597E+00
         21   -1    0    0  501  502  0.00000000000E+00  0.00000000000E+00  0.40152816571E+03  0.40152816571E+03  0.00000000000E+00 0.  1.
         21   -1    0    0  502  503 -0.00000000000E+00 -0.00000000000E+00 -0.11056282687E+04  0.11056282687E+04  0.00000000000E+00 0. -1.
          6    1    1    2  501    0  0.50874839804E+02 -0.26514138962E+03  0.30885824362E+03  0.44482088583E+03  0.17200000000E+03 0.  1.
         -6    1    1    2    0  503 -0.50874839804E+02  0.26514138962E+03 -0.10129583466E+04  0.10623355486E+04  0.17200000000E+03 0. -1.
</event>
<event>
 4    1  0.2889985E+000  0.2085662E+03  0.7818608E-02  0.1142706E+00
         21   -1    0    0  501  502  0.00000000000E+00  0.00000000000E+00  0.18208095292E+03  0.18208095292E+03  0.00000000000E+00 0.  1.
         21   -1    0    0  502  503 -0.00000000000E+00 -0.00000000000E+00 -0.31058556384E+03  0.31058556384E+03  0.00000000000E+00 0. -1.
          6    1    1    2  501    0  0.67181470368E+02 -0.96966506253E+02  0.54089011690E+02  0.21546571533E+03  0.17200000000E+03 0.  1.
         -6    1    1    2    0  503 -0.67181470368E+02  0.96966506253E+02 -0.18259362261E+03  0.27720080143E+03  0.17200000000E+03 0.  1.
</event>
<event>
 4    1  0.2889985E+000  0.1843352E+03  0.7818608E-02  0.1163672E+00
         21   -1    0    0  503  502  0.00000000000E+00  0.00000000000E+00  0.53424997957E+03  0.53424997957E+03  0.00000000000E+00 0. -1.
         21   -1    0    0  501  503 -0.00000000000E+00 -0.00000000000E+00 -0.63616448544E+02  0.63616448544E+02  0.00000000000E+00 0. -1.
          6    1    1    2  501    0  0.62317684851E+02  0.22626819671E+02  0.23979267256E+03  0.30245659627E+03  0.17200000000E+03 0. -1.
         -6    1    1    2    0  502 -0.62317684851E+02 -0.22626819671E+02  0.23084085847E+03  0.29540983185E+03  0.17200000000E+03 0. -1.
</event>
<event>
 4    1  0.2889985E+000  0.1945015E+03  0.7818608E-02  0.1154463E+00
         21   -1    0    0  503  502  0.00000000000E+00  0.00000000000E+00  0.13062812149E+03  0.13062812149E+03  0.00000000000E+00 0.  1.
         21   -1    0    0  501  503 -0.00000000000E+00 -0.00000000000E+00 -0.30243051140E+03  0.30243051140E+03  0.00000000000E+00 0.  1.
          6    1    1    2  501    0  0.88476492092E+02 -0.20463034091E+02 -0.13048801219E+03  0.23421773362E+03  0.17200000000E+03 0.  1.
         -6    1    1    2    0  502 -0.88476492092E+02  0.20463034091E+02 -0.41314377720E+02  0.19884089927E+03  0.17200000000E+03 0.  1.
</event>
<event>
 4    1  0.2889985E+000  0.2214393E+03  0.7818608E-02  0.1132814E+00
         21   -1    0    0  503  502  0.00000000000E+00  0.00000000000E+00  0.37453319601E+03  0.37453319601E+03  0.00000000000E+00 0. -1.
         21   -1    0    0  501  503 -0.00000000000E+00 -0.00000000000E+00 -0.17025981687E+03  0.17025981687E+03  0.00000000000E+00 0. -1.
          6    1    1    2  501    0  0.68331510607E+02  0.12158201645E+03 -0.28793431602E+02  0.22330347908E+03  0.17200000000E+03 0. -1.
         -6    1    1    2    0  502 -0.68331510607E+02 -0.12158201645E+03  0.23306681074E+03  0.32148953379E+03  0.17200000000E+03 0. -1.
</event>
<event>
 4    1  0.2889985E+000  0.2089864E+03  0.7818608E-02  0.1142371E+00
         21   -1    0    0  501  502  0.00000000000E+00  0.00000000000E+00  0.11001150216E+03  0.11001150216E+03  0.00000000000E+00 0.  1.
         21   -1    0    0  502  503 -0.00000000000E+00 -0.00000000000E+00 -0.44092808140E+03  0.44092808140E+03  0.00000000000E+00 0.  1.
          6    1    1    2  501    0 -0.82559832283E+02 -0.85294837143E+02 -0.78516881157E+02  0.22324926826E+03  0.17200000000E+03 0.  1.
         -6    1    1    2    0  503  0.82559832283E+02  0.85294837143E+02 -0.25239969809E+03  0.32769031531E+03  0.17200000000E+03 0.  1.
</event>
<event>
 4    1  0.2889985E+000  0.1895924E+03  0.7818608E-02  0.1158829E+00
         21   -1    0    0  503  502  0.00000000000E+00  0.00000000000E+00  0.54535734273E+03  0.54535734273E+03  0.00000000000E+00 0. -1.
         21   -1    0    0  501  503 -0.00000000000E+00 -0.00000000000E+00 -0.67955207623E+02  0.67955207623E+02  0.00000000000E+00 0. -1.
          6    1    1    2  501    0  0.44474418499E+01 -0.79633463873E+02  0.18551963469E+03  0.26525987854E+03  0.17200000000E+03 0. -1.
         -6    1    1    2    0  502 -0.44474418499E+01  0.79633463873E+02  0.29188250042E+03  0.34805267181E+03  0.17200000000E+03 0. -1.
</event>
<event>
 4    1  0.2889985E+000  0.2620695E+03  0.7818608E-02  0.1105906E+00
         21   -1    0    0  503  502  0.00000000000E+00  0.00000000000E+00  0.60321485809E+03  0.60321485809E+03  0.00000000000E+00 0. -1.
         21   -1    0    0  501  503 -0.00000000000E+00 -0.00000000000E+00 -0.12045228904E+03  0.12045228904E+03  0.00000000000E+00 0. -1.
          6    1    1    2  501    0  0.14658796812E+03  0.13269669732E+03  0.15671574316E+03  0.30535269776E+03  0.17200000000E+03 0. -1.
         -6    1    1    2    0  502 -0.14658796812E+03 -0.13269669732E+03  0.32604682589E+03  0.41831444937E+03  0.17200000000E+03 0. -1.
</event>
<event>
 4    1  0.2889985E+000  0.4057746E+03  0.7818608E-02  0.1041798E+00
         21   -1    0    0  501  502  0.00000000000E+00  0.00000000000E+00  0.10364418035E+03  0.10364418035E+03  0.00000000000E+00 0. -1.
         21   -1    0    0  502  503 -0.00000000000E+00 -0.00000000000E+00 -0.16722291107E+04  0.16722291107E+04  0.00000000000E+00 0.  1.
          6    1    1    2  501    0  0.36451164775E+03  0.46907076066E+02 -0.98281775956E+03  0.10632891251E+04  0.17200000000E+03 0. -1.
         -6    1    1    2    0  503 -0.36451164775E+03 -0.46907076066E+02 -0.58576717075E+03  0.71258416587E+03  0.17200000000E+03 0. -1.
</event>
<event>
 4    1  0.2889985E+000  0.1819647E+03  0.7818608E-02  0.1165915E+00
         21   -1    0    0  501  502  0.00000000000E+00  0.00000000000E+00  0.58124739665E+03  0.58124739665E+03  0.00000000000E+00 0.  1.
         21   -1    0    0  502  503 -0.00000000000E+00 -0.00000000000E+00 -0.25350616411E+03  0.25350616411E+03  0.00000000000E+00 0.  1.
          6    1    1    2  501    0 -0.59187241659E+02 -0.49027236782E+01  0.53137287152E+03  0.56166564330E+03  0.17200000000E+03 0.  1.
         -6    1    1    2    0  503  0.59187241659E+02  0.49027236782E+01 -0.20363163897E+03  0.27308791746E+03  0.17200000000E+03 0.  1.
</event>
<event>
 4    1  0.2889985E+000  0.1890347E+03  0.7818608E-02  0.1159335E+00
         21   -1    0    0  503  502  0.00000000000E+00  0.00000000000E+00  0.21206817429E+03  0.21206817429E+03  0.00000000000E+00 0. -1.
         21   -1    0    0  501  503 -0.00000000000E+00 -0.00000000000E+00 -0.16933032648E+03  0.16933032648E+03  0.00000000000E+00 0. -1.
          6    1    1    2  501    0  0.78292326008E+02 -0.45196725484E+01  0.34698911830E+02  0.19219295053E+03  0.17200000000E+03 0.  1.
         -6    1    1    2    0  502 -0.78292326008E+02  0.45196725484E+01  0.80389359780E+01  0.18920555024E+03  0.17200000000E+03 0.  1.
</event>
<event>
 4    1  0.2889985E+000  0.1747912E+03  0.7818608E-02  0.1172942E+00
         21   -1    0    0  501  502  0.00000000000E+00  0.00000000000E+00  0.74431380355E+02  0.74431380355E+02  0.00000000000E+00 0.  1.
         21   -1    0    0  502  503 -0.00000000000E+00 -0.00000000000E+00 -0.83004897727E+03  0.83004897727E+03  0.00000000000E+00 0.  1.
          6    1    1    2  501    0  0.27722609682E+02 -0.14121735251E+02 -0.69934014973E+03  0.72085269752E+03  0.17200000000E+03 0.  1.
         -6    1    1    2    0  503 -0.27722609682E+02  0.14121735251E+02 -0.56277447181E+02  0.18362766010E+03  0.17200000000E+03 0.  1.
</event>
<event>
 4    1  0.2889985E+000  0.2154428E+03  0.7818608E-02  0.1137327E+00
         21   -1    0    0  503  502  0.00000000000E+00  0.00000000000E+00  0.18568871971E+03  0.18568871971E+03  0.00000000000E+00 0. -1.
         21   -1    0    0  501  503 -0.00000000000E+00 -0.00000000000E+00 -0.26614933135E+03  0.26614933135E+03  0.00000000000E+00 0.  1.
          6    1    1    2  501    0 -0.96498544759E+02  0.86715814924E+02 -0.95941595765E+02  0.23583975809E+03  0.17200000000E+03 0. -1.
         -6    1    1    2    0  502  0.96498544759E+02 -0.86715814924E+02  0.15480984120E+02  0.21599829297E+03  0.17200000000E+03 0.  1.
</event>
<event>
 4    1  0.2889985E+000  0.1758466E+03  0.7818608E-02  0.1171884E+00
         21   -1    0    0  501  502  0.00000000000E+00  0.00000000000E+00  0.14948338323E+04  0.14948338323E+04  0.00000000000E+00 0.  1.
         21   -1    0    0  502  503 -0.00000000000E+00 -0.00000000000E+00 -0.22749452724E+02  0.22749452724E+02  0.00000000000E+00 0.  1.
          6    1    1    2  501    0 -0.36571510366E+02 -0.73816787023E+00  0.96457167220E+03  0.98046954623E+03  0.17200000000E+03 0.  1.
         -6    1    1    2    0  503  0.36571510366E+02  0.73816787023E+00  0.50751270742E+03  0.53711373884E+03  0.17200000000E+03 0.  1.
</event>
<event>
 4    1  0.2889985E+000  0.2088509E+03  0.7818608E-02  0.1142479E+00
         21   -1    0    0  503  502  0.00000000000E+00  0.00000000000E+00  0.25896598897E+02  0.25896598897E+02  0.00000000000E+00 0. -1.
         21   -1    0    0  501  503 -0.00000000000E+00 -0.00000000000E+00 -0.16876793659E+04  0.16876793659E+04  0.00000000000E+00 0.  1.
          6    1    1    2  501    0  0.10819177283E+03 -0.48262086711E+02 -0.79278199900E+03  0.81983046215E+03  0.17200000000E+03 0.  1.
         -6    1    1    2    0  502 -0.10819177283E+03  0.48262086711E+02 -0.86900076803E+03  0.89374550267E+03  0.17200000000E+03 0. -1.
</event>
<event>
 4    1  0.2889985E+000  0.1863949E+03  0.7818608E-02  0.1161754E+00
         21   -1    0    0  503  502  0.00000000000E+00  0.00000000000E+00  0.65507865417E+02  0.65507865417E+02  0.00000000000E+00 0. -1.
         21   -1    0    0  501  503 -0.00000000000E+00 -0.00000000000E+00 -0.53042634925E+03  0.53042634925E+03  0.00000000000E+00 0. -1.
          6    1    1    2  501    0 -0.70928879851E+02 -0.11320828558E+02 -0.22925000587E+03  0.29546341965E+03  0.17200000000E+03 0.  1.
         -6    1    1    2    0  502  0.70928879851E+02  0.11320828558E+02 -0.23566847796E+03  0.30047079502E+03  0.17200000000E+03 0.  1.
</event>
<event>
 4    1  0.2889985E+000  0.1978702E+03  0.7818608E-02  0.1151548E+00
         21   -1    0    0  503  502  0.00000000000E+00  0.00000000000E+00  0.80422043778E+02  0.80422043778E+02  0.00000000000E+00 0.  1.
         21   -1    0    0  501  503 -0.00000000000E+00 -0.00000000000E+00 -0.50715354046E+03  0.50715354046E+03  0.00000000000E+00 0.  1.
          6    1    1    2  501    0 -0.96815715203E+02 -0.13976402695E+02 -0.27216378720E+03  0.33649034103E+03  0.17200000000E+03 0.  1.
         -6    1    1    2    0  502  0.96815715203E+02  0.13976402695E+02 -0.15456770948E+03  0.25108524321E+03  0.17200000000E+03 0.  1.
</event>
<event>
 4    1  0.2889985E+000  0.3495684E+03  0.7818608E-02  0.1062792E+00
         21   -1    0    0  501  502  0.00000000000E+00  0.00000000000E+00  0.17712598968E+03  0.17712598968E+03  0.00000000000E+00 0. -1.
         21   -1    0    0  502  503 -0.00000000000E+00 -0.00000000000E+00 -0.95873393948E+03  0.95873393948E+03  0.00000000000E+00 0.  1.
          6    1    1    2  501    0  0.10943440113E+03  0.28396863144E+03 -0.90062713019E+02  0.36098388339E+03  0.17200000000E+03 0. -1.
         -6    1    1    2    0  503 -0.10943440113E+03 -0.28396863144E+03 -0.69154523678E+03  0.77487604577E+03  0.17200000000E+03 0.  1.
</event>
<event>
 4    1  0.2889985E+000  0.1906439E+03  0.7818608E-02  0.1157882E+00
         21   -1    0    0  503  502  0.00000000000E+00  0.00000000000E+00  0.10609562015E+03  0.10609562015E+03  0.00000000000E+00 0.  1.
         21   -1    0    0  501  503 -0.00000000000E+00 -0.00000000000E+00 -0.38156926802E+03  0.38156926802E+03  0.00000000000E+00 0.  1.
          6    1    1    2  501    0 -0.19043148029E+02 -0.79990266115E+02 -0.21569072908E+03  0.28786728673E+03  0.17200000000E+03 0.  1.
         -6    1    1    2    0  502  0.19043148029E+02  0.79990266115E+02 -0.59782918790E+02  0.19979760143E+03  0.17200000000E+03 0.  1.
</event>
<event>
 4    1  0.2889985E+000  0.2841075E+03  0.7818608E-02  0.1093466E+00
         21   -1    0    0  501  502  0.00000000000E+00  0.00000000000E+00  0.20310301539E+04  0.20310301539E+04  0.00000000000E+00 0. -1.
         21   -1    0    0  502  503 -0.00000000000E+00 -0.00000000000E+00 -0.55127401751E+02  0.55127401751E+02  0.00000000000E+00 0.  1.
          6    1    1    2  501    0  0.22324102870E+03  0.36006853755E+02  0.15389985890E+04  0.15650027819E+04  0.17200000000E+03 0. -1.
         -6    1    1    2    0  503 -0.22324102870E+03 -0.36006853755E+02  0.43690416307E+03  0.52115477367E+03  0.17200000000E+03 0.  1.
</event>
<event>
 4    1  0.2889985E+000  0.2237052E+03  0.7818608E-02  0.1131150E+00
         21   -1    0    0  501  502  0.00000000000E+00  0.00000000000E+00  0.74066166693E+03  0.74066166693E+03  0.00000000000E+00 0. -1.
         21   -1    0    0  502  503 -0.00000000000E+00 -0.00000000000E+00 -0.67805918126E+02  0.67805918126E+02  0.00000000000E+00 0.  1.
          6    1    1    2  501    0 -0.76416543192E+02  0.12091535272E+03  0.31241400773E+03  0.38424799651E+03  0.17200000000E+03 0.  1.
         -6    1    1    2    0  503  0.76416543192E+02 -0.12091535272E+03  0.36044174108E+03  0.42421958855E+03  0.17200000000E+03 0. -1.
</event>
<event>
 4    1  0.2889985E+000  0.2474272E+03  0.7818608E-02  0.1114942E+00
         21   -1    0    0  501  502  0.00000000000E+00  0.00000000000E+00  0.15778134938E+04  0.15778134938E+04  0.00000000000E+00 0. -1.
         21   -1    0    0  502  503 -0.00000000000E+00 -0.00000000000E+00 -0.39160027554E+02  0.39160027554E+02  0.00000000000E+00 0.  1.
          6    1    1    2  501    0  0.15299846589E+03  0.90706639961E+02  0.69187821348E+03  0.73478955312E+03  0.17200000000E+03 0. -1.
         -6    1    1    2    0  503 -0.15299846589E+03 -0.90706639961E+02  0.84677525280E+03  0.88218396826E+03  0.17200000000E+03 0.  1.
</event>
<event>
 4    1  0.2889985E+000  0.2897815E+03  0.7818608E-02  0.1090463E+00
         21   -1    0    0  501  502  0.00000000000E+00  0.00000000000E+00  0.10097505643E+04  0.10097505643E+04  0.00000000000E+00 0. -1.
         21   -1    0    0  502  503 -0.00000000000E+00 -0.00000000000E+00 -0.14129320421E+03  0.14129320421E+03  0.00000000000E+00 0. -1.
          6    1    1    2  501    0  0.97079997618E+02 -0.21204902998E+03  0.80337983807E+03  0.85404477708E+03  0.17200000000E+03 0. -1.
         -6    1    1    2    0  503 -0.97079997618E+02  0.21204902998E+03  0.65077522065E+02  0.29699899146E+03  0.17200000000E+03 0. -1.
</event>
<event>
 4    1  0.2889985E+000  0.1944881E+03  0.7818608E-02  0.1154475E+00
         21   -1    0    0  501  502  0.00000000000E+00  0.00000000000E+00  0.87010552433E+03  0.87010552433E+03  0.00000000000E+00 0.  1.
         21   -1    0    0  502  503 -0.00000000000E+00 -0.00000000000E+00 -0.43477132140E+02  0.43477132140E+02  0.00000000000E+00 0. -1.
          6    1    1    2  501    0 -0.85058501562E+02 -0.31727908123E+02  0.41806038650E+03  0.46108577901E+03  0.17200000000E+03 0.  1.
         -6    1    1    2    0  503  0.85058501562E+02  0.31727908123E+02  0.40856800569E+03  0.45249687746E+03  0.17200000000E+03 0. -1.
</event>
<event>
 4    1  0.2889985E+000  0.1951866E+03  0.7818608E-02  0.1153865E+00
         21   -1    0    0  501  502  0.00000000000E+00  0.00000000000E+00  0.68898903391E+03  0.68898903391E+03  0.00000000000E+00 0. -1.
         21   -1    0    0  502  503 -0.00000000000E+00 -0.00000000000E+00 -0.59317996317E+02  0.59317996317E+02  0.00000000000E+00 0.  1.
          6    1    1    2  501    0  0.89033551643E+02 -0.24224505445E+02  0.41227154271E+03  0.45614211043E+03  0.17200000000E+03 0. -1.
         -6    1    1    2    0  503 -0.89033551643E+02  0.24224505445E+02  0.21739949488E+03  0.29216491979E+03  0.17200000000E+03 0.  1.
</event>
<event>
 4    1  0.2889985E+000  0.2363984E+03  0.7818608E-02  0.1122216E+00
         21   -1    0    0  501  502  0.00000000000E+00  0.00000000000E+00  0.95268816631E+02  0.95268816631E+02  0.00000000000E+00 0. -1.
         21   -1    0    0  502  503 -0.00000000000E+00 -0.00000000000E+00 -0.62741940966E+03  0.62741940966E+03  0.00000000000E+00 0.  1.
          6    1    1    2  501    0  0.57823216535E+02 -0.15151453996E+03 -0.17390229857E+03  0.29347263865E+03  0.17200000000E+03 0. -1.
         -6    1    1    2    0  503 -0.57823216535E+02  0.15151453996E+03 -0.35824829447E+03  0.42921558764E+03  0.17200000000E+03 0.  1.
</event>
<event>
 4    1  0.2889985E+000  0.3074432E+03  0.7818608E-02  0.1081578E+00
         21   -1    0    0  503  502  0.00000000000E+00  0.00000000000E+00  0.18913905639E+03  0.18913905639E+03  0.00000000000E+00 0.  1.
         21   -1    0    0  501  503 -0.00000000000E+00 -0.00000000000E+00 -0.50037340207E+03  0.50037340207E+03  0.00000000000E+00 0.  1.
          6    1    1    2  501    0  0.15112053655E+03 -0.20518259686E+03 -0.14340049932E+03  0.33924182794E+03  0.17200000000E+03 0. -1.
         -6    1    1    2    0  502 -0.15112053655E+03  0.20518259686E+03 -0.16783384636E+03  0.35027063052E+03  0.17200000000E+03 0. -1.
</event>
<event>
 4    1  0.2889985E+000  0.1828976E+03  0.7818608E-02  0.1165028E+00
         21   -1    0    0  503  502  0.00000000000E+00  0.00000000000E+00  0.56835845034E+03  0.56835845034E+03  0.00000000000E+00 0.  1.
         21   -1    0    0  501  503 -0.00000000000E+00 -0.00000000000E+00 -0.74107534770E+02  0.74107534770E+02  0.00000000000E+00 0. -1.
          6    1    1    2  501    0 -0.45614022517E+02  0.42271872467E+02  0.10139860358E+03  0.20912490779E+03  0.17200000000E+03 0. -1.
         -6    1    1    2    0  502  0.45614022517E+02 -0.42271872467E+02  0.39285231199E+03  0.43334107732E+03  0.17200000000E+03 0.  1.
</event>
<event>
 4    1  0.2889985E+000  0.2309124E+03  0.7818608E-02  0.1125999E+00
         21   -1    0    0  501  502  0.00000000000E+00  0.00000000000E+00  0.10747595487E+03  0.10747595487E+03  0.00000000000E+00 0. -1.
         21   -1    0    0  502  503 -0.00000000000E+00 -0.00000000000E+00 -0.57566302574E+03  0.57566302574E+03  0.00000000000E+00 0. -1.
          6    1    1    2  501    0  0.14736829586E+03  0.44934727107E+02 -0.10712187829E+03  0.25454987946E+03  0.17200000000E+03 0. -1.
         -6    1    1    2    0  503 -0.14736829586E+03 -0.44934727107E+02 -0.36106519258E+03  0.42858910114E+03  0.17200000000E+03 0. -1.
</event>
<event>
 4    1  0.2889985E+000  0.2242746E+03  0.7818608E-02  0.1130736E+00
         21   -1    0    0  501  502  0.00000000000E+00  0.00000000000E+00  0.49504122806E+03  0.49504122806E+03  0.00000000000E+00 0.  1.
         21   -1    0    0  502  503 -0.00000000000E+00 -0.00000000000E+00 -0.10195414093E+03  0.10195414093E+03  0.00000000000E+00 0.  1.
          6    1    1    2  501    0  0.14274440123E+03 -0.18415490236E+02  0.21398960995E+03  0.30998491501E+03  0.17200000000E+03 0.  1.
         -6    1    1    2    0  503 -0.14274440123E+03  0.18415490236E+02  0.17909747718E+03  0.28701045398E+03  0.17200000000E+03 0.  1.
</event>
<event>
 4    1  0.2889985E+000  0.2064932E+03  0.7818608E-02  0.1144373E+00
         21   -1    0    0  503  502  0.00000000000E+00  0.00000000000E+00  0.23343780536E+03  0.23343780536E+03  0.00000000000E+00 0. -1.
         21   -1    0    0  501  503 -0.00000000000E+00 -0.00000000000E+00 -0.25418717215E+03  0.25418717215E+03  0.00000000000E+00 0. -1.
          6    1    1    2  501    0 -0.53909627026E+01 -0.11413320933E+03 -0.13971041691E+03  0.24931596930E+03  0.17200000000E+03 0. -1.
         -6    1    1    2    0  502  0.53909627026E+01  0.11413320933E+03  0.11896105013E+03  0.23830900822E+03  0.17200000000E+03 0. -1.
</event>
<event>
 4    1  0.2889985E+000  0.1913860E+03  0.7818608E-02  0.1157217E+00
         21   -1    0    0  501  502  0.00000000000E+00  0.00000000000E+00  0.14396733408E+03  0.14396733408E+03  0.00000000000E+00 0.  1.
         21   -1    0    0  502  503 -0.00000000000E+00 -0.00000000000E+00 -0.29271498752E+03  0.29271498752E+03  0.00000000000E+00 0.  1.
          6    1    1    2  501    0  0.65278858475E+02  0.52756881842E+02  0.45969525309E+01  0.19144124404E+03  0.17200000000E+03 0.  1.
         -6    1    1    2    0  503 -0.65278858475E+02 -0.52756881842E+02 -0.15334460597E+03  0.24524107756E+03  0.17200000000E+03 0.  1.
</event>
<event>
 4    1  0.2889985E+000  0.2157649E+03  0.7818608E-02  0.1137080E+00
         21   -1    0    0  503  502  0.00000000000E+00  0.00000000000E+00  0.26235242894E+03  0.26235242894E+03  0.00000000000E+00 0.  1.
         21   -1    0    0  501  503 -0.00000000000E+00 -0.00000000000E+00 -0.18757624985E+03  0.18757624985E+03  0.00000000000E+00 0. -1.
          6    1    1    2  501    0 -0.12450552636E+03 -0.38325996222E+02 -0.14880813968E+02  0.21627747618E+03  0.17200000000E+03 0. -1.
         -6    1    1    2    0  502  0.12450552636E+03  0.38325996222E+02  0.89656993059E+02  0.23365120262E+03  0.17200000000E+03 0. -1.
</event>
<event>
 4    1  0.2889985E+000  0.1806055E+03  0.7818608E-02  0.1167218E+00
         21   -1    0    0  501  502  0.00000000000E+00  0.00000000000E+00  0.20226453783E+03  0.20226453783E+03  0.00000000000E+00 0.  1.
         21   -1    0    0  502  503 -0.00000000000E+00 -0.00000000000E+00 -0.22091343854E+03  0.22091343854E+03  0.00000000000E+00 0.  1.
          6    1    1    2  501    0 -0.41376482015E+02  0.36363930364E+02  0.10062136133E+03  0.20674381986E+03  0.17200000000E+03 0.  1.
         -6    1    1    2    0  503  0.41376482015E+02 -0.36363930364E+02 -0.11927026205E+03  0.21643415651E+03  0.17200000000E+03 0.  1.
</event>
<event>
 4    1  0.2889985E+000  0.1761369E+03  0.7818608E-02  0.1171595E+00
         21   -1    0    0  501  502  0.00000000000E+00  0.00000000000E+00  0.13586964522E+03  0.13586964522E+03  0.00000000000E+00 0. -1.
         21   -1    0    0  502  503 -0.00000000000E+00 -0.00000000000E+00 -0.24026976324E+03  0.24026976324E+03  0.00000000000E+00 0. -1.
          6    1    1    2  501    0  0.10214145335E+02  0.36549731212E+02 -0.10289790097E+02  0.17643721659E+03  0.17200000000E+03 0.  1.
         -6    1    1    2    0  503 -0.10214145335E+02 -0.36549731212E+02 -0.94110327924E+02  0.19970219187E+03  0.17200000000E+03 0.  1.
</event>
<event>
 4    1  0.2889985E+000  0.1728656E+03  0.7818608E-02  0.1174892E+00
         21   -1    0    0  503  502  0.00000000000E+00  0.00000000000E+00  0.19566149987E+03  0.19566149987E+03  0.00000000000E+00 0. -1.
         21   -1    0    0  501  503 -0.00000000000E+00 -0.00000000000E+00 -0.18960922390E+03  0.18960922390E+03  0.00000000000E+00 0. -1.
          6    1    1    2  501    0  0.70287686580E+01  0.15782803106E+02 -0.81935653655E+02  0.19130068427E+03  0.17200000000E+03 0. -1.
         -6    1    1    2    0  502 -0.70287686580E+01 -0.15782803106E+02  0.87987929625E+02  0.19397003950E+03  0.17200000000E+03 0. -1.
</event>
<event>
 4    1  0.2889985E+000  0.1976166E+03  0.7818608E-02  0.1151766E+00
         21   -1    0    0  503  502  0.00000000000E+00  0.00000000000E+00  0.90542717852E+03  0.90542717852E+03  0.00000000000E+00 0. -1.
         21   -1    0    0  501  503 -0.00000000000E+00 -0.00000000000E+00 -0.43614467045E+02  0.43614467045E+02  0.00000000000E+00 0.  1.
          6    1    1    2  501    0 -0.13960318003E+02 -0.96298752939E+02  0.48084588511E+03  0.51987027760E+03  0.17200000000E+03 0.  1.
         -6    1    1    2    0  502  0.13960318003E+02  0.96298752939E+02  0.38096682636E+03  0.42917136797E+03  0.17200000000E+03 0.  1.
</event>
<event>
 4    1  0.2889985E+000  0.1722100E+03  0.7818608E-02  0.1175563E+00
         21   -1    0    0  503  502  0.00000000000E+00  0.00000000000E+00  0.13420571376E+02  0.13420571376E+02  0.00000000000E+00 0. -1.
         21   -1    0    0  501  503 -0.00000000000E+00 -0.00000000000E+00 -0.22587840949E+04  0.22587840949E+04  0.00000000000E+00 0. -1.
          6    1    1    2  501    0  0.83176369593E+01 -0.17571865407E+01 -0.95531264796E+03  0.97071032041E+03  0.17200000000E+03 0.  1.
         -6    1    1    2    0  502 -0.83176369593E+01  0.17571865407E+01 -0.12900508755E+04  0.13014943458E+04  0.17200000000E+03 0.  1.
</event>
<event>
 4    1  0.2889985E+000  0.1853488E+03  0.7818608E-02  0.1162725E+00
         21   -1    0    0  501  502  0.00000000000E+00  0.00000000000E+00  0.79958972249E+03  0.79958972249E+03  0.00000000000E+00 0.  1.
         21   -1    0    0  502  503 -0.00000000000E+00 -0.00000000000E+00 -0.45819095429E+02  0.45819095429E+02  0.00000000000E+00 0.  1.
          6    1    1    2  501    0 -0.56082879408E+02 -0.40309726900E+02  0.48238900400E+03  0.51677201417E+03  0.17200000000E+03 0.  1.
         -6    1    1    2    0  503  0.56082879408E+02  0.40309726900E+02  0.27138162306E+03  0.32863680375E+03  0.17200000000E+03 0.  1.
</event>
<event>
 4    1  0.2889985E+000  0.3563636E+03  0.7818608E-02  0.1060033E+00
         21   -1    0    0  501  502  0.00000000000E+00  0.00000000000E+00  0.23280214901E+04  0.23280214901E+04  0.00000000000E+00 0. -1.
         21   -1    0    0  502  503 -0.00000000000E+00 -0.00000000000E+00 -0.58184691010E+02  0.58184691010E+02  0.00000000000E+00 0. -1.
          6    1    1    2  501    0 -0.30756104730E+03 -0.53077152600E+02  0.83674343627E+03  0.90946938381E+03  0.17200000000E+03 0. -1.
         -6    1    1    2    0  503  0.30756104730E+03  0.53077152600E+02  0.14330933628E+04  0.14767367973E+04  0.17200000000E+03 0. -1.
</event>
<event>
 4    1  0.2889985E+000  0.1837614E+03  0.7818608E-02  0.1164212E+00
         21   -1    0    0  503  502  0.00000000000E+00  0.00000000000E+00  0.99310201469E+02  0.99310201469E+02  0.00000000000E+00 0.  1.
         21   -1    0    0  501  503 -0.00000000000E+00 -0.00000000000E+00 -0.34043108478E+03  0.34043108478E+03  0.00000000000E+00 0. -1.
          6    1    1    2  501    0 -0.55972766498E+02 -0.32423749843E+02 -0.12812608113E+03  0.22401906796E+03  0.17200000000E+03 0.  1.
         -6    1    1    2    0  502  0.55972766498E+02  0.32423749843E+02 -0.11299480218E+03  0.21572221829E+03  0.17200000000E+03 0.  1.
</event>
<event>
 4    1  0.2889985E+000  0.1998210E+03  0.7818608E-02  0.1149890E+00
         21   -1    0    0  503  502  0.00000000000E+00  0.00000000000E+00  0.20333390694E+04  0.20333390694E+04  0.00000000000E+00 0. -1.
         21   -1    0    0  501  503 -0.00000000000E+00 -0.00000000000E+00 -0.24236775191E+02  0.24236775191E+02  0.00000000000E+00 0. -1.
          6    1    1    2  501    0 -0.39842145015E+02 -0.93579040493E+02  0.55636084648E+03  0.59115634551E+03  0.17200000000E+03 0. -1.
         -6    1    1    2    0  502  0.39842145015E+02  0.93579040493E+02  0.14527414477E+04  0.14664194991E+04  0.17200000000E+03 0. -1.
</event>
<event>
 4    1  0.2889985E+000  0.2101201E+03  0.7818608E-02  0.1141471E+00
         21   -1    0    0  501  502  0.00000000000E+00  0.00000000000E+00  0.41391590887E+03  0.41391590887E+03  0.00000000000E+00 0. -1.
         21   -1    0    0  502  503 -0.00000000000E+00 -0.00000000000E+00 -0.40819385036E+03  0.40819385036E+03  0.00000000000E+00 0. -1.
          6    1    1    2  501    0  0.86920978538E+02 -0.83732889442E+02  0.35615060145E+03  0.41351385007E+03  0.17200000000E+03 0. -1.
         -6    1    1    2    0  503 -0.86920978538E+02  0.83732889442E+02 -0.35042854293E+03  0.40859590916E+03  0.17200000000E+03 0. -1.
</event>
<event>
 4    1  0.2889985E+000  0.1858264E+03  0.7818608E-02  0.1162280E+00
         21   -1    0    0  501  502  0.00000000000E+00  0.00000000000E+00  0.11798639195E+03  0.11798639195E+03  0.00000000000E+00 0. -1.
         21   -1    0    0  502  503 -0.00000000000E+00 -0.00000000000E+00 -0.34194906329E+03  0.34194906329E+03  0.00000000000E+00 0. -1.
          6    1    1    2  501    0 -0.46318373086E+02  0.52934441363E+02 -0.24683473439E+02  0.18745858377E+03  0.17200000000E+03 0. -1.
         -6    1    1    2    0  503  0.46318373086E+02 -0.52934441363E+02 -0.19927919791E+03  0.27247687147E+03  0.17200000000E+03 0. -1.
</event>
<event>
 4    1  0.2889985E+000  0.1946327E+03  0.7818608E-02  0.1154348E+00
         21   -1    0    0  501  502  0.00000000000E+00  0.00000000000E+00  0.83241330784E+02  0.83241330784E+02  0.00000000000E+00 0. -1.
         21   -1    0    0  502  503 -0.00000000000E+00 -0.00000000000E+00 -0.47334498206E+03  0.47334498206E+03  0.00000000000E+00 0. -1.
          6    1    1    2  501    0  0.20589351571E+02  0.88735322621E+02 -0.24971113210E+03  0.31660310860E+03  0.17200000000E+03 0. -1.
         -6    1    1    2    0  503 -0.20589351571E+02 -0.88735322621E+02 -0.14039251917E+03  0.23998320424E+03  0.17200000000E+03 0. -1.
</event>
<event>
 4    1  0.2889985E+000  0.2050173E+03  0.7818608E-02  0.1145574E+00
         21   -1    0    0  503  502  0.00000000000E+00  0.00000000000E+00  0.13947712596E+03  0.13947712596E+03  0.00000000000E+00 0. -1.
         21   -1    0    0  501  503 -0.00000000000E+00 -0.00000000000E+00 -0.32586163985E+03  0.32586163985E+03  0.00000000000E+00 0.  1.
          6    1    1    2  501    0  0.89748508602E+02  0.66281961740E+02 -0.15699903168E+03  0.25822623646E+03  0.17200000000E+03 0. -1.
         -6    1    1    2    0  502 -0.89748508602E+02 -0.66281961740E+02 -0.29385482219E+02  0.20711252935E+03  0.17200000000E+03 0. -1.
</event>
<event>
 4    1  0.2889985E+000  0.1845340E+03  0.7818608E-02  0.1163486E+00
         21   -1    0    0  503  502  0.00000000000E+00  0.00000000000E+00  0.43615775187E+03  0.43615775187E+03  0.00000000000E+00 0. -1.
         21   -1    0    0  501  503 -0.00000000000E+00 -0.00000000000E+00 -0.11772317112E+03  0.11772317112E+03  0.00000000000E+00 0.  1.
          6    1    1    2  501    0  0.13516985638E+02  0.65468161229E+02 -0.15026900978E+01  0.18454009622E+03  0.17200000000E+03 0.  1.
         -6    1    1    2    0  502 -0.13516985638E+02 -0.65468161229E+02  0.31993727085E+03  0.36934082677E+03  0.17200000000E+03 0. -1.
</event>
<event>
 4    1  0.2889985E+000  0.2947099E+03  0.7818608E-02  0.1087915E+00
         21   -1    0    0  501  502  0.00000000000E+00  0.00000000000E+00  0.20885486711E+03  0.20885486711E+03  0.00000000000E+00 0.  1.
         21   -1    0    0  502  503 -0.00000000000E+00 -0.00000000000E+00 -0.57109423710E+03  0.57109423710E+03  0.00000000000E+00 0.  1.
          6    1    1    2  501    0 -0.11056416584E+03 -0.21223921274E+03  0.22199922026E+02  0.29554484386E+03  0.17200000000E+03 0.  1.
         -6    1    1    2    0  503  0.11056416584E+03  0.21223921274E+03 -0.38443929202E+03  0.48440426035E+03  0.17200000000E+03 0.  1.
</event>
<event>
 4    1  0.2889985E+000  0.1730308E+03  0.7818608E-02  0.1174724E+00
         21   -1    0    0  501  502  0.00000000000E+00  0.00000000000E+00  0.88738657722E+02  0.88738657722E+02  0.00000000000E+00 0.  1.
         21   -1    0    0  502  503 -0.00000000000E+00 -0.00000000000E+00 -0.39929470671E+03  0.39929470671E+03  0.00000000000E+00 0.  1.
          6    1    1    2  501    0 -0.16004866765E+02 -0.99757053102E+01 -0.59198852682E+02  0.18287748526E+03  0.17200000000E+03 0.  1.
         -6    1    1    2    0  503  0.16004866765E+02  0.99757053102E+01 -0.25135719630E+03  0.30515587917E+03  0.17200000000E+03 0.  1.
</event>
<event>
 4    1  0.2889985E+000  0.1871985E+03  0.7818608E-02  0.1161013E+00
         21   -1    0    0  503  502  0.00000000000E+00  0.00000000000E+00  0.35205862814E+02  0.35205862814E+02  0.00000000000E+00 0.  1.
         21   -1    0    0  501  503 -0.00000000000E+00 -0.00000000000E+00 -0.13122415187E+04  0.13122415187E+04  0.00000000000E+00 0.  1.
          6    1    1    2  501    0 -0.69231257056E+02  0.25813350426E+02 -0.96957884194E+03  0.98748489951E+03  0.17200000000E+03 0.  1.
         -6    1    1    2    0  502  0.69231257056E+02 -0.25813350426E+02 -0.30745681397E+03  0.35996248203E+03  0.17200000000E+03 0.  1.
</event>
<event>
 4    1  0.2889985E+000  0.1886139E+03  0.7818608E-02  0.1159717E+00
         21   -1    0    0  501  502  0.00000000000E+00  0.00000000000E+00  0.15680564752E+03  0.15680564752E+03  0.00000000000E+00 0. -1.
         21   -1    0    0  502  503 -0.00000000000E+00 -0.00000000000E+00 -0.23038985321E+03  0.23038985321E+03  0.00000000000E+00 0. -1.
          6    1    1    2  501    0  0.22503362715E+02  0.74059439750E+02 -0.60706172079E+02  0.19814247722E+03  0.17200000000E+03 0.  1.
         -6    1    1    2    0  503 -0.22503362715E+02 -0.74059439750E+02 -0.12878033609E+02  0.18905302351E+03  0.17200000000E+03 0.  1.
</event>
<event>
 4    1  0.2889985E+000  0.3088852E+03  0.7818608E-02  0.1080881E+00
         21   -1    0    0  501  502  0.00000000000E+00  0.00000000000E+00  0.42795729370E+03  0.42795729370E+03  0.00000000000E+00 0.  1.
         21   -1    0    0  502  503 -0.00000000000E+00 -0.00000000000E+00 -0.22350304734E+03  0.22350304734E+03  0.00000000000E+00 0. -1.
          6    1    1    2  501    0 -0.26636357791E+01 -0.25655211067E+03  0.11853250156E+03  0.33084744879E+03  0.17200000000E+03 0.  1.
         -6    1    1    2    0  503  0.26636357791E+01  0.25655211067E+03  0.85921744803E+02  0.32061289225E+03  0.17200000000E+03 0. -1.
</event>
<event>
 4    1  0.2889985E+000  0.2060607E+03  0.7818608E-02  0.1144724E+00
         21   -1    0    0  503  502  0.00000000000E+00  0.00000000000E+00  0.84927550755E+02  0.84927550755E+02  0.00000000000E+00 0. -1.
         21   -1    0    0  501  503 -0.00000000000E+00 -0.00000000000E+00 -0.64554588635E+03  0.64554588635E+03  0.00000000000E+00 0. -1.
          6    1    1    2  501    0 -0.22470389673E+02 -0.11122983518E+03 -0.45375332939E+03  0.49835035726E+03  0.17200000000E+03 0. -1.
         -6    1    1    2    0  502  0.22470389673E+02  0.11122983518E+03 -0.10686500621E+03  0.23212307985E+03  0.17200000000E+03 0. -1.
</event>
<event>
 4    1  0.2889985E+000  0.1757164E+03  0.7818608E-02  0.1172014E+00
         21   -1    0    0  501  502  0.00000000000E+00  0.00000000000E+00  0.27353917595E+03  0.27353917595E+03  0.00000000000E+00 0. -1.
         21   -1    0    0  502  503 -0.00000000000E+00 -0.00000000000E+00 -0.14830991269E+03  0.14830991269E+03  0.00000000000E+00 0. -1.
          6    1    1    2  501    0 -0.14722236563E+02 -0.32795213999E+02  0.16571155592E+03  0.24152968777E+03  0.17200000000E+03 0. -1.
         -6    1    1    2    0  503  0.14722236563E+02  0.32795213999E+02 -0.40482292657E+02  0.18031940087E+03  0.17200000000E+03 0. -1.
</event>
<event>
 4    1  0.2889985E+000  0.1924917E+03  0.7818608E-02  0.1156233E+00
         21   -1    0    0  503  502  0.00000000000E+00  0.00000000000E+00  0.30812449823E+03  0.30812449823E+03  0.00000000000E+00 0. -1.
         21   -1    0    0  501  503 -0.00000000000E+00 -0.00000000000E+00 -0.13850102103E+03  0.13850102103E+03  0.00000000000E+00 0. -1.
          6    1    1    2  501    0  0.71043080308E+02 -0.49213258240E+02  0.16586834547E+03  0.25409717054E+03  0.17200000000E+03 0. -1.
         -6    1    1    2    0  502 -0.71043080308E+02  0.49213258240E+02  0.37551317339E+01  0.19252834872E+03  0.17200000000E+03 0. -1.
</event>
<event>
 4    1  0.2889985E+000  0.1881455E+03  0.7818608E-02  0.1160145E+00
         21   -1    0    0  503  502  0.00000000000E+00  0.00000000000E+00  0.23668617534E+03  0.23668617534E+03  0.00000000000E+00 0.  1.
         21   -1    0    0  501  503 -0.00000000000E+00 -0.00000000000E+00 -0.17206642184E+03  0.17206642184E+03  0.00000000000E+00 0.  1.
          6    1    1    2  501    0 -0.68074570091E+02 -0.34359417615E+02 -0.41606122647E+02  0.19269090823E+03  0.17200000000E+03 0.  1.
         -6    1    1    2    0  502  0.68074570091E+02  0.34359417615E+02  0.10622587614E+03  0.21606168896E+03  0.17200000000E+03 0.  1.
</event>
<event>
 4    1  0.2889985E+000  0.1980199E+03  0.7818608E-02  0.1151420E+00
         21   -1    0    0  501  502  0.00000000000E+00  0.00000000000E+00  0.23280232767E+03  0.23280232767E+03  0.00000000000E+00 0. -1.
         21   -1    0    0  502  503 -0.00000000000E+00 -0.00000000000E+00 -0.17093854951E+03  0.17093854951E+03  0.00000000000E+00 0.  1.
          6    1    1    2  501    0 -0.73658293523E+02  0.64825400538E+02  0.55366143620E+02  0.20561441248E+03  0.17200000000E+03 0.  1.
         -6    1    1    2    0  503  0.73658293523E+02 -0.64825400538E+02  0.64976345426E+01  0.19812646470E+03  0.17200000000E+03 0.  1.
</event>
<event>
 4    1  0.2889985E+000  0.1933165E+03  0.7818608E-02  0.1155504E+00
         21   -1    0    0  501  502  0.00000000000E+00  0.00000000000E+00  0.11339575671E+03  0.11339575671E+03  0.00000000000E+00 0.  1.
         21   -1    0    0  502  503 -0.00000000000E+00 -0.00000000000E+00 -0.33300520700E+03  0.33300520700E+03  0.00000000000E+00 0.  1.
          6    1    1    2  501    0  0.86035738434E+02  0.19624186190E+02 -0.87118064196E+02  0.21203965214E+03  0.17200000000E+03 0.  1.
         -6    1    1    2    0  503 -0.86035738434E+02 -0.19624186190E+02 -0.13249138610E+03  0.23436131157E+03  0.17200000000E+03 0.  1.
</event>
<event>
 4    1  0.2889985E+000  0.2007889E+03  0.7818608E-02  0.1149075E+00
         21   -1    0    0  501  502  0.00000000000E+00  0.00000000000E+00  0.31631073781E+02  0.31631073781E+02  0.00000000000E+00 0.  1.
         21   -1    0    0  502  503 -0.00000000000E+00 -0.00000000000E+00 -0.12927044814E+04  0.12927044814E+04  0.00000000000E+00 0.  1.
          6    1    1    2  501    0  0.10123045530E+03  0.22013163945E+02 -0.70895327509E+03  0.73683846990E+03  0.17200000000E+03 0.  1.
         -6    1    1    2    0  503 -0.10123045530E+03 -0.22013163945E+02 -0.55212013251E+03  0.58749708526E+03  0.17200000000E+03 0.  1.
</event>
<event>
 4    1  0.2889985E+000  0.1993404E+03  0.7818608E-02  0.1150297E+00
         21   -1    0    0  501  502  0.00000000000E+00  0.00000000000E+00  0.90852301063E+02  0.90852301063E+02  0.00000000000E+00 0. -1.
         21   -1    0    0  502  503 -0.00000000000E+00 -0.00000000000E+00 -0.55334367085E+03  0.55334367085E+03  0.00000000000E+00 0. -1.
          6    1    1    2  501    0 -0.40245628649E+02  0.92373596678E+02 -0.83790686540E+02  0.21623475932E+03  0.17200000000E+03 0. -1.
         -6    1    1    2    0  503  0.40245628649E+02 -0.92373596678E+02 -0.37870068324E+03  0.42796121259E+03  0.17200000000E+03 0. -1.
</event>
<event>
 4    1  0.2889985E+000  0.3287072E+03  0.7818608E-02  0.1071710E+00
         21   -1    0    0  503  502  0.00000000000E+00  0.00000000000E+00  0.27364060516E+03  0.27364060516E+03  0.00000000000E+00 0.  1.
         21   -1    0    0  501  503 -0.00000000000E+00 -0.00000000000E+00 -0.40470973027E+03  0.40470973027E+03  0.00000000000E+00 0. -1.
          6    1    1    2  501    0  0.23625242213E+03 -0.15049654635E+03 -0.12608441603E+02  0.32894891735E+03  0.17200000000E+03 0. -1.
         -6    1    1    2    0  502 -0.23625242213E+03  0.15049654635E+03 -0.11846068351E+03  0.34940141809E+03  0.17200000000E+03 0. -1.
</event>
<event>
 4    1  0.2889985E+000  0.2049166E+03  0.7818608E-02  0.1145656E+00
         21   -1    0    0  503  502  0.00000000000E+00  0.00000000000E+00  0.51809288442E+02  0.51809288442E+02  0.00000000000E+00 0.  1.
         21   -1    0    0  501  503 -0.00000000000E+00 -0.00000000000E+00 -0.13511114878E+04  0.13511114878E+04  0.00000000000E+00 0. -1.
          6    1    1    2  501    0  0.11055622532E+03  0.13569857679E+02 -0.10933669153E+04  0.11124037179E+04  0.17200000000E+03 0. -1.
         -6    1    1    2    0  502 -0.11055622532E+03 -0.13569857679E+02 -0.20593528401E+03  0.29051705835E+03  0.17200000000E+03 0.  1.
</event>
<event>
 4    1  0.2889985E+000  0.3041055E+03  0.7818608E-02  0.1083206E+00
         21   -1    0    0  503  502  0.00000000000E+00  0.00000000000E+00  0.12900648622E+03  0.12900648622E+03  0.00000000000E+00 0. -1.
         21   -1    0    0  501  503 -0.00000000000E+00 -0.00000000000E+00 -0.73603898508E+03  0.73603898508E+03  0.00000000000E+00 0. -1.
          6    1    1    2  501    0  0.73655810557E+01 -0.25068290417E+03 -0.37332669159E+03  0.48151115136E+03  0.17200000000E+03 0. -1.
         -6    1    1    2    0  502 -0.73655810557E+01  0.25068290417E+03 -0.23370580726E+03  0.38353431994E+03  0.17200000000E+03 0. -1.
</event>
<event>
 4    1  0.2889985E+000  0.1996392E+03  0.7818608E-02  0.1150044E+00
         21   -1    0    0  501  502  0.00000000000E+00  0.00000000000E+00  0.39197870065E+03  0.39197870065E+03  0.00000000000E+00 0. -1.
         21   -1    0    0  502  503 -0.00000000000E+00 -0.00000000000E+00 -0.10632789259E+03  0.10632789259E+03  0.00000000000E+00 0. -1.
          6    1    1    2  501    0  0.94013349081E+02 -0.37858784193E+02  0.19492594261E+03  0.27901957001E+03  0.17200000000E+03 0. -1.
         -6    1    1    2    0  503 -0.94013349081E+02  0.37858784193E+02  0.90724865446E+02  0.21928702323E+03  0.17200000000E+03 0. -1.
</event>
<event>
 4    1  0.2889985E+000  0.2874038E+03  0.7818608E-02  0.1091713E+00
         21   -1    0    0  501  502  0.00000000000E+00  0.00000000000E+00  0.20895590003E+03  0.20895590003E+03  0.00000000000E+00 0. -1.
         21   -1    0    0  502  503 -0.00000000000E+00 -0.00000000000E+00 -0.47586779512E+03  0.47586779512E+03  0.00000000000E+00 0. -1.
          6    1    1    2  501    0  0.21688215945E+03  0.77324291201E+02  0.74333433553E+01  0.28749986381E+03  0.17200000000E+03 0. -1.
         -6    1    1    2    0  503 -0.21688215945E+03 -0.77324291201E+02 -0.27434523844E+03  0.39732383134E+03  0.17200000000E+03 0. -1.
</event>
<event>
 4    1  0.2889985E+000  0.2988680E+03  0.7818608E-02  0.1085808E+00
         21   -1    0    0  501  502  0.00000000000E+00  0.00000000000E+00  0.56859198405E+03  0.56859198405E+03  0.00000000000E+00 0. -1.
         21   -1    0    0  502  503 -0.00000000000E+00 -0.00000000000E+00 -0.25990313642E+03  0.25990313642E+03  0.00000000000E+00 0. -1.
          6    1    1    2  501    0  0.23415623089E+03  0.70064040323E+02 -0.10619358565E+03  0.31717375024E+03  0.17200000000E+03 0. -1.
         -6    1    1    2    0  503 -0.23415623089E+03 -0.70064040323E+02  0.41488243327E+03  0.51132137023E+03  0.17200000000E+03 0. -1.
</event>
<event>
 4    1  0.2889985E+000  0.2005751E+03  0.7818608E-02  0.1149255E+00
         21   -1    0    0  503  502  0.00000000000E+00  0.00000000000E+00  0.13011610360E+04  0.13011610360E+04  0.00000000000E+00 0. -1.
         21   -1    0    0  501  503 -0.00000000000E+00 -0.00000000000E+00 -0.35951522515E+02  0.35951522515E+02  0.00000000000E+00 0. -1.
          6    1    1    2  501    0 -0.73726839414E+02 -0.72185420623E+02  0.88274257856E+03  0.90524297390E+03  0.17200000000E+03 0. -1.
         -6    1    1    2    0  502  0.73726839414E+02  0.72185420623E+02  0.38246693493E+03  0.43186958462E+03  0.17200000000E+03 0. -1.
</event>
<event>
 4    1  0.2889985E+000  0.1743259E+03  0.7818608E-02  0.1173410E+00
         21   -1    0    0  503  502  0.00000000000E+00  0.00000000000E+00  0.15840027001E+03  0.15840027001E+03  0.00000000000E+00 0. -1.
         21   -1    0    0  501  503 -0.00000000000E+00 -0.00000000000E+00 -0.19185390475E+03  0.19185390475E+03  0.00000000000E+00 0. -1.
          6    1    1    2  501    0 -0.28144839315E+02 -0.36574912794E+01 -0.17177309350E+02  0.17517011497E+03  0.17200000000E+03 0. -1.
         -6    1    1    2    0  502  0.28144839315E+02  0.36574912794E+01 -0.16276325391E+02  0.17508405978E+03  0.17200000000E+03 0. -1.
</event>
<event>
 4    1  0.2889985E+000  0.1977395E+03  0.7818608E-02  0.1151660E+00
         21   -1    0    0  503  502  0.00000000000E+00  0.00000000000E+00  0.77525873461E+03  0.77525873461E+03  0.00000000000E+00 0.  1.
         21   -1    0    0  501  503 -0.00000000000E+00 -0.00000000000E+00 -0.50707514937E+02  0.50707514937E+02  0.00000000000E+00 0.  1.
          6    1    1    2  501    0  0.76067880031E+02  0.61078540114E+02  0.39249831554E+03  0.43949498079E+03  0.17200000000E+03 0.  1.
         -6    1    1    2    0  502 -0.76067880031E+02 -0.61078540114E+02  0.33205290414E+03  0.38647126876E+03  0.17200000000E+03 0.  1.
</event>
<event>
 4    1  0.2889985E+000  0.1821384E+03  0.7818608E-02  0.1165749E+00
         21   -1    0    0  501  502  0.00000000000E+00  0.00000000000E+00  0.81358277410E+02  0.81358277410E+02  0.00000000000E+00 0.  1.
         21   -1    0    0  502  503 -0.00000000000E+00 -0.00000000000E+00 -0.87963329158E+03  0.87963329158E+03  0.00000000000E+00 0.  1.
          6    1    1    2  501    0 -0.12175006541E+02  0.58669854346E+02 -0.47210196599E+02  0.18815734175E+03  0.17200000000E+03 0.  1.
         -6    1    1    2    0  503  0.12175006541E+02 -0.58669854346E+02 -0.75106481757E+03  0.77283422724E+03  0.17200000000E+03 0.  1.
</event>
<event>
 4    1  0.2889985E+000  0.2246763E+03  0.7818608E-02  0.1130444E+00
         21   -1    0    0  503  502  0.00000000000E+00  0.00000000000E+00  0.16401404367E+03  0.16401404367E+03  0.00000000000E+00 0. -1.
         21   -1    0    0  501  503 -0.00000000000E+00 -0.00000000000E+00 -0.51120941143E+03  0.51120941143E+03  0.00000000000E+00 0.  1.
          6    1    1    2  501    0 -0.61412491346E+02 -0.13085855488E+03 -0.38657340445E+03  0.44712241334E+03  0.17200000000E+03 0.  1.
         -6    1    1    2    0  502  0.61412491346E+02  0.13085855488E+03  0.39378036692E+02  0.22810104176E+03  0.17200000000E+03 0. -1.
</event>
<event>
 4    1  0.2889985E+000  0.1941758E+03  0.7818608E-02  0.1154748E+00
         21   -1    0    0  503  502  0.00000000000E+00  0.00000000000E+00  0.24157038154E+03  0.24157038154E+03  0.00000000000E+00 0. -1.
         21   -1    0    0  501  503 -0.00000000000E+00 -0.00000000000E+00 -0.16279608541E+03  0.16279608541E+03  0.00000000000E+00 0. -1.
          6    1    1    2  501    0  0.89857808868E+02  0.67673843854E+01 -0.16797800706E+01  0.19418301926E+03  0.17200000000E+03 0. -1.
         -6    1    1    2    0  502 -0.89857808868E+02 -0.67673843854E+01  0.80454076203E+02  0.21018344769E+03  0.17200000000E+03 0. -1.
</event>
<event>
 4    1  0.2889985E+000  0.1774509E+03  0.7818608E-02  0.1170293E+00
         21   -1    0    0  501  502  0.00000000000E+00  0.00000000000E+00  0.22808354832E+02  0.22808354832E+02  0.00000000000E+00 0.  1.
         21   -1    0    0  502  503 -0.00000000000E+00 -0.00000000000E+00 -0.16017137496E+04  0.16017137496E+04  0.00000000000E+00 0.  1.
          6    1    1    2  501    0 -0.34245279297E+02 -0.27057241805E+02 -0.48764697871E+03  0.51893006209E+03  0.17200000000E+03 0.  1.
         -6    1    1    2    0  503  0.34245279297E+02  0.27057241805E+02 -0.10912584161E+04  0.11055920424E+04  0.17200000000E+03 0.  1.
</event>
<event>
 4    1  0.2889985E+000  0.2588007E+03  0.7818608E-02  0.1107866E+00
         21   -1    0    0  503  502  0.00000000000E+00  0.00000000000E+00  0.65582333915E+03  0.65582333915E+03  0.00000000000E+00 0.  1.
         21   -1    0    0  501  503 -0.00000000000E+00 -0.00000000000E+00 -0.10889400295E+03  0.10889400295E+03  0.00000000000E+00 0. -1.
          6    1    1    2  501    0  0.18998423532E+03  0.36052301184E+02  0.17815382955E+03  0.31419192395E+03  0.17200000000E+03 0.  1.
         -6    1    1    2    0  502 -0.18998423532E+03 -0.36052301184E+02  0.36877550665E+03  0.45052541814E+03  0.17200000000E+03 0.  1.
</event>
<event>
 4    1  0.2889985E+000  0.2508170E+03  0.7818608E-02  0.1112790E+00
         21   -1    0    0  503  502  0.00000000000E+00  0.00000000000E+00  0.23491705936E+03  0.23491705936E+03  0.00000000000E+00 0. -1.
         21   -1    0    0  501  503 -0.00000000000E+00 -0.00000000000E+00 -0.38753019050E+03  0.38753019050E+03  0.00000000000E+00 0. -1.
          6    1    1    2  501    0 -0.10862520000E+03  0.14671651843E+03 -0.24930178860E+03  0.35363901461E+03  0.17200000000E+03 0. -1.
         -6    1    1    2    0  502  0.10862520000E+03 -0.14671651843E+03  0.96688657464E+02  0.26880823525E+03  0.17200000000E+03 0. -1.
</event>
<event>
 4    1  0.2889985E+000  0.1950622E+03  0.7818608E-02  0.1153973E+00
         21   -1    0    0  503  502  0.00000000000E+00  0.00000000000E+00  0.55574102274E+03  0.55574102274E+03  0.00000000000E+00 0.  1.
         21   -1    0    0  501  503 -0.00000000000E+00 -0.00000000000E+00 -0.15430433653E+03  0.15430433653E+03  0.00000000000E+00 0. -1.
          6    1    1    2  501    0  0.89531846807E+02 -0.21196992760E+02 -0.64075654954E+02  0.20531671547E+03  0.17200000000E+03 0. -1.
         -6    1    1    2    0  502 -0.89531846807E+02  0.21196992760E+02  0.46551234117E+03  0.50472864380E+03  0.17200000000E+03 0.  1.
</event>
<event>
 4    1  0.2889985E+000  0.1941862E+03  0.7818608E-02  0.1154739E+00
         21   -1    0    0  501  502  0.00000000000E+00  0.00000000000E+00  0.20797422716E+03  0.20797422716E+03  0.00000000000E+00 0. -1.
         21   -1    0    0  502  503 -0.00000000000E+00 -0.00000000000E+00 -0.44292102492E+03  0.44292102492E+03  0.00000000000E+00 0. -1.
          6    1    1    2  501    0  0.83850073137E+02 -0.33067207819E+02  0.13264412100E+03  0.23516534148E+03  0.17200000000E+03 0. -1.
         -6    1    1    2    0  503 -0.83850073137E+02  0.33067207819E+02 -0.36759091876E+03  0.41572991059E+03  0.17200000000E+03 0. -1.
</event>
<event>
 4    1  0.2889985E+000  0.1907147E+03  0.7818608E-02  0.1157818E+00
         21   -1    0    0  501  502  0.00000000000E+00  0.00000000000E+00  0.28512723553E+03  0.28512723553E+03  0.00000000000E+00 0.  1.
         21   -1    0    0  502  503 -0.00000000000E+00 -0.00000000000E+00 -0.12783985208E+03  0.12783985208E+03  0.00000000000E+00 0.  1.
          6    1    1    2  501    0  0.20819490976E+02  0.79716000615E+02  0.69059503313E+02  0.20283319984E+03  0.17200000000E+03 0.  1.
         -6    1    1    2    0  503 -0.20819490976E+02 -0.79716000615E+02  0.88227880130E+02  0.21013388777E+03  0.17200000000E+03 0.  1.
</event>
<event>
 4    1  0.2889985E+000  0.1998690E+03  0.7818608E-02  0.1149850E+00
         21   -1    0    0  503  502  0.00000000000E+00  0.00000000000E+00  0.18199434039E+03  0.18199434039E+03  0.00000000000E+00 0. -1.
         21   -1    0    0  501  503 -0.00000000000E+00 -0.00000000000E+00 -0.21957491278E+03  0.21957491278E+03  0.00000000000E+00 0. -1.
          6    1    1    2  501    0 -0.87851758321E+02 -0.51436063737E+02 -0.22520323263E+02  0.20113369945E+03  0.17200000000E+03 0. -1.
         -6    1    1    2    0  502  0.87851758321E+02  0.51436063737E+02 -0.15060249123E+02  0.20043555372E+03  0.17200000000E+03 0. -1.
</event>
<event>
 4    1  0.2889985E+000  0.2336705E+03  0.7818608E-02  0.1124083E+00
         21   -1    0    0  503  502  0.00000000000E+00  0.00000000000E+00  0.14153763441E+03  0.14153763441E+03  0.00000000000E+00 0.  1.
         21   -1    0    0  501  503 -0.00000000000E+00 -0.00000000000E+00 -0.44585491722E+03  0.44585491722E+03  0.00000000000E+00 0.  1.
          6    1    1    2  501    0 -0.50650215051E+02 -0.14984152079E+03 -0.44348386577E+02  0.23784176469E+03  0.17200000000E+03 0.  1.
         -6    1    1    2    0  502  0.50650215051E+02  0.14984152079E+03 -0.25996889624E+03  0.34955078694E+03  0.17200000000E+03 0.  1.
</event>
<event>
 4    1  0.2889985E+000  0.1971722E+03  0.7818608E-02  0.1152147E+00
         21   -1    0    0  503  502  0.00000000000E+00  0.00000000000E+00  0.24860141000E+02  0.24860141000E+02  0.00000000000E+00 0.  1.
         21   -1    0    0  501  503 -0.00000000000E+00 -0.00000000000E+00 -0.15643797632E+04  0.15643797632E+04  0.00000000000E+00 0. -1.
          6    1    1    2  501    0 -0.96398060167E+02 -0.53712942245E+00 -0.75477676161E+03  0.78010565591E+03  0.17200000000E+03 0.  1.
         -6    1    1    2    0  502  0.96398060167E+02  0.53712942245E+00 -0.78474286055E+03  0.80913424826E+03  0.17200000000E+03 0. -1.
</event>
<event>
 4    1  0.2889985E+000  0.1738611E+03  0.7818608E-02  0.1173880E+00
         21   -1    0    0  503  502  0.00000000000E+00  0.00000000000E+00  0.26323456891E+02  0.26323456891E+02  0.00000000000E+00 0. -1.
         21   -1    0    0  501  503 -0.00000000000E+00 -0.00000000000E+00 -0.19356017262E+04  0.19356017262E+04  0.00000000000E+00 0. -1.
          6    1    1    2  501    0 -0.90757052464E+01 -0.23691703218E+02 -0.15802588706E+04  0.15897942519E+04  0.17200000000E+03 0. -1.
         -6    1    1    2    0  502  0.90757052464E+01  0.23691703218E+02 -0.32901939866E+03  0.37213093116E+03  0.17200000000E+03 0. -1.
</event>
<event>
 4    1  0.2889985E+000  0.2087074E+03  0.7818608E-02  0.1142594E+00
         21   -1    0    0  503  502  0.00000000000E+00  0.00000000000E+00  0.24024055971E+03  0.24024055971E+03  0.00000000000E+00 0.  1.
         21   -1    0    0  501  503 -0.00000000000E+00 -0.00000000000E+00 -0.26851853808E+03  0.26851853808E+03  0.00000000000E+00 0. -1.
          6    1    1    2  501    0  0.26851695892E+02  0.11512496721E+03 -0.15910517942E+03  0.26243709678E+03  0.17200000000E+03 0. -1.
         -6    1    1    2    0  502 -0.26851695892E+02 -0.11512496721E+03  0.13082720105E+03  0.24632200101E+03  0.17200000000E+03 0.  1.
</event>
<event>
 4    1  0.2889985E+000  0.2243335E+03  0.7818608E-02  0.1130693E+00
         21   -1    0    0  501  502  0.00000000000E+00  0.00000000000E+00  0.31827591423E+03  0.31827591423E+03  0.00000000000E+00 0.  1.
         21   -1    0    0  502  503 -0.00000000000E+00 -0.00000000000E+00 -0.20835771581E+03  0.20835771581E+03  0.00000000000E+00 0. -1.
          6    1    1    2  501    0  0.69238631728E+02  0.12628354901E+03 -0.74339058378E+02  0.23632989331E+03  0.17200000000E+03 0. -1.
         -6    1    1    2    0  503 -0.69238631728E+02 -0.12628354901E+03  0.18425725680E+03  0.29030373672E+03  0.17200000000E+03 0.  1.
</event>
<event>
 4    1  0.2889985E+000  0.3265003E+03  0.7818608E-02  0.1072696E+00
         21   -1    0    0  501  502  0.00000000000E+00  0.00000000000E+00  0.20029951584E+03  0.20029951584E+03  0.00000000000E+00 0. -1.
         21   -1    0    0  502  503 -0.00000000000E+00 -0.00000000000E+00 -0.64460703762E+03  0.64460703762E+03  0.00000000000E+00 0. -1.
          6    1    1    2  501    0 -0.11283890002E+03  0.25354649211E+03 -0.45753751354E+02  0.32969053183E+03  0.17200000000E+03 0. -1.
         -6    1    1    2    0  503  0.11283890002E+03 -0.25354649211E+03 -0.39855377043E+03  0.51521602163E+03  0.17200000000E+03 0. -1.
</event>
<event>
 4    1  0.2889985E+000  0.2925846E+03  0.7818608E-02  0.1089007E+00
         21   -1    0    0  503  502  0.00000000000E+00  0.00000000000E+00  0.87809953006E+03  0.87809953006E+03  0.00000000000E+00 0. -1.
         21   -1    0    0  501  503 -0.00000000000E+00 -0.00000000000E+00 -0.13967758845E+03  0.13967758845E+03  0.00000000000E+00 0. -1.
          6    1    1    2  501    0  0.10885331959E+03  0.21017299629E+03  0.89536525738E+02  0.30597797796E+03  0.17200000000E+03 0. -1.
         -6    1    1    2    0  502 -0.10885331959E+03 -0.21017299629E+03  0.64888541588E+03  0.71179914055E+03  0.17200000000E+03 0. -1.
</event>
<event>
 4    1  0.2889985E+000  0.2030771E+03  0.7818608E-02  0.1147169E+00
         21   -1    0    0  503  502  0.00000000000E+00  0.00000000000E+00  0.65152633372E+03  0.65152633372E+03  0.00000000000E+00 0.  1.
         21   -1    0    0  501  503 -0.00000000000E+00 -0.00000000000E+00 -0.24037553283E+03  0.24037553283E+03  0.00000000000E+00 0. -1.
          6    1    1    2  501    0 -0.74775589668E+02  0.77877465545E+02 -0.17718211449E+03  0.26950656791E+03  0.17200000000E+03 0. -1.
         -6    1    1    2    0  502  0.74775589668E+02 -0.77877465545E+02  0.58833291538E+03  0.62239529864E+03  0.17200000000E+03 0.  1.
</event>
<event>
 4    1  0.2889985E+000  0.1836383E+03  0.7818608E-02  0.1164328E+00
         21   -1    0    0  501  502  0.00000000000E+00  0.00000000000E+00  0.45242155208E+03  0.45242155208E+03  0.00000000000E+00 0.  1.
         21   -1    0    0  502  503 -0.00000000000E+00 -0.00000000000E+00 -0.10470238465E+03  0.10470238465E+03  0.00000000000E+00 0.  1.
          6    1    1    2  501    0 -0.63856931471E+02  0.78309356576E+01  0.32337427613E+03  0.37187895034E+03  0.17200000000E+03 0. -1.
         -6    1    1    2    0  503  0.63856931471E+02 -0.78309356576E+01  0.24344891304E+02  0.18524498639E+03  0.17200000000E+03 0. -1.
</event>
<event>
 4    1  0.2889985E+000  0.1755794E+03  0.7818608E-02  0.1172151E+00
         21   -1    0    0  501  502  0.00000000000E+00  0.00000000000E+00  0.85917694780E+02  0.85917694780E+02  0.00000000000E+00 0.  1.
         21   -1    0    0  502  503 -0.00000000000E+00 -0.00000000000E+00 -0.40744227346E+03  0.40744227346E+03  0.00000000000E+00 0.  1.
          6    1    1    2  501    0 -0.20032510002E+02  0.29031169753E+02 -0.75537864430E+02  0.19113890038E+03  0.17200000000E+03 0.  1.
         -6    1    1    2    0  503  0.20032510002E+02 -0.29031169753E+02 -0.24598671425E+03  0.30222106787E+03  0.17200000000E+03 0.  1.
</event>
<event>
 4    1  0.2889985E+000  0.1988804E+03  0.7818608E-02  0.1150687E+00
         21   -1    0    0  501  502  0.00000000000E+00  0.00000000000E+00  0.38708801997E+03  0.38708801997E+03  0.00000000000E+00 0. -1.
         21   -1    0    0  502  503 -0.00000000000E+00 -0.00000000000E+00 -0.15467894120E+03  0.15467894120E+03  0.00000000000E+00 0.  1.
          6    1    1    2  501    0 -0.31434879428E+02 -0.94769563061E+02  0.27401434798E+03  0.33858128216E+03  0.17200000000E+03 0. -1.
         -6    1    1    2    0  503  0.31434879428E+02  0.94769563061E+02 -0.41605269224E+02  0.20318567901E+03  0.17200000000E+03 0.  1.
</event>
<event>
 4    1  0.2889985E+000  0.1984606E+03  0.7818608E-02  0.1151044E+00
         21   -1    0    0  503  502  0.00000000000E+00  0.00000000000E+00  0.35760262976E+03  0.35760262976E+03  0.00000000000E+00 0.  1.
         21   -1    0    0  501  503 -0.00000000000E+00 -0.00000000000E+00 -0.13642303132E+03  0.13642303132E+03  0.00000000000E+00 0. -1.
          6    1    1    2  501    0 -0.78398339428E+02 -0.60467345268E+02  0.21702215133E+01  0.19847243972E+03  0.17200000000E+03 0. -1.
         -6    1    1    2    0  502  0.78398339428E+02  0.60467345268E+02  0.21900937693E+03  0.29555322136E+03  0.17200000000E+03 0.  1.
</event>
<event>
 4    1  0.2889985E+000  0.1854118E+03  0.7818608E-02  0.1162666E+00
         21   -1    0    0  501  502  0.00000000000E+00  0.00000000000E+00  0.38301488063E+03  0.38301488063E+03  0.00000000000E+00 0. -1.
         21   -1    0    0  502  503 -0.00000000000E+00 -0.00000000000E+00 -0.11623934797E+03  0.11623934797E+03  0.00000000000E+00 0. -1.
          6    1    1    2  501    0  0.61803518122E+02 -0.31206446040E+02  0.25254199586E+03  0.31329694668E+03  0.17200000000E+03 0. -1.
         -6    1    1    2    0  503 -0.61803518122E+02  0.31206446040E+02  0.14233536803E+02  0.18595728191E+03  0.17200000000E+03 0. -1.
</event>
<event>
 4    1  0.2889985E+000  0.2422769E+03  0.7818608E-02  0.1118285E+00
         21   -1    0    0  503  502  0.00000000000E+00  0.00000000000E+00  0.22677914071E+03  0.22677914071E+03  0.00000000000E+00 0.  1.
         21   -1    0    0  501  503 -0.00000000000E+00 -0.00000000000E+00 -0.43779552563E+03  0.43779552563E+03  0.00000000000E+00 0.  1.
          6    1    1    2  501    0  0.13804469185E+03  0.10028826097E+03 -0.31795900232E+03  0.39974491791E+03  0.17200000000E+03 0.  1.
         -6    1    1    2    0  502 -0.13804469185E+03 -0.10028826097E+03  0.10694261740E+03  0.26482974843E+03  0.17200000000E+03 0.  1.
</event>
<event>
 4    1  0.2889985E+000  0.2213111E+03  0.7818608E-02  0.1132909E+00
         21   -1    0    0  501  502  0.00000000000E+00  0.00000000000E+00  0.40475422387E+03  0.40475422387E+03  0.00000000000E+00 0.  1.
         21   -1    0    0  502  503 -0.00000000000E+00 -0.00000000000E+00 -0.13618555446E+03  0.13618555446E+03  0.00000000000E+00 0. -1.
          6    1    1    2  501    0 -0.10352543525E+02  0.13887922250E+03  0.43992130580E+02  0.22564113356E+03  0.17200000000E+03 0. -1.
         -6    1    1    2    0  503  0.10352543525E+02 -0.13887922250E+03  0.22457653883E+03  0.31529864477E+03  0.17200000000E+03 0.  1.
</event>
<event>
 4    1  0.2889985E+000  0.1808795E+03  0.7818608E-02  0.1166955E+00
         21   -1    0    0  503  502  0.00000000000E+00  0.00000000000E+00  0.63551641290E+02  0.63551641290E+02  0.00000000000E+00 0. -1.
         21   -1    0    0  501  503 -0.00000000000E+00 -0.00000000000E+00 -0.55780243960E+03  0.55780243960E+03  0.00000000000E+00 0. -1.
          6    1    1    2  501    0 -0.46614728845E+02 -0.30991325773E+02 -0.33337065456E+03  0.37928009247E+03  0.17200000000E+03 0. -1.
         -6    1    1    2    0  502  0.46614728845E+02  0.30991325773E+02 -0.16088014374E+03  0.24207398842E+03  0.17200000000E+03 0. -1.
</event>
<event>
 4    1  0.2889985E+000  0.1792861E+03  0.7818608E-02  0.1168496E+00
         21   -1    0    0  501  502  0.00000000000E+00  0.00000000000E+00  0.42978794592E+03  0.42978794592E+03  0.00000000000E+00 0. -1.
         21   -1    0    0  502  503 -0.00000000000E+00 -0.00000000000E+00 -0.88362375266E+02  0.88362375266E+02  0.00000000000E+00 0. -1.
          6    1    1    2  501    0 -0.50468454341E+02  0.35289258206E+01  0.27225158177E+03  0.32598227249E+03  0.17200000000E+03 0.  1.
         -6    1    1    2    0  503  0.50468454341E+02 -0.35289258206E+01  0.69173988881E+02  0.19216804869E+03  0.17200000000E+03 0.  1.
</event>
<event>
 4    1  0.2889985E+000  0.1727286E+03  0.7818608E-02  0.1175032E+00
         21   -1    0    0  501  502  0.00000000000E+00  0.00000000000E+00  0.24382290847E+02  0.24382290847E+02  0.00000000000E+00 0.  1.
         21   -1    0    0  502  503 -0.00000000000E+00 -0.00000000000E+00 -0.12616527151E+04  0.12616527151E+04  0.00000000000E+00 0.  1.
          6    1    1    2  501    0 -0.12351723130E+01  0.15800256484E+02 -0.50702320679E+03  0.53563766296E+03  0.17200000000E+03 0.  1.
         -6    1    1    2    0  503  0.12351723130E+01 -0.15800256484E+02 -0.73024721750E+03  0.75039734303E+03  0.17200000000E+03 0.  1.
</event>
<event>
 4    1  0.2889985E+000  0.2328699E+03  0.7818608E-02  0.1124636E+00
         21   -1    0    0  501  502  0.00000000000E+00  0.00000000000E+00  0.10401733130E+03  0.10401733130E+03  0.00000000000E+00 0.  1.
         21   -1    0    0  502  503 -0.00000000000E+00 -0.00000000000E+00 -0.57486940685E+03  0.57486940685E+03  0.00000000000E+00 0.  1.
          6    1    1    2  501    0  0.10621860930E+03 -0.11559408098E+03 -0.13184521070E+03  0.26760333351E+03  0.17200000000E+03 0.  1.
         -6    1    1    2    0  503 -0.10621860930E+03  0.11559408098E+03 -0.33900686485E+03  0.41128340464E+03  0.17200000000E+03 0.  1.
</event>
<event>
 4    1  0.2889985E+000  0.2105161E+03  0.7818608E-02  0.1141158E+00
         21   -1    0    0  501  502  0.00000000000E+00  0.00000000000E+00  0.39667627443E+03  0.39667627443E+03  0.00000000000E+00 0.  1.
         21   -1    0    0  502  503 -0.00000000000E+00 -0.00000000000E+00 -0.34208475486E+03  0.34208475486E+03  0.00000000000E+00 0. -1.
          6    1    1    2  501    0 -0.98805309074E+02  0.70501918606E+02  0.33041558369E+03  0.39177987133E+03  0.17200000000E+03 0.  1.
         -6    1    1    2    0  503  0.98805309074E+02 -0.70501918606E+02 -0.27582406413E+03  0.34698115796E+03  0.17200000000E+03 0. -1.
</event>
<event>
 4    1  0.2889985E+000  0.1811516E+03  0.7818608E-02  0.1166693E+00
         21   -1    0    0  501  502  0.00000000000E+00  0.00000000000E+00  0.19981721128E+03  0.19981721128E+03  0.00000000000E+00 0. -1.
         21   -1    0    0  502  503 -0.00000000000E+00 -0.00000000000E+00 -0.37496505954E+03  0.37496505954E+03  0.00000000000E+00 0. -1.
          6    1    1    2  501    0  0.31381549598E+02 -0.47403611264E+02  0.12787620561E+03  0.22173909889E+03  0.17200000000E+03 0. -1.
         -6    1    1    2    0  503 -0.31381549598E+02  0.47403611264E+02 -0.30302405388E+03  0.35304317193E+03  0.17200000000E+03 0. -1.
</event>
<event>
 4    1  0.2889985E+000  0.1897634E+03  0.7818608E-02  0.1158675E+00
         21   -1    0    0  503  502  0.00000000000E+00  0.00000000000E+00  0.91437795881E+02  0.91437795881E+02  0.00000000000E+00 0.  1.
         21   -1    0    0  501  503 -0.00000000000E+00 -0.00000000000E+00 -0.41289645040E+03  0.41289645040E+03  0.00000000000E+00 0.  1.
          6    1    1    2  501    0  0.69344259691E+02 -0.40218490819E+02 -0.21492962363E+03  0.28671396281E+03  0.17200000000E+03 0.  1.
         -6    1    1    2    0  502 -0.69344259691E+02  0.40218490819E+02 -0.10652903089E+03  0.21762028347E+03  0.17200000000E+03 0.  1.
</event>
<event>
 4    1  0.2889985E+000  0.1869489E+03  0.7818608E-02  0.1161242E+00
         21   -1    0    0  503  502  0.00000000000E+00  0.00000000000E+00  0.43662741119E+03  0.43662741119E+03  0.00000000000E+00 0.  1.
         21   -1    0    0  501  503 -0.00000000000E+00 -0.00000000000E+00 -0.86598189328E+02  0.86598189328E+02  0.00000000000E+00 0. -1.
          6    1    1    2  501    0  0.36135103230E+02 -0.63719289629E+02  0.10304867754E+03  0.21346878811E+03  0.17200000000E+03 0. -1.
         -6    1    1    2    0  502 -0.36135103230E+02  0.63719289629E+02  0.24698054433E+03  0.30975681241E+03  0.17200000000E+03 0.  1.
</event>
<event>
 4    1  0.2889985E+000  0.1808508E+03  0.7818608E-02  0.1166982E+00
         21   -1    0    0  503  502  0.00000000000E+00  0.00000000000E+00  0.23887980585E+02  0.23887980585E+02  0.00000000000E+00 0. -1.
         21   -1    0    0  501  503 -0.00000000000E+00 -0.00000000000E+00 -0.17711595051E+04  0.17711595051E+04  0.00000000000E+00 0. -1.
          6    1    1    2  501    0 -0.21367823677E+02  0.51637363019E+02 -0.13012161736E+04  0.13137239176E+04  0.17200000000E+03 0. -1.
         -6    1    1    2    0  502  0.21367823677E+02 -0.51637363019E+02 -0.44605535094E+03  0.48132356815E+03  0.17200000000E+03 0. -1.
</event>
<event>
 4    1  0.2889985E+000  0.1920556E+03  0.7818608E-02  0.1156620E+00
         21   -1    0    0  503  502  0.00000000000E+00  0.00000000000E+00  0.34432212864E+03  0.34432212864E+03  0.00000000000E+00 0. -1.
         21   -1    0    0  501  503 -0.00000000000E+00 -0.00000000000E+00 -0.11176075330E+03  0.11176075330E+03  0.00000000000E+00 0. -1.
          6    1    1    2  501    0  0.82503122883E+02  0.22239225676E+02  0.69834402568E+02  0.20435800015E+03  0.17200000000E+03 0. -1.
         -6    1    1    2    0  502 -0.82503122883E+02 -0.22239225676E+02  0.16272697278E+03  0.25172488179E+03  0.17200000000E+03 0. -1.
</event>
<event>
 4    1  0.2889985E+000  0.1839081E+03  0.7818608E-02  0.1164074E+00
         21   -1    0    0  501  502  0.00000000000E+00  0.00000000000E+00  0.18227606322E+03  0.18227606322E+03  0.00000000000E+00 0. -1.
         21   -1    0    0  502  503 -0.00000000000E+00 -0.00000000000E+00 -0.19685488086E+03  0.19685488086E+03  0.00000000000E+00 0.  1.
          6    1    1    2  501    0 -0.49870218482E+02 -0.41846619856E+02 -0.52707517477E+02  0.19131194600E+03  0.17200000000E+03 0.  1.
         -6    1    1    2    0  503  0.49870218482E+02  0.41846619856E+02  0.38128699839E+02  0.18781899807E+03  0.17200000000E+03 0. -1.
</event>
<event>
 4    1  0.2889985E+000  0.2167970E+03  0.7818608E-02  0.1136294E+00
         21   -1    0    0  501  502  0.00000000000E+00  0.00000000000E+00  0.11875907573E+04  0.11875907573E+04  0.00000000000E+00 0. -1.
         21   -1    0    0  502  503 -0.00000000000E+00 -0.00000000000E+00 -0.48984408603E+02  0.48984408603E+02  0.00000000000E+00 0. -1.
          6    1    1    2  501    0 -0.34013990014E+02 -0.12751458712E+03  0.84026215584E+03  0.86777958721E+03  0.17200000000E+03 0. -1.
         -6    1    1    2    0  503  0.34013990014E+02  0.12751458712E+03  0.29834419283E+03  0.36879557867E+03  0.17200000000E+03 0. -1.
</event>
<event>
 4    1  0.2889985E+000  0.2539295E+03  0.7818608E-02  0.1110846E+00
         21   -1    0    0  501  502  0.00000000000E+00  0.00000000000E+00  0.39088315303E+03  0.39088315303E+03  0.00000000000E+00 0. -1.
         21   -1    0    0  502  503 -0.00000000000E+00 -0.00000000000E+00 -0.19838153102E+03  0.19838153102E+03  0.00000000000E+00 0. -1.
          6    1    1    2  501    0  0.56778931539E+02  0.17796721688E+03  0.21718286610E+03  0.33413855611E+03  0.17200000000E+03 0. -1.
         -6    1    1    2    0  503 -0.56778931539E+02 -0.17796721688E+03 -0.24681244094E+02  0.25512612794E+03  0.17200000000E+03 0. -1.
</event>
<event>
 4    1  0.2889985E+000  0.2731786E+03  0.7818608E-02  0.1099474E+00
         21   -1    0    0  503  502  0.00000000000E+00  0.00000000000E+00  0.55742050117E+02  0.55742050117E+02  0.00000000000E+00 0. -1.
         21   -1    0    0  501  503 -0.00000000000E+00 -0.00000000000E+00 -0.13388055936E+04  0.13388055936E+04  0.00000000000E+00 0.  1.
          6    1    1    2  501    0  0.13336824732E+02 -0.21181278565E+03 -0.64437567867E+03  0.69989037879E+03  0.17200000000E+03 0. -1.
         -6    1    1    2    0  502 -0.13336824732E+02  0.21181278565E+03 -0.63868786482E+03  0.69465726493E+03  0.17200000000E+03 0.  1.
</event>
<event>
 4    1  0.2889985E+000  0.2061318E+03  0.7818608E-02  0.1144666E+00
         21   -1    0    0  503  502  0.00000000000E+00  0.00000000000E+00  0.25171875265E+03  0.25171875265E+03  0.00000000000E+00 0. -1.
         21   -1    0    0  501  503 -0.00000000000E+00 -0.00000000000E+00 -0.17154554578E+03  0.17154554578E+03  0.00000000000E+00 0.  1.
          6    1    1    2  501    0 -0.34307131099E+02  0.10830212814E+03  0.13317001112E+02  0.20656154705E+03  0.17200000000E+03 0.  1.
         -6    1    1    2    0  502  0.34307131099E+02 -0.10830212814E+03  0.66856205764E+02  0.21670275137E+03  0.17200000000E+03 0. -1.
</event>
<event>
 4    1  0.2889985E+000  0.1907553E+03  0.7818608E-02  0.1157782E+00
         21   -1    0    0  501  502  0.00000000000E+00  0.00000000000E+00  0.14157870191E+03  0.14157870191E+03  0.00000000000E+00 0.  1.
         21   -1    0    0  502  503 -0.00000000000E+00 -0.00000000000E+00 -0.36211977496E+03  0.36211977496E+03  0.00000000000E+00 0.  1.
          6    1    1    2  501    0 -0.82478680777E+02  0.92159288487E+00 -0.24595485404E+03  0.31125772656E+03  0.17200000000E+03 0.  1.
         -6    1    1    2    0  503  0.82478680777E+02 -0.92159288487E+00  0.25413780984E+02  0.19244075031E+03  0.17200000000E+03 0.  1.
</event>
<event>
 4    1  0.2889985E+000  0.1903274E+03  0.7818608E-02  0.1158166E+00
         21   -1    0    0  501  502  0.00000000000E+00  0.00000000000E+00  0.55489375946E+02  0.55489375946E+02  0.00000000000E+00 0. -1.
         21   -1    0    0  502  503 -0.00000000000E+00 -0.00000000000E+00 -0.66491650424E+03  0.66491650424E+03  0.00000000000E+00 0. -1.
          6    1    1    2  501    0 -0.74787757784E+02 -0.32361895639E+02 -0.35330026188E+03  0.40130484180E+03  0.17200000000E+03 0. -1.
         -6    1    1    2    0  503  0.74787757784E+02  0.32361895639E+02 -0.25612686641E+03  0.31910103839E+03  0.17200000000E+03 0. -1.
</event>
<event>
 4    1  0.2889985E+000  0.1885707E+03  0.7818608E-02  0.1159757E+00
         21   -1    0    0  503  502  0.00000000000E+00  0.00000000000E+00  0.71716579135E+02  0.71716579135E+02  0.00000000000E+00 0.  1.
         21   -1    0    0  501  503 -0.00000000000E+00 -0.00000000000E+00 -0.55352267639E+03  0.55352267639E+03  0.00000000000E+00 0.  1.
          6    1    1    2  501    0  0.60068169499E+02  0.48648828648E+02 -0.34183452133E+03  0.39039689226E+03  0.17200000000E+03 0.  1.
         -6    1    1    2    0  502 -0.60068169499E+02 -0.48648828648E+02 -0.13997157593E+03  0.23484236326E+03  0.17200000000E+03 0.  1.
</event>
<event>
 4    1  0.2889985E+000  0.1809505E+03  0.7818608E-02  0.1166886E+00
         21   -1    0    0  503  502  0.00000000000E+00  0.00000000000E+00  0.73429211260E+02  0.73429211260E+02  0.00000000000E+00 0. -1.
         21   -1    0    0  501  503 -0.00000000000E+00 -0.00000000000E+00 -0.10375247464E+04  0.10375247464E+04  0.00000000000E+00 0. -1.
          6    1    1    2  501    0 -0.50138936347E+02  0.25400484033E+02 -0.90150234554E+03  0.91948332042E+03  0.17200000000E+03 0. -1.
         -6    1    1    2    0  502  0.50138936347E+02 -0.25400484033E+02 -0.62593189556E+02  0.19147063719E+03  0.17200000000E+03 0. -1.
</event>
<event>
 4    1  0.2889985E+000  0.2690947E+03  0.7818608E-02  0.1101799E+00
         21   -1    0    0  501  502  0.00000000000E+00  0.00000000000E+00  0.87423580116E+02  0.87423580116E+02  0.00000000000E+00 0. -1.
         21   -1    0    0  502  503 -0.00000000000E+00 -0.00000000000E+00 -0.10043047305E+04  0.10043047305E+04  0.00000000000E+00 0. -1.
          6    1    1    2  501    0 -0.11933662381E+03  0.16907608494E+03 -0.22991853501E+03  0.35394135817E+03  0.17200000000E+03 0. -1.
         -6    1    1    2    0  503  0.11933662381E+03 -0.16907608494E+03 -0.68696261535E+03  0.73778695243E+03  0.17200000000E+03 0. -1.
</event>
<event>
 4    1  0.2889985E+000  0.2104295E+03  0.7818608E-02  0.1141226E+00
         21   -1    0    0  501  502  0.00000000000E+00  0.00000000000E+00  0.42372711242E+02  0.42372711242E+02  0.00000000000E+00 0.  1.
         21   -1    0    0  502  503 -0.00000000000E+00 -0.00000000000E+00 -0.12524049130E+04  0.12524049130E+04  0.00000000000E+00 0.  1.
          6    1    1    2  501    0 -0.29946159197E+02  0.11747252086E+03 -0.34157982207E+03  0.40119489086E+03  0.17200000000E+03 0.  1.
         -6    1    1    2    0  503  0.29946159197E+02 -0.11747252086E+03 -0.86845237964E+03  0.89358273333E+03  0.17200000000E+03 0.  1.
</event>
<event>
 4    1  0.2889985E+000  0.1825069E+03  0.7818608E-02  0.1165399E+00
         21   -1    0    0  501  502  0.00000000000E+00  0.00000000000E+00  0.15350916615E+03  0.15350916615E+03  0.00000000000E+00 0. -1.
         21   -1    0    0  502  503 -0.00000000000E+00 -0.00000000000E+00 -0.37453480649E+03  0.37453480649E+03  0.00000000000E+00 0. -1.
          6    1    1    2  501    0  0.66525600255E+01 -0.60667121578E+02  0.60727803849E+02  0.19234506065E+03  0.17200000000E+03 0.  1.
         -6    1    1    2    0  503 -0.66525600255E+01  0.60667121578E+02 -0.28175344419E+03  0.33569891199E+03  0.17200000000E+03 0.  1.
</event>
<event>
 4    1  0.2889985E+000  0.2475420E+03  0.7818608E-02  0.1114868E+00
         21   -1    0    0  501  502  0.00000000000E+00  0.00000000000E+00  0.74136860999E+02  0.74136860999E+02  0.00000000000E+00 0. -1.
         21   -1    0    0  502  503 -0.00000000000E+00 -0.00000000000E+00 -0.97953981634E+03  0.97953981634E+03  0.00000000000E+00 0. -1.
          6    1    1    2  501    0  0.44364489822E+02  0.17240889081E+03 -0.24448615382E+03  0.34792314237E+03  0.17200000000E+03 0. -1.
         -6    1    1    2    0  503 -0.44364489822E+02 -0.17240889081E+03 -0.66091680152E+03  0.70575353497E+03  0.17200000000E+03 0. -1.
</event>
<event>
 4    1  0.2889985E+000  0.1720727E+03  0.7818608E-02  0.1175703E+00
         21   -1    0    0  501  502  0.00000000000E+00  0.00000000000E+00  0.46416577503E+03  0.46416577503E+03  0.00000000000E+00 0. -1.
         21   -1    0    0  502  503 -0.00000000000E+00 -0.00000000000E+00 -0.78434271805E+02  0.78434271805E+02  0.00000000000E+00 0. -1.
          6    1    1    2  501    0 -0.32912047484E+01  0.37638033186E+01  0.31009477564E+03  0.35463751652E+03  0.17200000000E+03 0. -1.
         -6    1    1    2    0  503  0.32912047484E+01 -0.37638033186E+01  0.75636727593E+02  0.18796253032E+03  0.17200000000E+03 0. -1.
</event>
<event>
 4    1  0.2889985E+000  0.1823902E+03  0.7818608E-02  0.1165510E+00
         21   -1    0    0  501  502  0.00000000000E+00  0.00000000000E+00  0.61157132916E+02  0.61157132916E+02  0.00000000000E+00 0.  1.
         21   -1    0    0  502  503 -0.00000000000E+00 -0.00000000000E+00 -0.54423984002E+03  0.54423984002E+03  0.00000000000E+00 0.  1.
          6    1    1    2  501    0 -0.57216172038E+02  0.20211201221E+02 -0.24857382539E+03  0.30831011931E+03  0.17200000000E+03 0.  1.
         -6    1    1    2    0  503  0.57216172038E+02 -0.20211201221E+02 -0.23450888172E+03  0.29708685363E+03  0.17200000000E+03 0.  1.
</event>
<event>
 4    1  0.2889985E+000  0.2139173E+03  0.7818608E-02  0.1138501E+00
         21   -1    0    0  501  502  0.00000000000E+00  0.00000000000E+00  0.15517529910E+03  0.15517529910E+03  0.00000000000E+00 0.  1.
         21   -1    0    0  502  503 -0.00000000000E+00 -0.00000000000E+00 -0.46761181654E+03  0.46761181654E+03  0.00000000000E+00 0.  1.
          6    1    1    2  501    0 -0.10949821796E+03 -0.64705189942E+02  0.33030292965E+02  0.21645235410E+03  0.17200000000E+03 0.  1.
         -6    1    1    2    0  503  0.10949821796E+03  0.64705189942E+02 -0.34546681041E+03  0.40633476154E+03  0.17200000000E+03 0.  1.
</event>
<event>
 4    1  0.2889985E+000  0.1921887E+03  0.7818608E-02  0.1156502E+00
         21   -1    0    0  501  502  0.00000000000E+00  0.00000000000E+00  0.17932797509E+04  0.17932797509E+04  0.00000000000E+00 0.  1.
         21   -1    0    0  502  503 -0.00000000000E+00 -0.00000000000E+00 -0.26621524865E+02  0.26621524865E+02  0.00000000000E+00 0.  1.
          6    1    1    2  501    0  0.82953125908E+02 -0.21709090218E+02  0.13161979137E+04  0.13301554246E+04  0.17200000000E+03 0.  1.
         -6    1    1    2    0  503 -0.82953125908E+02  0.21709090218E+02  0.45046031233E+03  0.48974585111E+03  0.17200000000E+03 0.  1.
</event>
<event>
 4    1  0.2889985E+000  0.1814434E+03  0.7818608E-02  0.1166413E+00
         21   -1    0    0  503  502  0.00000000000E+00  0.00000000000E+00  0.44701350149E+03  0.44701350149E+03  0.00000000000E+00 0.  1.
         21   -1    0    0  501  503 -0.00000000000E+00 -0.00000000000E+00 -0.12505364356E+03  0.12505364356E+03  0.00000000000E+00 0.  1.
          6    1    1    2  501    0 -0.31659963108E+02 -0.48325660761E+02 -0.22409184757E+02  0.18282202907E+03  0.17200000000E+03 0. -1.
         -6    1    1    2    0  502  0.31659963108E+02  0.48325660761E+02  0.34436904269E+03  0.38924511598E+03  0.17200000000E+03 0. -1.
</event>
<event>
 4    1  0.2889985E+000  0.1745869E+03  0.7818608E-02  0.1173147E+00
         21   -1    0    0  503  502  0.00000000000E+00  0.00000000000E+00  0.11829183292E+03  0.11829183292E+03  0.00000000000E+00 0.  1.
         21   -1    0    0  501  503 -0.00000000000E+00 -0.00000000000E+00 -0.57139766266E+03  0.57139766266E+03  0.00000000000E+00 0.  1.
          6    1    1    2  501    0  0.29145979809E+02  0.68636132435E+01 -0.48207520973E+03  0.51271542318E+03  0.17200000000E+03 0.  1.
         -6    1    1    2    0  502 -0.29145979809E+02 -0.68636132435E+01  0.28969379995E+02  0.17697407240E+03  0.17200000000E+03 0.  1.
</event>
<event>
 4    1  0.2889985E+000  0.1787288E+03  0.7818608E-02  0.1169039E+00
         21   -1    0    0  503  502  0.00000000000E+00  0.00000000000E+00  0.49369303026E+02  0.49369303026E+02  0.00000000000E+00 0.  1.
         21   -1    0    0  501  503 -0.00000000000E+00 -0.00000000000E+00 -0.77320076690E+03  0.77320076690E+03  0.00000000000E+00 0.  1.
          6    1    1    2  501    0  0.23598510561E+02  0.42462912000E+02 -0.19578257301E+03  0.26509395409E+03  0.17200000000E+03 0.  1.
         -6    1    1    2    0  502 -0.23598510561E+02 -0.42462912000E+02 -0.52804889086E+03  0.55747611584E+03  0.17200000000E+03 0.  1.
</event>
<event>
 4    1  0.2889985E+000  0.2941874E+03  0.7818608E-02  0.1088183E+00
         21   -1    0    0  501  502  0.00000000000E+00  0.00000000000E+00  0.89927804115E+03  0.89927804115E+03  0.00000000000E+00 0. -1.
         21   -1    0    0  502  503 -0.00000000000E+00 -0.00000000000E+00 -0.11201131387E+03  0.11201131387E+03  0.00000000000E+00 0. -1.
          6    1    1    2  501    0 -0.15970908223E+03  0.17735616317E+03  0.58337092647E+03  0.65335123587E+03  0.17200000000E+03 0. -1.
         -6    1    1    2    0  503  0.15970908223E+03 -0.17735616317E+03  0.20389580080E+03  0.35793811916E+03  0.17200000000E+03 0. -1.
</event>
<event>
 4    1  0.2889985E+000  0.2432760E+03  0.7818608E-02  0.1117629E+00
         21   -1    0    0  501  502  0.00000000000E+00  0.00000000000E+00  0.40147303234E+03  0.40147303234E+03  0.00000000000E+00 0. -1.
         21   -1    0    0  502  503 -0.00000000000E+00 -0.00000000000E+00 -0.39805108041E+03  0.39805108041E+03  0.00000000000E+00 0.  1.
          6    1    1    2  501    0 -0.13219788378E+03 -0.11010426474E+03  0.31892602601E+03  0.40111973232E+03  0.17200000000E+03 0. -1.
         -6    1    1    2    0  503  0.13219788378E+03  0.11010426474E+03 -0.31550407407E+03  0.39840438043E+03  0.17200000000E+03 0.  1.
</event>
<event>
 4    1  0.2889985E+000  0.2545762E+03  0.7818608E-02  0.1110446E+00
         21   -1    0    0  501  502  0.00000000000E+00  0.00000000000E+00  0.18074265340E+03  0.18074265340E+03  0.00000000000E+00 0. -1.
         21   -1    0    0  502  503 -0.00000000000E+00 -0.00000000000E+00 -0.36102781949E+03  0.36102781949E+03  0.00000000000E+00 0. -1.
          6    1    1    2  501    0  0.15182326891E+03  0.11033915875E+03 -0.67795506696E+02  0.26344879135E+03  0.17200000000E+03 0. -1.
         -6    1    1    2    0  503 -0.15182326891E+03 -0.11033915875E+03 -0.11248965940E+03  0.27832168153E+03  0.17200000000E+03 0. -1.
</event>
<event>
 4    1  0.2889985E+000  0.2187171E+03  0.7818608E-02  0.1134843E+00
         21   -1    0    0  503  502  0.00000000000E+00  0.00000000000E+00  0.21179579051E+03  0.21179579051E+03  0.00000000000E+00 0. -1.
         21   -1    0    0  501  503 -0.00000000000E+00 -0.00000000000E+00 -0.23700104604E+03  0.23700104604E+03  0.00000000000E+00 0.  1.
          6    1    1    2  501    0  0.10260083961E+03  0.87899091508E+02 -0.61245246652E+02  0.22713027719E+03  0.17200000000E+03 0.  1.
         -6    1    1    2    0  502 -0.10260083961E+03 -0.87899091508E+02  0.36039991122E+02  0.22166655936E+03  0.17200000000E+03 0. -1.
</event>
<event>
 4    1  0.2889985E+000  0.1756298E+03  0.7818608E-02  0.1172101E+00
         21   -1    0    0  503  502  0.00000000000E+00  0.00000000000E+00  0.10412144212E+04  0.10412144212E+04  0.00000000000E+00 0. -1.
         21   -1    0    0  501  503 -0.00000000000E+00 -0.00000000000E+00 -0.47604157316E+02  0.47604157316E+02  0.00000000000E+00 0. -1.
          6    1    1    2  501    0 -0.16548085132E+01 -0.35483654950E+02  0.83137704640E+03  0.84972561539E+03  0.17200000000E+03 0. -1.
         -6    1    1    2    0  502  0.16548085132E+01  0.35483654950E+02  0.16223321746E+03  0.23909296311E+03  0.17200000000E+03 0. -1.
</event>
<event>
 4    1  0.2889985E+000  0.2109811E+03  0.7818608E-02  0.1140791E+00
         21   -1    0    0  503  502  0.00000000000E+00  0.00000000000E+00  0.19935053282E+03  0.19935053282E+03  0.00000000000E+00 0.  1.
         21   -1    0    0  501  503 -0.00000000000E+00 -0.00000000000E+00 -0.48745307667E+03  0.48745307667E+03  0.00000000000E+00 0. -1.
          6    1    1    2  501    0  0.87437756976E+02 -0.85344392579E+02 -0.39684833947E+03  0.44944591580E+03  0.17200000000E+03 0. -1.
         -6    1    1    2    0  502 -0.87437756976E+02  0.85344392579E+02  0.10874579561E+03  0.23735769369E+03  0.17200000000E+03 0.  1.
</event>
<event>
 4    1  0.2889985E+000  0.2728099E+03  0.7818608E-02  0.1099682E+00
         21   -1    0    0  501  502  0.00000000000E+00  0.00000000000E+00  0.12872758248E+03  0.12872758248E+03  0.00000000000E+00 0. -1.
         21   -1    0    0  502  503 -0.00000000000E+00 -0.00000000000E+00 -0.61283004970E+03  0.61283004970E+03  0.00000000000E+00 0. -1.
          6    1    1    2  501    0  0.13361825043E+03 -0.16427842881E+03 -0.15386165714E+03  0.31320703785E+03  0.17200000000E+03 0. -1.
         -6    1    1    2    0  503 -0.13361825043E+03  0.16427842881E+03 -0.33024081008E+03  0.42835059433E+03  0.17200000000E+03 0. -1.
</event>
<event>
 4    1  0.2889985E+000  0.1837160E+03  0.7818608E-02  0.1164254E+00
         21   -1    0    0  501  502  0.00000000000E+00  0.00000000000E+00  0.13210754461E+03  0.13210754461E+03  0.00000000000E+00 0.  1.
         21   -1    0    0  502  503 -0.00000000000E+00 -0.00000000000E+00 -0.32795575679E+03  0.32795575679E+03  0.00000000000E+00 0.  1.
          6    1    1    2  501    0  0.49710713281E+02 -0.41187709207E+02  0.10209181191E+02  0.18399948311E+03  0.17200000000E+03 0.  1.
         -6    1    1    2    0  503 -0.49710713281E+02  0.41187709207E+02 -0.20605739338E+03  0.27606381829E+03  0.17200000000E+03 0.  1.
</event>
<event>
 4    1  0.2889985E+000  0.1819206E+03  0.7818608E-02  0.1165957E+00
         21   -1    0    0  503  502  0.00000000000E+00  0.00000000000E+00  0.74362149569E+03  0.74362149569E+03  0.00000000000E+00 0. -1.
         21   -1    0    0  501  503 -0.00000000000E+00 -0.00000000000E+00 -0.88943204629E+02  0.88943204629E+02  0.00000000000E+00 0. -1.
          6    1    1    2  501    0 -0.40189941560E+02 -0.43541679461E+02  0.33094667118E+02  0.18490637156E+03  0.17200000000E+03 0. -1.
         -6    1    1    2    0  502  0.40189941560E+02  0.43541679461E+02  0.62158362394E+03  0.64765832875E+03  0.17200000000E+03 0. -1.
</event>
<event>
 4    1  0.2889985E+000  0.1898511E+03  0.7818608E-02  0.1158596E+00
         21   -1    0    0  503  502  0.00000000000E+00  0.00000000000E+00  0.19819301200E+03  0.19819301200E+03  0.00000000000E+00 0.  1.
         21   -1    0    0  501  503 -0.00000000000E+00 -0.00000000000E+00 -0.49814059309E+03  0.49814059309E+03  0.00000000000E+00 0. -1.
          6    1    1    2  501    0  0.70774418454E+02 -0.38084551896E+02 -0.42739995736E+03  0.46766887319E+03  0.17200000000E+03 0. -1.
         -6    1    1    2    0  502 -0.70774418454E+02  0.38084551896E+02  0.12745237627E+03  0.22866473191E+03  0.17200000000E+03 0.  1.
</event>
<event>
 4    1  0.2889985E+000  0.2669974E+03  0.7818608E-02  0.1103010E+00
         21   -1    0    0  503  502  0.00000000000E+00  0.00000000000E+00  0.26575997133E+03  0.26575997133E+03  0.00000000000E+00 0.  1.
         21   -1    0    0  501  503 -0.00000000000E+00 -0.00000000000E+00 -0.36844119283E+03  0.36844119283E+03  0.00000000000E+00 0.  1.
          6    1    1    2  501    0 -0.13000648444E+03  0.15748631486E+03 -0.21670728932E+03  0.34387450415E+03  0.17200000000E+03 0.  1.
         -6    1    1    2    0  502  0.13000648444E+03 -0.15748631486E+03  0.11402606782E+03  0.29032666000E+03  0.17200000000E+03 0.  1.
</event>
<event>
 4    1  0.2889985E+000  0.1743853E+03  0.7818608E-02  0.1173350E+00
         21   -1    0    0  501  502  0.00000000000E+00  0.00000000000E+00  0.35025372354E+03  0.35025372354E+03  0.00000000000E+00 0. -1.
         21   -1    0    0  502  503 -0.00000000000E+00 -0.00000000000E+00 -0.99832017927E+02  0.99832017927E+02  0.00000000000E+00 0. -1.
          6    1    1    2  501    0 -0.24303288303E+02  0.15348382720E+02  0.20644633171E+03  0.27024120809E+03  0.17200000000E+03 0. -1.
         -6    1    1    2    0  503  0.24303288303E+02 -0.15348382720E+02  0.43975373899E+02  0.17984453337E+03  0.17200000000E+03 0. -1.
</event>
<event>
 4    1  0.2889985E+000  0.2422405E+03  0.7818608E-02  0.1118309E+00
         21   -1    0    0  503  502  0.00000000000E+00  0.00000000000E+00  0.15328206172E+04  0.15328206172E+04  0.00000000000E+00 0.  1.
         21   -1    0    0  501  503 -0.00000000000E+00 -0.00000000000E+00 -0.15809754023E+03  0.15809754023E+03  0.00000000000E+00 0.  1.
          6    1    1    2  501    0  0.11193868926E+03  0.12870962182E+03 -0.48651368998E+02  0.24707770561E+03  0.17200000000E+03 0.  1.
         -6    1    1    2    0  502 -0.11193868926E+03 -0.12870962182E+03  0.14233744460E+04  0.14438404518E+04  0.17200000000E+03 0.  1.
</event>
<event>
 4    1  0.2889985E+000  0.2225695E+03  0.7818608E-02  0.1131982E+00
         21   -1    0    0  503  502  0.00000000000E+00  0.00000000000E+00  0.30758779254E+03  0.30758779254E+03  0.00000000000E+00 0.  1.
         21   -1    0    0  501  503 -0.00000000000E+00 -0.00000000000E+00 -0.16773412664E+03  0.16773412664E+03  0.00000000000E+00 0.  1.
          6    1    1    2  501    0  0.13952186767E+03 -0.22064298071E+02  0.22486096430E+02  0.22370250186E+03  0.17200000000E+03 0.  1.
         -6    1    1    2    0  502 -0.13952186767E+03  0.22064298071E+02  0.11736756948E+03  0.25161941732E+03  0.17200000000E+03 0.  1.
</event>
<event>
 4    1  0.2889985E+000  0.3177825E+03  0.7818608E-02  0.1076674E+00
         21   -1    0    0  503  502  0.00000000000E+00  0.00000000000E+00  0.27013437640E+03  0.27013437640E+03  0.00000000000E+00 0. -1.
         21   -1    0    0  501  503 -0.00000000000E+00 -0.00000000000E+00 -0.52703944948E+03  0.52703944948E+03  0.00000000000E+00 0.  1.
          6    1    1    2  501    0  0.23838546565E+03  0.12072331207E+03 -0.34335274077E+03  0.46784276515E+03  0.17200000000E+03 0.  1.
         -6    1    1    2    0  502 -0.23838546565E+03 -0.12072331207E+03  0.86447667691E+02  0.32933106073E+03  0.17200000000E+03 0. -1.
</event>
<event>
 4    1  0.2889985E+000  0.2468015E+03  0.7818608E-02  0.1115343E+00
         21   -1    0    0  503  502  0.00000000000E+00  0.00000000000E+00  0.19006421364E+03  0.19006421364E+03  0.00000000000E+00 0. -1.
         21   -1    0    0  501  503 -0.00000000000E+00 -0.00000000000E+00 -0.55675195030E+03  0.55675195030E+03  0.00000000000E+00 0.  1.
          6    1    1    2  501    0 -0.17665130722E+03 -0.11012412330E+02 -0.42659949578E+03  0.49284692083E+03  0.17200000000E+03 0.  1.
         -6    1    1    2    0  502  0.17665130722E+03  0.11012412330E+02  0.59911759114E+02  0.25396924312E+03  0.17200000000E+03 0. -1.
</event>
<event>
 4    1  0.2889985E+000  0.2425098E+03  0.7818608E-02  0.1118132E+00
         21   -1    0    0  503  502  0.00000000000E+00  0.00000000000E+00  0.59783814715E+03  0.59783814715E+03  0.00000000000E+00 0. -1.
         21   -1    0    0  501  503 -0.00000000000E+00 -0.00000000000E+00 -0.11476227380E+03  0.11476227380E+03  0.00000000000E+00 0. -1.
          6    1    1    2  501    0 -0.34420298527E+02 -0.16745816279E+03  0.37618579138E+03  0.44757875605E+03  0.17200000000E+03 0. -1.
         -6    1    1    2    0  502  0.34420298527E+02  0.16745816279E+03  0.10689008197E+03  0.26502166489E+03  0.17200000000E+03 0. -1.
</event>
<event>
 4    1  0.2889985E+000  0.1853499E+03  0.7818608E-02  0.1162724E+00
         21   -1    0    0  501  502  0.00000000000E+00  0.00000000000E+00  0.42949124383E+03  0.42949124383E+03  0.00000000000E+00 0.  1.
         21   -1    0    0  502  503 -0.00000000000E+00 -0.00000000000E+00 -0.10494184520E+03  0.10494184520E+03  0.00000000000E+00 0.  1.
          6    1    1    2  501    0  0.62371502784E+02  0.29671005423E+02  0.29257609752E+03  0.34634570268E+03  0.17200000000E+03 0.  1.
         -6    1    1    2    0  503 -0.62371502784E+02 -0.29671005423E+02  0.31973301104E+02  0.18808738635E+03  0.17200000000E+03 0.  1.
</event>
<event>
 4    1  0.2889985E+000  0.1807779E+03  0.7818608E-02  0.1167052E+00
         21   -1    0    0  501  502  0.00000000000E+00  0.00000000000E+00  0.39958072843E+03  0.39958072843E+03  0.00000000000E+00 0. -1.
         21   -1    0    0  502  503 -0.00000000000E+00 -0.00000000000E+00 -0.82167072663E+02  0.82167072663E+02  0.00000000000E+00 0. -1.
          6    1    1    2  501    0  0.23177239736E+02  0.50591215576E+02  0.14233245843E+03  0.23008516740E+03  0.17200000000E+03 0. -1.
         -6    1    1    2    0  503 -0.23177239736E+02 -0.50591215576E+02  0.17508119733E+03  0.25166263369E+03  0.17200000000E+03 0. -1.
</event>
<event>
 4    1  0.2889985E+000  0.2068830E+03  0.7818608E-02  0.1144058E+00
         21   -1    0    0  503  502  0.00000000000E+00  0.00000000000E+00  0.45511267784E+03  0.45511267784E+03  0.00000000000E+00 0. -1.
         21   -1    0    0  501  503 -0.00000000000E+00 -0.00000000000E+00 -0.10039689473E+03  0.10039689473E+03  0.00000000000E+00 0. -1.
          6    1    1    2  501    0 -0.45569904778E+02 -0.10554590933E+03  0.10748771224E+03  0.23313979386E+03  0.17200000000E+03 0. -1.
         -6    1    1    2    0  502  0.45569904778E+02  0.10554590933E+03  0.24722807087E+03  0.32236977871E+03  0.17200000000E+03 0. -1.
</event>
<event>
 4    1  0.2889985E+000  0.2107084E+03  0.7818608E-02  0.1141006E+00
         21   -1    0    0  501  502  0.00000000000E+00  0.00000000000E+00  0.19153240379E+04  0.19153240379E+04  0.00000000000E+00 0.  1.
         21   -1    0    0  502  503 -0.00000000000E+00 -0.00000000000E+00 -0.30737724814E+02  0.30737724814E+02  0.00000000000E+00 0. -1.
          6    1    1    2  501    0  0.75228324196E+02 -0.95680452196E+02  0.14247669441E+04  0.14402634810E+04  0.17200000000E+03 0. -1.
         -6    1    1    2    0  503 -0.75228324196E+02  0.95680452196E+02  0.45981936899E+03  0.50579828172E+03  0.17200000000E+03 0. -1.
</event>
<event>
 4    1  0.2889985E+000  0.2620207E+03  0.7818608E-02  0.1105935E+00
         21   -1    0    0  503  502  0.00000000000E+00  0.00000000000E+00  0.93023889511E+02  0.93023889511E+02  0.00000000000E+00 0. -1.
         21   -1    0    0  501  503 -0.00000000000E+00 -0.00000000000E+00 -0.10494449206E+04  0.10494449206E+04  0.00000000000E+00 0.  1.
          6    1    1    2  501    0  0.13845697952E+03  0.14106915994E+03 -0.16703810957E+03  0.31073553565E+03  0.17200000000E+03 0. -1.
         -6    1    1    2    0  502 -0.13845697952E+03 -0.14106915994E+03 -0.78938292150E+03  0.83173327444E+03  0.17200000000E+03 0.  1.
</event>
<event>
 4    1  0.2889985E+000  0.1913192E+03  0.7818608E-02  0.1157277E+00
         21   -1    0    0  501  502  0.00000000000E+00  0.00000000000E+00  0.66820389036E+02  0.66820389036E+02  0.00000000000E+00 0.  1.
         21   -1    0    0  502  503 -0.00000000000E+00 -0.00000000000E+00 -0.56794772231E+03  0.56794772231E+03  0.00000000000E+00 0.  1.
          6    1    1    2  501    0  0.83397647237E+02  0.79915940815E+01 -0.19075921705E+03  0.27017052399E+03  0.17200000000E+03 0.  1.
         -6    1    1    2    0  503 -0.83397647237E+02 -0.79915940815E+01 -0.31036811622E+03  0.36459758735E+03  0.17200000000E+03 0.  1.
</event>
<event>
 4    1  0.2889985E+000  0.3784193E+03  0.7818608E-02  0.1051520E+00
         21   -1    0    0  503  502  0.00000000000E+00  0.00000000000E+00  0.15611392880E+03  0.15611392880E+03  0.00000000000E+00 0. -1.
         21   -1    0    0  501  503 -0.00000000000E+00 -0.00000000000E+00 -0.13270267681E+04  0.13270267681E+04  0.00000000000E+00 0.  1.
          6    1    1    2  501    0 -0.32777037841E+03 -0.78636930489E+02 -0.99752251039E+03  0.10668890976E+04  0.17200000000E+03 0.  1.
         -6    1    1    2    0  502  0.32777037841E+03  0.78636930489E+02 -0.17339032895E+03  0.41625159936E+03  0.17200000000E+03 0. -1.
</event>
<event>
 4    1  0.2889985E+000  0.2025299E+03  0.7818608E-02  0.1147622E+00
         21   -1    0    0  503  502  0.00000000000E+00  0.00000000000E+00  0.10327235625E+03  0.10327235625E+03  0.00000000000E+00 0.  1.
         21   -1    0    0  501  503 -0.00000000000E+00 -0.00000000000E+00 -0.44898166591E+03  0.44898166591E+03  0.00000000000E+00 0. -1.
          6    1    1    2  501    0 -0.83766321580E+02  0.66464870507E+02 -0.26664100004E+03  0.33483697308E+03  0.17200000000E+03 0. -1.
         -6    1    1    2    0  502  0.83766321580E+02 -0.66464870507E+02 -0.79068309625E+02  0.21741704908E+03  0.17200000000E+03 0.  1.
</event>
<event>
 4    1  0.2889985E+000  0.2083483E+03  0.7818608E-02  0.1142881E+00
         21   -1    0    0  503  502  0.00000000000E+00  0.00000000000E+00  0.70656902219E+03  0.70656902219E+03  0.00000000000E+00 0. -1.
         21   -1    0    0  501  503 -0.00000000000E+00 -0.00000000000E+00 -0.19997241984E+03  0.19997241984E+03  0.00000000000E+00 0. -1.
          6    1    1    2  501    0  0.52519455529E+02 -0.10519847498E+03 -0.12397325900E+03  0.24244253194E+03  0.17200000000E+03 0. -1.
         -6    1    1    2    0  502 -0.52519455529E+02  0.10519847498E+03  0.63056986134E+03  0.66409891009E+03  0.17200000000E+03 0. -1.
</event>
<event>
 4    1  0.2889985E+000  0.1764750E+03  0.7818608E-02  0.1171259E+00
         21   -1    0    0  503  502  0.00000000000E+00  0.00000000000E+00  0.13242028804E+03  0.13242028804E+03  0.00000000000E+00 0.  1.
         21   -1    0    0  501  503 -0.00000000000E+00 -0.00000000000E+00 -0.23674719845E+03  0.23674719845E+03  0.00000000000E+00 0.  1.
          6    1    1    2  501    0  0.11307864457E+02  0.37835724674E+02 -0.37174633999E+02  0.18034789512E+03  0.17200000000E+03 0.  1.
         -6    1    1    2    0  502 -0.11307864457E+02 -0.37835724674E+02 -0.67152276403E+02  0.18881959137E+03  0.17200000000E+03 0.  1.
</event>
<event>
 4    1  0.2889985E+000  0.2841907E+03  0.7818608E-02  0.1093422E+00
         21   -1    0    0  503  502  0.00000000000E+00  0.00000000000E+00  0.36325010689E+03  0.36325010689E+03  0.00000000000E+00 0. -1.
         21   -1    0    0  501  503 -0.00000000000E+00 -0.00000000000E+00 -0.23309138858E+03  0.23309138858E+03  0.00000000000E+00 0.  1.
          6    1    1    2  501    0  0.22288920897E+03  0.38739604414E+02  0.10363722470E+01  0.28419259401E+03  0.17200000000E+03 0. -1.
         -6    1    1    2    0  502 -0.22288920897E+03 -0.38739604414E+02  0.12912234607E+03  0.31214890145E+03  0.17200000000E+03 0. -1.
</event>
<event>
 4    1  0.2889985E+000  0.3081853E+03  0.7818608E-02  0.1081219E+00
         21   -1    0    0  503  502  0.00000000000E+00  0.00000000000E+00  0.29745211084E+03  0.29745211084E+03  0.00000000000E+00 0.  1.
         21   -1    0    0  501  503 -0.00000000000E+00 -0.00000000000E+00 -0.38718993253E+03  0.38718993253E+03  0.00000000000E+00 0. -1.
          6    1    1    2  501    0 -0.88417622309E+02  0.23995106694E+03 -0.18820501971E+03  0.36110846003E+03  0.17200000000E+03 0.  1.
         -6    1    1    2    0  502  0.88417622309E+02 -0.23995106694E+03  0.98467198016E+02  0.32353358334E+03  0.17200000000E+03 0.  1.
</event>
<event>
 4    1  0.2889985E+000  0.2050147E+03  0.7818608E-02  0.1145576E+00
         21   -1    0    0  501  502  0.00000000000E+00  0.00000000000E+00  0.15424230033E+04  0.15424230033E+04  0.00000000000E+00 0.  1.
         21   -1    0    0  502  503 -0.00000000000E+00 -0.00000000000E+00 -0.59139830078E+02  0.59139830078E+02  0.00000000000E+00 0.  1.
          6    1    1    2  501    0  0.40128328684E+02 -0.10409975805E+03  0.13296722643E+04  0.13453844703E+04  0.17200000000E+03 0.  1.
         -6    1    1    2    0  503 -0.40128328684E+02  0.10409975805E+03  0.15361090893E+03  0.25617836312E+03  0.17200000000E+03 0.  1.
</event>
<event>
 4    1  0.2889985E+000  0.1730749E+03  0.7818608E-02  0.1174679E+00
         21   -1    0    0  501  502  0.00000000000E+00  0.00000000000E+00  0.55180112072E+03  0.55180112072E+03  0.00000000000E+00 0. -1.
         21   -1    0    0  502  503 -0.00000000000E+00 -0.00000000000E+00 -0.54524660895E+02  0.54524660895E+02  0.00000000000E+00 0. -1.
          6    1    1    2  501    0 -0.19170324962E+02 -0.18469978666E+01  0.22856863584E+03  0.28670286718E+03  0.17200000000E+03 0. -1.
         -6    1    1    2    0  503  0.19170324962E+02  0.18469978666E+01  0.26870782399E+03  0.31962291443E+03  0.17200000000E+03 0. -1.
</event>
<event>
 4    1  0.2889985E+000  0.2451406E+03  0.7818608E-02  0.1116415E+00
         21   -1    0    0  503  502  0.00000000000E+00  0.00000000000E+00  0.83318473971E+02  0.83318473971E+02  0.00000000000E+00 0. -1.
         21   -1    0    0  501  503 -0.00000000000E+00 -0.00000000000E+00 -0.10743639576E+04  0.10743639576E+04  0.00000000000E+00 0. -1.
          6    1    1    2  501    0  0.17206215611E+03 -0.30075096311E+02 -0.82736972213E+03  0.86292210198E+03  0.17200000000E+03 0. -1.
         -6    1    1    2    0  502 -0.17206215611E+03  0.30075096311E+02 -0.16367576145E+03  0.29476032954E+03  0.17200000000E+03 0. -1.
</event>
<event>
 4    1  0.2889985E+000  0.1806420E+03  0.7818608E-02  0.1167183E+00
         21   -1    0    0  501  502  0.00000000000E+00  0.00000000000E+00  0.15171913624E+03  0.15171913624E+03  0.00000000000E+00 0. -1.
         21   -1    0    0  502  503 -0.00000000000E+00 -0.00000000000E+00 -0.23783337422E+03  0.23783337422E+03  0.00000000000E+00 0. -1.
          6    1    1    2  501    0 -0.51693676807E+02 -0.19372999739E+02  0.17189857155E+02  0.18145809580E+03  0.17200000000E+03 0. -1.
         -6    1    1    2    0  503  0.51693676807E+02  0.19372999739E+02 -0.10330409514E+03  0.20809441466E+03  0.17200000000E+03 0. -1.
</event>
<event>
 4    1  0.2889985E+000  0.2263458E+03  0.7818608E-02  0.1129239E+00
         21   -1    0    0  503  502  0.00000000000E+00  0.00000000000E+00  0.75913166991E+03  0.75913166991E+03  0.00000000000E+00 0. -1.
         21   -1    0    0  501  503 -0.00000000000E+00 -0.00000000000E+00 -0.70121502465E+02  0.70121502465E+02  0.00000000000E+00 0.  1.
          6    1    1    2  501    0 -0.48501414459E+02 -0.13891008744E+03  0.42485495976E+03  0.48138771944E+03  0.17200000000E+03 0. -1.
         -6    1    1    2    0  502  0.48501414459E+02  0.13891008744E+03  0.26415520769E+03  0.34786545293E+03  0.17200000000E+03 0. -1.
</event>
<event>
 4    1  0.2889985E+000  0.1748728E+03  0.7818608E-02  0.1172860E+00
         21   -1    0    0  501  502  0.00000000000E+00  0.00000000000E+00  0.11992995868E+03  0.11992995868E+03  0.00000000000E+00 0. -1.
         21   -1    0    0  502  503 -0.00000000000E+00 -0.00000000000E+00 -0.59393386529E+03  0.59393386529E+03  0.00000000000E+00 0. -1.
          6    1    1    2  501    0 -0.31565443599E+02 -0.32705027643E+00  0.32637016153E+02  0.17789226800E+03  0.17200000000E+03 0. -1.
         -6    1    1    2    0  503  0.31565443599E+02  0.32705027643E+00 -0.50664092277E+03  0.53597155597E+03  0.17200000000E+03 0. -1.
</event>
<event>
 4    1  0.2889985E+000  0.2221641E+03  0.7818608E-02  0.1132280E+00
         21   -1    0    0  501  502  0.00000000000E+00  0.00000000000E+00  0.86987463847E+03  0.86987463847E+03  0.00000000000E+00 0. -1.
         21   -1    0    0  502  503 -0.00000000000E+00 -0.00000000000E+00 -0.71052725131E+02  0.71052725131E+02  0.00000000000E+00 0.  1.
          6    1    1    2  501    0  0.13484265319E+03  0.39879059858E+02  0.61056214168E+03  0.64972533380E+03  0.17200000000E+03 0.  1.
         -6    1    1    2    0  503 -0.13484265319E+03 -0.39879059858E+02  0.18825977166E+03  0.29120202980E+03  0.17200000000E+03 0.  1.
</event>
<event>
 4    1  0.2889985E+000  0.2037693E+03  0.7818608E-02  0.1146597E+00
         21   -1    0    0  503  502  0.00000000000E+00  0.00000000000E+00  0.16736822236E+04  0.16736822236E+04  0.00000000000E+00 0.  1.
         21   -1    0    0  501  503 -0.00000000000E+00 -0.00000000000E+00 -0.24987885909E+02  0.24987885909E+02  0.00000000000E+00 0.  1.
          6    1    1    2  501    0 -0.78635141813E+02 -0.75858018976E+02  0.75242975278E+03  0.77953348705E+03  0.17200000000E+03 0.  1.
         -6    1    1    2    0  502  0.78635141813E+02  0.75858018976E+02  0.89626458495E+03  0.91913662250E+03  0.17200000000E+03 0.  1.
</event>
<event>
 4    1  0.2889985E+000  0.2138367E+03  0.7818608E-02  0.1138563E+00
         21   -1    0    0  503  502  0.00000000000E+00  0.00000000000E+00  0.12624014686E+03  0.12624014686E+03  0.00000000000E+00 0. -1.
         21   -1    0    0  501  503 -0.00000000000E+00 -0.00000000000E+00 -0.36619725644E+03  0.36619725644E+03  0.00000000000E+00 0.  1.
          6    1    1    2  501    0  0.12626811055E+03  0.14088664591E+02 -0.14565328540E+03  0.25872959970E+03  0.17200000000E+03 0. -1.
         -6    1    1    2    0  502 -0.12626811055E+03 -0.14088664591E+02 -0.94303824185E+02  0.23370780361E+03  0.17200000000E+03 0. -1.
</event>
<event>
 4    1  0.2889985E+000  0.1982516E+03  0.7818608E-02  0.1151223E+00
         21   -1    0    0  503  502  0.00000000000E+00  0.00000000000E+00  0.45068975361E+03  0.45068975361E+03  0.00000000000E+00 0.  1.
         21   -1    0    0  501  503 -0.00000000000E+00 -0.00000000000E+00 -0.87224945508E+02  0.87224945508E+02  0.00000000000E+00 0.  1.
          6    1    1    2  501    0  0.32627018352E+02  0.93033276214E+02  0.17797400629E+03  0.26641782922E+03  0.17200000000E+03 0.  1.
         -6    1    1    2    0  502 -0.32627018352E+02 -0.93033276214E+02  0.18549080181E+03  0.27149686990E+03  0.17200000000E+03 0.  1.
</event>
<event>
 4    1  0.2889985E+000  0.1940737E+03  0.7818608E-02  0.1154838E+00
         21   -1    0    0  503  502  0.00000000000E+00  0.00000000000E+00  0.21904888200E+03  0.21904888200E+03  0.00000000000E+00 0.  1.
         21   -1    0    0  501  503 -0.00000000000E+00 -0.00000000000E+00 -0.17315956440E+03  0.17315956440E+03  0.00000000000E+00 0.  1.
          6    1    1    2  501    0 -0.48906374868E+02  0.75423949485E+02  0.65284301364E+01  0.19418348555E+03  0.17200000000E+03 0.  1.
         -6    1    1    2    0  502  0.48906374868E+02 -0.75423949485E+02  0.39360887470E+02  0.19802496085E+03  0.17200000000E+03 0.  1.
</event>
<event>
 4    1  0.2889985E+000  0.2277195E+03  0.7818608E-02  0.1128255E+00
         21   -1    0    0  501  502  0.00000000000E+00  0.00000000000E+00  0.67300661541E+03  0.67300661541E+03  0.00000000000E+00 0. -1.
         21   -1    0    0  502  503 -0.00000000000E+00 -0.00000000000E+00 -0.12334724693E+03  0.12334724693E+03  0.00000000000E+00 0. -1.
          6    1    1    2  501    0  0.14856655907E+03 -0.14147725739E+02  0.51876901784E+03  0.56654873973E+03  0.17200000000E+03 0. -1.
         -6    1    1    2    0  503 -0.14856655907E+03  0.14147725739E+02  0.30890350634E+02  0.22980512261E+03  0.17200000000E+03 0. -1.
</event>
<event>
 4    1  0.2889985E+000  0.2102042E+03  0.7818608E-02  0.1141404E+00
         21   -1    0    0  501  502  0.00000000000E+00  0.00000000000E+00  0.15244622128E+03  0.15244622128E+03  0.00000000000E+00 0.  1.
         21   -1    0    0  502  503 -0.00000000000E+00 -0.00000000000E+00 -0.83349847366E+03  0.83349847366E+03  0.00000000000E+00 0.  1.
          6    1    1    2  501    0 -0.78523645627E+02 -0.91846853349E+02  0.57609602794E+02  0.21795566918E+03  0.17200000000E+03 0. -1.
         -6    1    1    2    0  503  0.78523645627E+02  0.91846853349E+02 -0.73866185518E+03  0.76798902576E+03  0.17200000000E+03 0. -1.
</event>
<event>
 4    1  0.2889985E+000  0.1957223E+03  0.7818608E-02  0.1153399E+00
         21   -1    0    0  503  502  0.00000000000E+00  0.00000000000E+00  0.53144741544E+02  0.53144741544E+02  0.00000000000E+00 0. -1.
         21   -1    0    0  501  503 -0.00000000000E+00 -0.00000000000E+00 -0.81101943499E+03  0.81101943499E+03  0.00000000000E+00 0.  1.
          6    1    1    2  501    0  0.92520800058E+02 -0.12771662765E+02 -0.52304224990E+03  0.55846254037E+03  0.17200000000E+03 0. -1.
         -6    1    1    2    0  502 -0.92520800058E+02  0.12771662765E+02 -0.23483244354E+03  0.30570163616E+03  0.17200000000E+03 0. -1.
</event>
<event>
 4    1  0.2889985E+000  0.1906402E+03  0.7818608E-02  0.1157885E+00
         21   -1    0    0  501  502  0.00000000000E+00  0.00000000000E+00  0.82333053869E+02  0.82333053869E+02  0.00000000000E+00 0.  1.
         21   -1    0    0  502  503 -0.00000000000E+00 -0.00000000000E+00 -0.45211238707E+03  0.45211238707E+03  0.00000000000E+00 0.  1.
          6    1    1    2  501    0 -0.81979111332E+02 -0.62547265710E+01 -0.14380039992E+03  0.23879332344E+03  0.17200000000E+03 0. -1.
         -6    1    1    2    0  503  0.81979111332E+02  0.62547265710E+01 -0.22597893328E+03  0.29565211751E+03  0.17200000000E+03 0. -1.
</event>
<event>
 4    1  0.2889985E+000  0.1836219E+03  0.7818608E-02  0.1164343E+00
         21   -1    0    0  501  502  0.00000000000E+00  0.00000000000E+00  0.60666384762E+03  0.60666384762E+03  0.00000000000E+00 0.  1.
         21   -1    0    0  502  503 -0.00000000000E+00 -0.00000000000E+00 -0.76394984255E+02  0.76394984255E+02  0.00000000000E+00 0.  1.
          6    1    1    2  501    0 -0.64143115428E+02  0.43191658577E+01  0.44341643400E+03  0.47993242065E+03  0.17200000000E+03 0.  1.
         -6    1    1    2    0  503  0.64143115428E+02 -0.43191658577E+01  0.86852429367E+02  0.20312641123E+03  0.17200000000E+03 0.  1.
</event>
<event>
 4    1  0.2889985E+000  0.2479616E+03  0.7818608E-02  0.1114600E+00
         21   -1    0    0  501  502  0.00000000000E+00  0.00000000000E+00  0.13431222511E+04  0.13431222511E+04  0.00000000000E+00 0. -1.
         21   -1    0    0  502  503 -0.00000000000E+00 -0.00000000000E+00 -0.56215732400E+02  0.56215732400E+02  0.00000000000E+00 0. -1.
          6    1    1    2  501    0 -0.17855414621E+03 -0.44036539065E+01  0.94494410416E+03  0.97693619816E+03  0.17200000000E+03 0. -1.
         -6    1    1    2    0  503  0.17855414621E+03  0.44036539065E+01  0.34196241455E+03  0.42240178535E+03  0.17200000000E+03 0. -1.
</event>
<event>
 4    1  0.2889985E+000  0.2309518E+03  0.7818608E-02  0.1125972E+00
         21   -1    0    0  501  502  0.00000000000E+00  0.00000000000E+00  0.31726598588E+03  0.31726598588E+03  0.00000000000E+00 0. -1.
         21   -1    0    0  502  503 -0.00000000000E+00 -0.00000000000E+00 -0.18824760632E+03  0.18824760632E+03  0.00000000000E+00 0. -1.
          6    1    1    2  501    0 -0.68467848324E+02  0.13808291630E+03 -0.18139284133E+02  0.23166305631E+03  0.17200000000E+03 0. -1.
         -6    1    1    2    0  503  0.68467848324E+02 -0.13808291630E+03  0.14715766369E+03  0.27385053590E+03  0.17200000000E+03 0. -1.
</event>
<event>
 4    1  0.2889985E+000  0.1845238E+03  0.7818608E-02  0.1163495E+00
         21   -1    0    0  501  502  0.00000000000E+00  0.00000000000E+00  0.12403479453E+04  0.12403479453E+04  0.00000000000E+00 0. -1.
         21   -1    0    0  502  503 -0.00000000000E+00 -0.00000000000E+00 -0.27453146858E+02  0.27453146858E+02  0.00000000000E+00 0. -1.
          6    1    1    2  501    0 -0.61972500456E+02 -0.24988491152E+02  0.60108275384E+03  0.62876823431E+03  0.17200000000E+03 0.  1.
         -6    1    1    2    0  503  0.61972500456E+02  0.24988491152E+02  0.61181204465E+03  0.63903285790E+03  0.17200000000E+03 0.  1.
</event>
<event>
 4    1  0.2889985E+000  0.1762110E+03  0.7818608E-02  0.1171521E+00
         21   -1    0    0  501  502  0.00000000000E+00  0.00000000000E+00  0.18461079478E+03  0.18461079478E+03  0.00000000000E+00 0. -1.
         21   -1    0    0  502  503 -0.00000000000E+00 -0.00000000000E+00 -0.30417608070E+03  0.30417608070E+03  0.00000000000E+00 0. -1.
          6    1    1    2  501    0 -0.23462553357E+02 -0.30262752798E+02  0.10362363483E+03  0.20442158231E+03  0.17200000000E+03 0. -1.
         -6    1    1    2    0  503  0.23462553357E+02  0.30262752798E+02 -0.22318892075E+03  0.28436529318E+03  0.17200000000E+03 0. -1.
</event>
<event>
 4    1  0.2889985E+000  0.3017446E+03  0.7818608E-02  0.1084372E+00
         21   -1    0    0  503  502  0.00000000000E+00  0.00000000000E+00  0.52741895774E+03  0.52741895774E+03  0.00000000000E+00 0. -1.
         21   -1    0    0  501  503 -0.00000000000E+00 -0.00000000000E+00 -0.19383019695E+03  0.19383019695E+03  0.00000000000E+00 0. -1.
          6    1    1    2  501    0 -0.24363959886E+03  0.45886207055E+02  0.28605199765E+03  0.41578304858E+03  0.17200000000E+03 0. -1.
         -6    1    1    2    0  502  0.24363959886E+03 -0.45886207055E+02  0.47536763141E+02  0.30546610611E+03  0.17200000000E+03 0. -1.
</event>
<event>
 4    1  0.2889985E+000  0.2044590E+03  0.7818608E-02  0.1146031E+00
         21   -1    0    0  503  502  0.00000000000E+00  0.00000000000E+00  0.32144514801E+03  0.32144514801E+03  0.00000000000E+00 0.  1.
         21   -1    0    0  501  503 -0.00000000000E+00 -0.00000000000E+00 -0.13494820191E+03  0.13494820191E+03  0.00000000000E+00 0.  1.
          6    1    1    2  501    0  0.11053695216E+03 -0.10309684625E+01  0.49766659861E+02  0.21042861289E+03  0.17200000000E+03 0.  1.
         -6    1    1    2    0  502 -0.11053695216E+03  0.10309684625E+01  0.13673028624E+03  0.24596473703E+03  0.17200000000E+03 0.  1.
</event>
<event>
 4    1  0.2889985E+000  0.2599652E+03  0.7818608E-02  0.1107164E+00
         21   -1    0    0  501  502  0.00000000000E+00  0.00000000000E+00  0.48344333681E+02  0.48344333681E+02  0.00000000000E+00 0. -1.
         21   -1    0    0  502  503 -0.00000000000E+00 -0.00000000000E+00 -0.20294190810E+04  0.20294190810E+04  0.00000000000E+00 0. -1.
          6    1    1    2  501    0  0.17398239405E+03 -0.87909107669E+02 -0.41102337273E+03  0.48633537562E+03  0.17200000000E+03 0. -1.
         -6    1    1    2    0  503 -0.17398239405E+03  0.87909107669E+02 -0.15700513746E+04  0.15914280391E+04  0.17200000000E+03 0. -1.
</event>
<event>
 4    1  0.2889985E+000  0.2019267E+03  0.7818608E-02  0.1148124E+00
         21   -1    0    0  501  502  0.00000000000E+00  0.00000000000E+00  0.39948036479E+03  0.39948036479E+03  0.00000000000E+00 0.  1.
         21   -1    0    0  502  503 -0.00000000000E+00 -0.00000000000E+00 -0.21337568930E+03  0.21337568930E+03  0.00000000000E+00 0.  1.
          6    1    1    2  501    0  0.95716711324E+02 -0.45040943377E+02  0.31437075573E+03  0.37363531346E+03  0.17200000000E+03 0.  1.
         -6    1    1    2    0  503 -0.95716711324E+02  0.45040943377E+02 -0.12826608024E+03  0.23922074063E+03  0.17200000000E+03 0.  1.
</event>
<event>
 4    1  0.2889985E+000  0.2084881E+03  0.7818608E-02  0.1142769E+00
         21   -1    0    0  503  502  0.00000000000E+00  0.00000000000E+00  0.18733038728E+03  0.18733038728E+03  0.00000000000E+00 0.  1.
         21   -1    0    0  501  503 -0.00000000000E+00 -0.00000000000E+00 -0.64125862279E+03  0.64125862279E+03  0.00000000000E+00 0. -1.
          6    1    1    2  501    0 -0.95588317451E+00 -0.11782351748E+03 -0.55792194834E+03  0.59560405928E+03  0.17200000000E+03 0. -1.
         -6    1    1    2    0  502  0.95588317451E+00  0.11782351748E+03  0.10399371283E+03  0.23298495079E+03  0.17200000000E+03 0.  1.
</event>
<event>
 4    1  0.2889985E+000  0.2090536E+03  0.7818608E-02  0.1142318E+00
         21   -1    0    0  503  502  0.00000000000E+00  0.00000000000E+00  0.81100868328E+03  0.81100868328E+03  0.00000000000E+00 0. -1.
         21   -1    0    0  501  503 -0.00000000000E+00 -0.00000000000E+00 -0.22890802331E+03  0.22890802331E+03  0.00000000000E+00 0.  1.
          6    1    1    2  501    0  0.97649458732E+02  0.67705065073E+02 -0.16360500654E+03  0.26546184433E+03  0.17200000000E+03 0.  1.
         -6    1    1    2    0  502 -0.97649458732E+02 -0.67705065073E+02  0.74570566651E+03  0.77445486227E+03  0.17200000000E+03 0. -1.
</event>
<event>
 4    1  0.2889985E+000  0.3180511E+03  0.7818608E-02  0.1076550E+00
         21   -1    0    0  501  502  0.00000000000E+00  0.00000000000E+00  0.12228773326E+04  0.12228773326E+04  0.00000000000E+00 0.  1.
         21   -1    0    0  502  503 -0.00000000000E+00 -0.00000000000E+00 -0.85608531953E+02  0.85608531953E+02  0.00000000000E+00 0.  1.
          6    1    1    2  501    0  0.79382995245E+02  0.25548154020E+03  0.44845911943E+03  0.54979274197E+03  0.17200000000E+03 0.  1.
         -6    1    1    2    0  503 -0.79382995245E+02 -0.25548154020E+03  0.68880968119E+03  0.75869312256E+03  0.17200000000E+03 0.  1.
</event>
<event>
 4    1  0.2889985E+000  0.2492424E+03  0.7818608E-02  0.1113785E+00
         21   -1    0    0  501  502  0.00000000000E+00  0.00000000000E+00  0.43849213159E+03  0.43849213159E+03  0.00000000000E+00 0. -1.
         21   -1    0    0  502  503 -0.00000000000E+00 -0.00000000000E+00 -0.15635429829E+03  0.15635429829E+03  0.00000000000E+00 0. -1.
          6    1    1    2  501    0 -0.51154436113E+02 -0.17297688090E+03  0.23221256387E+03  0.34065297956E+03  0.17200000000E+03 0. -1.
         -6    1    1    2    0  503  0.51154436113E+02  0.17297688090E+03  0.49925269430E+02  0.25419345032E+03  0.17200000000E+03 0. -1.
</event>
<event>
 4    1  0.2889985E+000  0.2252492E+03  0.7818608E-02  0.1130029E+00
         21   -1    0    0  503  502  0.00000000000E+00  0.00000000000E+00  0.69451535391E+02  0.69451535391E+02  0.00000000000E+00 0.  1.
         21   -1    0    0  501  503 -0.00000000000E+00 -0.00000000000E+00 -0.11253429334E+04  0.11253429334E+04  0.00000000000E+00 0. -1.
          6    1    1    2  501    0  0.12752355409E+03 -0.69935315331E+02 -0.88178845700E+03  0.91010333923E+03  0.17200000000E+03 0. -1.
         -6    1    1    2    0  502 -0.12752355409E+03  0.69935315331E+02 -0.17410294099E+03  0.28469112954E+03  0.17200000000E+03 0.  1.
</event>
<event>
 4    1  0.2889985E+000  0.1735067E+03  0.7818608E-02  0.1174240E+00
         21   -1    0    0  503  502  0.00000000000E+00  0.00000000000E+00  0.29213047642E+03  0.29213047642E+03  0.00000000000E+00 0. -1.
         21   -1    0    0  501  503 -0.00000000000E+00 -0.00000000000E+00 -0.13106701669E+03  0.13106701669E+03  0.00000000000E+00 0. -1.
          6    1    1    2  501    0  0.22596433903E+02 -0.31570559409E+01 -0.17296349050E+02  0.17436665254E+03  0.17200000000E+03 0. -1.
         -6    1    1    2    0  502 -0.22596433903E+02  0.31570559409E+01  0.17835980878E+03  0.24883084056E+03  0.17200000000E+03 0. -1.
</event>
<event>
 4    1  0.2889985E+000  0.2150207E+03  0.7818608E-02  0.1137651E+00
         21   -1    0    0  503  502  0.00000000000E+00  0.00000000000E+00  0.31041261505E+03  0.31041261505E+03  0.00000000000E+00 0.  1.
         21   -1    0    0  501  503 -0.00000000000E+00 -0.00000000000E+00 -0.50020442693E+03  0.50020442693E+03  0.00000000000E+00 0.  1.
          6    1    1    2  501    0  0.10745723104E+03  0.71434305229E+02 -0.43454224649E+03  0.48483077506E+03  0.17200000000E+03 0.  1.
         -6    1    1    2    0  502 -0.10745723104E+03 -0.71434305229E+02  0.24475043461E+03  0.32578626691E+03  0.17200000000E+03 0.  1.
</event>
<event>
 4    1  0.2889985E+000  0.1795116E+03  0.7818608E-02  0.1168277E+00
         21   -1    0    0  501  502  0.00000000000E+00  0.00000000000E+00  0.10069218021E+04  0.10069218021E+04  0.00000000000E+00 0. -1.
         21   -1    0    0  502  503 -0.00000000000E+00 -0.00000000000E+00 -0.40442209655E+02  0.40442209655E+02  0.00000000000E+00 0. -1.
          6    1    1    2  501    0 -0.21071778589E+02 -0.46865725229E+02  0.72246322876E+03  0.74443101290E+03  0.17200000000E+03 0. -1.
         -6    1    1    2    0  503  0.21071778589E+02  0.46865725229E+02  0.24401636371E+03  0.30293299889E+03  0.17200000000E+03 0. -1.
</event>
<event>
 4    1  0.2889985E+000  0.2123439E+03  0.7818608E-02  0.1139723E+00
         21   -1    0    0  503  502  0.00000000000E+00  0.00000000000E+00  0.22653813372E+03  0.22653813372E+03  0.00000000000E+00 0.  1.
         21   -1    0    0  501  503 -0.00000000000E+00 -0.00000000000E+00 -0.36313028622E+03  0.36313028622E+03  0.00000000000E+00 0.  1.
          6    1    1    2  501    0  0.90727378042E+02  0.85290639619E+02 -0.26648950055E+03  0.34074419179E+03  0.17200000000E+03 0.  1.
         -6    1    1    2    0  502 -0.90727378042E+02 -0.85290639619E+02  0.12989734805E+03  0.24892422816E+03  0.17200000000E+03 0.  1.
</event>
<event>
 4    1  0.2889985E+000  0.1915617E+03  0.7818608E-02  0.1157060E+00
         21   -1    0    0  501  502  0.00000000000E+00  0.00000000000E+00  0.10915684633E+03  0.10915684633E+03  0.00000000000E+00 0. -1.
         21   -1    0    0  502  503 -0.00000000000E+00 -0.00000000000E+00 -0.35643694849E+03  0.35643694849E+03  0.00000000000E+00 0. -1.
          6    1    1    2  501    0 -0.64242663543E+02 -0.54632920821E+02 -0.17914340940E+03  0.26227511698E+03  0.17200000000E+03 0. -1.
         -6    1    1    2    0  503  0.64242663543E+02  0.54632920821E+02 -0.68136692765E+02  0.20331867784E+03  0.17200000000E+03 0. -1.
</event>
<event>
 4    1  0.2889985E+000  0.3827668E+03  0.7818608E-02  0.1049916E+00
         21   -1    0    0  503  502  0.00000000000E+00  0.00000000000E+00  0.83687204462E+03  0.83687204462E+03  0.00000000000E+00 0. -1.
         21   -1    0    0  501  503 -0.00000000000E+00 -0.00000000000E+00 -0.21480118841E+03  0.21480118841E+03  0.00000000000E+00 0.  1.
          6    1    1    2  501    0  0.29149732729E+03 -0.17876175909E+03  0.84882073839E+02  0.39206558736E+03  0.17200000000E+03 0.  1.
         -6    1    1    2    0  502 -0.29149732729E+03  0.17876175909E+03  0.53718878237E+03  0.65960764568E+03  0.17200000000E+03 0. -1.
</event>
<event>
 4    1  0.2889985E+000  0.1894740E+03  0.7818608E-02  0.1158937E+00
         21   -1    0    0  501  502  0.00000000000E+00  0.00000000000E+00  0.15374365520E+03  0.15374365520E+03  0.00000000000E+00 0. -1.
         21   -1    0    0  502  503 -0.00000000000E+00 -0.00000000000E+00 -0.28722412049E+03  0.28722412049E+03  0.00000000000E+00 0. -1.
          6    1    1    2  501    0 -0.25293885321E+02 -0.75343322742E+02  0.28609198524E+02  0.19162171891E+03  0.17200000000E+03 0. -1.
         -6    1    1    2    0  503  0.25293885321E+02  0.75343322742E+02 -0.16208966382E+03  0.24934605678E+03  0.17200000000E+03 0. -1.
</event>
<event>
 4    1  0.2889985E+000  0.1801299E+03  0.7818608E-02  0.1167677E+00
         21   -1    0    0  501  502  0.00000000000E+00  0.00000000000E+00  0.33309299880E+03  0.33309299880E+03  0.00000000000E+00 0. -1.
         21   -1    0    0  502  503 -0.00000000000E+00 -0.00000000000E+00 -0.12900741953E+03  0.12900741953E+03  0.00000000000E+00 0.  1.
          6    1    1    2  501    0 -0.64735870843E+01  0.53111910436E+02 -0.12303174561E+02  0.18054957896E+03  0.17200000000E+03 0.  1.
         -6    1    1    2    0  503  0.64735870843E+01 -0.53111910436E+02  0.21638875383E+03  0.28155083936E+03  0.17200000000E+03 0. -1.
</event>
<event>
 4    1  0.2889985E+000  0.2603427E+03  0.7818608E-02  0.1106937E+00
         21   -1    0    0  503  502  0.00000000000E+00  0.00000000000E+00  0.34480214920E+03  0.34480214920E+03  0.00000000000E+00 0.  1.
         21   -1    0    0  501  503 -0.00000000000E+00 -0.00000000000E+00 -0.24417632624E+03  0.24417632624E+03  0.00000000000E+00 0.  1.
          6    1    1    2  501    0 -0.18978567903E+03  0.46644726589E+02 -0.79716729780E+02  0.27227392730E+03  0.17200000000E+03 0.  1.
         -6    1    1    2    0  502  0.18978567903E+03 -0.46644726589E+02  0.18034255273E+03  0.31670454813E+03  0.17200000000E+03 0.  1.
</event>
<event>
 4    1  0.2889985E+000  0.1775560E+03  0.7818608E-02  0.1170190E+00
         21   -1    0    0  501  502  0.00000000000E+00  0.00000000000E+00  0.15962909890E+03  0.15962909890E+03  0.00000000000E+00 0.  1.
         21   -1    0    0  502  503 -0.00000000000E+00 -0.00000000000E+00 -0.24348183398E+03  0.24348183398E+03  0.00000000000E+00 0.  1.
          6    1    1    2  501    0  0.43061946000E+02  0.93697538498E+01  0.45667336181E+02  0.18333474595E+03  0.17200000000E+03 0.  1.
         -6    1    1    2    0  503 -0.43061946000E+02 -0.93697538498E+01 -0.12952007126E+03  0.21977618693E+03  0.17200000000E+03 0.  1.
</event>
<event>
 4    1  0.2889985E+000  0.1874234E+03  0.7818608E-02  0.1160806E+00
         21   -1    0    0  503  502  0.00000000000E+00  0.00000000000E+00  0.70813049204E+03  0.70813049204E+03  0.00000000000E+00 0. -1.
         21   -1    0    0  501  503 -0.00000000000E+00 -0.00000000000E+00 -0.51599630494E+02  0.51599630494E+02  0.00000000000E+00 0. -1.
          6    1    1    2  501    0 -0.41808345875E+01  0.74337540830E+02  0.25359922959E+03  0.31534127323E+03  0.17200000000E+03 0. -1.
         -6    1    1    2    0  502  0.41808345875E+01 -0.74337540830E+02  0.40293163195E+03  0.44438884930E+03  0.17200000000E+03 0. -1.
</event>
<event>
 4    1  0.2889985E+000  0.2688523E+03  0.7818608E-02  0.1101938E+00
         21   -1    0    0  503  502  0.00000000000E+00  0.00000000000E+00  0.12344409867E+03  0.12344409867E+03  0.00000000000E+00 0. -1.
         21   -1    0    0  501  503 -0.00000000000E+00 -0.00000000000E+00 -0.94779932677E+03  0.94779932677E+03  0.00000000000E+00 0. -1.
          6    1    1    2  501    0 -0.18556657281E+03 -0.90898752016E+02 -0.74331588933E+03  0.79044294380E+03  0.17200000000E+03 0.  1.
         -6    1    1    2    0  502  0.18556657281E+03  0.90898752016E+02 -0.81039338770E+02  0.28080048164E+03  0.17200000000E+03 0.  1.
</event>
<event>
 4    1  0.2889985E+000  0.1901478E+03  0.7818608E-02  0.1158328E+00
         21   -1    0    0  501  502  0.00000000000E+00  0.00000000000E+00  0.54378021213E+02  0.54378021213E+02  0.00000000000E+00 0.  1.
         21   -1    0    0  502  503 -0.00000000000E+00 -0.00000000000E+00 -0.66490445117E+03  0.66490445117E+03  0.00000000000E+00 0.  1.
          6    1    1    2  501    0  0.42420409563E+02 -0.69084558086E+02 -0.30553754147E+03  0.35987408431E+03  0.17200000000E+03 0. -1.
         -6    1    1    2    0  503 -0.42420409563E+02  0.69084558086E+02 -0.30498888848E+03  0.35940838807E+03  0.17200000000E+03 0. -1.
</event>
<event>
 4    1  0.2889985E+000  0.1955946E+03  0.7818608E-02  0.1153510E+00
         21   -1    0    0  503  502  0.00000000000E+00  0.00000000000E+00  0.77855957088E+02  0.77855957088E+02  0.00000000000E+00 0. -1.
         21   -1    0    0  501  503 -0.00000000000E+00 -0.00000000000E+00 -0.60054053612E+03  0.60054053612E+03  0.00000000000E+00 0. -1.
          6    1    1    2  501    0 -0.90886411740E+02  0.20319675836E+02 -0.40595479146E+03  0.45061793326E+03  0.17200000000E+03 0. -1.
         -6    1    1    2    0  502  0.90886411740E+02 -0.20319675836E+02 -0.11672978757E+03  0.22777855995E+03  0.17200000000E+03 0. -1.
</event>
<event>
 4    1  0.2889985E+000  0.2011577E+03  0.7818608E-02  0.1148766E+00
         21   -1    0    0  501  502  0.00000000000E+00  0.00000000000E+00  0.88653164502E+02  0.88653164502E+02  0.00000000000E+00 0.  1.
         21   -1    0    0  502  503 -0.00000000000E+00 -0.00000000000E+00 -0.62597403939E+03  0.62597403939E+03  0.00000000000E+00 0.  1.
          6    1    1    2  501    0 -0.10420802966E+03  0.45940174336E+01 -0.82706198220E+02  0.21749651415E+03  0.17200000000E+03 0.  1.
         -6    1    1    2    0  503  0.10420802966E+03 -0.45940174336E+01 -0.45461467666E+03  0.49713068974E+03  0.17200000000E+03 0.  1.
</event>
<event>
 4    1  0.2889985E+000  0.2211111E+03  0.7818608E-02  0.1133057E+00
         21   -1    0    0  501  502  0.00000000000E+00  0.00000000000E+00  0.32059899953E+03  0.32059899953E+03  0.00000000000E+00 0.  1.
         21   -1    0    0  502  503 -0.00000000000E+00 -0.00000000000E+00 -0.39216801331E+03  0.39216801331E+03  0.00000000000E+00 0. -1.
          6    1    1    2  501    0  0.13254452452E+03 -0.41690240597E+02  0.24282119411E+03  0.32840867749E+03  0.17200000000E+03 0.  1.
         -6    1    1    2    0  503 -0.13254452452E+03  0.41690240597E+02 -0.31439020789E+03  0.38435833535E+03  0.17200000000E+03 0. -1.
</event>
<event>
 4    1  0.2889985E+000  0.1835542E+03  0.7818608E-02  0.1164407E+00
         21   -1    0    0  501  502  0.00000000000E+00  0.00000000000E+00  0.36123516652E+02  0.36123516652E+02  0.00000000000E+00 0.  1.
         21   -1    0    0  502  503 -0.00000000000E+00 -0.00000000000E+00 -0.12772859932E+04  0.12772859932E+04  0.00000000000E+00 0.  1.
          6    1    1    2  501    0 -0.43579393350E+02  0.46999857376E+02 -0.27948311915E+03  0.33436950221E+03  0.17200000000E+03 0.  1.
         -6    1    1    2    0  503  0.43579393350E+02 -0.46999857376E+02 -0.96167935744E+03  0.97904000769E+03  0.17200000000E+03 0.  1.
</event>
<event>
 4    1  0.2889985E+000  0.3052228E+03  0.7818608E-02  0.1082659E+00
         21   -1    0    0  501  502  0.00000000000E+00  0.00000000000E+00  0.20572797998E+04  0.20572797998E+04  0.00000000000E+00 0.  1.
         21   -1    0    0  502  503 -0.00000000000E+00 -0.00000000000E+00 -0.13490508131E+03  0.13490508131E+03  0.00000000000E+00 0.  1.
          6    1    1    2  501    0 -0.17453035639E+03  0.18197826017E+03  0.18545734957E+04  0.18795222221E+04  0.17200000000E+03 0.  1.
         -6    1    1    2    0  503  0.17453035639E+03 -0.18197826017E+03  0.67801222717E+02  0.31266265891E+03  0.17200000000E+03 0.  1.
</event>
<event>
 4    1  0.2889985E+000  0.1796637E+03  0.7818608E-02  0.1168129E+00
         21   -1    0    0  501  502  0.00000000000E+00  0.00000000000E+00  0.14495699522E+04  0.14495699522E+04  0.00000000000E+00 0.  1.
         21   -1    0    0  502  503 -0.00000000000E+00 -0.00000000000E+00 -0.33812096155E+02  0.33812096155E+02  0.00000000000E+00 0.  1.
          6    1    1    2  501    0 -0.50810899983E+02 -0.10644775967E+02  0.11412565555E+04  0.11553118991E+04  0.17200000000E+03 0.  1.
         -6    1    1    2    0  503  0.50810899983E+02  0.10644775967E+02  0.27450130059E+03  0.32807014926E+03  0.17200000000E+03 0.  1.
</event>
<event>
 4    1  0.2889985E+000  0.1847056E+03  0.7818608E-02  0.1163325E+00
         21   -1    0    0  501  502  0.00000000000E+00  0.00000000000E+00  0.62167808636E+03  0.62167808636E+03  0.00000000000E+00 0. -1.
         21   -1    0    0  502  503 -0.00000000000E+00 -0.00000000000E+00 -0.20912031057E+03  0.20912031057E+03  0.00000000000E+00 0. -1.
          6    1    1    2  501    0  0.64168959249E+02 -0.20359378740E+02  0.56303380315E+03  0.59255651471E+03  0.17200000000E+03 0. -1.
         -6    1    1    2    0  503 -0.64168959249E+02  0.20359378740E+02 -0.15047602736E+03  0.23824188222E+03  0.17200000000E+03 0. -1.
</event>
<event>
 4    1  0.2889985E+000  0.2527668E+03  0.7818608E-02  0.1111569E+00
         21   -1    0    0  501  502  0.00000000000E+00  0.00000000000E+00  0.76654890257E+02  0.76654890257E+02  0.00000000000E+00 0.  1.
         21   -1    0    0  502  503 -0.00000000000E+00 -0.00000000000E+00 -0.83768624917E+03  0.83768624917E+03  0.00000000000E+00 0.  1.
          6    1    1    2  501    0 -0.16598276857E+03 -0.82199566667E+02 -0.34815685912E+03  0.43023743070E+03  0.17200000000E+03 0.  1.
         -6    1    1    2    0  503  0.16598276857E+03  0.82199566667E+02 -0.41287449979E+03  0.48410370872E+03  0.17200000000E+03 0.  1.
</event>
<event>
 4    1  0.2889985E+000  0.1924375E+03  0.7818608E-02  0.1156281E+00
         21   -1    0    0  501  502  0.00000000000E+00  0.00000000000E+00  0.41743995557E+03  0.41743995557E+03  0.00000000000E+00 0. -1.
         21   -1    0    0  502  503 -0.00000000000E+00 -0.00000000000E+00 -0.10954843624E+03  0.10954843624E+03  0.00000000000E+00 0. -1.
          6    1    1    2  501    0 -0.67910273319E+01 -0.86035333236E+02  0.26885980403E+03  0.33063241045E+03  0.17200000000E+03 0.  1.
         -6    1    1    2    0  503  0.67910273319E+01  0.86035333236E+02  0.39031715292E+02  0.19635598136E+03  0.17200000000E+03 0.  1.
</event>
<event>
 4    1  0.2889985E+000  0.1887935E+03  0.7818608E-02  0.1159554E+00
         21   -1    0    0  503  502  0.00000000000E+00  0.00000000000E+00  0.80714963674E+03  0.80714963674E+03  0.00000000000E+00 0. -1.
         21   -1    0    0  501  503 -0.00000000000E+00 -0.00000000000E+00 -0.76296663236E+02  0.76296663236E+02  0.00000000000E+00 0. -1.
          6    1    1    2  501    0 -0.69339073728E+02 -0.35370514763E+02  0.78742103160E+02  0.20455634742E+03  0.17200000000E+03 0. -1.
         -6    1    1    2    0  502  0.69339073728E+02  0.35370514763E+02  0.65211087034E+03  0.67888995255E+03  0.17200000000E+03 0. -1.
</event>
<event>
 4    1  0.2889985E+000  0.2446162E+03  0.7818608E-02  0.1116755E+00
         21   -1    0    0  503  502  0.00000000000E+00  0.00000000000E+00  0.93480352657E+02  0.93480352657E+02  0.00000000000E+00 0. -1.
         21   -1    0    0  501  503 -0.00000000000E+00 -0.00000000000E+00 -0.64237158836E+03  0.64237158836E+03  0.00000000000E+00 0. -1.
          6    1    1    2  501    0 -0.84306229937E+02 -0.15213666323E+03 -0.29630779397E+03  0.38423354027E+03  0.17200000000E+03 0. -1.
         -6    1    1    2    0  502  0.84306229937E+02  0.15213666323E+03 -0.25258344174E+03  0.35161840075E+03  0.17200000000E+03 0. -1.
</event>
<event>
 4    1  0.2889985E+000  0.2946518E+03  0.7818608E-02  0.1087945E+00
         21   -1    0    0  501  502  0.00000000000E+00  0.00000000000E+00  0.71391547206E+03  0.71391547206E+03  0.00000000000E+00 0.  1.
         21   -1    0    0  502  503 -0.00000000000E+00 -0.00000000000E+00 -0.11533943803E+04  0.11533943803E+04  0.00000000000E+00 0. -1.
          6    1    1    2  501    0 -0.11231117271E+03  0.21123894151E+03  0.66332382447E+03  0.72582242045E+03  0.17200000000E+03 0.  1.
         -6    1    1    2    0  503  0.11231117271E+03 -0.21123894151E+03 -0.11028027327E+04  0.11414874319E+04  0.17200000000E+03 0. -1.
</event>
<event>
 4    1  0.2889985E+000  0.1948122E+03  0.7818608E-02  0.1154191E+00
         21   -1    0    0  501  502  0.00000000000E+00  0.00000000000E+00  0.14757678904E+04  0.14757678904E+04  0.00000000000E+00 0.  1.
         21   -1    0    0  502  503 -0.00000000000E+00 -0.00000000000E+00 -0.26055281183E+02  0.26055281183E+02  0.00000000000E+00 0.  1.
          6    1    1    2  501    0  0.65272208114E+02  0.64088491764E+02  0.81046323242E+03  0.83354810721E+03  0.17200000000E+03 0. -1.
         -6    1    1    2    0  503 -0.65272208114E+02 -0.64088491764E+02  0.63924937681E+03  0.66827506439E+03  0.17200000000E+03 0. -1.
</event>
<event>
 4    1  0.2889985E+000  0.3659176E+03  0.7818608E-02  0.1056265E+00
         21   -1    0    0  503  502  0.00000000000E+00  0.00000000000E+00  0.64384682835E+03  0.64384682835E+03  0.00000000000E+00 0. -1.
         21   -1    0    0  501  503 -0.00000000000E+00 -0.00000000000E+00 -0.38108590189E+03  0.38108590189E+03  0.00000000000E+00 0.  1.
          6    1    1    2  501    0  0.30482657060E+03 -0.10673536524E+03  0.47678849877E+03  0.60101826003E+03  0.17200000000E+03 0. -1.
         -6    1    1    2    0  502 -0.30482657060E+03  0.10673536524E+03 -0.21402757231E+03  0.42391447020E+03  0.17200000000E+03 0.  1.
</event>
<event>
 4    1  0.2889985E+000  0.1897115E+03  0.7818608E-02  0.1158722E+00
         21   -1    0    0  501  502  0.00000000000E+00  0.00000000000E+00  0.87425054420E+02  0.87425054420E+02  0.00000000000E+00 0.  1.
         21   -1    0    0  502  503 -0.00000000000E+00 -0.00000000000E+00 -0.60949968632E+03  0.60949968632E+03  0.00000000000E+00 0.  1.
          6    1    1    2  501    0 -0.79990949142E+02 -0.28137594472E+01 -0.45956103418E+03  0.49717885446E+03  0.17200000000E+03 0. -1.
         -6    1    1    2    0  503  0.79990949142E+02  0.28137594472E+01 -0.62513597725E+02  0.19974588628E+03  0.17200000000E+03 0. -1.
</event>
<event>
 4    1  0.2889985E+000  0.2528860E+03  0.7818608E-02  0.1111494E+00
         21   -1    0    0  503  502  0.00000000000E+00  0.00000000000E+00  0.18646318349E+03  0.18646318349E+03  0.00000000000E+00 0. -1.
         21   -1    0    0  501  503 -0.00000000000E+00 -0.00000000000E+00 -0.34343350114E+03  0.34343350114E+03  0.00000000000E+00 0.  1.
          6    1    1    2  501    0 -0.13770608689E+03 -0.12411430736E+03 -0.68754537292E+02  0.26206585824E+03  0.17200000000E+03 0. -1.
         -6    1    1    2    0  502  0.13770608689E+03  0.12411430736E+03 -0.88215780361E+02  0.26783082639E+03  0.17200000000E+03 0.  1.
</event>
<event>
 4    1  0.2889985E+000  0.2906448E+03  0.7818608E-02  0.1090013E+00
         21   -1    0    0  503  502  0.00000000000E+00  0.00000000000E+00  0.56422155992E+02  0.56422155992E+02  0.00000000000E+00 0.  1.
         21   -1    0    0  501  503 -0.00000000000E+00 -0.00000000000E+00 -0.15041907789E+04  0.15041907789E+04  0.00000000000E+00 0. -1.
          6    1    1    2  501    0 -0.13948440766E+03 -0.18824052560E+03 -0.77713773596E+03  0.82970925998E+03  0.17200000000E+03 0.  1.
         -6    1    1    2    0  502  0.13948440766E+03  0.18824052560E+03 -0.67063088696E+03  0.73090367492E+03  0.17200000000E+03 0.  1.
</event>
<event>
 4    1  0.2889985E+000  0.1734611E+03  0.7818608E-02  0.1174286E+00
         21   -1    0    0  503  502  0.00000000000E+00  0.00000000000E+00  0.18670202243E+03  0.18670202243E+03  0.00000000000E+00 0. -1.
         21   -1    0    0  501  503 -0.00000000000E+00 -0.00000000000E+00 -0.51709060933E+03  0.51709060933E+03  0.00000000000E+00 0. -1.
          6    1    1    2  501    0  0.88935965327E+00  0.22449139486E+02 -0.45714836172E+03  0.48895130580E+03  0.17200000000E+03 0. -1.
         -6    1    1    2    0  502 -0.88935965327E+00 -0.22449139486E+02  0.12675977482E+03  0.21484132595E+03  0.17200000000E+03 0. -1.
</event>
<event>
 4    1  0.2889985E+000  0.2055421E+03  0.7818608E-02  0.1145146E+00
         21   -1    0    0  501  502  0.00000000000E+00  0.00000000000E+00  0.14428975746E+04  0.14428975746E+04  0.00000000000E+00 0.  1.
         21   -1    0    0  502  503 -0.00000000000E+00 -0.00000000000E+00 -0.40145469342E+02  0.40145469342E+02  0.00000000000E+00 0.  1.
          6    1    1    2  501    0  0.97727277634E+02 -0.55793627921E+02  0.10871532383E+04  0.11064129940E+04  0.17200000000E+03 0.  1.
         -6    1    1    2    0  503 -0.97727277634E+02  0.55793627921E+02  0.31559886700E+03  0.37663004999E+03  0.17200000000E+03 0.  1.
</event>
<event>
 4    1  0.2889985E+000  0.3890268E+03  0.7818608E-02  0.1047647E+00
         21   -1    0    0  503  502  0.00000000000E+00  0.00000000000E+00  0.31838305306E+03  0.31838305306E+03  0.00000000000E+00 0.  1.
         21   -1    0    0  501  503 -0.00000000000E+00 -0.00000000000E+00 -0.50409895495E+03  0.50409895495E+03  0.00000000000E+00 0. -1.
          6    1    1    2  501    0 -0.33861286950E+02 -0.34729133139E+03 -0.19107475670E+03  0.43341829479E+03  0.17200000000E+03 0.  1.
         -6    1    1    2    0  502  0.33861286950E+02  0.34729133139E+03  0.53588548131E+01  0.38906371321E+03  0.17200000000E+03 0. -1.
</event>
<event>
 4    1  0.2889985E+000  0.1740051E+03  0.7818608E-02  0.1173734E+00
         21   -1    0    0  501  502  0.00000000000E+00  0.00000000000E+00  0.12043278171E+03  0.12043278171E+03  0.00000000000E+00 0. -1.
         21   -1    0    0  502  503 -0.00000000000E+00 -0.00000000000E+00 -0.48052571007E+03  0.48052571007E+03  0.00000000000E+00 0. -1.
          6    1    1    2  501    0  0.19875205475E+02  0.17284181431E+02  0.27437950933E+02  0.17615506769E+03  0.17200000000E+03 0. -1.
         -6    1    1    2    0  503 -0.19875205475E+02 -0.17284181431E+02 -0.38753087929E+03  0.42480342410E+03  0.17200000000E+03 0. -1.
</event>
<event>
 4    1  0.2889985E+000  0.1824191E+03  0.7818608E-02  0.1165482E+00
         21   -1    0    0  501  502  0.00000000000E+00  0.00000000000E+00  0.25652465485E+03  0.25652465485E+03  0.00000000000E+00 0. -1.
         21   -1    0    0  502  503 -0.00000000000E+00 -0.00000000000E+00 -0.17946904516E+03  0.17946904516E+03  0.00000000000E+00 0. -1.
          6    1    1    2  501    0 -0.58017669683E+02 -0.18074471880E+02  0.15330132986E+03  0.23828141821E+03  0.17200000000E+03 0. -1.
         -6    1    1    2    0  503  0.58017669683E+02  0.18074471880E+02 -0.76245720174E+02  0.19771228180E+03  0.17200000000E+03 0. -1.
</event>
<event>
 4    1  0.2889985E+000  0.2477784E+03  0.7818608E-02  0.1114717E+00
         21   -1    0    0  501  502  0.00000000000E+00  0.00000000000E+00  0.54544205619E+02  0.54544205619E+02  0.00000000000E+00 0. -1.
         21   -1    0    0  502  503 -0.00000000000E+00 -0.00000000000E+00 -0.13709951113E+04  0.13709951113E+04  0.00000000000E+00 0.  1.
          6    1    1    2  501    0  0.13564661478E+03 -0.11580203492E+03 -0.35666258046E+03  0.43428367652E+03  0.17200000000E+03 0.  1.
         -6    1    1    2    0  503 -0.13564661478E+03  0.11580203492E+03 -0.95978832520E+03  0.99125564038E+03  0.17200000000E+03 0.  1.
</event>
<event>
 4    1  0.2889985E+000  0.1999234E+03  0.7818608E-02  0.1149804E+00
         21   -1    0    0  503  502  0.00000000000E+00  0.00000000000E+00  0.85552804239E+03  0.85552804239E+03  0.00000000000E+00 0. -1.
         21   -1    0    0  501  503 -0.00000000000E+00 -0.00000000000E+00 -0.51143749211E+02  0.51143749211E+02  0.00000000000E+00 0. -1.
          6    1    1    2  501    0  0.54622227944E+02 -0.86033586243E+02  0.26884891968E+03  0.33503597920E+03  0.17200000000E+03 0. -1.
         -6    1    1    2    0  502 -0.54622227944E+02  0.86033586243E+02  0.53553537350E+03  0.57163581240E+03  0.17200000000E+03 0. -1.
</event>
<event>
 4    1  0.2889985E+000  0.2383935E+03  0.7818608E-02  0.1120868E+00
         21   -1    0    0  501  502  0.00000000000E+00  0.00000000000E+00  0.11835637597E+03  0.11835637597E+03  0.00000000000E+00 0. -1.
         21   -1    0    0  502  503 -0.00000000000E+00 -0.00000000000E+00 -0.76669647660E+03  0.76669647660E+03  0.00000000000E+00 0.  1.
          6    1    1    2  501    0  0.11680661300E+03  0.11663489579E+03 -0.53644731112E+02  0.24435474403E+03  0.17200000000E+03 0. -1.
         -6    1    1    2    0  503 -0.11680661300E+03 -0.11663489579E+03 -0.59469536952E+03  0.64069810854E+03  0.17200000000E+03 0.  1.
</event>
<event>
 4    1  0.2889985E+000  0.2095765E+03  0.7818608E-02  0.1141902E+00
         21   -1    0    0  501  502  0.00000000000E+00  0.00000000000E+00  0.28194274874E+03  0.28194274874E+03  0.00000000000E+00 0.  1.
         21   -1    0    0  502  503 -0.00000000000E+00 -0.00000000000E+00 -0.48482058426E+03  0.48482058426E+03  0.00000000000E+00 0.  1.
          6    1    1    2  501    0  0.11972111262E+03  0.22697503471E+01  0.21439779539E+03  0.29981446137E+03  0.17200000000E+03 0.  1.
         -6    1    1    2    0  503 -0.11972111262E+03 -0.22697503471E+01 -0.41727563091E+03  0.46694887164E+03  0.17200000000E+03 0.  1.
</event>
<event>
 4    1  0.2889985E+000  0.1796814E+03  0.7818608E-02  0.1168112E+00
         21   -1    0    0  501  502  0.00000000000E+00  0.00000000000E+00  0.23814668510E+03  0.23814668510E+03  0.00000000000E+00 0.  1.
         21   -1    0    0  502  503 -0.00000000000E+00 -0.00000000000E+00 -0.14939085637E+03  0.14939085637E+03  0.00000000000E+00 0.  1.
          6    1    1    2  501    0  0.17580543061E+02 -0.48911351477E+02  0.10331642652E+03  0.20726717006E+03  0.17200000000E+03 0.  1.
         -6    1    1    2    0  503 -0.17580543061E+02  0.48911351477E+02 -0.14560597789E+02  0.18027037140E+03  0.17200000000E+03 0.  1.
</event>
<event>
 4    1  0.2889985E+000  0.3149150E+03  0.7818608E-02  0.1078014E+00
         21   -1    0    0  503  502  0.00000000000E+00  0.00000000000E+00  0.16314070725E+03  0.16314070725E+03  0.00000000000E+00 0.  1.
         21   -1    0    0  501  503 -0.00000000000E+00 -0.00000000000E+00 -0.84389024760E+03  0.84389024760E+03  0.00000000000E+00 0. -1.
          6    1    1    2  501    0 -0.18828833056E+03  0.18475646885E+03 -0.74101880292E+02  0.32351589894E+03  0.17200000000E+03 0.  1.
         -6    1    1    2    0  502  0.18828833056E+03 -0.18475646885E+03 -0.60664766005E+03  0.68351505591E+03  0.17200000000E+03 0. -1.
</event>
<event>
 4    1  0.2889985E+000  0.1866480E+03  0.7818608E-02  0.1161520E+00
         21   -1    0    0  501  502  0.00000000000E+00  0.00000000000E+00  0.66277862254E+02  0.66277862254E+02  0.00000000000E+00 0.  1.
         21   -1    0    0  502  503 -0.00000000000E+00 -0.00000000000E+00 -0.53984466776E+03  0.53984466776E+03  0.00000000000E+00 0.  1.
          6    1    1    2  501    0  0.20165348648E+02 -0.69619103854E+02 -0.18760165236E+03  0.26463529787E+03  0.17200000000E+03 0.  1.
         -6    1    1    2    0  503 -0.20165348648E+02  0.69619103854E+02 -0.28596515315E+03  0.34148723215E+03  0.17200000000E+03 0.  1.
</event>
<event>
 4    1  0.2889985E+000  0.1846432E+03  0.7818608E-02  0.1163384E+00
         21   -1    0    0  501  502  0.00000000000E+00  0.00000000000E+00  0.55627307750E+02  0.55627307750E+02  0.00000000000E+00 0. -1.
         21   -1    0    0  502  503 -0.00000000000E+00 -0.00000000000E+00 -0.63183678165E+03  0.63183678165E+03  0.00000000000E+00 0. -1.
          6    1    1    2  501    0 -0.40666518976E+02  0.53435307358E+02 -0.22857255607E+03  0.29383415599E+03  0.17200000000E+03 0. -1.
         -6    1    1    2    0  503  0.40666518976E+02 -0.53435307358E+02 -0.34763691783E+03  0.39362993341E+03  0.17200000000E+03 0. -1.
</event>
<event>
 4    1  0.2889985E+000  0.2099729E+03  0.7818608E-02  0.1141587E+00
         21   -1    0    0  503  502  0.00000000000E+00  0.00000000000E+00  0.18746818574E+03  0.18746818574E+03  0.00000000000E+00 0. -1.
         21   -1    0    0  501  503 -0.00000000000E+00 -0.00000000000E+00 -0.24462798152E+03  0.24462798152E+03  0.00000000000E+00 0. -1.
          6    1    1    2  501    0 -0.80388800350E+02  0.89678759292E+02 -0.71040159354E+02  0.22166493482E+03  0.17200000000E+03 0. -1.
         -6    1    1    2    0  502  0.80388800350E+02 -0.89678759292E+02  0.13880363574E+02  0.21043123243E+03  0.17200000000E+03 0. -1.
</event>
<event>
 4    1  0.2889985E+000  0.2193851E+03  0.7818608E-02  0.1134342E+00
         21   -1    0    0  503  502  0.00000000000E+00  0.00000000000E+00  0.53879773529E+03  0.53879773529E+03  0.00000000000E+00 0. -1.
         21   -1    0    0  501  503 -0.00000000000E+00 -0.00000000000E+00 -0.96454805227E+02  0.96454805227E+02  0.00000000000E+00 0. -1.
          6    1    1    2  501    0  0.95924412995E+02 -0.96665990231E+02  0.30750852505E+03  0.37774501936E+03  0.17200000000E+03 0. -1.
         -6    1    1    2    0  502 -0.95924412995E+02  0.96665990231E+02  0.13483440502E+03  0.25750752116E+03  0.17200000000E+03 0. -1.
</event>
<event>
 4    1  0.2889985E+000  0.2374146E+03  0.7818608E-02  0.1121527E+00
         21   -1    0    0  501  502  0.00000000000E+00  0.00000000000E+00  0.92028389846E+03  0.92028389846E+03  0.00000000000E+00 0. -1.
         21   -1    0    0  502  503 -0.00000000000E+00 -0.00000000000E+00 -0.68874341755E+02  0.68874341755E+02  0.00000000000E+00 0. -1.
          6    1    1    2  501    0  0.10101310811E+03  0.12875567096E+03  0.26113071757E+03  0.35292339463E+03  0.17200000000E+03 0. -1.
         -6    1    1    2    0  503 -0.10101310811E+03 -0.12875567096E+03  0.59027883913E+03  0.63623484559E+03  0.17200000000E+03 0. -1.
</event>
<event>
 4    1  0.2889985E+000  0.1933857E+03  0.7818608E-02  0.1155443E+00
         21   -1    0    0  501  502  0.00000000000E+00  0.00000000000E+00  0.22883657336E+03  0.22883657336E+03  0.00000000000E+00 0.  1.
         21   -1    0    0  502  503 -0.00000000000E+00 -0.00000000000E+00 -0.27396366928E+03  0.27396366928E+03  0.00000000000E+00 0.  1.
          6    1    1    2  501    0 -0.88244417055E+02  0.51911148279E+01  0.13712457312E+03  0.23706786659E+03  0.17200000000E+03 0.  1.
         -6    1    1    2    0  503  0.88244417055E+02 -0.51911148279E+01 -0.18225166904E+03  0.26573237605E+03  0.17200000000E+03 0.  1.
</event>
<event>
 4    1  0.2889985E+000  0.1852487E+03  0.7818608E-02  0.1162818E+00
         21   -1    0    0  501  502  0.00000000000E+00  0.00000000000E+00  0.17666914905E+04  0.17666914905E+04  0.00000000000E+00 0. -1.
         21   -1    0    0  502  503 -0.00000000000E+00 -0.00000000000E+00 -0.20574548991E+02  0.20574548991E+02  0.00000000000E+00 0. -1.
          6    1    1    2  501    0  0.38092088007E+02 -0.57289314353E+02  0.10843368278E+04  0.11000470121E+04  0.17200000000E+03 0. -1.
         -6    1    1    2    0  503 -0.38092088007E+02  0.57289314353E+02  0.66178011371E+03  0.68721902739E+03  0.17200000000E+03 0. -1.
</event>
<event>
 4    1  0.2889985E+000  0.1830889E+03  0.7818608E-02  0.1164847E+00
         21   -1    0    0  503  502  0.00000000000E+00  0.00000000000E+00  0.70261086116E+03  0.70261086116E+03  0.00000000000E+00 0.  1.
         21   -1    0    0  501  503 -0.00000000000E+00 -0.00000000000E+00 -0.49674028714E+02  0.49674028714E+02  0.00000000000E+00 0. -1.
          6    1    1    2  501    0 -0.60032751648E+02 -0.18264757685E+02  0.25167445566E+03  0.31122590554E+03  0.17200000000E+03 0. -1.
         -6    1    1    2    0  502  0.60032751648E+02  0.18264757685E+02  0.40126237678E+03  0.44105898434E+03  0.17200000000E+03 0. -1.
</event>
<event>
 4    1  0.2889985E+000  0.1936668E+03  0.7818608E-02  0.1155195E+00
         21   -1    0    0  503  502  0.00000000000E+00  0.00000000000E+00  0.24140763820E+02  0.24140763820E+02  0.00000000000E+00 0.  1.
         21   -1    0    0  501  503 -0.00000000000E+00 -0.00000000000E+00 -0.18594215983E+04  0.18594215983E+04  0.00000000000E+00 0.  1.
          6    1    1    2  501    0  0.44621587009E+02 -0.77017810062E+02 -0.53574538286E+03  0.56967529729E+03  0.17200000000E+03 0.  1.
         -6    1    1    2    0  502 -0.44621587009E+02  0.77017810062E+02 -0.12995354517E+04  0.13138870649E+04  0.17200000000E+03 0.  1.
</event>
<event>
 4    1  0.2889985E+000  0.2526698E+03  0.7818608E-02  0.1111629E+00
         21   -1    0    0  501  502  0.00000000000E+00  0.00000000000E+00  0.42372717833E+03  0.42372717833E+03  0.00000000000E+00 0. -1.
         21   -1    0    0  502  503 -0.00000000000E+00 -0.00000000000E+00 -0.15082206879E+03  0.15082206879E+03  0.00000000000E+00 0.  1.
          6    1    1    2  501    0 -0.24532518570E+02  0.18345616620E+03  0.14564246710E+03  0.29163973942E+03  0.17200000000E+03 0. -1.
         -6    1    1    2    0  503  0.24532518570E+02 -0.18345616620E+03  0.12726264244E+03  0.28290950770E+03  0.17200000000E+03 0.  1.
</event>
<event>
 4    1  0.2889985E+000  0.1772962E+03  0.7818608E-02  0.1170446E+00
         21   -1    0    0  503  502  0.00000000000E+00  0.00000000000E+00  0.15333653209E+02  0.15333653209E+02  0.00000000000E+00 0.  1.
         21   -1    0    0  501  503 -0.00000000000E+00 -0.00000000000E+00 -0.34033687242E+04  0.34033687242E+04  0.00000000000E+00 0.  1.
          6    1    1    2  501    0 -0.41335118731E+02  0.11888956125E+02 -0.27719346941E+04  0.27775989429E+04  0.17200000000E+03 0.  1.
         -6    1    1    2    0  502  0.41335118731E+02 -0.11888956125E+02 -0.61610037691E+03  0.64110343452E+03  0.17200000000E+03 0.  1.
</event>
<event>
 4    1  0.2889985E+000  0.2409916E+03  0.7818608E-02  0.1119134E+00
         21   -1    0    0  501  502  0.00000000000E+00  0.00000000000E+00  0.94378677834E+02  0.94378677834E+02  0.00000000000E+00 0.  1.
         21   -1    0    0  502  503 -0.00000000000E+00 -0.00000000000E+00 -0.62240286440E+03  0.62240286440E+03  0.00000000000E+00 0. -1.
          6    1    1    2  501    0  0.16207768461E+03  0.47156902077E+02 -0.22589080493E+03  0.33030834839E+03  0.17200000000E+03 0.  1.
         -6    1    1    2    0  503 -0.16207768461E+03 -0.47156902077E+02 -0.30213338164E+03  0.38647319385E+03  0.17200000000E+03 0. -1.
</event>
<event>
 4    1  0.2889985E+000  0.2055883E+03  0.7818608E-02  0.1145108E+00
         21   -1    0    0  501  502  0.00000000000E+00  0.00000000000E+00  0.12191927297E+04  0.12191927297E+04  0.00000000000E+00 0.  1.
         21   -1    0    0  502  503 -0.00000000000E+00 -0.00000000000E+00 -0.36652475061E+02  0.36652475061E+02  0.00000000000E+00 0.  1.
          6    1    1    2  501    0  0.76431854109E+02  0.82708593431E+02  0.44514792275E+03  0.49032969814E+03  0.17200000000E+03 0.  1.
         -6    1    1    2    0  503 -0.76431854109E+02 -0.82708593431E+02  0.73739233191E+03  0.76551550664E+03  0.17200000000E+03 0.  1.
</event>
<event>
 4    1  0.2889985E+000  0.2225062E+03  0.7818608E-02  0.1132028E+00
         21   -1    0    0  503  502  0.00000000000E+00  0.00000000000E+00  0.75511859595E+03  0.75511859595E+03  0.00000000000E+00 0.  1.
         21   -1    0    0  501  503 -0.00000000000E+00 -0.00000000000E+00 -0.10758889316E+03  0.10758889316E+03  0.00000000000E+00 0. -1.
          6    1    1    2  501    0 -0.82925037320E+02  0.11422973313E+03  0.54176925531E+02  0.22900684052E+03  0.17200000000E+03 0. -1.
         -6    1    1    2    0  502  0.82925037320E+02 -0.11422973313E+03  0.59335277726E+03  0.63370064859E+03  0.17200000000E+03 0.  1.
</event>
<event>
 4    1  0.2889985E+000  0.2284143E+03  0.7818608E-02  0.1127761E+00
         21   -1    0    0  501  502  0.00000000000E+00  0.00000000000E+00  0.81547185339E+02  0.81547185339E+02  0.00000000000E+00 0.  1.
         21   -1    0    0  502  503 -0.00000000000E+00 -0.00000000000E+00 -0.75461981203E+03  0.75461981203E+03  0.00000000000E+00 0.  1.
          6    1    1    2  501    0  0.72445040656E+02 -0.13168442620E+03 -0.17344670444E+03  0.28680451758E+03  0.17200000000E+03 0.  1.
         -6    1    1    2    0  503 -0.72445040656E+02  0.13168442620E+03 -0.49962592225E+03  0.54936247979E+03  0.17200000000E+03 0.  1.
</event>
<event>
 4    1  0.2889985E+000  0.2515727E+03  0.7818608E-02  0.1112315E+00
         21   -1    0    0  503  502  0.00000000000E+00  0.00000000000E+00  0.98721961639E+03  0.98721961639E+03  0.00000000000E+00 0. -1.
         21   -1    0    0  501  503 -0.00000000000E+00 -0.00000000000E+00 -0.10598576928E+03  0.10598576928E+03  0.00000000000E+00 0. -1.
          6    1    1    2  501    0 -0.16956108193E+03 -0.70383622270E+02  0.97028102489E+02  0.26963543436E+03  0.17200000000E+03 0. -1.
         -6    1    1    2    0  502  0.16956108193E+03  0.70383622270E+02  0.78420574462E+03  0.82356995130E+03  0.17200000000E+03 0. -1.
</event>
<event>
 4    1  0.2889985E+000  0.1731431E+03  0.7818608E-02  0.1174609E+00
         21   -1    0    0  501  502  0.00000000000E+00  0.00000000000E+00  0.14116600305E+03  0.14116600305E+03  0.00000000000E+00 0. -1.
         21   -1    0    0  502  503 -0.00000000000E+00 -0.00000000000E+00 -0.21683005682E+03  0.21683005682E+03  0.00000000000E+00 0. -1.
          6    1    1    2  501    0  0.81965502086E+00 -0.19845543860E+02 -0.63522444696E+02  0.18442781359E+03  0.17200000000E+03 0.  1.
         -6    1    1    2    0  503 -0.81965502086E+00  0.19845543860E+02 -0.12141609071E+02  0.17356824628E+03  0.17200000000E+03 0.  1.
</event>
<event>
 4    1  0.2889985E+000  0.2071420E+03  0.7818608E-02  0.1143849E+00
         21   -1    0    0  501  502  0.00000000000E+00  0.00000000000E+00  0.38626076729E+03  0.38626076729E+03  0.00000000000E+00 0.  1.
         21   -1    0    0  502  503 -0.00000000000E+00 -0.00000000000E+00 -0.21709054580E+03  0.21709054580E+03  0.00000000000E+00 0.  1.
          6    1    1    2  501    0  0.25937972195E+01 -0.11539969828E+03  0.29539155751E+03  0.36078246963E+03  0.17200000000E+03 0.  1.
         -6    1    1    2    0  503 -0.25937972195E+01  0.11539969828E+03 -0.12622133602E+03  0.24256884345E+03  0.17200000000E+03 0.  1.
</event>
<event>
 4    1  0.2889985E+000  0.1975197E+03  0.7818608E-02  0.1151849E+00
         21   -1    0    0  501  502  0.00000000000E+00  0.00000000000E+00  0.10797226237E+03  0.10797226237E+03  0.00000000000E+00 0.  1.
         21   -1    0    0  502  503 -0.00000000000E+00 -0.00000000000E+00 -0.36906204675E+03  0.36906204675E+03  0.00000000000E+00 0. -1.
          6    1    1    2  501    0  0.94820063642E+02 -0.20957120302E+02 -0.96030052435E+02  0.21962653831E+03  0.17200000000E+03 0.  1.
         -6    1    1    2    0  503 -0.94820063642E+02  0.20957120302E+02 -0.16505973194E+03  0.25740777080E+03  0.17200000000E+03 0. -1.
</event>
<event>
 4    1  0.2889985E+000  0.2279619E+03  0.7818608E-02  0.1128083E+00
         21   -1    0    0  503  502  0.00000000000E+00  0.00000000000E+00  0.47681536434E+03  0.47681536434E+03  0.00000000000E+00 0. -1.
         21   -1    0    0  501  503 -0.00000000000E+00 -0.00000000000E+00 -0.11023931570E+03  0.11023931570E+03  0.00000000000E+00 0. -1.
          6    1    1    2  501    0  0.23056288506E+02 -0.14782090716E+03  0.15200129564E+03  0.27399088837E+03  0.17200000000E+03 0. -1.
         -6    1    1    2    0  502 -0.23056288506E+02  0.14782090716E+03  0.21457475300E+03  0.31306379168E+03  0.17200000000E+03 0. -1.
</event>
<event>
 4    1  0.2889985E+000  0.1777485E+03  0.7818608E-02  0.1170000E+00
         21   -1    0    0  501  502  0.00000000000E+00  0.00000000000E+00  0.23594427247E+03  0.23594427247E+03  0.00000000000E+00 0.  1.
         21   -1    0    0  502  503 -0.00000000000E+00 -0.00000000000E+00 -0.13543386199E+03  0.13543386199E+03  0.00000000000E+00 0. -1.
          6    1    1    2  501    0 -0.31913067503E+02 -0.31497519440E+02  0.30537608160E+02  0.18035266319E+03  0.17200000000E+03 0.  1.
         -6    1    1    2    0  503  0.31913067503E+02  0.31497519440E+02  0.69972802326E+02  0.19102547127E+03  0.17200000000E+03 0.  1.
</event>
<event>
 4    1  0.2889985E+000  0.2301662E+03  0.7818608E-02  0.1126523E+00
         21   -1    0    0  503  502  0.00000000000E+00  0.00000000000E+00  0.37848911930E+03  0.37848911930E+03  0.00000000000E+00 0. -1.
         21   -1    0    0  501  503 -0.00000000000E+00 -0.00000000000E+00 -0.17921821716E+03  0.17921821716E+03  0.00000000000E+00 0. -1.
          6    1    1    2  501    0 -0.15260428890E+03  0.10217386397E+02 -0.30862854137E+02  0.23222613923E+03  0.17200000000E+03 0. -1.
         -6    1    1    2    0  502  0.15260428890E+03 -0.10217386397E+02  0.23013375628E+03  0.32548119723E+03  0.17200000000E+03 0. -1.
</event>
<event>
 4    1  0.2889985E+000  0.2142053E+03  0.7818608E-02  0.1138278E+00
         21   -1    0    0  503  502  0.00000000000E+00  0.00000000000E+00  0.16215505769E+03  0.16215505769E+03  0.00000000000E+00 0. -1.
         21   -1    0    0  501  503 -0.00000000000E+00 -0.00000000000E+00 -0.79407337459E+03  0.79407337459E+03  0.00000000000E+00 0. -1.
          6    1    1    2  501    0 -0.10678220597E+03  0.69982002198E+02 -0.69954148340E+03  0.73160249257E+03  0.17200000000E+03 0. -1.
         -6    1    1    2    0  502  0.10678220597E+03 -0.69982002198E+02  0.67623166503E+02  0.22462593971E+03  0.17200000000E+03 0. -1.
</event>
<event>
 4    1  0.2889985E+000  0.1893007E+03  0.7818608E-02  0.1159094E+00
         21   -1    0    0  503  502  0.00000000000E+00  0.00000000000E+00  0.11233047795E+03  0.11233047795E+03  0.00000000000E+00 0. -1.
         21   -1    0    0  501  503 -0.00000000000E+00 -0.00000000000E+00 -0.41053119901E+03  0.41053119901E+03  0.00000000000E+00 0. -1.
          6    1    1    2  501    0  0.14072264723E+00  0.79061548092E+02 -0.27253592488E+03  0.33182914059E+03  0.17200000000E+03 0. -1.
         -6    1    1    2    0  502 -0.14072264723E+00 -0.79061548092E+02 -0.25664796180E+02  0.19103253637E+03  0.17200000000E+03 0. -1.
</event>
<event>
 4    1  0.2889985E+000  0.2470531E+03  0.7818608E-02  0.1115181E+00
         21   -1    0    0  503  502  0.00000000000E+00  0.00000000000E+00  0.49795869024E+02  0.49795869024E+02  0.00000000000E+00 0. -1.
         21   -1    0    0  501  503 -0.00000000000E+00 -0.00000000000E+00 -0.12263035510E+04  0.12263035510E+04  0.00000000000E+00 0.  1.
          6    1    1    2  501    0  0.14985260529E+03  0.94844190711E+02 -0.60230797371E+03  0.65100700382E+03  0.17200000000E+03 0.  1.
         -6    1    1    2    0  502 -0.14985260529E+03 -0.94844190711E+02 -0.57419970821E+03  0.62509241615E+03  0.17200000000E+03 0.  1.
</event>
<event>
 4    1  0.2889985E+000  0.2587608E+03  0.7818608E-02  0.1107890E+00
         21   -1    0    0  503  502  0.00000000000E+00  0.00000000000E+00  0.15230639050E+04  0.15230639050E+04  0.00000000000E+00 0.  1.
         21   -1    0    0  501  503 -0.00000000000E+00 -0.00000000000E+00 -0.55618363971E+02  0.55618363971E+02  0.00000000000E+00 0. -1.
          6    1    1    2  501    0 -0.19255479493E+03  0.17198513874E+02  0.37236724227E+03  0.45344735201E+03  0.17200000000E+03 0. -1.
         -6    1    1    2    0  502  0.19255479493E+03 -0.17198513874E+02  0.10950782988E+04  0.11252349170E+04  0.17200000000E+03 0.  1.
</event>
<event>
 4    1  0.2889985E+000  0.1815908E+03  0.7818608E-02  0.1166272E+00
         21   -1    0    0  501  502  0.00000000000E+00  0.00000000000E+00  0.87063314308E+02  0.87063314308E+02  0.00000000000E+00 0. -1.
         21   -1    0    0  502  503 -0.00000000000E+00 -0.00000000000E+00 -0.71205788532E+03  0.71205788532E+03  0.00000000000E+00 0. -1.
          6    1    1    2  501    0 -0.54724120429E+02 -0.19912435923E+02 -0.39129226443E+02  0.18575879743E+03  0.17200000000E+03 0. -1.
         -6    1    1    2    0  503  0.54724120429E+02  0.19912435923E+02 -0.58586534457E+03  0.61336240220E+03  0.17200000000E+03 0. -1.
</event>
<event>
 4    1  0.2889985E+000  0.1938626E+03  0.7818608E-02  0.1155023E+00
         21   -1    0    0  503  502  0.00000000000E+00  0.00000000000E+00  0.12625501183E+03  0.12625501183E+03  0.00000000000E+00 0.  1.
         21   -1    0    0  501  503 -0.00000000000E+00 -0.00000000000E+00 -0.55187941850E+03  0.55187941850E+03  0.00000000000E+00 0.  1.
          6    1    1    2  501    0  0.87741279554E+02  0.17325574979E+02 -0.44293357781E+03  0.48350063293E+03  0.17200000000E+03 0.  1.
         -6    1    1    2    0  502 -0.87741279554E+02 -0.17325574979E+02  0.17309171136E+02  0.19463379740E+03  0.17200000000E+03 0.  1.
</event>
<event>
 4    1  0.2889985E+000  0.1794431E+03  0.7818608E-02  0.1168343E+00
         21   -1    0    0  501  502  0.00000000000E+00  0.00000000000E+00  0.14823142641E+03  0.14823142641E+03  0.00000000000E+00 0. -1.
         21   -1    0    0  502  503 -0.00000000000E+00 -0.00000000000E+00 -0.24624426025E+03  0.24624426025E+03  0.00000000000E+00 0. -1.
          6    1    1    2  501    0 -0.32763549214E+02  0.39273059528E+02  0.18701218390E+02  0.18041496316E+03  0.17200000000E+03 0. -1.
         -6    1    1    2    0  503  0.32763549214E+02 -0.39273059528E+02 -0.11671405223E+03  0.21406072351E+03  0.17200000000E+03 0. -1.
</event>
<event>
 4    1  0.2889985E+000  0.2510590E+03  0.7818608E-02  0.1112637E+00
         21   -1    0    0  501  502  0.00000000000E+00  0.00000000000E+00  0.83335678888E+03  0.83335678888E+03  0.00000000000E+00 0.  1.
         21   -1    0    0  502  503 -0.00000000000E+00 -0.00000000000E+00 -0.11905649978E+03  0.11905649978E+03  0.00000000000E+00 0.  1.
          6    1    1    2  501    0 -0.17284407706E+03  0.59762592121E+02  0.64473969091E+03  0.69189588193E+03  0.17200000000E+03 0.  1.
         -6    1    1    2    0  503  0.17284407706E+03 -0.59762592121E+02  0.69560598182E+02  0.26051740673E+03  0.17200000000E+03 0.  1.
</event>
<event>
 4    1  0.2889985E+000  0.2477798E+03  0.7818608E-02  0.1114716E+00
         21   -1    0    0  501  502  0.00000000000E+00  0.00000000000E+00  0.16338884514E+03  0.16338884514E+03  0.00000000000E+00 0.  1.
         21   -1    0    0  502  503 -0.00000000000E+00 -0.00000000000E+00 -0.65822181470E+03  0.65822181470E+03  0.00000000000E+00 0.  1.
          6    1    1    2  501    0 -0.11708242692E+03 -0.13454564221E+03  0.21693986260E+02  0.24872766949E+03  0.17200000000E+03 0.  1.
         -6    1    1    2    0  503  0.11708242692E+03  0.13454564221E+03 -0.51652695582E+03  0.57288299034E+03  0.17200000000E+03 0.  1.
</event>
<event>
 4    1  0.2889985E+000  0.1950828E+03  0.7818608E-02  0.1153955E+00
         21   -1    0    0  501  502  0.00000000000E+00  0.00000000000E+00  0.61074247559E+02  0.61074247559E+02  0.00000000000E+00 0.  1.
         21   -1    0    0  502  503 -0.00000000000E+00 -0.00000000000E+00 -0.71072111794E+03  0.71072111794E+03  0.00000000000E+00 0. -1.
          6    1    1    2  501    0 -0.57069846707E+02  0.72224235381E+02 -0.18935189719E+03  0.27186660065E+03  0.17200000000E+03 0.  1.
         -6    1    1    2    0  503  0.57069846707E+02 -0.72224235381E+02 -0.46029497319E+03  0.49992876485E+03  0.17200000000E+03 0. -1.
</event>
<event>
 4    1  0.2889985E+000  0.3685836E+03  0.7818608E-02  0.1055236E+00
         21   -1    0    0  503  502  0.00000000000E+00  0.00000000000E+00  0.23322868383E+03  0.23322868383E+03  0.00000000000E+00 0. -1.
         21   -1    0    0  501  503 -0.00000000000E+00 -0.00000000000E+00 -0.84211147220E+03  0.84211147220E+03  0.00000000000E+00 0.  1.
          6    1    1    2  501    0  0.26916203836E+03 -0.18390670788E+03 -0.59034260084E+01  0.36863088657E+03  0.17200000000E+03 0. -1.
         -6    1    1    2    0  502 -0.26916203836E+03  0.18390670788E+03 -0.60297936236E+03  0.70670926946E+03  0.17200000000E+03 0.  1.
</event>
<event>
 4    1  0.2889985E+000  0.2506251E+03  0.7818608E-02  0.1112910E+00
         21   -1    0    0  503  502  0.00000000000E+00  0.00000000000E+00  0.29109397666E+03  0.29109397666E+03  0.00000000000E+00 0. -1.
         21   -1    0    0  501  503 -0.00000000000E+00 -0.00000000000E+00 -0.29261924422E+03  0.29261924422E+03  0.00000000000E+00 0.  1.
          6    1    1    2  501    0  0.12575089287E+03  0.13196842824E+03 -0.15031830589E+03  0.29224740580E+03  0.17200000000E+03 0. -1.
         -6    1    1    2    0  502 -0.12575089287E+03 -0.13196842824E+03  0.14879303832E+03  0.29146581508E+03  0.17200000000E+03 0. -1.
</event>
<event>
 4    1  0.2889985E+000  0.2137777E+03  0.7818608E-02  0.1138609E+00
         21   -1    0    0  501  502  0.00000000000E+00  0.00000000000E+00  0.76760345065E+02  0.76760345065E+02  0.00000000000E+00 0.  1.
         21   -1    0    0  502  503 -0.00000000000E+00 -0.00000000000E+00 -0.85448432577E+03  0.85448432577E+03  0.00000000000E+00 0.  1.
          6    1    1    2  501    0  0.56335132132E+02 -0.11376840881E+03 -0.13245700214E+03  0.25148708788E+03  0.17200000000E+03 0.  1.
         -6    1    1    2    0  503 -0.56335132132E+02  0.11376840881E+03 -0.64526697857E+03  0.67975758295E+03  0.17200000000E+03 0.  1.
</event>
<event>
 4    1  0.2889985E+000  0.1816678E+03  0.7818608E-02  0.1166199E+00
         21   -1    0    0  501  502  0.00000000000E+00  0.00000000000E+00  0.14634635070E+03  0.14634635070E+03  0.00000000000E+00 0.  1.
         21   -1    0    0  502  503 -0.00000000000E+00 -0.00000000000E+00 -0.23463141403E+03  0.23463141403E+03  0.00000000000E+00 0. -1.
          6    1    1    2  501    0  0.37531350636E+02 -0.44839614543E+02 -0.65929160072E+01  0.18178740290E+03  0.17200000000E+03 0. -1.
         -6    1    1    2    0  503 -0.37531350636E+02  0.44839614543E+02 -0.81692147319E+02  0.19919036183E+03  0.17200000000E+03 0.  1.
</event>
<event>
 4    1  0.2889985E+000  0.1747716E+03  0.7818608E-02  0.1172961E+00
         21   -1    0    0  503  502  0.00000000000E+00  0.00000000000E+00  0.15371113844E+04  0.15371113844E+04  0.00000000000E+00 0. -1.
         21   -1    0    0  501  503 -0.00000000000E+00 -0.00000000000E+00 -0.84848357699E+02  0.84848357699E+02  0.00000000000E+00 0. -1.
          6    1    1    2  501    0 -0.27180972302E+02 -0.14910111941E+02  0.16444561616E+02  0.17554355670E+03  0.17200000000E+03 0.  1.
         -6    1    1    2    0  502  0.27180972302E+02  0.14910111941E+02  0.14358184650E+04  0.14464161853E+04  0.17200000000E+03 0.  1.
</event>
<event>
 4    1  0.2889985E+000  0.2890736E+03  0.7818608E-02  0.1090834E+00
         21   -1    0    0  503  502  0.00000000000E+00  0.00000000000E+00  0.38936892933E+03  0.38936892933E+03  0.00000000000E+00 0. -1.
         21   -1    0    0  501  503 -0.00000000000E+00 -0.00000000000E+00 -0.46493072078E+03  0.46493072078E+03  0.00000000000E+00 0.  1.
          6    1    1    2  501    0  0.15905208108E+03  0.16935763908E+03 -0.35120474624E+03  0.45487179313E+03  0.17200000000E+03 0.  1.
         -6    1    1    2    0  502 -0.15905208108E+03 -0.16935763908E+03  0.27564295478E+03  0.39942785698E+03  0.17200000000E+03 0. -1.
</event>
<event>
 4    1  0.2889985E+000  0.1858943E+03  0.7818608E-02  0.1162217E+00
         21   -1    0    0  501  502  0.00000000000E+00  0.00000000000E+00  0.33486013939E+03  0.33486013939E+03  0.00000000000E+00 0.  1.
         21   -1    0    0  502  503 -0.00000000000E+00 -0.00000000000E+00 -0.10322826580E+03  0.10322826580E+03  0.00000000000E+00 0.  1.
          6    1    1    2  501    0 -0.58448125097E+02 -0.39452824477E+02  0.11960122712E+03  0.22104561116E+03  0.17200000000E+03 0.  1.
         -6    1    1    2    0  503  0.58448125097E+02  0.39452824477E+02  0.11203064647E+03  0.21704279402E+03  0.17200000000E+03 0.  1.
</event>
<event>
 4    1  0.2889985E+000  0.1973528E+03  0.7818608E-02  0.1151992E+00
         21   -1    0    0  503  502  0.00000000000E+00  0.00000000000E+00  0.50227322850E+03  0.50227322850E+03  0.00000000000E+00 0.  1.
         21   -1    0    0  501  503 -0.00000000000E+00 -0.00000000000E+00 -0.14875789022E+03  0.14875789022E+03  0.00000000000E+00 0.  1.
          6    1    1    2  501    0  0.43499726122E+02  0.86440088435E+02 -0.48466542229E+02  0.20321693034E+03  0.17200000000E+03 0.  1.
         -6    1    1    2    0  502 -0.43499726122E+02 -0.86440088435E+02  0.40198188051E+03  0.44781418839E+03  0.17200000000E+03 0.  1.
</event>
<event>
 4    1  0.2889985E+000  0.2650687E+03  0.7818608E-02  0.1104136E+00
         21   -1    0    0  501  502  0.00000000000E+00  0.00000000000E+00  0.16751017422E+04  0.16751017422E+04  0.00000000000E+00 0.  1.
         21   -1    0    0  502  503 -0.00000000000E+00 -0.00000000000E+00 -0.54656678765E+02  0.54656678765E+02  0.00000000000E+00 0. -1.
          6    1    1    2  501    0  0.13226022878E+03 -0.15226500486E+03  0.12273251038E+04  0.12556226783E+04  0.17200000000E+03 0.  1.
         -6    1    1    2    0  503 -0.13226022878E+03  0.15226500486E+03  0.39311995966E+03  0.47413574270E+03  0.17200000000E+03 0. -1.
</event>
<event>
 4    1  0.2889985E+000  0.1807620E+03  0.7818608E-02  0.1167068E+00
         21   -1    0    0  503  502  0.00000000000E+00  0.00000000000E+00  0.76797240661E+02  0.76797240661E+02  0.00000000000E+00 0.  1.
         21   -1    0    0  501  503 -0.00000000000E+00 -0.00000000000E+00 -0.81599952451E+03  0.81599952451E+03  0.00000000000E+00 0.  1.
          6    1    1    2  501    0 -0.25142930820E+00 -0.55595257123E+02 -0.67842069150E+03  0.70208940349E+03  0.17200000000E+03 0. -1.
         -6    1    1    2    0  502  0.25142930820E+00  0.55595257123E+02 -0.60781592344E+02  0.19070736168E+03  0.17200000000E+03 0. -1.
</event>
<event>
 4    1  0.2889985E+000  0.1734731E+03  0.7818608E-02  0.1174274E+00
         21   -1    0    0  501  502  0.00000000000E+00  0.00000000000E+00  0.55807217431E+03  0.55807217431E+03  0.00000000000E+00 0.  1.
         21   -1    0    0  502  503 -0.00000000000E+00 -0.00000000000E+00 -0.85096072281E+02  0.85096072281E+02  0.00000000000E+00 0.  1.
          6    1    1    2  501    0 -0.99872437458E+01 -0.20228285899E+02  0.43112693731E+03  0.46471858653E+03  0.17200000000E+03 0.  1.
         -6    1    1    2    0  503  0.99872437458E+01  0.20228285899E+02  0.41849164712E+02  0.17844966006E+03  0.17200000000E+03 0.  1.
</event>
<event>
 4    1  0.2889985E+000  0.1951844E+03  0.7818608E-02  0.1153867E+00
         21   -1    0    0  501  502  0.00000000000E+00  0.00000000000E+00  0.72022018352E+02  0.72022018352E+02  0.00000000000E+00 0.  1.
         21   -1    0    0  502  503 -0.00000000000E+00 -0.00000000000E+00 -0.70935977585E+03  0.70935977585E+03  0.00000000000E+00 0.  1.
          6    1    1    2  501    0  0.56802244508E+02  0.72708060566E+02 -0.12164682994E+03  0.22998893079E+03  0.17200000000E+03 0.  1.
         -6    1    1    2    0  503 -0.56802244508E+02 -0.72708060566E+02 -0.51569092757E+03  0.55139286342E+03  0.17200000000E+03 0.  1.
</event>
<event>
 4    1  0.2889985E+000  0.1805350E+03  0.7818608E-02  0.1167286E+00
         21   -1    0    0  503  502  0.00000000000E+00  0.00000000000E+00  0.43502084866E+03  0.43502084866E+03  0.00000000000E+00 0.  1.
         21   -1    0    0  501  503 -0.00000000000E+00 -0.00000000000E+00 -0.32254449743E+03  0.32254449743E+03  0.00000000000E+00 0. -1.
          6    1    1    2  501    0 -0.18851815703E+02 -0.51511954440E+02 -0.27564852601E+03  0.32950718095E+03  0.17200000000E+03 0. -1.
         -6    1    1    2    0  502  0.18851815703E+02  0.51511954440E+02  0.38812487724E+03  0.42805816514E+03  0.17200000000E+03 0.  1.
</event>
<event>
 4    1  0.2889985E+000  0.2620450E+03  0.7818608E-02  0.1105921E+00
         21   -1    0    0  501  502  0.00000000000E+00  0.00000000000E+00  0.21238421331E+03  0.21238421331E+03  0.00000000000E+00 0.  1.
         21   -1    0    0  502  503 -0.00000000000E+00 -0.00000000000E+00 -0.41555232988E+03  0.41555232988E+03  0.00000000000E+00 0. -1.
          6    1    1    2  501    0 -0.12678526981E+03  0.15168736000E+03  0.46333618903E+02  0.26610968428E+03  0.17200000000E+03 0.  1.
         -6    1    1    2    0  503  0.12678526981E+03 -0.15168736000E+03 -0.24950173547E+03  0.36182685891E+03  0.17200000000E+03 0.  1.
</event>
<event>
 4    1  0.2889985E+000  0.1977809E+03  0.7818608E-02  0.1151625E+00
         21   -1    0    0  503  502  0.00000000000E+00  0.00000000000E+00  0.13246014278E+03  0.13246014278E+03  0.00000000000E+00 0.  1.
         21   -1    0    0  501  503 -0.00000000000E+00 -0.00000000000E+00 -0.14230537897E+04  0.14230537897E+04  0.00000000000E+00 0.  1.
          6    1    1    2  501    0 -0.90071807585E+02 -0.37687406536E+02 -0.13376661123E+04  0.13522085265E+04  0.17200000000E+03 0.  1.
         -6    1    1    2    0  502  0.90071807585E+02  0.37687406536E+02  0.47072465327E+02  0.20330540604E+03  0.17200000000E+03 0.  1.
</event>
<event>
 4    1  0.2889985E+000  0.1948648E+03  0.7818608E-02  0.1154145E+00
         21   -1    0    0  503  502  0.00000000000E+00  0.00000000000E+00  0.52052817352E+03  0.52052817352E+03  0.00000000000E+00 0. -1.
         21   -1    0    0  501  503 -0.00000000000E+00 -0.00000000000E+00 -0.89008549499E+02  0.89008549499E+02  0.00000000000E+00 0.  1.
          6    1    1    2  501    0  0.52344970485E+02 -0.75155062839E+02  0.86306343189E+02  0.21312218158E+03  0.17200000000E+03 0.  1.
         -6    1    1    2    0  502 -0.52344970485E+02  0.75155062839E+02  0.34521328084E+03  0.39641454145E+03  0.17200000000E+03 0. -1.
</event>
<event>
 4    1  0.2889985E+000  0.2471564E+03  0.7818608E-02  0.1115115E+00
         21   -1    0    0  501  502  0.00000000000E+00  0.00000000000E+00  0.40975315650E+02  0.40975315650E+02  0.00000000000E+00 0.  1.
         21   -1    0    0  502  503 -0.00000000000E+00 -0.00000000000E+00 -0.16485669218E+04  0.16485669218E+04  0.00000000000E+00 0. -1.
          6    1    1    2  501    0 -0.12648061798E+03  0.12451874244E+03 -0.54246843414E+03  0.59611933870E+03  0.17200000000E+03 0.  1.
         -6    1    1    2    0  503  0.12648061798E+03 -0.12451874244E+03 -0.10651231720E+04  0.10934228987E+04  0.17200000000E+03 0. -1.
</event>
<event>
 4    1  0.2889985E+000  0.1880321E+03  0.7818608E-02  0.1160248E+00
         21   -1    0    0  501  502  0.00000000000E+00  0.00000000000E+00  0.51298750998E+02  0.51298750998E+02  0.00000000000E+00 0. -1.
         21   -1    0    0  502  503 -0.00000000000E+00 -0.00000000000E+00 -0.70288278606E+03  0.70288278606E+03  0.00000000000E+00 0. -1.
          6    1    1    2  501    0 -0.89505426449E+00 -0.75968871082E+02 -0.37836843828E+03  0.42251478741E+03  0.17200000000E+03 0.  1.
         -6    1    1    2    0  503  0.89505426449E+00  0.75968871082E+02 -0.27321559678E+03  0.33166674965E+03  0.17200000000E+03 0.  1.
</event>
<event>
 4    1  0.2889985E+000  0.2197770E+03  0.7818608E-02  0.1134049E+00
         21   -1    0    0  503  502  0.00000000000E+00  0.00000000000E+00  0.11098695375E+03  0.11098695375E+03  0.00000000000E+00 0.  1.
         21   -1    0    0  501  503 -0.00000000000E+00 -0.00000000000E+00 -0.44037809751E+03  0.44037809751E+03  0.00000000000E+00 0.  1.
          6    1    1    2  501    0 -0.12865011449E+03  0.46551813075E+02 -0.19457896677E+03  0.29353517262E+03  0.17200000000E+03 0.  1.
         -6    1    1    2    0  502  0.12865011449E+03 -0.46551813075E+02 -0.13481217699E+03  0.25782987865E+03  0.17200000000E+03 0.  1.
</event>
<event>
 4    1  0.2889985E+000  0.2266252E+03  0.7818608E-02  0.1129038E+00
         21   -1    0    0  503  502  0.00000000000E+00  0.00000000000E+00  0.55821786996E+03  0.55821786996E+03  0.00000000000E+00 0.  1.
         21   -1    0    0  501  503 -0.00000000000E+00 -0.00000000000E+00 -0.16968592443E+03  0.16968592443E+03  0.00000000000E+00 0. -1.
          6    1    1    2  501    0 -0.90486309611E+02 -0.11656411157E+03 -0.51984812322E+02  0.23251104284E+03  0.17200000000E+03 0. -1.
         -6    1    1    2    0  502  0.90486309611E+02  0.11656411157E+03  0.44051675786E+03  0.49539275155E+03  0.17200000000E+03 0.  1.
</event>
<event>
 4    1  0.2889985E+000  0.2052615E+03  0.7818608E-02  0.1145374E+00
         21   -1    0    0  501  502  0.00000000000E+00  0.00000000000E+00  0.10426887683E+04  0.10426887683E+04  0.00000000000E+00 0. -1.
         21   -1    0    0  502  503 -0.00000000000E+00 -0.00000000000E+00 -0.12355370288E+03  0.12355370288E+03  0.00000000000E+00 0.  1.
          6    1    1    2  501    0 -0.83281446948E+02 -0.74916408196E+02  0.93792508257E+03  0.96012276722E+03  0.17200000000E+03 0. -1.
         -6    1    1    2    0  503  0.83281446948E+02  0.74916408196E+02 -0.18790017125E+02  0.20611970397E+03  0.17200000000E+03 0.  1.
</event>
<event>
 4    1  0.2889985E+000  0.2026987E+03  0.7818608E-02  0.1147482E+00
         21   -1    0    0  501  502  0.00000000000E+00  0.00000000000E+00  0.26152728533E+02  0.26152728533E+02  0.00000000000E+00 0. -1.
         21   -1    0    0  502  503 -0.00000000000E+00 -0.00000000000E+00 -0.15712182256E+04  0.15712182256E+04  0.00000000000E+00 0. -1.
          6    1    1    2  501    0 -0.10442638965E+03 -0.24451690171E+02 -0.78124342422E+03  0.80711092415E+03  0.17200000000E+03 0. -1.
         -6    1    1    2    0  503  0.10442638965E+03  0.24451690171E+02 -0.76382207285E+03  0.79026002998E+03  0.17200000000E+03 0. -1.
</event>
<event>
 4    1  0.2889985E+000  0.1773590E+03  0.7818608E-02  0.1170384E+00
         21   -1    0    0  501  502  0.00000000000E+00  0.00000000000E+00  0.39145060888E+02  0.39145060888E+02  0.00000000000E+00 0. -1.
         21   -1    0    0  502  503 -0.00000000000E+00 -0.00000000000E+00 -0.11093926659E+04  0.11093926659E+04  0.00000000000E+00 0. -1.
          6    1    1    2  501    0  0.30518388020E+02  0.30673314032E+02 -0.23361520356E+03  0.29331261059E+03  0.17200000000E+03 0. -1.
         -6    1    1    2    0  503 -0.30518388020E+02 -0.30673314032E+02 -0.83663240144E+03  0.85522511618E+03  0.17200000000E+03 0. -1.
</event>
<event>
 4    1  0.2889985E+000  0.1881714E+03  0.7818608E-02  0.1160121E+00
         21   -1    0    0  503  502  0.00000000000E+00  0.00000000000E+00  0.22832459718E+03  0.22832459718E+03  0.00000000000E+00 0.  1.
         21   -1    0    0  501  503 -0.00000000000E+00 -0.00000000000E+00 -0.19494797983E+03  0.19494797983E+03  0.00000000000E+00 0.  1.
          6    1    1    2  501    0 -0.71095242913E+02  0.27747961482E+02 -0.79019012928E+02  0.20408941015E+03  0.17200000000E+03 0.  1.
         -6    1    1    2    0  502  0.71095242913E+02 -0.27747961482E+02  0.11239563027E+03  0.21918316686E+03  0.17200000000E+03 0.  1.
</event>
<event>
 4    1  0.2889985E+000  0.2037126E+03  0.7818608E-02  0.1146644E+00
         21   -1    0    0  503  502  0.00000000000E+00  0.00000000000E+00  0.34979146526E+03  0.34979146526E+03  0.00000000000E+00 0.  1.
         21   -1    0    0  501  503 -0.00000000000E+00 -0.00000000000E+00 -0.30683561800E+03  0.30683561800E+03  0.00000000000E+00 0.  1.
          6    1    1    2  501    0 -0.16699930769E+02  0.10787003534E+03 -0.23564575500E+03  0.31149278332E+03  0.17200000000E+03 0.  1.
         -6    1    1    2    0  502  0.16699930769E+02 -0.10787003534E+03  0.27860160226E+03  0.34513429994E+03  0.17200000000E+03 0.  1.
</event>
<event>
 4    1  0.2889985E+000  0.2178488E+03  0.7818608E-02  0.1135497E+00
         21   -1    0    0  501  502  0.00000000000E+00  0.00000000000E+00  0.94921910403E+02  0.94921910403E+02  0.00000000000E+00 0.  1.
         21   -1    0    0  502  503 -0.00000000000E+00 -0.00000000000E+00 -0.14980824118E+04  0.14980824118E+04  0.00000000000E+00 0. -1.
          6    1    1    2  501    0  0.65812578341E+01 -0.13353199579E+03 -0.51437333591E+02  0.22383901836E+03  0.17200000000E+03 0.  1.
         -6    1    1    2    0  503 -0.65812578341E+01  0.13353199579E+03 -0.13517231678E+04  0.13691653038E+04  0.17200000000E+03 0. -1.
</event>
<event>
 4    1  0.2889985E+000  0.1841413E+03  0.7818608E-02  0.1163854E+00
         21   -1    0    0  503  502  0.00000000000E+00  0.00000000000E+00  0.55054082868E+03  0.55054082868E+03  0.00000000000E+00 0. -1.
         21   -1    0    0  501  503 -0.00000000000E+00 -0.00000000000E+00 -0.74107975429E+02  0.74107975429E+02  0.00000000000E+00 0. -1.
          6    1    1    2  501    0  0.63960238598E+02  0.15267289655E+02  0.10985503378E+03  0.21442045309E+03  0.17200000000E+03 0. -1.
         -6    1    1    2    0  502 -0.63960238598E+02 -0.15267289655E+02  0.36657781947E+03  0.41022835102E+03  0.17200000000E+03 0. -1.
</event>
<event>
 4    1  0.2889985E+000  0.1770794E+03  0.7818608E-02  0.1170660E+00
         21   -1    0    0  503  502  0.00000000000E+00  0.00000000000E+00  0.25896914236E+02  0.25896914236E+02  0.00000000000E+00 0. -1.
         21   -1    0    0  501  503 -0.00000000000E+00 -0.00000000000E+00 -0.22167232139E+04  0.22167232139E+04  0.00000000000E+00 0. -1.
          6    1    1    2  501    0 -0.41996736827E+02 -0.30656824351E+01 -0.18507538616E+04  0.18592060081E+04  0.17200000000E+03 0. -1.
         -6    1    1    2    0  502  0.41996736827E+02  0.30656824351E+01 -0.34007243803E+03  0.38341412001E+03  0.17200000000E+03 0. -1.
</event>
<event>
 4    1  0.2889985E+000  0.2131627E+03  0.7818608E-02  0.1139086E+00
         21   -1    0    0  501  502  0.00000000000E+00  0.00000000000E+00  0.69158558822E+03  0.69158558822E+03  0.00000000000E+00 0.  1.
         21   -1    0    0  502  503 -0.00000000000E+00 -0.00000000000E+00 -0.15498163896E+03  0.15498163896E+03  0.00000000000E+00 0.  1.
          6    1    1    2  501    0  0.10262215338E+03  0.72959239029E+02 -0.52966599201E+02  0.21964475308E+03  0.17200000000E+03 0.  1.
         -6    1    1    2    0  503 -0.10262215338E+03 -0.72959239029E+02  0.58957054846E+03  0.62692247411E+03  0.17200000000E+03 0.  1.
</event>
<event>
 4    1  0.2889985E+000  0.1985557E+03  0.7818608E-02  0.1150963E+00
         21   -1    0    0  501  502  0.00000000000E+00  0.00000000000E+00  0.22780962334E+03  0.22780962334E+03  0.00000000000E+00 0.  1.
         21   -1    0    0  502  503 -0.00000000000E+00 -0.00000000000E+00 -0.17422694053E+03  0.17422694053E+03  0.00000000000E+00 0. -1.
          6    1    1    2  501    0 -0.58284849811E+02 -0.80269856625E+02  0.43253848447E+02  0.20321237414E+03  0.17200000000E+03 0.  1.
         -6    1    1    2    0  503  0.58284849811E+02  0.80269856625E+02  0.10328834371E+02  0.19882418972E+03  0.17200000000E+03 0. -1.
</event>
<event>
 4    1  0.2889985E+000  0.1977936E+03  0.7818608E-02  0.1151614E+00
         21   -1    0    0  501  502  0.00000000000E+00  0.00000000000E+00  0.17022167995E+03  0.17022167995E+03  0.00000000000E+00 0.  1.
         21   -1    0    0  502  503 -0.00000000000E+00 -0.00000000000E+00 -0.28976404510E+03  0.28976404510E+03  0.00000000000E+00 0.  1.
          6    1    1    2  501    0  0.90983090263E+02 -0.35501957670E+02  0.44826799886E+02  0.20280964893E+03  0.17200000000E+03 0.  1.
         -6    1    1    2    0  503 -0.90983090263E+02  0.35501957670E+02 -0.16436916504E+03  0.25717607612E+03  0.17200000000E+03 0.  1.
</event>
<event>
 4    1  0.2889985E+000  0.2136135E+03  0.7818608E-02  0.1138736E+00
         21   -1    0    0  501  502  0.00000000000E+00  0.00000000000E+00  0.70854703922E+02  0.70854703922E+02  0.00000000000E+00 0.  1.
         21   -1    0    0  502  503 -0.00000000000E+00 -0.00000000000E+00 -0.70412576942E+03  0.70412576942E+03  0.00000000000E+00 0.  1.
          6    1    1    2  501    0  0.10976533577E+03  0.63232178412E+02 -0.20340846281E+03  0.29496735424E+03  0.17200000000E+03 0. -1.
         -6    1    1    2    0  503 -0.10976533577E+03 -0.63232178412E+02 -0.42986260268E+03  0.48001311910E+03  0.17200000000E+03 0. -1.
</event>
<event>
 4    1  0.2889985E+000  0.3289711E+03  0.7818608E-02  0.1071593E+00
         21   -1    0    0  501  502  0.00000000000E+00  0.00000000000E+00  0.68742300380E+03  0.68742300380E+03  0.00000000000E+00 0.  1.
         21   -1    0    0  502  503 -0.00000000000E+00 -0.00000000000E+00 -0.20933551429E+03  0.20933551429E+03  0.00000000000E+00 0. -1.
          6    1    1    2  501    0  0.15940995726E+03  0.23070855650E+03  0.15776552960E+02  0.32934916447E+03  0.17200000000E+03 0. -1.
         -6    1    1    2    0  503 -0.15940995726E+03 -0.23070855650E+03  0.46231093655E+03  0.56740935362E+03  0.17200000000E+03 0. -1.
</event>
<event>
 4    1  0.2889985E+000  0.2442376E+03  0.7818608E-02  0.1117002E+00
         21   -1    0    0  503  502  0.00000000000E+00  0.00000000000E+00  0.11428004290E+04  0.11428004290E+04  0.00000000000E+00 0.  1.
         21   -1    0    0  501  503 -0.00000000000E+00 -0.00000000000E+00 -0.54196158731E+02  0.54196158731E+02  0.00000000000E+00 0.  1.
          6    1    1    2  501    0  0.37985928066E+02 -0.16918944375E+03  0.65921905423E+03  0.70300907538E+03  0.17200000000E+03 0.  1.
         -6    1    1    2    0  502 -0.37985928066E+02  0.16918944375E+03  0.42938521605E+03  0.49398751236E+03  0.17200000000E+03 0.  1.
</event>
<event>
 4    1  0.2889985E+000  0.1721268E+03  0.7818608E-02  0.1175648E+00
         21   -1    0    0  501  502  0.00000000000E+00  0.00000000000E+00  0.35374510299E+03  0.35374510299E+03  0.00000000000E+00 0.  1.
         21   -1    0    0  502  503 -0.00000000000E+00 -0.00000000000E+00 -0.21097620957E+03  0.21097620957E+03  0.00000000000E+00 0.  1.
          6    1    1    2  501    0  0.29192250125E+01  0.59256657370E+01  0.29064907581E+03  0.33779360660E+03  0.17200000000E+03 0.  1.
         -6    1    1    2    0  503 -0.29192250125E+01 -0.59256657370E+01 -0.14788018239E+03  0.22692770596E+03  0.17200000000E+03 0.  1.
</event>
<event>
 4    1  0.2889985E+000  0.1954898E+03  0.7818608E-02  0.1153601E+00
         21   -1    0    0  501  502  0.00000000000E+00  0.00000000000E+00  0.38815571669E+03  0.38815571669E+03  0.00000000000E+00 0.  1.
         21   -1    0    0  502  503 -0.00000000000E+00 -0.00000000000E+00 -0.14960801320E+03  0.14960801320E+03  0.00000000000E+00 0.  1.
          6    1    1    2  501    0  0.92569954237E+02  0.79411588224E+01 -0.37948923596E+02  0.19913909519E+03  0.17200000000E+03 0. -1.
         -6    1    1    2    0  503 -0.92569954237E+02 -0.79411588224E+01  0.27649662709E+03  0.33862463469E+03  0.17200000000E+03 0. -1.
</event>
<event>
 4    1  0.2889985E+000  0.1836604E+03  0.7818608E-02  0.1164307E+00
         21   -1    0    0  503  502  0.00000000000E+00  0.00000000000E+00  0.10127991580E+03  0.10127991580E+03  0.00000000000E+00 0.  1.
         21   -1    0    0  501  503 -0.00000000000E+00 -0.00000000000E+00 -0.37539378344E+03  0.37539378344E+03  0.00000000000E+00 0. -1.
          6    1    1    2  501    0 -0.37665243893E+02 -0.52234737650E+02 -0.57009124617E+02  0.19230491077E+03  0.17200000000E+03 0. -1.
         -6    1    1    2    0  502  0.37665243893E+02  0.52234737650E+02 -0.21710474303E+03  0.28436878848E+03  0.17200000000E+03 0.  1.
</event>
<event>
 4    1  0.2889985E+000  0.1897851E+03  0.7818608E-02  0.1158655E+00
         21   -1    0    0  501  502  0.00000000000E+00  0.00000000000E+00  0.22027270956E+03  0.22027270956E+03  0.00000000000E+00 0.  1.
         21   -1    0    0  502  503 -0.00000000000E+00 -0.00000000000E+00 -0.29690658309E+03  0.29690658309E+03  0.00000000000E+00 0.  1.
          6    1    1    2  501    0  0.46363518518E+02 -0.65458435445E+02  0.13500830192E+03  0.23290690030E+03  0.17200000000E+03 0.  1.
         -6    1    1    2    0  503 -0.46363518518E+02  0.65458435445E+02 -0.21164217545E+03  0.28427239234E+03  0.17200000000E+03 0.  1.
</event>
<event>
 4    1  0.2889985E+000  0.2537469E+03  0.7818608E-02  0.1110959E+00
         21   -1    0    0  501  502  0.00000000000E+00  0.00000000000E+00  0.28055238057E+03  0.28055238057E+03  0.00000000000E+00 0.  1.
         21   -1    0    0  502  503 -0.00000000000E+00 -0.00000000000E+00 -0.24255780624E+03  0.24255780624E+03  0.00000000000E+00 0. -1.
          6    1    1    2  501    0  0.16916621275E+03  0.78652948206E+02  0.79677603447E+02  0.26596243022E+03  0.17200000000E+03 0. -1.
         -6    1    1    2    0  503 -0.16916621275E+03 -0.78652948206E+02 -0.41683029114E+02  0.25714775658E+03  0.17200000000E+03 0. -1.
</event>
<event>
 4    1  0.2889985E+000  0.2504013E+03  0.7818608E-02  0.1113051E+00
         21   -1    0    0  501  502  0.00000000000E+00  0.00000000000E+00  0.25481875876E+03  0.25481875876E+03  0.00000000000E+00 0.  1.
         21   -1    0    0  502  503 -0.00000000000E+00 -0.00000000000E+00 -0.24608374593E+03  0.24608374593E+03  0.00000000000E+00 0. -1.
          6    1    1    2  501    0 -0.77884715010E+02 -0.16447115819E+03  0.19250087993E+01  0.25040865873E+03  0.17200000000E+03 0.  1.
         -6    1    1    2    0  503  0.77884715010E+02  0.16447115819E+03  0.68100040326E+01  0.25049384596E+03  0.17200000000E+03 0. -1.
</event>
<event>
 4    1  0.2889985E+000  0.1724359E+03  0.7818608E-02  0.1175331E+00
         21   -1    0    0  503  502  0.00000000000E+00  0.00000000000E+00  0.10202571375E+04  0.10202571375E+04  0.00000000000E+00 0. -1.
         21   -1    0    0  501  503 -0.00000000000E+00 -0.00000000000E+00 -0.29553204902E+02  0.29553204902E+02  0.00000000000E+00 0. -1.
          6    1    1    2  501    0 -0.72579910063E+01 -0.98722032906E+01  0.43356864345E+03  0.46660037229E+03  0.17200000000E+03 0. -1.
         -6    1    1    2    0  502  0.72579910063E+01  0.98722032906E+01  0.55713528911E+03  0.58320997008E+03  0.17200000000E+03 0. -1.
</event>
<event>
 4    1  0.2889985E+000  0.1859987E+03  0.7818608E-02  0.1162121E+00
         21   -1    0    0  503  502  0.00000000000E+00  0.00000000000E+00  0.55419095665E+03  0.55419095665E+03  0.00000000000E+00 0. -1.
         21   -1    0    0  501  503 -0.00000000000E+00 -0.00000000000E+00 -0.12037674740E+03  0.12037674740E+03  0.00000000000E+00 0. -1.
          6    1    1    2  501    0 -0.69154683510E+02 -0.15138032121E+02 -0.17114759442E+02  0.18678448881E+03  0.17200000000E+03 0. -1.
         -6    1    1    2    0  502  0.69154683510E+02  0.15138032121E+02  0.45092896869E+03  0.48778321524E+03  0.17200000000E+03 0. -1.
</event>
<event>
 4    1  0.2889985E+000  0.3191015E+03  0.7818608E-02  0.1076064E+00
         21   -1    0    0  503  502  0.00000000000E+00  0.00000000000E+00  0.72181159434E+03  0.72181159434E+03  0.00000000000E+00 0. -1.
         21   -1    0    0  501  503 -0.00000000000E+00 -0.00000000000E+00 -0.28226297626E+03  0.28226297626E+03  0.00000000000E+00 0. -1.
          6    1    1    2  501    0 -0.22803120515E+03  0.14227967548E+03 -0.13529737524E+03  0.34659935995E+03  0.17200000000E+03 0. -1.
         -6    1    1    2    0  502  0.22803120515E+03 -0.14227967548E+03  0.57484599332E+03  0.65747521064E+03  0.17200000000E+03 0. -1.
</event>
<event>
 4    1  0.2889985E+000  0.2228426E+03  0.7818608E-02  0.1131781E+00
         21   -1    0    0  503  502  0.00000000000E+00  0.00000000000E+00  0.11435067364E+03  0.11435067364E+03  0.00000000000E+00 0. -1.
         21   -1    0    0  501  503 -0.00000000000E+00 -0.00000000000E+00 -0.52387695150E+03  0.52387695150E+03  0.00000000000E+00 0.  1.
          6    1    1    2  501    0 -0.81609714019E+02 -0.11582184202E+03 -0.33674265266E+03  0.40380002307E+03  0.17200000000E+03 0.  1.
         -6    1    1    2    0  502  0.81609714019E+02  0.11582184202E+03 -0.72783625197E+02  0.23442760206E+03  0.17200000000E+03 0. -1.
</event>
<event>
 4    1  0.2889985E+000  0.2159863E+03  0.7818608E-02  0.1136911E+00
         21   -1    0    0  501  502  0.00000000000E+00  0.00000000000E+00  0.13111155207E+03  0.13111155207E+03  0.00000000000E+00 0.  1.
         21   -1    0    0  502  503 -0.00000000000E+00 -0.00000000000E+00 -0.12384109481E+04  0.12384109481E+04  0.00000000000E+00 0. -1.
          6    1    1    2  501    0  0.40596769986E+02 -0.12416921226E+03  0.24433454363E+02  0.21736394526E+03  0.17200000000E+03 0.  1.
         -6    1    1    2    0  503 -0.40596769986E+02  0.12416921226E+03 -0.11317328504E+04  0.11521585550E+04  0.17200000000E+03 0. -1.
</event>
<event>
 4    1  0.2889985E+000  0.2371113E+03  0.7818608E-02  0.1121732E+00
         21   -1    0    0  503  502  0.00000000000E+00  0.00000000000E+00  0.81128563915E+03  0.81128563915E+03  0.00000000000E+00 0.  1.
         21   -1    0    0  501  503 -0.00000000000E+00 -0.00000000000E+00 -0.74169918624E+02  0.74169918624E+02  0.00000000000E+00 0. -1.
          6    1    1    2  501    0  0.10253701481E+03 -0.12698001872E+03  0.48200717390E+03  0.53717099722E+03  0.17200000000E+03 0.  1.
         -6    1    1    2    0  502 -0.10253701481E+03  0.12698001872E+03  0.25510854662E+03  0.34828456056E+03  0.17200000000E+03 0. -1.
</event>
<event>
 4    1  0.2889985E+000  0.2267054E+03  0.7818608E-02  0.1128980E+00
         21   -1    0    0  503  502  0.00000000000E+00  0.00000000000E+00  0.13634612483E+04  0.13634612483E+04  0.00000000000E+00 0. -1.
         21   -1    0    0  501  503 -0.00000000000E+00 -0.00000000000E+00 -0.91440089419E+02  0.91440089419E+02  0.00000000000E+00 0.  1.
          6    1    1    2  501    0 -0.14241863562E+03 -0.39092936603E+02  0.78304154738E+02  0.23984758934E+03  0.17200000000E+03 0.  1.
         -6    1    1    2    0  502  0.14241863562E+03  0.39092936603E+02  0.11937170041E+04  0.12150537484E+04  0.17200000000E+03 0. -1.
</event>
<event>
 4    1  0.2889985E+000  0.2309212E+03  0.7818608E-02  0.1125993E+00
         21   -1    0    0  503  502  0.00000000000E+00  0.00000000000E+00  0.22386021425E+03  0.22386021425E+03  0.00000000000E+00 0. -1.
         21   -1    0    0  501  503 -0.00000000000E+00 -0.00000000000E+00 -0.24679739017E+03  0.24679739017E+03  0.00000000000E+00 0.  1.
          6    1    1    2  501    0  0.33414752638E+02 -0.15041290590E+03 -0.55378814615E+02  0.23746873702E+03  0.17200000000E+03 0.  1.
         -6    1    1    2    0  502 -0.33414752638E+02  0.15041290590E+03  0.32441638701E+02  0.23318886740E+03  0.17200000000E+03 0. -1.
</event>
<event>
 4    1  0.2889985E+000  0.1818763E+03  0.7818608E-02  0.1165999E+00
         21   -1    0    0  503  502  0.00000000000E+00  0.00000000000E+00  0.57082101712E+02  0.57082101712E+02  0.00000000000E+00 0.  1.
         21   -1    0    0  501  503 -0.00000000000E+00 -0.00000000000E+00 -0.61691399667E+03  0.61691399667E+03  0.00000000000E+00 0.  1.
          6    1    1    2  501    0 -0.26073055687E+02 -0.53058473033E+02 -0.36290856503E+03  0.40593303926E+03  0.17200000000E+03 0. -1.
         -6    1    1    2    0  502  0.26073055687E+02  0.53058473033E+02 -0.19692332993E+03  0.26806305912E+03  0.17200000000E+03 0. -1.
</event>
<event>
 4    1  0.2889985E+000  0.2068719E+03  0.7818608E-02  0.1144067E+00
         21   -1    0    0  501  502  0.00000000000E+00  0.00000000000E+00  0.11129498858E+04  0.11129498858E+04  0.00000000000E+00 0. -1.
         21   -1    0    0  502  503 -0.00000000000E+00 -0.00000000000E+00 -0.50444883512E+02  0.50444883512E+02  0.00000000000E+00 0.  1.
          6    1    1    2  501    0  0.10642664594E+03 -0.43420672985E+02  0.81487242946E+03  0.84072175070E+03  0.17200000000E+03 0. -1.
         -6    1    1    2    0  503 -0.10642664594E+03  0.43420672985E+02  0.24763257279E+03  0.32267301857E+03  0.17200000000E+03 0.  1.
</event>
<event>
 4    1  0.2889985E+000  0.1941983E+03  0.7818608E-02  0.1154728E+00
         21   -1    0    0  501  502  0.00000000000E+00  0.00000000000E+00  0.84839886268E+02  0.84839886268E+02  0.00000000000E+00 0. -1.
         21   -1    0    0  502  503 -0.00000000000E+00 -0.00000000000E+00 -0.85494535655E+03  0.85494535655E+03  0.00000000000E+00 0. -1.
          6    1    1    2  501    0  0.46261428100E+02 -0.77387837030E+02 -0.71062449019E+03  0.73668186017E+03  0.17200000000E+03 0.  1.
         -6    1    1    2    0  503 -0.46261428100E+02  0.77387837030E+02 -0.59480980096E+02  0.20310338265E+03  0.17200000000E+03 0.  1.
</event>
<event>
 4    1  0.2889985E+000  0.1724469E+03  0.7818608E-02  0.1175320E+00
         21   -1    0    0  501  502  0.00000000000E+00  0.00000000000E+00  0.73927723535E+03  0.73927723535E+03  0.00000000000E+00 0. -1.
         21   -1    0    0  502  503 -0.00000000000E+00 -0.00000000000E+00 -0.10968459935E+03  0.10968459935E+03  0.00000000000E+00 0. -1.
          6    1    1    2  501    0 -0.12406706358E+02 -0.22218785957E-01  0.65258832345E+03  0.67498847899E+03  0.17200000000E+03 0. -1.
         -6    1    1    2    0  503  0.12406706358E+02  0.22218785957E-01 -0.22995687456E+02  0.17397335571E+03  0.17200000000E+03 0. -1.
</event>
<event>
 4    1  0.2889985E+000  0.1858201E+03  0.7818608E-02  0.1162286E+00
         21   -1    0    0  503  502  0.00000000000E+00  0.00000000000E+00  0.22886561449E+03  0.22886561449E+03  0.00000000000E+00 0. -1.
         21   -1    0    0  501  503 -0.00000000000E+00 -0.00000000000E+00 -0.18428666659E+03  0.18428666659E+03  0.00000000000E+00 0. -1.
          6    1    1    2  501    0  0.70317973874E+02  0.70313679792E+00 -0.65675609406E+02  0.19708474706E+03  0.17200000000E+03 0. -1.
         -6    1    1    2    0  502 -0.70317973874E+02 -0.70313679792E+00  0.11025455731E+03  0.21606753402E+03  0.17200000000E+03 0. -1.
</event>
<event>
 4    1  0.2889985E+000  0.1740198E+03  0.7818608E-02  0.1173720E+00
         21   -1    0    0  503  502  0.00000000000E+00  0.00000000000E+00  0.28375404416E+02  0.28375404416E+02  0.00000000000E+00 0.  1.
         21   -1    0    0  501  503 -0.00000000000E+00 -0.00000000000E+00 -0.13603111529E+04  0.13603111529E+04  0.00000000000E+00 0.  1.
          6    1    1    2  501    0  0.21766828216E+02  0.15003165100E+02 -0.98826326420E+03  0.10034675725E+04  0.17200000000E+03 0.  1.
         -6    1    1    2    0  502 -0.21766828216E+02 -0.15003165100E+02 -0.34367248424E+03  0.38521898473E+03  0.17200000000E+03 0.  1.
</event>
<event>
 4    1  0.2889985E+000  0.2222376E+03  0.7818608E-02  0.1132226E+00
         21   -1    0    0  503  502  0.00000000000E+00  0.00000000000E+00  0.69203550486E+02  0.69203550486E+02  0.00000000000E+00 0.  1.
         21   -1    0    0  501  503 -0.00000000000E+00 -0.00000000000E+00 -0.95538265519E+03  0.95538265519E+03  0.00000000000E+00 0.  1.
          6    1    1    2  501    0 -0.10580046078E+03  0.92799879586E+02 -0.70076070585E+03  0.73515652892E+03  0.17200000000E+03 0.  1.
         -6    1    1    2    0  502  0.10580046078E+03 -0.92799879586E+02 -0.18541839886E+03  0.28942967676E+03  0.17200000000E+03 0.  1.
</event>
<event>
 4    1  0.2889985E+000  0.1871939E+03  0.7818608E-02  0.1161017E+00
         21   -1    0    0  503  502  0.00000000000E+00  0.00000000000E+00  0.19828336712E+03  0.19828336712E+03  0.00000000000E+00 0.  1.
         21   -1    0    0  501  503 -0.00000000000E+00 -0.00000000000E+00 -0.41044754311E+03  0.41044754311E+03  0.00000000000E+00 0.  1.
          6    1    1    2  501    0  0.62930110517E+02  0.38695746905E+02 -0.33575889996E+03  0.38441591869E+03  0.17200000000E+03 0.  1.
         -6    1    1    2    0  502 -0.62930110517E+02 -0.38695746905E+02  0.12359472397E+03  0.22431499155E+03  0.17200000000E+03 0.  1.
</event>
<event>
 4    1  0.2889985E+000  0.3702669E+03  0.7818608E-02  0.1054591E+00
         21   -1    0    0  501  502  0.00000000000E+00  0.00000000000E+00  0.12517211365E+03  0.12517211365E+03  0.00000000000E+00 0. -1.
         21   -1    0    0  502  503 -0.00000000000E+00 -0.00000000000E+00 -0.11011560723E+04  0.11011560723E+04  0.00000000000E+00 0. -1.
          6    1    1    2  501    0 -0.12006093529E+03 -0.30512114846E+03 -0.44317095322E+03  0.57749288931E+03  0.17200000000E+03 0. -1.
         -6    1    1    2    0  503  0.12006093529E+03  0.30512114846E+03 -0.53281300541E+03  0.64883529663E+03  0.17200000000E+03 0. -1.
</event>
<event>
 4    1  0.2889985E+000  0.2049765E+03  0.7818608E-02  0.1145607E+00
         21   -1    0    0  503  502  0.00000000000E+00  0.00000000000E+00  0.26550328416E+03  0.26550328416E+03  0.00000000000E+00 0. -1.
         21   -1    0    0  501  503 -0.00000000000E+00 -0.00000000000E+00 -0.22058249679E+03  0.22058249679E+03  0.00000000000E+00 0.  1.
          6    1    1    2  501    0  0.70761117742E+02  0.86164012309E+02 -0.10673930688E+03  0.23110312078E+03  0.17200000000E+03 0.  1.
         -6    1    1    2    0  502 -0.70761117742E+02 -0.86164012309E+02  0.15166009424E+03  0.25498266017E+03  0.17200000000E+03 0.  1.
</event>
<event>
 4    1  0.2889985E+000  0.2328419E+03  0.7818608E-02  0.1124655E+00
         21   -1    0    0  501  502  0.00000000000E+00  0.00000000000E+00  0.82783237349E+03  0.82783237349E+03  0.00000000000E+00 0.  1.
         21   -1    0    0  502  503 -0.00000000000E+00 -0.00000000000E+00 -0.68878673032E+02  0.68878673032E+02  0.00000000000E+00 0.  1.
          6    1    1    2  501    0  0.13795650819E+03  0.74828718109E+02  0.28003961079E+03  0.36419434210E+03  0.17200000000E+03 0.  1.
         -6    1    1    2    0  503 -0.13795650819E+03 -0.74828718109E+02  0.47891408967E+03  0.53251670442E+03  0.17200000000E+03 0.  1.
</event>
<event>
 4    1  0.2889985E+000  0.2393449E+03  0.7818608E-02  0.1120230E+00
         21   -1    0    0  503  502  0.00000000000E+00  0.00000000000E+00  0.34493176358E+03  0.34493176358E+03  0.00000000000E+00 0. -1.
         21   -1    0    0  501  503 -0.00000000000E+00 -0.00000000000E+00 -0.18178779177E+03  0.18178779177E+03  0.00000000000E+00 0.  1.
          6    1    1    2  501    0  0.14676245938E+03  0.78503186670E+02  0.41549427263E+01  0.23938093773E+03  0.17200000000E+03 0.  1.
         -6    1    1    2    0  502 -0.14676245938E+03 -0.78503186670E+02  0.15898902909E+03  0.28733861761E+03  0.17200000000E+03 0. -1.
</event>
<event>
 4    1  0.2889985E+000  0.2447690E+03  0.7818608E-02  0.1116656E+00
         21   -1    0    0  503  502  0.00000000000E+00  0.00000000000E+00  0.28412843322E+03  0.28412843322E+03  0.00000000000E+00 0.  1.
         21   -1    0    0  501  503 -0.00000000000E+00 -0.00000000000E+00 -0.21482668007E+03  0.21482668007E+03  0.00000000000E+00 0.  1.
          6    1    1    2  501    0 -0.16123789728E+03  0.65804378925E+02  0.68542636623E+02  0.25418491073E+03  0.17200000000E+03 0.  1.
         -6    1    1    2    0  502  0.16123789728E+03 -0.65804378925E+02  0.75911652087E+00  0.24477020256E+03  0.17200000000E+03 0.  1.
</event>
<event>
 4    1  0.2889985E+000  0.1966407E+03  0.7818608E-02  0.1152605E+00
         21   -1    0    0  503  502  0.00000000000E+00  0.00000000000E+00  0.15439948966E+04  0.15439948966E+04  0.00000000000E+00 0.  1.
         21   -1    0    0  501  503 -0.00000000000E+00 -0.00000000000E+00 -0.25136834076E+02  0.25136834076E+02  0.00000000000E+00 0.  1.
          6    1    1    2  501    0 -0.63930059599E+02 -0.70686034722E+02  0.71171002764E+03  0.73837573868E+03  0.17200000000E+03 0. -1.
         -6    1    1    2    0  502  0.63930059599E+02  0.70686034722E+02  0.80714803490E+03  0.83075599201E+03  0.17200000000E+03 0. -1.
</event>
<event>
 4    1  0.2889985E+000  0.4726853E+03  0.7818608E-02  0.1021165E+00
         21   -1    0    0  503  502  0.00000000000E+00  0.00000000000E+00  0.10848406305E+04  0.10848406305E+04  0.00000000000E+00 0.  1.
         21   -1    0    0  501  503 -0.00000000000E+00 -0.00000000000E+00 -0.20596974028E+03  0.20596974028E+03  0.00000000000E+00 0. -1.
          6    1    1    2  501    0 -0.23777820500E+03  0.37055218071E+03  0.44434875828E+03  0.64875050088E+03  0.17200000000E+03 0.  1.
         -6    1    1    2    0  502  0.23777820500E+03 -0.37055218071E+03  0.43452213195E+03  0.64205986991E+03  0.17200000000E+03 0.  1.
</event>
<event>
 4    1  0.2889985E+000  0.1785697E+03  0.7818608E-02  0.1169194E+00
         21   -1    0    0  503  502  0.00000000000E+00  0.00000000000E+00  0.87092413295E+03  0.87092413295E+03  0.00000000000E+00 0.  1.
         21   -1    0    0  501  503 -0.00000000000E+00 -0.00000000000E+00 -0.64394719044E+02  0.64394719044E+02  0.00000000000E+00 0.  1.
          6    1    1    2  501    0 -0.47948336369E+02 -0.20248516822E+01  0.96090925574E+02  0.20278217121E+03  0.17200000000E+03 0.  1.
         -6    1    1    2    0  502  0.47948336369E+02  0.20248516822E+01  0.71043848833E+03  0.73253668078E+03  0.17200000000E+03 0.  1.
</event>
<event>
 4    1  0.2889985E+000  0.1910711E+03  0.7818608E-02  0.1157499E+00
         21   -1    0    0  503  502  0.00000000000E+00  0.00000000000E+00  0.14877437331E+04  0.14877437331E+04  0.00000000000E+00 0.  1.
         21   -1    0    0  501  503 -0.00000000000E+00 -0.00000000000E+00 -0.90893092523E+02  0.90893092523E+02  0.00000000000E+00 0.  1.
          6    1    1    2  501    0  0.46053357289E+02  0.69305592571E+02  0.24022003450E+02  0.19257526718E+03  0.17200000000E+03 0.  1.
         -6    1    1    2    0  502 -0.46053357289E+02 -0.69305592571E+02  0.13728286371E+04  0.13860615585E+04  0.17200000000E+03 0.  1.
</event>
<event>
 4    1  0.2889985E+000  0.2031680E+03  0.7818608E-02  0.1147093E+00
         21   -1    0    0  501  502  0.00000000000E+00  0.00000000000E+00  0.43528135127E+03  0.43528135127E+03  0.00000000000E+00 0.  1.
         21   -1    0    0  502  503 -0.00000000000E+00 -0.00000000000E+00 -0.12202515831E+03  0.12202515831E+03  0.00000000000E+00 0.  1.
          6    1    1    2  501    0  0.56865842285E+02  0.91975626551E+02  0.28817911838E+03  0.35259671605E+03  0.17200000000E+03 0.  1.
         -6    1    1    2    0  503 -0.56865842285E+02 -0.91975626551E+02  0.25077074587E+02  0.20470979353E+03  0.17200000000E+03 0.  1.
</event>
<event>
 4    1  0.2889985E+000  0.4772288E+03  0.7818608E-02  0.1019900E+00
         21   -1    0    0  503  502  0.00000000000E+00  0.00000000000E+00  0.15022642442E+04  0.15022642442E+04  0.00000000000E+00 0. -1.
         21   -1    0    0  501  503 -0.00000000000E+00 -0.00000000000E+00 -0.15424058782E+03  0.15424058782E+03  0.00000000000E+00 0.  1.
          6    1    1    2  501    0 -0.41614954831E+03  0.15805986816E+03  0.78232683618E+03  0.91639655559E+03  0.17200000000E+03 0. -1.
         -6    1    1    2    0  502  0.41614954831E+03 -0.15805986816E+03  0.56569682019E+03  0.74010827644E+03  0.17200000000E+03 0.  1.
</event>
<event>
 4    1  0.2889985E+000  0.3082420E+03  0.7818608E-02  0.1081192E+00
         21   -1    0    0  501  502  0.00000000000E+00  0.00000000000E+00  0.20035565594E+03  0.20035565594E+03  0.00000000000E+00 0. -1.
         21   -1    0    0  502  503 -0.00000000000E+00 -0.00000000000E+00 -0.47543085580E+03  0.47543085580E+03  0.00000000000E+00 0. -1.
          6    1    1    2  501    0  0.16459695123E+03 -0.19579834470E+03 -0.15457267057E+03  0.34482728811E+03  0.17200000000E+03 0. -1.
         -6    1    1    2    0  503 -0.16459695123E+03  0.19579834470E+03 -0.12050252929E+03  0.33095922363E+03  0.17200000000E+03 0. -1.
</event>
<event>
 4    1  0.2889985E+000  0.2237871E+03  0.7818608E-02  0.1131091E+00
         21   -1    0    0  503  502  0.00000000000E+00  0.00000000000E+00  0.10377015510E+04  0.10377015510E+04  0.00000000000E+00 0. -1.
         21   -1    0    0  501  503 -0.00000000000E+00 -0.00000000000E+00 -0.53543719969E+02  0.53543719969E+02  0.00000000000E+00 0. -1.
          6    1    1    2  501    0 -0.13280045215E+03 -0.53485717654E+02  0.66345896641E+03  0.70018460580E+03  0.17200000000E+03 0. -1.
         -6    1    1    2    0  502  0.13280045215E+03  0.53485717654E+02  0.32069886467E+03  0.39106066522E+03  0.17200000000E+03 0. -1.
</event>
<event>
 4    1  0.2889985E+000  0.1977975E+03  0.7818608E-02  0.1151611E+00
         21   -1    0    0  503  502  0.00000000000E+00  0.00000000000E+00  0.43652877022E+02  0.43652877022E+02  0.00000000000E+00 0.  1.
         21   -1    0    0  501  503 -0.00000000000E+00 -0.00000000000E+00 -0.91490506545E+03  0.91490506545E+03  0.00000000000E+00 0.  1.
          6    1    1    2  501    0 -0.43135950947E+02  0.87630643816E+02 -0.50406646504E+03  0.54148577190E+03  0.17200000000E+03 0.  1.
         -6    1    1    2    0  502  0.43135950947E+02 -0.87630643816E+02 -0.36718572339E+03  0.41707217056E+03  0.17200000000E+03 0.  1.
</event>
<event>
 4    1  0.2889985E+000  0.2462106E+03  0.7818608E-02  0.1115723E+00
         21   -1    0    0  503  502  0.00000000000E+00  0.00000000000E+00  0.60971850076E+03  0.60971850076E+03  0.00000000000E+00 0. -1.
         21   -1    0    0  501  503 -0.00000000000E+00 -0.00000000000E+00 -0.25962339453E+03  0.25962339453E+03  0.00000000000E+00 0. -1.
          6    1    1    2  501    0  0.96878155476E+02 -0.14714042904E+03 -0.16639786728E+03  0.29716650737E+03  0.17200000000E+03 0. -1.
         -6    1    1    2    0  502 -0.96878155476E+02  0.14714042904E+03  0.51649297351E+03  0.57217538793E+03  0.17200000000E+03 0. -1.
</event>
<event>
 4    1  0.2889985E+000  0.1895734E+03  0.7818608E-02  0.1158847E+00
         21   -1    0    0  501  502  0.00000000000E+00  0.00000000000E+00  0.10519160524E+04  0.10519160524E+04  0.00000000000E+00 0.  1.
         21   -1    0    0  502  503 -0.00000000000E+00 -0.00000000000E+00 -0.91857081809E+02  0.91857081809E+02  0.00000000000E+00 0. -1.
          6    1    1    2  501    0 -0.79557973779E+02  0.49598011310E+01  0.93325460546E+03  0.95231414430E+03  0.17200000000E+03 0.  1.
         -6    1    1    2    0  503  0.79557973779E+02 -0.49598011310E+01  0.26804365106E+02  0.19145898989E+03  0.17200000000E+03 0. -1.
</event>
<event>
 4    1  0.2889985E+000  0.2206149E+03  0.7818608E-02  0.1133425E+00
         21   -1    0    0  503  502  0.00000000000E+00  0.00000000000E+00  0.13334283815E+04  0.13334283815E+04  0.00000000000E+00 0.  1.
         21   -1    0    0  501  503 -0.00000000000E+00 -0.00000000000E+00 -0.88161581092E+02  0.88161581092E+02  0.00000000000E+00 0.  1.
          6    1    1    2  501    0  0.10806976755E+03  0.86068956594E+02  0.78524312053E+02  0.23417302904E+03  0.17200000000E+03 0.  1.
         -6    1    1    2    0  502 -0.10806976755E+03 -0.86068956594E+02  0.11667424883E+04  0.11874169335E+04  0.17200000000E+03 0.  1.
</event>
<event>
 4    1  0.2889985E+000  0.1796631E+03  0.7818608E-02  0.1168129E+00
         21   -1    0    0  503  502  0.00000000000E+00  0.00000000000E+00  0.36299896869E+02  0.36299896869E+02  0.00000000000E+00 0.  1.
         21   -1    0    0  501  503 -0.00000000000E+00 -0.00000000000E+00 -0.10053453136E+04  0.10053453136E+04  0.00000000000E+00 0. -1.
          6    1    1    2  501    0  0.41830562836E+02 -0.30741659418E+02 -0.66152655322E+03  0.68548977106E+03  0.17200000000E+03 0. -1.
         -6    1    1    2    0  502 -0.41830562836E+02  0.30741659418E+02 -0.30751886356E+03  0.35615543946E+03  0.17200000000E+03 0. -1.
</event>
<event>
 4    1  0.2889985E+000  0.2114866E+03  0.7818608E-02  0.1140394E+00
         21   -1    0    0  501  502  0.00000000000E+00  0.00000000000E+00  0.74570754598E+03  0.74570754598E+03  0.00000000000E+00 0. -1.
         21   -1    0    0  502  503 -0.00000000000E+00 -0.00000000000E+00 -0.62148381275E+02  0.62148381275E+02  0.00000000000E+00 0. -1.
          6    1    1    2  501    0  0.83525801088E+02 -0.90366013946E+02  0.41725162005E+03  0.46778786897E+03  0.17200000000E+03 0. -1.
         -6    1    1    2    0  503 -0.83525801088E+02  0.90366013946E+02  0.26630754466E+03  0.34006805828E+03  0.17200000000E+03 0. -1.
</event>
<event>
 4    1  0.2889985E+000  0.1847152E+03  0.7818608E-02  0.1163316E+00
         21   -1    0    0  501  502  0.00000000000E+00  0.00000000000E+00  0.11513245897E+03  0.11513245897E+03  0.00000000000E+00 0.  1.
         21   -1    0    0  502  503 -0.00000000000E+00 -0.00000000000E+00 -0.11326484310E+04  0.11326484310E+04  0.00000000000E+00 0.  1.
          6    1    1    2  501    0 -0.36782522643E+02  0.56415879356E+02  0.27336027755E+02  0.18672697670E+03  0.17200000000E+03 0.  1.
         -6    1    1    2    0  503  0.36782522643E+02 -0.56415879356E+02 -0.10448519998E+04  0.10610539132E+04  0.17200000000E+03 0.  1.
</event>
<event>
 4    1  0.2889985E+000  0.3608591E+03  0.7818608E-02  0.1058244E+00
         21   -1    0    0  503  502  0.00000000000E+00  0.00000000000E+00  0.72015373348E+03  0.72015373348E+03  0.00000000000E+00 0. -1.
         21   -1    0    0  501  503 -0.00000000000E+00 -0.00000000000E+00 -0.22051969679E+03  0.22051969679E+03  0.00000000000E+00 0. -1.
          6    1    1    2  501    0  0.28512743629E+03 -0.13905978591E+03  0.50258360912E+02  0.36434212194E+03  0.17200000000E+03 0. -1.
         -6    1    1    2    0  502 -0.28512743629E+03  0.13905978591E+03  0.44937567577E+03  0.57633130833E+03  0.17200000000E+03 0. -1.
</event>
<event>
 4    1  0.2889985E+000  0.1756697E+03  0.7818608E-02  0.1172061E+00
         21   -1    0    0  503  502  0.00000000000E+00  0.00000000000E+00  0.88513600455E+03  0.88513600455E+03  0.00000000000E+00 0.  1.
         21   -1    0    0  501  503 -0.00000000000E+00 -0.00000000000E+00 -0.54492420319E+02  0.54492420319E+02  0.00000000000E+00 0.  1.
          6    1    1    2  501    0  0.20057986004E+02  0.29555147665E+02  0.69728677592E+03  0.71907487609E+03  0.17200000000E+03 0.  1.
         -6    1    1    2    0  502 -0.20057986004E+02 -0.29555147665E+02  0.13335680832E+03  0.22055354878E+03  0.17200000000E+03 0.  1.
</event>
<event>
 4    1  0.2889985E+000  0.3143743E+03  0.7818608E-02  0.1078268E+00
         21   -1    0    0  501  502  0.00000000000E+00  0.00000000000E+00  0.38938791753E+03  0.38938791753E+03  0.00000000000E+00 0.  1.
         21   -1    0    0  502  503 -0.00000000000E+00 -0.00000000000E+00 -0.32914240691E+03  0.32914240691E+03  0.00000000000E+00 0. -1.
          6    1    1    2  501    0  0.17300267455E+03 -0.19828577423E+03  0.20199647295E+03  0.37367599435E+03  0.17200000000E+03 0.  1.
         -6    1    1    2    0  503 -0.17300267455E+03  0.19828577423E+03 -0.14175096233E+03  0.34485433010E+03  0.17200000000E+03 0. -1.
</event>
<event>
 4    1  0.2889985E+000  0.2149065E+03  0.7818608E-02  0.1137738E+00
         21   -1    0    0  503  502  0.00000000000E+00  0.00000000000E+00  0.43816053443E+02  0.43816053443E+02  0.00000000000E+00 0. -1.
         21   -1    0    0  501  503 -0.00000000000E+00 -0.00000000000E+00 -0.10639326667E+04  0.10639326667E+04  0.00000000000E+00 0. -1.
          6    1    1    2  501    0  0.93594395461E+02  0.88548747303E+02 -0.45670636439E+03  0.50474299874E+03  0.17200000000E+03 0. -1.
         -6    1    1    2    0  502 -0.93594395461E+02 -0.88548747303E+02 -0.56341024891E+03  0.60300572144E+03  0.17200000000E+03 0. -1.
</event>
<event>
 4    1  0.2889985E+000  0.2229058E+03  0.7818608E-02  0.1131735E+00
         21   -1    0    0  503  502  0.00000000000E+00  0.00000000000E+00  0.35678833990E+03  0.35678833990E+03  0.00000000000E+00 0. -1.
         21   -1    0    0  501  503 -0.00000000000E+00 -0.00000000000E+00 -0.33087212382E+03  0.33087212382E+03  0.00000000000E+00 0. -1.
          6    1    1    2  501    0  0.14020081669E+03 -0.21136357533E+02 -0.24869345501E+03  0.33396923388E+03  0.17200000000E+03 0. -1.
         -6    1    1    2    0  502 -0.14020081669E+03  0.21136357533E+02  0.27460967109E+03  0.35369122984E+03  0.17200000000E+03 0. -1.
</event>
<event>
 4    1  0.2889985E+000  0.1766338E+03  0.7818608E-02  0.1171101E+00
         21   -1    0    0  501  502  0.00000000000E+00  0.00000000000E+00  0.82662434739E+02  0.82662434739E+02  0.00000000000E+00 0.  1.
         21   -1    0    0  502  503 -0.00000000000E+00 -0.00000000000E+00 -0.14431842079E+04  0.14431842079E+04  0.00000000000E+00 0. -1.
          6    1    1    2  501    0 -0.18839044956E+02  0.35504999448E+02 -0.24647272444E+02  0.17834517835E+03  0.17200000000E+03 0.  1.
         -6    1    1    2    0  503  0.18839044956E+02 -0.35504999448E+02 -0.13358745007E+04  0.13475014643E+04  0.17200000000E+03 0. -1.
</event>
<event>
 4    1  0.2889985E+000  0.2514348E+03  0.7818608E-02  0.1112401E+00
         21   -1    0    0  501  502  0.00000000000E+00  0.00000000000E+00  0.23114022679E+03  0.23114022679E+03  0.00000000000E+00 0. -1.
         21   -1    0    0  502  503 -0.00000000000E+00 -0.00000000000E+00 -0.27413033497E+03  0.27413033497E+03  0.00000000000E+00 0.  1.
          6    1    1    2  501    0 -0.10639928538E+03  0.14938092239E+03 -0.94899207810E+01  0.25161384402E+03  0.17200000000E+03 0.  1.
         -6    1    1    2    0  503  0.10639928538E+03 -0.14938092239E+03 -0.33500187397E+02  0.25365671775E+03  0.17200000000E+03 0. -1.
</event>
<event>
 4    1  0.2889985E+000  0.2170692E+03  0.7818608E-02  0.1136087E+00
         21   -1    0    0  503  502  0.00000000000E+00  0.00000000000E+00  0.30319437436E+03  0.30319437436E+03  0.00000000000E+00 0. -1.
         21   -1    0    0  501  503 -0.00000000000E+00 -0.00000000000E+00 -0.16061455437E+03  0.16061455437E+03  0.00000000000E+00 0. -1.
          6    1    1    2  501    0  0.76932735741E+02 -0.10777932063E+03  0.29539106357E+02  0.21906982126E+03  0.17200000000E+03 0. -1.
         -6    1    1    2    0  502 -0.76932735741E+02  0.10777932063E+03  0.11304071363E+03  0.24473910746E+03  0.17200000000E+03 0. -1.
</event>
<event>
 4    1  0.2889985E+000  0.1723457E+03  0.7818608E-02  0.1175424E+00
         21   -1    0    0  503  502  0.00000000000E+00  0.00000000000E+00  0.86421173331E+02  0.86421173331E+02  0.00000000000E+00 0. -1.
         21   -1    0    0  501  503 -0.00000000000E+00 -0.00000000000E+00 -0.34796022186E+03  0.34796022186E+03  0.00000000000E+00 0. -1.
          6    1    1    2  501    0  0.97753846856E+01  0.48441087061E+01 -0.10673954229E+03  0.20272235551E+03  0.17200000000E+03 0. -1.
         -6    1    1    2    0  502 -0.97753846856E+01 -0.48441087061E+01 -0.15479950624E+03  0.23165903968E+03  0.17200000000E+03 0. -1.
</event>
<event>
 4    1  0.2889985E+000  0.2415525E+03  0.7818608E-02  0.1118763E+00
         21   -1    0    0  503  502  0.00000000000E+00  0.00000000000E+00  0.19283937867E+03  0.19283937867E+03  0.00000000000E+00 0.  1.
         21   -1    0    0  501  503 -0.00000000000E+00 -0.00000000000E+00 -0.30435514808E+03  0.30435514808E+03  0.00000000000E+00 0. -1.
          6    1    1    2  501    0  0.14258728229E+03  0.91828603660E+02 -0.36724866693E+02  0.24432834742E+03  0.17200000000E+03 0.  1.
         -6    1    1    2    0  502 -0.14258728229E+03 -0.91828603660E+02 -0.74790902709E+02  0.25286617933E+03  0.17200000000E+03 0. -1.
</event>
<event>
 4    1  0.2889985E+000  0.1975842E+03  0.7818608E-02  0.1151793E+00
         21   -1    0    0  503  502  0.00000000000E+00  0.00000000000E+00  0.29749118031E+03  0.29749118031E+03  0.00000000000E+00 0. -1.
         21   -1    0    0  501  503 -0.00000000000E+00 -0.00000000000E+00 -0.39250078906E+03  0.39250078906E+03  0.00000000000E+00 0. -1.
          6    1    1    2  501    0  0.21677535940E+02 -0.94792397099E+02 -0.32897985763E+03  0.38375416720E+03  0.17200000000E+03 0. -1.
         -6    1    1    2    0  502 -0.21677535940E+02  0.94792397099E+02  0.23397024889E+03  0.30623780217E+03  0.17200000000E+03 0. -1.
</event>
<event>
 4    1  0.2889985E+000  0.2941246E+03  0.7818608E-02  0.1088215E+00
         21   -1    0    0  501  502  0.00000000000E+00  0.00000000000E+00  0.41041508756E+03  0.41041508756E+03  0.00000000000E+00 0. -1.
         21   -1    0    0  502  503 -0.00000000000E+00 -0.00000000000E+00 -0.21450586966E+03  0.21450586966E+03  0.00000000000E+00 0. -1.
          6    1    1    2  501    0  0.20399139649E+03 -0.12374474418E+03  0.56800717317E+02  0.29955896422E+03  0.17200000000E+03 0. -1.
         -6    1    1    2    0  503 -0.20399139649E+03  0.12374474418E+03  0.13910850058E+03  0.32536199300E+03  0.17200000000E+03 0. -1.
</event>
<event>
 4    1  0.2889985E+000  0.5621603E+03  0.7818608E-02  0.9987178E-01
         21   -1    0    0  501  502  0.00000000000E+00  0.00000000000E+00  0.48514159367E+03  0.48514159367E+03  0.00000000000E+00 0.  1.
         21   -1    0    0  502  503 -0.00000000000E+00 -0.00000000000E+00 -0.66675908288E+03  0.66675908288E+03  0.00000000000E+00 0. -1.
          6    1    1    2  501    0  0.33252962366E+03  0.41936174954E+03 -0.17820562998E+03  0.58973000106E+03  0.17200000000E+03 0.  1.
         -6    1    1    2    0  503 -0.33252962366E+03 -0.41936174954E+03 -0.34118592285E+01  0.56217067549E+03  0.17200000000E+03 0. -1.
</event>
<event>
 4    1  0.2889985E+000  0.1827703E+03  0.7818608E-02  0.1165149E+00
         21   -1    0    0  503  502  0.00000000000E+00  0.00000000000E+00  0.87654391032E+02  0.87654391032E+02  0.00000000000E+00 0. -1.
         21   -1    0    0  501  503 -0.00000000000E+00 -0.00000000000E+00 -0.46565837272E+03  0.46565837272E+03  0.00000000000E+00 0. -1.
          6    1    1    2  501    0 -0.59593986024E+02  0.16417806860E+02 -0.71108928656E+02  0.19611595368E+03  0.17200000000E+03 0. -1.
         -6    1    1    2    0  502  0.59593986024E+02 -0.16417806860E+02 -0.30689505304E+03  0.35719681008E+03  0.17200000000E+03 0. -1.
</event>
<event>
 4    1  0.2889985E+000  0.3354786E+03  0.7818608E-02  0.1068738E+00
         21   -1    0    0  501  502  0.00000000000E+00  0.00000000000E+00  0.43715488336E+03  0.43715488336E+03  0.00000000000E+00 0.  1.
         21   -1    0    0  502  503 -0.00000000000E+00 -0.00000000000E+00 -0.31121561629E+03  0.31121561629E+03  0.00000000000E+00 0. -1.
          6    1    1    2  501    0  0.26955704221E+03  0.10149333898E+03  0.21849629492E+03  0.40035799949E+03  0.17200000000E+03 0.  1.
         -6    1    1    2    0  503 -0.26955704221E+03 -0.10149333898E+03 -0.92557027860E+02  0.34801250016E+03  0.17200000000E+03 0. -1.
</event>
<event>
 4    1  0.2889985E+000  0.3871285E+03  0.7818608E-02  0.1048330E+00
         21   -1    0    0  501  502  0.00000000000E+00  0.00000000000E+00  0.18976421066E+04  0.18976421066E+04  0.00000000000E+00 0. -1.
         21   -1    0    0  502  503 -0.00000000000E+00 -0.00000000000E+00 -0.84668292645E+02  0.84668292645E+02  0.00000000000E+00 0. -1.
          6    1    1    2  501    0  0.89043767535E+02  0.33519501180E+03  0.11634783906E+04  0.12261934814E+04  0.17200000000E+03 0. -1.
         -6    1    1    2    0  503 -0.89043767535E+02 -0.33519501180E+03  0.64949542337E+03  0.75611691785E+03  0.17200000000E+03 0. -1.
</event>
<event>
 4    1  0.2889985E+000  0.2370722E+03  0.7818608E-02  0.1121759E+00
         21   -1    0    0  503  502  0.00000000000E+00  0.00000000000E+00  0.83321792418E+02  0.83321792418E+02  0.00000000000E+00 0.  1.
         21   -1    0    0  501  503 -0.00000000000E+00 -0.00000000000E+00 -0.78231444011E+03  0.78231444011E+03  0.00000000000E+00 0. -1.
          6    1    1    2  501    0  0.11535178331E+03 -0.11538272265E+03 -0.51014937305E+03  0.56254385556E+03  0.17200000000E+03 0. -1.
         -6    1    1    2    0  502 -0.11535178331E+03  0.11538272265E+03 -0.18884327463E+03  0.30309237697E+03  0.17200000000E+03 0.  1.
</event>
<event>
 4    1  0.2889985E+000  0.1870204E+03  0.7818608E-02  0.1161176E+00
         21   -1    0    0  503  502  0.00000000000E+00  0.00000000000E+00  0.52883919009E+03  0.52883919009E+03  0.00000000000E+00 0.  1.
         21   -1    0    0  501  503 -0.00000000000E+00 -0.00000000000E+00 -0.69763027440E+02  0.69763027440E+02  0.00000000000E+00 0.  1.
          6    1    1    2  501    0  0.58141398818E+02 -0.44857758992E+02  0.16131674431E+03  0.24698123976E+03  0.17200000000E+03 0.  1.
         -6    1    1    2    0  502 -0.58141398818E+02  0.44857758992E+02  0.29775941834E+03  0.35162097777E+03  0.17200000000E+03 0.  1.
</event>
<event>
 4    1  0.2889985E+000  0.2396166E+03  0.7818608E-02  0.1120048E+00
         21   -1    0    0  503  502  0.00000000000E+00  0.00000000000E+00  0.25157903905E+03  0.25157903905E+03  0.00000000000E+00 0.  1.
         21   -1    0    0  501  503 -0.00000000000E+00 -0.00000000000E+00 -0.33879537280E+03  0.33879537280E+03  0.00000000000E+00 0.  1.
          6    1    1    2  501    0  0.16670746976E+03 -0.63826027081E+01 -0.21224488759E+03  0.32010000062E+03  0.17200000000E+03 0.  1.
         -6    1    1    2    0  502 -0.16670746976E+03  0.63826027081E+01  0.12502855384E+03  0.27027441123E+03  0.17200000000E+03 0.  1.
</event>
<event>
 4    1  0.2889985E+000  0.1726325E+03  0.7818608E-02  0.1175130E+00
         21   -1    0    0  501  502  0.00000000000E+00  0.00000000000E+00  0.19509258924E+03  0.19509258924E+03  0.00000000000E+00 0. -1.
         21   -1    0    0  502  503 -0.00000000000E+00 -0.00000000000E+00 -0.25628568023E+03  0.25628568023E+03  0.00000000000E+00 0. -1.
          6    1    1    2  501    0  0.14495385716E+02 -0.28037147144E+01  0.11284550082E+03  0.20624277946E+03  0.17200000000E+03 0. -1.
         -6    1    1    2    0  503 -0.14495385716E+02  0.28037147144E+01 -0.17403859182E+03  0.24513549002E+03  0.17200000000E+03 0. -1.
</event>
<event>
 4    1  0.2889985E+000  0.2401979E+03  0.7818608E-02  0.1119661E+00
         21   -1    0    0  503  502  0.00000000000E+00  0.00000000000E+00  0.21419670291E+02  0.21419670291E+02  0.00000000000E+00 0. -1.
         21   -1    0    0  501  503 -0.00000000000E+00 -0.00000000000E+00 -0.27127520988E+04  0.27127520988E+04  0.00000000000E+00 0.  1.
          6    1    1    2  501    0 -0.16621446898E+03 -0.21995345293E+02 -0.14606711603E+04  0.14802889189E+04  0.17200000000E+03 0.  1.
         -6    1    1    2    0  502  0.16621446898E+03  0.21995345293E+02 -0.12306612682E+04  0.12538828502E+04  0.17200000000E+03 0. -1.
</event>
<event>
 4    1  0.2889985E+000  0.2475971E+03  0.7818608E-02  0.1114833E+00
         21   -1    0    0  503  502  0.00000000000E+00  0.00000000000E+00  0.22421967000E+04  0.22421967000E+04  0.00000000000E+00 0. -1.
         21   -1    0    0  501  503 -0.00000000000E+00 -0.00000000000E+00 -0.52000887488E+02  0.52000887488E+02  0.00000000000E+00 0.  1.
          6    1    1    2  501    0  0.17896946118E+02 -0.17720048019E+03  0.30516650725E+03  0.39297698152E+03  0.17200000000E+03 0.  1.
         -6    1    1    2    0  502 -0.17896946118E+02  0.17720048019E+03  0.18850293053E+04  0.19012206060E+04  0.17200000000E+03 0. -1.
</event>
<event>
 4    1  0.2889985E+000  0.2245530E+03  0.7818608E-02  0.1130533E+00
         21   -1    0    0  503  502  0.00000000000E+00  0.00000000000E+00  0.78745899621E+03  0.78745899621E+03  0.00000000000E+00 0. -1.
         21   -1    0    0  501  503 -0.00000000000E+00 -0.00000000000E+00 -0.64115104396E+02  0.64115104396E+02  0.00000000000E+00 0.  1.
          6    1    1    2  501    0  0.27786445911E+02  0.14166147914E+03  0.37682617534E+03  0.43865935265E+03  0.17200000000E+03 0. -1.
         -6    1    1    2    0  502 -0.27786445911E+02 -0.14166147914E+03  0.34651771647E+03  0.41291474795E+03  0.17200000000E+03 0.  1.
</event>
<event>
 4    1  0.2889985E+000  0.2077135E+03  0.7818608E-02  0.1143390E+00
         21   -1    0    0  503  502  0.00000000000E+00  0.00000000000E+00  0.10075984831E+03  0.10075984831E+03  0.00000000000E+00 0. -1.
         21   -1    0    0  501  503 -0.00000000000E+00 -0.00000000000E+00 -0.10426947695E+04  0.10426947695E+04  0.00000000000E+00 0.  1.
          6    1    1    2  501    0 -0.52539712718E+02 -0.10392532209E+03 -0.90987303214E+03  0.93328121624E+03  0.17200000000E+03 0.  1.
         -6    1    1    2    0  502  0.52539712718E+02  0.10392532209E+03 -0.32061889008E+02  0.21017340153E+03  0.17200000000E+03 0. -1.
</event>
<event>
 4    1  0.2889985E+000  0.1827411E+03  0.7818608E-02  0.1165176E+00
         21   -1    0    0  503  502  0.00000000000E+00  0.00000000000E+00  0.10820359065E+04  0.10820359065E+04  0.00000000000E+00 0. -1.
         21   -1    0    0  501  503 -0.00000000000E+00 -0.00000000000E+00 -0.94170069599E+02  0.94170069599E+02  0.00000000000E+00 0. -1.
          6    1    1    2  501    0 -0.60075463098E+02  0.14186171607E+02  0.11735547369E+02  0.18311753549E+03  0.17200000000E+03 0. -1.
         -6    1    1    2    0  502  0.60075463098E+02 -0.14186171607E+02  0.97613028958E+03  0.99308844066E+03  0.17200000000E+03 0. -1.
</event>
<event>
 4    1  0.2889985E+000  0.1724556E+03  0.7818608E-02  0.1175311E+00
         21   -1    0    0  503  502  0.00000000000E+00  0.00000000000E+00  0.60379008733E+02  0.60379008733E+02  0.00000000000E+00 0. -1.
         21   -1    0    0  501  503 -0.00000000000E+00 -0.00000000000E+00 -0.53506960808E+03  0.53506960808E+03  0.00000000000E+00 0. -1.
          6    1    1    2  501    0  0.86948044522E+01  0.90188866037E+01 -0.15343848228E+03  0.23083393985E+03  0.17200000000E+03 0. -1.
         -6    1    1    2    0  502 -0.86948044522E+01 -0.90188866037E+01 -0.32125211706E+03  0.36461467696E+03  0.17200000000E+03 0. -1.
</event>
<event>
 4    1  0.2889985E+000  0.1844212E+03  0.7818608E-02  0.1163592E+00
         21   -1    0    0  503  502  0.00000000000E+00  0.00000000000E+00  0.57105500576E+03  0.57105500576E+03  0.00000000000E+00 0. -1.
         21   -1    0    0  501  503 -0.00000000000E+00 -0.00000000000E+00 -0.90140540876E+02  0.90140540876E+02  0.00000000000E+00 0. -1.
          6    1    1    2  501    0 -0.97790020690E+01 -0.65814374636E+02  0.43302043932E+03  0.47065684066E+03  0.17200000000E+03 0. -1.
         -6    1    1    2    0  502  0.97790020690E+01  0.65814374636E+02  0.47894025563E+02  0.19053870598E+03  0.17200000000E+03 0. -1.
</event>
<event>
 4    1  0.2889985E+000  0.1957893E+03  0.7818608E-02  0.1153341E+00
         21   -1    0    0  501  502  0.00000000000E+00  0.00000000000E+00  0.82997496394E+02  0.82997496394E+02  0.00000000000E+00 0. -1.
         21   -1    0    0  502  503 -0.00000000000E+00 -0.00000000000E+00 -0.61667447069E+03  0.61667447069E+03  0.00000000000E+00 0. -1.
          6    1    1    2  501    0 -0.92079211488E+02  0.16457857982E+02 -0.91555980480E+02  0.21613870509E+03  0.17200000000E+03 0. -1.
         -6    1    1    2    0  503  0.92079211488E+02 -0.16457857982E+02 -0.44212099382E+03  0.48353326199E+03  0.17200000000E+03 0. -1.
</event>
<event>
 4    1  0.2889985E+000  0.1757775E+03  0.7818608E-02  0.1171953E+00
         21   -1    0    0  503  502  0.00000000000E+00  0.00000000000E+00  0.18032729868E+03  0.18032729868E+03  0.00000000000E+00 0.  1.
         21   -1    0    0  501  503 -0.00000000000E+00 -0.00000000000E+00 -0.43441506178E+03  0.43441506178E+03  0.00000000000E+00 0.  1.
          6    1    1    2  501    0  0.16216902992E+02 -0.32415136923E+02  0.11214913155E+03  0.20850697051E+03  0.17200000000E+03 0.  1.
         -6    1    1    2    0  502 -0.16216902992E+02  0.32415136923E+02 -0.36623689465E+03  0.40623538995E+03  0.17200000000E+03 0.  1.
</event>
<event>
 4    1  0.2889985E+000  0.1899734E+03  0.7818608E-02  0.1158485E+00
         21   -1    0    0  503  502  0.00000000000E+00  0.00000000000E+00  0.29436767418E+03  0.29436767418E+03  0.00000000000E+00 0. -1.
         21   -1    0    0  501  503 -0.00000000000E+00 -0.00000000000E+00 -0.44459758276E+03  0.44459758276E+03  0.00000000000E+00 0. -1.
          6    1    1    2  501    0 -0.56025539577E+02 -0.58026177538E+02 -0.38955352681E+03  0.43340725491E+03  0.17200000000E+03 0. -1.
         -6    1    1    2    0  502  0.56025539577E+02  0.58026177538E+02  0.23932361822E+03  0.30555800203E+03  0.17200000000E+03 0. -1.
</event>
<event>
 4    1  0.2889985E+000  0.1723669E+03  0.7818608E-02  0.1175402E+00
         21   -1    0    0  503  502  0.00000000000E+00  0.00000000000E+00  0.19249966808E+04  0.19249966808E+04  0.00000000000E+00 0.  1.
         21   -1    0    0  501  503 -0.00000000000E+00 -0.00000000000E+00 -0.18452549984E+02  0.18452549984E+02  0.00000000000E+00 0.  1.
          6    1    1    2  501    0  0.81227936580E+01  0.77695902762E+01  0.56025070426E+03  0.58616652748E+03  0.17200000000E+03 0.  1.
         -6    1    1    2    0  502 -0.81227936580E+01 -0.77695902762E+01  0.13462934266E+04  0.13572827033E+04  0.17200000000E+03 0.  1.
</event>
<event>
 4    1  0.2889985E+000  0.2080099E+03  0.7818608E-02  0.1143152E+00
         21   -1    0    0  501  502  0.00000000000E+00  0.00000000000E+00  0.76403382795E+02  0.76403382795E+02  0.00000000000E+00 0. -1.
         21   -1    0    0  502  503 -0.00000000000E+00 -0.00000000000E+00 -0.57558034558E+03  0.57558034558E+03  0.00000000000E+00 0.  1.
          6    1    1    2  501    0 -0.30363982804E+02 -0.11296976019E+03 -0.29095598304E+03  0.35766397950E+03  0.17200000000E+03 0.  1.
         -6    1    1    2    0  503  0.30363982804E+02  0.11296976019E+03 -0.20822097975E+03  0.29431974887E+03  0.17200000000E+03 0.  1.
</event>
<event>
 4    1  0.2889985E+000  0.1759887E+03  0.7818608E-02  0.1171743E+00
         21   -1    0    0  501  502  0.00000000000E+00  0.00000000000E+00  0.24326795085E+03  0.24326795085E+03  0.00000000000E+00 0. -1.
         21   -1    0    0  502  503 -0.00000000000E+00 -0.00000000000E+00 -0.26525693829E+03  0.26525693829E+03  0.00000000000E+00 0. -1.
          6    1    1    2  501    0  0.33391336179E+02  0.16523448294E+02  0.17236135244E+03  0.24633400393E+03  0.17200000000E+03 0. -1.
         -6    1    1    2    0  503 -0.33391336179E+02 -0.16523448294E+02 -0.19435033989E+03  0.26219088521E+03  0.17200000000E+03 0. -1.
</event>
<event>
 4    1  0.2889985E+000  0.1934190E+03  0.7818608E-02  0.1155413E+00
         21   -1    0    0  501  502  0.00000000000E+00  0.00000000000E+00  0.23931745183E+03  0.23931745183E+03  0.00000000000E+00 0. -1.
         21   -1    0    0  502  503 -0.00000000000E+00 -0.00000000000E+00 -0.42309858296E+03  0.42309858296E+03  0.00000000000E+00 0. -1.
          6    1    1    2  501    0 -0.88445484112E+02  0.20753899327E+01  0.17110764412E+03  0.25824162480E+03  0.17200000000E+03 0. -1.
         -6    1    1    2    0  503  0.88445484112E+02 -0.20753899327E+01 -0.35488877524E+03  0.40417441000E+03  0.17200000000E+03 0. -1.
</event>
<event>
 4    1  0.2889985E+000  0.1999365E+03  0.7818608E-02  0.1149793E+00
         21   -1    0    0  501  502  0.00000000000E+00  0.00000000000E+00  0.17000957877E+04  0.17000957877E+04  0.00000000000E+00 0. -1.
         21   -1    0    0  502  503 -0.00000000000E+00 -0.00000000000E+00 -0.27326780159E+02  0.27326780159E+02  0.00000000000E+00 0.  1.
          6    1    1    2  501    0 -0.99942685016E+02  0.20051639690E+02  0.11590433720E+04  0.11761616159E+04  0.17200000000E+03 0. -1.
         -6    1    1    2    0  503  0.99942685016E+02 -0.20051639690E+02  0.51372563556E+03  0.55126095198E+03  0.17200000000E+03 0.  1.
</event>
<event>
 4    1  0.2889985E+000  0.1927170E+03  0.7818608E-02  0.1156033E+00
         21   -1    0    0  501  502  0.00000000000E+00  0.00000000000E+00  0.82541648437E+02  0.82541648437E+02  0.00000000000E+00 0.  1.
         21   -1    0    0  502  503 -0.00000000000E+00 -0.00000000000E+00 -0.56362066293E+03  0.56362066293E+03  0.00000000000E+00 0. -1.
          6    1    1    2  501    0  0.86916685099E+02 -0.11563469981E+01 -0.95449671769E+02  0.21505926422E+03  0.17200000000E+03 0.  1.
         -6    1    1    2    0  503 -0.86916685099E+02  0.11563469981E+01 -0.38562934272E+03  0.43110304714E+03  0.17200000000E+03 0. -1.
</event>
<event>
 4    1  0.2889985E+000  0.2322946E+03  0.7818608E-02  0.1125035E+00
         21   -1    0    0  501  502  0.00000000000E+00  0.00000000000E+00  0.67465066819E+02  0.67465066819E+02  0.00000000000E+00 0. -1.
         21   -1    0    0  502  503 -0.00000000000E+00 -0.00000000000E+00 -0.81942656673E+03  0.81942656673E+03  0.00000000000E+00 0.  1.
          6    1    1    2  501    0  0.14684311806E+03  0.53045830575E+02 -0.30740880735E+03  0.38530628895E+03  0.17200000000E+03 0.  1.
         -6    1    1    2    0  503 -0.14684311806E+03 -0.53045830575E+02 -0.44455269256E+03  0.50158534460E+03  0.17200000000E+03 0. -1.
</event>
<event>
 4    1  0.2889985E+000  0.1753026E+03  0.7818608E-02  0.1172428E+00
         21   -1    0    0  503  502  0.00000000000E+00  0.00000000000E+00  0.17006568413E+03  0.17006568413E+03  0.00000000000E+00 0.  1.
         21   -1    0    0  501  503 -0.00000000000E+00 -0.00000000000E+00 -0.20348073709E+03  0.20348073709E+03  0.00000000000E+00 0.  1.
          6    1    1    2  501    0 -0.29144959010E+02 -0.17250528537E+02 -0.79200178924E+02  0.19236340014E+03  0.17200000000E+03 0.  1.
         -6    1    1    2    0  502  0.29144959010E+02  0.17250528537E+02  0.45785125966E+02  0.18118302109E+03  0.17200000000E+03 0.  1.
</event>
<event>
 4    1  0.2889985E+000  0.2105152E+03  0.7818608E-02  0.1141159E+00
         21   -1    0    0  503  502  0.00000000000E+00  0.00000000000E+00  0.49017705985E+03  0.49017705985E+03  0.00000000000E+00 0. -1.
         21   -1    0    0  501  503 -0.00000000000E+00 -0.00000000000E+00 -0.26327728406E+03  0.26327728406E+03  0.00000000000E+00 0. -1.
          6    1    1    2  501    0  0.98609915714E+02 -0.70772398297E+02  0.41871510476E+03  0.46865657660E+03  0.17200000000E+03 0. -1.
         -6    1    1    2    0  502 -0.98609915714E+02  0.70772398297E+02 -0.19181532897E+03  0.28479776731E+03  0.17200000000E+03 0. -1.
</event>
<event>
 4    1  0.2889985E+000  0.2235450E+03  0.7818608E-02  0.1131267E+00
         21   -1    0    0  503  502  0.00000000000E+00  0.00000000000E+00  0.10352210738E+04  0.10352210738E+04  0.00000000000E+00 0. -1.
         21   -1    0    0  501  503 -0.00000000000E+00 -0.00000000000E+00 -0.90594059548E+02  0.90594059548E+02  0.00000000000E+00 0. -1.
          6    1    1    2  501    0 -0.81049272087E+02 -0.11755589539E+03  0.87571395640E+02  0.24008565634E+03  0.17200000000E+03 0. -1.
         -6    1    1    2    0  502  0.81049272087E+02  0.11755589539E+03  0.85705561864E+03  0.88572947703E+03  0.17200000000E+03 0. -1.
</event>
<event>
 4    1  0.2889985E+000  0.1808340E+03  0.7818608E-02  0.1166998E+00
         21   -1    0    0  501  502  0.00000000000E+00  0.00000000000E+00  0.23535581558E+03  0.23535581558E+03  0.00000000000E+00 0. -1.
         21   -1    0    0  502  503 -0.00000000000E+00 -0.00000000000E+00 -0.53997762756E+03  0.53997762756E+03  0.00000000000E+00 0.  1.
          6    1    1    2  501    0  0.40518619627E+02 -0.38407804532E+02  0.18177785272E+03  0.25640613434E+03  0.17200000000E+03 0. -1.
         -6    1    1    2    0  503 -0.40518619627E+02  0.38407804532E+02 -0.48639966471E+03  0.51892730879E+03  0.17200000000E+03 0.  1.
</event>
<event>
 4    1  0.2889985E+000  0.1795976E+03  0.7818608E-02  0.1168193E+00
         21   -1    0    0  501  502  0.00000000000E+00  0.00000000000E+00  0.23806213898E+03  0.23806213898E+03  0.00000000000E+00 0.  1.
         21   -1    0    0  502  503 -0.00000000000E+00 -0.00000000000E+00 -0.38012940004E+03  0.38012940004E+03  0.00000000000E+00 0.  1.
          6    1    1    2  501    0 -0.17219771634E+02 -0.48731846777E+02  0.17693086994E+03  0.25211078153E+03  0.17200000000E+03 0.  1.
         -6    1    1    2    0  503  0.17219771634E+02  0.48731846777E+02 -0.31899813100E+03  0.36608075750E+03  0.17200000000E+03 0.  1.
</event>
<event>
 4    1  0.2889985E+000  0.2013426E+03  0.7818608E-02  0.1148611E+00
         21   -1    0    0  501  502  0.00000000000E+00  0.00000000000E+00  0.40481684163E+03  0.40481684163E+03  0.00000000000E+00 0.  1.
         21   -1    0    0  502  503 -0.00000000000E+00 -0.00000000000E+00 -0.11238570925E+03  0.11238570925E+03  0.00000000000E+00 0. -1.
          6    1    1    2  501    0 -0.10325170904E+03 -0.17144848674E+02  0.23157373042E+03  0.30686357535E+03  0.17200000000E+03 0.  1.
         -6    1    1    2    0  503  0.10325170904E+03  0.17144848674E+02  0.60857401960E+02  0.21033897554E+03  0.17200000000E+03 0.  1.
</event>
<event>
 4    1  0.2889985E+000  0.2112060E+03  0.7818608E-02  0.1140615E+00
         21   -1    0    0  501  502  0.00000000000E+00  0.00000000000E+00  0.38162355216E+03  0.38162355216E+03  0.00000000000E+00 0.  1.
         21   -1    0    0  502  503 -0.00000000000E+00 -0.00000000000E+00 -0.11911474479E+03  0.11911474479E+03  0.00000000000E+00 0.  1.
          6    1    1    2  501    0  0.49088197432E+01  0.12247396054E+03  0.16547129703E+03  0.26830713309E+03  0.17200000000E+03 0.  1.
         -6    1    1    2    0  503 -0.49088197432E+01 -0.12247396054E+03  0.97037510340E+02  0.23243116386E+03  0.17200000000E+03 0.  1.
</event>
<event>
 4    1  0.2889985E+000  0.1914479E+03  0.7818608E-02  0.1157162E+00
         21   -1    0    0  501  502  0.00000000000E+00  0.00000000000E+00  0.15552538947E+03  0.15552538947E+03  0.00000000000E+00 0.  1.
         21   -1    0    0  502  503 -0.00000000000E+00 -0.00000000000E+00 -0.25548714336E+03  0.25548714336E+03  0.00000000000E+00 0.  1.
          6    1    1    2  501    0  0.81856280686E+02 -0.19179376460E+02  0.72574711964E+01  0.19158541191E+03  0.17200000000E+03 0.  1.
         -6    1    1    2    0  503 -0.81856280686E+02  0.19179376460E+02 -0.10721922508E+03  0.21942712092E+03  0.17200000000E+03 0.  1.
</event>
<event>
 4    1  0.2889985E+000  0.1892333E+03  0.7818608E-02  0.1159155E+00
         21   -1    0    0  501  502  0.00000000000E+00  0.00000000000E+00  0.62865661031E+03  0.62865661031E+03  0.00000000000E+00 0. -1.
         21   -1    0    0  502  503 -0.00000000000E+00 -0.00000000000E+00 -0.70405595566E+02  0.70405595566E+02  0.00000000000E+00 0.  1.
          6    1    1    2  501    0  0.39193370891E+02  0.68477191084E+02  0.43186363281E+03  0.47150338638E+03  0.17200000000E+03 0. -1.
         -6    1    1    2    0  503 -0.39193370891E+02 -0.68477191084E+02  0.12638738194E+03  0.22755881950E+03  0.17200000000E+03 0. -1.
</event>
<event>
 4    1  0.2889985E+000  0.1768614E+03  0.7818608E-02  0.1170876E+00
         21   -1    0    0  501  502  0.00000000000E+00  0.00000000000E+00  0.91934621984E+02  0.91934621984E+02  0.00000000000E+00 0.  1.
         21   -1    0    0  502  503 -0.00000000000E+00 -0.00000000000E+00 -0.38240664543E+03  0.38240664543E+03  0.00000000000E+00 0.  1.
          6    1    1    2  501    0  0.39375681991E+02 -0.12063077902E+02 -0.66481463526E+02  0.18894376723E+03  0.17200000000E+03 0.  1.
         -6    1    1    2    0  503 -0.39375681991E+02  0.12063077902E+02 -0.22399055992E+03  0.28539750019E+03  0.17200000000E+03 0.  1.
</event>
<event>
 4    1  0.2889985E+000  0.1908962E+03  0.7818608E-02  0.1157655E+00
         21   -1    0    0  503  502  0.00000000000E+00  0.00000000000E+00  0.70451237238E+03  0.70451237238E+03  0.00000000000E+00 0.  1.
         21   -1    0    0  501  503 -0.00000000000E+00 -0.00000000000E+00 -0.55381534445E+02  0.55381534445E+02  0.00000000000E+00 0.  1.
          6    1    1    2  501    0  0.81206043752E+02  0.16215937844E+02  0.22694622787E+03  0.29655685547E+03  0.17200000000E+03 0.  1.
         -6    1    1    2    0  502 -0.81206043752E+02 -0.16215937844E+02  0.42218461007E+03  0.46333705136E+03  0.17200000000E+03 0.  1.
</event>
<event>
 4    1  0.2889985E+000  0.1923845E+03  0.7818608E-02  0.1156328E+00
         21   -1    0    0  501  502  0.00000000000E+00  0.00000000000E+00  0.87822019493E+03  0.87822019493E+03  0.00000000000E+00 0. -1.
         21   -1    0    0  502  503 -0.00000000000E+00 -0.00000000000E+00 -0.37443579306E+03  0.37443579306E+03  0.00000000000E+00 0. -1.
          6    1    1    2  501    0 -0.37332088072E+02  0.77679472639E+02  0.84192057566E+03  0.86362146858E+03  0.17200000000E+03 0. -1.
         -6    1    1    2    0  503  0.37332088072E+02 -0.77679472639E+02 -0.33813617379E+03  0.38903451941E+03  0.17200000000E+03 0. -1.
</event>
<event>
 4    1  0.2889985E+000  0.1983899E+03  0.7818608E-02  0.1151105E+00
         21   -1    0    0  501  502  0.00000000000E+00  0.00000000000E+00  0.63256962283E+03  0.63256962283E+03  0.00000000000E+00 0. -1.
         21   -1    0    0  502  503 -0.00000000000E+00 -0.00000000000E+00 -0.62245115155E+02  0.62245115155E+02  0.00000000000E+00 0.  1.
          6    1    1    2  501    0  0.96120015485E+02 -0.23140911420E+02  0.27820085979E+03  0.34169325066E+03  0.17200000000E+03 0. -1.
         -6    1    1    2    0  503 -0.96120015485E+02  0.23140911420E+02  0.29212364788E+03  0.35312148733E+03  0.17200000000E+03 0.  1.
</event>
<event>
 4    1  0.2889985E+000  0.1898350E+03  0.7818608E-02  0.1158610E+00
         21   -1    0    0  501  502  0.00000000000E+00  0.00000000000E+00  0.48886308332E+02  0.48886308332E+02  0.00000000000E+00 0. -1.
         21   -1    0    0  502  503 -0.00000000000E+00 -0.00000000000E+00 -0.80076716379E+03  0.80076716379E+03  0.00000000000E+00 0.  1.
          6    1    1    2  501    0 -0.43113754619E+02  0.67782988659E+02 -0.25621376052E+03  0.31887743801E+03  0.17200000000E+03 0. -1.
         -6    1    1    2    0  503  0.43113754619E+02 -0.67782988659E+02 -0.49566709493E+03  0.53077603411E+03  0.17200000000E+03 0. -1.
</event>
<event>
 4    1  0.2889985E+000  0.1986917E+03  0.7818608E-02  0.1150848E+00
         21   -1    0    0  501  502  0.00000000000E+00  0.00000000000E+00  0.14591438074E+04  0.14591438074E+04  0.00000000000E+00 0. -1.
         21   -1    0    0  502  503 -0.00000000000E+00 -0.00000000000E+00 -0.71760370304E+02  0.71760370304E+02  0.00000000000E+00 0. -1.
          6    1    1    2  501    0  0.74966988240E+02 -0.65378527025E+02  0.12978508068E+04  0.13129718648E+04  0.17200000000E+03 0. -1.
         -6    1    1    2    0  503 -0.74966988240E+02  0.65378527025E+02  0.89532630354E+02  0.21793231293E+03  0.17200000000E+03 0. -1.
</event>
<event>
 4    1  0.2889985E+000  0.1874876E+03  0.7818608E-02  0.1160747E+00
         21   -1    0    0  501  502  0.00000000000E+00  0.00000000000E+00  0.49820645212E+03  0.49820645212E+03  0.00000000000E+00 0. -1.
         21   -1    0    0  502  503 -0.00000000000E+00 -0.00000000000E+00 -0.75552898965E+02  0.75552898965E+02  0.00000000000E+00 0. -1.
          6    1    1    2  501    0 -0.63059887290E+02  0.39887767974E+02  0.28510246111E+03  0.34122572698E+03  0.17200000000E+03 0. -1.
         -6    1    1    2    0  503  0.63059887290E+02 -0.39887767974E+02  0.13755109204E+03  0.23253362411E+03  0.17200000000E+03 0. -1.
</event>
<event>
 4    1  0.2889985E+000  0.2438657E+03  0.7818608E-02  0.1117244E+00
         21   -1    0    0  501  502  0.00000000000E+00  0.00000000000E+00  0.16682991510E+04  0.16682991510E+04  0.00000000000E+00 0.  1.
         21   -1    0    0  502  503 -0.00000000000E+00 -0.00000000000E+00 -0.63906523860E+02  0.63906523860E+02  0.00000000000E+00 0.  1.
          6    1    1    2  501    0 -0.26227885106E+02  0.17087597557E+03  0.13781351052E+04  0.13995452365E+04  0.17200000000E+03 0.  1.
         -6    1    1    2    0  503  0.26227885106E+02 -0.17087597557E+03  0.22625752198E+03  0.33266043834E+03  0.17200000000E+03 0.  1.
</event>
<event>
 4    1  0.2889985E+000  0.2211866E+03  0.7818608E-02  0.1133001E+00
         21   -1    0    0  503  502  0.00000000000E+00  0.00000000000E+00  0.12517835391E+03  0.12517835391E+03  0.00000000000E+00 0. -1.
         21   -1    0    0  501  503 -0.00000000000E+00 -0.00000000000E+00 -0.51312503406E+03  0.51312503406E+03  0.00000000000E+00 0.  1.
          6    1    1    2  501    0  0.12101096874E+03  0.68526417208E+02 -0.38165612369E+02  0.22445520350E+03  0.17200000000E+03 0. -1.
         -6    1    1    2    0  502 -0.12101096874E+03 -0.68526417208E+02 -0.34978106778E+03  0.41384818447E+03  0.17200000000E+03 0.  1.
</event>
<event>
 4    1  0.2889985E+000  0.1961305E+03  0.7818608E-02  0.1153045E+00
         21   -1    0    0  501  502  0.00000000000E+00  0.00000000000E+00  0.21843540839E+03  0.21843540839E+03  0.00000000000E+00 0. -1.
         21   -1    0    0  502  503 -0.00000000000E+00 -0.00000000000E+00 -0.20653996034E+03  0.20653996034E+03  0.00000000000E+00 0.  1.
          6    1    1    2  501    0 -0.15208261226E+02 -0.93015568248E+02  0.87517733996E+02  0.21477090331E+03  0.17200000000E+03 0. -1.
         -6    1    1    2    0  503  0.15208261226E+02  0.93015568248E+02 -0.75622285946E+02  0.21020446541E+03  0.17200000000E+03 0.  1.
</event>
<event>
 4    1  0.2889985E+000  0.2146824E+03  0.7818608E-02  0.1137911E+00
         21   -1    0    0  501  502  0.00000000000E+00  0.00000000000E+00  0.31122596503E+03  0.31122596503E+03  0.00000000000E+00 0. -1.
         21   -1    0    0  502  503 -0.00000000000E+00 -0.00000000000E+00 -0.15644703706E+03  0.15644703706E+03  0.00000000000E+00 0. -1.
          6    1    1    2  501    0  0.83319157493E+02  0.97787833925E+02  0.13144383468E+03  0.25172608952E+03  0.17200000000E+03 0. -1.
         -6    1    1    2    0  503 -0.83319157493E+02 -0.97787833925E+02  0.23335093294E+02  0.21594691257E+03  0.17200000000E+03 0. -1.
</event>
<event>
 4    1  0.2889985E+000  0.1888671E+03  0.7818608E-02  0.1159487E+00
         21   -1    0    0  501  502  0.00000000000E+00  0.00000000000E+00  0.32116341248E+03  0.32116341248E+03  0.00000000000E+00 0.  1.
         21   -1    0    0  502  503 -0.00000000000E+00 -0.00000000000E+00 -0.11112936245E+03  0.11112936245E+03  0.00000000000E+00 0.  1.
          6    1    1    2  501    0 -0.68862731109E+02 -0.36670396861E+02  0.99914271256E+02  0.21366716019E+03  0.17200000000E+03 0.  1.
         -6    1    1    2    0  503  0.68862731109E+02  0.36670396861E+02  0.11011977877E+03  0.21862561474E+03  0.17200000000E+03 0.  1.
</event>
<event>
 4    1  0.2889985E+000  0.2467404E+03  0.7818608E-02  0.1115382E+00
         21   -1    0    0  501  502  0.00000000000E+00  0.00000000000E+00  0.36219300689E+04  0.36219300689E+04  0.00000000000E+00 0.  1.
         21   -1    0    0  502  503 -0.00000000000E+00 -0.00000000000E+00 -0.28083556838E+02  0.28083556838E+02  0.00000000000E+00 0.  1.
          6    1    1    2  501    0 -0.10104308023E+03  0.14521399427E+03  0.29532732817E+04  0.29635627013E+04  0.17200000000E+03 0. -1.
         -6    1    1    2    0  503  0.10104308023E+03 -0.14521399427E+03  0.64057323037E+03  0.68645092444E+03  0.17200000000E+03 0. -1.
</event>
<event>
 4    1  0.2889985E+000  0.3071068E+03  0.7818608E-02  0.1081741E+00
         21   -1    0    0  501  502  0.00000000000E+00  0.00000000000E+00  0.14458572396E+04  0.14458572396E+04  0.00000000000E+00 0.  1.
         21   -1    0    0  502  503 -0.00000000000E+00 -0.00000000000E+00 -0.91450961856E+02  0.91450961856E+02  0.00000000000E+00 0. -1.
          6    1    1    2  501    0  0.25751485142E+02  0.25311550083E+03  0.10887824278E+04  0.11312655616E+04  0.17200000000E+03 0.  1.
         -6    1    1    2    0  503 -0.25751485142E+02 -0.25311550083E+03  0.26562385001E+03  0.40604263993E+03  0.17200000000E+03 0. -1.
</event>
<event>
 4    1  0.2889985E+000  0.2198512E+03  0.7818608E-02  0.1133994E+00
         21   -1    0    0  501  502  0.00000000000E+00  0.00000000000E+00  0.60693803897E+03  0.60693803897E+03  0.00000000000E+00 0.  1.
         21   -1    0    0  502  503 -0.00000000000E+00 -0.00000000000E+00 -0.35720566506E+03  0.35720566506E+03  0.00000000000E+00 0.  1.
          6    1    1    2  501    0 -0.13690685184E+03 -0.26549402319E+01  0.54981641635E+03  0.59214240388E+03  0.17200000000E+03 0.  1.
         -6    1    1    2    0  503  0.13690685184E+03  0.26549402319E+01 -0.30008404244E+03  0.37200130015E+03  0.17200000000E+03 0.  1.
</event>
<event>
 4    1  0.2889985E+000  0.1902060E+03  0.7818608E-02  0.1158276E+00
         21   -1    0    0  501  502  0.00000000000E+00  0.00000000000E+00  0.73243644220E+02  0.73243644220E+02  0.00000000000E+00 0. -1.
         21   -1    0    0  502  503 -0.00000000000E+00 -0.00000000000E+00 -0.53104526524E+03  0.53104526524E+03  0.00000000000E+00 0.  1.
          6    1    1    2  501    0 -0.24979115289E+02  0.77268127383E+02 -0.14903915028E+03  0.24164227285E+03  0.17200000000E+03 0. -1.
         -6    1    1    2    0  503  0.24979115289E+02 -0.77268127383E+02 -0.30876247074E+03  0.36264663661E+03  0.17200000000E+03 0.  1.
</event>
<event>
 4    1  0.2889985E+000  0.2043039E+03  0.7818608E-02  0.1146158E+00
         21   -1    0    0  503  502  0.00000000000E+00  0.00000000000E+00  0.51862211356E+03  0.51862211356E+03  0.00000000000E+00 0. -1.
         21   -1    0    0  501  503 -0.00000000000E+00 -0.00000000000E+00 -0.80874133098E+02  0.80874133098E+02  0.00000000000E+00 0. -1.
          6    1    1    2  501    0  0.45823244556E+02 -0.10028122927E+03  0.19801973688E+03  0.28452049290E+03  0.17200000000E+03 0.  1.
         -6    1    1    2    0  502 -0.45823244556E+02  0.10028122927E+03  0.23972824358E+03  0.31497575376E+03  0.17200000000E+03 0.  1.
</event>
<event>
 4    1  0.2889985E+000  0.2166362E+03  0.7818608E-02  0.1136416E+00
         21   -1    0    0  503  502  0.00000000000E+00  0.00000000000E+00  0.13084545962E+03  0.13084545962E+03  0.00000000000E+00 0. -1.
         21   -1    0    0  501  503 -0.00000000000E+00 -0.00000000000E+00 -0.43095529483E+03  0.43095529483E+03  0.00000000000E+00 0.  1.
          6    1    1    2  501    0  0.12168622565E+03  0.50395701738E+02 -0.26509256524E+03  0.34235264335E+03  0.17200000000E+03 0.  1.
         -6    1    1    2    0  502 -0.12168622565E+03 -0.50395701738E+02 -0.35017269969E+02  0.21944811109E+03  0.17200000000E+03 0.  1.
</event>
<event>
 4    1  0.2889985E+000  0.1891886E+03  0.7818608E-02  0.1159195E+00
         21   -1    0    0  503  502  0.00000000000E+00  0.00000000000E+00  0.57890068421E+03  0.57890068421E+03  0.00000000000E+00 0.  1.
         21   -1    0    0  501  503 -0.00000000000E+00 -0.00000000000E+00 -0.14562224033E+03  0.14562224033E+03  0.00000000000E+00 0.  1.
          6    1    1    2  501    0  0.59433363383E+02  0.51729964600E+02 -0.58159795706E+02  0.19792644027E+03  0.17200000000E+03 0.  1.
         -6    1    1    2    0  502 -0.59433363383E+02 -0.51729964600E+02  0.49143823958E+03  0.52659648427E+03  0.17200000000E+03 0.  1.
</event>
<event>
 4    1  0.2889985E+000  0.1956187E+03  0.7818608E-02  0.1153489E+00
         21   -1    0    0  503  502  0.00000000000E+00  0.00000000000E+00  0.24531365338E+03  0.24531365338E+03  0.00000000000E+00 0. -1.
         21   -1    0    0  501  503 -0.00000000000E+00 -0.00000000000E+00 -0.17374939664E+03  0.17374939664E+03  0.00000000000E+00 0.  1.
          6    1    1    2  501    0 -0.84181097773E+02 -0.39952900348E+02 -0.31204963538E+02  0.19809200190E+03  0.17200000000E+03 0.  1.
         -6    1    1    2    0  502  0.84181097773E+02  0.39952900348E+02  0.10276922027E+03  0.22097104811E+03  0.17200000000E+03 0. -1.
</event>
<event>
 4    1  0.2889985E+000  0.1998442E+03  0.7818608E-02  0.1149870E+00
         21   -1    0    0  501  502  0.00000000000E+00  0.00000000000E+00  0.16028762999E+03  0.16028762999E+03  0.00000000000E+00 0. -1.
         21   -1    0    0  502  503 -0.00000000000E+00 -0.00000000000E+00 -0.27273645600E+03  0.27273645600E+03  0.00000000000E+00 0.  1.
          6    1    1    2  501    0 -0.36237849561E-01  0.10175320968E+03  0.74293085858E+01  0.19998227826E+03  0.17200000000E+03 0. -1.
         -6    1    1    2    0  503  0.36237849561E-01 -0.10175320968E+03 -0.11987813459E+03  0.23304180772E+03  0.17200000000E+03 0.  1.
</event>
<event>
 4    1  0.2889985E+000  0.1896650E+03  0.7818608E-02  0.1158764E+00
         21   -1    0    0  501  502  0.00000000000E+00  0.00000000000E+00  0.49055488835E+02  0.49055488835E+02  0.00000000000E+00 0. -1.
         21   -1    0    0  502  503 -0.00000000000E+00 -0.00000000000E+00 -0.74197563490E+03  0.74197563490E+03  0.00000000000E+00 0.  1.
          6    1    1    2  501    0 -0.77201503605E+02 -0.20706414820E+02 -0.30371403299E+03  0.35807128007E+03  0.17200000000E+03 0.  1.
         -6    1    1    2    0  503  0.77201503605E+02  0.20706414820E+02 -0.38920611307E+03  0.43295984366E+03  0.17200000000E+03 0. -1.
</event>
<event>
 4    1  0.2889985E+000  0.1897549E+03  0.7818608E-02  0.1158683E+00
         21   -1    0    0  501  502  0.00000000000E+00  0.00000000000E+00  0.89117574998E+02  0.89117574998E+02  0.00000000000E+00 0. -1.
         21   -1    0    0  502  503 -0.00000000000E+00 -0.00000000000E+00 -0.42017963695E+03  0.42017963695E+03  0.00000000000E+00 0. -1.
          6    1    1    2  501    0  0.79941280909E+02 -0.56833039501E+01 -0.11562025365E+03  0.22220475105E+03  0.17200000000E+03 0. -1.
         -6    1    1    2    0  503 -0.79941280909E+02  0.56833039501E+01 -0.21544180831E+03  0.28709246090E+03  0.17200000000E+03 0. -1.
</event>
<event>
 4    1  0.2889985E+000  0.2624432E+03  0.7818608E-02  0.1105684E+00
         21   -1    0    0  501  502  0.00000000000E+00  0.00000000000E+00  0.41876150965E+03  0.41876150965E+03  0.00000000000E+00 0. -1.
         21   -1    0    0  502  503 -0.00000000000E+00 -0.00000000000E+00 -0.19732733374E+03  0.19732733374E+03  0.00000000000E+00 0.  1.
          6    1    1    2  501    0  0.17309733794E+03  0.96590705939E+02 -0.14970537501E+02  0.26286987250E+03  0.17200000000E+03 0.  1.
         -6    1    1    2    0  503 -0.17309733794E+03 -0.96590705939E+02  0.23640471340E+03  0.35321897089E+03  0.17200000000E+03 0. -1.
</event>
<event>
 4    1  0.2889985E+000  0.1971726E+03  0.7818608E-02  0.1152147E+00
         21   -1    0    0  501  502  0.00000000000E+00  0.00000000000E+00  0.24106716194E+03  0.24106716194E+03  0.00000000000E+00 0.  1.
         21   -1    0    0  502  503 -0.00000000000E+00 -0.00000000000E+00 -0.16854258689E+03  0.16854258689E+03  0.00000000000E+00 0. -1.
          6    1    1    2  501    0 -0.86805240290E+02 -0.41927308388E+02  0.78803672289E+02  0.21233715571E+03  0.17200000000E+03 0.  1.
         -6    1    1    2    0  503  0.86805240290E+02  0.41927308388E+02 -0.62790972403E+01  0.19727259311E+03  0.17200000000E+03 0. -1.
</event>
<event>
 4    1  0.2889985E+000  0.1743368E+03  0.7818608E-02  0.1173399E+00
         21   -1    0    0  503  502  0.00000000000E+00  0.00000000000E+00  0.11612816674E+03  0.11612816674E+03  0.00000000000E+00 0. -1.
         21   -1    0    0  501  503 -0.00000000000E+00 -0.00000000000E+00 -0.33559331544E+03  0.33559331544E+03  0.00000000000E+00 0. -1.
          6    1    1    2  501    0  0.28186677390E+02 -0.38523396461E+01 -0.21569970450E+03  0.27734399547E+03  0.17200000000E+03 0.  1.
         -6    1    1    2    0  502 -0.28186677390E+02  0.38523396461E+01 -0.37654442036E+01  0.17437748672E+03  0.17200000000E+03 0.  1.
</event>
<event>
 4    1  0.2889985E+000  0.1910425E+03  0.7818608E-02  0.1157524E+00
         21   -1    0    0  503  502  0.00000000000E+00  0.00000000000E+00  0.14016557981E+03  0.14016557981E+03  0.00000000000E+00 0.  1.
         21   -1    0    0  501  503 -0.00000000000E+00 -0.00000000000E+00 -0.36238689859E+03  0.36238689859E+03  0.00000000000E+00 0.  1.
          6    1    1    2  501    0 -0.43193121971E+02  0.71046529360E+02 -0.24442155695E+03  0.31022435852E+03  0.17200000000E+03 0.  1.
         -6    1    1    2    0  502  0.43193121971E+02 -0.71046529360E+02  0.22200238165E+02  0.19232811987E+03  0.17200000000E+03 0.  1.
</event>
<event>
 4    1  0.2889985E+000  0.2089881E+03  0.7818608E-02  0.1142370E+00
         21   -1    0    0  501  502  0.00000000000E+00  0.00000000000E+00  0.50987978937E+02  0.50987978937E+02  0.00000000000E+00 0.  1.
         21   -1    0    0  502  503 -0.00000000000E+00 -0.00000000000E+00 -0.11277590888E+04  0.11277590888E+04  0.00000000000E+00 0.  1.
          6    1    1    2  501    0  0.30130910529E+00 -0.11870940420E+03 -0.24938472576E+03  0.32537479139E+03  0.17200000000E+03 0.  1.
         -6    1    1    2    0  503 -0.30130910529E+00  0.11870940420E+03 -0.82738638415E+03  0.85337227639E+03  0.17200000000E+03 0.  1.
</event>
<event>
 4    1  0.2889985E+000  0.2531319E+03  0.7818608E-02  0.1111341E+00
         21   -1    0    0  503  502  0.00000000000E+00  0.00000000000E+00  0.30607344136E+03  0.30607344136E+03  0.00000000000E+00 0.  1.
         21   -1    0    0  501  503 -0.00000000000E+00 -0.00000000000E+00 -0.49412252602E+03  0.49412252602E+03  0.00000000000E+00 0. -1.
          6    1    1    2  501    0 -0.16138885386E+03 -0.91898953629E+02 -0.39776301992E+03  0.47147767693E+03  0.17200000000E+03 0. -1.
         -6    1    1    2    0  502  0.16138885386E+03  0.91898953629E+02  0.20971393527E+03  0.32871829045E+03  0.17200000000E+03 0.  1.
</event>
<event>
 4    1  0.2889985E+000  0.2025340E+03  0.7818608E-02  0.1147619E+00
         21   -1    0    0  501  502  0.00000000000E+00  0.00000000000E+00  0.83969592419E+03  0.83969592419E+03  0.00000000000E+00 0.  1.
         21   -1    0    0  502  503 -0.00000000000E+00 -0.00000000000E+00 -0.85950311940E+02  0.85950311940E+02  0.00000000000E+00 0. -1.
          6    1    1    2  501    0 -0.10661691425E+03  0.82980496736E+01  0.68094308670E+03  0.71042488087E+03  0.17200000000E+03 0.  1.
         -6    1    1    2    0  503  0.10661691425E+03 -0.82980496736E+01  0.72802525546E+02  0.21522135526E+03  0.17200000000E+03 0. -1.
</event>
<event>
 4    1  0.2889985E+000  0.2343388E+03  0.7818608E-02  0.1123623E+00
         21   -1    0    0  501  502  0.00000000000E+00  0.00000000000E+00  0.76080275173E+03  0.76080275173E+03  0.00000000000E+00 0. -1.
         21   -1    0    0  502  503 -0.00000000000E+00 -0.00000000000E+00 -0.82527444084E+02  0.82527444084E+02  0.00000000000E+00 0.  1.
          6    1    1    2  501    0  0.15586913540E+03 -0.32178684921E+02  0.48844714478E+03  0.54175203587E+03  0.17200000000E+03 0.  1.
         -6    1    1    2    0  503 -0.15586913540E+03  0.32178684921E+02  0.18982816287E+03  0.30157815994E+03  0.17200000000E+03 0. -1.
</event>
<event>
 4    1  0.2889985E+000  0.2192908E+03  0.7818608E-02  0.1134413E+00
         21   -1    0    0  503  502  0.00000000000E+00  0.00000000000E+00  0.30099759810E+03  0.30099759810E+03  0.00000000000E+00 0.  1.
         21   -1    0    0  501  503 -0.00000000000E+00 -0.00000000000E+00 -0.16520583147E+03  0.16520583147E+03  0.00000000000E+00 0.  1.
          6    1    1    2  501    0 -0.68857900243E+02  0.11731592008E+03  0.25587686868E+02  0.22077854345E+03  0.17200000000E+03 0.  1.
         -6    1    1    2    0  502  0.68857900243E+02 -0.11731592008E+03  0.11020407976E+03  0.24542488612E+03  0.17200000000E+03 0.  1.
</event>
<event>
 4    1  0.2889985E+000  0.1969300E+03  0.7818608E-02  0.1152355E+00
         21   -1    0    0  501  502  0.00000000000E+00  0.00000000000E+00  0.16324072281E+03  0.16324072281E+03  0.00000000000E+00 0. -1.
         21   -1    0    0  502  503 -0.00000000000E+00 -0.00000000000E+00 -0.29103815351E+03  0.29103815351E+03  0.00000000000E+00 0. -1.
          6    1    1    2  501    0 -0.92562050850E+02  0.25093889534E+02 -0.16125338045E+03  0.25452718766E+03  0.17200000000E+03 0. -1.
         -6    1    1    2    0  503  0.92562050850E+02 -0.25093889534E+02  0.33455949746E+02  0.19975168866E+03  0.17200000000E+03 0. -1.
</event>
<event>
 4    1  0.2889985E+000  0.1924924E+03  0.7818608E-02  0.1156232E+00
         21   -1    0    0  501  502  0.00000000000E+00  0.00000000000E+00  0.21571885366E+03  0.21571885366E+03  0.00000000000E+00 0.  1.
         21   -1    0    0  502  503 -0.00000000000E+00 -0.00000000000E+00 -0.17353942771E+03  0.17353942771E+03  0.00000000000E+00 0.  1.
          6    1    1    2  501    0  0.18034795162E+02 -0.84522488842E+02  0.14182863379E+01  0.19249757529E+03  0.17200000000E+03 0.  1.
         -6    1    1    2    0  503 -0.18034795162E+02  0.84522488842E+02  0.40761139610E+02  0.19676070608E+03  0.17200000000E+03 0.  1.
</event>
<event>
 4    1  0.2889985E+000  0.1931365E+03  0.7818608E-02  0.1155662E+00
         21   -1    0    0  501  502  0.00000000000E+00  0.00000000000E+00  0.28879880182E+03  0.28879880182E+03  0.00000000000E+00 0. -1.
         21   -1    0    0  502  503 -0.00000000000E+00 -0.00000000000E+00 -0.17591416986E+03  0.17591416986E+03  0.00000000000E+00 0. -1.
          6    1    1    2  501    0  0.80280787065E+02 -0.35674811311E+02  0.17622869242E+03  0.26145410489E+03  0.17200000000E+03 0. -1.
         -6    1    1    2    0  503 -0.80280787065E+02  0.35674811311E+02 -0.63344060447E+02  0.20325886679E+03  0.17200000000E+03 0. -1.
</event>
<event>
 4    1  0.2889985E+000  0.1766664E+03  0.7818608E-02  0.1171069E+00
         21   -1    0    0  503  502  0.00000000000E+00  0.00000000000E+00  0.16776639131E+03  0.16776639131E+03  0.00000000000E+00 0.  1.
         21   -1    0    0  501  503 -0.00000000000E+00 -0.00000000000E+00 -0.50956874291E+03  0.50956874291E+03  0.00000000000E+00 0.  1.
          6    1    1    2  501    0 -0.26231256052E+02 -0.30641996528E+02 -0.44075566536E+03  0.47484372934E+03  0.17200000000E+03 0.  1.
         -6    1    1    2    0  502  0.26231256052E+02  0.30641996528E+02  0.98953313762E+02  0.20249140488E+03  0.17200000000E+03 0.  1.
</event>
<event>
 4    1  0.2889985E+000  0.1748140E+03  0.7818608E-02  0.1172919E+00
         21   -1    0    0  503  502  0.00000000000E+00  0.00000000000E+00  0.17858649399E+04  0.17858649399E+04  0.00000000000E+00 0. -1.
         21   -1    0    0  501  503 -0.00000000000E+00 -0.00000000000E+00 -0.23211391095E+03  0.23211391095E+03  0.00000000000E+00 0. -1.
          6    1    1    2  501    0 -0.28679388926E+02  0.12386988304E+02 -0.19420907776E+03  0.26129889153E+03  0.17200000000E+03 0. -1.
         -6    1    1    2    0  502  0.28679388926E+02 -0.12386988304E+02  0.17479601067E+04  0.17566799593E+04  0.17200000000E+03 0. -1.
</event>
<event>
 4    1  0.2889985E+000  0.2235203E+03  0.7818608E-02  0.1131285E+00
         21   -1    0    0  501  502  0.00000000000E+00  0.00000000000E+00  0.76415212555E+03  0.76415212555E+03  0.00000000000E+00 0. -1.
         21   -1    0    0  502  503 -0.00000000000E+00 -0.00000000000E+00 -0.67928160021E+02  0.67928160021E+02  0.00000000000E+00 0. -1.
          6    1    1    2  501    0  0.11225633614E+02  0.14230714038E+03  0.42866914909E+03  0.48344449158E+03  0.17200000000E+03 0. -1.
         -6    1    1    2    0  503 -0.11225633614E+02 -0.14230714038E+03  0.26755481644E+03  0.34863579399E+03  0.17200000000E+03 0. -1.
</event>
<event>
 4    1  0.2889985E+000  0.2623336E+03  0.7818608E-02  0.1105749E+00
         21   -1    0    0  503  502  0.00000000000E+00  0.00000000000E+00  0.48533227902E+03  0.48533227902E+03  0.00000000000E+00 0. -1.
         21   -1    0    0  501  503 -0.00000000000E+00 -0.00000000000E+00 -0.20441536142E+03  0.20441536142E+03  0.00000000000E+00 0.  1.
          6    1    1    2  501    0  0.11240033288E+03 -0.16309831900E+03 -0.50418115178E+02  0.26713457812E+03  0.17200000000E+03 0.  1.
         -6    1    1    2    0  502 -0.11240033288E+03  0.16309831900E+03  0.33133503278E+03  0.42261306231E+03  0.17200000000E+03 0. -1.
</event>
<event>
 4    1  0.2889985E+000  0.2307152E+03  0.7818608E-02  0.1126137E+00
         21   -1    0    0  503  502  0.00000000000E+00  0.00000000000E+00  0.17180917065E+03  0.17180917065E+03  0.00000000000E+00 0.  1.
         21   -1    0    0  501  503 -0.00000000000E+00 -0.00000000000E+00 -0.35113639487E+03  0.35113639487E+03  0.00000000000E+00 0. -1.
          6    1    1    2  501    0  0.14070029977E+03  0.62039593371E+02 -0.17935752753E+03  0.29223040256E+03  0.17200000000E+03 0. -1.
         -6    1    1    2    0  502 -0.14070029977E+03 -0.62039593371E+02  0.30303315001E-01  0.23071516296E+03  0.17200000000E+03 0.  1.
</event>
<event>
 4    1  0.2889985E+000  0.2061410E+03  0.7818608E-02  0.1144659E+00
         21   -1    0    0  503  502  0.00000000000E+00  0.00000000000E+00  0.28916759703E+03  0.28916759703E+03  0.00000000000E+00 0. -1.
         21   -1    0    0  501  503 -0.00000000000E+00 -0.00000000000E+00 -0.25205329410E+03  0.25205329410E+03  0.00000000000E+00 0.  1.
          6    1    1    2  501    0  0.11339907836E+03  0.71251543193E+01 -0.15618585853E+03  0.25862741773E+03  0.17200000000E+03 0.  1.
         -6    1    1    2    0  502 -0.11339907836E+03 -0.71251543193E+01  0.19330016146E+03  0.28259347341E+03  0.17200000000E+03 0. -1.
</event>
<event>
 4    1  0.2889985E+000  0.1943316E+03  0.7818608E-02  0.1154612E+00
         21   -1    0    0  503  502  0.00000000000E+00  0.00000000000E+00  0.59246565169E+03  0.59246565169E+03  0.00000000000E+00 0. -1.
         21   -1    0    0  501  503 -0.00000000000E+00 -0.00000000000E+00 -0.70279915172E+02  0.70279915172E+02  0.00000000000E+00 0. -1.
          6    1    1    2  501    0  0.82230694936E+02  0.37668028164E+02  0.16002087223E+03  0.25173686080E+03  0.17200000000E+03 0. -1.
         -6    1    1    2    0  502 -0.82230694936E+02 -0.37668028164E+02  0.36216486429E+03  0.41100870607E+03  0.17200000000E+03 0. -1.
</event>
<event>
 4    1  0.2889985E+000  0.1722694E+03  0.7818608E-02  0.1175502E+00
         21   -1    0    0  503  502  0.00000000000E+00  0.00000000000E+00  0.17998909562E+03  0.17998909562E+03  0.00000000000E+00 0. -1.
         21   -1    0    0  501  503 -0.00000000000E+00 -0.00000000000E+00 -0.85071844814E+03  0.85071844814E+03  0.00000000000E+00 0. -1.
          6    1    1    2  501    0  0.21950840695E+01 -0.93769006659E+01 -0.79808992424E+03  0.81647061909E+03  0.17200000000E+03 0. -1.
         -6    1    1    2    0  502 -0.21950840695E+01  0.93769006659E+01  0.12736057173E+03  0.21423692467E+03  0.17200000000E+03 0. -1.
</event>
<event>
 4    1  0.2889985E+000  0.1852122E+03  0.7818608E-02  0.1162852E+00
         21   -1    0    0  503  502  0.00000000000E+00  0.00000000000E+00  0.65024222446E+03  0.65024222446E+03  0.00000000000E+00 0.  1.
         21   -1    0    0  501  503 -0.00000000000E+00 -0.00000000000E+00 -0.58078303982E+02  0.58078303982E+02  0.00000000000E+00 0.  1.
          6    1    1    2  501    0  0.21574002580E+02 -0.65223610091E+02  0.18886049811E+03  0.26452191714E+03  0.17200000000E+03 0.  1.
         -6    1    1    2    0  502 -0.21574002580E+02  0.65223610091E+02  0.40330342237E+03  0.44379861130E+03  0.17200000000E+03 0.  1.
</event>
<event>
 4    1  0.2889985E+000  0.1843933E+03  0.7818608E-02  0.1163618E+00
         21   -1    0    0  501  502  0.00000000000E+00  0.00000000000E+00  0.18862411118E+03  0.18862411118E+03  0.00000000000E+00 0. -1.
         21   -1    0    0  502  503 -0.00000000000E+00 -0.00000000000E+00 -0.28006989080E+03  0.28006989080E+03  0.00000000000E+00 0.  1.
          6    1    1    2  501    0 -0.47005722081E+02 -0.46982310256E+02  0.94177468169E+02  0.20705137260E+03  0.17200000000E+03 0. -1.
         -6    1    1    2    0  503  0.47005722081E+02  0.46982310256E+02 -0.18562324779E+03  0.26164262937E+03  0.17200000000E+03 0.  1.
</event>
<event>
 4    1  0.2889985E+000  0.1916207E+03  0.7818608E-02  0.1157008E+00
         21   -1    0    0  501  502  0.00000000000E+00  0.00000000000E+00  0.82668757980E+02  0.82668757980E+02  0.00000000000E+00 0. -1.
         21   -1    0    0  502  503 -0.00000000000E+00 -0.00000000000E+00 -0.87503492519E+03  0.87503492519E+03  0.00000000000E+00 0.  1.
          6    1    1    2  501    0  0.81071211004E+02  0.23705726601E+02 -0.60165532538E+02  0.20084420338E+03  0.17200000000E+03 0. -1.
         -6    1    1    2    0  503 -0.81071211004E+02 -0.23705726601E+02 -0.73220063468E+03  0.75685947979E+03  0.17200000000E+03 0.  1.
</event>
<event>
 4    1  0.2889985E+000  0.2115292E+03  0.7818608E-02  0.1140361E+00
         21   -1    0    0  503  502  0.00000000000E+00  0.00000000000E+00  0.15916900715E+03  0.15916900715E+03  0.00000000000E+00 0. -1.
         21   -1    0    0  501  503 -0.00000000000E+00 -0.00000000000E+00 -0.28119316461E+03  0.28119316461E+03  0.00000000000E+00 0. -1.
          6    1    1    2  501    0 -0.84464912449E+02  0.89589498719E+02 -0.57312329464E+02  0.21915588704E+03  0.17200000000E+03 0. -1.
         -6    1    1    2    0  502  0.84464912449E+02 -0.89589498719E+02 -0.64711828002E+02  0.22120628472E+03  0.17200000000E+03 0. -1.
</event>
<event>
 4    1  0.2889985E+000  0.2206760E+03  0.7818608E-02  0.1133380E+00
         21   -1    0    0  501  502  0.00000000000E+00  0.00000000000E+00  0.51699407777E+02  0.51699407777E+02  0.00000000000E+00 0.  1.
         21   -1    0    0  502  503 -0.00000000000E+00 -0.00000000000E+00 -0.11177271410E+04  0.11177271410E+04  0.00000000000E+00 0.  1.
          6    1    1    2  501    0 -0.13159897670E+03  0.42374498700E+02 -0.30113292526E+03  0.37333487311E+03  0.17200000000E+03 0.  1.
         -6    1    1    2    0  503  0.13159897670E+03 -0.42374498700E+02 -0.76489480794E+03  0.79609167564E+03  0.17200000000E+03 0.  1.
</event>
<event>
 4    1  0.2889985E+000  0.2410891E+03  0.7818608E-02  0.1119069E+00
         21   -1    0    0  501  502  0.00000000000E+00  0.00000000000E+00  0.85457276374E+02  0.85457276374E+02  0.00000000000E+00 0. -1.
         21   -1    0    0  502  503 -0.00000000000E+00 -0.00000000000E+00 -0.87399331346E+03  0.87399331346E+03  0.00000000000E+00 0.  1.
          6    1    1    2  501    0 -0.16731563554E+03  0.23354829071E+02 -0.62019146752E+03  0.66540320583E+03  0.17200000000E+03 0.  1.
         -6    1    1    2    0  503  0.16731563554E+03 -0.23354829071E+02 -0.16834456956E+03  0.29404738400E+03  0.17200000000E+03 0. -1.
</event>
<event>
 4    1  0.2889985E+000  0.1977599E+03  0.7818608E-02  0.1151643E+00
         21   -1    0    0  501  502  0.00000000000E+00  0.00000000000E+00  0.72152797784E+03  0.72152797784E+03  0.00000000000E+00 0.  1.
         21   -1    0    0  502  503 -0.00000000000E+00 -0.00000000000E+00 -0.55284844717E+02  0.55284844717E+02  0.00000000000E+00 0.  1.
          6    1    1    2  501    0  0.89670595787E+02  0.38524764770E+02  0.38745510119E+03  0.43500623982E+03  0.17200000000E+03 0. -1.
         -6    1    1    2    0  503 -0.89670595787E+02 -0.38524764770E+02  0.27878803193E+03  0.34180658273E+03  0.17200000000E+03 0. -1.
</event>
<event>
 4    1  0.2889985E+000  0.1753698E+03  0.7818608E-02  0.1172361E+00
         21   -1    0    0  501  502  0.00000000000E+00  0.00000000000E+00  0.23929284027E+03  0.23929284027E+03  0.00000000000E+00 0. -1.
         21   -1    0    0  502  503 -0.00000000000E+00 -0.00000000000E+00 -0.41157357550E+03  0.41157357550E+03  0.00000000000E+00 0. -1.
          6    1    1    2  501    0  0.22869871518E+02 -0.25446603132E+02  0.18373943305E+03  0.25399751946E+03  0.17200000000E+03 0. -1.
         -6    1    1    2    0  503 -0.22869871518E+02  0.25446603132E+02 -0.35602016828E+03  0.39686889631E+03  0.17200000000E+03 0. -1.
</event>
<event>
 4    1  0.2889985E+000  0.2063022E+03  0.7818608E-02  0.1144528E+00
         21   -1    0    0  501  502  0.00000000000E+00  0.00000000000E+00  0.90938567285E+03  0.90938567285E+03  0.00000000000E+00 0. -1.
         21   -1    0    0  502  503 -0.00000000000E+00 -0.00000000000E+00 -0.47491542922E+02  0.47491542922E+02  0.00000000000E+00 0. -1.
          6    1    1    2  501    0  0.11188502601E+03 -0.21409240349E+02  0.48861783731E+03  0.53038477123E+03  0.17200000000E+03 0. -1.
         -6    1    1    2    0  503 -0.11188502601E+03  0.21409240349E+02  0.37327629262E+03  0.42649244454E+03  0.17200000000E+03 0. -1.
</event>
<event>
 4    1  0.2889985E+000  0.1958631E+03  0.7818608E-02  0.1153277E+00
         21   -1    0    0  501  502  0.00000000000E+00  0.00000000000E+00  0.73660203035E+02  0.73660203035E+02  0.00000000000E+00 0.  1.
         21   -1    0    0  502  503 -0.00000000000E+00 -0.00000000000E+00 -0.13702372379E+04  0.13702372379E+04  0.00000000000E+00 0.  1.
          6    1    1    2  501    0  0.23363048249E+01  0.93663819454E+02 -0.79862896037E+02  0.21151938814E+03  0.17200000000E+03 0.  1.
         -6    1    1    2    0  503 -0.23363048249E+01 -0.93663819454E+02 -0.12167141389E+04  0.12323780528E+04  0.17200000000E+03 0.  1.
</event>
<event>
 4    1  0.2889985E+000  0.1888581E+03  0.7818608E-02  0.1159495E+00
         21   -1    0    0  503  502  0.00000000000E+00  0.00000000000E+00  0.14664128119E+03  0.14664128119E+03  0.00000000000E+00 0.  1.
         21   -1    0    0  501  503 -0.00000000000E+00 -0.00000000000E+00 -0.25590170478E+03  0.25590170478E+03  0.00000000000E+00 0.  1.
          6    1    1    2  501    0  0.71237617483E+02  0.31758018344E+02 -0.99420646887E+02  0.21342875837E+03  0.17200000000E+03 0. -1.
         -6    1    1    2    0  502 -0.71237617483E+02 -0.31758018344E+02 -0.98397767032E+01  0.18911422760E+03  0.17200000000E+03 0. -1.
</event>
<event>
 4    1  0.2889985E+000  0.2210642E+03  0.7818608E-02  0.1133092E+00
         21   -1    0    0  501  502  0.00000000000E+00  0.00000000000E+00  0.86090186472E+03  0.86090186472E+03  0.00000000000E+00 0.  1.
         21   -1    0    0  502  503 -0.00000000000E+00 -0.00000000000E+00 -0.67217532915E+02  0.67217532915E+02  0.00000000000E+00 0.  1.
          6    1    1    2  501    0  0.52910331242E+02 -0.12839742387E+03  0.57983577679E+03  0.62054728236E+03  0.17200000000E+03 0.  1.
         -6    1    1    2    0  503 -0.52910331242E+02  0.12839742387E+03  0.21384855501E+03  0.30757211527E+03  0.17200000000E+03 0.  1.
</event>
<event>
 4    1  0.2889985E+000  0.3072955E+03  0.7818608E-02  0.1081649E+00
         21   -1    0    0  501  502  0.00000000000E+00  0.00000000000E+00  0.16965350132E+03  0.16965350132E+03  0.00000000000E+00 0.  1.
         21   -1    0    0  502  503 -0.00000000000E+00 -0.00000000000E+00 -0.14555510391E+04  0.14555510391E+04  0.00000000000E+00 0. -1.
          6    1    1    2  501    0 -0.24404954386E+03  0.72707179971E+02 -0.43466230361E+01  0.30732622245E+03  0.17200000000E+03 0.  1.
         -6    1    1    2    0  503  0.24404954386E+03 -0.72707179971E+02 -0.12815509148E+04  0.13178783180E+04  0.17200000000E+03 0. -1.
</event>
<event>
 4    1  0.2889985E+000  0.1735390E+03  0.7818608E-02  0.1174207E+00
         21   -1    0    0  503  502  0.00000000000E+00  0.00000000000E+00  0.10714148992E+04  0.10714148992E+04  0.00000000000E+00 0.  1.
         21   -1    0    0  501  503 -0.00000000000E+00 -0.00000000000E+00 -0.31693106610E+02  0.31693106610E+02  0.00000000000E+00 0.  1.
          6    1    1    2  501    0  0.45935113476E+01 -0.22598655698E+02  0.70535500611E+03  0.72638934754E+03  0.17200000000E+03 0.  1.
         -6    1    1    2    0  502 -0.45935113476E+01  0.22598655698E+02  0.33436678652E+03  0.37671865830E+03  0.17200000000E+03 0.  1.
</event>
<event>
 4    1  0.2889985E+000  0.2163127E+03  0.7818608E-02  0.1136662E+00
         21   -1    0    0  503  502  0.00000000000E+00  0.00000000000E+00  0.66506403485E+02  0.66506403485E+02  0.00000000000E+00 0. -1.
         21   -1    0    0  501  503 -0.00000000000E+00 -0.00000000000E+00 -0.79052545334E+03  0.79052545334E+03  0.00000000000E+00 0.  1.
          6    1    1    2  501    0 -0.69384441906E+02 -0.11132371093E+03 -0.50413936613E+03  0.54858697567E+03  0.17200000000E+03 0.  1.
         -6    1    1    2    0  502  0.69384441906E+02  0.11132371093E+03 -0.21987968373E+03  0.30844488115E+03  0.17200000000E+03 0. -1.
</event>
<event>
 4    1  0.2889985E+000  0.1945390E+03  0.7818608E-02  0.1154430E+00
         21   -1    0    0  501  502  0.00000000000E+00  0.00000000000E+00  0.15770592454E+03  0.15770592454E+03  0.00000000000E+00 0.  1.
         21   -1    0    0  502  503 -0.00000000000E+00 -0.00000000000E+00 -0.24919044306E+03  0.24919044306E+03  0.00000000000E+00 0.  1.
          6    1    1    2  501    0 -0.19859352517E+02  0.88696199374E+02 -0.66170537536E+01  0.19465147075E+03  0.17200000000E+03 0.  1.
         -6    1    1    2    0  503  0.19859352517E+02 -0.88696199374E+02 -0.84867464765E+02  0.21224489686E+03  0.17200000000E+03 0.  1.
</event>
<event>
 4    1  0.2889985E+000  0.2415915E+03  0.7818608E-02  0.1118737E+00
         21   -1    0    0  501  502  0.00000000000E+00  0.00000000000E+00  0.72946935939E+02  0.72946935939E+02  0.00000000000E+00 0.  1.
         21   -1    0    0  502  503 -0.00000000000E+00 -0.00000000000E+00 -0.10166245395E+04  0.10166245395E+04  0.00000000000E+00 0.  1.
          6    1    1    2  501    0 -0.13667831903E+02 -0.16910241805E+03 -0.22043196614E+03  0.32704233536E+03  0.17200000000E+03 0. -1.
         -6    1    1    2    0  503  0.13667831903E+02  0.16910241805E+03 -0.72324563741E+03  0.76252914007E+03  0.17200000000E+03 0. -1.
</event>
<event>
 4    1  0.2889985E+000  0.1942594E+03  0.7818608E-02  0.1154675E+00
         21   -1    0    0  503  502  0.00000000000E+00  0.00000000000E+00  0.46478708915E+03  0.46478708915E+03  0.00000000000E+00 0.  1.
         21   -1    0    0  501  503 -0.00000000000E+00 -0.00000000000E+00 -0.16492843967E+03  0.16492843967E+03  0.00000000000E+00 0.  1.
          6    1    1    2  501    0 -0.68580698386E+02  0.58731457960E+02 -0.74420396965E+02  0.20802666134E+03  0.17200000000E+03 0.  1.
         -6    1    1    2    0  502  0.68580698386E+02 -0.58731457960E+02  0.37427904644E+03  0.42168886747E+03  0.17200000000E+03 0.  1.
</event>
<event>
 4    1  0.2889985E+000  0.4286934E+03  0.7818608E-02  0.1034274E+00
         21   -1    0    0  501  502  0.00000000000E+00  0.00000000000E+00  0.47068652723E+03  0.47068652723E+03  0.00000000000E+00 0.  1.
         21   -1    0    0  502  503 -0.00000000000E+00 -0.00000000000E+00 -0.57780822498E+03  0.57780822498E+03  0.00000000000E+00 0. -1.
          6    1    1    2  501    0 -0.37492694026E+03 -0.11672115329E+03  0.24496677290E+03  0.49374766631E+03  0.17200000000E+03 0.  1.
         -6    1    1    2    0  503  0.37492694026E+03  0.11672115329E+03 -0.35208847064E+03  0.55474708590E+03  0.17200000000E+03 0. -1.
</event>
<event>
 4    1  0.2889985E+000  0.2390162E+03  0.7818608E-02  0.1120450E+00
         21   -1    0    0  501  502  0.00000000000E+00  0.00000000000E+00  0.29227012365E+03  0.29227012365E+03  0.00000000000E+00 0. -1.
         21   -1    0    0  502  503 -0.00000000000E+00 -0.00000000000E+00 -0.28697891044E+03  0.28697891044E+03  0.00000000000E+00 0.  1.
          6    1    1    2  501    0 -0.31997406412E+02 -0.16285242394E+03  0.16619635589E+03  0.29111848912E+03  0.17200000000E+03 0. -1.
         -6    1    1    2    0  503  0.31997406412E+02  0.16285242394E+03 -0.16090514269E+03  0.28813054497E+03  0.17200000000E+03 0.  1.
</event>
<event>
 4    1  0.2889985E+000  0.3064166E+03  0.7818608E-02  0.1082076E+00
         21   -1    0    0  501  502  0.00000000000E+00  0.00000000000E+00  0.36347656328E+03  0.36347656328E+03  0.00000000000E+00 0. -1.
         21   -1    0    0  502  503 -0.00000000000E+00 -0.00000000000E+00 -0.26579288682E+03  0.26579288682E+03  0.00000000000E+00 0. -1.
          6    1    1    2  501    0  0.25175536537E+03  0.30436347301E+02  0.10161941437E+03  0.32282757101E+03  0.17200000000E+03 0. -1.
         -6    1    1    2    0  503 -0.25175536537E+03 -0.30436347301E+02 -0.39357379065E+01  0.30644187909E+03  0.17200000000E+03 0. -1.
</event>
<event>
 4    1  0.2889985E+000  0.1945926E+03  0.7818608E-02  0.1154383E+00
         21   -1    0    0  503  502  0.00000000000E+00  0.00000000000E+00  0.14408689609E+04  0.14408689609E+04  0.00000000000E+00 0. -1.
         21   -1    0    0  501  503 -0.00000000000E+00 -0.00000000000E+00 -0.31443489380E+02  0.31443489380E+02  0.00000000000E+00 0.  1.
          6    1    1    2  501    0  0.88233698858E+02  0.22295267269E+02  0.10030239659E+04  0.10217256681E+04  0.17200000000E+03 0. -1.
         -6    1    1    2    0  502 -0.88233698858E+02 -0.22295267269E+02  0.40640150556E+03  0.45058678218E+03  0.17200000000E+03 0.  1.
</event>
<event>
 4    1  0.2889985E+000  0.1978981E+03  0.7818608E-02  0.1151525E+00
         21   -1    0    0  503  502  0.00000000000E+00  0.00000000000E+00  0.42442794113E+02  0.42442794113E+02  0.00000000000E+00 0. -1.
         21   -1    0    0  501  503 -0.00000000000E+00 -0.00000000000E+00 -0.11408331159E+04  0.11408331159E+04  0.00000000000E+00 0.  1.
          6    1    1    2  501    0 -0.87882120952E+02  0.43085780540E+02 -0.80787717391E+03  0.83176269440E+03  0.17200000000E+03 0.  1.
         -6    1    1    2    0  502  0.87882120952E+02 -0.43085780540E+02 -0.29051314792E+03  0.35151321566E+03  0.17200000000E+03 0. -1.
</event>
<event>
 4    1  0.2889985E+000  0.3106520E+03  0.7818608E-02  0.1080034E+00
         21   -1    0    0  503  502  0.00000000000E+00  0.00000000000E+00  0.38575602410E+03  0.38575602410E+03  0.00000000000E+00 0.  1.
         21   -1    0    0  501  503 -0.00000000000E+00 -0.00000000000E+00 -0.28946354612E+03  0.28946354612E+03  0.00000000000E+00 0. -1.
          6    1    1    2  501    0 -0.13591360769E+03 -0.22010940072E+03 -0.76241524739E+02  0.31987095388E+03  0.17200000000E+03 0. -1.
         -6    1    1    2    0  502  0.13591360769E+03  0.22010940072E+03  0.17253400272E+03  0.35534861634E+03  0.17200000000E+03 0.  1.
</event>
<event>
 4    1  0.2889985E+000  0.1722781E+03  0.7818608E-02  0.1175493E+00
         21   -1    0    0  501  502  0.00000000000E+00  0.00000000000E+00  0.92650439976E+02  0.92650439976E+02  0.00000000000E+00 0. -1.
         21   -1    0    0  502  503 -0.00000000000E+00 -0.00000000000E+00 -0.50347222607E+03  0.50347222607E+03  0.00000000000E+00 0. -1.
          6    1    1    2  501    0  0.15745139842E+01  0.96571370800E+01 -0.25648425606E+02  0.17417686737E+03  0.17200000000E+03 0. -1.
         -6    1    1    2    0  503 -0.15745139842E+01 -0.96571370800E+01 -0.38517336049E+03  0.42194579867E+03  0.17200000000E+03 0. -1.
</event>
<event>
 4    1  0.2889985E+000  0.2152360E+03  0.7818608E-02  0.1137485E+00
         21   -1    0    0  503  502  0.00000000000E+00  0.00000000000E+00  0.75385793272E+03  0.75385793272E+03  0.00000000000E+00 0.  1.
         21   -1    0    0  501  503 -0.00000000000E+00 -0.00000000000E+00 -0.85918852759E+02  0.85918852759E+02  0.00000000000E+00 0. -1.
          6    1    1    2  501    0 -0.12891720598E+03  0.11085261135E+02  0.10990487418E+03  0.24167252715E+03  0.17200000000E+03 0. -1.
         -6    1    1    2    0  502  0.12891720598E+03 -0.11085261135E+02  0.55803420578E+03  0.59810425833E+03  0.17200000000E+03 0.  1.
</event>
<event>
 4    1  0.2889985E+000  0.2318514E+03  0.7818608E-02  0.1125343E+00
         21   -1    0    0  503  502  0.00000000000E+00  0.00000000000E+00  0.42116918068E+03  0.42116918068E+03  0.00000000000E+00 0. -1.
         21   -1    0    0  501  503 -0.00000000000E+00 -0.00000000000E+00 -0.14468755637E+03  0.14468755637E+03  0.00000000000E+00 0. -1.
          6    1    1    2  501    0 -0.13245098330E+03 -0.81411347026E+02  0.23537711967E+03  0.33038985891E+03  0.17200000000E+03 0. -1.
         -6    1    1    2    0  502  0.13245098330E+03  0.81411347026E+02  0.41104504633E+02  0.23546687815E+03  0.17200000000E+03 0. -1.
</event>
<event>
 4    1  0.2889985E+000  0.2416711E+03  0.7818608E-02  0.1118685E+00
         21   -1    0    0  501  502  0.00000000000E+00  0.00000000000E+00  0.13179429090E+03  0.13179429090E+03  0.00000000000E+00 0.  1.
         21   -1    0    0  502  503 -0.00000000000E+00 -0.00000000000E+00 -0.93260417419E+03  0.93260417419E+03  0.00000000000E+00 0. -1.
          6    1    1    2  501    0 -0.18218517402E+02 -0.16878691951E+03 -0.14855055013E+02  0.24212726247E+03  0.17200000000E+03 0.  1.
         -6    1    1    2    0  503  0.18218517402E+02  0.16878691951E+03 -0.78595482828E+03  0.82227120262E+03  0.17200000000E+03 0. -1.
</event>
<event>
 4    1  0.2889985E+000  0.2883264E+03  0.7818608E-02  0.1091226E+00
         21   -1    0    0  501  502  0.00000000000E+00  0.00000000000E+00  0.31691838616E+03  0.31691838616E+03  0.00000000000E+00 0. -1.
         21   -1    0    0  502  503 -0.00000000000E+00 -0.00000000000E+00 -0.26475517505E+03  0.26475517505E+03  0.00000000000E+00 0. -1.
          6    1    1    2  501    0 -0.20260231027E+03 -0.11180532991E+03 -0.18455701669E+01  0.28833233265E+03  0.17200000000E+03 0. -1.
         -6    1    1    2    0  503  0.20260231027E+03  0.11180532991E+03  0.54008781277E+02  0.29334122856E+03  0.17200000000E+03 0. -1.
</event>
<event>
 4    1  0.2889985E+000  0.1877553E+03  0.7818608E-02  0.1160502E+00
         21   -1    0    0  503  502  0.00000000000E+00  0.00000000000E+00  0.69261796506E+02  0.69261796506E+02  0.00000000000E+00 0. -1.
         21   -1    0    0  501  503 -0.00000000000E+00 -0.00000000000E+00 -0.64140837710E+03  0.64140837710E+03  0.00000000000E+00 0.  1.
          6    1    1    2  501    0  0.74689730441E+02  0.94604085109E+01 -0.44753910132E+03  0.48532803584E+03  0.17200000000E+03 0.  1.
         -6    1    1    2    0  502 -0.74689730441E+02 -0.94604085109E+01 -0.12460747928E+03  0.22534213777E+03  0.17200000000E+03 0. -1.
</event>
<event>
 4    1  0.2889985E+000  0.2988103E+03  0.7818608E-02  0.1085837E+00
         21   -1    0    0  503  502  0.00000000000E+00  0.00000000000E+00  0.36104106293E+03  0.36104106293E+03  0.00000000000E+00 0.  1.
         21   -1    0    0  501  503 -0.00000000000E+00 -0.00000000000E+00 -0.26020991108E+03  0.26020991108E+03  0.00000000000E+00 0. -1.
          6    1    1    2  501    0  0.56845490601E+02  0.23763882523E+03  0.11958845516E+03  0.32185248122E+03  0.17200000000E+03 0.  1.
         -6    1    1    2    0  502 -0.56845490601E+02 -0.23763882523E+03 -0.18757303309E+02  0.29939849279E+03  0.17200000000E+03 0.  1.
</event>
<event>
 4    1  0.2889985E+000  0.2613225E+03  0.7818608E-02  0.1106351E+00
         21   -1    0    0  503  502  0.00000000000E+00  0.00000000000E+00  0.29647378381E+03  0.29647378381E+03  0.00000000000E+00 0.  1.
         21   -1    0    0  501  503 -0.00000000000E+00 -0.00000000000E+00 -0.45011146815E+03  0.45011146815E+03  0.00000000000E+00 0. -1.
          6    1    1    2  501    0  0.54445337817E+02  0.18905336276E+03 -0.33765994934E+03  0.42697038559E+03  0.17200000000E+03 0. -1.
         -6    1    1    2    0  502 -0.54445337817E+02 -0.18905336276E+03  0.18402226501E+03  0.31961486636E+03  0.17200000000E+03 0.  1.
</event>
<event>
 4    1  0.2889985E+000  0.2641139E+03  0.7818608E-02  0.1104696E+00
         21   -1    0    0  503  502  0.00000000000E+00  0.00000000000E+00  0.12719095747E+03  0.12719095747E+03  0.00000000000E+00 0.  1.
         21   -1    0    0  501  503 -0.00000000000E+00 -0.00000000000E+00 -0.58819381623E+03  0.58819381623E+03  0.00000000000E+00 0.  1.
          6    1    1    2  501    0  0.23969654904E+02 -0.19899148958E+03 -0.13750671418E+03  0.29776543406E+03  0.17200000000E+03 0.  1.
         -6    1    1    2    0  502 -0.23969654904E+02  0.19899148958E+03 -0.32349614458E+03  0.41761933964E+03  0.17200000000E+03 0.  1.
</event>
<event>
 4    1  0.2889985E+000  0.1819412E+03  0.7818608E-02  0.1165938E+00
         21   -1    0    0  501  502  0.00000000000E+00  0.00000000000E+00  0.63851206034E+02  0.63851206034E+02  0.00000000000E+00 0. -1.
         21   -1    0    0  502  503 -0.00000000000E+00 -0.00000000000E+00 -0.60722157073E+03  0.60722157073E+03  0.00000000000E+00 0. -1.
          6    1    1    2  501    0  0.92530470801E+01  0.58591495892E+02 -0.14338000519E+03  0.23164716307E+03  0.17200000000E+03 0. -1.
         -6    1    1    2    0  503 -0.92530470801E+01 -0.58591495892E+02 -0.39999035951E+03  0.43942561369E+03  0.17200000000E+03 0. -1.
</event>
<event>
 4    1  0.2889985E+000  0.2212391E+03  0.7818608E-02  0.1132963E+00
         21   -1    0    0  503  502  0.00000000000E+00  0.00000000000E+00  0.26991101578E+03  0.26991101578E+03  0.00000000000E+00 0. -1.
         21   -1    0    0  501  503 -0.00000000000E+00 -0.00000000000E+00 -0.18526423602E+03  0.18526423602E+03  0.00000000000E+00 0.  1.
          6    1    1    2  501    0 -0.13689196549E+03  0.24966586132E+02  0.75429601978E+02  0.23374423093E+03  0.17200000000E+03 0.  1.
         -6    1    1    2    0  502  0.13689196549E+03 -0.24966586132E+02  0.92171777840E+01  0.22143102087E+03  0.17200000000E+03 0. -1.
</event>
<event>
 4    1  0.2889985E+000  0.1756620E+03  0.7818608E-02  0.1172069E+00
         21   -1    0    0  501  502  0.00000000000E+00  0.00000000000E+00  0.19094154758E+02  0.19094154758E+02  0.00000000000E+00 0. -1.
         21   -1    0    0  502  503 -0.00000000000E+00 -0.00000000000E+00 -0.17007820476E+04  0.17007820476E+04  0.00000000000E+00 0. -1.
          6    1    1    2  501    0 -0.13512409770E+02  0.33023428639E+02 -0.64890478685E+03  0.67226077861E+03  0.17200000000E+03 0. -1.
         -6    1    1    2    0  503  0.13512409770E+02 -0.33023428639E+02 -0.10327831059E+04  0.10476154237E+04  0.17200000000E+03 0. -1.
</event>
<event>
 4    1  0.2889985E+000  0.2484268E+03  0.7818608E-02  0.1114303E+00
         21   -1    0    0  501  502  0.00000000000E+00  0.00000000000E+00  0.14654490888E+04  0.14654490888E+04  0.00000000000E+00 0.  1.
         21   -1    0    0  502  503 -0.00000000000E+00 -0.00000000000E+00 -0.56878001639E+02  0.56878001639E+02  0.00000000000E+00 0. -1.
          6    1    1    2  501    0 -0.13563486500E+03  0.11719657518E+03  0.31648487695E+03  0.40234131179E+03  0.17200000000E+03 0. -1.
         -6    1    1    2    0  503  0.13563486500E+03 -0.11719657518E+03  0.10920862102E+04  0.11199857786E+04  0.17200000000E+03 0.  1.
</event>
<event>
 4    1  0.2889985E+000  0.1996524E+03  0.7818608E-02  0.1150033E+00
         21   -1    0    0  501  502  0.00000000000E+00  0.00000000000E+00  0.12482908796E+04  0.12482908796E+04  0.00000000000E+00 0.  1.
         21   -1    0    0  502  503 -0.00000000000E+00 -0.00000000000E+00 -0.32401384270E+02  0.32401384270E+02  0.00000000000E+00 0. -1.
          6    1    1    2  501    0 -0.98116037674E+02 -0.25501416109E+02  0.68497379051E+03  0.71347752085E+03  0.17200000000E+03 0.  1.
         -6    1    1    2    0  503  0.98116037674E+02  0.25501416109E+02  0.53091570479E+03  0.56721474299E+03  0.17200000000E+03 0. -1.
</event>
<event>
 4    1  0.2889985E+000  0.2301627E+03  0.7818608E-02  0.1126525E+00
         21   -1    0    0  503  502  0.00000000000E+00  0.00000000000E+00  0.74815574190E+03  0.74815574190E+03  0.00000000000E+00 0.  1.
         21   -1    0    0  501  503 -0.00000000000E+00 -0.00000000000E+00 -0.95834713058E+02  0.95834713058E+02  0.00000000000E+00 0. -1.
          6    1    1    2  501    0 -0.44037417667E+02  0.14646350399E+03  0.11050800654E+03  0.25531719814E+03  0.17200000000E+03 0. -1.
         -6    1    1    2    0  502  0.44037417667E+02 -0.14646350399E+03  0.54181302230E+03  0.58867325681E+03  0.17200000000E+03 0.  1.
</event>
<event>
 4    1  0.2889985E+000  0.2522515E+03  0.7818608E-02  0.1111890E+00
         21   -1    0    0  501  502  0.00000000000E+00  0.00000000000E+00  0.24377535773E+03  0.24377535773E+03  0.00000000000E+00 0. -1.
         21   -1    0    0  502  503 -0.00000000000E+00 -0.00000000000E+00 -0.28010926976E+03  0.28010926976E+03  0.00000000000E+00 0. -1.
          6    1    1    2  501    0  0.17259302336E+03 -0.65257019044E+02  0.50209913307E+02  0.25720004985E+03  0.17200000000E+03 0. -1.
         -6    1    1    2    0  503 -0.17259302336E+03  0.65257019044E+02 -0.86543825342E+02  0.26668457764E+03  0.17200000000E+03 0. -1.
</event>
<event>
 4    1  0.2889985E+000  0.2166641E+03  0.7818608E-02  0.1136395E+00
         21   -1    0    0  503  502  0.00000000000E+00  0.00000000000E+00  0.33013712609E+03  0.33013712609E+03  0.00000000000E+00 0. -1.
         21   -1    0    0  501  503 -0.00000000000E+00 -0.00000000000E+00 -0.15996610198E+03  0.15996610198E+03  0.00000000000E+00 0. -1.
          6    1    1    2  501    0  0.84241549188E+02 -0.10130490741E+03  0.34046665119E+01  0.21669082728E+03  0.17200000000E+03 0. -1.
         -6    1    1    2    0  502 -0.84241549188E+02  0.10130490741E+03  0.16676635760E+03  0.27341240078E+03  0.17200000000E+03 0. -1.
</event>
<event>
 4    1  0.2889985E+000  0.1736132E+03  0.7818608E-02  0.1174131E+00
         21   -1    0    0  501  502  0.00000000000E+00  0.00000000000E+00  0.89635016581E+03  0.89635016581E+03  0.00000000000E+00 0.  1.
         21   -1    0    0  502  503 -0.00000000000E+00 -0.00000000000E+00 -0.97256139926E+02  0.97256139926E+02  0.00000000000E+00 0.  1.
          6    1    1    2  501    0 -0.23089934287E+02  0.49382687065E+01  0.80138777667E+03  0.81997798761E+03  0.17200000000E+03 0.  1.
         -6    1    1    2    0  503  0.23089934287E+02 -0.49382687065E+01 -0.22937507878E+01  0.17362831813E+03  0.17200000000E+03 0.  1.
</event>
<event>
 4    1  0.2889985E+000  0.2133340E+03  0.7818608E-02  0.1138953E+00
         21   -1    0    0  501  502  0.00000000000E+00  0.00000000000E+00  0.45018674563E+03  0.45018674563E+03  0.00000000000E+00 0.  1.
         21   -1    0    0  502  503 -0.00000000000E+00 -0.00000000000E+00 -0.14797602691E+03  0.14797602691E+03  0.00000000000E+00 0.  1.
          6    1    1    2  501    0 -0.10605466360E+03 -0.68408976464E+02  0.31944826811E+03  0.38413353893E+03  0.17200000000E+03 0.  1.
         -6    1    1    2    0  503  0.10605466360E+03  0.68408976464E+02 -0.17237549391E+02  0.21402923361E+03  0.17200000000E+03 0.  1.
</event>
<event>
 4    1  0.2889985E+000  0.2509783E+03  0.7818608E-02  0.1112688E+00
         21   -1    0    0  503  502  0.00000000000E+00  0.00000000000E+00  0.12045959435E+03  0.12045959435E+03  0.00000000000E+00 0. -1.
         21   -1    0    0  501  503 -0.00000000000E+00 -0.00000000000E+00 -0.54348956213E+03  0.54348956213E+03  0.00000000000E+00 0.  1.
          6    1    1    2  501    0 -0.14779851838E+03  0.10752544021E+03 -0.14692352557E+03  0.29082064007E+03  0.17200000000E+03 0.  1.
         -6    1    1    2    0  502  0.14779851838E+03 -0.10752544021E+03 -0.27610644221E+03  0.37312851641E+03  0.17200000000E+03 0.  1.
</event>
<event>
 4    1  0.2889985E+000  0.2239041E+03  0.7818608E-02  0.1131005E+00
         21   -1    0    0  501  502  0.00000000000E+00  0.00000000000E+00  0.12932373632E+03  0.12932373632E+03  0.00000000000E+00 0. -1.
         21   -1    0    0  502  503 -0.00000000000E+00 -0.00000000000E+00 -0.49445883593E+03  0.49445883593E+03  0.00000000000E+00 0. -1.
          6    1    1    2  501    0 -0.12553246514E+03 -0.69214497659E+02 -0.37613366050E+02  0.22704143189E+03  0.17200000000E+03 0. -1.
         -6    1    1    2    0  503  0.12553246514E+03  0.69214497659E+02 -0.32752173356E+03  0.39674114035E+03  0.17200000000E+03 0. -1.
</event>
<event>
 4    1  0.2889985E+000  0.2413292E+03  0.7818608E-02  0.1118911E+00
         21   -1    0    0  501  502  0.00000000000E+00  0.00000000000E+00  0.17154505861E+03  0.17154505861E+03  0.00000000000E+00 0.  1.
         21   -1    0    0  502  503 -0.00000000000E+00 -0.00000000000E+00 -0.36065045185E+03  0.36065045185E+03  0.00000000000E+00 0.  1.
          6    1    1    2  501    0  0.16489482802E+03 -0.38281484152E+02 -0.30114393803E+02  0.24320084920E+03  0.17200000000E+03 0.  1.
         -6    1    1    2    0  503 -0.16489482802E+03  0.38281484152E+02 -0.15899099944E+03  0.28899466126E+03  0.17200000000E+03 0.  1.
</event>
<event>
 4    1  0.2889985E+000  0.1769842E+03  0.7818608E-02  0.1170754E+00
         21   -1    0    0  501  502  0.00000000000E+00  0.00000000000E+00  0.38762682195E+03  0.38762682195E+03  0.00000000000E+00 0.  1.
         21   -1    0    0  502  503 -0.00000000000E+00 -0.00000000000E+00 -0.10903595640E+03  0.10903595640E+03  0.00000000000E+00 0.  1.
          6    1    1    2  501    0 -0.17238101681E+02  0.37977205356E+02  0.26564828168E+03  0.31920593641E+03  0.17200000000E+03 0.  1.
         -6    1    1    2    0  503  0.17238101681E+02 -0.37977205356E+02  0.12942583863E+02  0.17745684195E+03  0.17200000000E+03 0.  1.
</event>
<event>
 4    1  0.2889985E+000  0.1918680E+03  0.7818608E-02  0.1156787E+00
         21   -1    0    0  503  502  0.00000000000E+00  0.00000000000E+00  0.53149240824E+03  0.53149240824E+03  0.00000000000E+00 0.  1.
         21   -1    0    0  501  503 -0.00000000000E+00 -0.00000000000E+00 -0.72602283688E+02  0.72602283688E+02  0.00000000000E+00 0. -1.
          6    1    1    2  501    0  0.78688120859E+02 -0.32210483451E+02  0.29421238449E+03  0.35124672638E+03  0.17200000000E+03 0.  1.
         -6    1    1    2    0  502 -0.78688120859E+02  0.32210483451E+02  0.16467774007E+03  0.25284796555E+03  0.17200000000E+03 0. -1.
</event>
<event>
 4    1  0.2889985E+000  0.1733989E+03  0.7818608E-02  0.1174349E+00
         21   -1    0    0  501  502  0.00000000000E+00  0.00000000000E+00  0.11742506792E+04  0.11742506792E+04  0.00000000000E+00 0.  1.
         21   -1    0    0  502  503 -0.00000000000E+00 -0.00000000000E+00 -0.57480254240E+02  0.57480254240E+02  0.00000000000E+00 0.  1.
          6    1    1    2  501    0  0.11737960775E+02 -0.18585119601E+02  0.10170025339E+04  0.10316788940E+04  0.17200000000E+03 0.  1.
         -6    1    1    2    0  503 -0.11737960775E+02  0.18585119601E+02  0.99767891068E+02  0.20005203943E+03  0.17200000000E+03 0.  1.
</event>
<event>
 4    1  0.2889985E+000  0.1926990E+03  0.7818608E-02  0.1156049E+00
         21   -1    0    0  501  502  0.00000000000E+00  0.00000000000E+00  0.33753727331E+03  0.33753727331E+03  0.00000000000E+00 0. -1.
         21   -1    0    0  502  503 -0.00000000000E+00 -0.00000000000E+00 -0.30535780108E+03  0.30535780108E+03  0.00000000000E+00 0. -1.
          6    1    1    2  501    0 -0.79053689349E+02 -0.36047705108E+02  0.27319346948E+03  0.33431660834E+03  0.17200000000E+03 0. -1.
         -6    1    1    2    0  503  0.79053689349E+02  0.36047705108E+02 -0.24101399725E+03  0.30857846605E+03  0.17200000000E+03 0. -1.
</event>
<event>
 4    1  0.2889985E+000  0.1741181E+03  0.7818608E-02  0.1173620E+00
         21   -1    0    0  503  502  0.00000000000E+00  0.00000000000E+00  0.27892018487E+03  0.27892018487E+03  0.00000000000E+00 0. -1.
         21   -1    0    0  501  503 -0.00000000000E+00 -0.00000000000E+00 -0.45281396101E+03  0.45281396101E+03  0.00000000000E+00 0. -1.
          6    1    1    2  501    0  0.41464823860E+01 -0.26756865449E+02 -0.40589347841E+03  0.44166349066E+03  0.17200000000E+03 0. -1.
         -6    1    1    2    0  502 -0.41464823860E+01  0.26756865449E+02  0.23199970228E+03  0.29007065522E+03  0.17200000000E+03 0. -1.
</event>
<event>
 4    1  0.2889985E+000  0.1964502E+03  0.7818608E-02  0.1152769E+00
         21   -1    0    0  503  502  0.00000000000E+00  0.00000000000E+00  0.62007260080E+02  0.62007260080E+02  0.00000000000E+00 0. -1.
         21   -1    0    0  501  503 -0.00000000000E+00 -0.00000000000E+00 -0.65380666921E+03  0.65380666921E+03  0.00000000000E+00 0.  1.
          6    1    1    2  501    0  0.94874681667E+02 -0.27371139069E+01 -0.37435562521E+03  0.42277042368E+03  0.17200000000E+03 0.  1.
         -6    1    1    2    0  502 -0.94874681667E+02  0.27371139069E+01 -0.21744378392E+03  0.29304350561E+03  0.17200000000E+03 0.  1.
</event>
<event>
 4    1  0.2889985E+000  0.1887719E+03  0.7818608E-02  0.1159574E+00
         21   -1    0    0  503  502  0.00000000000E+00  0.00000000000E+00  0.38251942805E+03  0.38251942805E+03  0.00000000000E+00 0. -1.
         21   -1    0    0  501  503 -0.00000000000E+00 -0.00000000000E+00 -0.93967458495E+02  0.93967458495E+02  0.00000000000E+00 0.  1.
          6    1    1    2  501    0  0.78496847901E+01  0.77389958383E+02  0.16638526316E+03  0.25163242837E+03  0.17200000000E+03 0. -1.
         -6    1    1    2    0  502 -0.78496847901E+01 -0.77389958383E+02  0.12216670639E+03  0.22485445817E+03  0.17200000000E+03 0. -1.
</event>
<event>
 4    1  0.2889985E+000  0.2173197E+03  0.7818608E-02  0.1135897E+00
         21   -1    0    0  501  502  0.00000000000E+00  0.00000000000E+00  0.36825039193E+03  0.36825039193E+03  0.00000000000E+00 0.  1.
         21   -1    0    0  502  503 -0.00000000000E+00 -0.00000000000E+00 -0.14488151888E+03  0.14488151888E+03  0.00000000000E+00 0. -1.
          6    1    1    2  501    0 -0.13228373012E+03 -0.12035295767E+02  0.19861417777E+03  0.29440690415E+03  0.17200000000E+03 0.  1.
         -6    1    1    2    0  503  0.13228373012E+03  0.12035295767E+02  0.24754695283E+02  0.21872500666E+03  0.17200000000E+03 0. -1.
</event>
<event>
 4    1  0.2889985E+000  0.2040628E+03  0.7818608E-02  0.1146356E+00
         21   -1    0    0  501  502  0.00000000000E+00  0.00000000000E+00  0.10625600345E+04  0.10625600345E+04  0.00000000000E+00 0. -1.
         21   -1    0    0  502  503 -0.00000000000E+00 -0.00000000000E+00 -0.41936420430E+02  0.41936420430E+02  0.00000000000E+00 0.  1.
          6    1    1    2  501    0 -0.71534954395E+02 -0.83308809716E+02  0.36898286372E+03  0.42165146887E+03  0.17200000000E+03 0.  1.
         -6    1    1    2    0  503  0.71534954395E+02  0.83308809716E+02  0.65164075031E+03  0.68284498603E+03  0.17200000000E+03 0. -1.
</event>
<event>
 4    1  0.2889985E+000  0.2039391E+03  0.7818608E-02  0.1146458E+00
         21   -1    0    0  501  502  0.00000000000E+00  0.00000000000E+00  0.15870175041E+03  0.15870175041E+03  0.00000000000E+00 0.  1.
         21   -1    0    0  502  503 -0.00000000000E+00 -0.00000000000E+00 -0.12888463765E+04  0.12888463765E+04  0.00000000000E+00 0.  1.
          6    1    1    2  501    0  0.10585016734E+03 -0.28335471654E+02  0.80938995696E+02  0.21941348615E+03  0.17200000000E+03 0.  1.
         -6    1    1    2    0  503 -0.10585016734E+03  0.28335471654E+02 -0.12110836218E+04  0.12281346408E+04  0.17200000000E+03 0.  1.
</event>
<event>
 4    1  0.2889985E+000  0.2322219E+03  0.7818608E-02  0.1125086E+00
         21   -1    0    0  503  502  0.00000000000E+00  0.00000000000E+00  0.30279441691E+03  0.30279441691E+03  0.00000000000E+00 0.  1.
         21   -1    0    0  501  503 -0.00000000000E+00 -0.00000000000E+00 -0.21804915775E+03  0.21804915775E+03  0.00000000000E+00 0. -1.
          6    1    1    2  501    0  0.12962559858E+03  0.86834370137E+02 -0.69099465823E+02  0.24228441927E+03  0.17200000000E+03 0. -1.
         -6    1    1    2    0  502 -0.12962559858E+03 -0.86834370137E+02  0.15384472498E+03  0.27855915539E+03  0.17200000000E+03 0.  1.
</event>
<event>
 4    1  0.2889985E+000  0.2112269E+03  0.7818608E-02  0.1140598E+00
         21   -1    0    0  501  502  0.00000000000E+00  0.00000000000E+00  0.65201470454E+03  0.65201470454E+03  0.00000000000E+00 0.  1.
         21   -1    0    0  502  503 -0.00000000000E+00 -0.00000000000E+00 -0.10345351589E+03  0.10345351589E+03  0.00000000000E+00 0.  1.
          6    1    1    2  501    0 -0.80416081688E+02  0.92552889472E+02  0.49406606961E+03  0.53732491538E+03  0.17200000000E+03 0.  1.
         -6    1    1    2    0  503  0.80416081688E+02 -0.92552889472E+02  0.54495119037E+02  0.21814330506E+03  0.17200000000E+03 0.  1.
</event>
<event>
 4    1  0.2889985E+000  0.2091101E+03  0.7818608E-02  0.1142273E+00
         21   -1    0    0  501  502  0.00000000000E+00  0.00000000000E+00  0.42648702282E+03  0.42648702282E+03  0.00000000000E+00 0. -1.
         21   -1    0    0  502  503 -0.00000000000E+00 -0.00000000000E+00 -0.25800808828E+03  0.25800808828E+03  0.00000000000E+00 0.  1.
          6    1    1    2  501    0 -0.11333365208E+03  0.36035037021E+02  0.34992046728E+03  0.40764123197E+03  0.17200000000E+03 0. -1.
         -6    1    1    2    0  503  0.11333365208E+03 -0.36035037021E+02 -0.18144153274E+03  0.27685387913E+03  0.17200000000E+03 0.  1.
</event>
<event>
 4    1  0.2889985E+000  0.1739497E+03  0.7818608E-02  0.1173790E+00
         21   -1    0    0  503  502  0.00000000000E+00  0.00000000000E+00  0.49447686384E+03  0.49447686384E+03  0.00000000000E+00 0.  1.
         21   -1    0    0  501  503 -0.00000000000E+00 -0.00000000000E+00 -0.68094718966E+02  0.68094718966E+02  0.00000000000E+00 0.  1.
          6    1    1    2  501    0 -0.87479212559E+01 -0.24453381587E+02  0.12363984499E+03  0.21341346084E+03  0.17200000000E+03 0.  1.
         -6    1    1    2    0  502  0.87479212559E+01  0.24453381587E+02  0.30274229988E+03  0.34915812197E+03  0.17200000000E+03 0.  1.
</event>
<event>
 4    1  0.2889985E+000  0.1728194E+03  0.7818608E-02  0.1174939E+00
         21   -1    0    0  501  502  0.00000000000E+00  0.00000000000E+00  0.84274574331E+02  0.84274574331E+02  0.00000000000E+00 0. -1.
         21   -1    0    0  502  503 -0.00000000000E+00 -0.00000000000E+00 -0.13678828069E+04  0.13678828069E+04  0.00000000000E+00 0. -1.
          6    1    1    2  501    0  0.15078493035E+02  0.74290633475E+01 -0.16820911734E+02  0.17363609937E+03  0.17200000000E+03 0. -1.
         -6    1    1    2    0  503 -0.15078493035E+02 -0.74290633475E+01 -0.12667873209E+04  0.12785212819E+04  0.17200000000E+03 0. -1.
</event>
<event>
 4    1  0.2889985E+000  0.2328568E+03  0.7818608E-02  0.1124645E+00
         21   -1    0    0  503  502  0.00000000000E+00  0.00000000000E+00  0.40003338146E+03  0.40003338146E+03  0.00000000000E+00 0.  1.
         21   -1    0    0  501  503 -0.00000000000E+00 -0.00000000000E+00 -0.14146210720E+03  0.14146210720E+03  0.00000000000E+00 0.  1.
          6    1    1    2  501    0  0.65487558040E+02  0.14265220328E+03  0.73909489053E+02  0.24430489952E+03  0.17200000000E+03 0.  1.
         -6    1    1    2    0  502 -0.65487558040E+02 -0.14265220328E+03  0.18466178520E+03  0.29719058914E+03  0.17200000000E+03 0.  1.
</event>
<event>
 4    1  0.2889985E+000  0.2087374E+03  0.7818608E-02  0.1142570E+00
         21   -1    0    0  503  502  0.00000000000E+00  0.00000000000E+00  0.13876742566E+03  0.13876742566E+03  0.00000000000E+00 0. -1.
         21   -1    0    0  501  503 -0.00000000000E+00 -0.00000000000E+00 -0.53702598064E+03  0.53702598064E+03  0.00000000000E+00 0.  1.
          6    1    1    2  501    0  0.10082671188E+03 -0.61816327955E+02 -0.41688815743E+03  0.46622636137E+03  0.17200000000E+03 0.  1.
         -6    1    1    2    0  502 -0.10082671188E+03  0.61816327955E+02  0.18629602454E+02  0.20956704492E+03  0.17200000000E+03 0. -1.
</event>
<event>
 4    1  0.2889985E+000  0.1898354E+03  0.7818608E-02  0.1158610E+00
         21   -1    0    0  501  502  0.00000000000E+00  0.00000000000E+00  0.13243867954E+04  0.13243867954E+04  0.00000000000E+00 0.  1.
         21   -1    0    0  502  503 -0.00000000000E+00 -0.00000000000E+00 -0.28947371448E+02  0.28947371448E+02  0.00000000000E+00 0. -1.
          6    1    1    2  501    0 -0.55968510103E+02  0.57628217300E+02  0.81346069220E+03  0.83531777385E+03  0.17200000000E+03 0.  1.
         -6    1    1    2    0  503  0.55968510103E+02 -0.57628217300E+02  0.48197873172E+03  0.51801639297E+03  0.17200000000E+03 0.  1.
</event>
<event>
 4    1  0.2889985E+000  0.2280167E+03  0.7818608E-02  0.1128044E+00
         21   -1    0    0  503  502  0.00000000000E+00  0.00000000000E+00  0.63813948423E+03  0.63813948423E+03  0.00000000000E+00 0. -1.
         21   -1    0    0  501  503 -0.00000000000E+00 -0.00000000000E+00 -0.95326151481E+02  0.95326151481E+02  0.00000000000E+00 0. -1.
          6    1    1    2  501    0 -0.47361756559E+02  0.14200173228E+03  0.13160704134E+03  0.26327180116E+03  0.17200000000E+03 0. -1.
         -6    1    1    2    0  502  0.47361756559E+02 -0.14200173228E+03  0.41120629141E+03  0.47019383455E+03  0.17200000000E+03 0. -1.
</event>
<event>
 4    1  0.2889985E+000  0.1898163E+03  0.7818608E-02  0.1158627E+00
         21   -1    0    0  503  502  0.00000000000E+00  0.00000000000E+00  0.34052085135E+03  0.34052085135E+03  0.00000000000E+00 0.  1.
         21   -1    0    0  501  503 -0.00000000000E+00 -0.00000000000E+00 -0.13874134975E+03  0.13874134975E+03  0.00000000000E+00 0.  1.
          6    1    1    2  501    0  0.54173010401E+02  0.59257943192E+02 -0.15858572564E+02  0.19047759241E+03  0.17200000000E+03 0.  1.
         -6    1    1    2    0  502 -0.54173010401E+02 -0.59257943192E+02  0.21763807417E+03  0.28878460869E+03  0.17200000000E+03 0.  1.
</event>
<event>
 4    1  0.2889985E+000  0.1776195E+03  0.7818608E-02  0.1170127E+00
         21   -1    0    0  503  502  0.00000000000E+00  0.00000000000E+00  0.23015440080E+03  0.23015440080E+03  0.00000000000E+00 0.  1.
         21   -1    0    0  501  503 -0.00000000000E+00 -0.00000000000E+00 -0.23174461521E+03  0.23174461521E+03  0.00000000000E+00 0.  1.
          6    1    1    2  501    0  0.44106885732E+02 -0.43915101104E+01 -0.14840472267E+03  0.23145769471E+03  0.17200000000E+03 0.  1.
         -6    1    1    2    0  502 -0.44106885732E+02  0.43915101104E+01  0.14681450825E+03  0.23044132130E+03  0.17200000000E+03 0.  1.
</event>
<event>
 4    1  0.2889985E+000  0.3413095E+03  0.7818608E-02  0.1066240E+00
         21   -1    0    0  503  502  0.00000000000E+00  0.00000000000E+00  0.60870417949E+02  0.60870417949E+02  0.00000000000E+00 0. -1.
         21   -1    0    0  501  503 -0.00000000000E+00 -0.00000000000E+00 -0.19271599045E+04  0.19271599045E+04  0.00000000000E+00 0.  1.
          6    1    1    2  501    0  0.17220568816E+03  0.23927674568E+03 -0.85029811612E+03  0.91624180561E+03  0.17200000000E+03 0. -1.
         -6    1    1    2    0  502 -0.17220568816E+03 -0.23927674568E+03 -0.10159913704E+04  0.10717885169E+04  0.17200000000E+03 0.  1.
</event>
<event>
 4    1  0.2889985E+000  0.1731575E+03  0.7818608E-02  0.1174595E+00
         21   -1    0    0  501  502  0.00000000000E+00  0.00000000000E+00  0.33565283016E+03  0.33565283016E+03  0.00000000000E+00 0.  1.
         21   -1    0    0  502  503 -0.00000000000E+00 -0.00000000000E+00 -0.97384918356E+02  0.97384918356E+02  0.00000000000E+00 0.  1.
          6    1    1    2  501    0  0.19600687349E+02  0.39150699124E+01  0.18140824770E+03  0.25078370571E+03  0.17200000000E+03 0.  1.
         -6    1    1    2    0  503 -0.19600687349E+02 -0.39150699124E+01  0.56859664107E+02  0.18225404281E+03  0.17200000000E+03 0.  1.
</event>
<event>
 4    1  0.2889985E+000  0.1926488E+03  0.7818608E-02  0.1156094E+00
         21   -1    0    0  503  502  0.00000000000E+00  0.00000000000E+00  0.44190007391E+02  0.44190007391E+02  0.00000000000E+00 0.  1.
         21   -1    0    0  501  503 -0.00000000000E+00 -0.00000000000E+00 -0.93625259589E+03  0.93625259589E+03  0.00000000000E+00 0.  1.
          6    1    1    2  501    0  0.73773082703E+02  0.45684675050E+02 -0.28873790091E+03  0.34710680300E+03  0.17200000000E+03 0.  1.
         -6    1    1    2    0  502 -0.73773082703E+02 -0.45684675050E+02 -0.60332468759E+03  0.63333580028E+03  0.17200000000E+03 0.  1.
</event>
<event>
 4    1  0.2889985E+000  0.2329797E+03  0.7818608E-02  0.1124560E+00
         21   -1    0    0  501  502  0.00000000000E+00  0.00000000000E+00  0.10418341843E+04  0.10418341843E+04  0.00000000000E+00 0. -1.
         21   -1    0    0  502  503 -0.00000000000E+00 -0.00000000000E+00 -0.89634514428E+02  0.89634514428E+02  0.00000000000E+00 0.  1.
          6    1    1    2  501    0 -0.43526919462E+02 -0.15099975232E+03  0.84219210035E+03  0.87382323831E+03  0.17200000000E+03 0. -1.
         -6    1    1    2    0  503  0.43526919462E+02  0.15099975232E+03  0.11000756951E+03  0.25764546041E+03  0.17200000000E+03 0.  1.
</event>
<event>
 4    1  0.2889985E+000  0.2195971E+03  0.7818608E-02  0.1134184E+00
         21   -1    0    0  501  502  0.00000000000E+00  0.00000000000E+00  0.10933478154E+04  0.10933478154E+04  0.00000000000E+00 0.  1.
         21   -1    0    0  502  503 -0.00000000000E+00 -0.00000000000E+00 -0.57404935809E+02  0.57404935809E+02  0.00000000000E+00 0. -1.
          6    1    1    2  501    0  0.69841539975E+02 -0.11730743463E+03  0.79491462899E+03  0.82468911859E+03  0.17200000000E+03 0.  1.
         -6    1    1    2    0  503 -0.69841539975E+02  0.11730743463E+03  0.24102825056E+03  0.32606363259E+03  0.17200000000E+03 0. -1.
</event>
<event>
 4    1  0.2889985E+000  0.2081686E+03  0.7818608E-02  0.1143025E+00
         21   -1    0    0  501  502  0.00000000000E+00  0.00000000000E+00  0.36282050685E+03  0.36282050685E+03  0.00000000000E+00 0. -1.
         21   -1    0    0  502  503 -0.00000000000E+00 -0.00000000000E+00 -0.16911777804E+03  0.16911777804E+03  0.00000000000E+00 0. -1.
          6    1    1    2  501    0  0.11208310788E+03  0.34460637466E+02  0.24100686819E+03  0.31846266519E+03  0.17200000000E+03 0. -1.
         -6    1    1    2    0  503 -0.11208310788E+03 -0.34460637466E+02 -0.47304139377E+02  0.21347561971E+03  0.17200000000E+03 0. -1.
</event>
<event>
 4    1  0.2889985E+000  0.1974147E+03  0.7818608E-02  0.1151939E+00
         21   -1    0    0  501  502  0.00000000000E+00  0.00000000000E+00  0.13298929673E+03  0.13298929673E+03  0.00000000000E+00 0. -1.
         21   -1    0    0  502  503 -0.00000000000E+00 -0.00000000000E+00 -0.45441595074E+03  0.45441595074E+03  0.00000000000E+00 0. -1.
          6    1    1    2  501    0  0.90316279778E+02  0.35092957912E+02  0.14306263094E+02  0.19793235019E+03  0.17200000000E+03 0. -1.
         -6    1    1    2    0  503 -0.90316279778E+02 -0.35092957912E+02 -0.33573291711E+03  0.38947289728E+03  0.17200000000E+03 0. -1.
</event>
<event>
 4    1  0.2889985E+000  0.2447066E+03  0.7818608E-02  0.1116697E+00
         21   -1    0    0  501  502  0.00000000000E+00  0.00000000000E+00  0.54916173056E+03  0.54916173056E+03  0.00000000000E+00 0. -1.
         21   -1    0    0  502  503 -0.00000000000E+00 -0.00000000000E+00 -0.15101838165E+03  0.15101838165E+03  0.00000000000E+00 0. -1.
          6    1    1    2  501    0 -0.14807492509E+03 -0.91493826718E+02  0.38364589359E+03  0.45504447633E+03  0.17200000000E+03 0. -1.
         -6    1    1    2    0  503  0.14807492509E+03  0.91493826718E+02  0.14497455319E+02  0.24513563588E+03  0.17200000000E+03 0. -1.
</event>
<event>
 4    1  0.2889985E+000  0.2028992E+03  0.7818608E-02  0.1147316E+00
         21   -1    0    0  501  502  0.00000000000E+00  0.00000000000E+00  0.41690929467E+03  0.41690929467E+03  0.00000000000E+00 0.  1.
         21   -1    0    0  502  503 -0.00000000000E+00 -0.00000000000E+00 -0.18520234302E+03  0.18520234302E+03  0.00000000000E+00 0.  1.
          6    1    1    2  501    0  0.10549829533E+03  0.21312260313E+02  0.32154782144E+03  0.38021192015E+03  0.17200000000E+03 0.  1.
         -6    1    1    2    0  503 -0.10549829533E+03 -0.21312260313E+02 -0.89840869785E+02  0.22189971753E+03  0.17200000000E+03 0.  1.
</event>
<event>
 4    1  0.2889985E+000  0.2252780E+03  0.7818608E-02  0.1130008E+00
         21   -1    0    0  503  502  0.00000000000E+00  0.00000000000E+00  0.61303183334E+03  0.61303183334E+03  0.00000000000E+00 0.  1.
         21   -1    0    0  501  503 -0.00000000000E+00 -0.00000000000E+00 -0.91944001517E+02  0.91944001517E+02  0.00000000000E+00 0. -1.
          6    1    1    2  501    0 -0.10516514468E+03 -0.10053083103E+03  0.14929535425E+03  0.27025776297E+03  0.17200000000E+03 0. -1.
         -6    1    1    2    0  502  0.10516514468E+03  0.10053083103E+03  0.37179247758E+03  0.43471807189E+03  0.17200000000E+03 0. -1.
</event>
<event>
 4    1  0.2889985E+000  0.2346960E+03  0.7818608E-02  0.1123377E+00
         21   -1    0    0  501  502  0.00000000000E+00  0.00000000000E+00  0.47336760045E+03  0.47336760045E+03  0.00000000000E+00 0.  1.
         21   -1    0    0  502  503 -0.00000000000E+00 -0.00000000000E+00 -0.13684984941E+03  0.13684984941E+03  0.00000000000E+00 0.  1.
          6    1    1    2  501    0 -0.15065913060E+03  0.52915473066E+02  0.28631152033E+03  0.37021143634E+03  0.17200000000E+03 0.  1.
         -6    1    1    2    0  503  0.15065913060E+03 -0.52915473066E+02  0.50206230710E+02  0.24000601352E+03  0.17200000000E+03 0.  1.
</event>
<event>
 4    1  0.2889985E+000  0.2260305E+03  0.7818608E-02  0.1129465E+00
         21   -1    0    0  503  502  0.00000000000E+00  0.00000000000E+00  0.83079297374E+03  0.83079297374E+03  0.00000000000E+00 0. -1.
         21   -1    0    0  501  503 -0.00000000000E+00 -0.00000000000E+00 -0.19600254675E+03  0.19600254675E+03  0.00000000000E+00 0. -1.
          6    1    1    2  501    0  0.12100051191E+03 -0.82853221090E+02 -0.10790550403E+03  0.25046632094E+03  0.17200000000E+03 0. -1.
         -6    1    1    2    0  502 -0.12100051191E+03  0.82853221090E+02  0.74269593101E+03  0.77632919954E+03  0.17200000000E+03 0. -1.
</event>
<event>
 4    1  0.2889985E+000  0.2338358E+03  0.7818608E-02  0.1123969E+00
         21   -1    0    0  503  502  0.00000000000E+00  0.00000000000E+00  0.45552475391E+03  0.45552475391E+03  0.00000000000E+00 0.  1.
         21   -1    0    0  501  503 -0.00000000000E+00 -0.00000000000E+00 -0.15359727294E+03  0.15359727294E+03  0.00000000000E+00 0. -1.
          6    1    1    2  501    0  0.14234112592E+03 -0.69528275194E+02  0.85983254896E+01  0.23399382125E+03  0.17200000000E+03 0. -1.
         -6    1    1    2    0  502 -0.14234112592E+03  0.69528275194E+02  0.29332915548E+03  0.37512820560E+03  0.17200000000E+03 0. -1.
</event>
<event>
 4    1  0.2889985E+000  0.1873179E+03  0.7818608E-02  0.1160903E+00
         21   -1    0    0  501  502  0.00000000000E+00  0.00000000000E+00  0.23231931279E+03  0.23231931279E+03  0.00000000000E+00 0. -1.
         21   -1    0    0  502  503 -0.00000000000E+00 -0.00000000000E+00 -0.20533656797E+03  0.20533656797E+03  0.00000000000E+00 0. -1.
          6    1    1    2  501    0  0.72401464227E+02 -0.16186781790E+02 -0.99042189371E+02  0.21188992237E+03  0.17200000000E+03 0.  1.
         -6    1    1    2    0  503 -0.72401464227E+02  0.16186781790E+02  0.12602493420E+03  0.22576595839E+03  0.17200000000E+03 0.  1.
</event>
<event>
 4    1  0.2889985E+000  0.2431402E+03  0.7818608E-02  0.1117718E+00
         21   -1    0    0  501  502  0.00000000000E+00  0.00000000000E+00  0.66948932250E+03  0.66948932250E+03  0.00000000000E+00 0. -1.
         21   -1    0    0  502  503 -0.00000000000E+00 -0.00000000000E+00 -0.88658757641E+02  0.88658757641E+02  0.00000000000E+00 0.  1.
          6    1    1    2  501    0  0.12073060077E+03  0.12229987761E+03  0.26636345118E+03  0.36064750956E+03  0.17200000000E+03 0. -1.
         -6    1    1    2    0  503 -0.12073060077E+03 -0.12229987761E+03  0.31446711368E+03  0.39750057058E+03  0.17200000000E+03 0.  1.
</event>
<event>
 4    1  0.2889985E+000  0.2082283E+03  0.7818608E-02  0.1142977E+00
         21   -1    0    0  503  502  0.00000000000E+00  0.00000000000E+00  0.23192808793E+03  0.23192808793E+03  0.00000000000E+00 0.  1.
         21   -1    0    0  501  503 -0.00000000000E+00 -0.00000000000E+00 -0.27694923347E+03  0.27694923347E+03  0.00000000000E+00 0. -1.
          6    1    1    2  501    0 -0.43251833932E+02  0.10910693896E+03 -0.16755514922E+03  0.26727097354E+03  0.17200000000E+03 0. -1.
         -6    1    1    2    0  502  0.43251833932E+02 -0.10910693896E+03  0.12253400368E+03  0.24160634786E+03  0.17200000000E+03 0.  1.
</event>
<event>
 4    1  0.2889985E+000  0.1847462E+03  0.7818608E-02  0.1163287E+00
         21   -1    0    0  503  502  0.00000000000E+00  0.00000000000E+00  0.73363996822E+02  0.73363996822E+02  0.00000000000E+00 0. -1.
         21   -1    0    0  501  503 -0.00000000000E+00 -0.00000000000E+00 -0.92348858201E+03  0.92348858201E+03  0.00000000000E+00 0. -1.
          6    1    1    2  501    0 -0.55217849575E+02  0.38705826817E+02 -0.77616999120E+03  0.79785400117E+03  0.17200000000E+03 0. -1.
         -6    1    1    2    0  502  0.55217849575E+02 -0.38705826817E+02 -0.73954593991E+02  0.19899857767E+03  0.17200000000E+03 0. -1.
</event>
<event>
 4    1  0.2889985E+000  0.2456820E+03  0.7818608E-02  0.1116065E+00
         21   -1    0    0  501  502  0.00000000000E+00  0.00000000000E+00  0.13106471771E+03  0.13106471771E+03  0.00000000000E+00 0. -1.
         21   -1    0    0  502  503 -0.00000000000E+00 -0.00000000000E+00 -0.79411547023E+03  0.79411547023E+03  0.00000000000E+00 0.  1.
          6    1    1    2  501    0 -0.41468891963E+02 -0.17045811034E+03 -0.31708505599E+02  0.24771973217E+03  0.17200000000E+03 0. -1.
         -6    1    1    2    0  503  0.41468891963E+02  0.17045811034E+03 -0.63134224692E+03  0.67746045577E+03  0.17200000000E+03 0.  1.
</event>
<event>
 4    1  0.2889985E+000  0.1739414E+03  0.7818608E-02  0.1173799E+00
         21   -1    0    0  501  502  0.00000000000E+00  0.00000000000E+00  0.10124977916E+03  0.10124977916E+03  0.00000000000E+00 0. -1.
         21   -1    0    0  502  503 -0.00000000000E+00 -0.00000000000E+00 -0.51745801900E+03  0.51745801900E+03  0.00000000000E+00 0. -1.
          6    1    1    2  501    0 -0.29284320536E+01  0.25749177252E+02 -0.70191858535E+01  0.17408292511E+03  0.17200000000E+03 0. -1.
         -6    1    1    2    0  503  0.29284320536E+01 -0.25749177252E+02 -0.40918905398E+03  0.44462487305E+03  0.17200000000E+03 0. -1.
</event>
<event>
 4    1  0.2889985E+000  0.3848690E+03  0.7818608E-02  0.1049149E+00
         21   -1    0    0  501  502  0.00000000000E+00  0.00000000000E+00  0.84172052915E+02  0.84172052915E+02  0.00000000000E+00 0.  1.
         21   -1    0    0  502  503 -0.00000000000E+00 -0.00000000000E+00 -0.22490511081E+04  0.22490511081E+04  0.00000000000E+00 0. -1.
          6    1    1    2  501    0  0.26534463518E+03  0.21939093542E+03 -0.16265688505E+04  0.16714814936E+04  0.17200000000E+03 0. -1.
         -6    1    1    2    0  503 -0.26534463518E+03 -0.21939093542E+03 -0.53831020473E+03  0.66174166748E+03  0.17200000000E+03 0.  1.
</event>
<event>
 4    1  0.2889985E+000  0.2440320E+03  0.7818608E-02  0.1117136E+00
         21   -1    0    0  503  502  0.00000000000E+00  0.00000000000E+00  0.61812719384E+03  0.61812719384E+03  0.00000000000E+00 0.  1.
         21   -1    0    0  501  503 -0.00000000000E+00 -0.00000000000E+00 -0.10321240364E+03  0.10321240364E+03  0.00000000000E+00 0. -1.
          6    1    1    2  501    0  0.99932351722E+02  0.14135465897E+03  0.16440346253E+03  0.29424498811E+03  0.17200000000E+03 0.  1.
         -6    1    1    2    0  502 -0.99932351722E+02 -0.14135465897E+03  0.35051132767E+03  0.42709460938E+03  0.17200000000E+03 0. -1.
</event>
<event>
 4    1  0.2889985E+000  0.1800778E+03  0.7818608E-02  0.1167728E+00
         21   -1    0    0  503  502  0.00000000000E+00  0.00000000000E+00  0.90705164068E+02  0.90705164068E+02  0.00000000000E+00 0.  1.
         21   -1    0    0  501  503 -0.00000000000E+00 -0.00000000000E+00 -0.42632894375E+03  0.42632894375E+03  0.00000000000E+00 0.  1.
          6    1    1    2  501    0  0.43341484179E+02 -0.31072968067E+02 -0.27167717764E+03  0.32593941530E+03  0.17200000000E+03 0.  1.
         -6    1    1    2    0  502 -0.43341484179E+02  0.31072968067E+02 -0.63946602039E+02  0.19109469252E+03  0.17200000000E+03 0.  1.
</event>
<event>
 4    1  0.2889985E+000  0.2368136E+03  0.7818608E-02  0.1121934E+00
         21   -1    0    0  503  502  0.00000000000E+00  0.00000000000E+00  0.24723666099E+03  0.24723666099E+03  0.00000000000E+00 0.  1.
         21   -1    0    0  501  503 -0.00000000000E+00 -0.00000000000E+00 -0.14607655471E+04  0.14607655471E+04  0.00000000000E+00 0. -1.
          6    1    1    2  501    0 -0.14868710291E+03 -0.66248393539E+02 -0.13916645756E+04  0.14116695772E+04  0.17200000000E+03 0. -1.
         -6    1    1    2    0  502  0.14868710291E+03  0.66248393539E+02  0.17813568953E+03  0.29633263084E+03  0.17200000000E+03 0.  1.
</event>
<event>
 4    1  0.2889985E+000  0.2064959E+03  0.7818608E-02  0.1144371E+00
         21   -1    0    0  503  502  0.00000000000E+00  0.00000000000E+00  0.44489864092E+02  0.44489864092E+02  0.00000000000E+00 0.  1.
         21   -1    0    0  501  503 -0.00000000000E+00 -0.00000000000E+00 -0.95844070273E+03  0.95844070273E+03  0.00000000000E+00 0. -1.
          6    1    1    2  501    0  0.44104481946E+02 -0.10541044443E+03 -0.45836935905E+03  0.50273555319E+03  0.17200000000E+03 0.  1.
         -6    1    1    2    0  502 -0.44104481946E+02  0.10541044443E+03 -0.45558147959E+03  0.50019501364E+03  0.17200000000E+03 0. -1.
</event>
<event>
 4    1  0.2889985E+000  0.1905156E+03  0.7818608E-02  0.1157997E+00
         21   -1    0    0  503  502  0.00000000000E+00  0.00000000000E+00  0.17540332822E+03  0.17540332822E+03  0.00000000000E+00 0. -1.
         21   -1    0    0  501  503 -0.00000000000E+00 -0.00000000000E+00 -0.20754564106E+03  0.20754564106E+03  0.00000000000E+00 0. -1.
          6    1    1    2  501    0  0.37325834557E+02 -0.72931349353E+02 -0.26500095693E+02  0.19234982380E+03  0.17200000000E+03 0. -1.
         -6    1    1    2    0  502 -0.37325834557E+02  0.72931349353E+02 -0.56422171459E+01  0.19059914548E+03  0.17200000000E+03 0. -1.
</event>
<event>
 4    1  0.2889985E+000  0.2026227E+03  0.7818608E-02  0.1147545E+00
         21   -1    0    0  501  502  0.00000000000E+00  0.00000000000E+00  0.10460312432E+03  0.10460312432E+03  0.00000000000E+00 0. -1.
         21   -1    0    0  502  503 -0.00000000000E+00 -0.00000000000E+00 -0.52191917546E+03  0.52191917546E+03  0.00000000000E+00 0. -1.
          6    1    1    2  501    0 -0.70168699693E+02 -0.80921764006E+02 -0.52661033991E+02  0.20935415641E+03  0.17200000000E+03 0. -1.
         -6    1    1    2    0  503  0.70168699693E+02  0.80921764006E+02 -0.36465501715E+03  0.41716814337E+03  0.17200000000E+03 0. -1.
</event>
<event>
 4    1  0.2889985E+000  0.1782814E+03  0.7818608E-02  0.1169477E+00
         21   -1    0    0  503  502  0.00000000000E+00  0.00000000000E+00  0.58391524050E+03  0.58391524050E+03  0.00000000000E+00 0. -1.
         21   -1    0    0  501  503 -0.00000000000E+00 -0.00000000000E+00 -0.19837300280E+03  0.19837300280E+03  0.00000000000E+00 0. -1.
          6    1    1    2  501    0 -0.59826403749E+00 -0.46903040126E+02 -0.14041453303E+03  0.22693720316E+03  0.17200000000E+03 0. -1.
         -6    1    1    2    0  502  0.59826403749E+00  0.46903040126E+02  0.52595677074E+03  0.55535104013E+03  0.17200000000E+03 0. -1.
</event>
<event>
 4    1  0.2889985E+000  0.1811917E+03  0.7818608E-02  0.1166655E+00
         21   -1    0    0  501  502  0.00000000000E+00  0.00000000000E+00  0.44600581353E+03  0.44600581353E+03  0.00000000000E+00 0. -1.
         21   -1    0    0  502  503 -0.00000000000E+00 -0.00000000000E+00 -0.87860260288E+02  0.87860260288E+02  0.00000000000E+00 0. -1.
          6    1    1    2  501    0 -0.40050452829E+02  0.40526676169E+02  0.28657532775E+03  0.33905142491E+03  0.17200000000E+03 0. -1.
         -6    1    1    2    0  503  0.40050452829E+02 -0.40526676169E+02  0.71570225482E+02  0.19481464891E+03  0.17200000000E+03 0. -1.
</event>
<event>
 4    1  0.2889985E+000  0.2523097E+03  0.7818608E-02  0.1111854E+00
         21   -1    0    0  503  502  0.00000000000E+00  0.00000000000E+00  0.98633253473E+02  0.98633253473E+02  0.00000000000E+00 0.  1.
         21   -1    0    0  501  503 -0.00000000000E+00 -0.00000000000E+00 -0.66031043344E+03  0.66031043344E+03  0.00000000000E+00 0.  1.
          6    1    1    2  501    0  0.88236659687E+02 -0.16214334054E+03 -0.33781765252E+03  0.42164076813E+03  0.17200000000E+03 0.  1.
         -6    1    1    2    0  502 -0.88236659687E+02  0.16214334054E+03 -0.22385952745E+03  0.33730291879E+03  0.17200000000E+03 0.  1.
</event>
<event>
 4    1  0.2889985E+000  0.2048787E+03  0.7818608E-02  0.1145687E+00
         21   -1    0    0  501  502  0.00000000000E+00  0.00000000000E+00  0.19457396822E+03  0.19457396822E+03  0.00000000000E+00 0. -1.
         21   -1    0    0  502  503 -0.00000000000E+00 -0.00000000000E+00 -0.22020767500E+03  0.22020767500E+03  0.00000000000E+00 0. -1.
          6    1    1    2  501    0  0.10205180845E+03  0.44460332027E+02 -0.42392675958E+02  0.20921862180E+03  0.17200000000E+03 0.  1.
         -6    1    1    2    0  503 -0.10205180845E+03 -0.44460332027E+02  0.16758969179E+02  0.20556302143E+03  0.17200000000E+03 0.  1.
</event>
<event>
 4    1  0.2889985E+000  0.1901580E+03  0.7818608E-02  0.1158319E+00
         21   -1    0    0  503  502  0.00000000000E+00  0.00000000000E+00  0.12230267317E+03  0.12230267317E+03  0.00000000000E+00 0. -1.
         21   -1    0    0  501  503 -0.00000000000E+00 -0.00000000000E+00 -0.29713772556E+03  0.29713772556E+03  0.00000000000E+00 0. -1.
          6    1    1    2  501    0  0.60790316729E+02  0.53671139251E+02 -0.10220532878E+03  0.21588418892E+03  0.17200000000E+03 0. -1.
         -6    1    1    2    0  502 -0.60790316729E+02 -0.53671139251E+02 -0.72629723609E+02  0.20355620980E+03  0.17200000000E+03 0. -1.
</event>
<event>
 4    1  0.2889985E+000  0.1789888E+03  0.7818608E-02  0.1168785E+00
         21   -1    0    0  503  502  0.00000000000E+00  0.00000000000E+00  0.55367012630E+02  0.55367012630E+02  0.00000000000E+00 0. -1.
         21   -1    0    0  501  503 -0.00000000000E+00 -0.00000000000E+00 -0.60882210102E+03  0.60882210102E+03  0.00000000000E+00 0. -1.
          6    1    1    2  501    0  0.33908796938E+02  0.36099443325E+02 -0.20277243499E+03  0.27046928977E+03  0.17200000000E+03 0. -1.
         -6    1    1    2    0  502 -0.33908796938E+02 -0.36099443325E+02 -0.35068265339E+03  0.39371982387E+03  0.17200000000E+03 0. -1.
</event>
<event>
 4    1  0.2889985E+000  0.2319077E+03  0.7818608E-02  0.1125304E+00
         21   -1    0    0  503  502  0.00000000000E+00  0.00000000000E+00  0.65656698527E+03  0.65656698527E+03  0.00000000000E+00 0.  1.
         21   -1    0    0  501  503 -0.00000000000E+00 -0.00000000000E+00 -0.29208219499E+03  0.29208219499E+03  0.00000000000E+00 0.  1.
          6    1    1    2  501    0  0.15279423148E+03 -0.29173501781E+02 -0.22011125453E+03  0.31973447539E+03  0.17200000000E+03 0.  1.
         -6    1    1    2    0  502 -0.15279423148E+03  0.29173501781E+02  0.58459604482E+03  0.62891470487E+03  0.17200000000E+03 0.  1.
</event>
<event>
 4    1  0.2889985E+000  0.2020097E+03  0.7818608E-02  0.1148054E+00
         21   -1    0    0  503  502  0.00000000000E+00  0.00000000000E+00  0.64295315462E+02  0.64295315462E+02  0.00000000000E+00 0.  1.
         21   -1    0    0  501  503 -0.00000000000E+00 -0.00000000000E+00 -0.76609064206E+03  0.76609064206E+03  0.00000000000E+00 0.  1.
          6    1    1    2  501    0  0.96746794389E+02  0.43173974461E+02 -0.52284676568E+03  0.56051465162E+03  0.17200000000E+03 0.  1.
         -6    1    1    2    0  502 -0.96746794389E+02 -0.43173974461E+02 -0.17894856091E+03  0.26987130590E+03  0.17200000000E+03 0.  1.
</event>
<event>
 4    1  0.2889985E+000  0.2507168E+03  0.7818608E-02  0.1112853E+00
         21   -1    0    0  503  502  0.00000000000E+00  0.00000000000E+00  0.11832864177E+03  0.11832864177E+03  0.00000000000E+00 0.  1.
         21   -1    0    0  501  503 -0.00000000000E+00 -0.00000000000E+00 -0.60740527225E+03  0.60740527225E+03  0.00000000000E+00 0. -1.
          6    1    1    2  501    0  0.12734005808E+03 -0.13061171323E+03 -0.37304767765E+03  0.44947022129E+03  0.17200000000E+03 0.  1.
         -6    1    1    2    0  502 -0.12734005808E+03  0.13061171323E+03 -0.11602895283E+03  0.27626369273E+03  0.17200000000E+03 0.  1.
</event>
<event>
 4    1  0.2889985E+000  0.1801033E+03  0.7818608E-02  0.1167703E+00
         21   -1    0    0  501  502  0.00000000000E+00  0.00000000000E+00  0.17320859030E+03  0.17320859030E+03  0.00000000000E+00 0. -1.
         21   -1    0    0  502  503 -0.00000000000E+00 -0.00000000000E+00 -0.19238924520E+03  0.19238924520E+03  0.00000000000E+00 0. -1.
          6    1    1    2  501    0 -0.53390877240E+02  0.16191790411E+01  0.20220887955E+02  0.18123490785E+03  0.17200000000E+03 0.  1.
         -6    1    1    2    0  503  0.53390877240E+02 -0.16191790411E+01 -0.39401542861E+02  0.18436292765E+03  0.17200000000E+03 0.  1.
</event>
<event>
 4    1  0.2889985E+000  0.1928205E+03  0.7818608E-02  0.1155942E+00
         21   -1    0    0  503  502  0.00000000000E+00  0.00000000000E+00  0.58601439909E+02  0.58601439909E+02  0.00000000000E+00 0. -1.
         21   -1    0    0  501  503 -0.00000000000E+00 -0.00000000000E+00 -0.63835257979E+03  0.63835257979E+03  0.00000000000E+00 0. -1.
          6    1    1    2  501    0 -0.41233848503E+02 -0.76782250092E+02 -0.26263211818E+03  0.32581493780E+03  0.17200000000E+03 0. -1.
         -6    1    1    2    0  502  0.41233848503E+02  0.76782250092E+02 -0.31711902170E+03  0.37113908190E+03  0.17200000000E+03 0. -1.
</event>
<event>
 4    1  0.2889985E+000  0.2068923E+03  0.7818608E-02  0.1144051E+00
         21   -1    0    0  503  502  0.00000000000E+00  0.00000000000E+00  0.27825898937E+03  0.27825898937E+03  0.00000000000E+00 0. -1.
         21   -1    0    0  501  503 -0.00000000000E+00 -0.00000000000E+00 -0.54682989454E+03  0.54682989454E+03  0.00000000000E+00 0. -1.
          6    1    1    2  501    0 -0.14606566089E+02  0.11404862168E+03 -0.48402207520E+03  0.52638560881E+03  0.17200000000E+03 0. -1.
         -6    1    1    2    0  502  0.14606566089E+02 -0.11404862168E+03  0.21545117004E+03  0.29870327509E+03  0.17200000000E+03 0. -1.
</event>
<event>
 4    1  0.2889985E+000  0.2202682E+03  0.7818608E-02  0.1133683E+00
         21   -1    0    0  503  502  0.00000000000E+00  0.00000000000E+00  0.47865850821E+03  0.47865850821E+03  0.00000000000E+00 0. -1.
         21   -1    0    0  501  503 -0.00000000000E+00 -0.00000000000E+00 -0.26365910534E+03  0.26365910534E+03  0.00000000000E+00 0. -1.
          6    1    1    2  501    0 -0.67620399609E+02  0.11983978424E+03 -0.18370132881E+03  0.28681748646E+03  0.17200000000E+03 0. -1.
         -6    1    1    2    0  502  0.67620399609E+02 -0.11983978424E+03  0.39870073169E+03  0.45550012709E+03  0.17200000000E+03 0. -1.
</event>
<event>
 4    1  0.2889985E+000  0.1926528E+03  0.7818608E-02  0.1156090E+00
         21   -1    0    0  501  502  0.00000000000E+00  0.00000000000E+00  0.47204225022E+02  0.47204225022E+02  0.00000000000E+00 0.  1.
         21   -1    0    0  502  503 -0.00000000000E+00 -0.00000000000E+00 -0.91086444200E+03  0.91086444200E+03  0.00000000000E+00 0.  1.
          6    1    1    2  501    0 -0.58726480452E+02 -0.63892911059E+02 -0.60900211286E+03  0.63874774133E+03  0.17200000000E+03 0.  1.
         -6    1    1    2    0  503  0.58726480452E+02  0.63892911059E+02 -0.25465810412E+03  0.31932092569E+03  0.17200000000E+03 0.  1.
</event>
<event>
 4    1  0.2889985E+000  0.2104553E+03  0.7818608E-02  0.1141206E+00
         21   -1    0    0  503  502  0.00000000000E+00  0.00000000000E+00  0.34589561344E+02  0.34589561344E+02  0.00000000000E+00 0. -1.
         21   -1    0    0  501  503 -0.00000000000E+00 -0.00000000000E+00 -0.17497925725E+04  0.17497925725E+04  0.00000000000E+00 0.  1.
          6    1    1    2  501    0  0.11404870705E+03 -0.41235147184E+02 -0.13196557450E+04  0.13363318190E+04  0.17200000000E+03 0.  1.
         -6    1    1    2    0  502 -0.11404870705E+03  0.41235147184E+02 -0.39554726617E+03  0.44805031494E+03  0.17200000000E+03 0. -1.
</event>
<event>
 4    1  0.2889985E+000  0.2071594E+03  0.7818608E-02  0.1143835E+00
         21   -1    0    0  501  502  0.00000000000E+00  0.00000000000E+00  0.40597445009E+03  0.40597445009E+03  0.00000000000E+00 0. -1.
         21   -1    0    0  502  503 -0.00000000000E+00 -0.00000000000E+00 -0.10636577319E+03  0.10636577319E+03  0.00000000000E+00 0.  1.
          6    1    1    2  501    0  0.10747158106E+03 -0.42200507093E+02  0.16993883362E+03  0.26794445452E+03  0.17200000000E+03 0. -1.
         -6    1    1    2    0  503 -0.10747158106E+03  0.42200507093E+02  0.12966984328E+03  0.24439576876E+03  0.17200000000E+03 0.  1.
</event>
<event>
 4    1  0.2889985E+000  0.2031535E+03  0.7818608E-02  0.1147105E+00
         21   -1    0    0  501  502  0.00000000000E+00  0.00000000000E+00  0.15374945554E+04  0.15374945554E+04  0.00000000000E+00 0.  1.
         21   -1    0    0  502  503 -0.00000000000E+00 -0.00000000000E+00 -0.28449662523E+02  0.28449662523E+02  0.00000000000E+00 0.  1.
          6    1    1    2  501    0 -0.29778193606E+02  0.10392590343E+03  0.94057589497E+03  0.96226521729E+03  0.17200000000E+03 0.  1.
         -6    1    1    2    0  503  0.29778193606E+02 -0.10392590343E+03  0.56846899792E+03  0.60367900064E+03  0.17200000000E+03 0.  1.
</event>
<event>
 4    1  0.2889985E+000  0.2017120E+03  0.7818608E-02  0.1148303E+00
         21   -1    0    0  501  502  0.00000000000E+00  0.00000000000E+00  0.50099582833E+03  0.50099582833E+03  0.00000000000E+00 0.  1.
         21   -1    0    0  502  503 -0.00000000000E+00 -0.00000000000E+00 -0.14175361699E+03  0.14175361699E+03  0.00000000000E+00 0. -1.
          6    1    1    2  501    0  0.19383209130E+02 -0.10357619667E+03  0.38964343071E+03  0.43875931945E+03  0.17200000000E+03 0.  1.
         -6    1    1    2    0  503 -0.19383209130E+02  0.10357619667E+03 -0.30401219364E+02  0.20399012587E+03  0.17200000000E+03 0. -1.
</event>
<event>
 4    1  0.2889985E+000  0.2184305E+03  0.7818608E-02  0.1135059E+00
         21   -1    0    0  503  502  0.00000000000E+00  0.00000000000E+00  0.18884193193E+03  0.18884193193E+03  0.00000000000E+00 0. -1.
         21   -1    0    0  501  503 -0.00000000000E+00 -0.00000000000E+00 -0.33693577972E+03  0.33693577972E+03  0.00000000000E+00 0. -1.
          6    1    1    2  501    0 -0.10821150735E+03 -0.80113504269E+02 -0.20552770058E+03  0.29992255600E+03  0.17200000000E+03 0. -1.
         -6    1    1    2    0  502  0.10821150735E+03  0.80113504269E+02  0.57433852800E+02  0.22585515565E+03  0.17200000000E+03 0. -1.
</event>
<event>
 4    1  0.2889985E+000  0.2792090E+03  0.7818608E-02  0.1096122E+00
         21   -1    0    0  503  502  0.00000000000E+00  0.00000000000E+00  0.12935803001E+03  0.12935803001E+03  0.00000000000E+00 0.  1.
         21   -1    0    0  501  503 -0.00000000000E+00 -0.00000000000E+00 -0.17137153830E+04  0.17137153830E+04  0.00000000000E+00 0.  1.
          6    1    1    2  501    0  0.15643837644E+03  0.15459850062E+03 -0.15341942683E+04  0.15593940217E+04  0.17200000000E+03 0.  1.
         -6    1    1    2    0  502 -0.15643837644E+03 -0.15459850062E+03 -0.50163084748E+02  0.28367939137E+03  0.17200000000E+03 0.  1.
</event>
<event>
 4    1  0.2889985E+000  0.2664893E+03  0.7818608E-02  0.1103306E+00
         21   -1    0    0  503  502  0.00000000000E+00  0.00000000000E+00  0.53227002861E+03  0.53227002861E+03  0.00000000000E+00 0.  1.
         21   -1    0    0  501  503 -0.00000000000E+00 -0.00000000000E+00 -0.14772065754E+03  0.14772065754E+03  0.00000000000E+00 0. -1.
          6    1    1    2  501    0 -0.69116184744E+02  0.19145626567E+03  0.86495674432E+02  0.28017503521E+03  0.17200000000E+03 0. -1.
         -6    1    1    2    0  502  0.69116184744E+02 -0.19145626567E+03  0.29805369664E+03  0.39981565095E+03  0.17200000000E+03 0.  1.
</event>
<event>
 4    1  0.2889985E+000  0.1902712E+03  0.7818608E-02  0.1158217E+00
         21   -1    0    0  501  502  0.00000000000E+00  0.00000000000E+00  0.64464659811E+03  0.64464659811E+03  0.00000000000E+00 0.  1.
         21   -1    0    0  502  503 -0.00000000000E+00 -0.00000000000E+00 -0.69551392410E+02  0.69551392410E+02  0.00000000000E+00 0. -1.
          6    1    1    2  501    0  0.81348457376E+02  0.12495499996E+01  0.44424223429E+03  0.48327455511E+03  0.17200000000E+03 0.  1.
         -6    1    1    2    0  503 -0.81348457376E+02 -0.12495499996E+01  0.13085297141E+03  0.23092343540E+03  0.17200000000E+03 0. -1.
</event>
<event>
 4    1  0.2889985E+000  0.1774074E+03  0.7818608E-02  0.1170336E+00
         21   -1    0    0  501  502  0.00000000000E+00  0.00000000000E+00  0.39745661714E+03  0.39745661714E+03  0.00000000000E+00 0.  1.
         21   -1    0    0  502  503 -0.00000000000E+00 -0.00000000000E+00 -0.10566443089E+03  0.10566443089E+03  0.00000000000E+00 0.  1.
          6    1    1    2  501    0  0.27664174741E+02  0.33527264139E+02  0.27182234420E+03  0.32459323901E+03  0.17200000000E+03 0.  1.
         -6    1    1    2    0  503 -0.27664174741E+02 -0.33527264139E+02  0.19969842057E+02  0.17852780903E+03  0.17200000000E+03 0.  1.
</event>
<event>
 4    1  0.2889985E+000  0.2695372E+03  0.7818608E-02  0.1101545E+00
         21   -1    0    0  503  502  0.00000000000E+00  0.00000000000E+00  0.23952496621E+03  0.23952496621E+03  0.00000000000E+00 0.  1.
         21   -1    0    0  501  503 -0.00000000000E+00 -0.00000000000E+00 -0.43038062855E+03  0.43038062855E+03  0.00000000000E+00 0.  1.
          6    1    1    2  501    0 -0.28027299795E+02  0.20562284199E+03 -0.27743147751E+03  0.38680551624E+03  0.17200000000E+03 0.  1.
         -6    1    1    2    0  502  0.28027299795E+02 -0.20562284199E+03  0.86575815169E+02  0.28310007851E+03  0.17200000000E+03 0.  1.
</event>
<event>
 4    1  0.2889985E+000  0.2469771E+03  0.7818608E-02  0.1115230E+00
         21   -1    0    0  503  502  0.00000000000E+00  0.00000000000E+00  0.25468518580E+03  0.25468518580E+03  0.00000000000E+00 0.  1.
         21   -1    0    0  501  503 -0.00000000000E+00 -0.00000000000E+00 -0.51688755735E+03  0.51688755735E+03  0.00000000000E+00 0. -1.
          6    1    1    2  501    0  0.15920972763E+03  0.77884086970E+02 -0.41371318014E+03  0.48182596837E+03  0.17200000000E+03 0. -1.
         -6    1    1    2    0  502 -0.15920972763E+03 -0.77884086970E+02  0.15151080859E+03  0.28974677478E+03  0.17200000000E+03 0.  1.
</event>
<event>
 4    1  0.2889985E+000  0.1779720E+03  0.7818608E-02  0.1169780E+00
         21   -1    0    0  501  502  0.00000000000E+00  0.00000000000E+00  0.10260901211E+03  0.10260901211E+03  0.00000000000E+00 0. -1.
         21   -1    0    0  502  503 -0.00000000000E+00 -0.00000000000E+00 -0.36944501597E+03  0.36944501597E+03  0.00000000000E+00 0. -1.
          6    1    1    2  501    0  0.43894345091E+02 -0.12779469242E+02 -0.37700802598E+02  0.18192135356E+03  0.17200000000E+03 0. -1.
         -6    1    1    2    0  503 -0.43894345091E+02  0.12779469242E+02 -0.22913520126E+03  0.29013267452E+03  0.17200000000E+03 0. -1.
</event>
<event>
 4    1  0.2889985E+000  0.1822133E+03  0.7818608E-02  0.1165678E+00
         21   -1    0    0  501  502  0.00000000000E+00  0.00000000000E+00  0.10917477913E+03  0.10917477913E+03  0.00000000000E+00 0.  1.
         21   -1    0    0  502  503 -0.00000000000E+00 -0.00000000000E+00 -0.10923224853E+04  0.10923224853E+04  0.00000000000E+00 0.  1.
          6    1    1    2  501    0 -0.42306919165E+02  0.42752820881E+02  0.18740347455E+02  0.18317445162E+03  0.17200000000E+03 0.  1.
         -6    1    1    2    0  503  0.42306919165E+02 -0.42752820881E+02 -0.10018880536E+04  0.10183228128E+04  0.17200000000E+03 0.  1.
</event>
<event>
 4    1  0.2889985E+000  0.1755059E+03  0.7818608E-02  0.1172225E+00
         21   -1    0    0  503  502  0.00000000000E+00  0.00000000000E+00  0.49723922814E+03  0.49723922814E+03  0.00000000000E+00 0. -1.
         21   -1    0    0  501  503 -0.00000000000E+00 -0.00000000000E+00 -0.65019281793E+02  0.65019281793E+02  0.00000000000E+00 0. -1.
          6    1    1    2  501    0 -0.27320402731E+02 -0.21723280691E+02  0.27722388596E+03  0.32810880554E+03  0.17200000000E+03 0. -1.
         -6    1    1    2    0  502  0.27320402731E+02  0.21723280691E+02  0.15499606039E+03  0.23414970439E+03  0.17200000000E+03 0. -1.
</event>
<event>
 4    1  0.2889985E+000  0.3005597E+03  0.7818608E-02  0.1084961E+00
         21   -1    0    0  503  502  0.00000000000E+00  0.00000000000E+00  0.20448410968E+03  0.20448410968E+03  0.00000000000E+00 0.  1.
         21   -1    0    0  501  503 -0.00000000000E+00 -0.00000000000E+00 -0.47865522933E+03  0.47865522933E+03  0.00000000000E+00 0.  1.
          6    1    1    2  501    0  0.18828484346E+03  0.15906268520E+03 -0.42274214412E+02  0.30351808728E+03  0.17200000000E+03 0.  1.
         -6    1    1    2    0  502 -0.18828484346E+03 -0.15906268520E+03 -0.23189690525E+03  0.37962125173E+03  0.17200000000E+03 0.  1.
</event>
<event>
 4    1  0.2889985E+000  0.2097390E+03  0.7818608E-02  0.1141773E+00
         21   -1    0    0  501  502  0.00000000000E+00  0.00000000000E+00  0.48673833615E+03  0.48673833615E+03  0.00000000000E+00 0. -1.
         21   -1    0    0  502  503 -0.00000000000E+00 -0.00000000000E+00 -0.90867260572E+02  0.90867260572E+02  0.00000000000E+00 0. -1.
          6    1    1    2  501    0  0.82497992389E+02  0.87181126186E+02  0.21912599266E+03  0.30332600972E+03  0.17200000000E+03 0.  1.
         -6    1    1    2    0  503 -0.82497992389E+02 -0.87181126186E+02  0.17674508291E+03  0.27427958700E+03  0.17200000000E+03 0.  1.
</event>
<event>
 4    1  0.2889985E+000  0.1859660E+03  0.7818608E-02  0.1162151E+00
         21   -1    0    0  501  502  0.00000000000E+00  0.00000000000E+00  0.13964705656E+03  0.13964705656E+03  0.00000000000E+00 0. -1.
         21   -1    0    0  502  503 -0.00000000000E+00 -0.00000000000E+00 -0.24815172323E+03  0.24815172323E+03  0.00000000000E+00 0. -1.
          6    1    1    2  501    0 -0.35070837877E+02 -0.61395328346E+02 -0.45518530200E+02  0.19145570402E+03  0.17200000000E+03 0. -1.
         -6    1    1    2    0  503  0.35070837877E+02  0.61395328346E+02 -0.62986136467E+02  0.19634307576E+03  0.17200000000E+03 0. -1.
</event>
<event>
 4    1  0.2889985E+000  0.1755180E+03  0.7818608E-02  0.1172213E+00
         21   -1    0    0  501  502  0.00000000000E+00  0.00000000000E+00  0.76385401225E+02  0.76385401225E+02  0.00000000000E+00 0.  1.
         21   -1    0    0  502  503 -0.00000000000E+00 -0.00000000000E+00 -0.73252955002E+03  0.73252955002E+03  0.00000000000E+00 0.  1.
          6    1    1    2  501    0 -0.26128621519E+01 -0.34867459074E+02 -0.56923822401E+02  0.18451798912E+03  0.17200000000E+03 0.  1.
         -6    1    1    2    0  503  0.26128621519E+01  0.34867459074E+02 -0.59922032639E+03  0.62439696212E+03  0.17200000000E+03 0.  1.
</event>
<event>
 4    1  0.2889985E+000  0.2646900E+03  0.7818608E-02  0.1104358E+00
         21   -1    0    0  501  502  0.00000000000E+00  0.00000000000E+00  0.39198551979E+03  0.39198551979E+03  0.00000000000E+00 0. -1.
         21   -1    0    0  502  503 -0.00000000000E+00 -0.00000000000E+00 -0.21875340493E+03  0.21875340493E+03  0.00000000000E+00 0. -1.
          6    1    1    2  501    0  0.19109773337E+03  0.62916092538E+02 -0.43997575992E+02  0.26832175665E+03  0.17200000000E+03 0. -1.
         -6    1    1    2    0  503 -0.19109773337E+03 -0.62916092538E+02  0.21722969086E+03  0.34241716807E+03  0.17200000000E+03 0. -1.
</event>
<event>
 4    1  0.2889985E+000  0.2855587E+03  0.7818608E-02  0.1092691E+00
         21   -1    0    0  503  502  0.00000000000E+00  0.00000000000E+00  0.16303692944E+03  0.16303692944E+03  0.00000000000E+00 0.  1.
         21   -1    0    0  501  503 -0.00000000000E+00 -0.00000000000E+00 -0.66290850800E+03  0.66290850800E+03  0.00000000000E+00 0.  1.
          6    1    1    2  501    0 -0.91963150432E+02  0.20857270219E+03 -0.45310515603E+02  0.28913117432E+03  0.17200000000E+03 0.  1.
         -6    1    1    2    0  502  0.91963150432E+02 -0.20857270219E+03 -0.45456106295E+03  0.53681426312E+03  0.17200000000E+03 0.  1.
</event>
<event>
 4    1  0.2889985E+000  0.1722224E+03  0.7818608E-02  0.1175550E+00
         21   -1    0    0  503  502  0.00000000000E+00  0.00000000000E+00  0.17358168616E+03  0.17358168616E+03  0.00000000000E+00 0. -1.
         21   -1    0    0  501  503 -0.00000000000E+00 -0.00000000000E+00 -0.18715349543E+03  0.18715349543E+03  0.00000000000E+00 0. -1.
          6    1    1    2  501    0 -0.41122313395E+01 -0.77222539285E+01  0.46410723528E+02  0.17836619330E+03  0.17200000000E+03 0.  1.
         -6    1    1    2    0  502  0.41122313395E+01  0.77222539285E+01 -0.59982532791E+02  0.18236898830E+03  0.17200000000E+03 0.  1.
</event>
<event>
 4    1  0.2889985E+000  0.2253353E+03  0.7818608E-02  0.1129967E+00
         21   -1    0    0  503  502  0.00000000000E+00  0.00000000000E+00  0.30333440426E+03  0.30333440426E+03  0.00000000000E+00 0. -1.
         21   -1    0    0  501  503 -0.00000000000E+00 -0.00000000000E+00 -0.22752190432E+03  0.22752190432E+03  0.00000000000E+00 0. -1.
          6    1    1    2  501    0  0.83853122919E+02 -0.11899860839E+03  0.17435749800E+03  0.28491499106E+03  0.17200000000E+03 0. -1.
         -6    1    1    2    0  502 -0.83853122919E+02  0.11899860839E+03 -0.98544998060E+02  0.24594131752E+03  0.17200000000E+03 0. -1.
</event>
<event>
 4    1  0.2889985E+000  0.2581998E+03  0.7818608E-02  0.1108230E+00
         21   -1    0    0  501  502  0.00000000000E+00  0.00000000000E+00  0.13383439783E+03  0.13383439783E+03  0.00000000000E+00 0. -1.
         21   -1    0    0  502  503 -0.00000000000E+00 -0.00000000000E+00 -0.56442780312E+03  0.56442780312E+03  0.00000000000E+00 0. -1.
          6    1    1    2  501    0  0.19234857993E+03 -0.92286682996E+01 -0.95642316665E+02  0.27534450649E+03  0.17200000000E+03 0.  1.
         -6    1    1    2    0  503 -0.19234857993E+03  0.92286682996E+01 -0.33495108862E+03  0.42291769446E+03  0.17200000000E+03 0.  1.
</event>
<event>
 4    1  0.2889985E+000  0.1910312E+03  0.7818608E-02  0.1157535E+00
         21   -1    0    0  503  502  0.00000000000E+00  0.00000000000E+00  0.10642898058E+04  0.10642898058E+04  0.00000000000E+00 0.  1.
         21   -1    0    0  501  503 -0.00000000000E+00 -0.00000000000E+00 -0.47654820322E+02  0.47654820322E+02  0.00000000000E+00 0.  1.
          6    1    1    2  501    0 -0.33348644306E+02 -0.76136602458E+02  0.21387161695E+03  0.28676468201E+03  0.17200000000E+03 0.  1.
         -6    1    1    2    0  502  0.33348644306E+02  0.76136602458E+02  0.80276336848E+03  0.82517994407E+03  0.17200000000E+03 0.  1.
</event>
<event>
 4    1  0.2889985E+000  0.2098910E+03  0.7818608E-02  0.1141652E+00
         21   -1    0    0  503  502  0.00000000000E+00  0.00000000000E+00  0.99068915739E+02  0.99068915739E+02  0.00000000000E+00 0. -1.
         21   -1    0    0  501  503 -0.00000000000E+00 -0.00000000000E+00 -0.48412939000E+03  0.48412939000E+03  0.00000000000E+00 0. -1.
          6    1    1    2  501    0 -0.55859874829E+02 -0.10653592167E+03 -0.27576621373E+03  0.34655624775E+03  0.17200000000E+03 0. -1.
         -6    1    1    2    0  502  0.55859874829E+02  0.10653592167E+03 -0.10929426053E+03  0.23664205799E+03  0.17200000000E+03 0. -1.
</event>
<event>
 4    1  0.2889985E+000  0.2733845E+03  0.7818608E-02  0.1099358E+00
         21   -1    0    0  501  502  0.00000000000E+00  0.00000000000E+00  0.16987033640E+04  0.16987033640E+04  0.00000000000E+00 0.  1.
         21   -1    0    0  502  503 -0.00000000000E+00 -0.00000000000E+00 -0.55214587019E+02  0.55214587019E+02  0.00000000000E+00 0.  1.
          6    1    1    2  501    0 -0.16259875405E+03  0.13680916795E+03  0.12170089030E+04  0.12473370728E+04  0.17200000000E+03 0.  1.
         -6    1    1    2    0  503  0.16259875405E+03 -0.13680916795E+03  0.42647987403E+03  0.50658087824E+03  0.17200000000E+03 0.  1.
</event>
<event>
 4    1  0.2889985E+000  0.2333999E+03  0.7818608E-02  0.1124269E+00
         21   -1    0    0  501  502  0.00000000000E+00  0.00000000000E+00  0.33004800203E+02  0.33004800203E+02  0.00000000000E+00 0. -1.
         21   -1    0    0  502  503 -0.00000000000E+00 -0.00000000000E+00 -0.19093859043E+04  0.19093859043E+04  0.00000000000E+00 0. -1.
          6    1    1    2  501    0 -0.15994908777E+02  0.15695761704E+03 -0.58060020765E+03  0.62575724669E+03  0.17200000000E+03 0. -1.
         -6    1    1    2    0  503  0.15994908777E+02 -0.15695761704E+03 -0.12957808965E+04  0.13166334578E+04  0.17200000000E+03 0. -1.
</event>
<event>
 4    1  0.2889985E+000  0.1863447E+03  0.7818608E-02  0.1161800E+00
         21   -1    0    0  503  502  0.00000000000E+00  0.00000000000E+00  0.18657967907E+03  0.18657967907E+03  0.00000000000E+00 0.  1.
         21   -1    0    0  501  503 -0.00000000000E+00 -0.00000000000E+00 -0.28656199694E+03  0.28656199694E+03  0.00000000000E+00 0.  1.
          6    1    1    2  501    0 -0.70690642456E+02 -0.11965930677E+02 -0.19005664236E+03  0.26616888949E+03  0.17200000000E+03 0.  1.
         -6    1    1    2    0  502  0.70690642456E+02  0.11965930677E+02  0.90074324488E+02  0.20697278652E+03  0.17200000000E+03 0.  1.
</event>
<event>
 4    1  0.2889985E+000  0.1785682E+03  0.7818608E-02  0.1169196E+00
         21   -1    0    0  503  502  0.00000000000E+00  0.00000000000E+00  0.16893512961E+03  0.16893512961E+03  0.00000000000E+00 0.  1.
         21   -1    0    0  501  503 -0.00000000000E+00 -0.00000000000E+00 -0.20331145428E+03  0.20331145428E+03  0.00000000000E+00 0.  1.
          6    1    1    2  501    0 -0.47464186836E+02  0.70532572489E+01 -0.66997879724E+02  0.19072313273E+03  0.17200000000E+03 0.  1.
         -6    1    1    2    0  502  0.47464186836E+02 -0.70532572489E+01  0.32621555054E+02  0.18152345117E+03  0.17200000000E+03 0.  1.
</event>
<event>
 4    1  0.2889985E+000  0.2216643E+03  0.7818608E-02  0.1132648E+00
         21   -1    0    0  501  502  0.00000000000E+00  0.00000000000E+00  0.10723206201E+03  0.10723206201E+03  0.00000000000E+00 0.  1.
         21   -1    0    0  502  503 -0.00000000000E+00 -0.00000000000E+00 -0.51082887492E+03  0.51082887492E+03  0.00000000000E+00 0.  1.
          6    1    1    2  501    0 -0.38348486052E+02  0.13446362622E+03 -0.10261843747E+03  0.24426546393E+03  0.17200000000E+03 0.  1.
         -6    1    1    2    0  503  0.38348486052E+02 -0.13446362622E+03 -0.30097837544E+03  0.37379547300E+03  0.17200000000E+03 0.  1.
</event>
<event>
 4    1  0.2889985E+000  0.1780610E+03  0.7818608E-02  0.1169693E+00
         21   -1    0    0  503  502  0.00000000000E+00  0.00000000000E+00  0.23755009959E+03  0.23755009959E+03  0.00000000000E+00 0. -1.
         21   -1    0    0  501  503 -0.00000000000E+00 -0.00000000000E+00 -0.16046277377E+03  0.16046277377E+03  0.00000000000E+00 0. -1.
          6    1    1    2  501    0 -0.10092279342E+02 -0.44943100910E+02 -0.43078159226E+02  0.18319788270E+03  0.17200000000E+03 0. -1.
         -6    1    1    2    0  502  0.10092279342E+02  0.44943100910E+02  0.12016548504E+03  0.21481499067E+03  0.17200000000E+03 0. -1.
</event>
<event>
 4    1  0.2889985E+000  0.3299371E+03  0.7818608E-02  0.1071165E+00
         21   -1    0    0  503  502  0.00000000000E+00  0.00000000000E+00  0.10596118699E+03  0.10596118699E+03  0.00000000000E+00 0. -1.
         21   -1    0    0  501  503 -0.00000000000E+00 -0.00000000000E+00 -0.18154670813E+04  0.18154670813E+04  0.00000000000E+00 0. -1.
          6    1    1    2  501    0  0.19486080983E+03  0.20323331859E+03 -0.14877434633E+04  0.15238894742E+04  0.17200000000E+03 0. -1.
         -6    1    1    2    0  502 -0.19486080983E+03 -0.20323331859E+03 -0.22176243098E+03  0.39753879406E+03  0.17200000000E+03 0. -1.
</event>
<event>
 4    1  0.2889985E+000  0.2953433E+03  0.7818608E-02  0.1087592E+00
         21   -1    0    0  503  502  0.00000000000E+00  0.00000000000E+00  0.51004139016E+03  0.51004139016E+03  0.00000000000E+00 0.  1.
         21   -1    0    0  501  503 -0.00000000000E+00 -0.00000000000E+00 -0.21788165772E+03  0.21788165772E+03  0.00000000000E+00 0. -1.
          6    1    1    2  501    0  0.22998729898E+02  0.23898686687E+03 -0.22711590062E+02  0.29621526030E+03  0.17200000000E+03 0. -1.
         -6    1    1    2    0  502 -0.22998729898E+02 -0.23898686687E+03  0.31487132250E+03  0.43170778757E+03  0.17200000000E+03 0.  1.
</event>
<event>
 4    1  0.2889985E+000  0.1723244E+03  0.7818608E-02  0.1175445E+00
         21   -1    0    0  503  502  0.00000000000E+00  0.00000000000E+00  0.59768511521E+03  0.59768511521E+03  0.00000000000E+00 0. -1.
         21   -1    0    0  501  503 -0.00000000000E+00 -0.00000000000E+00 -0.49884887624E+02  0.49884887624E+02  0.00000000000E+00 0. -1.
          6    1    1    2  501    0 -0.97921664770E+01 -0.39782595898E+01  0.25338099158E+03  0.30642721806E+03  0.17200000000E+03 0. -1.
         -6    1    1    2    0  502  0.97921664770E+01  0.39782595898E+01  0.29441923600E+03  0.34114278477E+03  0.17200000000E+03 0. -1.
</event>
<event>
 4    1  0.2889985E+000  0.2332787E+03  0.7818608E-02  0.1124353E+00
         21   -1    0    0  501  502  0.00000000000E+00  0.00000000000E+00  0.12202846260E+03  0.12202846260E+03  0.00000000000E+00 0. -1.
         21   -1    0    0  502  503 -0.00000000000E+00 -0.00000000000E+00 -0.75881741289E+03  0.75881741289E+03  0.00000000000E+00 0.  1.
          6    1    1    2  501    0  0.14321539680E+03 -0.65759522968E+02 -0.35594520223E+02  0.23597867406E+03  0.17200000000E+03 0. -1.
         -6    1    1    2    0  503 -0.14321539680E+03  0.65759522968E+02 -0.60119443007E+03  0.64486720143E+03  0.17200000000E+03 0.  1.
</event>
<event>
 4    1  0.2889985E+000  0.1887202E+03  0.7818608E-02  0.1159621E+00
         21   -1    0    0  501  502  0.00000000000E+00  0.00000000000E+00  0.17934824909E+04  0.17934824909E+04  0.00000000000E+00 0. -1.
         21   -1    0    0  502  503 -0.00000000000E+00 -0.00000000000E+00 -0.67170448609E+02  0.67170448609E+02  0.00000000000E+00 0.  1.
          6    1    1    2  501    0  0.59928586468E+02 -0.49395311453E+02  0.16439438815E+04  0.16547407102E+04  0.17200000000E+03 0. -1.
         -6    1    1    2    0  503 -0.59928586468E+02  0.49395311453E+02  0.82368160700E+02  0.20591222928E+03  0.17200000000E+03 0.  1.
</event>
<event>
 4    1  0.2889985E+000  0.3389466E+03  0.7818608E-02  0.1067245E+00
         21   -1    0    0  503  502  0.00000000000E+00  0.00000000000E+00  0.45149129812E+03  0.45149129812E+03  0.00000000000E+00 0. -1.
         21   -1    0    0  501  503 -0.00000000000E+00 -0.00000000000E+00 -0.62609580634E+03  0.62609580634E+03  0.00000000000E+00 0. -1.
          6    1    1    2  501    0  0.28835099189E+03  0.46416672279E+02 -0.50241200387E+03  0.60605496749E+03  0.17200000000E+03 0. -1.
         -6    1    1    2    0  502 -0.28835099189E+03 -0.46416672279E+02  0.32780749565E+03  0.47153213697E+03  0.17200000000E+03 0. -1.
</event>
<event>
 4    1  0.2889985E+000  0.1984712E+03  0.7818608E-02  0.1151035E+00
         21   -1    0    0  503  502  0.00000000000E+00  0.00000000000E+00  0.40366781687E+03  0.40366781687E+03  0.00000000000E+00 0. -1.
         21   -1    0    0  501  503 -0.00000000000E+00 -0.00000000000E+00 -0.98150594326E+02  0.98150594326E+02  0.00000000000E+00 0.  1.
          6    1    1    2  501    0 -0.72651720871E+01  0.98762484691E+02  0.17185179986E+03  0.26253352590E+03  0.17200000000E+03 0. -1.
         -6    1    1    2    0  502  0.72651720871E+01 -0.98762484691E+02  0.13366542268E+03  0.23928488529E+03  0.17200000000E+03 0. -1.
</event>
<event>
 4    1  0.2889985E+000  0.1804637E+03  0.7818608E-02  0.1167355E+00
         21   -1    0    0  501  502  0.00000000000E+00  0.00000000000E+00  0.20610390844E+02  0.20610390844E+02  0.00000000000E+00 0. -1.
         21   -1    0    0  502  503 -0.00000000000E+00 -0.00000000000E+00 -0.15806755736E+04  0.15806755736E+04  0.00000000000E+00 0. -1.
          6    1    1    2  501    0 -0.52552497824E+02 -0.14878895950E+02 -0.76519092996E+03  0.78618337929E+03  0.17200000000E+03 0.  1.
         -6    1    1    2    0  503  0.52552497824E+02  0.14878895950E+02 -0.79487425279E+03  0.81510258516E+03  0.17200000000E+03 0.  1.
</event>
<event>
 4    1  0.2889985E+000  0.1947868E+03  0.7818608E-02  0.1154213E+00
         21   -1    0    0  503  502  0.00000000000E+00  0.00000000000E+00  0.28712816344E+03  0.28712816344E+03  0.00000000000E+00 0. -1.
         21   -1    0    0  501  503 -0.00000000000E+00 -0.00000000000E+00 -0.26603387869E+03  0.26603387869E+03  0.00000000000E+00 0. -1.
          6    1    1    2  501    0  0.68646567185E+02 -0.60378262560E+02 -0.18566682222E+03  0.26909859652E+03  0.17200000000E+03 0. -1.
         -6    1    1    2    0  502 -0.68646567185E+02  0.60378262560E+02  0.20676110697E+03  0.28406344561E+03  0.17200000000E+03 0. -1.
</event>
<event>
 4    1  0.2889985E+000  0.1720433E+03  0.7818608E-02  0.1175734E+00
         21   -1    0    0  501  502  0.00000000000E+00  0.00000000000E+00  0.74738962299E+02  0.74738962299E+02  0.00000000000E+00 0. -1.
         21   -1    0    0  502  503 -0.00000000000E+00 -0.00000000000E+00 -0.64606319031E+03  0.64606319031E+03  0.00000000000E+00 0. -1.
          6    1    1    2  501    0  0.23409755081E+01 -0.30661704183E+01 -0.50986814549E+03  0.53811189111E+03  0.17200000000E+03 0. -1.
         -6    1    1    2    0  503 -0.23409755081E+01  0.30661704183E+01 -0.61456082518E+02  0.18269026150E+03  0.17200000000E+03 0. -1.
</event>
<event>
 4    1  0.2889985E+000  0.2501292E+03  0.7818608E-02  0.1113223E+00
         21   -1    0    0  501  502  0.00000000000E+00  0.00000000000E+00  0.40298389499E+02  0.40298389499E+02  0.00000000000E+00 0.  1.
         21   -1    0    0  502  503 -0.00000000000E+00 -0.00000000000E+00 -0.15541396655E+04  0.15541396655E+04  0.00000000000E+00 0. -1.
          6    1    1    2  501    0  0.18035800960E+03 -0.21250803690E+02 -0.73129356787E+03  0.77288737258E+03  0.17200000000E+03 0.  1.
         -6    1    1    2    0  503 -0.18035800960E+03  0.21250803690E+02 -0.78254770817E+03  0.82155068246E+03  0.17200000000E+03 0.  1.
</event>
<event>
 4    1  0.2889985E+000  0.2677565E+03  0.7818608E-02  0.1102571E+00
         21   -1    0    0  501  502  0.00000000000E+00  0.00000000000E+00  0.88240068654E+02  0.88240068654E+02  0.00000000000E+00 0. -1.
         21   -1    0    0  502  503 -0.00000000000E+00 -0.00000000000E+00 -0.20026592192E+04  0.20026592192E+04  0.00000000000E+00 0.  1.
          6    1    1    2  501    0 -0.17915240853E+03 -0.10006982558E+03 -0.15126490693E+03  0.30752988073E+03  0.17200000000E+03 0. -1.
         -6    1    1    2    0  503  0.17915240853E+03  0.10006982558E+03 -0.17631542436E+04  0.17833694071E+04  0.17200000000E+03 0.  1.
</event>
<event>
 4    1  0.2889985E+000  0.2431807E+03  0.7818608E-02  0.1117692E+00
         21   -1    0    0  503  502  0.00000000000E+00  0.00000000000E+00  0.61571737024E+03  0.61571737024E+03  0.00000000000E+00 0. -1.
         21   -1    0    0  501  503 -0.00000000000E+00 -0.00000000000E+00 -0.11217744269E+03  0.11217744269E+03  0.00000000000E+00 0.  1.
          6    1    1    2  501    0 -0.77592360023E+02 -0.15340228496E+03  0.11375371127E+03  0.26847111985E+03  0.17200000000E+03 0.  1.
         -6    1    1    2    0  502  0.77592360023E+02  0.15340228496E+03  0.38978621628E+03  0.45942369308E+03  0.17200000000E+03 0. -1.
</event>
<event>
 4    1  0.2889985E+000  0.4017685E+03  0.7818608E-02  0.1043169E+00
         21   -1    0    0  501  502  0.00000000000E+00  0.00000000000E+00  0.70171489842E+03  0.70171489842E+03  0.00000000000E+00 0. -1.
         21   -1    0    0  502  503 -0.00000000000E+00 -0.00000000000E+00 -0.23877736563E+03  0.23877736563E+03  0.00000000000E+00 0.  1.
          6    1    1    2  501    0 -0.35713508619E+03 -0.65486555388E+02  0.32145571371E+03  0.51454031387E+03  0.17200000000E+03 0. -1.
         -6    1    1    2    0  503  0.35713508619E+03  0.65486555388E+02  0.14148181909E+03  0.42595195018E+03  0.17200000000E+03 0.  1.
</event>
<event>
 4    1  0.2889985E+000  0.3197150E+03  0.7818608E-02  0.1075781E+00
         21   -1    0    0  503  502  0.00000000000E+00  0.00000000000E+00  0.36923985801E+03  0.36923985801E+03  0.00000000000E+00 0. -1.
         21   -1    0    0  501  503 -0.00000000000E+00 -0.00000000000E+00 -0.35065684975E+03  0.35065684975E+03  0.00000000000E+00 0.  1.
          6    1    1    2  501    0 -0.60770928250E+02 -0.26256536484E+03 -0.15586594938E+03  0.35568507237E+03  0.17200000000E+03 0.  1.
         -6    1    1    2    0  502  0.60770928250E+02  0.26256536484E+03  0.17444895763E+03  0.36421163539E+03  0.17200000000E+03 0. -1.
</event>
<event>
 4    1  0.2889985E+000  0.1924435E+03  0.7818608E-02  0.1156276E+00
         21   -1    0    0  503  502  0.00000000000E+00  0.00000000000E+00  0.60152508367E+03  0.60152508367E+03  0.00000000000E+00 0. -1.
         21   -1    0    0  501  503 -0.00000000000E+00 -0.00000000000E+00 -0.62071453053E+02  0.62071453053E+02  0.00000000000E+00 0.  1.
          6    1    1    2  501    0  0.84122796578E+02  0.19335547120E+02  0.23983567685E+03  0.30749904094E+03  0.17200000000E+03 0. -1.
         -6    1    1    2    0  502 -0.84122796578E+02 -0.19335547120E+02  0.29961795377E+03  0.35609749579E+03  0.17200000000E+03 0.  1.
</event>
<event>
 4    1  0.2889985E+000  0.1745444E+03  0.7818608E-02  0.1173190E+00
         21   -1    0    0  503  502  0.00000000000E+00  0.00000000000E+00  0.55810332134E+02  0.55810332134E+02  0.00000000000E+00 0. -1.
         21   -1    0    0  501  503 -0.00000000000E+00 -0.00000000000E+00 -0.56172631505E+03  0.56172631505E+03  0.00000000000E+00 0.  1.
          6    1    1    2  501    0  0.21450662204E+02  0.20533175435E+02 -0.20109769854E+03  0.26628185548E+03  0.17200000000E+03 0. -1.
         -6    1    1    2    0  502 -0.21450662204E+02 -0.20533175435E+02 -0.30481828438E+03  0.35125479170E+03  0.17200000000E+03 0.  1.
</event>
<event>
 4    1  0.2889985E+000  0.2129423E+03  0.7818608E-02  0.1139257E+00
         21   -1    0    0  503  502  0.00000000000E+00  0.00000000000E+00  0.43062678009E+02  0.43062678009E+02  0.00000000000E+00 0.  1.
         21   -1    0    0  501  503 -0.00000000000E+00 -0.00000000000E+00 -0.11082726839E+04  0.11082726839E+04  0.00000000000E+00 0.  1.
          6    1    1    2  501    0  0.10215275973E+03 -0.72974109809E+02 -0.66118040644E+03  0.69462503330E+03  0.17200000000E+03 0. -1.
         -6    1    1    2    0  502 -0.10215275973E+03  0.72974109809E+02 -0.40402959940E+03  0.45671032856E+03  0.17200000000E+03 0. -1.
</event>
<event>
 4    1  0.2889985E+000  0.2373086E+03  0.7818608E-02  0.1121599E+00
         21   -1    0    0  501  502  0.00000000000E+00  0.00000000000E+00  0.15455486459E+03  0.15455486459E+03  0.00000000000E+00 0.  1.
         21   -1    0    0  502  503 -0.00000000000E+00 -0.00000000000E+00 -0.13720369966E+04  0.13720369966E+04  0.00000000000E+00 0.  1.
          6    1    1    2  501    0  0.88027353107E+02 -0.13777719448E+03  0.45395240736E+02  0.24161146102E+03  0.17200000000E+03 0.  1.
         -6    1    1    2    0  503 -0.88027353107E+02  0.13777719448E+03 -0.12628773727E+04  0.12849804001E+04  0.17200000000E+03 0.  1.
</event>
<event>
 4    1  0.2889985E+000  0.1959478E+03  0.7818608E-02  0.1153204E+00
         21   -1    0    0  503  502  0.00000000000E+00  0.00000000000E+00  0.13361025284E+03  0.13361025284E+03  0.00000000000E+00 0.  1.
         21   -1    0    0  501  503 -0.00000000000E+00 -0.00000000000E+00 -0.31974344893E+03  0.31974344893E+03  0.00000000000E+00 0.  1.
          6    1    1    2  501    0  0.57446080096E+02  0.74239321232E+02 -0.16519450153E+03  0.25629036711E+03  0.17200000000E+03 0.  1.
         -6    1    1    2    0  502 -0.57446080096E+02 -0.74239321232E+02 -0.20938694557E+02  0.19706333465E+03  0.17200000000E+03 0.  1.
</event>
<event>
 4    1  0.2889985E+000  0.1923442E+03  0.7818608E-02  0.1156364E+00
         21   -1    0    0  501  502  0.00000000000E+00  0.00000000000E+00  0.29859468527E+03  0.29859468527E+03  0.00000000000E+00 0. -1.
         21   -1    0    0  502  503 -0.00000000000E+00 -0.00000000000E+00 -0.13434081275E+03  0.13434081275E+03  0.00000000000E+00 0. -1.
          6    1    1    2  501    0  0.53801400153E+02 -0.67213847269E+02  0.21783813643E+02  0.19357382690E+03  0.17200000000E+03 0.  1.
         -6    1    1    2    0  503 -0.53801400153E+02  0.67213847269E+02  0.14247005888E+03  0.23936167112E+03  0.17200000000E+03 0.  1.
</event>
<event>
 4    1  0.2889985E+000  0.1762005E+03  0.7818608E-02  0.1171532E+00
         21   -1    0    0  503  502  0.00000000000E+00  0.00000000000E+00  0.11610718031E+03  0.11610718031E+03  0.00000000000E+00 0. -1.
         21   -1    0    0  501  503 -0.00000000000E+00 -0.00000000000E+00 -0.68875414050E+03  0.68875414050E+03  0.00000000000E+00 0. -1.
          6    1    1    2  501    0  0.30401476036E+02 -0.23202519349E+02 -0.60108714644E+03  0.62638036708E+03  0.17200000000E+03 0. -1.
         -6    1    1    2    0  502 -0.30401476036E+02  0.23202519349E+02  0.28440186247E+02  0.17848095373E+03  0.17200000000E+03 0. -1.
</event>
<event>
 4    1  0.2889985E+000  0.1898439E+03  0.7818608E-02  0.1158602E+00
         21   -1    0    0  501  502  0.00000000000E+00  0.00000000000E+00  0.11019860062E+03  0.11019860062E+03  0.00000000000E+00 0.  1.
         21   -1    0    0  502  503 -0.00000000000E+00 -0.00000000000E+00 -0.59769598417E+03  0.59769598417E+03  0.00000000000E+00 0.  1.
          6    1    1    2  501    0  0.57975416114E+02  0.55637739055E+02 -0.55730380620E+01  0.18992568450E+03  0.17200000000E+03 0.  1.
         -6    1    1    2    0  503 -0.57975416114E+02 -0.55637739055E+02 -0.48192434550E+03  0.51796890028E+03  0.17200000000E+03 0.  1.
</event>
<event>
 4    1  0.2889985E+000  0.2481413E+03  0.7818608E-02  0.1114485E+00
         21   -1    0    0  503  502  0.00000000000E+00  0.00000000000E+00  0.82927564797E+03  0.82927564797E+03  0.00000000000E+00 0.  1.
         21   -1    0    0  501  503 -0.00000000000E+00 -0.00000000000E+00 -0.14615148365E+03  0.14615148365E+03  0.00000000000E+00 0. -1.
          6    1    1    2  501    0  0.22481254702E+02 -0.17743926638E+03 -0.52033470567E+00  0.24814183608E+03  0.17200000000E+03 0. -1.
         -6    1    1    2    0  502 -0.22481254702E+02  0.17743926638E+03  0.68364449902E+03  0.72728529554E+03  0.17200000000E+03 0.  1.
</event>
<event>
 4    1  0.2889985E+000  0.2618590E+03  0.7818608E-02  0.1106031E+00
         21   -1    0    0  501  502  0.00000000000E+00  0.00000000000E+00  0.36505608965E+03  0.36505608965E+03  0.00000000000E+00 0.  1.
         21   -1    0    0  502  503 -0.00000000000E+00 -0.00000000000E+00 -0.23333877673E+03  0.23333877673E+03  0.00000000000E+00 0.  1.
          6    1    1    2  501    0  0.18850978676E+03 -0.58738163903E+02  0.19798539906E+03  0.32828087036E+03  0.17200000000E+03 0.  1.
         -6    1    1    2    0  503 -0.18850978676E+03  0.58738163903E+02 -0.66268086137E+02  0.27011399602E+03  0.17200000000E+03 0.  1.
</event>
<event>
 4    1  0.2889985E+000  0.1814004E+03  0.7818608E-02  0.1166455E+00
         21   -1    0    0  503  502  0.00000000000E+00  0.00000000000E+00  0.63947445652E+02  0.63947445652E+02  0.00000000000E+00 0. -1.
         21   -1    0    0  501  503 -0.00000000000E+00 -0.00000000000E+00 -0.92308938711E+03  0.92308938711E+03  0.00000000000E+00 0. -1.
          6    1    1    2  501    0  0.11410424849E+02  0.56496830343E+02 -0.10126226686E+03  0.20775017768E+03  0.17200000000E+03 0. -1.
         -6    1    1    2    0  502 -0.11410424849E+02 -0.56496830343E+02 -0.75787967459E+03  0.77928665508E+03  0.17200000000E+03 0. -1.
</event>
<event>
 4    1  0.2889985E+000  0.1918955E+03  0.7818608E-02  0.1156763E+00
         21   -1    0    0  503  502  0.00000000000E+00  0.00000000000E+00  0.86103301206E+03  0.86103301206E+03  0.00000000000E+00 0.  1.
         21   -1    0    0  501  503 -0.00000000000E+00 -0.00000000000E+00 -0.68028031980E+02  0.68028031980E+02  0.00000000000E+00 0.  1.
          6    1    1    2  501    0  0.67179044752E+02 -0.52219191888E+02  0.11343163664E+03  0.22291389424E+03  0.17200000000E+03 0.  1.
         -6    1    1    2    0  502 -0.67179044752E+02  0.52219191888E+02  0.67957334344E+03  0.70614714980E+03  0.17200000000E+03 0.  1.
</event>
<event>
 4    1  0.2889985E+000  0.1974311E+03  0.7818608E-02  0.1151925E+00
         21   -1    0    0  503  502  0.00000000000E+00  0.00000000000E+00  0.24433378045E+03  0.24433378045E+03  0.00000000000E+00 0.  1.
         21   -1    0    0  501  503 -0.00000000000E+00 -0.00000000000E+00 -0.58644937820E+03  0.58644937820E+03  0.00000000000E+00 0.  1.
          6    1    1    2  501    0 -0.90749987744E+02 -0.34051068413E+02 -0.52547466751E+03  0.56134005891E+03  0.17200000000E+03 0.  1.
         -6    1    1    2    0  502  0.90749987744E+02  0.34051068413E+02  0.18335906976E+03  0.26944309974E+03  0.17200000000E+03 0.  1.
</event>
<event>
 4    1  0.2889985E+000  0.2910159E+03  0.7818608E-02  0.1089820E+00
         21   -1    0    0  501  502  0.00000000000E+00  0.00000000000E+00  0.48863263162E+03  0.48863263162E+03  0.00000000000E+00 0.  1.
         21   -1    0    0  502  503 -0.00000000000E+00 -0.00000000000E+00 -0.18565200529E+03  0.18565200529E+03  0.00000000000E+00 0. -1.
          6    1    1    2  501    0  0.90626088259E+02 -0.21654824254E+03  0.23837937497E+03  0.37618473604E+03  0.17200000000E+03 0. -1.
         -6    1    1    2    0  503 -0.90626088259E+02  0.21654824254E+03  0.64601251363E+02  0.29809990087E+03  0.17200000000E+03 0.  1.
</event>
<event>
 4    1  0.2889985E+000  0.2293299E+03  0.7818608E-02  0.1127112E+00
         21   -1    0    0  501  502  0.00000000000E+00  0.00000000000E+00  0.27076583291E+03  0.27076583291E+03  0.00000000000E+00 0. -1.
         21   -1    0    0  502  503 -0.00000000000E+00 -0.00000000000E+00 -0.36188280603E+03  0.36188280603E+03  0.00000000000E+00 0. -1.
          6    1    1    2  501    0  0.14568456492E+03 -0.42239928969E+02  0.16974325013E+03  0.28531557094E+03  0.17200000000E+03 0. -1.
         -6    1    1    2    0  503 -0.14568456492E+03  0.42239928969E+02 -0.26086022325E+03  0.34733306800E+03  0.17200000000E+03 0. -1.
</event>
<event>
 4    1  0.2889985E+000  0.2069734E+03  0.7818608E-02  0.1143985E+00
         21   -1    0    0  503  502  0.00000000000E+00  0.00000000000E+00  0.17627786937E+03  0.17627786937E+03  0.00000000000E+00 0.  1.
         21   -1    0    0  501  503 -0.00000000000E+00 -0.00000000000E+00 -0.73791277419E+03  0.73791277419E+03  0.00000000000E+00 0.  1.
          6    1    1    2  501    0 -0.89267684311E+01  0.11477934497E+03 -0.65515420067E+03  0.68706987409E+03  0.17200000000E+03 0.  1.
         -6    1    1    2    0  502  0.89267684311E+01 -0.11477934497E+03  0.93519295856E+02  0.22712076947E+03  0.17200000000E+03 0.  1.
</event>
<event>
 4    1  0.2889985E+000  0.2162956E+03  0.7818608E-02  0.1136675E+00
         21   -1    0    0  503  502  0.00000000000E+00  0.00000000000E+00  0.12984940024E+04  0.12984940024E+04  0.00000000000E+00 0.  1.
         21   -1    0    0  501  503 -0.00000000000E+00 -0.00000000000E+00 -0.40436258397E+02  0.40436258397E+02  0.00000000000E+00 0.  1.
          6    1    1    2  501    0  0.58622540706E+02  0.11731654656E+03  0.85003996090E+03  0.87712696316E+03  0.17200000000E+03 0.  1.
         -6    1    1    2    0  502 -0.58622540706E+02 -0.11731654656E+03  0.40801778307E+03  0.46180329760E+03  0.17200000000E+03 0.  1.
</event>
<event>
 4    1  0.2889985E+000  0.3814474E+03  0.7818608E-02  0.1050400E+00
         21   -1    0    0  501  502  0.00000000000E+00  0.00000000000E+00  0.64408683247E+03  0.64408683247E+03  0.00000000000E+00 0. -1.
         21   -1    0    0  502  503 -0.00000000000E+00 -0.00000000000E+00 -0.23724587767E+03  0.23724587767E+03  0.00000000000E+00 0. -1.
          6    1    1    2  501    0  0.32776519237E+03  0.92130747289E+02  0.29976876380E+03  0.48514266735E+03  0.17200000000E+03 0. -1.
         -6    1    1    2    0  503 -0.32776519237E+03 -0.92130747289E+02  0.10707219099E+03  0.39619004280E+03  0.17200000000E+03 0. -1.
</event>
<event>
 4    1  0.2889985E+000  0.2710060E+03  0.7818608E-02  0.1100705E+00
         21   -1    0    0  501  502  0.00000000000E+00  0.00000000000E+00  0.12609407341E+04  0.12609407341E+04  0.00000000000E+00 0.  1.
         21   -1    0    0  502  503 -0.00000000000E+00 -0.00000000000E+00 -0.72082473761E+02  0.72082473761E+02  0.00000000000E+00 0. -1.
          6    1    1    2  501    0  0.50558335554E+02  0.20323410984E+03  0.88644864460E+03  0.92694953919E+03  0.17200000000E+03 0.  1.
         -6    1    1    2    0  503 -0.50558335554E+02 -0.20323410984E+03  0.30240961575E+03  0.40607366868E+03  0.17200000000E+03 0. -1.
</event>
<event>
 4    1  0.2889985E+000  0.1840468E+03  0.7818608E-02  0.1163943E+00
         21   -1    0    0  501  502  0.00000000000E+00  0.00000000000E+00  0.18390828811E+03  0.18390828811E+03  0.00000000000E+00 0.  1.
         21   -1    0    0  502  503 -0.00000000000E+00 -0.00000000000E+00 -0.20334531533E+03  0.20334531533E+03  0.00000000000E+00 0.  1.
          6    1    1    2  501    0 -0.36662581868E+02  0.54268495234E+02  0.49716944974E+02  0.19064361805E+03  0.17200000000E+03 0.  1.
         -6    1    1    2    0  503  0.36662581868E+02 -0.54268495234E+02 -0.69153972200E+02  0.19660998539E+03  0.17200000000E+03 0.  1.
</event>
<event>
 4    1  0.2889985E+000  0.1758464E+03  0.7818608E-02  0.1171885E+00
         21   -1    0    0  501  502  0.00000000000E+00  0.00000000000E+00  0.14684396464E+03  0.14684396464E+03  0.00000000000E+00 0.  1.
         21   -1    0    0  502  503 -0.00000000000E+00 -0.00000000000E+00 -0.21058254469E+03  0.21058254469E+03  0.00000000000E+00 0.  1.
          6    1    1    2  501    0 -0.19953522371E+00 -0.36577604970E+02 -0.30951953116E+02  0.17854966928E+03  0.17200000000E+03 0. -1.
         -6    1    1    2    0  503  0.19953522371E+00  0.36577604970E+02 -0.32786626930E+02  0.17887684005E+03  0.17200000000E+03 0. -1.
</event>
<event>
 4    1  0.2889985E+000  0.2388302E+03  0.7818608E-02  0.1120575E+00
         21   -1    0    0  503  502  0.00000000000E+00  0.00000000000E+00  0.19972580115E+03  0.19972580115E+03  0.00000000000E+00 0.  1.
         21   -1    0    0  501  503 -0.00000000000E+00 -0.00000000000E+00 -0.28580275079E+03  0.28580275079E+03  0.00000000000E+00 0.  1.
          6    1    1    2  501    0 -0.78075239345E+02  0.14615108984E+03 -0.49646947993E+02  0.24393585941E+03  0.17200000000E+03 0.  1.
         -6    1    1    2    0  502  0.78075239345E+02 -0.14615108984E+03 -0.36430001647E+02  0.24159269252E+03  0.17200000000E+03 0.  1.
</event>
<event>
 4    1  0.2889985E+000  0.1894019E+03  0.7818608E-02  0.1159002E+00
         21   -1    0    0  503  502  0.00000000000E+00  0.00000000000E+00  0.57593194054E+02  0.57593194054E+02  0.00000000000E+00 0.  1.
         21   -1    0    0  501  503 -0.00000000000E+00 -0.00000000000E+00 -0.12413055131E+04  0.12413055131E+04  0.00000000000E+00 0.  1.
          6    1    1    2  501    0  0.30836246730E+02  0.73063015135E+02 -0.10502651467E+04  0.10672066138E+04  0.17200000000E+03 0.  1.
         -6    1    1    2    0  502 -0.30836246730E+02 -0.73063015135E+02 -0.13344717237E+03  0.23169209332E+03  0.17200000000E+03 0.  1.
</event>
<event>
 4    1  0.2889985E+000  0.2187253E+03  0.7818608E-02  0.1134837E+00
         21   -1    0    0  501  502  0.00000000000E+00  0.00000000000E+00  0.12896637753E+03  0.12896637753E+03  0.00000000000E+00 0. -1.
         21   -1    0    0  502  503 -0.00000000000E+00 -0.00000000000E+00 -0.47140126216E+03  0.47140126216E+03  0.00000000000E+00 0. -1.
          6    1    1    2  501    0 -0.11850100121E+03  0.64917294799E+02 -0.32650872507E+02  0.22114886825E+03  0.17200000000E+03 0. -1.
         -6    1    1    2    0  503  0.11850100121E+03 -0.64917294799E+02 -0.30978401212E+03  0.37921877145E+03  0.17200000000E+03 0. -1.
</event>
<event>
 4    1  0.2889985E+000  0.2229052E+03  0.7818608E-02  0.1131735E+00
         21   -1    0    0  503  502  0.00000000000E+00  0.00000000000E+00  0.35187888734E+03  0.35187888734E+03  0.00000000000E+00 0. -1.
         21   -1    0    0  501  503 -0.00000000000E+00 -0.00000000000E+00 -0.15046827869E+03  0.15046827869E+03  0.00000000000E+00 0. -1.
          6    1    1    2  501    0 -0.94492169578E+02 -0.10570694359E+03  0.38381228195E+02  0.22618542551E+03  0.17200000000E+03 0. -1.
         -6    1    1    2    0  502  0.94492169578E+02  0.10570694359E+03  0.16302938046E+03  0.27616174052E+03  0.17200000000E+03 0. -1.
</event>
<event>
 4    1  0.2889985E+000  0.2028230E+03  0.7818608E-02  0.1147379E+00
         21   -1    0    0  501  502  0.00000000000E+00  0.00000000000E+00  0.39025236917E+03  0.39025236917E+03  0.00000000000E+00 0. -1.
         21   -1    0    0  502  503 -0.00000000000E+00 -0.00000000000E+00 -0.18203293153E+03  0.18203293153E+03  0.00000000000E+00 0. -1.
          6    1    1    2  501    0  0.35216755809E+02 -0.10155263696E+03  0.28975428152E+03  0.35368729355E+03  0.17200000000E+03 0. -1.
         -6    1    1    2    0  503 -0.35216755809E+02  0.10155263696E+03 -0.81534843869E+02  0.21859800715E+03  0.17200000000E+03 0. -1.
</event>
<event>
 4    1  0.2889985E+000  0.1930441E+03  0.7818608E-02  0.1155744E+00
         21   -1    0    0  501  502  0.00000000000E+00  0.00000000000E+00  0.29957954125E+03  0.29957954125E+03  0.00000000000E+00 0. -1.
         21   -1    0    0  502  503 -0.00000000000E+00 -0.00000000000E+00 -0.60946083110E+03  0.60946083110E+03  0.00000000000E+00 0. -1.
          6    1    1    2  501    0 -0.25277580585E+02  0.83923072402E+02  0.25055001501E+03  0.31629313648E+03  0.17200000000E+03 0. -1.
         -6    1    1    2    0  503  0.25277580585E+02 -0.83923072402E+02 -0.56043130486E+03  0.59274723587E+03  0.17200000000E+03 0. -1.
</event>
<event>
 4    1  0.2889985E+000  0.2656615E+03  0.7818608E-02  0.1103789E+00
         21   -1    0    0  501  502  0.00000000000E+00  0.00000000000E+00  0.90278314440E+03  0.90278314440E+03  0.00000000000E+00 0. -1.
         21   -1    0    0  502  503 -0.00000000000E+00 -0.00000000000E+00 -0.83050103614E+02  0.83050103614E+02  0.00000000000E+00 0. -1.
          6    1    1    2  501    0 -0.13095064662E+03  0.15441491951E+03  0.52927841537E+03  0.59220915240E+03  0.17200000000E+03 0.  1.
         -6    1    1    2    0  503  0.13095064662E+03 -0.15441491951E+03  0.29045462542E+03  0.39362409561E+03  0.17200000000E+03 0.  1.
</event>
<event>
 4    1  0.2889985E+000  0.2229501E+03  0.7818608E-02  0.1131703E+00
         21   -1    0    0  503  502  0.00000000000E+00  0.00000000000E+00  0.58200534385E+02  0.58200534385E+02  0.00000000000E+00 0. -1.
         21   -1    0    0  501  503 -0.00000000000E+00 -0.00000000000E+00 -0.89880132412E+03  0.89880132412E+03  0.00000000000E+00 0.  1.
          6    1    1    2  501    0 -0.22410840846E+02 -0.14007319741E+03 -0.31354114464E+03  0.38472691068E+03  0.17200000000E+03 0.  1.
         -6    1    1    2    0  502  0.22410840846E+02  0.14007319741E+03 -0.52705964510E+03  0.57227494783E+03  0.17200000000E+03 0. -1.
</event>
<event>
 4    1  0.2889985E+000  0.1949310E+03  0.7818608E-02  0.1154088E+00
         21   -1    0    0  503  502  0.00000000000E+00  0.00000000000E+00  0.31118308966E+03  0.31118308966E+03  0.00000000000E+00 0.  1.
         21   -1    0    0  501  503 -0.00000000000E+00 -0.00000000000E+00 -0.12259059335E+03  0.12259059335E+03  0.00000000000E+00 0.  1.
          6    1    1    2  501    0 -0.18225724511E+02  0.89899435241E+02  0.10789789963E+03  0.22280045385E+03  0.17200000000E+03 0.  1.
         -6    1    1    2    0  502  0.18225724511E+02 -0.89899435241E+02  0.80694596674E+02  0.21097322916E+03  0.17200000000E+03 0.  1.
</event>
<event>
 4    1  0.2889985E+000  0.2073611E+03  0.7818608E-02  0.1143673E+00
         21   -1    0    0  503  502  0.00000000000E+00  0.00000000000E+00  0.12282374518E+03  0.12282374518E+03  0.00000000000E+00 0.  1.
         21   -1    0    0  501  503 -0.00000000000E+00 -0.00000000000E+00 -0.35018206687E+03  0.35018206687E+03  0.00000000000E+00 0.  1.
          6    1    1    2  501    0 -0.55854360606E+02 -0.10146385993E+03 -0.10972080893E+03  0.23460025657E+03  0.17200000000E+03 0.  1.
         -6    1    1    2    0  502  0.55854360606E+02  0.10146385993E+03 -0.11763751276E+03  0.23840555547E+03  0.17200000000E+03 0.  1.
</event>
<event>
 4    1  0.2889985E+000  0.1764181E+03  0.7818608E-02  0.1171315E+00
         21   -1    0    0  503  502  0.00000000000E+00  0.00000000000E+00  0.16833287992E+04  0.16833287992E+04  0.00000000000E+00 0. -1.
         21   -1    0    0  501  503 -0.00000000000E+00 -0.00000000000E+00 -0.23937538377E+02  0.23937538377E+02  0.00000000000E+00 0. -1.
          6    1    1    2  501    0  0.96139612631E+01 -0.38038253689E+02  0.12369494188E+04  0.12494667669E+04  0.17200000000E+03 0. -1.
         -6    1    1    2    0  502 -0.96139612631E+01  0.38038253689E+02  0.42244184207E+03  0.45779957069E+03  0.17200000000E+03 0. -1.
</event>
<event>
 4    1  0.2889985E+000  0.2706852E+03  0.7818608E-02  0.1100888E+00
         21   -1    0    0  503  502  0.00000000000E+00  0.00000000000E+00  0.23906410183E+04  0.23906410183E+04  0.00000000000E+00 0.  1.
         21   -1    0    0  501  503 -0.00000000000E+00 -0.00000000000E+00 -0.32740441506E+02  0.32740441506E+02  0.00000000000E+00 0. -1.
          6    1    1    2  501    0 -0.18316794547E+03 -0.10067753895E+03  0.14852066553E+04  0.15096719087E+04  0.17200000000E+03 0.  1.
         -6    1    1    2    0  502  0.18316794547E+03  0.10067753895E+03  0.87269392154E+03  0.91370955111E+03  0.17200000000E+03 0. -1.
</event>
<event>
 4    1  0.2889985E+000  0.1801981E+03  0.7818608E-02  0.1167611E+00
         21   -1    0    0  501  502  0.00000000000E+00  0.00000000000E+00  0.22192702895E+04  0.22192702895E+04  0.00000000000E+00 0. -1.
         21   -1    0    0  502  503 -0.00000000000E+00 -0.00000000000E+00 -0.21468763033E+02  0.21468763033E+02  0.00000000000E+00 0. -1.
          6    1    1    2  501    0  0.53260078294E+02  0.71214521912E+01  0.17311634041E+04  0.17405166137E+04  0.17200000000E+03 0. -1.
         -6    1    1    2    0  503 -0.53260078294E+02 -0.71214521912E+01  0.46663812236E+03  0.50022243878E+03  0.17200000000E+03 0. -1.
</event>
<event>
 4    1  0.2889985E+000  0.2525056E+03  0.7818608E-02  0.1111731E+00
         21   -1    0    0  501  502  0.00000000000E+00  0.00000000000E+00  0.20743417002E+03  0.20743417002E+03  0.00000000000E+00 0. -1.
         21   -1    0    0  502  503 -0.00000000000E+00 -0.00000000000E+00 -0.59110590559E+03  0.59110590559E+03  0.00000000000E+00 0.  1.
          6    1    1    2  501    0  0.14355290642E+02  0.18430686323E+03  0.84788875296E+02  0.26636112250E+03  0.17200000000E+03 0. -1.
         -6    1    1    2    0  503 -0.14355290642E+02 -0.18430686323E+03 -0.46846061086E+03  0.53217895311E+03  0.17200000000E+03 0.  1.
</event>
<event>
 4    1  0.2889985E+000  0.2502513E+03  0.7818608E-02  0.1113146E+00
         21   -1    0    0  501  502  0.00000000000E+00  0.00000000000E+00  0.13720006874E+04  0.13720006874E+04  0.00000000000E+00 0. -1.
         21   -1    0    0  502  503 -0.00000000000E+00 -0.00000000000E+00 -0.66262804304E+02  0.66262804304E+02  0.00000000000E+00 0. -1.
          6    1    1    2  501    0  0.43440328631E+02  0.17650678539E+03  0.10540026064E+04  0.10833038363E+04  0.17200000000E+03 0. -1.
         -6    1    1    2    0  503 -0.43440328631E+02 -0.17650678539E+03  0.25173527673E+03  0.35495965544E+03  0.17200000000E+03 0. -1.
</event>
<event>
 4    1  0.2889985E+000  0.2978038E+03  0.7818608E-02  0.1086344E+00
         21   -1    0    0  503  502  0.00000000000E+00  0.00000000000E+00  0.11824732759E+04  0.11824732759E+04  0.00000000000E+00 0. -1.
         21   -1    0    0  501  503 -0.00000000000E+00 -0.00000000000E+00 -0.87187837118E+02  0.87187837118E+02  0.00000000000E+00 0.  1.
          6    1    1    2  501    0  0.12505967750E+03 -0.20847824283E+03  0.31030377458E+03  0.43008782033E+03  0.17200000000E+03 0. -1.
         -6    1    1    2    0  502 -0.12505967750E+03  0.20847824283E+03  0.78498166417E+03  0.83957329266E+03  0.17200000000E+03 0. -1.
</event>
<event>
 4    1  0.2889985E+000  0.2062803E+03  0.7818608E-02  0.1144546E+00
         21   -1    0    0  503  502  0.00000000000E+00  0.00000000000E+00  0.56874316684E+03  0.56874316684E+03  0.00000000000E+00 0. -1.
         21   -1    0    0  501  503 -0.00000000000E+00 -0.00000000000E+00 -0.90529452950E+02  0.90529452950E+02  0.00000000000E+00 0. -1.
          6    1    1    2  501    0  0.10193310934E+03 -0.50766022086E+02  0.10177706649E+03  0.23002199686E+03  0.17200000000E+03 0.  1.
         -6    1    1    2    0  502 -0.10193310934E+03  0.50766022086E+02  0.37643664739E+03  0.42925062292E+03  0.17200000000E+03 0.  1.
</event>
<event>
 4    1  0.2889985E+000  0.2243878E+03  0.7818608E-02  0.1130653E+00
         21   -1    0    0  503  502  0.00000000000E+00  0.00000000000E+00  0.85016099122E+02  0.85016099122E+02  0.00000000000E+00 0. -1.
         21   -1    0    0  501  503 -0.00000000000E+00 -0.00000000000E+00 -0.10251148575E+04  0.10251148575E+04  0.00000000000E+00 0.  1.
          6    1    1    2  501    0  0.87069515940E+02  0.11482504156E+03 -0.83074377346E+03  0.86051444376E+03  0.17200000000E+03 0.  1.
         -6    1    1    2    0  502 -0.87069515940E+02 -0.11482504156E+03 -0.10935498495E+03  0.24961651289E+03  0.17200000000E+03 0. -1.
</event>
<event>
 4    1  0.2889985E+000  0.2367641E+03  0.7818608E-02  0.1121967E+00
         21   -1    0    0  501  502  0.00000000000E+00  0.00000000000E+00  0.12025188676E+04  0.12025188676E+04  0.00000000000E+00 0.  1.
         21   -1    0    0  502  503 -0.00000000000E+00 -0.00000000000E+00 -0.46819102091E+02  0.46819102091E+02  0.00000000000E+00 0.  1.
          6    1    1    2  501    0 -0.16022517388E+03  0.28304341386E+02  0.61894037896E+03  0.66267973773E+03  0.17200000000E+03 0.  1.
         -6    1    1    2    0  503  0.16022517388E+03 -0.28304341386E+02  0.53675938659E+03  0.58665823200E+03  0.17200000000E+03 0.  1.
</event>
<event>
 4    1  0.2889985E+000  0.2533997E+03  0.7818608E-02  0.1111175E+00
         21   -1    0    0  503  502  0.00000000000E+00  0.00000000000E+00  0.12073172009E+04  0.12073172009E+04  0.00000000000E+00 0. -1.
         21   -1    0    0  501  503 -0.00000000000E+00 -0.00000000000E+00 -0.11565359405E+03  0.11565359405E+03  0.00000000000E+00 0. -1.
          6    1    1    2  501    0 -0.16903550499E+03  0.77810175073E+02  0.59681219174E+02  0.26033300447E+03  0.17200000000E+03 0. -1.
         -6    1    1    2    0  502  0.16903550499E+03 -0.77810175073E+02  0.10319823877E+04  0.10626377905E+04  0.17200000000E+03 0. -1.
</event>
<event>
 4    1  0.2889985E+000  0.1835211E+03  0.7818608E-02  0.1164438E+00
         21   -1    0    0  503  502  0.00000000000E+00  0.00000000000E+00  0.25119616070E+04  0.25119616070E+04  0.00000000000E+00 0.  1.
         21   -1    0    0  501  503 -0.00000000000E+00 -0.00000000000E+00 -0.16807469435E+02  0.16807469435E+02  0.00000000000E+00 0.  1.
          6    1    1    2  501    0 -0.39369647137E+02  0.50458002240E+02  0.67892868786E+03  0.70329520282E+03  0.17200000000E+03 0.  1.
         -6    1    1    2    0  502  0.39369647137E+02 -0.50458002240E+02  0.18162254497E+04  0.18254738736E+04  0.17200000000E+03 0.  1.
</event>
<event>
 4    1  0.2889985E+000  0.1977538E+03  0.7818608E-02  0.1151648E+00
         21   -1    0    0  503  502  0.00000000000E+00  0.00000000000E+00  0.51637888672E+03  0.51637888672E+03  0.00000000000E+00 0. -1.
         21   -1    0    0  501  503 -0.00000000000E+00 -0.00000000000E+00 -0.89841959401E+02  0.89841959401E+02  0.00000000000E+00 0.  1.
          6    1    1    2  501    0  0.70133985632E+02 -0.67851264914E+02  0.33338954975E+03  0.38762760734E+03  0.17200000000E+03 0. -1.
         -6    1    1    2    0  502 -0.70133985632E+02  0.67851264914E+02  0.93147377566E+02  0.21859323878E+03  0.17200000000E+03 0.  1.
</event>
<event>
 4    1  0.2889985E+000  0.1843875E+03  0.7818608E-02  0.1163623E+00
         21   -1    0    0  503  502  0.00000000000E+00  0.00000000000E+00  0.36358047886E+02  0.36358047886E+02  0.00000000000E+00 0. -1.
         21   -1    0    0  501  503 -0.00000000000E+00 -0.00000000000E+00 -0.10190105211E+04  0.10190105211E+04  0.00000000000E+00 0. -1.
          6    1    1    2  501    0 -0.11833698731E+02 -0.65381160273E+02 -0.64274166089E+03  0.66866701368E+03  0.17200000000E+03 0. -1.
         -6    1    1    2    0  502  0.11833698731E+02  0.65381160273E+02 -0.33991081238E+03  0.38670155536E+03  0.17200000000E+03 0. -1.
</event>
<event>
 4    1  0.2889985E+000  0.2056183E+03  0.7818608E-02  0.1145084E+00
         21   -1    0    0  501  502  0.00000000000E+00  0.00000000000E+00  0.51850985245E+03  0.51850985245E+03  0.00000000000E+00 0.  1.
         21   -1    0    0  502  503 -0.00000000000E+00 -0.00000000000E+00 -0.12831841554E+03  0.12831841554E+03  0.00000000000E+00 0.  1.
          6    1    1    2  501    0 -0.54883813134E+02 -0.98400429491E+02  0.39036817001E+03  0.44120991107E+03  0.17200000000E+03 0.  1.
         -6    1    1    2    0  503  0.54883813134E+02  0.98400429491E+02 -0.17673309990E+00  0.20561835692E+03  0.17200000000E+03 0.  1.
</event>
<event>
 4    1  0.2889985E+000  0.2302538E+03  0.7818608E-02  0.1126461E+00
         21   -1    0    0  503  502  0.00000000000E+00  0.00000000000E+00  0.10795335415E+04  0.10795335415E+04  0.00000000000E+00 0. -1.
         21   -1    0    0  501  503 -0.00000000000E+00 -0.00000000000E+00 -0.86646016054E+02  0.86646016054E+02  0.00000000000E+00 0. -1.
          6    1    1    2  501    0  0.14032350201E+03 -0.61172796142E+02  0.11266549971E+03  0.25634022515E+03  0.17200000000E+03 0. -1.
         -6    1    1    2    0  502 -0.14032350201E+03  0.61172796142E+02  0.88022202575E+03  0.90983933242E+03  0.17200000000E+03 0. -1.
</event>
<event>
 4    1  0.2889985E+000  0.2305837E+03  0.7818608E-02  0.1126230E+00
         21   -1    0    0  503  502  0.00000000000E+00  0.00000000000E+00  0.20507907823E+03  0.20507907823E+03  0.00000000000E+00 0. -1.
         21   -1    0    0  501  503 -0.00000000000E+00 -0.00000000000E+00 -0.33836574675E+03  0.33836574675E+03  0.00000000000E+00 0. -1.
          6    1    1    2  501    0 -0.96151904797E+02  0.11974825604E+03 -0.19802533079E+03  0.30394549718E+03  0.17200000000E+03 0. -1.
         -6    1    1    2    0  502  0.96151904797E+02 -0.11974825604E+03  0.64738662281E+02  0.23949932780E+03  0.17200000000E+03 0. -1.
</event>
<event>
 4    1  0.2889985E+000  0.2720661E+03  0.7818608E-02  0.1100103E+00
         21   -1    0    0  503  502  0.00000000000E+00  0.00000000000E+00  0.80065043007E+03  0.80065043007E+03  0.00000000000E+00 0. -1.
         21   -1    0    0  501  503 -0.00000000000E+00 -0.00000000000E+00 -0.31425045756E+03  0.31425045756E+03  0.00000000000E+00 0. -1.
          6    1    1    2  501    0  0.99573202437E+02  0.18579866014E+03 -0.22512758898E+03  0.35313226428E+03  0.17200000000E+03 0. -1.
         -6    1    1    2    0  502 -0.99573202437E+02 -0.18579866014E+03  0.71152756149E+03  0.76176862335E+03  0.17200000000E+03 0. -1.
</event>
<event>
 4    1  0.2889985E+000  0.1905529E+03  0.7818608E-02  0.1157964E+00
         21   -1    0    0  503  502  0.00000000000E+00  0.00000000000E+00  0.17217449959E+03  0.17217449959E+03  0.00000000000E+00 0.  1.
         21   -1    0    0  501  503 -0.00000000000E+00 -0.00000000000E+00 -0.25400165245E+03  0.25400165245E+03  0.00000000000E+00 0. -1.
          6    1    1    2  501    0 -0.74480884803E+02 -0.34336576078E+02  0.46871951989E+02  0.19623298026E+03  0.17200000000E+03 0.  1.
         -6    1    1    2    0  502  0.74480884803E+02  0.34336576078E+02 -0.12869910485E+03  0.22994317178E+03  0.17200000000E+03 0. -1.
</event>
<event>
 4    1  0.2889985E+000  0.1742578E+03  0.7818608E-02  0.1173479E+00
         21   -1    0    0  503  502  0.00000000000E+00  0.00000000000E+00  0.12896361861E+03  0.12896361861E+03  0.00000000000E+00 0.  1.
         21   -1    0    0  501  503 -0.00000000000E+00 -0.00000000000E+00 -0.32953027955E+03  0.32953027955E+03  0.00000000000E+00 0.  1.
          6    1    1    2  501    0 -0.26408353457E+02  0.91849647035E+01  0.22201492364E+02  0.17566636267E+03  0.17200000000E+03 0.  1.
         -6    1    1    2    0  502  0.26408353457E+02 -0.91849647035E+01 -0.22276815330E+03  0.28282753550E+03  0.17200000000E+03 0.  1.
</event>
<event>
 4    1  0.2889985E+000  0.1774999E+03  0.7818608E-02  0.1170245E+00
         21   -1    0    0  503  502  0.00000000000E+00  0.00000000000E+00  0.44439603527E+03  0.44439603527E+03  0.00000000000E+00 0.  1.
         21   -1    0    0  501  503 -0.00000000000E+00 -0.00000000000E+00 -0.17223857923E+03  0.17223857923E+03  0.00000000000E+00 0.  1.
          6    1    1    2  501    0  0.20116410865E+02 -0.38955719974E+02 -0.10041908895E+03  0.20393678317E+03  0.17200000000E+03 0.  1.
         -6    1    1    2    0  502 -0.20116410865E+02  0.38955719974E+02  0.37257654499E+03  0.41269783133E+03  0.17200000000E+03 0.  1.
</event>
<event>
 4    1  0.2889985E+000  0.2250698E+03  0.7818608E-02  0.1130159E+00
         21   -1    0    0  503  502  0.00000000000E+00  0.00000000000E+00  0.59263678834E+03  0.59263678834E+03  0.00000000000E+00 0.  1.
         21   -1    0    0  501  503 -0.00000000000E+00 -0.00000000000E+00 -0.13063640340E+03  0.13063640340E+03  0.00000000000E+00 0. -1.
          6    1    1    2  501    0 -0.26253611454E+02  0.14276959555E+03  0.18373565015E+02  0.22581850548E+03  0.17200000000E+03 0. -1.
         -6    1    1    2    0  502  0.26253611454E+02 -0.14276959555E+03  0.44362681993E+03  0.49745468626E+03  0.17200000000E+03 0.  1.
</event>
<event>
 4    1  0.2889985E+000  0.1844324E+03  0.7818608E-02  0.1163581E+00
         21   -1    0    0  503  502  0.00000000000E+00  0.00000000000E+00  0.10612025197E+03  0.10612025197E+03  0.00000000000E+00 0. -1.
         21   -1    0    0  501  503 -0.00000000000E+00 -0.00000000000E+00 -0.32509721670E+03  0.32509721670E+03  0.00000000000E+00 0. -1.
          6    1    1    2  501    0  0.36368789576E+02  0.55754923996E+02 -0.83948105674E+02  0.20263905066E+03  0.17200000000E+03 0. -1.
         -6    1    1    2    0  502 -0.36368789576E+02 -0.55754923996E+02 -0.13502885906E+03  0.22857841802E+03  0.17200000000E+03 0. -1.
</event>
<event>
 4    1  0.2889985E+000  0.1840142E+03  0.7818608E-02  0.1163974E+00
         21   -1    0    0  503  502  0.00000000000E+00  0.00000000000E+00  0.23947545626E+02  0.23947545626E+02  0.00000000000E+00 0.  1.
         21   -1    0    0  501  503 -0.00000000000E+00 -0.00000000000E+00 -0.14147497615E+04  0.14147497615E+04  0.00000000000E+00 0.  1.
          6    1    1    2  501    0  0.51132044887E+02 -0.40776622357E+02 -0.71224035455E+03  0.73562731162E+03  0.17200000000E+03 0.  1.
         -6    1    1    2    0  502 -0.51132044887E+02  0.40776622357E+02 -0.67856186136E+03  0.70306999555E+03  0.17200000000E+03 0.  1.
</event>
<event>
 4    1  0.2889985E+000  0.1763234E+03  0.7818608E-02  0.1171409E+00
         21   -1    0    0  501  502  0.00000000000E+00  0.00000000000E+00  0.27846627365E+03  0.27846627365E+03  0.00000000000E+00 0.  1.
         21   -1    0    0  502  503 -0.00000000000E+00 -0.00000000000E+00 -0.27236587435E+03  0.27236587435E+03  0.00000000000E+00 0.  1.
          6    1    1    2  501    0 -0.16015940142E+02 -0.35347527781E+02  0.21461636428E+03  0.27775914364E+03  0.17200000000E+03 0.  1.
         -6    1    1    2    0  503  0.16015940142E+02  0.35347527781E+02 -0.20851596498E+03  0.27307300436E+03  0.17200000000E+03 0.  1.
</event>
<event>
 4    1  0.2889985E+000  0.2633138E+03  0.7818608E-02  0.1105168E+00
         21   -1    0    0  503  502  0.00000000000E+00  0.00000000000E+00  0.10840396907E+03  0.10840396907E+03  0.00000000000E+00 0. -1.
         21   -1    0    0  501  503 -0.00000000000E+00 -0.00000000000E+00 -0.96471959952E+03  0.96471959952E+03  0.00000000000E+00 0.  1.
          6    1    1    2  501    0 -0.15057099386E+03 -0.13068490259E+03 -0.73964988110E+03  0.78512171959E+03  0.17200000000E+03 0.  1.
         -6    1    1    2    0  502  0.15057099386E+03  0.13068490259E+03 -0.11666574935E+03  0.28800184900E+03  0.17200000000E+03 0. -1.
</event>
<event>
 4    1  0.2889985E+000  0.2950191E+03  0.7818608E-02  0.1087757E+00
         21   -1    0    0  503  502  0.00000000000E+00  0.00000000000E+00  0.74661018519E+02  0.74661018519E+02  0.00000000000E+00 0. -1.
         21   -1    0    0  501  503 -0.00000000000E+00 -0.00000000000E+00 -0.11735017655E+04  0.11735017655E+04  0.00000000000E+00 0.  1.
          6    1    1    2  501    0  0.87854266275E+02  0.22301101371E+03 -0.60013390707E+03  0.66872788992E+03  0.17200000000E+03 0.  1.
         -6    1    1    2    0  502 -0.87854266275E+02 -0.22301101371E+03 -0.49870683995E+03  0.57943489415E+03  0.17200000000E+03 0.  1.
</event>
<event>
 4    1  0.2889985E+000  0.1729090E+03  0.7818608E-02  0.1174848E+00
         21   -1    0    0  503  502  0.00000000000E+00  0.00000000000E+00  0.10091834592E+04  0.10091834592E+04  0.00000000000E+00 0.  1.
         21   -1    0    0  501  503 -0.00000000000E+00 -0.00000000000E+00 -0.30278309434E+02  0.30278309434E+02  0.00000000000E+00 0.  1.
          6    1    1    2  501    0  0.10696006854E+02 -0.14110459703E+02  0.41313509324E+03  0.44785948120E+03  0.17200000000E+03 0.  1.
         -6    1    1    2    0  502 -0.10696006854E+02  0.14110459703E+02  0.56577005658E+03  0.59160228748E+03  0.17200000000E+03 0.  1.
</event>
<event>
 4    1  0.2889985E+000  0.1946417E+03  0.7818608E-02  0.1154340E+00
         21   -1    0    0  503  502  0.00000000000E+00  0.00000000000E+00  0.79195579417E+03  0.79195579417E+03  0.00000000000E+00 0.  1.
         21   -1    0    0  501  503 -0.00000000000E+00 -0.00000000000E+00 -0.47973631930E+02  0.47973631930E+02  0.00000000000E+00 0.  1.
          6    1    1    2  501    0  0.74646216973E+02  0.52242871805E+02  0.34963949460E+03  0.40016640482E+03  0.17200000000E+03 0.  1.
         -6    1    1    2    0  502 -0.74646216973E+02 -0.52242871805E+02  0.39434266764E+03  0.43976302128E+03  0.17200000000E+03 0.  1.
</event>
<event>
 4    1  0.2889985E+000  0.1844230E+03  0.7818608E-02  0.1163590E+00
         21   -1    0    0  501  502  0.00000000000E+00  0.00000000000E+00  0.98698091050E+02  0.98698091050E+02  0.00000000000E+00 0. -1.
         21   -1    0    0  502  503 -0.00000000000E+00 -0.00000000000E+00 -0.38232064954E+03  0.38232064954E+03  0.00000000000E+00 0. -1.
          6    1    1    2  501    0 -0.43853060799E+02 -0.50047470843E+02 -0.66270785881E+02  0.19596851109E+03  0.17200000000E+03 0. -1.
         -6    1    1    2    0  503  0.43853060799E+02  0.50047470843E+02 -0.21735177261E+03  0.28505022950E+03  0.17200000000E+03 0. -1.
</event>
<event>
 4    1  0.2889985E+000  0.2256028E+03  0.7818608E-02  0.1129774E+00
         21   -1    0    0  503  502  0.00000000000E+00  0.00000000000E+00  0.49872110223E+02  0.49872110223E+02  0.00000000000E+00 0. -1.
         21   -1    0    0  501  503 -0.00000000000E+00 -0.00000000000E+00 -0.10453735228E+04  0.10453735228E+04  0.00000000000E+00 0.  1.
          6    1    1    2  501    0  0.13803056212E+03  0.47541355739E+02 -0.41335087206E+03  0.47090929065E+03  0.17200000000E+03 0.  1.
         -6    1    1    2    0  502 -0.13803056212E+03 -0.47541355739E+02 -0.58215054050E+03  0.62433634236E+03  0.17200000000E+03 0.  1.
</event>
<event>
 4    1  0.2889985E+000  0.1961314E+03  0.7818608E-02  0.1153045E+00
         21   -1    0    0  503  502  0.00000000000E+00  0.00000000000E+00  0.12575916972E+03  0.12575916972E+03  0.00000000000E+00 0. -1.
         21   -1    0    0  501  503 -0.00000000000E+00 -0.00000000000E+00 -0.39173418706E+03  0.39173418706E+03  0.00000000000E+00 0.  1.
          6    1    1    2  501    0  0.61598277650E+02 -0.71338473319E+02 -0.25411801604E+03  0.32100388107E+03  0.17200000000E+03 0.  1.
         -6    1    1    2    0  502 -0.61598277650E+02  0.71338473319E+02 -0.11857001306E+02  0.19648947571E+03  0.17200000000E+03 0. -1.
</event>
<event>
 4    1  0.2889985E+000  0.2150459E+03  0.7818608E-02  0.1137631E+00
         21   -1    0    0  503  502  0.00000000000E+00  0.00000000000E+00  0.63817938015E+02  0.63817938015E+02  0.00000000000E+00 0.  1.
         21   -1    0    0  501  503 -0.00000000000E+00 -0.00000000000E+00 -0.82403061770E+03  0.82403061770E+03  0.00000000000E+00 0.  1.
          6    1    1    2  501    0 -0.12900740024E+03 -0.42228285802E+01 -0.53428341806E+03  0.57593707331E+03  0.17200000000E+03 0.  1.
         -6    1    1    2    0  502  0.12900740024E+03  0.42228285802E+01 -0.22592926162E+03  0.31191148240E+03  0.17200000000E+03 0.  1.
</event>
<event>
 4    1  0.2889985E+000  0.3603466E+03  0.7818608E-02  0.1058447E+00
         21   -1    0    0  501  502  0.00000000000E+00  0.00000000000E+00  0.11441103430E+03  0.11441103430E+03  0.00000000000E+00 0.  1.
         21   -1    0    0  502  503 -0.00000000000E+00 -0.00000000000E+00 -0.13170647458E+04  0.13170647458E+04  0.00000000000E+00 0. -1.
          6    1    1    2  501    0  0.22504160124E+03  0.22275981363E+03 -0.86748205260E+03  0.93934805500E+03  0.17200000000E+03 0. -1.
         -6    1    1    2    0  503 -0.22504160124E+03 -0.22275981363E+03 -0.33517165886E+03  0.49212772505E+03  0.17200000000E+03 0. -1.
</event>
<event>
 4    1  0.2889985E+000  0.1747352E+03  0.7818608E-02  0.1172998E+00
         21   -1    0    0  503  502  0.00000000000E+00  0.00000000000E+00  0.35783799312E+02  0.35783799312E+02  0.00000000000E+00 0. -1.
         21   -1    0    0  501  503 -0.00000000000E+00 -0.00000000000E+00 -0.11141347188E+04  0.11141347188E+04  0.00000000000E+00 0. -1.
          6    1    1    2  501    0 -0.23218451646E+02 -0.20231277139E+02 -0.81740001860E+03  0.83586792705E+03  0.17200000000E+03 0. -1.
         -6    1    1    2    0  502  0.23218451646E+02  0.20231277139E+02 -0.26095090091E+03  0.31405059108E+03  0.17200000000E+03 0. -1.
</event>
<event>
 4    1  0.2889985E+000  0.1959728E+03  0.7818608E-02  0.1153182E+00
         21   -1    0    0  501  502  0.00000000000E+00  0.00000000000E+00  0.62671475293E+03  0.62671475293E+03  0.00000000000E+00 0.  1.
         21   -1    0    0  502  503 -0.00000000000E+00 -0.00000000000E+00 -0.61283113561E+02  0.61283113561E+02  0.00000000000E+00 0.  1.
          6    1    1    2  501    0 -0.90683916259E+02  0.24449114376E+02  0.28500412456E+03  0.34587957858E+03  0.17200000000E+03 0.  1.
         -6    1    1    2    0  503  0.90683916259E+02 -0.24449114376E+02  0.28042751481E+03  0.34211828791E+03  0.17200000000E+03 0.  1.
</event>
<event>
 4    1  0.2889985E+000  0.2006288E+03  0.7818608E-02  0.1149210E+00
         21   -1    0    0  503  502  0.00000000000E+00  0.00000000000E+00  0.75185048324E+03  0.75185048324E+03  0.00000000000E+00 0. -1.
         21   -1    0    0  501  503 -0.00000000000E+00 -0.00000000000E+00 -0.73405703743E+02  0.73405703743E+02  0.00000000000E+00 0.  1.
          6    1    1    2  501    0 -0.70958931940E+02  0.75051711723E+02  0.12454957233E+03  0.23614513635E+03  0.17200000000E+03 0.  1.
         -6    1    1    2    0  502  0.70958931940E+02 -0.75051711723E+02  0.55389520717E+03  0.58911105064E+03  0.17200000000E+03 0. -1.
</event>
<event>
 4    1  0.2889985E+000  0.2849209E+03  0.7818608E-02  0.1093031E+00
         21   -1    0    0  501  502  0.00000000000E+00  0.00000000000E+00  0.49859797900E+03  0.49859797900E+03  0.00000000000E+00 0.  1.
         21   -1    0    0  502  503 -0.00000000000E+00 -0.00000000000E+00 -0.29514919422E+03  0.29514919422E+03  0.00000000000E+00 0. -1.
          6    1    1    2  501    0  0.22710541527E+03  0.43622554291E+01  0.36746947198E+03  0.46498786194E+03  0.17200000000E+03 0.  1.
         -6    1    1    2    0  503 -0.22710541527E+03 -0.43622554291E+01 -0.16402068720E+03  0.32875931127E+03  0.17200000000E+03 0. -1.
</event>
<event>
 4    1  0.2889985E+000  0.1736691E+03  0.7818608E-02  0.1174075E+00
         21   -1    0    0  501  502  0.00000000000E+00  0.00000000000E+00  0.22748719157E+03  0.22748719157E+03  0.00000000000E+00 0.  1.
         21   -1    0    0  502  503 -0.00000000000E+00 -0.00000000000E+00 -0.29759209556E+03  0.29759209556E+03  0.00000000000E+00 0.  1.
          6    1    1    2  501    0 -0.15514293847E+01 -0.23969816592E+02  0.16044360139E+03  0.23643838154E+03  0.17200000000E+03 0.  1.
         -6    1    1    2    0  503  0.15514293847E+01  0.23969816592E+02 -0.23054850538E+03  0.28864090558E+03  0.17200000000E+03 0.  1.
</event>
<event>
 4    1  0.2889985E+000  0.2224543E+03  0.7818608E-02  0.1132066E+00
         21   -1    0    0  501  502  0.00000000000E+00  0.00000000000E+00  0.27914257171E+03  0.27914257171E+03  0.00000000000E+00 0. -1.
         21   -1    0    0  502  503 -0.00000000000E+00 -0.00000000000E+00 -0.18052863740E+03  0.18052863740E+03  0.00000000000E+00 0.  1.
          6    1    1    2  501    0  0.13344928893E+03 -0.45751628581E+02  0.80146486555E+02  0.23645165159E+03  0.17200000000E+03 0. -1.
         -6    1    1    2    0  503 -0.13344928893E+03  0.45751628581E+02  0.18467447750E+02  0.22321955752E+03  0.17200000000E+03 0.  1.
</event>
<event>
 4    1  0.2889985E+000  0.1942354E+03  0.7818608E-02  0.1154696E+00
         21   -1    0    0  501  502  0.00000000000E+00  0.00000000000E+00  0.22099572461E+02  0.22099572461E+02  0.00000000000E+00 0.  1.
         21   -1    0    0  502  503 -0.00000000000E+00 -0.00000000000E+00 -0.17151059005E+04  0.17151059005E+04  0.00000000000E+00 0.  1.
          6    1    1    2  501    0 -0.27716878841E+02 -0.85878852234E+02 -0.90564233331E+03  0.92623724742E+03  0.17200000000E+03 0.  1.
         -6    1    1    2    0  503  0.27716878841E+02  0.85878852234E+02 -0.78736399474E+03  0.81096822554E+03  0.17200000000E+03 0.  1.
</event>
<event>
 4    1  0.2889985E+000  0.3266406E+03  0.7818608E-02  0.1072633E+00
         21   -1    0    0  501  502  0.00000000000E+00  0.00000000000E+00  0.38344687092E+03  0.38344687092E+03  0.00000000000E+00 0.  1.
         21   -1    0    0  502  503 -0.00000000000E+00 -0.00000000000E+00 -0.45699994404E+03  0.45699994404E+03  0.00000000000E+00 0. -1.
          6    1    1    2  501    0 -0.11992650867E+03 -0.25045506085E+03  0.22603539744E+03  0.39722299264E+03  0.17200000000E+03 0.  1.
         -6    1    1    2    0  503  0.11992650867E+03  0.25045506085E+03 -0.29958847056E+03  0.44322382232E+03  0.17200000000E+03 0. -1.
</event>
