<event>
 4    1 -0.3305908E-004  0.1965675E+03  0.7818608E-02  0.1152668E+00
         -5   -1    0    0    0  501 -0.00000000000E+00  0.00000000000E+00  0.47693586079E+02  0.47924609055E+02  0.47000000000E+01 0.  1.
          5   -1    0    0  501    0  0.00000000000E+00 -0.00000000000E+00 -0.95507817013E+03  0.95508973456E+03  0.47000000000E+01 0. -1.
          6    1    1    2  502    0  0.33555815925E+02  0.89043721969E+02 -0.65050305494E+03  0.67955353115E+03  0.17200000000E+03 0. -1.
         -6    1    1    2    0  502 -0.33555815925E+02 -0.89043721969E+02 -0.25688152911E+03  0.32346081247E+03  0.17200000000E+03 0.  1.
</event>
<event>
 4    1 -0.3305908E-004  0.2644778E+03  0.7818608E-02  0.1104482E+00
          5   -1    0    0  501    0  0.00000000000E+00  0.00000000000E+00  0.33012103354E+03  0.33015448927E+03  0.47000000000E+01 0. -1.
         -5   -1    0    0    0  501 -0.00000000000E+00 -0.00000000000E+00 -0.36441051889E+03  0.36444082686E+03  0.47000000000E+01 0.  1.
          6    1    1    2  502    0 -0.12476693882E+03 -0.15747287205E+03  0.20756904609E+03  0.33620440709E+03  0.17200000000E+03 0. -1.
         -6    1    1    2    0  502  0.12476693882E+03  0.15747287205E+03 -0.24185853144E+03  0.35839090904E+03  0.17200000000E+03 0.  1.
</event>
<event>
 4    1 -0.3305908E-004  0.1808791E+03  0.7818608E-02  0.1166955E+00
          5   -1    0    0  501    0  0.00000000000E+00  0.00000000000E+00  0.43238792517E+02  0.43493484320E+02  0.47000000000E+01 0. -1.
         -5   -1    0    0    0  501 -0.00000000000E+00 -0.00000000000E+00 -0.80466678040E+03  0.80468050646E+03  0.47000000000E+01 0.  1.
          6    1    1    2  502    0  0.53718376918E+02 -0.15734751511E+02 -0.48692324291E+03  0.51943381764E+03  0.17200000000E+03 0.  1.
         -6    1    1    2    0  502 -0.53718376918E+02  0.15734751511E+02 -0.27450474498E+03  0.32874017314E+03  0.17200000000E+03 0. -1.
</event>
<event>
 4    1 -0.3305908E-004  0.3496570E+03  0.7818608E-02  0.1062756E+00
         -5   -1    0    0    0  501 -0.00000000000E+00  0.00000000000E+00  0.10439295620E+04  0.10439401422E+04  0.47000000000E+01 0.  1.
          5   -1    0    0  501    0  0.00000000000E+00 -0.00000000000E+00 -0.14005427837E+03  0.14013311846E+03  0.47000000000E+01 0. -1.
          6    1    1    2  502    0  0.67676797921E+02  0.29680945937E+03  0.21211542838E+03  0.40896571874E+03  0.17200000000E+03 0. -1.
         -6    1    1    2    0  502 -0.67676797921E+02 -0.29680945937E+03  0.69175985525E+03  0.77510754189E+03  0.17200000000E+03 0.  1.
</event>
<event>
 4    1 -0.3305908E-004  0.1741826E+03  0.7818608E-02  0.1173555E+00
         -5   -1    0    0    0  501 -0.00000000000E+00  0.00000000000E+00  0.75764916299E+02  0.75910556195E+02  0.47000000000E+01 0.  1.
          5   -1    0    0  501    0  0.00000000000E+00 -0.00000000000E+00 -0.41378613755E+03  0.41381282922E+03  0.47000000000E+01 0. -1.
          6    1    1    2  502    0 -0.26753353413E+02 -0.63115574150E+01 -0.12416309811E+03  0.21390664461E+03  0.17200000000E+03 0.  1.
         -6    1    1    2    0  502  0.26753353413E+02  0.63115574150E+01 -0.21385812314E+03  0.27581674080E+03  0.17200000000E+03 0. -1.
</event>
<event>
 4    1 -0.3305908E-004  0.1877450E+03  0.7818608E-02  0.1160511E+00
         -5   -1    0    0    0  501 -0.00000000000E+00  0.00000000000E+00  0.74803191533E+02  0.74950700220E+02  0.47000000000E+01 0.  1.
          5   -1    0    0  501    0  0.00000000000E+00 -0.00000000000E+00 -0.55287108036E+03  0.55289105753E+03  0.47000000000E+01 0. -1.
          6    1    1    2  502    0 -0.40686391866E+02  0.63315065344E+02 -0.11794769160E+03  0.22172017936E+03  0.17200000000E+03 0.  1.
         -6    1    1    2    0  502  0.40686391866E+02 -0.63315065344E+02 -0.36012019723E+03  0.40612157839E+03  0.17200000000E+03 0. -1.
</event>
<event>
 4    1 -0.3305908E-004  0.1779592E+03  0.7818608E-02  0.1169793E+00
          5   -1    0    0  501    0  0.00000000000E+00  0.00000000000E+00  0.11935855743E+03  0.11945105789E+03  0.47000000000E+01 0. -1.
         -5   -1    0    0    0  501 -0.00000000000E+00 -0.00000000000E+00 -0.65311880028E+03  0.65313571123E+03  0.47000000000E+01 0.  1.
          6    1    1    2  502    0  0.45161397675E+02  0.67770039924E+01  0.30833669327E+02  0.18061061649E+03  0.17200000000E+03 0. -1.
         -6    1    1    2    0  502 -0.45161397675E+02 -0.67770039924E+01 -0.56459391218E+03  0.59197615264E+03  0.17200000000E+03 0.  1.
</event>
<event>
 4    1 -0.3305908E-004  0.1796884E+03  0.7818608E-02  0.1168105E+00
          5   -1    0    0  501    0  0.00000000000E+00  0.00000000000E+00  0.38312294095E+03  0.38315176873E+03  0.47000000000E+01 0. -1.
         -5   -1    0    0    0  501 -0.00000000000E+00 -0.00000000000E+00 -0.91418579956E+02  0.91539318116E+02  0.47000000000E+01 0.  1.
          6    1    1    2  502    0 -0.50121392402E+02  0.13848046731E+02  0.21259142912E+03  0.27835775202E+03  0.17200000000E+03 0. -1.
         -6    1    1    2    0  502  0.50121392402E+02 -0.13848046731E+02  0.79112931874E+02  0.19633333483E+03  0.17200000000E+03 0. -1.
</event>
<event>
 4    1 -0.3305908E-004  0.1726719E+03  0.7818608E-02  0.1175090E+00
         -5   -1    0    0    0  501 -0.00000000000E+00  0.00000000000E+00  0.18430502879E+03  0.18436494688E+03  0.47000000000E+01 0.  1.
          5   -1    0    0  501    0  0.00000000000E+00 -0.00000000000E+00 -0.26908158647E+03  0.26912263037E+03  0.47000000000E+01 0. -1.
          6    1    1    2  502    0  0.13913429946E+02 -0.61655579442E+01 -0.18562731735E+03  0.25352139670E+03  0.17200000000E+03 0. -1.
         -6    1    1    2    0  502 -0.13913429946E+02  0.61655579442E+01  0.10085075967E+03  0.19996618055E+03  0.17200000000E+03 0.  1.
</event>
<event>
 4    1 -0.3305908E-004  0.4549505E+03  0.7818608E-02  0.1026256E+00
          5   -1    0    0  501    0  0.00000000000E+00  0.00000000000E+00  0.73391119830E+03  0.73392624765E+03  0.47000000000E+01 0. -1.
         -5   -1    0    0    0  501 -0.00000000000E+00 -0.00000000000E+00 -0.36861074139E+03  0.36864070403E+03  0.47000000000E+01 0.  1.
          6    1    1    2  502    0 -0.39881927627E+03  0.13542192878E+03  0.44987935084E+03  0.63982133774E+03  0.17200000000E+03 0. -1.
         -6    1    1    2    0  502  0.39881927627E+03 -0.13542192878E+03 -0.84578893923E+02  0.46274561394E+03  0.17200000000E+03 0.  1.
</event>
<event>
 4    1 -0.3305908E-004  0.2323431E+03  0.7818608E-02  0.1125001E+00
          5   -1    0    0  501    0  0.00000000000E+00  0.00000000000E+00  0.24604046272E+03  0.24608534961E+03  0.47000000000E+01 0. -1.
         -5   -1    0    0    0  501 -0.00000000000E+00 -0.00000000000E+00 -0.24128936224E+03  0.24133513281E+03  0.47000000000E+01 0.  1.
          6    1    1    2  502    0  0.11546444785E+03  0.10520102143E+03  0.75902813678E+02  0.24442694359E+03  0.17200000000E+03 0. -1.
         -6    1    1    2    0  502 -0.11546444785E+03 -0.10520102143E+03 -0.71151713195E+02  0.24299353884E+03  0.17200000000E+03 0. -1.
</event>
<event>
 4    1 -0.3305908E-004  0.3158489E+03  0.7818608E-02  0.1077576E+00
         -5   -1    0    0    0  501 -0.00000000000E+00  0.00000000000E+00  0.42011583899E+03  0.42014212853E+03  0.47000000000E+01 0.  1.
          5   -1    0    0  501    0  0.00000000000E+00 -0.00000000000E+00 -0.26731745864E+03  0.26735877336E+03  0.47000000000E+01 0. -1.
          6    1    1    2  502    0  0.69365875652E+02  0.25566555007E+03 -0.38579306279E+02  0.31819626188E+03  0.17200000000E+03 0. -1.
         -6    1    1    2    0  502 -0.69365875652E+02 -0.25566555007E+03  0.19137768663E+03  0.36930464002E+03  0.17200000000E+03 0.  1.
</event>
<event>
 4    1 -0.3305908E-004  0.2160334E+03  0.7818608E-02  0.1136875E+00
         -5   -1    0    0    0  501 -0.00000000000E+00  0.00000000000E+00  0.50432196641E+03  0.50434386663E+03  0.47000000000E+01 0.  1.
          5   -1    0    0  501    0  0.00000000000E+00 -0.00000000000E+00 -0.18203338997E+03  0.18209405555E+03  0.47000000000E+01 0. -1.
          6    1    1    2  502    0  0.11752656376E+03  0.57218451491E+02 -0.79545765751E+02  0.23021288676E+03  0.17200000000E+03 0. -1.
         -6    1    1    2    0  502 -0.11752656376E+03 -0.57218451491E+02  0.40183434219E+03  0.45622503542E+03  0.17200000000E+03 0.  1.
</event>
<event>
 4    1 -0.3305908E-004  0.2121396E+03  0.7818608E-02  0.1139883E+00
          5   -1    0    0  501    0  0.00000000000E+00  0.00000000000E+00  0.62839090941E+02  0.63014612196E+02  0.47000000000E+01 0. -1.
         -5   -1    0    0    0  501 -0.00000000000E+00 -0.00000000000E+00 -0.73206420862E+03  0.73207929594E+03  0.47000000000E+01 0.  1.
          6    1    1    2  502    0  0.11291515000E+03 -0.51666229884E+02 -0.27389665105E+03  0.34644278873E+03  0.17200000000E+03 0. -1.
         -6    1    1    2    0  502 -0.11291515000E+03  0.51666229884E+02 -0.39532846664E+03  0.44865111940E+03  0.17200000000E+03 0.  1.
</event>
<event>
 4    1 -0.3305908E-004  0.2078081E+03  0.7818608E-02  0.1143314E+00
         -5   -1    0    0    0  501 -0.00000000000E+00  0.00000000000E+00  0.86750867366E+02  0.86878092686E+02  0.47000000000E+01 0.  1.
          5   -1    0    0  501    0  0.00000000000E+00 -0.00000000000E+00 -0.50025208150E+03  0.50027415988E+03  0.47000000000E+01 0. -1.
          6    1    1    2  502    0  0.10449395711E+03 -0.51780388789E+02 -0.18417289928E+03  0.27767580479E+03  0.17200000000E+03 0.  1.
         -6    1    1    2    0  502 -0.10449395711E+03  0.51780388789E+02 -0.22932831486E+03  0.30947644778E+03  0.17200000000E+03 0. -1.
</event>
<event>
 4    1 -0.3305908E-004  0.1773127E+03  0.7818608E-02  0.1170429E+00
         -5   -1    0    0    0  501 -0.00000000000E+00  0.00000000000E+00  0.25844434786E+03  0.25848708080E+03  0.47000000000E+01 0.  1.
          5   -1    0    0  501    0  0.00000000000E+00 -0.00000000000E+00 -0.14261950204E+03  0.14269692486E+03  0.47000000000E+01 0. -1.
          6    1    1    2  502    0 -0.13568930593E+02  0.40886094571E+02  0.13497408910E+03  0.22284028661E+03  0.17200000000E+03 0.  1.
         -6    1    1    2    0  502  0.13568930593E+02 -0.40886094571E+02 -0.19149243283E+02  0.17834371905E+03  0.17200000000E+03 0. -1.
</event>
<event>
 4    1 -0.3305908E-004  0.1829970E+03  0.7818608E-02  0.1164934E+00
          5   -1    0    0  501    0  0.00000000000E+00  0.00000000000E+00  0.21516754880E+03  0.21521887477E+03  0.47000000000E+01 0. -1.
         -5   -1    0    0    0  501 -0.00000000000E+00 -0.00000000000E+00 -0.16408722629E+03  0.16415452425E+03  0.47000000000E+01 0.  1.
          6    1    1    2  502    0  0.62122529162E+02  0.66839739372E+01  0.68839689091E+02  0.19551671778E+03  0.17200000000E+03 0. -1.
         -6    1    1    2    0  502 -0.62122529162E+02 -0.66839739372E+01 -0.17759366580E+02  0.18385668124E+03  0.17200000000E+03 0.  1.
</event>
<event>
 4    1 -0.3305908E-004  0.1834713E+03  0.7818608E-02  0.1164485E+00
         -5   -1    0    0    0  501 -0.00000000000E+00  0.00000000000E+00  0.18700403258E+03  0.18706308616E+03  0.47000000000E+01 0.  1.
          5   -1    0    0  501    0  0.00000000000E+00 -0.00000000000E+00 -0.24351534633E+03  0.24356069859E+03  0.47000000000E+01 0. -1.
          6    1    1    2  502    0  0.63592752067E+02 -0.58021012410E+01 -0.13829037823E+03  0.22975189054E+03  0.17200000000E+03 0. -1.
         -6    1    1    2    0  502 -0.63592752067E+02  0.58021012410E+01  0.81779064488E+02  0.20087189421E+03  0.17200000000E+03 0.  1.
</event>
<event>
 4    1 -0.3305908E-004  0.2923263E+03  0.7818608E-02  0.1089141E+00
          5   -1    0    0  501    0  0.00000000000E+00  0.00000000000E+00  0.53238741241E+03  0.53240815818E+03  0.47000000000E+01 0. -1.
         -5   -1    0    0    0  501 -0.00000000000E+00 -0.00000000000E+00 -0.16455138319E+03  0.16461849140E+03  0.47000000000E+01 0.  1.
          6    1    1    2  502    0  0.15647408123E+03 -0.17716249397E+03  0.23889843918E+03  0.37752768324E+03  0.17200000000E+03 0. -1.
         -6    1    1    2    0  502 -0.15647408123E+03  0.17716249397E+03  0.12893759004E+03  0.31949896634E+03  0.17200000000E+03 0.  1.
</event>
<event>
 4    1 -0.3305908E-004  0.1797892E+03  0.7818608E-02  0.1168007E+00
         -5   -1    0    0    0  501 -0.00000000000E+00  0.00000000000E+00  0.42653699864E+03  0.42656289244E+03  0.47000000000E+01 0.  1.
          5   -1    0    0  501    0  0.00000000000E+00 -0.00000000000E+00 -0.10240630401E+03  0.10251410196E+03  0.47000000000E+01 0. -1.
          6    1    1    2  502    0  0.39822362221E+02  0.33975486858E+02  0.27026779216E+02  0.18180924354E+03  0.17200000000E+03 0. -1.
         -6    1    1    2    0  502 -0.39822362221E+02 -0.33975486858E+02  0.29710391541E+03  0.34726775087E+03  0.17200000000E+03 0.  1.
</event>
<event>
 4    1 -0.3305908E-004  0.2791443E+03  0.7818608E-02  0.1096157E+00
         -5   -1    0    0    0  501 -0.00000000000E+00  0.00000000000E+00  0.60295498760E+03  0.60297330543E+03  0.47000000000E+01 0.  1.
          5   -1    0    0  501    0  0.00000000000E+00 -0.00000000000E+00 -0.16558855886E+03  0.16565524690E+03  0.47000000000E+01 0. -1.
          6    1    1    2  502    0  0.21169872552E+03 -0.59339523703E+02  0.38501548076E+02  0.28178697390E+03  0.17200000000E+03 0. -1.
         -6    1    1    2    0  502 -0.21169872552E+03  0.59339523703E+02  0.39886488066E+03  0.48684157843E+03  0.17200000000E+03 0.  1.
</event>
<event>
 4    1 -0.3305908E-004  0.1901204E+03  0.7818608E-02  0.1158353E+00
         -5   -1    0    0    0  501 -0.00000000000E+00  0.00000000000E+00  0.11798805160E+03  0.11808162566E+03  0.47000000000E+01 0.  1.
          5   -1    0    0  501    0  0.00000000000E+00 -0.00000000000E+00 -0.30629799022E+03  0.30633404775E+03  0.47000000000E+01 0. -1.
          6    1    1    2  502    0 -0.10021718211E+02 -0.80382357518E+02 -0.99298712331E+02  0.21449007554E+03  0.17200000000E+03 0.  1.
         -6    1    1    2    0  502  0.10021718211E+02  0.80382357518E+02 -0.89011226287E+02  0.20992559787E+03  0.17200000000E+03 0.  1.
</event>
<event>
 4    1 -0.3305908E-004  0.4224275E+03  0.7818608E-02  0.1036279E+00
         -5   -1    0    0    0  501 -0.00000000000E+00  0.00000000000E+00  0.21302009851E+03  0.21307194177E+03  0.47000000000E+01 0.  1.
          5   -1    0    0  501    0  0.00000000000E+00 -0.00000000000E+00 -0.89577361844E+03  0.89578594848E+03  0.47000000000E+01 0. -1.
          6    1    1    2  502    0  0.27205040475E+03  0.27358643821E+03 -0.48274566621E+03  0.64147356933E+03  0.17200000000E+03 0. -1.
         -6    1    1    2    0  502 -0.27205040475E+03 -0.27358643821E+03 -0.20000785372E+03  0.46738432093E+03  0.17200000000E+03 0.  1.
</event>
<event>
 4    1 -0.3305908E-004  0.1953936E+03  0.7818608E-02  0.1153685E+00
          5   -1    0    0  501    0  0.00000000000E+00  0.00000000000E+00  0.39554981715E+03  0.39557773933E+03  0.47000000000E+01 0. -1.
         -5   -1    0    0    0  501 -0.00000000000E+00 -0.00000000000E+00 -0.96496229165E+02  0.96610621792E+02  0.47000000000E+01 0.  1.
          6    1    1    2  502    0  0.90291696741E+02 -0.21025044430E+02  0.15587732487E+03  0.24995276234E+03  0.17200000000E+03 0. -1.
         -6    1    1    2    0  502 -0.90291696741E+02  0.21025044430E+02  0.14317626312E+03  0.24223559878E+03  0.17200000000E+03 0.  1.
</event>
<event>
 4    1 -0.3305908E-004  0.3309352E+03  0.7818608E-02  0.1070724E+00
         -5   -1    0    0    0  501 -0.00000000000E+00  0.00000000000E+00  0.12963719306E+03  0.12972236440E+03  0.47000000000E+01 0.  1.
          5   -1    0    0  501    0  0.00000000000E+00 -0.00000000000E+00 -0.85395031161E+03  0.85396324552E+03  0.47000000000E+01 0. -1.
          6    1    1    2  502    0  0.20732612125E+03  0.19222372257E+03 -0.41407110280E+03  0.53006882407E+03  0.17200000000E+03 0. -1.
         -6    1    1    2    0  502 -0.20732612125E+03 -0.19222372257E+03 -0.31024201574E+03  0.45361678585E+03  0.17200000000E+03 0.  1.
</event>
<event>
 4    1 -0.3305908E-004  0.2336327E+03  0.7818608E-02  0.1124109E+00
          5   -1    0    0  501    0  0.00000000000E+00  0.00000000000E+00  0.47239886574E+03  0.47242224583E+03  0.47000000000E+01 0. -1.
         -5   -1    0    0    0  501 -0.00000000000E+00 -0.00000000000E+00 -0.12615539247E+03  0.12624291286E+03  0.47000000000E+01 0.  1.
          6    1    1    2  502    0 -0.75925893761E+02  0.13869216293E+03  0.26018583574E+03  0.34968689784E+03  0.17200000000E+03 0. -1.
         -6    1    1    2    0  502  0.75925893761E+02 -0.13869216293E+03  0.86057637540E+02  0.24897826086E+03  0.17200000000E+03 0.  1.
</event>
<event>
 4    1 -0.3305908E-004  0.2195369E+03  0.7818608E-02  0.1134229E+00
          5   -1    0    0  501    0  0.00000000000E+00  0.00000000000E+00  0.11997762088E+03  0.12006964442E+03  0.47000000000E+01 0. -1.
         -5   -1    0    0    0  501 -0.00000000000E+00 -0.00000000000E+00 -0.40917141584E+03  0.40919840852E+03  0.47000000000E+01 0.  1.
          6    1    1    2  502    0 -0.11811513071E+03 -0.68273616559E+02 -0.18093907921E+03  0.28449151342E+03  0.17200000000E+03 0. -1.
         -6    1    1    2    0  502  0.11811513071E+03  0.68273616559E+02 -0.10825471575E+03  0.24477653953E+03  0.17200000000E+03 0.  1.
</event>
<event>
 4    1 -0.3305908E-004  0.1940797E+03  0.7818608E-02  0.1154832E+00
          5   -1    0    0  501    0  0.00000000000E+00  0.00000000000E+00  0.76604954392E+02  0.76749000237E+02  0.47000000000E+01 0. -1.
         -5   -1    0    0    0  501 -0.00000000000E+00 -0.00000000000E+00 -0.49348641503E+03  0.49350879609E+03  0.47000000000E+01 0.  1.
          6    1    1    2  502    0  0.42720447488E+02 -0.79106783949E+02 -0.22832217212E+03  0.29966303440E+03  0.17200000000E+03 0.  1.
         -6    1    1    2    0  502 -0.42720447488E+02  0.79106783949E+02 -0.18855928852E+03  0.27059476194E+03  0.17200000000E+03 0. -1.
</event>
<event>
 4    1 -0.3305908E-004  0.2155378E+03  0.7818608E-02  0.1137254E+00
          5   -1    0    0  501    0  0.00000000000E+00  0.00000000000E+00  0.84151865303E+02  0.84283013911E+02  0.47000000000E+01 0. -1.
         -5   -1    0    0    0  501 -0.00000000000E+00 -0.00000000000E+00 -0.56376021754E+03  0.56377980886E+03  0.47000000000E+01 0.  1.
          6    1    1    2  502    0 -0.19307231825E+02 -0.12845145366E+03 -0.19199667517E+03  0.28865077243E+03  0.17200000000E+03 0.  1.
         -6    1    1    2    0  502  0.19307231825E+02  0.12845145366E+03 -0.28761167706E+03  0.35941205034E+03  0.17200000000E+03 0.  1.
</event>
<event>
 4    1 -0.3305908E-004  0.2234870E+03  0.7818608E-02  0.1131310E+00
         -5   -1    0    0    0  501 -0.00000000000E+00  0.00000000000E+00  0.32343172103E+03  0.32346586863E+03  0.47000000000E+01 0.  1.
          5   -1    0    0  501    0  0.00000000000E+00 -0.00000000000E+00 -0.15511345881E+03  0.15518464841E+03  0.47000000000E+01 0. -1.
          6    1    1    2  502    0 -0.13894787800E+03 -0.32494798882E+02  0.67357203811E+02  0.23341683243E+03  0.17200000000E+03 0. -1.
         -6    1    1    2    0  502  0.13894787800E+03  0.32494798882E+02  0.10096105841E+03  0.24523368461E+03  0.17200000000E+03 0.  1.
</event>
<event>
 4    1 -0.3305908E-004  0.2178347E+03  0.7818608E-02  0.1135508E+00
          5   -1    0    0  501    0  0.00000000000E+00  0.00000000000E+00  0.17846534766E+03  0.17852722570E+03  0.47000000000E+01 0. -1.
         -5   -1    0    0    0  501 -0.00000000000E+00 -0.00000000000E+00 -0.44006532483E+03  0.44009042266E+03  0.47000000000E+01 0.  1.
          6    1    1    2  502    0 -0.13277880921E+03  0.15418283614E+02  0.63844463314E+02  0.22699790999E+03  0.17200000000E+03 0. -1.
         -6    1    1    2    0  502  0.13277880921E+03 -0.15418283614E+02 -0.32544444048E+03  0.39161973837E+03  0.17200000000E+03 0. -1.
</event>
<event>
 4    1 -0.3305908E-004  0.2379955E+03  0.7818608E-02  0.1121135E+00
          5   -1    0    0  501    0  0.00000000000E+00  0.00000000000E+00  0.25552436791E+02  0.25981089776E+02  0.47000000000E+01 0. -1.
         -5   -1    0    0    0  501 -0.00000000000E+00 -0.00000000000E+00 -0.22665684265E+04  0.22665732995E+04  0.47000000000E+01 0.  1.
          6    1    1    2  502    0  0.14279188552E+03 -0.81660010351E+02 -0.13201203815E+04  0.13414021401E+04  0.17200000000E+03 0.  1.
         -6    1    1    2    0  502 -0.14279188552E+03  0.81660010351E+02 -0.92089560821E+03  0.95115224916E+03  0.17200000000E+03 0. -1.
</event>
<event>
 4    1 -0.3305908E-004  0.1858099E+03  0.7818608E-02  0.1162296E+00
          5   -1    0    0  501    0  0.00000000000E+00  0.00000000000E+00  0.35223897048E+03  0.35227032563E+03  0.47000000000E+01 0. -1.
         -5   -1    0    0    0  501 -0.00000000000E+00 -0.00000000000E+00 -0.11039968627E+03  0.11049968655E+03  0.47000000000E+01 0.  1.
          6    1    1    2  502    0 -0.29668259349E+02 -0.63726784384E+02  0.19865196924E+03  0.27200719392E+03  0.17200000000E+03 0. -1.
         -6    1    1    2    0  502  0.29668259349E+02  0.63726784384E+02  0.43187314967E+02  0.19076281827E+03  0.17200000000E+03 0. -1.
</event>
<event>
 4    1 -0.3305908E-004  0.1807054E+03  0.7818608E-02  0.1167122E+00
         -5   -1    0    0    0  501 -0.00000000000E+00  0.00000000000E+00  0.48056596288E+03  0.48058894565E+03  0.47000000000E+01 0.  1.
          5   -1    0    0  501    0  0.00000000000E+00 -0.00000000000E+00 -0.74858091493E+02  0.75005492213E+02  0.47000000000E+01 0. -1.
          6    1    1    2  502    0 -0.33486362500E+02 -0.44148777862E+02  0.11792100069E+03  0.21577723110E+03  0.17200000000E+03 0. -1.
         -6    1    1    2    0  502  0.33486362500E+02  0.44148777862E+02  0.28778687070E+03  0.33981720676E+03  0.17200000000E+03 0.  1.
</event>
<event>
 4    1 -0.3305908E-004  0.2205458E+03  0.7818608E-02  0.1133477E+00
         -5   -1    0    0    0  501 -0.00000000000E+00  0.00000000000E+00  0.17061787706E+03  0.17068260009E+03  0.47000000000E+01 0.  1.
          5   -1    0    0  501    0  0.00000000000E+00 -0.00000000000E+00 -0.42037271793E+03  0.42039899141E+03  0.47000000000E+01 0. -1.
          6    1    1    2  502    0 -0.13804447562E+03  0.44051939236E+00 -0.29260403366E+03  0.36641177904E+03  0.17200000000E+03 0. -1.
         -6    1    1    2    0  502  0.13804447562E+03 -0.44051939236E+00  0.42849192792E+02  0.22466981246E+03  0.17200000000E+03 0.  1.
</event>
<event>
 4    1 -0.3305908E-004  0.2420316E+03  0.7818608E-02  0.1118447E+00
          5   -1    0    0  501    0  0.00000000000E+00  0.00000000000E+00  0.25928534217E+03  0.25932793653E+03  0.47000000000E+01 0. -1.
         -5   -1    0    0    0  501 -0.00000000000E+00 -0.00000000000E+00 -0.40197342421E+03  0.40200090021E+03  0.47000000000E+01 0.  1.
          6    1    1    2  502    0  0.13915310387E+03  0.98141326593E+02  0.14751552114E+03  0.28344335462E+03  0.17200000000E+03 0. -1.
         -6    1    1    2    0  502 -0.13915310387E+03 -0.98141326593E+02 -0.29020360317E+03  0.37788548212E+03  0.17200000000E+03 0.  1.
</event>
<event>
 4    1 -0.3305908E-004  0.2026314E+03  0.7818608E-02  0.1147538E+00
          5   -1    0    0  501    0  0.00000000000E+00  0.00000000000E+00  0.33065823420E+03  0.33069163558E+03  0.47000000000E+01 0. -1.
         -5   -1    0    0    0  501 -0.00000000000E+00 -0.00000000000E+00 -0.12425908274E+03  0.12434793783E+03  0.47000000000E+01 0.  1.
          6    1    1    2  502    0 -0.91448826819E+02 -0.55790524548E+02  0.94830559432E+02  0.22372372596E+03  0.17200000000E+03 0. -1.
         -6    1    1    2    0  502  0.91448826819E+02  0.55790524548E+02  0.11156859203E+03  0.23131584745E+03  0.17200000000E+03 0.  1.
</event>
<event>
 4    1 -0.3305908E-004  0.2193120E+03  0.7818608E-02  0.1134397E+00
          5   -1    0    0  501    0  0.00000000000E+00  0.00000000000E+00  0.15703738893E+04  0.15703809227E+04  0.47000000000E+01 0. -1.
         -5   -1    0    0    0  501 -0.00000000000E+00 -0.00000000000E+00 -0.30557991689E+02  0.30917322912E+02  0.47000000000E+01 0.  1.
          6    1    1    2  502    0  0.11313570651E+03  0.75591567663E+02  0.81919975527E+03  0.84804835489E+03  0.17200000000E+03 0. -1.
         -6    1    1    2    0  502 -0.11313570651E+03 -0.75591567663E+02  0.72061614236E+03  0.75324989068E+03  0.17200000000E+03 0. -1.
</event>
<event>
 4    1 -0.3305908E-004  0.3363428E+03  0.7818608E-02  0.1068364E+00
          5   -1    0    0  501    0  0.00000000000E+00  0.00000000000E+00  0.12733891571E+03  0.12742562322E+03  0.47000000000E+01 0. -1.
         -5   -1    0    0    0  501 -0.00000000000E+00 -0.00000000000E+00 -0.89642088492E+03  0.89643320605E+03  0.47000000000E+01 0.  1.
          6    1    1    2  502    0  0.28542009835E+03 -0.45583265607E+02 -0.43417462538E+03  0.54921222854E+03  0.17200000000E+03 0. -1.
         -6    1    1    2    0  502 -0.28542009835E+03  0.45583265607E+02 -0.33490734382E+03  0.47464660074E+03  0.17200000000E+03 0.  1.
</event>
<event>
 4    1 -0.3305908E-004  0.2209559E+03  0.7818608E-02  0.1133172E+00
          5   -1    0    0  501    0  0.00000000000E+00  0.00000000000E+00  0.47179659512E+03  0.47182000505E+03  0.47000000000E+01 0. -1.
         -5   -1    0    0    0  501 -0.00000000000E+00 -0.00000000000E+00 -0.10762633714E+03  0.10772891184E+03  0.47000000000E+01 0.  1.
          6    1    1    2  502    0  0.18331823218E+02  0.13748249881E+03  0.23946951145E+03  0.32583299424E+03  0.17200000000E+03 0.  1.
         -6    1    1    2    0  502 -0.18331823218E+02 -0.13748249881E+03  0.12470074653E+03  0.25371592265E+03  0.17200000000E+03 0.  1.
</event>
<event>
 4    1 -0.3305908E-004  0.3026001E+03  0.7818608E-02  0.1083948E+00
          5   -1    0    0  501    0  0.00000000000E+00  0.00000000000E+00  0.33215287957E+03  0.33218613067E+03  0.47000000000E+01 0. -1.
         -5   -1    0    0    0  501 -0.00000000000E+00 -0.00000000000E+00 -0.37006647649E+03  0.37009632128E+03  0.47000000000E+01 0.  1.
          6    1    1    2  502    0 -0.90456428061E+02  0.23194926451E+03  0.15842888556E+03  0.34156483786E+03  0.17200000000E+03 0. -1.
         -6    1    1    2    0  502  0.90456428061E+02 -0.23194926451E+03 -0.19634248248E+03  0.36071761408E+03  0.17200000000E+03 0.  1.
</event>
<event>
 4    1 -0.3305908E-004  0.1897206E+03  0.7818608E-02  0.1158714E+00
         -5   -1    0    0    0  501 -0.00000000000E+00  0.00000000000E+00  0.15362915579E+03  0.15370103288E+03  0.47000000000E+01 0.  1.
          5   -1    0    0  501    0  0.00000000000E+00 -0.00000000000E+00 -0.23415973413E+03  0.23420689803E+03  0.47000000000E+01 0. -1.
          6    1    1    2  502    0 -0.69505782763E+02 -0.39734605136E+02 -0.42022443737E+02  0.19431875478E+03  0.17200000000E+03 0. -1.
         -6    1    1    2    0  502  0.69505782763E+02  0.39734605136E+02 -0.38508134604E+02  0.19358917613E+03  0.17200000000E+03 0.  1.
</event>
<event>
 4    1 -0.3305908E-004  0.1885729E+03  0.7818608E-02  0.1159755E+00
         -5   -1    0    0    0  501 -0.00000000000E+00  0.00000000000E+00  0.14426009104E+03  0.14433663383E+03  0.47000000000E+01 0.  1.
          5   -1    0    0  501    0  0.00000000000E+00 -0.00000000000E+00 -0.25134971214E+03  0.25139365106E+03  0.47000000000E+01 0. -1.
          6    1    1    2  502    0 -0.72612923156E+01  0.76961193322E+02 -0.81491376721E+02  0.20542783678E+03  0.17200000000E+03 0.  1.
         -6    1    1    2    0  502  0.72612923156E+01 -0.76961193322E+02 -0.25598244381E+02  0.19030244812E+03  0.17200000000E+03 0.  1.
</event>
<event>
 4    1 -0.3305908E-004  0.2068499E+03  0.7818608E-02  0.1144085E+00
          5   -1    0    0  501    0  0.00000000000E+00  0.00000000000E+00  0.76381068789E+02  0.76525536060E+02  0.47000000000E+01 0. -1.
         -5   -1    0    0    0  501 -0.00000000000E+00 -0.00000000000E+00 -0.64456327185E+03  0.64458040726E+03  0.47000000000E+01 0.  1.
          6    1    1    2  502    0  0.79879072948E+02 -0.82596702311E+02 -0.15312148894E+03  0.25735786738E+03  0.17200000000E+03 0. -1.
         -6    1    1    2    0  502 -0.79879072948E+02  0.82596702311E+02 -0.41506071412E+03  0.46374807594E+03  0.17200000000E+03 0.  1.
</event>
<event>
 4    1 -0.3305908E-004  0.1890219E+03  0.7818608E-02  0.1159346E+00
          5   -1    0    0  501    0  0.00000000000E+00  0.00000000000E+00  0.41091157933E+03  0.41093845771E+03  0.47000000000E+01 0. -1.
         -5   -1    0    0    0  501 -0.00000000000E+00 -0.00000000000E+00 -0.89967815088E+02  0.90090497566E+02  0.47000000000E+01 0.  1.
          6    1    1    2  502    0 -0.52979193106E+02 -0.57779712585E+02  0.20700783491E+03  0.28032398007E+03  0.17200000000E+03 0.  1.
         -6    1    1    2    0  502  0.52979193106E+02  0.57779712585E+02  0.11393592933E+03  0.22070497521E+03  0.17200000000E+03 0.  1.
</event>
<event>
 4    1 -0.3305908E-004  0.2796904E+03  0.7818608E-02  0.1095858E+00
          5   -1    0    0  501    0  0.00000000000E+00  0.00000000000E+00  0.54683876609E+02  0.54885484064E+02  0.47000000000E+01 0. -1.
         -5   -1    0    0    0  501 -0.00000000000E+00 -0.00000000000E+00 -0.16674285989E+04  0.16674352228E+04  0.47000000000E+01 0.  1.
          6    1    1    2  502    0  0.19162333681E+02 -0.21971697135E+03 -0.47985738510E+03  0.55541862821E+03  0.17200000000E+03 0. -1.
         -6    1    1    2    0  502 -0.19162333681E+02  0.21971697135E+03 -0.11328873372E+04  0.11669020787E+04  0.17200000000E+03 0.  1.
</event>
<event>
 4    1 -0.3305908E-004  0.2531687E+03  0.7818608E-02  0.1111318E+00
         -5   -1    0    0    0  501 -0.00000000000E+00  0.00000000000E+00  0.18321508334E+04  0.18321568618E+04  0.47000000000E+01 0.  1.
          5   -1    0    0  501    0  0.00000000000E+00 -0.00000000000E+00 -0.45344974367E+02  0.45587900810E+02  0.47000000000E+01 0. -1.
          6    1    1    2  502    0 -0.22563872186E+02 -0.18439433871E+03  0.44247496603E+03  0.50978279300E+03  0.17200000000E+03 0. -1.
         -6    1    1    2    0  502  0.22563872186E+02  0.18439433871E+03  0.13443308930E+04  0.13679619696E+04  0.17200000000E+03 0.  1.
</event>
<event>
 4    1 -0.3305908E-004  0.2199215E+03  0.7818608E-02  0.1133942E+00
          5   -1    0    0  501    0  0.00000000000E+00  0.00000000000E+00  0.58368864469E+03  0.58370756714E+03  0.47000000000E+01 0. -1.
         -5   -1    0    0    0  501 -0.00000000000E+00 -0.00000000000E+00 -0.92358668054E+02  0.92478178857E+02  0.47000000000E+01 0.  1.
          6    1    1    2  502    0 -0.13333744101E+03  0.31664029900E+02  0.13684095167E+03  0.25901916921E+03  0.17200000000E+03 0.  1.
         -6    1    1    2    0  502  0.13333744101E+03 -0.31664029900E+02  0.35448902497E+03  0.41716657679E+03  0.17200000000E+03 0. -1.
</event>
<event>
 4    1 -0.3305908E-004  0.4522201E+03  0.7818608E-02  0.1027062E+00
          5   -1    0    0  501    0  0.00000000000E+00  0.00000000000E+00  0.26766604700E+03  0.26770730792E+03  0.47000000000E+01 0. -1.
         -5   -1    0    0    0  501 -0.00000000000E+00 -0.00000000000E+00 -0.92947666982E+03  0.92948855278E+03  0.47000000000E+01 0.  1.
          6    1    1    2  502    0  0.72127465055E+02  0.41196678740E+03 -0.58353383235E+03  0.73825113521E+03  0.17200000000E+03 0. -1.
         -6    1    1    2    0  502 -0.72127465055E+02 -0.41196678740E+03 -0.78276790470E+02  0.45894472549E+03  0.17200000000E+03 0.  1.
</event>
<event>
 4    1 -0.3305908E-004  0.1918088E+03  0.7818608E-02  0.1156840E+00
          5   -1    0    0  501    0  0.00000000000E+00  0.00000000000E+00  0.10500033137E+04  0.10500138327E+04  0.47000000000E+01 0. -1.
         -5   -1    0    0    0  501 -0.00000000000E+00 -0.00000000000E+00 -0.46476980255E+02  0.46714020311E+02  0.47000000000E+01 0.  1.
          6    1    1    2  502    0  0.52836358485E+02  0.66445084277E+02  0.77495625118E+03  0.79834066742E+03  0.17200000000E+03 0. -1.
         -6    1    1    2    0  502 -0.52836358485E+02 -0.66445084277E+02  0.22857008228E+03  0.29838718558E+03  0.17200000000E+03 0.  1.
</event>
<event>
 4    1 -0.3305908E-004  0.2789271E+03  0.7818608E-02  0.1096276E+00
          5   -1    0    0  501    0  0.00000000000E+00  0.00000000000E+00  0.28789855680E+03  0.28793691845E+03  0.47000000000E+01 0. -1.
         -5   -1    0    0    0  501 -0.00000000000E+00 -0.00000000000E+00 -0.38434446493E+03  0.38437320110E+03  0.47000000000E+01 0.  1.
          6    1    1    2  502    0 -0.21955398809E+03  0.35211224071E+01  0.13498502298E+03  0.30987305210E+03  0.17200000000E+03 0. -1.
         -6    1    1    2    0  502  0.21955398809E+03 -0.35211224071E+01 -0.23143093111E+03  0.36243706745E+03  0.17200000000E+03 0.  1.
</event>
<event>
 4    1 -0.3305908E-004  0.2279610E+03  0.7818608E-02  0.1128083E+00
         -5   -1    0    0    0  501 -0.00000000000E+00  0.00000000000E+00  0.33539909232E+03  0.33543202162E+03  0.47000000000E+01 0.  1.
          5   -1    0    0  501    0  0.00000000000E+00 -0.00000000000E+00 -0.18197554080E+03  0.18203622565E+03  0.47000000000E+01 0. -1.
          6    1    1    2  502    0  0.91962084181E+02  0.11800511845E+03 -0.23131722707E+02  0.22913164230E+03  0.17200000000E+03 0.  1.
         -6    1    1    2    0  502 -0.91962084181E+02 -0.11800511845E+03  0.17655527423E+03  0.28833660497E+03  0.17200000000E+03 0.  1.
</event>
<event>
 4    1 -0.3305908E-004  0.1949153E+03  0.7818608E-02  0.1154101E+00
          5   -1    0    0  501    0  0.00000000000E+00  0.00000000000E+00  0.49506544193E+03  0.49508775161E+03  0.47000000000E+01 0. -1.
         -5   -1    0    0    0  501 -0.00000000000E+00 -0.00000000000E+00 -0.10679571864E+03  0.10689909036E+03  0.47000000000E+01 0.  1.
          6    1    1    2  502    0  0.12335691756E+02 -0.90861388849E+02  0.35395457468E+03  0.40407400586E+03  0.17200000000E+03 0.  1.
         -6    1    1    2    0  502 -0.12335691756E+02  0.90861388849E+02  0.34315148612E+02  0.19791283611E+03  0.17200000000E+03 0.  1.
</event>
<event>
 4    1 -0.3305908E-004  0.2168970E+03  0.7818608E-02  0.1136218E+00
         -5   -1    0    0    0  501 -0.00000000000E+00  0.00000000000E+00  0.47849929088E+03  0.47852237291E+03  0.47000000000E+01 0.  1.
          5   -1    0    0  501    0  0.00000000000E+00 -0.00000000000E+00 -0.10024072356E+03  0.10035084782E+03  0.47000000000E+01 0. -1.
          6    1    1    2  502    0 -0.68839680232E+02 -0.11278913970E+03  0.14821167859E+03  0.26269943525E+03  0.17200000000E+03 0. -1.
         -6    1    1    2    0  502  0.68839680232E+02  0.11278913970E+03  0.23004688873E+03  0.31617378548E+03  0.17200000000E+03 0. -1.
</event>
<event>
 4    1 -0.3305908E-004  0.1725086E+03  0.7818608E-02  0.1175257E+00
         -5   -1    0    0    0  501 -0.00000000000E+00  0.00000000000E+00  0.48963906093E+03  0.48966161784E+03  0.47000000000E+01 0.  1.
          5   -1    0    0  501    0  0.00000000000E+00 -0.00000000000E+00 -0.64341591856E+02  0.64513025371E+02  0.47000000000E+01 0. -1.
          6    1    1    2  502    0 -0.86529909921E+01 -0.10016833205E+02  0.27880036677E+03  0.32785493089E+03  0.17200000000E+03 0.  1.
         -6    1    1    2    0  502  0.86529909921E+01  0.10016833205E+02  0.14649710230E+03  0.22631971232E+03  0.17200000000E+03 0. -1.
</event>
<event>
 4    1 -0.3305908E-004  0.2519333E+03  0.7818608E-02  0.1112089E+00
         -5   -1    0    0    0  501 -0.00000000000E+00  0.00000000000E+00  0.78629394038E+02  0.78769737887E+02  0.47000000000E+01 0.  1.
          5   -1    0    0  501    0  0.00000000000E+00 -0.00000000000E+00 -0.99748937482E+03  0.99750044755E+03  0.47000000000E+01 0. -1.
          6    1    1    2  502    0 -0.66111419456E+02 -0.17180117497E+03 -0.69498258870E+03  0.73923687820E+03  0.17200000000E+03 0. -1.
         -6    1    1    2    0  502  0.66111419456E+02  0.17180117497E+03 -0.22387739208E+03  0.33703330724E+03  0.17200000000E+03 0.  1.
</event>
<event>
 4    1 -0.3305908E-004  0.1790373E+03  0.7818608E-02  0.1168738E+00
         -5   -1    0    0    0  501 -0.00000000000E+00  0.00000000000E+00  0.12060750924E+03  0.12069905255E+03  0.47000000000E+01 0.  1.
          5   -1    0    0  501    0  0.00000000000E+00 -0.00000000000E+00 -0.31613661324E+03  0.31617154874E+03  0.47000000000E+01 0. -1.
          6    1    1    2  502    0  0.47495604444E+02 -0.14646452381E+02 -0.18511541409E+03  0.25753071184E+03  0.17200000000E+03 0. -1.
         -6    1    1    2    0  502 -0.47495604444E+02  0.14646452381E+02 -0.10413689909E+02  0.17933988945E+03  0.17200000000E+03 0. -1.
</event>
<event>
 4    1 -0.3305908E-004  0.2034716E+03  0.7818608E-02  0.1146843E+00
          5   -1    0    0  501    0  0.00000000000E+00  0.00000000000E+00  0.64081542640E+03  0.64083266202E+03  0.47000000000E+01 0. -1.
         -5   -1    0    0    0  501 -0.00000000000E+00 -0.00000000000E+00 -0.77521451453E+02  0.77663797457E+02  0.47000000000E+01 0.  1.
          6    1    1    2  502    0  0.90672953565E+02 -0.59959340346E+02  0.13459123553E+03  0.24395800393E+03  0.17200000000E+03 0. -1.
         -6    1    1    2    0  502 -0.90672953565E+02  0.59959340346E+02  0.42870273942E+03  0.47453845554E+03  0.17200000000E+03 0. -1.
</event>
<event>
 4    1 -0.3305908E-004  0.2841054E+03  0.7818608E-02  0.1093468E+00
         -5   -1    0    0    0  501 -0.00000000000E+00  0.00000000000E+00  0.30563131493E+03  0.30566745110E+03  0.47000000000E+01 0.  1.
          5   -1    0    0  501    0  0.00000000000E+00 -0.00000000000E+00 -0.33565013755E+03  0.33568304222E+03  0.47000000000E+01 0. -1.
          6    1    1    2  502    0  0.21139334838E+03 -0.80279211170E+02  0.13311045994E+03  0.31374240076E+03  0.17200000000E+03 0.  1.
         -6    1    1    2    0  502 -0.21139334838E+03  0.80279211170E+02 -0.16312928256E+03  0.32760809257E+03  0.17200000000E+03 0.  1.
</event>
<event>
 4    1 -0.3305908E-004  0.1771767E+03  0.7818608E-02  0.1170564E+00
          5   -1    0    0  501    0  0.00000000000E+00  0.00000000000E+00  0.24224680121E+02  0.24676408307E+02  0.47000000000E+01 0. -1.
         -5   -1    0    0    0  501 -0.00000000000E+00 -0.00000000000E+00 -0.13529869633E+04  0.13529951267E+04  0.47000000000E+01 0.  1.
          6    1    1    2  502    0 -0.17521760855E+02 -0.38737120025E+02 -0.82054580918E+03  0.83945637262E+03  0.17200000000E+03 0.  1.
         -6    1    1    2    0  502  0.17521760855E+02  0.38737120025E+02 -0.50821647397E+03  0.53821516236E+03  0.17200000000E+03 0.  1.
</event>
<event>
 4    1 -0.3305908E-004  0.1723457E+03  0.7818608E-02  0.1175424E+00
         -5   -1    0    0    0  501 -0.00000000000E+00  0.00000000000E+00  0.51707437488E+03  0.51709573500E+03  0.47000000000E+01 0.  1.
          5   -1    0    0  501    0  0.00000000000E+00 -0.00000000000E+00 -0.58512086702E+02  0.58700547614E+02  0.47000000000E+01 0. -1.
          6    1    1    2  502    0  0.69008982881E+01 -0.84505922700E+01  0.18836016375E+03  0.25530880556E+03  0.17200000000E+03 0. -1.
         -6    1    1    2    0  502 -0.69008982881E+01  0.84505922700E+01  0.27020212443E+03  0.32048747706E+03  0.17200000000E+03 0.  1.
</event>
<event>
 4    1 -0.3305908E-004  0.2968811E+03  0.7818608E-02  0.1086810E+00
          5   -1    0    0  501    0  0.00000000000E+00  0.00000000000E+00  0.61913586656E+03  0.61915370569E+03  0.47000000000E+01 0. -1.
         -5   -1    0    0    0  501 -0.00000000000E+00 -0.00000000000E+00 -0.14320914085E+03  0.14328624506E+03  0.47000000000E+01 0.  1.
          6    1    1    2  502    0  0.37238255552E+02  0.23909768500E+03  0.20757276730E+03  0.36224969893E+03  0.17200000000E+03 0. -1.
         -6    1    1    2    0  502 -0.37238255552E+02 -0.23909768500E+03  0.26835395842E+03  0.40019025182E+03  0.17200000000E+03 0.  1.
</event>
<event>
 4    1 -0.3305908E-004  0.4674014E+03  0.7818608E-02  0.1022656E+00
          5   -1    0    0  501    0  0.00000000000E+00  0.00000000000E+00  0.38347077428E+03  0.38349957591E+03  0.47000000000E+01 0. -1.
         -5   -1    0    0    0  501 -0.00000000000E+00 -0.00000000000E+00 -0.71592910728E+03  0.71594453462E+03  0.47000000000E+01 0.  1.
          6    1    1    2  502    0  0.43296936556E+03  0.37651577092E+02  0.82253913808E+02  0.47458383781E+03  0.17200000000E+03 0. -1.
         -6    1    1    2    0  502 -0.43296936556E+03 -0.37651577092E+02 -0.41471224681E+03  0.62486027272E+03  0.17200000000E+03 0.  1.
</event>
<event>
 4    1 -0.3305908E-004  0.3292017E+03  0.7818608E-02  0.1071491E+00
          5   -1    0    0  501    0  0.00000000000E+00  0.00000000000E+00  0.78087138461E+03  0.78088552894E+03  0.47000000000E+01 0. -1.
         -5   -1    0    0    0  501 -0.00000000000E+00 -0.00000000000E+00 -0.40847864677E+03  0.40850568523E+03  0.47000000000E+01 0.  1.
          6    1    1    2  502    0  0.94403419661E+02 -0.26434397795E+03  0.66942589562E+03  0.74599247586E+03  0.17200000000E+03 0. -1.
         -6    1    1    2    0  502 -0.94403419661E+02  0.26434397795E+03 -0.29703315777E+03  0.44339873831E+03  0.17200000000E+03 0.  1.
</event>
<event>
 4    1 -0.3305908E-004  0.2962653E+03  0.7818608E-02  0.1087123E+00
          5   -1    0    0  501    0  0.00000000000E+00  0.00000000000E+00  0.21797896500E+04  0.21797947170E+04  0.47000000000E+01 0. -1.
         -5   -1    0    0    0  501 -0.00000000000E+00 -0.00000000000E+00 -0.58664973375E+02  0.58852944711E+02  0.47000000000E+01 0.  1.
          6    1    1    2  502    0 -0.65895334926E+02  0.23204939712E+03  0.16885542136E+04  0.17143478206E+04  0.17200000000E+03 0. -1.
         -6    1    1    2    0  502  0.65895334926E+02 -0.23204939712E+03  0.43257046308E+03  0.52429984112E+03  0.17200000000E+03 0.  1.
</event>
<event>
 4    1 -0.3305908E-004  0.2739067E+03  0.7818608E-02  0.1099064E+00
         -5   -1    0    0    0  501 -0.00000000000E+00  0.00000000000E+00  0.78730875165E+02  0.78871038438E+02  0.47000000000E+01 0.  1.
          5   -1    0    0  501    0  0.00000000000E+00 -0.00000000000E+00 -0.11690834080E+04  0.11690928556E+04  0.47000000000E+01 0. -1.
          6    1    1    2  502    0 -0.10849225928E+03  0.18349478774E+03 -0.27627093794E+03  0.38903796551E+03  0.17200000000E+03 0. -1.
         -6    1    1    2    0  502  0.10849225928E+03 -0.18349478774E+03 -0.81408159492E+03  0.85892592849E+03  0.17200000000E+03 0.  1.
</event>
<event>
 4    1 -0.3305908E-004  0.1990965E+03  0.7818608E-02  0.1150504E+00
          5   -1    0    0  501    0  0.00000000000E+00  0.00000000000E+00  0.54897447010E+02  0.55098273005E+02  0.47000000000E+01 0. -1.
         -5   -1    0    0    0  501 -0.00000000000E+00 -0.00000000000E+00 -0.80630537142E+03  0.80631906959E+03  0.47000000000E+01 0.  1.
          6    1    1    2  502    0 -0.61228853067E+02  0.79413210004E+02 -0.23524779684E+03  0.30818980562E+03  0.17200000000E+03 0. -1.
         -6    1    1    2    0  502  0.61228853067E+02 -0.79413210004E+02 -0.51616012757E+03  0.55322753697E+03  0.17200000000E+03 0.  1.
</event>
<event>
 4    1 -0.3305908E-004  0.2577393E+03  0.7818608E-02  0.1108509E+00
          5   -1    0    0  501    0  0.00000000000E+00  0.00000000000E+00  0.23534212102E+03  0.23538904802E+03  0.47000000000E+01 0. -1.
         -5   -1    0    0    0  501 -0.00000000000E+00 -0.00000000000E+00 -0.28254172958E+03  0.28258081844E+03  0.47000000000E+01 0.  1.
          6    1    1    2  502    0  0.15167969700E+03 -0.11763851474E+03 -0.32949678569E+02  0.25983693339E+03  0.17200000000E+03 0. -1.
         -6    1    1    2    0  502 -0.15167969700E+03  0.11763851474E+03 -0.14249929988E+02  0.25813293308E+03  0.17200000000E+03 0.  1.
</event>
<event>
 4    1 -0.3305908E-004  0.2714587E+03  0.7818608E-02  0.1100448E+00
          5   -1    0    0  501    0  0.00000000000E+00  0.00000000000E+00  0.64015836606E+03  0.64017561938E+03  0.47000000000E+01 0. -1.
         -5   -1    0    0    0  501 -0.00000000000E+00 -0.00000000000E+00 -0.27827376319E+03  0.27831345149E+03  0.47000000000E+01 0.  1.
          6    1    1    2  502    0 -0.19006400170E+03 -0.89339270201E+02  0.53261585636E+03  0.59780388121E+03  0.17200000000E+03 0. -1.
         -6    1    1    2    0  502  0.19006400170E+03  0.89339270201E+02 -0.17073125349E+03  0.32068518965E+03  0.17200000000E+03 0.  1.
</event>
<event>
 4    1 -0.3305908E-004  0.2131540E+03  0.7818608E-02  0.1139092E+00
         -5   -1    0    0    0  501 -0.00000000000E+00  0.00000000000E+00  0.20495901351E+03  0.20501289525E+03  0.47000000000E+01 0.  1.
          5   -1    0    0  501    0  0.00000000000E+00 -0.00000000000E+00 -0.24931478580E+03  0.24935908328E+03  0.47000000000E+01 0. -1.
          6    1    1    2  502    0 -0.76892907507E+02 -0.99690050769E+02 -0.97951932626E+02  0.23458304831E+03  0.17200000000E+03 0. -1.
         -6    1    1    2    0  502  0.76892907507E+02  0.99690050769E+02  0.53596160340E+02  0.21978893023E+03  0.17200000000E+03 0.  1.
</event>
<event>
 4    1 -0.3305908E-004  0.1224894E+04  0.7818608E-02  0.9091341E-01
          5   -1    0    0  501    0  0.00000000000E+00  0.00000000000E+00  0.14104153968E+04  0.14104232278E+04  0.47000000000E+01 0. -1.
         -5   -1    0    0    0  501 -0.00000000000E+00 -0.00000000000E+00 -0.11274476008E+04  0.11274573972E+04  0.47000000000E+01 0.  1.
          6    1    1    2  502    0  0.57768534362E+03 -0.10663311672E+04  0.44307310574E+03  0.13025668088E+04  0.17200000000E+03 0. -1.
         -6    1    1    2    0  502 -0.57768534362E+03  0.10663311672E+04 -0.16010530973E+03  0.12353138163E+04  0.17200000000E+03 0.  1.
</event>
<event>
 4    1 -0.3305908E-004  0.2184257E+03  0.7818608E-02  0.1135062E+00
          5   -1    0    0  501    0  0.00000000000E+00  0.00000000000E+00  0.20144511212E+03  0.20149993349E+03  0.47000000000E+01 0. -1.
         -5   -1    0    0    0  501 -0.00000000000E+00 -0.00000000000E+00 -0.27652053819E+03  0.27656047809E+03  0.47000000000E+01 0.  1.
          6    1    1    2  502    0 -0.12466512553E+03 -0.50836842339E+02 -0.12819799194E+03  0.25326765131E+03  0.17200000000E+03 0.  1.
         -6    1    1    2    0  502  0.12466512553E+03  0.50836842339E+02  0.53122565866E+02  0.22479276026E+03  0.17200000000E+03 0. -1.
</event>
<event>
 4    1 -0.3305908E-004  0.2415616E+03  0.7818608E-02  0.1118757E+00
          5   -1    0    0  501    0  0.00000000000E+00  0.00000000000E+00  0.12223363612E+03  0.12232396249E+03  0.47000000000E+01 0. -1.
         -5   -1    0    0    0  501 -0.00000000000E+00 -0.00000000000E+00 -0.51219880076E+03  0.51222036420E+03  0.47000000000E+01 0.  1.
          6    1    1    2  502    0  0.10208856421E+03  0.13544713100E+03 -0.27802398083E+03  0.36830603329E+03  0.17200000000E+03 0. -1.
         -6    1    1    2    0  502 -0.10208856421E+03 -0.13544713100E+03 -0.11194118381E+03  0.26623829340E+03  0.17200000000E+03 0. -1.
</event>
<event>
 4    1 -0.3305908E-004  0.2505394E+03  0.7818608E-02  0.1112964E+00
          5   -1    0    0  501    0  0.00000000000E+00  0.00000000000E+00  0.34547852394E+02  0.34866088181E+02  0.47000000000E+01 0. -1.
         -5   -1    0    0    0  501 -0.00000000000E+00 -0.00000000000E+00 -0.18132380708E+04  0.18132441621E+04  0.47000000000E+01 0.  1.
          6    1    1    2  502    0 -0.14279931315E+03 -0.11311218846E+03 -0.84088076097E+03  0.87741122923E+03  0.17200000000E+03 0. -1.
         -6    1    1    2    0  502  0.14279931315E+03  0.11311218846E+03 -0.93780945748E+03  0.97069902109E+03  0.17200000000E+03 0.  1.
</event>
<event>
 4    1 -0.3305908E-004  0.3297233E+03  0.7818608E-02  0.1071259E+00
         -5   -1    0    0    0  501 -0.00000000000E+00  0.00000000000E+00  0.93286840275E+02  0.93405163500E+02  0.47000000000E+01 0.  1.
          5   -1    0    0  501    0  0.00000000000E+00 -0.00000000000E+00 -0.12355904679E+04  0.12355994069E+04  0.47000000000E+01 0. -1.
          6    1    1    2  502    0 -0.20880112426E+03 -0.18850876446E+03 -0.73048026018E+03  0.80144798601E+03  0.17200000000E+03 0. -1.
         -6    1    1    2    0  502  0.20880112426E+03  0.18850876446E+03 -0.41182336743E+03  0.52755658439E+03  0.17200000000E+03 0.  1.
</event>
<event>
 4    1 -0.3305908E-004  0.1925486E+03  0.7818608E-02  0.1156183E+00
         -5   -1    0    0    0  501 -0.00000000000E+00  0.00000000000E+00  0.46094637296E+03  0.46097033391E+03  0.47000000000E+01 0.  1.
          5   -1    0    0  501    0  0.00000000000E+00 -0.00000000000E+00 -0.86576026136E+02  0.86703508012E+02  0.47000000000E+01 0. -1.
          6    1    1    2  502    0 -0.45404906592E+02  0.73684108403E+02  0.26062671439E+03  0.32403894461E+03  0.17200000000E+03 0.  1.
         -6    1    1    2    0  502  0.45404906592E+02 -0.73684108403E+02  0.11374363243E+03  0.22363489731E+03  0.17200000000E+03 0. -1.
</event>
<event>
 4    1 -0.3305908E-004  0.2047060E+03  0.7818608E-02  0.1145828E+00
          5   -1    0    0  501    0  0.00000000000E+00  0.00000000000E+00  0.33883748835E+03  0.33887008353E+03  0.47000000000E+01 0. -1.
         -5   -1    0    0    0  501 -0.00000000000E+00 -0.00000000000E+00 -0.12674727514E+03  0.12683438712E+03  0.47000000000E+01 0.  1.
          6    1    1    2  502    0 -0.63607440468E+02 -0.90965060177E+02  0.14278827244E+03  0.24958573558E+03  0.17200000000E+03 0. -1.
         -6    1    1    2    0  502  0.63607440468E+02  0.90965060177E+02  0.69301940760E+02  0.21611873507E+03  0.17200000000E+03 0.  1.
</event>
<event>
 4    1 -0.3305908E-004  0.1840103E+03  0.7818608E-02  0.1163977E+00
         -5   -1    0    0    0  501 -0.00000000000E+00  0.00000000000E+00  0.84587934685E+02  0.84718408238E+02  0.47000000000E+01 0.  1.
          5   -1    0    0  501    0  0.00000000000E+00 -0.00000000000E+00 -0.75529155666E+03  0.75530618001E+03  0.47000000000E+01 0. -1.
          6    1    1    2  502    0  0.59673797619E+02  0.26736509242E+02 -0.47245816103E+02  0.18997886774E+03  0.17200000000E+03 0.  1.
         -6    1    1    2    0  502 -0.59673797619E+02 -0.26736509242E+02 -0.62345780587E+03  0.65004572051E+03  0.17200000000E+03 0. -1.
</event>
<event>
 4    1 -0.3305908E-004  0.1876435E+03  0.7818608E-02  0.1160604E+00
          5   -1    0    0  501    0  0.00000000000E+00  0.00000000000E+00  0.78311054577E+02  0.78451967910E+02  0.47000000000E+01 0. -1.
         -5   -1    0    0    0  501 -0.00000000000E+00 -0.00000000000E+00 -0.48679880963E+03  0.48682149815E+03  0.47000000000E+01 0.  1.
          6    1    1    2  502    0 -0.34549539885E+02 -0.66576492901E+02 -0.12556321277E+03  0.22577914101E+03  0.17200000000E+03 0. -1.
         -6    1    1    2    0  502  0.34549539885E+02  0.66576492901E+02 -0.28292454229E+03  0.33949432505E+03  0.17200000000E+03 0.  1.
</event>
<event>
 4    1 -0.3305908E-004  0.2024709E+03  0.7818608E-02  0.1147671E+00
          5   -1    0    0  501    0  0.00000000000E+00  0.00000000000E+00  0.36720027735E+03  0.36723035507E+03  0.47000000000E+01 0. -1.
         -5   -1    0    0    0  501 -0.00000000000E+00 -0.00000000000E+00 -0.15385058445E+03  0.15392235814E+03  0.47000000000E+01 0.  1.
          6    1    1    2  502    0  0.15452818090E+02 -0.10569615421E+03 -0.29897388841E+02  0.20466636378E+03  0.17200000000E+03 0.  1.
         -6    1    1    2    0  502 -0.15452818090E+02  0.10569615421E+03  0.24324708174E+03  0.31648634943E+03  0.17200000000E+03 0. -1.
</event>
<event>
 4    1 -0.3305908E-004  0.1868438E+03  0.7818608E-02  0.1161339E+00
         -5   -1    0    0    0  501 -0.00000000000E+00  0.00000000000E+00  0.28555027375E+03  0.28558895083E+03  0.47000000000E+01 0.  1.
          5   -1    0    0  501    0  0.00000000000E+00 -0.00000000000E+00 -0.12249301271E+03  0.12258314795E+03  0.47000000000E+01 0. -1.
          6    1    1    2  502    0 -0.70909413236E+02 -0.17275916581E+02  0.70975497917E+02  0.19987026663E+03  0.17200000000E+03 0. -1.
         -6    1    1    2    0  502  0.70909413236E+02  0.17275916581E+02  0.92081763123E+02  0.20830183215E+03  0.17200000000E+03 0. -1.
</event>
<event>
 4    1 -0.3305908E-004  0.2949456E+03  0.7818608E-02  0.1087795E+00
         -5   -1    0    0    0  501 -0.00000000000E+00  0.00000000000E+00  0.12185301260E+03  0.12194362091E+03  0.47000000000E+01 0.  1.
          5   -1    0    0  501    0  0.00000000000E+00 -0.00000000000E+00 -0.15178701084E+04  0.15178773850E+04  0.47000000000E+01 0. -1.
          6    1    1    2  502    0  0.18252273778E+03 -0.15522364186E+03 -0.12948351068E+04  0.13280025913E+04  0.17200000000E+03 0. -1.
         -6    1    1    2    0  502 -0.18252273778E+03  0.15522364186E+03 -0.10118198903E+03  0.31181841463E+03  0.17200000000E+03 0.  1.
</event>
<event>
 4    1 -0.3305908E-004  0.1766180E+03  0.7818608E-02  0.1171117E+00
          5   -1    0    0  501    0  0.00000000000E+00  0.00000000000E+00  0.29043978770E+03  0.29047781374E+03  0.47000000000E+01 0. -1.
         -5   -1    0    0    0  501 -0.00000000000E+00 -0.00000000000E+00 -0.23391673573E+03  0.23396394862E+03  0.47000000000E+01 0.  1.
          6    1    1    2  502    0 -0.67778214453E+01 -0.39547389987E+02  0.22113259249E+03  0.28300805356E+03  0.17200000000E+03 0. -1.
         -6    1    1    2    0  502  0.67778214453E+01  0.39547389987E+02 -0.16460954052E+03  0.24143370881E+03  0.17200000000E+03 0.  1.
</event>
<event>
 4    1 -0.3305908E-004  0.1982398E+03  0.7818608E-02  0.1151233E+00
          5   -1    0    0  501    0  0.00000000000E+00  0.00000000000E+00  0.34804842143E+03  0.34808015407E+03  0.47000000000E+01 0. -1.
         -5   -1    0    0    0  501 -0.00000000000E+00 -0.00000000000E+00 -0.11512155927E+03  0.11521746139E+03  0.47000000000E+01 0.  1.
          6    1    1    2  502    0 -0.53428987061E+02  0.82827415853E+02  0.14915099251E+03  0.24808276047E+03  0.17200000000E+03 0. -1.
         -6    1    1    2    0  502  0.53428987061E+02 -0.82827415853E+02  0.83775869645E+02  0.21521485499E+03  0.17200000000E+03 0.  1.
</event>
<event>
 4    1 -0.3305908E-004  0.2224152E+03  0.7818608E-02  0.1132095E+00
         -5   -1    0    0    0  501 -0.00000000000E+00  0.00000000000E+00  0.80120297111E+03  0.80121675651E+03  0.47000000000E+01 0.  1.
          5   -1    0    0  501    0  0.00000000000E+00 -0.00000000000E+00 -0.65985478449E+02  0.66152651997E+02  0.47000000000E+01 0. -1.
          6    1    1    2  502    0 -0.34201040561E+02  0.13680201501E+03  0.47875747397E+03  0.52789887419E+03  0.17200000000E+03 0.  1.
         -6    1    1    2    0  502  0.34201040561E+02 -0.13680201501E+03  0.25646001868E+03  0.33947053432E+03  0.17200000000E+03 0.  1.
</event>
<event>
 4    1 -0.3305908E-004  0.4823308E+03  0.7818608E-02  0.1018497E+00
          5   -1    0    0  501    0  0.00000000000E+00  0.00000000000E+00  0.49085419594E+03  0.49087669701E+03  0.47000000000E+01 0. -1.
         -5   -1    0    0    0  501 -0.00000000000E+00 -0.00000000000E+00 -0.54316636962E+03  0.54318670371E+03  0.47000000000E+01 0.  1.
          6    1    1    2  502    0  0.42990321516E+03  0.13506366554E+03  0.15845673484E+03  0.50769233298E+03  0.17200000000E+03 0. -1.
         -6    1    1    2    0  502 -0.42990321516E+03 -0.13506366554E+03 -0.21076890852E+03  0.52637106774E+03  0.17200000000E+03 0.  1.
</event>
<event>
 4    1 -0.3305908E-004  0.2082656E+03  0.7818608E-02  0.1142947E+00
         -5   -1    0    0    0  501 -0.00000000000E+00  0.00000000000E+00  0.76175317033E+03  0.76176766964E+03  0.47000000000E+01 0.  1.
          5   -1    0    0  501    0  0.00000000000E+00 -0.00000000000E+00 -0.59399481167E+02  0.59585135419E+02  0.47000000000E+01 0. -1.
          6    1    1    2  502    0 -0.29108846454E+02  0.11376831601E+03  0.26588206681E+03  0.33773929016E+03  0.17200000000E+03 0. -1.
         -6    1    1    2    0  502  0.29108846454E+02 -0.11376831601E+03  0.43647162235E+03  0.48361351489E+03  0.17200000000E+03 0.  1.
</event>
<event>
 4    1 -0.3305908E-004  0.1921406E+03  0.7818608E-02  0.1156545E+00
         -5   -1    0    0    0  501 -0.00000000000E+00  0.00000000000E+00  0.10031445047E+03  0.10042449389E+03  0.47000000000E+01 0.  1.
          5   -1    0    0  501    0  0.00000000000E+00 -0.00000000000E+00 -0.48449972825E+03  0.48452252442E+03  0.47000000000E+01 0. -1.
          6    1    1    2  502    0  0.40515074408E+02 -0.75448911496E+02 -0.33567692327E+03  0.38677772211E+03  0.17200000000E+03 0. -1.
         -6    1    1    2    0  502 -0.40515074408E+02  0.75448911496E+02 -0.48508354508E+02  0.19816929620E+03  0.17200000000E+03 0.  1.
</event>
<event>
 4    1 -0.3305908E-004  0.4070622E+03  0.7818608E-02  0.1041361E+00
         -5   -1    0    0    0  501 -0.00000000000E+00  0.00000000000E+00  0.19607377671E+03  0.19613009946E+03  0.47000000000E+01 0.  1.
          5   -1    0    0  501    0  0.00000000000E+00 -0.00000000000E+00 -0.85396631928E+03  0.85397925295E+03  0.47000000000E+01 0. -1.
          6    1    1    2  502    0 -0.19991262304E+03  0.31008158208E+03 -0.27486018799E+03  0.49116979481E+03  0.17200000000E+03 0. -1.
         -6    1    1    2    0  502  0.19991262304E+03 -0.31008158208E+03 -0.38303235458E+03  0.55893955760E+03  0.17200000000E+03 0.  1.
</event>
<event>
 4    1 -0.3305908E-004  0.1837663E+03  0.7818608E-02  0.1164207E+00
          5   -1    0    0  501    0  0.00000000000E+00  0.00000000000E+00  0.15635541011E+04  0.15635611651E+04  0.47000000000E+01 0. -1.
         -5   -1    0    0    0  501 -0.00000000000E+00 -0.00000000000E+00 -0.23200103278E+02  0.23671391849E+02  0.47000000000E+01 0.  1.
          6    1    1    2  502    0 -0.48735946457E+02  0.42554003416E+02  0.54756024296E+03  0.57757445871E+03  0.17200000000E+03 0.  1.
         -6    1    1    2    0  502  0.48735946457E+02 -0.42554003416E+02  0.99279375488E+03  0.10096580983E+04  0.17200000000E+03 0. -1.
</event>
<event>
 4    1 -0.3305908E-004  0.1869078E+03  0.7818608E-02  0.1161280E+00
         -5   -1    0    0    0  501 -0.00000000000E+00  0.00000000000E+00  0.41702505496E+03  0.41705153934E+03  0.47000000000E+01 0.  1.
          5   -1    0    0  501    0  0.00000000000E+00 -0.00000000000E+00 -0.15120673161E+03  0.15127975966E+03  0.47000000000E+01 0. -1.
          6    1    1    2  502    0  0.55470792206E+02  0.47681259838E+02 -0.56915507596E+02  0.19538138686E+03  0.17200000000E+03 0. -1.
         -6    1    1    2    0  502 -0.55470792206E+02 -0.47681259838E+02  0.32273383095E+03  0.37294991214E+03  0.17200000000E+03 0.  1.
</event>
<event>
 4    1 -0.3305908E-004  0.2332010E+03  0.7818608E-02  0.1124407E+00
          5   -1    0    0  501    0  0.00000000000E+00  0.00000000000E+00  0.39025138595E+03  0.39027968720E+03  0.47000000000E+01 0. -1.
         -5   -1    0    0    0  501 -0.00000000000E+00 -0.00000000000E+00 -0.15360583153E+03  0.15367771954E+03  0.47000000000E+01 0.  1.
          6    1    1    2  502    0  0.10966320306E+03  0.11301628843E+03  0.35291038346E+02  0.23585622092E+03  0.17200000000E+03 0.  1.
         -6    1    1    2    0  502 -0.10966320306E+03 -0.11301628843E+03  0.20135451607E+03  0.30810118581E+03  0.17200000000E+03 0.  1.
</event>
<event>
 4    1 -0.3305908E-004  0.1935898E+03  0.7818608E-02  0.1155263E+00
         -5   -1    0    0    0  501 -0.00000000000E+00  0.00000000000E+00  0.53131414706E+03  0.53133493473E+03  0.47000000000E+01 0.  1.
          5   -1    0    0  501    0  0.00000000000E+00 -0.00000000000E+00 -0.89402660474E+02  0.89526117417E+02  0.47000000000E+01 0. -1.
          6    1    1    2  502    0 -0.76617538264E+01  0.88511664875E+02  0.36381047605E+03  0.41211051888E+03  0.17200000000E+03 0. -1.
         -6    1    1    2    0  502  0.76617538264E+01 -0.88511664875E+02  0.78101010531E+02  0.20875053326E+03  0.17200000000E+03 0. -1.
</event>
<event>
 4    1 -0.3305908E-004  0.1933817E+03  0.7818608E-02  0.1155446E+00
         -5   -1    0    0    0  501 -0.00000000000E+00  0.00000000000E+00  0.24420456891E+03  0.24424979320E+03  0.47000000000E+01 0.  1.
          5   -1    0    0  501    0  0.00000000000E+00 -0.00000000000E+00 -0.16791286483E+03  0.16797863012E+03  0.47000000000E+01 0. -1.
          6    1    1    2  502    0  0.77345139554E+02 -0.42781046506E+02 -0.23175174113E+02  0.19476544162E+03  0.17200000000E+03 0. -1.
         -6    1    1    2    0  502 -0.77345139554E+02  0.42781046506E+02  0.99466878193E+02  0.21746298170E+03  0.17200000000E+03 0.  1.
</event>
<event>
 4    1 -0.3305908E-004  0.1892413E+03  0.7818608E-02  0.1159147E+00
          5   -1    0    0  501    0  0.00000000000E+00  0.00000000000E+00  0.55884455609E+02  0.56081747287E+02  0.47000000000E+01 0. -1.
         -5   -1    0    0    0  501 -0.00000000000E+00 -0.00000000000E+00 -0.76831806239E+03  0.76833243781E+03  0.47000000000E+01 0.  1.
          6    1    1    2  502    0 -0.76198715865E+02  0.20543103484E+02 -0.18745004204E+03  0.26636400219E+03  0.17200000000E+03 0. -1.
         -6    1    1    2    0  502  0.76198715865E+02 -0.20543103484E+02 -0.52498356474E+03  0.55805018291E+03  0.17200000000E+03 0.  1.
</event>
<event>
 4    1 -0.3305908E-004  0.2388248E+03  0.7818608E-02  0.1120578E+00
          5   -1    0    0  501    0  0.00000000000E+00  0.00000000000E+00  0.26436294517E+03  0.26440472155E+03  0.47000000000E+01 0. -1.
         -5   -1    0    0    0  501 -0.00000000000E+00 -0.00000000000E+00 -0.23386674820E+03  0.23391397118E+03  0.47000000000E+01 0.  1.
          6    1    1    2  502    0  0.16568983827E+03  0.41376507453E+00  0.84736702380E+02  0.25341192244E+03  0.17200000000E+03 0. -1.
         -6    1    1    2    0  502 -0.16568983827E+03 -0.41376507453E+00 -0.54240505410E+02  0.24490677029E+03  0.17200000000E+03 0. -1.
</event>
<event>
 4    1 -0.3305908E-004  0.2192616E+03  0.7818608E-02  0.1134435E+00
         -5   -1    0    0    0  501 -0.00000000000E+00  0.00000000000E+00  0.47468105785E+03  0.47470432553E+03  0.47000000000E+01 0.  1.
          5   -1    0    0  501    0  0.00000000000E+00 -0.00000000000E+00 -0.10970213950E+03  0.10980277506E+03  0.47000000000E+01 0. -1.
          6    1    1    2  502    0 -0.87477151418E+02 -0.10411249405E+03  0.10117417950E+03  0.24147852500E+03  0.17200000000E+03 0. -1.
         -6    1    1    2    0  502  0.87477151418E+02  0.10411249405E+03  0.26380473885E+03  0.34302857560E+03  0.17200000000E+03 0.  1.
</event>
<event>
 4    1 -0.3305908E-004  0.1876911E+03  0.7818608E-02  0.1160560E+00
          5   -1    0    0  501    0  0.00000000000E+00  0.00000000000E+00  0.11207555969E+03  0.11217406598E+03  0.47000000000E+01 0. -1.
         -5   -1    0    0    0  501 -0.00000000000E+00 -0.00000000000E+00 -0.38209547327E+03  0.38212437857E+03  0.47000000000E+01 0.  1.
          6    1    1    2  502    0  0.59977678490E+02 -0.45239470522E+02 -0.30744972906E+02  0.19019249451E+03  0.17200000000E+03 0. -1.
         -6    1    1    2    0  502 -0.59977678490E+02  0.45239470522E+02 -0.23927494068E+03  0.30410595004E+03  0.17200000000E+03 0.  1.
</event>
<event>
 4    1 -0.3305908E-004  0.2065903E+03  0.7818608E-02  0.1144295E+00
          5   -1    0    0  501    0  0.00000000000E+00  0.00000000000E+00  0.20988667996E+04  0.20988720619E+04  0.47000000000E+01 0. -1.
         -5   -1    0    0    0  501 -0.00000000000E+00 -0.00000000000E+00 -0.22477378917E+02  0.22963505024E+02  0.47000000000E+01 0.  1.
          6    1    1    2  502    0 -0.11417525583E+03  0.77173292660E+01  0.13823288120E+04  0.13976811119E+04  0.17200000000E+03 0.  1.
         -6    1    1    2    0  502  0.11417525583E+03 -0.77173292660E+01  0.69406060869E+03  0.72415445503E+03  0.17200000000E+03 0. -1.
</event>
<event>
 4    1 -0.3305908E-004  0.2284545E+03  0.7818608E-02  0.1127732E+00
         -5   -1    0    0    0  501 -0.00000000000E+00  0.00000000000E+00  0.12470033401E+03  0.12478887491E+03  0.47000000000E+01 0.  1.
          5   -1    0    0  501    0  0.00000000000E+00 -0.00000000000E+00 -0.52804756861E+03  0.52806848487E+03  0.47000000000E+01 0. -1.
          6    1    1    2  502    0  0.64502775365E+02  0.13581922326E+03 -0.35048395166E+03  0.41836643007E+03  0.17200000000E+03 0. -1.
         -6    1    1    2    0  502 -0.64502775365E+02 -0.13581922326E+03 -0.52863282944E+02  0.23449092972E+03  0.17200000000E+03 0.  1.
</event>
<event>
 4    1 -0.3305908E-004  0.2022231E+03  0.7818608E-02  0.1147877E+00
         -5   -1    0    0    0  501 -0.00000000000E+00  0.00000000000E+00  0.47308602142E+03  0.47310936755E+03  0.47000000000E+01 0.  1.
          5   -1    0    0  501    0  0.00000000000E+00 -0.00000000000E+00 -0.11677331011E+03  0.11686785680E+03  0.47000000000E+01 0. -1.
          6    1    1    2  502    0 -0.90126936165E+02 -0.56456290719E+02  0.27678398806E+02  0.20410847887E+03  0.17200000000E+03 0. -1.
         -6    1    1    2    0  502  0.90126936165E+02  0.56456290719E+02  0.32863431251E+03  0.38586874549E+03  0.17200000000E+03 0. -1.
</event>
<event>
 4    1 -0.3305908E-004  0.1988174E+03  0.7818608E-02  0.1150741E+00
         -5   -1    0    0    0  501 -0.00000000000E+00  0.00000000000E+00  0.89362636640E+02  0.89486148801E+02  0.47000000000E+01 0.  1.
          5   -1    0    0  501    0  0.00000000000E+00 -0.00000000000E+00 -0.44429183157E+03  0.44431669066E+03  0.47000000000E+01 0. -1.
          6    1    1    2  502    0  0.98582072085E+02  0.15031153325E+02 -0.15786452480E+03  0.25386919604E+03  0.17200000000E+03 0. -1.
         -6    1    1    2    0  502 -0.98582072085E+02 -0.15031153325E+02 -0.19706467013E+03  0.27993364342E+03  0.17200000000E+03 0. -1.
</event>
<event>
 4    1 -0.3305908E-004  0.2587028E+03  0.7818608E-02  0.1107925E+00
          5   -1    0    0  501    0  0.00000000000E+00  0.00000000000E+00  0.30765778299E+03  0.30769368118E+03  0.47000000000E+01 0. -1.
         -5   -1    0    0    0  501 -0.00000000000E+00 -0.00000000000E+00 -0.23589269444E+03  0.23593951193E+03  0.47000000000E+01 0.  1.
          6    1    1    2  502    0  0.12970161431E+03  0.14325014557E+03  0.11184402587E+03  0.28184428162E+03  0.17200000000E+03 0.  1.
         -6    1    1    2    0  502 -0.12970161431E+03 -0.14325014557E+03 -0.40078937320E+02  0.26178891149E+03  0.17200000000E+03 0.  1.
</event>
<event>
 4    1 -0.3305908E-004  0.1792026E+03  0.7818608E-02  0.1168577E+00
          5   -1    0    0  501    0  0.00000000000E+00  0.00000000000E+00  0.14907234499E+03  0.14914641813E+03  0.47000000000E+01 0. -1.
         -5   -1    0    0    0  501 -0.00000000000E+00 -0.00000000000E+00 -0.22379391932E+03  0.22384326732E+03  0.47000000000E+01 0.  1.
          6    1    1    2  502    0  0.10392162540E+02  0.49209659696E+02 -0.73748256374E+02  0.19378439815E+03  0.17200000000E+03 0.  1.
         -6    1    1    2    0  502 -0.10392162540E+02 -0.49209659696E+02 -0.97331795666E+00  0.17920528730E+03  0.17200000000E+03 0. -1.
</event>
<event>
 4    1 -0.3305908E-004  0.2770700E+03  0.7818608E-02  0.1097300E+00
          5   -1    0    0  501    0  0.00000000000E+00  0.00000000000E+00  0.36731228871E+03  0.36734235726E+03  0.47000000000E+01 0. -1.
         -5   -1    0    0    0  501 -0.00000000000E+00 -0.00000000000E+00 -0.28545641045E+03  0.28549510025E+03  0.47000000000E+01 0.  1.
          6    1    1    2  502    0 -0.15084552993E+03 -0.15629906190E+03  0.20991091586E+03  0.34760662141E+03  0.17200000000E+03 0. -1.
         -6    1    1    2    0  502  0.15084552993E+03  0.15629906190E+03 -0.12805503761E+03  0.30523083610E+03  0.17200000000E+03 0.  1.
</event>
<event>
 4    1 -0.3305908E-004  0.2528625E+03  0.7818608E-02  0.1111509E+00
          5   -1    0    0  501    0  0.00000000000E+00  0.00000000000E+00  0.14960558956E+03  0.14967939880E+03  0.47000000000E+01 0. -1.
         -5   -1    0    0    0  501 -0.00000000000E+00 -0.00000000000E+00 -0.44923380484E+03  0.44925839047E+03  0.47000000000E+01 0.  1.
          6    1    1    2  502    0 -0.53378967988E+02  0.17749972230E+03 -0.83491092342E+02  0.26628974471E+03  0.17200000000E+03 0. -1.
         -6    1    1    2    0  502  0.53378967988E+02 -0.17749972230E+03 -0.21613712294E+03  0.33264804456E+03  0.17200000000E+03 0.  1.
</event>
<event>
 4    1 -0.3305908E-004  0.2324961E+03  0.7818608E-02  0.1124895E+00
         -5   -1    0    0    0  501 -0.00000000000E+00  0.00000000000E+00  0.19264249144E+03  0.19269981709E+03  0.47000000000E+01 0.  1.
          5   -1    0    0  501    0  0.00000000000E+00 -0.00000000000E+00 -0.40696871744E+03  0.40699585621E+03  0.47000000000E+01 0. -1.
          6    1    1    2  502    0  0.15266669516E+03  0.34107632083E+02 -0.27431259799E+03  0.35958566684E+03  0.17200000000E+03 0. -1.
         -6    1    1    2    0  502 -0.15266669516E+03 -0.34107632083E+02  0.59986371998E+02  0.24011000646E+03  0.17200000000E+03 0.  1.
</event>
<event>
 4    1 -0.3305908E-004  0.1756926E+03  0.7818608E-02  0.1172038E+00
         -5   -1    0    0    0  501 -0.00000000000E+00  0.00000000000E+00  0.48156000911E+03  0.48158294444E+03  0.47000000000E+01 0.  1.
          5   -1    0    0  501    0  0.00000000000E+00 -0.00000000000E+00 -0.83090543000E+02  0.83223364123E+02  0.47000000000E+01 0. -1.
          6    1    1    2  502    0  0.25169370497E+02 -0.25503083636E+02  0.63975208199E+02  0.18697789107E+03  0.17200000000E+03 0. -1.
         -6    1    1    2    0  502 -0.25169370497E+02  0.25503083636E+02  0.33449425791E+03  0.37782841748E+03  0.17200000000E+03 0.  1.
</event>
<event>
 4    1 -0.3305908E-004  0.1931334E+03  0.7818608E-02  0.1155665E+00
          5   -1    0    0  501    0  0.00000000000E+00  0.00000000000E+00  0.21211626665E+03  0.21216833076E+03  0.47000000000E+01 0. -1.
         -5   -1    0    0    0  501 -0.00000000000E+00 -0.00000000000E+00 -0.24204838620E+03  0.24209401327E+03  0.47000000000E+01 0.  1.
          6    1    1    2  502    0  0.72788084555E+02 -0.49177370014E+02  0.10388424878E+03  0.21929992275E+03  0.17200000000E+03 0. -1.
         -6    1    1    2    0  502 -0.72788084555E+02  0.49177370014E+02 -0.13381636833E+03  0.23496242127E+03  0.17200000000E+03 0.  1.
</event>
<event>
 4    1 -0.3305908E-004  0.3691906E+03  0.7818608E-02  0.1055003E+00
         -5   -1    0    0    0  501 -0.00000000000E+00  0.00000000000E+00  0.19401889199E+03  0.19407581109E+03  0.47000000000E+01 0.  1.
          5   -1    0    0  501    0  0.00000000000E+00 -0.00000000000E+00 -0.78250049306E+03  0.78251460794E+03  0.47000000000E+01 0. -1.
          6    1    1    2  502    0 -0.32335740711E+03  0.46450591988E+02 -0.45051026670E+03  0.58246130398E+03  0.17200000000E+03 0. -1.
         -6    1    1    2    0  502  0.32335740711E+03 -0.46450591988E+02 -0.13797133437E+03  0.39412911505E+03  0.17200000000E+03 0.  1.
</event>
<event>
 4    1 -0.3305908E-004  0.1808593E+03  0.7818608E-02  0.1166974E+00
          5   -1    0    0  501    0  0.00000000000E+00  0.00000000000E+00  0.71337271004E+03  0.71338819266E+03  0.47000000000E+01 0. -1.
         -5   -1    0    0    0  501 -0.00000000000E+00 -0.00000000000E+00 -0.96344864959E+02  0.96459437091E+02  0.47000000000E+01 0.  1.
          6    1    1    2  502    0 -0.20679249581E+02  0.51946664729E+02  0.60175297609E+03  0.62834443705E+03  0.17200000000E+03 0. -1.
         -6    1    1    2    0  502  0.20679249581E+02 -0.51946664729E+02  0.15274868995E+02  0.18150319271E+03  0.17200000000E+03 0.  1.
</event>
<event>
 4    1 -0.3305908E-004  0.1737408E+03  0.7818608E-02  0.1174002E+00
          5   -1    0    0  501    0  0.00000000000E+00  0.00000000000E+00  0.71047436333E+02  0.71202726138E+02  0.47000000000E+01 0. -1.
         -5   -1    0    0    0  501 -0.00000000000E+00 -0.00000000000E+00 -0.43382091097E+03  0.43384637004E+03  0.47000000000E+01 0.  1.
          6    1    1    2  502    0  0.97380043921E+01 -0.22517311487E+02 -0.14386087407E+03  0.22556996506E+03  0.17200000000E+03 0. -1.
         -6    1    1    2    0  502 -0.97380043921E+01  0.22517311487E+02 -0.21891260057E+03  0.27947913112E+03  0.17200000000E+03 0.  1.
</event>
<event>
 4    1 -0.3305908E-004  0.2259288E+03  0.7818608E-02  0.1129538E+00
         -5   -1    0    0    0  501 -0.00000000000E+00  0.00000000000E+00  0.60816549365E+03  0.60818365456E+03  0.47000000000E+01 0.  1.
          5   -1    0    0  501    0  0.00000000000E+00 -0.00000000000E+00 -0.88823237758E+02  0.88947498929E+02  0.47000000000E+01 0. -1.
          6    1    1    2  502    0  0.11116536023E+03 -0.95404921147E+02  0.17722396282E+03  0.28714485768E+03  0.17200000000E+03 0. -1.
         -6    1    1    2    0  502 -0.11116536023E+03  0.95404921147E+02  0.34211829308E+03  0.40998629581E+03  0.17200000000E+03 0.  1.
</event>
<event>
 4    1 -0.3305908E-004  0.1809254E+03  0.7818608E-02  0.1166910E+00
          5   -1    0    0  501    0  0.00000000000E+00  0.00000000000E+00  0.38329063380E+03  0.38331944897E+03  0.47000000000E+01 0. -1.
         -5   -1    0    0    0  501 -0.00000000000E+00 -0.00000000000E+00 -0.12687470739E+03  0.12696173194E+03  0.47000000000E+01 0.  1.
          6    1    1    2  502    0 -0.16868029345E+02 -0.53530025627E+02  0.27417063203E+03  0.32848672656E+03  0.17200000000E+03 0. -1.
         -6    1    1    2    0  502  0.16868029345E+02  0.53530025627E+02 -0.17754705628E+02  0.18179445434E+03  0.17200000000E+03 0.  1.
</event>
<event>
 4    1 -0.3305908E-004  0.4952606E+03  0.7818608E-02  0.1015023E+00
         -5   -1    0    0    0  501 -0.00000000000E+00  0.00000000000E+00  0.13212367865E+04  0.13212451461E+04  0.47000000000E+01 0.  1.
          5   -1    0    0  501    0  0.00000000000E+00 -0.00000000000E+00 -0.18571037490E+03  0.18576983971E+03  0.47000000000E+01 0. -1.
          6    1    1    2  502    0  0.45908122955E+03  0.70309951483E+02  0.55006316201E+03  0.74017062006E+03  0.17200000000E+03 0. -1.
         -6    1    1    2    0  502 -0.45908122955E+03 -0.70309951483E+02  0.58546324960E+03  0.76684436572E+03  0.17200000000E+03 0.  1.
</event>
<event>
 4    1 -0.3305908E-004  0.2745170E+03  0.7818608E-02  0.1098722E+00
          5   -1    0    0  501    0  0.00000000000E+00  0.00000000000E+00  0.25222601056E+03  0.25226979685E+03  0.47000000000E+01 0. -1.
         -5   -1    0    0    0  501 -0.00000000000E+00 -0.00000000000E+00 -0.12517834916E+04  0.12517923149E+04  0.47000000000E+01 0.  1.
          6    1    1    2  502    0  0.11477058209E+03  0.18056381436E+03  0.15640792627E+03  0.31594780735E+03  0.17200000000E+03 0. -1.
         -6    1    1    2    0  502 -0.11477058209E+03 -0.18056381436E+03 -0.11559654073E+04  0.11881143044E+04  0.17200000000E+03 0.  1.
</event>
<event>
 4    1 -0.3305908E-004  0.2025831E+03  0.7818608E-02  0.1147578E+00
          5   -1    0    0  501    0  0.00000000000E+00  0.00000000000E+00  0.19735876667E+03  0.19741472281E+03  0.47000000000E+01 0. -1.
         -5   -1    0    0    0  501 -0.00000000000E+00 -0.00000000000E+00 -0.28185310243E+03  0.28189228679E+03  0.47000000000E+01 0.  1.
          6    1    1    2  502    0 -0.71877553920E+02 -0.79306474408E+02  0.80543853064E+02  0.21800736663E+03  0.17200000000E+03 0. -1.
         -6    1    1    2    0  502  0.71877553920E+02  0.79306474408E+02 -0.16503818883E+03  0.26129964296E+03  0.17200000000E+03 0.  1.
</event>
<event>
 4    1 -0.3305908E-004  0.2135094E+03  0.7818608E-02  0.1138817E+00
         -5   -1    0    0    0  501 -0.00000000000E+00  0.00000000000E+00  0.42632047720E+03  0.42634638415E+03  0.47000000000E+01 0.  1.
          5   -1    0    0  501    0  0.00000000000E+00 -0.00000000000E+00 -0.21444029726E+03  0.21449179725E+03  0.47000000000E+01 0. -1.
          6    1    1    2  502    0  0.59539354260E+02  0.11161233621E+03 -0.12096786974E+03  0.24539656438E+03  0.17200000000E+03 0. -1.
         -6    1    1    2    0  502 -0.59539354260E+02 -0.11161233621E+03  0.33284804968E+03  0.39544161703E+03  0.17200000000E+03 0.  1.
</event>
<event>
 4    1 -0.3305908E-004  0.3761851E+03  0.7818608E-02  0.1052353E+00
         -5   -1    0    0    0  501 -0.00000000000E+00  0.00000000000E+00  0.46487664679E+03  0.46490040517E+03  0.47000000000E+01 0.  1.
          5   -1    0    0  501    0  0.00000000000E+00 -0.00000000000E+00 -0.35838072313E+03  0.35841154098E+03  0.47000000000E+01 0. -1.
          6    1    1    2  502    0 -0.99942386255E+02 -0.31928469961E+03 -0.10655621701E+03  0.39098520095E+03  0.17200000000E+03 0. -1.
         -6    1    1    2    0  502  0.99942386255E+02  0.31928469961E+03  0.21305214067E+03  0.43232674520E+03  0.17200000000E+03 0.  1.
</event>
<event>
 4    1 -0.3305908E-004  0.2268738E+03  0.7818608E-02  0.1128860E+00
          5   -1    0    0  501    0  0.00000000000E+00  0.00000000000E+00  0.18163314364E+04  0.18163375173E+04  0.47000000000E+01 0. -1.
         -5   -1    0    0    0  501 -0.00000000000E+00 -0.00000000000E+00 -0.28870384294E+02  0.29250454514E+02  0.47000000000E+01 0.  1.
          6    1    1    2  502    0  0.14247318143E+03 -0.39863704732E+02  0.10397974199E+04  0.10642604930E+04  0.17200000000E+03 0. -1.
         -6    1    1    2    0  502 -0.14247318143E+03  0.39863704732E+02  0.74766363220E+03  0.78132747891E+03  0.17200000000E+03 0.  1.
</event>
<event>
 4    1 -0.3305908E-004  0.1808348E+03  0.7818608E-02  0.1166998E+00
         -5   -1    0    0    0  501 -0.00000000000E+00  0.00000000000E+00  0.24657506119E+04  0.24657550913E+04  0.47000000000E+01 0.  1.
          5   -1    0    0  501    0  0.00000000000E+00 -0.00000000000E+00 -0.15161084854E+02  0.15872885495E+02  0.47000000000E+01 0. -1.
          6    1    1    2  502    0 -0.14608765173E+02  0.53886851006E+02  0.75189531214E+03  0.77333548292E+03  0.17200000000E+03 0. -1.
         -6    1    1    2    0  502  0.14608765173E+02 -0.53886851006E+02  0.16986942149E+04  0.17082924938E+04  0.17200000000E+03 0.  1.
</event>
<event>
 4    1 -0.3305908E-004  0.2325343E+03  0.7818608E-02  0.1124869E+00
          5   -1    0    0  501    0  0.00000000000E+00  0.00000000000E+00  0.34066423783E+03  0.34069665824E+03  0.47000000000E+01 0. -1.
         -5   -1    0    0    0  501 -0.00000000000E+00 -0.00000000000E+00 -0.16457023975E+03  0.16463734027E+03  0.47000000000E+01 0.  1.
          6    1    1    2  502    0 -0.60965591311E+02  0.14412284921E+03  0.13595108110E+03  0.26936015934E+03  0.17200000000E+03 0. -1.
         -6    1    1    2    0  502  0.60965591311E+02 -0.14412284921E+03  0.40142916976E+02  0.23597383917E+03  0.17200000000E+03 0.  1.
</event>
<event>
 4    1 -0.3305908E-004  0.1820557E+03  0.7818608E-02  0.1165828E+00
          5   -1    0    0  501    0  0.00000000000E+00  0.00000000000E+00  0.13297583689E+03  0.13305887116E+03  0.47000000000E+01 0. -1.
         -5   -1    0    0    0  501 -0.00000000000E+00 -0.00000000000E+00 -0.24942436786E+03  0.24946864589E+03  0.47000000000E+01 0.  1.
          6    1    1    2  502    0  0.58272128122E+02 -0.12830836380E+02 -0.65458854402E+02  0.19346610271E+03  0.17200000000E+03 0. -1.
         -6    1    1    2    0  502 -0.58272128122E+02  0.12830836380E+02 -0.50989676574E+02  0.18906141435E+03  0.17200000000E+03 0. -1.
</event>
<event>
 4    1 -0.3305908E-004  0.1954552E+03  0.7818608E-02  0.1153631E+00
         -5   -1    0    0    0  501 -0.00000000000E+00  0.00000000000E+00  0.40567248982E+02  0.40838605387E+02  0.47000000000E+01 0.  1.
          5   -1    0    0  501    0  0.00000000000E+00 -0.00000000000E+00 -0.10179708874E+04  0.10179817373E+04  0.47000000000E+01 0. -1.
          6    1    1    2  502    0  0.83854099929E+02 -0.39840190128E+02 -0.63678994387E+03  0.66611123954E+03  0.17200000000E+03 0. -1.
         -6    1    1    2    0  502 -0.83854099929E+02  0.39840190128E+02 -0.34061369451E+03  0.39270910317E+03  0.17200000000E+03 0.  1.
</event>
<event>
 4    1 -0.3305908E-004  0.7037151E+03  0.7818608E-02  0.9710900E-01
         -5   -1    0    0    0  501 -0.00000000000E+00  0.00000000000E+00  0.20169478546E+04  0.20169533307E+04  0.47000000000E+01 0.  1.
          5   -1    0    0  501    0  0.00000000000E+00 -0.00000000000E+00 -0.45278119855E+03  0.45280559157E+03  0.47000000000E+01 0. -1.
          6    1    1    2  502    0  0.46681644374E+03  0.49770804607E+03 -0.53409200075E+02  0.70573892759E+03  0.17200000000E+03 0. -1.
         -6    1    1    2    0  502 -0.46681644374E+03 -0.49770804607E+03  0.16175758562E+04  0.17640199947E+04  0.17200000000E+03 0.  1.
</event>
<event>
 4    1 -0.3305908E-004  0.1955707E+03  0.7818608E-02  0.1153531E+00
          5   -1    0    0  501    0  0.00000000000E+00  0.00000000000E+00  0.88360823837E+03  0.88362073816E+03  0.47000000000E+01 0. -1.
         -5   -1    0    0    0  501 -0.00000000000E+00 -0.00000000000E+00 -0.49353898851E+02  0.49577185598E+02  0.47000000000E+01 0.  1.
          6    1    1    2  502    0 -0.18210814341E+02  0.91281200590E+02  0.25205866153E+03  0.31903206766E+03  0.17200000000E+03 0.  1.
         -6    1    1    2    0  502  0.18210814341E+02 -0.91281200590E+02  0.58219567799E+03  0.61416585611E+03  0.17200000000E+03 0.  1.
</event>
<event>
 4    1 -0.3305908E-004  0.3822269E+03  0.7818608E-02  0.1050114E+00
          5   -1    0    0  501    0  0.00000000000E+00  0.00000000000E+00  0.38055566192E+03  0.38058468417E+03  0.47000000000E+01 0. -1.
         -5   -1    0    0    0  501 -0.00000000000E+00 -0.00000000000E+00 -0.12155127013E+04  0.12155217879E+04  0.47000000000E+01 0.  1.
          6    1    1    2  502    0  0.33692290419E+03 -0.54739331909E+02  0.24263375025E+03  0.45273455201E+03  0.17200000000E+03 0. -1.
         -6    1    1    2    0  502 -0.33692290419E+03  0.54739331909E+02 -0.10775907896E+04  0.11433719201E+04  0.17200000000E+03 0.  1.
</event>
<event>
 4    1 -0.3305908E-004  0.2115749E+03  0.7818608E-02  0.1140325E+00
         -5   -1    0    0    0  501 -0.00000000000E+00  0.00000000000E+00  0.11915044762E+03  0.11924310952E+03  0.47000000000E+01 0.  1.
          5   -1    0    0  501    0  0.00000000000E+00 -0.00000000000E+00 -0.68625047219E+03  0.68626656671E+03  0.47000000000E+01 0. -1.
          6    1    1    2  502    0  0.11030315273E+03 -0.54892251860E+02 -0.55457621545E+03  0.59356442242E+03  0.17200000000E+03 0. -1.
         -6    1    1    2    0  502 -0.11030315273E+03  0.54892251860E+02 -0.12523809122E+02  0.21194525381E+03  0.17200000000E+03 0.  1.
</event>
<event>
 4    1 -0.3305908E-004  0.1839448E+03  0.7818608E-02  0.1164039E+00
          5   -1    0    0  501    0  0.00000000000E+00  0.00000000000E+00  0.34704864965E+03  0.34708047370E+03  0.47000000000E+01 0. -1.
         -5   -1    0    0    0  501 -0.00000000000E+00 -0.00000000000E+00 -0.21177178395E+03  0.21182393273E+03  0.47000000000E+01 0.  1.
          6    1    1    2  502    0 -0.61307426559E+02 -0.22205940714E+02  0.27294864018E+03  0.32914535471E+03  0.17200000000E+03 0. -1.
         -6    1    1    2    0  502  0.61307426559E+02  0.22205940714E+02 -0.13767177448E+03  0.22975905171E+03  0.17200000000E+03 0.  1.
</event>
<event>
 4    1 -0.3305908E-004  0.2664418E+03  0.7818608E-02  0.1103333E+00
         -5   -1    0    0    0  501 -0.00000000000E+00  0.00000000000E+00  0.18538117969E+04  0.18538177549E+04  0.47000000000E+01 0.  1.
          5   -1    0    0  501    0  0.00000000000E+00 -0.00000000000E+00 -0.41006643851E+02  0.41275111629E+02  0.47000000000E+01 0. -1.
          6    1    1    2  502    0  0.20111476128E+03  0.30985670211E+02  0.65693260239E+03  0.70890881152E+03  0.17200000000E+03 0. -1.
         -6    1    1    2    0  502 -0.20111476128E+03 -0.30985670211E+02  0.11558725507E+04  0.11861840550E+04  0.17200000000E+03 0.  1.
</event>
<event>
 4    1 -0.3305908E-004  0.2001147E+03  0.7818608E-02  0.1149642E+00
         -5   -1    0    0    0  501 -0.00000000000E+00  0.00000000000E+00  0.13590983974E+03  0.13599108257E+03  0.47000000000E+01 0.  1.
          5   -1    0    0  501    0  0.00000000000E+00 -0.00000000000E+00 -0.42724329192E+03  0.42726914291E+03  0.47000000000E+01 0. -1.
          6    1    1    2  502    0  0.10220656499E+03 -0.39624284269E+01 -0.30264950085E+03  0.36282585786E+03  0.17200000000E+03 0. -1.
         -6    1    1    2    0  502 -0.10220656499E+03  0.39624284269E+01  0.11316048675E+02  0.20043436762E+03  0.17200000000E+03 0.  1.
</event>
<event>
 4    1 -0.3305908E-004  0.2204819E+03  0.7818608E-02  0.1133524E+00
         -5   -1    0    0    0  501 -0.00000000000E+00  0.00000000000E+00  0.16558844108E+04  0.16558910809E+04  0.47000000000E+01 0.  1.
          5   -1    0    0  501    0  0.00000000000E+00 -0.00000000000E+00 -0.29351979424E+02  0.29725892688E+02  0.47000000000E+01 0. -1.
          6    1    1    2  502    0  0.13673696804E+03 -0.18200287160E+02  0.88056632154E+03  0.90774957754E+03  0.17200000000E+03 0.  1.
         -6    1    1    2    0  502 -0.13673696804E+03  0.18200287160E+02  0.74596610980E+03  0.77786739606E+03  0.17200000000E+03 0.  1.
</event>
<event>
 4    1 -0.3305908E-004  0.1760409E+03  0.7818608E-02  0.1171691E+00
         -5   -1    0    0    0  501 -0.00000000000E+00  0.00000000000E+00  0.14785443097E+03  0.14792911396E+03  0.47000000000E+01 0.  1.
          5   -1    0    0  501    0  0.00000000000E+00 -0.00000000000E+00 -0.25586773608E+03  0.25591089927E+03  0.47000000000E+01 0. -1.
          6    1    1    2  502    0 -0.35172406421E+01  0.37336517872E+02 -0.13999211027E+03  0.22491815731E+03  0.17200000000E+03 0. -1.
         -6    1    1    2    0  502  0.35172406421E+01 -0.37336517872E+02  0.31978805155E+02  0.17892185593E+03  0.17200000000E+03 0.  1.
</event>
<event>
 4    1 -0.3305908E-004  0.2230695E+03  0.7818608E-02  0.1131615E+00
         -5   -1    0    0    0  501 -0.00000000000E+00  0.00000000000E+00  0.40785185949E+03  0.40787893950E+03  0.47000000000E+01 0.  1.
          5   -1    0    0  501    0  0.00000000000E+00 -0.00000000000E+00 -0.12235623023E+03  0.12244646617E+03  0.47000000000E+01 0. -1.
          6    1    1    2  502    0  0.56553086466E+02 -0.13029869385E+03  0.15841480071E+03  0.27359687552E+03  0.17200000000E+03 0. -1.
         -6    1    1    2    0  502 -0.56553086466E+02  0.13029869385E+03  0.12708082855E+03  0.25672853015E+03  0.17200000000E+03 0. -1.
</event>
<event>
 4    1 -0.3305908E-004  0.2552409E+03  0.7818608E-02  0.1110037E+00
          5   -1    0    0  501    0  0.00000000000E+00  0.00000000000E+00  0.43903616707E+03  0.43906132373E+03  0.47000000000E+01 0. -1.
         -5   -1    0    0    0  501 -0.00000000000E+00 -0.00000000000E+00 -0.16588608350E+03  0.16595265198E+03  0.47000000000E+01 0.  1.
          6    1    1    2  502    0  0.17870612967E+03 -0.60233093348E+02  0.23498067472E+03  0.34693489852E+03  0.17200000000E+03 0. -1.
         -6    1    1    2    0  502 -0.17870612967E+03  0.60233093348E+02  0.38169408849E+02  0.25807907720E+03  0.17200000000E+03 0.  1.
</event>
<event>
 4    1 -0.3305908E-004  0.3386030E+03  0.7818608E-02  0.1067392E+00
         -5   -1    0    0    0  501 -0.00000000000E+00  0.00000000000E+00  0.12966888702E+04  0.12966973880E+04  0.47000000000E+01 0.  1.
          5   -1    0    0  501    0  0.00000000000E+00 -0.00000000000E+00 -0.11944284064E+03  0.11953527588E+03  0.47000000000E+01 0. -1.
          6    1    1    2  502    0  0.75709204173E+02  0.28166669816E+03  0.22749829136E+03  0.40793073557E+03  0.17200000000E+03 0. -1.
         -6    1    1    2    0  502 -0.75709204173E+02 -0.28166669816E+03  0.94974773816E+03  0.10083019283E+04  0.17200000000E+03 0.  1.
</event>
<event>
 4    1 -0.3305908E-004  0.2638127E+03  0.7818608E-02  0.1104874E+00
         -5   -1    0    0    0  501 -0.00000000000E+00  0.00000000000E+00  0.22924773663E+04  0.22924821842E+04  0.47000000000E+01 0.  1.
          5   -1    0    0  501    0  0.00000000000E+00 -0.00000000000E+00 -0.35240729540E+02  0.35552763866E+02  0.47000000000E+01 0. -1.
          6    1    1    2  502    0  0.50249839611E+02 -0.19361847441E+03  0.68930092313E+03  0.73806024323E+03  0.17200000000E+03 0. -1.
         -6    1    1    2    0  502 -0.50249839611E+02  0.19361847441E+03  0.15679357136E+04  0.15899747048E+04  0.17200000000E+03 0.  1.
</event>
<event>
 4    1 -0.3305908E-004  0.2503573E+03  0.7818608E-02  0.1113079E+00
          5   -1    0    0  501    0  0.00000000000E+00  0.00000000000E+00  0.20634294406E+03  0.20639646451E+03  0.47000000000E+01 0. -1.
         -5   -1    0    0    0  501 -0.00000000000E+00 -0.00000000000E+00 -0.51886862148E+03  0.51888990774E+03  0.47000000000E+01 0.  1.
          6    1    1    2  502    0  0.16892420476E+03 -0.67523249293E+02  0.77274954826E+02  0.26201182186E+03  0.17200000000E+03 0. -1.
         -6    1    1    2    0  502 -0.16892420476E+03  0.67523249293E+02 -0.38980063224E+03  0.46327455040E+03  0.17200000000E+03 0.  1.
</event>
<event>
 4    1 -0.3305908E-004  0.1957352E+03  0.7818608E-02  0.1153388E+00
         -5   -1    0    0    0  501 -0.00000000000E+00  0.00000000000E+00  0.18267987436E+03  0.18274032531E+03  0.47000000000E+01 0.  1.
          5   -1    0    0  501    0  0.00000000000E+00 -0.00000000000E+00 -0.22708621133E+03  0.22713484404E+03  0.47000000000E+01 0. -1.
          6    1    1    2  502    0 -0.88577553272E+02 -0.29702975934E+02  0.34648578969E+02  0.19877820240E+03  0.17200000000E+03 0. -1.
         -6    1    1    2    0  502  0.88577553272E+02  0.29702975934E+02 -0.79054915939E+02  0.21109696695E+03  0.17200000000E+03 0. -1.
</event>
<event>
 4    1 -0.3305908E-004  0.2811137E+03  0.7818608E-02  0.1095082E+00
          5   -1    0    0  501    0  0.00000000000E+00  0.00000000000E+00  0.16647606867E+03  0.16654240132E+03  0.47000000000E+01 0. -1.
         -5   -1    0    0    0  501 -0.00000000000E+00 -0.00000000000E+00 -0.48753586413E+03  0.48755851835E+03  0.47000000000E+01 0.  1.
          6    1    1    2  502    0 -0.28232818351E+02  0.22055346103E+03 -0.10709676551E+03  0.30082326769E+03  0.17200000000E+03 0. -1.
         -6    1    1    2    0  502  0.28232818351E+02 -0.22055346103E+03 -0.21396302995E+03  0.35327765198E+03  0.17200000000E+03 0.  1.
</event>
<event>
 4    1 -0.3305908E-004  0.2034179E+03  0.7818608E-02  0.1146887E+00
         -5   -1    0    0    0  501 -0.00000000000E+00  0.00000000000E+00  0.10849317757E+03  0.10859493349E+03  0.47000000000E+01 0.  1.
          5   -1    0    0  501    0  0.00000000000E+00 -0.00000000000E+00 -0.53392118063E+03  0.53394186680E+03  0.47000000000E+01 0. -1.
          6    1    1    2  502    0 -0.19758590609E+02 -0.10679164566E+03 -0.38457147648E+03  0.43505640784E+03  0.17200000000E+03 0. -1.
         -6    1    1    2    0  502  0.19758590609E+02  0.10679164566E+03 -0.40856526577E+02  0.20748039244E+03  0.17200000000E+03 0.  1.
</event>
<event>
 4    1 -0.3305908E-004  0.1727075E+03  0.7818608E-02  0.1175053E+00
          5   -1    0    0  501    0  0.00000000000E+00  0.00000000000E+00  0.36404098336E+03  0.36407132208E+03  0.47000000000E+01 0. -1.
         -5   -1    0    0    0  501 -0.00000000000E+00 -0.00000000000E+00 -0.94324487905E+02  0.94441511098E+02  0.47000000000E+01 0.  1.
          6    1    1    2  502    0  0.13515505739E+02 -0.78244836357E+01  0.21821358128E+03  0.27828952279E+03  0.17200000000E+03 0. -1.
         -6    1    1    2    0  502 -0.13515505739E+02  0.78244836357E+01  0.51502914168E+02  0.18022331039E+03  0.17200000000E+03 0.  1.
</event>
<event>
 4    1 -0.3305908E-004  0.2417436E+03  0.7818608E-02  0.1118637E+00
         -5   -1    0    0    0  501 -0.00000000000E+00  0.00000000000E+00  0.97421190902E+02  0.97534498700E+02  0.47000000000E+01 0.  1.
          5   -1    0    0  501    0  0.00000000000E+00 -0.00000000000E+00 -0.65137943973E+03  0.65139639583E+03  0.47000000000E+01 0. -1.
          6    1    1    2  502    0 -0.13529181068E+03  0.10272336934E+03 -0.38275226236E+03  0.45270217471E+03  0.17200000000E+03 0. -1.
         -6    1    1    2    0  502  0.13529181068E+03 -0.10272336934E+03 -0.17120598647E+03  0.29622871982E+03  0.17200000000E+03 0.  1.
</event>
<event>
 4    1 -0.3305908E-004  0.1928008E+03  0.7818608E-02  0.1155959E+00
         -5   -1    0    0    0  501 -0.00000000000E+00  0.00000000000E+00  0.21264329886E+03  0.21269523397E+03  0.47000000000E+01 0.  1.
          5   -1    0    0  501    0  0.00000000000E+00 -0.00000000000E+00 -0.23709954497E+03  0.23714612421E+03  0.47000000000E+01 0. -1.
          6    1    1    2  502    0 -0.68060259020E+02  0.54368681116E+02 -0.12758393773E+03  0.23119215712E+03  0.17200000000E+03 0. -1.
         -6    1    1    2    0  502  0.68060259020E+02 -0.54368681116E+02  0.10312769162E+03  0.21864920106E+03  0.17200000000E+03 0. -1.
</event>
<event>
 4    1 -0.3305908E-004  0.1950415E+03  0.7818608E-02  0.1153991E+00
          5   -1    0    0  501    0  0.00000000000E+00  0.00000000000E+00  0.12485348769E+03  0.12494192006E+03  0.47000000000E+01 0. -1.
         -5   -1    0    0    0  501 -0.00000000000E+00 -0.00000000000E+00 -0.30574490356E+03  0.30578102631E+03  0.47000000000E+01 0.  1.
          6    1    1    2  502    0 -0.43962784560E+02 -0.80774108272E+02 -0.76553453735E+02  0.20952712061E+03  0.17200000000E+03 0. -1.
         -6    1    1    2    0  502  0.43962784560E+02  0.80774108272E+02 -0.10433796213E+03  0.22119582576E+03  0.17200000000E+03 0.  1.
</event>
<event>
 4    1 -0.3305908E-004  0.2119836E+03  0.7818608E-02  0.1140005E+00
         -5   -1    0    0    0  501 -0.00000000000E+00  0.00000000000E+00  0.22161728016E+03  0.22166711273E+03  0.47000000000E+01 0.  1.
          5   -1    0    0  501    0  0.00000000000E+00 -0.00000000000E+00 -0.21614001781E+03  0.21619111291E+03  0.47000000000E+01 0. -1.
          6    1    1    2  502    0 -0.24288867804E+02 -0.12150351137E+03  0.57381756950E+02  0.21961265539E+03  0.17200000000E+03 0.  1.
         -6    1    1    2    0  502  0.24288867804E+02  0.12150351137E+03 -0.51904494602E+02  0.21824557025E+03  0.17200000000E+03 0. -1.
</event>
<event>
 4    1 -0.3305908E-004  0.1994888E+03  0.7818608E-02  0.1150171E+00
          5   -1    0    0  501    0  0.00000000000E+00  0.00000000000E+00  0.32200477469E+03  0.32203907359E+03  0.47000000000E+01 0. -1.
         -5   -1    0    0    0  501 -0.00000000000E+00 -0.00000000000E+00 -0.39277615105E+03  0.39280427039E+03  0.47000000000E+01 0.  1.
          6    1    1    2  502    0  0.27132695790E+02  0.97342643953E+02 -0.33129202120E+03  0.38671717938E+03  0.17200000000E+03 0.  1.
         -6    1    1    2    0  502 -0.27132695790E+02 -0.97342643953E+02  0.26052064484E+03  0.32812616461E+03  0.17200000000E+03 0. -1.
</event>
<event>
 4    1 -0.3305908E-004  0.3366665E+03  0.7818608E-02  0.1068225E+00
         -5   -1    0    0    0  501 -0.00000000000E+00  0.00000000000E+00  0.75098539765E+02  0.75245469464E+02  0.47000000000E+01 0.  1.
          5   -1    0    0  501    0  0.00000000000E+00 -0.00000000000E+00 -0.15849265043E+04  0.15849334731E+04  0.47000000000E+01 0. -1.
          6    1    1    2  502    0  0.12436417015E+03  0.26133094097E+03 -0.93819866626E+03  0.99677532318E+03  0.17200000000E+03 0. -1.
         -6    1    1    2    0  502 -0.12436417015E+03 -0.26133094097E+03 -0.57162929830E+03  0.66340361937E+03  0.17200000000E+03 0.  1.
</event>
<event>
 4    1 -0.3305908E-004  0.2052307E+03  0.7818608E-02  0.1145399E+00
         -5   -1    0    0    0  501 -0.00000000000E+00  0.00000000000E+00  0.18637842551E+03  0.18643767724E+03  0.47000000000E+01 0.  1.
          5   -1    0    0  501    0  0.00000000000E+00 -0.00000000000E+00 -0.25083577983E+03  0.25087980876E+03  0.47000000000E+01 0. -1.
          6    1    1    2  502    0 -0.11167127657E+03 -0.80734041804E+01 -0.10119707847E+03  0.22882417389E+03  0.17200000000E+03 0. -1.
         -6    1    1    2    0  502  0.11167127657E+03  0.80734041804E+01  0.36739724140E+02  0.20849331211E+03  0.17200000000E+03 0.  1.
</event>
<event>
 4    1 -0.3305908E-004  0.1939054E+03  0.7818608E-02  0.1154985E+00
         -5   -1    0    0    0  501 -0.00000000000E+00  0.00000000000E+00  0.75575894177E+02  0.75721897629E+02  0.47000000000E+01 0.  1.
          5   -1    0    0  501    0  0.00000000000E+00 -0.00000000000E+00 -0.78585808417E+03  0.78587213875E+03  0.47000000000E+01 0. -1.
          6    1    1    2  502    0  0.65006790247E+02  0.61558424985E+02 -0.93926444062E+02  0.21545649064E+03  0.17200000000E+03 0.  1.
         -6    1    1    2    0  502 -0.65006790247E+02 -0.61558424985E+02 -0.61635574593E+03  0.64613754574E+03  0.17200000000E+03 0. -1.
</event>
<event>
 4    1 -0.3305908E-004  0.1842143E+03  0.7818608E-02  0.1163786E+00
          5   -1    0    0  501    0  0.00000000000E+00  0.00000000000E+00  0.56254447053E+03  0.56256410419E+03  0.47000000000E+01 0. -1.
         -5   -1    0    0    0  501 -0.00000000000E+00 -0.00000000000E+00 -0.60326115565E+02  0.60508926773E+02  0.47000000000E+01 0.  1.
          6    1    1    2  502    0 -0.17413479873E+00  0.65961141053E+02  0.26465512281E+03  0.32245501466E+03  0.17200000000E+03 0. -1.
         -6    1    1    2    0  502  0.17413479873E+00 -0.65961141053E+02  0.23756323215E+03  0.30061801630E+03  0.17200000000E+03 0.  1.
</event>
<event>
 4    1 -0.3305908E-004  0.1755061E+03  0.7818608E-02  0.1172225E+00
         -5   -1    0    0    0  501 -0.00000000000E+00  0.00000000000E+00  0.17290310686E+03  0.17296697477E+03  0.47000000000E+01 0.  1.
          5   -1    0    0  501    0  0.00000000000E+00 -0.00000000000E+00 -0.21622845968E+03  0.21627953388E+03  0.47000000000E+01 0. -1.
          6    1    1    2  502    0 -0.33541911775E+02  0.96601012911E+01 -0.10345165689E+03  0.20372683357E+03  0.17200000000E+03 0. -1.
         -6    1    1    2    0  502  0.33541911775E+02 -0.96601012911E+01  0.60126304061E+02  0.18551967508E+03  0.17200000000E+03 0.  1.
</event>
<event>
 4    1 -0.3305908E-004  0.2612293E+03  0.7818608E-02  0.1106407E+00
          5   -1    0    0  501    0  0.00000000000E+00  0.00000000000E+00  0.73773619568E+03  0.73775116701E+03  0.47000000000E+01 0. -1.
         -5   -1    0    0    0  501 -0.00000000000E+00 -0.00000000000E+00 -0.20649006554E+03  0.20654354787E+03  0.47000000000E+01 0.  1.
          6    1    1    2  502    0 -0.15752218348E+03  0.11765840884E+03  0.61645449378E+03  0.66951988944E+03  0.17200000000E+03 0. -1.
         -6    1    1    2    0  502  0.15752218348E+03 -0.11765840884E+03 -0.85208363642E+02  0.27477482544E+03  0.17200000000E+03 0.  1.
</event>
<event>
 4    1 -0.3305908E-004  0.1728574E+03  0.7818608E-02  0.1174900E+00
          5   -1    0    0  501    0  0.00000000000E+00  0.00000000000E+00  0.10895039899E+04  0.10895141275E+04  0.47000000000E+01 0. -1.
         -5   -1    0    0    0  501 -0.00000000000E+00 -0.00000000000E+00 -0.28218422260E+02  0.28607155658E+02  0.47000000000E+01 0.  1.
          6    1    1    2  502    0 -0.15967260544E+02  0.63808176032E+01  0.63540327013E+03  0.65849600146E+03  0.17200000000E+03 0. -1.
         -6    1    1    2    0  502  0.15967260544E+02 -0.63808176032E+01  0.42588229752E+03  0.45962528171E+03  0.17200000000E+03 0.  1.
</event>
<event>
 4    1 -0.3305908E-004  0.2115909E+03  0.7818608E-02  0.1140312E+00
         -5   -1    0    0    0  501 -0.00000000000E+00  0.00000000000E+00  0.17536988889E+04  0.17537051870E+04  0.47000000000E+01 0.  1.
          5   -1    0    0  501    0  0.00000000000E+00 -0.00000000000E+00 -0.47363663708E+02  0.47596288089E+02  0.47000000000E+01 0. -1.
          6    1    1    2  502    0  0.98215637153E+01  0.12284233019E+03  0.24073391034E+03  0.32050509635E+03  0.17200000000E+03 0. -1.
         -6    1    1    2    0  502 -0.98215637153E+01 -0.12284233019E+03  0.14656013148E+04  0.14807963787E+04  0.17200000000E+03 0.  1.
</event>
<event>
 4    1 -0.3305908E-004  0.2010583E+03  0.7818608E-02  0.1148849E+00
          5   -1    0    0  501    0  0.00000000000E+00  0.00000000000E+00  0.17690331808E+03  0.17696574230E+03  0.47000000000E+01 0. -1.
         -5   -1    0    0    0  501 -0.00000000000E+00 -0.00000000000E+00 -0.23527618151E+03  0.23532312165E+03  0.47000000000E+01 0.  1.
          6    1    1    2  502    0 -0.10357861528E+03 -0.10577992544E+02  0.60867339227E+01  0.20115037111E+03  0.17200000000E+03 0. -1.
         -6    1    1    2    0  502  0.10357861528E+03  0.10577992544E+02 -0.64459597344E+02  0.21113849284E+03  0.17200000000E+03 0.  1.
</event>
<event>
 4    1 -0.3305908E-004  0.2261184E+03  0.7818608E-02  0.1129402E+00
         -5   -1    0    0    0  501 -0.00000000000E+00  0.00000000000E+00  0.19360243598E+03  0.19365947748E+03  0.47000000000E+01 0.  1.
          5   -1    0    0  501    0  0.00000000000E+00 -0.00000000000E+00 -0.53621009151E+03  0.53623068939E+03  0.47000000000E+01 0. -1.
          6    1    1    2  502    0  0.12554129084E+03  0.76058603038E+02 -0.43131586706E+03  0.48699374121E+03  0.17200000000E+03 0. -1.
         -6    1    1    2    0  502 -0.12554129084E+03 -0.76058603038E+02  0.88708211529E+02  0.24289642565E+03  0.17200000000E+03 0.  1.
</event>
<event>
 4    1 -0.3305908E-004  0.2633195E+03  0.7818608E-02  0.1105165E+00
          5   -1    0    0  501    0  0.00000000000E+00  0.00000000000E+00  0.28130608545E+03  0.28134534599E+03  0.47000000000E+01 0. -1.
         -5   -1    0    0    0  501 -0.00000000000E+00 -0.00000000000E+00 -0.25681920345E+03  0.25686220676E+03  0.47000000000E+01 0.  1.
          6    1    1    2  502    0  0.39559191384E+02 -0.19541812141E+03  0.66426888402E+02  0.27156896601E+03  0.17200000000E+03 0.  1.
         -6    1    1    2    0  502 -0.39559191384E+02  0.19541812141E+03 -0.41940006398E+02  0.26663858673E+03  0.17200000000E+03 0.  1.
</event>
<event>
 4    1 -0.3305908E-004  0.1870861E+03  0.7818608E-02  0.1161116E+00
         -5   -1    0    0    0  501 -0.00000000000E+00  0.00000000000E+00  0.45999735992E+03  0.46002137030E+03  0.47000000000E+01 0.  1.
          5   -1    0    0  501    0  0.00000000000E+00 -0.00000000000E+00 -0.76889857656E+02  0.77033370758E+02  0.47000000000E+01 0. -1.
          6    1    1    2  502    0  0.40682124487E+02  0.61336566696E+02  0.16255878750E+03  0.24784384007E+03  0.17200000000E+03 0. -1.
         -6    1    1    2    0  502 -0.40682124487E+02 -0.61336566696E+02  0.22054871476E+03  0.28921090098E+03  0.17200000000E+03 0. -1.
</event>
<event>
 4    1 -0.3305908E-004  0.5711689E+03  0.7818608E-02  0.9967095E-01
          5   -1    0    0  501    0  0.00000000000E+00  0.00000000000E+00  0.74732092946E+03  0.74733570877E+03  0.47000000000E+01 0. -1.
         -5   -1    0    0    0  501 -0.00000000000E+00 -0.00000000000E+00 -0.51603464391E+03  0.51605604707E+03  0.47000000000E+01 0.  1.
          6    1    1    2  502    0 -0.34302616391E+03 -0.42306378908E+03  0.36362157169E+03  0.67709273084E+03  0.17200000000E+03 0. -1.
         -6    1    1    2    0  502  0.34302616391E+03  0.42306378908E+03 -0.13233528614E+03  0.58629902500E+03  0.17200000000E+03 0.  1.
</event>
<event>
 4    1 -0.3305908E-004  0.2014494E+03  0.7818608E-02  0.1148522E+00
         -5   -1    0    0    0  501 -0.00000000000E+00  0.00000000000E+00  0.36347815536E+02  0.36650425567E+02  0.47000000000E+01 0.  1.
          5   -1    0    0  501    0  0.00000000000E+00 -0.00000000000E+00 -0.11271946838E+04  0.11272044825E+04  0.47000000000E+01 0. -1.
          6    1    1    2  502    0 -0.55962140949E+02 -0.88691065136E+02 -0.61396858160E+03  0.64617279844E+03  0.17200000000E+03 0. -1.
         -6    1    1    2    0  502  0.55962140949E+02  0.88691065136E+02 -0.47687828671E+03  0.51768210959E+03  0.17200000000E+03 0. -1.
</event>
<event>
 4    1 -0.3305908E-004  0.2890520E+03  0.7818608E-02  0.1090845E+00
          5   -1    0    0  501    0  0.00000000000E+00  0.00000000000E+00  0.12292650287E+03  0.12301632049E+03  0.47000000000E+01 0. -1.
         -5   -1    0    0    0  501 -0.00000000000E+00 -0.00000000000E+00 -0.68126910773E+03  0.68128531992E+03  0.47000000000E+01 0.  1.
          6    1    1    2  502    0 -0.96008734281E+02 -0.21154047435E+03 -0.25775547562E+03  0.38728404893E+03  0.17200000000E+03 0. -1.
         -6    1    1    2    0  502  0.96008734281E+02  0.21154047435E+03 -0.30058712924E+03  0.41701759149E+03  0.17200000000E+03 0.  1.
</event>
<event>
 4    1 -0.3305908E-004  0.2933271E+03  0.7818608E-02  0.1088625E+00
         -5   -1    0    0    0  501 -0.00000000000E+00  0.00000000000E+00  0.35403823175E+03  0.35406942757E+03  0.47000000000E+01 0.  1.
          5   -1    0    0  501    0  0.00000000000E+00 -0.00000000000E+00 -0.27198962884E+03  0.27203023397E+03  0.47000000000E+01 0. -1.
          6    1    1    2  502    0  0.11357233773E+03 -0.20870574634E+03 -0.61230300240E+02  0.29964965229E+03  0.17200000000E+03 0. -1.
         -6    1    1    2    0  502 -0.11357233773E+03  0.20870574634E+03  0.14327890315E+03  0.32645000925E+03  0.17200000000E+03 0.  1.
</event>
<event>
 4    1 -0.3305908E-004  0.1807801E+03  0.7818608E-02  0.1167050E+00
          5   -1    0    0  501    0  0.00000000000E+00  0.00000000000E+00  0.64645170666E+02  0.64815801240E+02  0.47000000000E+01 0. -1.
         -5   -1    0    0    0  501 -0.00000000000E+00 -0.00000000000E+00 -0.50914198621E+03  0.50916367910E+03  0.47000000000E+01 0.  1.
          6    1    1    2  502    0  0.54862488052E+02  0.93561152168E+01 -0.19545653345E+03  0.26624178101E+03  0.17200000000E+03 0. -1.
         -6    1    1    2    0  502 -0.54862488052E+02 -0.93561152168E+01 -0.24904028209E+03  0.30773769933E+03  0.17200000000E+03 0.  1.
</event>
<event>
 4    1 -0.3305908E-004  0.1975622E+03  0.7818608E-02  0.1151812E+00
          5   -1    0    0  501    0  0.00000000000E+00  0.00000000000E+00  0.10028907385E+04  0.10029017516E+04  0.47000000000E+01 0. -1.
         -5   -1    0    0    0  501 -0.00000000000E+00 -0.00000000000E+00 -0.40084153632E+02  0.40358758311E+02  0.47000000000E+01 0.  1.
          6    1    1    2  502    0  0.94680543442E+02 -0.21963559030E+02  0.57568672338E+03  0.60864275787E+03  0.17200000000E+03 0. -1.
         -6    1    1    2    0  502 -0.94680543442E+02  0.21963559030E+02  0.38711986147E+03  0.43461775203E+03  0.17200000000E+03 0. -1.
</event>
<event>
 4    1 -0.3305908E-004  0.3184029E+03  0.7818608E-02  0.1076387E+00
          5   -1    0    0  501    0  0.00000000000E+00  0.00000000000E+00  0.25110050623E+03  0.25114448874E+03  0.47000000000E+01 0. -1.
         -5   -1    0    0    0  501 -0.00000000000E+00 -0.00000000000E+00 -0.46815332770E+03  0.46817691980E+03  0.47000000000E+01 0.  1.
          6    1    1    2  502    0 -0.16898825749E+03 -0.20794074203E+03  0.24965106380E+02  0.31938008689E+03  0.17200000000E+03 0. -1.
         -6    1    1    2    0  502  0.16898825749E+03  0.20794074203E+03 -0.24201792785E+03  0.39994132166E+03  0.17200000000E+03 0.  1.
</event>
<event>
 4    1 -0.3305908E-004  0.5220004E+03  0.7818608E-02  0.1008191E+00
         -5   -1    0    0    0  501 -0.00000000000E+00  0.00000000000E+00  0.16479899005E+04  0.16479966026E+04  0.47000000000E+01 0.  1.
          5   -1    0    0  501    0  0.00000000000E+00 -0.00000000000E+00 -0.22293683237E+03  0.22298637005E+03  0.47000000000E+01 0. -1.
          6    1    1    2  502    0 -0.16615787479E+02  0.49256912939E+03  0.23694581509E+03  0.57326063087E+03  0.17200000000E+03 0. -1.
         -6    1    1    2    0  502  0.16615787479E+02 -0.49256912939E+03  0.11881072530E+04  0.12977223417E+04  0.17200000000E+03 0.  1.
</event>
<event>
 4    1 -0.3305908E-004  0.1766221E+03  0.7818608E-02  0.1171113E+00
          5   -1    0    0  501    0  0.00000000000E+00  0.00000000000E+00  0.48112616297E+03  0.48114911898E+03  0.47000000000E+01 0. -1.
         -5   -1    0    0    0  501 -0.00000000000E+00 -0.00000000000E+00 -0.95743671808E+02  0.95858962498E+02  0.47000000000E+01 0.  1.
          6    1    1    2  502    0 -0.24180083604E+02  0.32041764101E+02  0.35675335763E+03  0.39808078234E+03  0.17200000000E+03 0. -1.
         -6    1    1    2    0  502  0.24180083604E+02 -0.32041764101E+02  0.28629133535E+02  0.17892729914E+03  0.17200000000E+03 0.  1.
</event>
<event>
 4    1 -0.3305908E-004  0.1728708E+03  0.7818608E-02  0.1174887E+00
          5   -1    0    0  501    0  0.00000000000E+00  0.00000000000E+00  0.15117359134E+03  0.15124663539E+03  0.47000000000E+01 0. -1.
         -5   -1    0    0    0  501 -0.00000000000E+00 -0.00000000000E+00 -0.19997680509E+03  0.20003202887E+03  0.47000000000E+01 0.  1.
          6    1    1    2  502    0  0.17248336919E+02 -0.16764729352E+01 -0.43810152315E+02  0.17833576516E+03  0.17200000000E+03 0.  1.
         -6    1    1    2    0  502 -0.17248336919E+02  0.16764729352E+01 -0.49930614339E+01  0.17294289910E+03  0.17200000000E+03 0. -1.
</event>
<event>
 4    1 -0.3305908E-004  0.2143753E+03  0.7818608E-02  0.1138147E+00
          5   -1    0    0  501    0  0.00000000000E+00  0.00000000000E+00  0.32076609773E+03  0.32080052907E+03  0.47000000000E+01 0. -1.
         -5   -1    0    0    0  501 -0.00000000000E+00 -0.00000000000E+00 -0.14382522319E+03  0.14390199730E+03  0.47000000000E+01 0.  1.
          6    1    1    2  502    0 -0.39606297556E+02 -0.12167221153E+03  0.10389049973E+03  0.23822263074E+03  0.17200000000E+03 0.  1.
         -6    1    1    2    0  502  0.39606297556E+02  0.12167221153E+03  0.73050374808E+02  0.22647989563E+03  0.17200000000E+03 0.  1.
</event>
<event>
 4    1 -0.3305908E-004  0.2276412E+03  0.7818608E-02  0.1128311E+00
         -5   -1    0    0    0  501 -0.00000000000E+00  0.00000000000E+00  0.11079894865E+04  0.11079994549E+04  0.47000000000E+01 0.  1.
          5   -1    0    0  501    0  0.00000000000E+00 -0.00000000000E+00 -0.71882172299E+02  0.72035662657E+02  0.47000000000E+01 0. -1.
          6    1    1    2  502    0  0.10530996000E+03  0.10557627265E+03  0.16892455416E+03  0.28347141306E+03  0.17200000000E+03 0. -1.
         -6    1    1    2    0  502 -0.10530996000E+03 -0.10557627265E+03  0.86718276001E+03  0.89656370453E+03  0.17200000000E+03 0.  1.
</event>
<event>
 4    1 -0.3305908E-004  0.2417248E+03  0.7818608E-02  0.1118649E+00
         -5   -1    0    0    0  501 -0.00000000000E+00  0.00000000000E+00  0.92376888666E+02  0.92496375927E+02  0.47000000000E+01 0.  1.
          5   -1    0    0  501    0  0.00000000000E+00 -0.00000000000E+00 -0.77635871028E+03  0.77637293683E+03  0.47000000000E+01 0. -1.
          6    1    1    2  502    0 -0.16696994431E+03 -0.31111634796E+02 -0.52931415824E+03  0.58189721965E+03  0.17200000000E+03 0. -1.
         -6    1    1    2    0  502  0.16696994431E+03  0.31111634796E+02 -0.15466766338E+03  0.28697209310E+03  0.17200000000E+03 0.  1.
</event>
<event>
 4    1 -0.3305908E-004  0.2599294E+03  0.7818608E-02  0.1107186E+00
         -5   -1    0    0    0  501 -0.00000000000E+00  0.00000000000E+00  0.88626306138E+03  0.88627552373E+03  0.47000000000E+01 0.  1.
          5   -1    0    0  501    0  0.00000000000E+00 -0.00000000000E+00 -0.78874269385E+02  0.79014178291E+02  0.47000000000E+01 0. -1.
          6    1    1    2  502    0 -0.17773118520E+03 -0.79943345097E+02  0.31405876115E+03  0.40767170379E+03  0.17200000000E+03 0. -1.
         -6    1    1    2    0  502  0.17773118520E+03  0.79943345097E+02  0.49333003084E+03  0.55761799823E+03  0.17200000000E+03 0.  1.
</event>
<event>
 4    1 -0.3305908E-004  0.1756014E+03  0.7818608E-02  0.1172129E+00
          5   -1    0    0  501    0  0.00000000000E+00  0.00000000000E+00  0.68994586272E+02  0.69154486007E+02  0.47000000000E+01 0. -1.
         -5   -1    0    0    0  501 -0.00000000000E+00 -0.00000000000E+00 -0.53478039565E+03  0.53480104859E+03  0.47000000000E+01 0.  1.
          6    1    1    2  502    0  0.57077158357E+01 -0.34917864307E+02 -0.11004159614E+03  0.20723172573E+03  0.17200000000E+03 0. -1.
         -6    1    1    2    0  502 -0.57077158357E+01  0.34917864307E+02 -0.35574421325E+03  0.39672380887E+03  0.17200000000E+03 0.  1.
</event>
<event>
 4    1 -0.3305908E-004  0.5864328E+03  0.7818608E-02  0.9933960E-01
         -5   -1    0    0    0  501 -0.00000000000E+00  0.00000000000E+00  0.50389116594E+03  0.50391308487E+03  0.47000000000E+01 0.  1.
          5   -1    0    0  501    0  0.00000000000E+00 -0.00000000000E+00 -0.92667329825E+03  0.92668521715E+03  0.47000000000E+01 0. -1.
          6    1    1    2  502    0  0.44121969036E+03  0.34589690925E+03 -0.57859630540E+03  0.82381865214E+03  0.17200000000E+03 0. -1.
         -6    1    1    2    0  502 -0.44121969036E+03 -0.34589690925E+03  0.15581417308E+03  0.60677964989E+03  0.17200000000E+03 0.  1.
</event>
<event>
 4    1 -0.3305908E-004  0.1912317E+03  0.7818608E-02  0.1157355E+00
          5   -1    0    0  501    0  0.00000000000E+00  0.00000000000E+00  0.30747036922E+03  0.30750628928E+03  0.47000000000E+01 0. -1.
         -5   -1    0    0    0  501 -0.00000000000E+00 -0.00000000000E+00 -0.15794650016E+03  0.15801641343E+03  0.47000000000E+01 0.  1.
          6    1    1    2  502    0  0.36974043678E+02 -0.74956594689E+02  0.19052686269E+03  0.26994454319E+03  0.17200000000E+03 0. -1.
         -6    1    1    2    0  502 -0.36974043678E+02  0.74956594689E+02 -0.41002993631E+02  0.19557815952E+03  0.17200000000E+03 0.  1.
</event>
<event>
 4    1 -0.3305908E-004  0.1795525E+03  0.7818608E-02  0.1168237E+00
          5   -1    0    0  501    0  0.00000000000E+00  0.00000000000E+00  0.84422869798E+03  0.84424178083E+03  0.47000000000E+01 0. -1.
         -5   -1    0    0    0  501 -0.00000000000E+00 -0.00000000000E+00 -0.83138353912E+02  0.83271098775E+02  0.47000000000E+01 0.  1.
          6    1    1    2  502    0 -0.51451635044E+02  0.27997713711E+01  0.72168701128E+03  0.74368760358E+03  0.17200000000E+03 0. -1.
         -6    1    1    2    0  502  0.51451635044E+02 -0.27997713711E+01  0.39403332784E+02  0.18382527602E+03  0.17200000000E+03 0.  1.
</event>
<event>
 4    1 -0.3305908E-004  0.1797449E+03  0.7818608E-02  0.1168050E+00
         -5   -1    0    0    0  501 -0.00000000000E+00  0.00000000000E+00  0.29269732697E+03  0.29273505977E+03  0.47000000000E+01 0.  1.
          5   -1    0    0  501    0  0.00000000000E+00 -0.00000000000E+00 -0.20031672398E+03  0.20037185407E+03  0.47000000000E+01 0. -1.
          6    1    1    2  502    0 -0.28891119321E+02  0.43468643565E+02 -0.11905253371E+03  0.21559620946E+03  0.17200000000E+03 0. -1.
         -6    1    1    2    0  502  0.28891119321E+02 -0.43468643565E+02  0.21143313671E+03  0.27751070438E+03  0.17200000000E+03 0.  1.
</event>
<event>
 4    1 -0.3305908E-004  0.3986532E+03  0.7818608E-02  0.1044247E+00
         -5   -1    0    0    0  501 -0.00000000000E+00  0.00000000000E+00  0.69392379163E+03  0.69393970818E+03  0.47000000000E+01 0.  1.
          5   -1    0    0  501    0  0.00000000000E+00 -0.00000000000E+00 -0.42516088293E+03  0.42518686054E+03  0.47000000000E+01 0. -1.
          6    1    1    2  502    0  0.11342421641E+03  0.34128486277E+03 -0.24569730751E+03  0.46828578597E+03  0.17200000000E+03 0. -1.
         -6    1    1    2    0  502 -0.11342421641E+03 -0.34128486277E+03  0.51446021621E+03  0.65084078275E+03  0.17200000000E+03 0.  1.
</event>
<event>
 4    1 -0.3305908E-004  0.3340239E+03  0.7818608E-02  0.1069370E+00
         -5   -1    0    0    0  501 -0.00000000000E+00  0.00000000000E+00  0.16558088743E+03  0.16564757856E+03  0.47000000000E+01 0.  1.
          5   -1    0    0  501    0  0.00000000000E+00 -0.00000000000E+00 -0.96798412640E+03  0.96799553665E+03  0.47000000000E+01 0. -1.
          6    1    1    2  502    0 -0.34976461533E+02  0.28419116005E+03 -0.71376871620E+03  0.78805948287E+03  0.17200000000E+03 0. -1.
         -6    1    1    2    0  502  0.34976461533E+02 -0.28419116005E+03 -0.88634522773E+02  0.34558363234E+03  0.17200000000E+03 0.  1.
</event>
<event>
 4    1 -0.3305908E-004  0.1907604E+03  0.7818608E-02  0.1157777E+00
         -5   -1    0    0    0  501 -0.00000000000E+00  0.00000000000E+00  0.12355400053E+03  0.12364336233E+03  0.47000000000E+01 0.  1.
          5   -1    0    0  501    0  0.00000000000E+00 -0.00000000000E+00 -0.39466694236E+03  0.39469492699E+03  0.47000000000E+01 0. -1.
          6    1    1    2  502    0  0.59782729941E+02 -0.56846670998E+02 -0.26622695190E+03  0.32751535647E+03  0.17200000000E+03 0. -1.
         -6    1    1    2    0  502 -0.59782729941E+02  0.56846670998E+02 -0.48859899252E+01  0.19082293285E+03  0.17200000000E+03 0. -1.
</event>
<event>
 4    1 -0.3305908E-004  0.2586637E+03  0.7818608E-02  0.1107949E+00
          5   -1    0    0  501    0  0.00000000000E+00  0.00000000000E+00  0.59735835610E+02  0.59920447729E+02  0.47000000000E+01 0. -1.
         -5   -1    0    0    0  501 -0.00000000000E+00 -0.00000000000E+00 -0.11543061602E+04  0.11543157287E+04  0.47000000000E+01 0.  1.
          6    1    1    2  502    0 -0.19195465473E+03  0.21825006601E+02 -0.43981363460E+03  0.51023813417E+03  0.17200000000E+03 0. -1.
         -6    1    1    2    0  502  0.19195465473E+03 -0.21825006601E+02 -0.65475669002E+03  0.70399804227E+03  0.17200000000E+03 0.  1.
</event>
<event>
 4    1 -0.3305908E-004  0.2069698E+03  0.7818608E-02  0.1143988E+00
         -5   -1    0    0    0  501 -0.00000000000E+00  0.00000000000E+00  0.28039522832E+03  0.28043461638E+03  0.47000000000E+01 0.  1.
          5   -1    0    0  501    0  0.00000000000E+00 -0.00000000000E+00 -0.15808393356E+03  0.15815378607E+03  0.47000000000E+01 0. -1.
          6    1    1    2  502    0  0.10219725248E+03 -0.52992516819E+02  0.20645441862E+02  0.20799692191E+03  0.17200000000E+03 0. -1.
         -6    1    1    2    0  502 -0.10219725248E+03  0.52992516819E+02  0.10166585290E+03  0.23059148054E+03  0.17200000000E+03 0.  1.
</event>
<event>
 4    1 -0.3305908E-004  0.3769297E+03  0.7818608E-02  0.1052074E+00
          5   -1    0    0  501    0  0.00000000000E+00  0.00000000000E+00  0.13872501919E+04  0.13872581537E+04  0.47000000000E+01 0. -1.
         -5   -1    0    0    0  501 -0.00000000000E+00 -0.00000000000E+00 -0.16746742807E+03  0.16753336821E+03  0.47000000000E+01 0.  1.
          6    1    1    2  502    0 -0.19767454763E+03  0.27095534120E+03  0.10945002280E+04  0.11575866157E+04  0.17200000000E+03 0. -1.
         -6    1    1    2    0  502  0.19767454763E+03 -0.27095534120E+03  0.12528253577E+03  0.39720490615E+03  0.17200000000E+03 0.  1.
</event>
<event>
 4    1 -0.3305908E-004  0.2460535E+03  0.7818608E-02  0.1115825E+00
          5   -1    0    0  501    0  0.00000000000E+00  0.00000000000E+00  0.58661079337E+03  0.58662962157E+03  0.47000000000E+01 0. -1.
         -5   -1    0    0    0  501 -0.00000000000E+00 -0.00000000000E+00 -0.22520169079E+03  0.22525073037E+03  0.47000000000E+01 0.  1.
          6    1    1    2  502    0 -0.13298955958E+02  0.17544645429E+03  0.47950760755E+03  0.53895256401E+03  0.17200000000E+03 0. -1.
         -6    1    1    2    0  502  0.13298955958E+02 -0.17544645429E+03 -0.11809850497E+03  0.27292778793E+03  0.17200000000E+03 0. -1.
</event>
<event>
 4    1 -0.3305908E-004  0.2535245E+03  0.7818608E-02  0.1111097E+00
         -5   -1    0    0    0  501 -0.00000000000E+00  0.00000000000E+00  0.33669463044E+02  0.33995922428E+02  0.47000000000E+01 0.  1.
          5   -1    0    0  501    0  0.00000000000E+00 -0.00000000000E+00 -0.20107043550E+04  0.20107098481E+04  0.47000000000E+01 0. -1.
          6    1    1    2  502    0  0.11846508066E+02 -0.18587713930E+03 -0.12289810995E+04  0.12548582364E+04  0.17200000000E+03 0.  1.
         -6    1    1    2    0  502 -0.11846508066E+02  0.18587713930E+03 -0.74805379250E+03  0.78984753411E+03  0.17200000000E+03 0.  1.
</event>
<event>
 4    1 -0.3305908E-004  0.2079593E+03  0.7818608E-02  0.1143192E+00
          5   -1    0    0  501    0  0.00000000000E+00  0.00000000000E+00  0.63261535518E+02  0.63435887919E+02  0.47000000000E+01 0. -1.
         -5   -1    0    0    0  501 -0.00000000000E+00 -0.00000000000E+00 -0.73394447887E+03  0.73395952754E+03  0.47000000000E+01 0.  1.
          6    1    1    2  502    0 -0.10799348763E+03 -0.44726883120E+02 -0.22980001336E+03  0.30992762636E+03  0.17200000000E+03 0. -1.
         -6    1    1    2    0  502  0.10799348763E+03  0.44726883120E+02 -0.44088293000E+03  0.48746778910E+03  0.17200000000E+03 0.  1.
</event>
<event>
 4    1 -0.3305908E-004  0.1941316E+03  0.7818608E-02  0.1154787E+00
          5   -1    0    0  501    0  0.00000000000E+00  0.00000000000E+00  0.38636098708E+03  0.38638957328E+03  0.47000000000E+01 0. -1.
         -5   -1    0    0    0  501 -0.00000000000E+00 -0.00000000000E+00 -0.12067346459E+03  0.12076495790E+03  0.47000000000E+01 0.  1.
          6    1    1    2  502    0 -0.89938343653E+02 -0.37665613623E+01  0.24401348414E+03  0.31181672997E+03  0.17200000000E+03 0. -1.
         -6    1    1    2    0  502  0.89938343653E+02  0.37665613623E+01  0.21674038351E+02  0.19533780121E+03  0.17200000000E+03 0.  1.
</event>
<event>
 4    1 -0.3305908E-004  0.2693954E+03  0.7818608E-02  0.1101626E+00
          5   -1    0    0  501    0  0.00000000000E+00  0.00000000000E+00  0.86022541409E+03  0.86023825365E+03  0.47000000000E+01 0. -1.
         -5   -1    0    0    0  501 -0.00000000000E+00 -0.00000000000E+00 -0.97823091137E+02  0.97935933955E+02  0.47000000000E+01 0.  1.
          6    1    1    2  502    0  0.17314501930E+03 -0.11406436675E+03  0.55929081027E+03  0.62078989032E+03  0.17200000000E+03 0. -1.
         -6    1    1    2    0  502 -0.17314501930E+03  0.11406436675E+03  0.20311151268E+03  0.33738429728E+03  0.17200000000E+03 0.  1.
</event>
<event>
 4    1 -0.3305908E-004  0.1727234E+03  0.7818608E-02  0.1175037E+00
          5   -1    0    0  501    0  0.00000000000E+00  0.00000000000E+00  0.75060417336E+03  0.75061888802E+03  0.47000000000E+01 0. -1.
         -5   -1    0    0    0  501 -0.00000000000E+00 -0.00000000000E+00 -0.46147400385E+02  0.46386124674E+02  0.47000000000E+01 0.  1.
          6    1    1    2  502    0 -0.14410991673E+02  0.64578002374E+01  0.50198464942E+03  0.53086906871E+03  0.17200000000E+03 0. -1.
         -6    1    1    2    0  502  0.14410991673E+02 -0.64578002374E+01  0.20247212355E+03  0.26613594398E+03  0.17200000000E+03 0.  1.
</event>
<event>
 4    1 -0.3305908E-004  0.1873953E+03  0.7818608E-02  0.1160832E+00
          5   -1    0    0  501    0  0.00000000000E+00  0.00000000000E+00  0.82944963942E+03  0.82946295537E+03  0.47000000000E+01 0. -1.
         -5   -1    0    0    0  501 -0.00000000000E+00 -0.00000000000E+00 -0.84780296465E+02  0.84910474434E+02  0.47000000000E+01 0.  1.
          6    1    1    2  502    0  0.74095613866E+02  0.65460473288E+01  0.69596466345E+03  0.72075226223E+03  0.17200000000E+03 0. -1.
         -6    1    1    2    0  502 -0.74095613866E+02 -0.65460473288E+01  0.48704679504E+02  0.19362116758E+03  0.17200000000E+03 0.  1.
</event>
<event>
 4    1 -0.3305908E-004  0.2019233E+03  0.7818608E-02  0.1148126E+00
          5   -1    0    0  501    0  0.00000000000E+00  0.00000000000E+00  0.59695321477E+03  0.59697171677E+03  0.47000000000E+01 0. -1.
         -5   -1    0    0    0  501 -0.00000000000E+00 -0.00000000000E+00 -0.68660629958E+02  0.68821305612E+02  0.47000000000E+01 0.  1.
          6    1    1    2  502    0 -0.42168294265E+02  0.97009506185E+02  0.29133554841E+03  0.35447060682E+03  0.17200000000E+03 0.  1.
         -6    1    1    2    0  502  0.42168294265E+02 -0.97009506185E+02  0.23695703640E+03  0.31132241556E+03  0.17200000000E+03 0.  1.
</event>
<event>
 4    1 -0.3305908E-004  0.1781251E+03  0.7818608E-02  0.1169630E+00
         -5   -1    0    0    0  501 -0.00000000000E+00  0.00000000000E+00  0.24865922965E+02  0.25306207241E+02  0.47000000000E+01 0.  1.
          5   -1    0    0  501    0  0.00000000000E+00 -0.00000000000E+00 -0.12771206713E+04  0.12771293196E+04  0.47000000000E+01 0. -1.
          6    1    1    2  502    0 -0.29278048621E+02  0.35879383128E+02 -0.69125540856E+03  0.71383651779E+03  0.17200000000E+03 0. -1.
         -6    1    1    2    0  502  0.29278048621E+02 -0.35879383128E+02 -0.56099933975E+03  0.58859900906E+03  0.17200000000E+03 0.  1.
</event>
<event>
 4    1 -0.3305908E-004  0.4422440E+03  0.7818608E-02  0.1030061E+00
          5   -1    0    0  501    0  0.00000000000E+00  0.00000000000E+00  0.13355745400E+03  0.13364012691E+03  0.47000000000E+01 0. -1.
         -5   -1    0    0    0  501 -0.00000000000E+00 -0.00000000000E+00 -0.14660724044E+04  0.14660799382E+04  0.47000000000E+01 0.  1.
          6    1    1    2  502    0  0.31286185138E+03 -0.26098512946E+03 -0.69741762885E+03  0.82581543027E+03  0.17200000000E+03 0. -1.
         -6    1    1    2    0  502 -0.31286185138E+03  0.26098512946E+03 -0.63509732159E+03  0.77390463479E+03  0.17200000000E+03 0.  1.
</event>
<event>
 4    1 -0.3305908E-004  0.2473636E+03  0.7818608E-02  0.1114982E+00
         -5   -1    0    0    0  501 -0.00000000000E+00  0.00000000000E+00  0.96271129298E+02  0.96385789079E+02  0.47000000000E+01 0.  1.
          5   -1    0    0  501    0  0.00000000000E+00 -0.00000000000E+00 -0.92101110019E+03  0.92102309237E+03  0.47000000000E+01 0. -1.
          6    1    1    2  502    0 -0.10786433941E+03 -0.14131537795E+03 -0.69578877522E+03  0.73845160403E+03  0.17200000000E+03 0. -1.
         -6    1    1    2    0  502  0.10786433941E+03  0.14131537795E+03 -0.12895119567E+03  0.27895727742E+03  0.17200000000E+03 0.  1.
</event>
<event>
 4    1 -0.3305908E-004  0.1916672E+03  0.7818608E-02  0.1156966E+00
         -5   -1    0    0    0  501 -0.00000000000E+00  0.00000000000E+00  0.65725565091E+02  0.65893398049E+02  0.47000000000E+01 0.  1.
          5   -1    0    0  501    0  0.00000000000E+00 -0.00000000000E+00 -0.93720694282E+03  0.93721872776E+03  0.47000000000E+01 0. -1.
          6    1    1    2  502    0  0.78890024937E+02  0.30473948929E+02 -0.75472697331E+03  0.77868421189E+03  0.17200000000E+03 0. -1.
         -6    1    1    2    0  502 -0.78890024937E+02 -0.30473948929E+02 -0.11675440442E+03  0.22442791392E+03  0.17200000000E+03 0.  1.
</event>
<event>
 4    1 -0.3305908E-004  0.2836794E+03  0.7818608E-02  0.1093696E+00
          5   -1    0    0  501    0  0.00000000000E+00  0.00000000000E+00  0.11029892410E+03  0.11039901565E+03  0.47000000000E+01 0. -1.
         -5   -1    0    0    0  501 -0.00000000000E+00 -0.00000000000E+00 -0.15154676301E+04  0.15154749183E+04  0.47000000000E+01 0.  1.
          6    1    1    2  502    0  0.33520081370E+00 -0.22558787464E+03 -0.11703477525E+03  0.30687316624E+03  0.17200000000E+03 0. -1.
         -6    1    1    2    0  502 -0.33520081370E+00  0.22558787464E+03 -0.12881339307E+04  0.13190007677E+04  0.17200000000E+03 0.  1.
</event>
<event>
 4    1 -0.3305908E-004  0.1845532E+03  0.7818608E-02  0.1163468E+00
          5   -1    0    0  501    0  0.00000000000E+00  0.00000000000E+00  0.45145629543E+03  0.45148076003E+03  0.47000000000E+01 0. -1.
         -5   -1    0    0    0  501 -0.00000000000E+00 -0.00000000000E+00 -0.76377469975E+02  0.76521944041E+02  0.47000000000E+01 0.  1.
          6    1    1    2  502    0 -0.58406900752E+02  0.32627173032E+02  0.21820330872E+03  0.28578415353E+03  0.17200000000E+03 0.  1.
         -6    1    1    2    0  502  0.58406900752E+02 -0.32627173032E+02  0.15687551674E+03  0.24221855054E+03  0.17200000000E+03 0.  1.
</event>
<event>
 4    1 -0.3305908E-004  0.2706739E+03  0.7818608E-02  0.1100895E+00
          5   -1    0    0  501    0  0.00000000000E+00  0.00000000000E+00  0.20305078859E+03  0.20310517656E+03  0.47000000000E+01 0. -1.
         -5   -1    0    0    0  501 -0.00000000000E+00 -0.00000000000E+00 -0.43956375497E+03  0.43958888144E+03  0.47000000000E+01 0.  1.
          6    1    1    2  502    0  0.20365139252E+03 -0.46973018844E+02  0.17844677655E+02  0.27126147293E+03  0.17200000000E+03 0. -1.
         -6    1    1    2    0  502 -0.20365139252E+03  0.46973018844E+02 -0.25435764403E+03  0.37143258507E+03  0.17200000000E+03 0.  1.
</event>
<event>
 4    1 -0.3305908E-004  0.3929106E+03  0.7818608E-02  0.1046262E+00
         -5   -1    0    0    0  501 -0.00000000000E+00  0.00000000000E+00  0.37637442260E+03  0.37640376723E+03  0.47000000000E+01 0.  1.
          5   -1    0    0  501    0  0.00000000000E+00 -0.00000000000E+00 -0.48619156948E+03  0.48621428633E+03  0.47000000000E+01 0. -1.
          6    1    1    2  502    0  0.10868657692E+03  0.33612795522E+03 -0.22551180835E+03  0.45302797925E+03  0.17200000000E+03 0. -1.
         -6    1    1    2    0  502 -0.10868657692E+03 -0.33612795522E+03  0.11569466147E+03  0.40959007431E+03  0.17200000000E+03 0.  1.
</event>
<event>
 4    1 -0.3305908E-004  0.1787751E+03  0.7818608E-02  0.1168994E+00
         -5   -1    0    0    0  501 -0.00000000000E+00  0.00000000000E+00  0.34928260820E+03  0.34931422872E+03  0.47000000000E+01 0.  1.
          5   -1    0    0  501    0  0.00000000000E+00 -0.00000000000E+00 -0.12057929923E+03  0.12067086394E+03  0.47000000000E+01 0. -1.
          6    1    1    2  502    0  0.19440356607E+02 -0.44705835776E+02 -0.11672991682E+01  0.17877891879E+03  0.17200000000E+03 0. -1.
         -6    1    1    2    0  502 -0.19440356607E+02  0.44705835776E+02  0.22987060813E+03  0.29120617387E+03  0.17200000000E+03 0.  1.
</event>
<event>
 4    1 -0.3305908E-004  0.2007463E+03  0.7818608E-02  0.1149111E+00
          5   -1    0    0  501    0  0.00000000000E+00  0.00000000000E+00  0.52832264874E+03  0.52834355411E+03  0.47000000000E+01 0. -1.
         -5   -1    0    0    0  501 -0.00000000000E+00 -0.00000000000E+00 -0.96137652533E+02  0.96252471316E+02  0.47000000000E+01 0.  1.
          6    1    1    2  502    0 -0.91245712637E+02 -0.48880282898E+02  0.73922030648E+02  0.21392411913E+03  0.17200000000E+03 0.  1.
         -6    1    1    2    0  502  0.91245712637E+02  0.48880282898E+02  0.35826296556E+03  0.41067190630E+03  0.17200000000E+03 0.  1.
</event>
<event>
 4    1 -0.3305908E-004  0.1749525E+03  0.7818608E-02  0.1172779E+00
         -5   -1    0    0    0  501 -0.00000000000E+00  0.00000000000E+00  0.31694729181E+03  0.31698213796E+03  0.47000000000E+01 0.  1.
          5   -1    0    0  501    0  0.00000000000E+00 -0.00000000000E+00 -0.11358883330E+03  0.11368602838E+03  0.47000000000E+01 0. -1.
          6    1    1    2  502    0 -0.32005877778E+02 -0.13346102756E+00  0.18148152257E+02  0.17589130011E+03  0.17200000000E+03 0. -1.
         -6    1    1    2    0  502  0.32005877778E+02  0.13346102756E+00  0.18521030626E+03  0.25477686624E+03  0.17200000000E+03 0.  1.
</event>
<event>
 4    1 -0.3305908E-004  0.2074307E+03  0.7818608E-02  0.1143617E+00
         -5   -1    0    0    0  501 -0.00000000000E+00  0.00000000000E+00  0.78229449754E+02  0.78370509816E+02  0.47000000000E+01 0.  1.
          5   -1    0    0  501    0  0.00000000000E+00 -0.00000000000E+00 -0.14746710935E+04  0.14746785833E+04  0.47000000000E+01 0. -1.
          6    1    1    2  502    0  0.11414516408E+03  0.20355860825E+02 -0.13132934187E+04  0.13295740232E+04  0.17200000000E+03 0. -1.
         -6    1    1    2    0  502 -0.11414516408E+03 -0.20355860825E+02 -0.83148225084E+02  0.22347506995E+03  0.17200000000E+03 0.  1.
</event>
<event>
 4    1 -0.3305908E-004  0.2320078E+03  0.7818608E-02  0.1125235E+00
         -5   -1    0    0    0  501 -0.00000000000E+00  0.00000000000E+00  0.60302991418E+02  0.60485872515E+02  0.47000000000E+01 0.  1.
          5   -1    0    0  501    0  0.00000000000E+00 -0.00000000000E+00 -0.10433289380E+04  0.10433395243E+04  0.47000000000E+01 0. -1.
          6    1    1    2  502    0 -0.39389401920E+02  0.15063887819E+03 -0.70232658750E+03  0.73965548204E+03  0.17200000000E+03 0. -1.
         -6    1    1    2    0  502  0.39389401920E+02 -0.15063887819E+03 -0.28069935911E+03  0.36416991475E+03  0.17200000000E+03 0.  1.
</event>
<event>
 4    1 -0.3305908E-004  0.1992239E+03  0.7818608E-02  0.1150395E+00
          5   -1    0    0  501    0  0.00000000000E+00  0.00000000000E+00  0.23712846014E+03  0.23717503370E+03  0.47000000000E+01 0. -1.
         -5   -1    0    0    0  501 -0.00000000000E+00 -0.00000000000E+00 -0.18544769517E+03  0.18550724419E+03  0.47000000000E+01 0.  1.
          6    1    1    2  502    0 -0.59317016220E+02 -0.81164361306E+02 -0.40284935689E+02  0.20325608971E+03  0.17200000000E+03 0. -1.
         -6    1    1    2    0  502  0.59317016220E+02  0.81164361306E+02  0.91965700656E+02  0.21942618817E+03  0.17200000000E+03 0.  1.
</event>
<event>
 4    1 -0.3305908E-004  0.2328768E+03  0.7818608E-02  0.1124631E+00
         -5   -1    0    0    0  501 -0.00000000000E+00  0.00000000000E+00  0.43008274475E+02  0.43264323331E+02  0.47000000000E+01 0.  1.
          5   -1    0    0  501    0  0.00000000000E+00 -0.00000000000E+00 -0.17739912056E+04  0.17739974316E+04  0.47000000000E+01 0. -1.
          6    1    1    2  502    0  0.14333773066E+03 -0.64045998307E+02 -0.13559928493E+04  0.13758445414E+04  0.17200000000E+03 0. -1.
         -6    1    1    2    0  502 -0.14333773066E+03  0.64045998307E+02 -0.37499008183E+03  0.44141721353E+03  0.17200000000E+03 0.  1.
</event>
<event>
 4    1 -0.3305908E-004  0.2041888E+03  0.7818608E-02  0.1146252E+00
          5   -1    0    0  501    0  0.00000000000E+00  0.00000000000E+00  0.36685861234E+02  0.36985705542E+02  0.47000000000E+01 0. -1.
         -5   -1    0    0    0  501 -0.00000000000E+00 -0.00000000000E+00 -0.11656536450E+04  0.11656631203E+04  0.47000000000E+01 0.  1.
          6    1    1    2  502    0  0.97024060207E+02  0.51917064057E+02 -0.46165478430E+03  0.50479519577E+03  0.17200000000E+03 0. -1.
         -6    1    1    2    0  502 -0.97024060207E+02 -0.51917064057E+02 -0.66731299942E+03  0.69785363006E+03  0.17200000000E+03 0.  1.
</event>
<event>
 4    1 -0.3305908E-004  0.2089646E+03  0.7818608E-02  0.1142389E+00
         -5   -1    0    0    0  501 -0.00000000000E+00  0.00000000000E+00  0.57375377328E+02  0.57567559646E+02  0.47000000000E+01 0.  1.
          5   -1    0    0  501    0  0.00000000000E+00 -0.00000000000E+00 -0.87744106105E+03  0.87745364870E+03  0.47000000000E+01 0. -1.
          6    1    1    2  502    0  0.27478937633E+01 -0.11863656283E+03 -0.23871629023E+03  0.31725644545E+03  0.17200000000E+03 0.  1.
         -6    1    1    2    0  502 -0.27478937633E+01  0.11863656283E+03 -0.58134939349E+03  0.61776476289E+03  0.17200000000E+03 0. -1.
</event>
<event>
 4    1 -0.3305908E-004  0.3337835E+03  0.7818608E-02  0.1069475E+00
         -5   -1    0    0    0  501 -0.00000000000E+00  0.00000000000E+00  0.57754667641E+02  0.57945592018E+02  0.47000000000E+01 0.  1.
          5   -1    0    0  501    0  0.00000000000E+00 -0.00000000000E+00 -0.22219976282E+04  0.22220025989E+04  0.47000000000E+01 0. -1.
          6    1    1    2  502    0 -0.14270967449E+03 -0.24791405090E+03 -0.14984063449E+04  0.15351328940E+04  0.17200000000E+03 0. -1.
         -6    1    1    2    0  502  0.14270967449E+03  0.24791405090E+03 -0.66583661562E+03  0.74481529692E+03  0.17200000000E+03 0.  1.
</event>
<event>
 4    1 -0.3305908E-004  0.2263220E+03  0.7818608E-02  0.1129256E+00
         -5   -1    0    0    0  501 -0.00000000000E+00  0.00000000000E+00  0.27807881972E+03  0.27811853584E+03  0.47000000000E+01 0.  1.
          5   -1    0    0  501    0  0.00000000000E+00 -0.00000000000E+00 -0.42154244828E+03  0.42156864886E+03  0.47000000000E+01 0. -1.
          6    1    1    2  502    0 -0.13889820725E+03  0.48424719369E+02 -0.33425980181E+03  0.40367224394E+03  0.17200000000E+03 0. -1.
         -6    1    1    2    0  502  0.13889820725E+03 -0.48424719369E+02  0.19079617325E+03  0.29601494075E+03  0.17200000000E+03 0.  1.
</event>
<event>
 4    1 -0.3305908E-004  0.1808239E+03  0.7818608E-02  0.1167008E+00
          5   -1    0    0  501    0  0.00000000000E+00  0.00000000000E+00  0.22570329359E+03  0.22575222421E+03  0.47000000000E+01 0. -1.
         -5   -1    0    0    0  501 -0.00000000000E+00 -0.00000000000E+00 -0.30455033093E+03  0.30458659535E+03  0.47000000000E+01 0.  1.
          6    1    1    2  502    0  0.86338609278E+01  0.55124721011E+02  0.15261416604E+03  0.23661860049E+03  0.17200000000E+03 0. -1.
         -6    1    1    2    0  502 -0.86338609278E+01 -0.55124721011E+02 -0.23146120338E+03  0.29372021907E+03  0.17200000000E+03 0.  1.
</event>
<event>
 4    1 -0.3305908E-004  0.1762862E+03  0.7818608E-02  0.1171446E+00
         -5   -1    0    0    0  501 -0.00000000000E+00  0.00000000000E+00  0.10193787108E+04  0.10193895458E+04  0.47000000000E+01 0.  1.
          5   -1    0    0  501    0  0.00000000000E+00 -0.00000000000E+00 -0.70956133577E+02  0.71111622764E+02  0.47000000000E+01 0. -1.
          6    1    1    2  502    0  0.22867404337E+02  0.31143321752E+02  0.62234288235E+02  0.18694900723E+03  0.17200000000E+03 0. -1.
         -6    1    1    2    0  502 -0.22867404337E+02 -0.31143321752E+02  0.88618828900E+03  0.90355216132E+03  0.17200000000E+03 0.  1.
</event>
<event>
 4    1 -0.3305908E-004  0.2208689E+03  0.7818608E-02  0.1133237E+00
         -5   -1    0    0    0  501 -0.00000000000E+00  0.00000000000E+00  0.27567681295E+03  0.27571687507E+03  0.47000000000E+01 0.  1.
          5   -1    0    0  501    0  0.00000000000E+00 -0.00000000000E+00 -0.31688145008E+03  0.31691630347E+03  0.47000000000E+01 0. -1.
          6    1    1    2  502    0  0.42329009559E+02 -0.13193679111E+03 -0.21753755896E+03  0.31000911512E+03  0.17200000000E+03 0. -1.
         -6    1    1    2    0  502 -0.42329009559E+02  0.13193679111E+03  0.17633292184E+03  0.28262406342E+03  0.17200000000E+03 0.  1.
</event>
<event>
 4    1 -0.3305908E-004  0.2020518E+03  0.7818608E-02  0.1148019E+00
          5   -1    0    0  501    0  0.00000000000E+00  0.00000000000E+00  0.53177718521E+02  0.53385014256E+02  0.47000000000E+01 0. -1.
         -5   -1    0    0    0  501 -0.00000000000E+00 -0.00000000000E+00 -0.16526912813E+04  0.16526979643E+04  0.47000000000E+01 0.  1.
          6    1    1    2  502    0 -0.53555564242E+02 -0.91502682197E+02 -0.17496981556E+03  0.26728145403E+03  0.17200000000E+03 0. -1.
         -6    1    1    2    0  502  0.53555564242E+02  0.91502682197E+02 -0.14245437472E+04  0.14388015246E+04  0.17200000000E+03 0.  1.
</event>
<event>
 4    1 -0.3305908E-004  0.1953002E+03  0.7818608E-02  0.1153766E+00
         -5   -1    0    0    0  501 -0.00000000000E+00  0.00000000000E+00  0.11029025184E+04  0.11029125329E+04  0.47000000000E+01 0.  1.
          5   -1    0    0  501    0  0.00000000000E+00 -0.00000000000E+00 -0.37478485363E+02  0.37772038138E+02  0.47000000000E+01 0. -1.
          6    1    1    2  502    0  0.87611675639E+02  0.29704633604E+02  0.37029582110E+03  0.41864205008E+03  0.17200000000E+03 0. -1.
         -6    1    1    2    0  502 -0.87611675639E+02 -0.29704633604E+02  0.69512821198E+03  0.72204252095E+03  0.17200000000E+03 0.  1.
</event>
<event>
 4    1 -0.3305908E-004  0.1823471E+03  0.7818608E-02  0.1165551E+00
         -5   -1    0    0    0  501 -0.00000000000E+00  0.00000000000E+00  0.10109470366E+04  0.10109579619E+04  0.47000000000E+01 0.  1.
          5   -1    0    0  501    0  0.00000000000E+00 -0.00000000000E+00 -0.37687207339E+02  0.37979146871E+02  0.47000000000E+01 0. -1.
          6    1    1    2  502    0  0.51060150763E+02 -0.32547078632E+02  0.29687493776E+03  0.34840376002E+03  0.17200000000E+03 0. -1.
         -6    1    1    2    0  502 -0.51060150763E+02  0.32547078632E+02  0.67638489150E+03  0.70053334880E+03  0.17200000000E+03 0.  1.
</event>
<event>
 4    1 -0.3305908E-004  0.1919890E+03  0.7818608E-02  0.1156680E+00
         -5   -1    0    0    0  501 -0.00000000000E+00  0.00000000000E+00  0.33557327019E+03  0.33560618240E+03  0.47000000000E+01 0.  1.
          5   -1    0    0  501    0  0.00000000000E+00 -0.00000000000E+00 -0.12357422172E+03  0.12366356890E+03  0.47000000000E+01 0. -1.
          6    1    1    2  502    0  0.85260267780E+02  0.25440135257E+01  0.29240751239E+02  0.19420300410E+03  0.17200000000E+03 0. -1.
         -6    1    1    2    0  502 -0.85260267780E+02 -0.25440135257E+01  0.18275829723E+03  0.26506674721E+03  0.17200000000E+03 0.  1.
</event>
<event>
 4    1 -0.3305908E-004  0.2414403E+03  0.7818608E-02  0.1118837E+00
          5   -1    0    0  501    0  0.00000000000E+00  0.00000000000E+00  0.19695658167E+03  0.19701265204E+03  0.47000000000E+01 0. -1.
         -5   -1    0    0    0  501 -0.00000000000E+00 -0.00000000000E+00 -0.32227062543E+03  0.32230489605E+03  0.47000000000E+01 0.  1.
          6    1    1    2  502    0  0.14661387035E+02 -0.16880308305E+03  0.11673681331E+02  0.24172238612E+03  0.17200000000E+03 0. -1.
         -6    1    1    2    0  502 -0.14661387035E+02  0.16880308305E+03 -0.13698772509E+03  0.27759516196E+03  0.17200000000E+03 0.  1.
</event>
<event>
 4    1 -0.3305908E-004  0.1826719E+03  0.7818608E-02  0.1165242E+00
         -5   -1    0    0    0  501 -0.00000000000E+00  0.00000000000E+00  0.55068612372E+02  0.55268816421E+02  0.47000000000E+01 0.  1.
          5   -1    0    0  501    0  0.00000000000E+00 -0.00000000000E+00 -0.62141782345E+03  0.62143559707E+03  0.47000000000E+01 0. -1.
          6    1    1    2  502    0 -0.24950393565E+02 -0.56236269056E+02 -0.22759655733E+03  0.29183768263E+03  0.17200000000E+03 0.  1.
         -6    1    1    2    0  502  0.24950393565E+02  0.56236269056E+02 -0.33875265375E+03  0.38486673086E+03  0.17200000000E+03 0. -1.
</event>
<event>
 4    1 -0.3305908E-004  0.1980315E+03  0.7818608E-02  0.1151411E+00
          5   -1    0    0  501    0  0.00000000000E+00  0.00000000000E+00  0.30060292957E+03  0.30063967014E+03  0.47000000000E+01 0. -1.
         -5   -1    0    0    0  501 -0.00000000000E+00 -0.00000000000E+00 -0.22225383439E+03  0.22230352427E+03  0.47000000000E+01 0.  1.
          6    1    1    2  502    0  0.83835624423E+02  0.51029930166E+02  0.20725317041E+03  0.28665369759E+03  0.17200000000E+03 0. -1.
         -6    1    1    2    0  502 -0.83835624423E+02 -0.51029930166E+02 -0.12890407524E+03  0.23628949682E+03  0.17200000000E+03 0.  1.
</event>
<event>
 4    1 -0.3305908E-004  0.4270570E+03  0.7818608E-02  0.1034794E+00
          5   -1    0    0  501    0  0.00000000000E+00  0.00000000000E+00  0.22298870576E+03  0.22303823192E+03  0.47000000000E+01 0. -1.
         -5   -1    0    0    0  501 -0.00000000000E+00 -0.00000000000E+00 -0.10913568258E+04  0.10913669462E+04  0.47000000000E+01 0.  1.
          6    1    1    2  502    0  0.28663187907E+03  0.26577408257E+03 -0.10511898157E+03  0.43980415795E+03  0.17200000000E+03 0. -1.
         -6    1    1    2    0  502 -0.28663187907E+03 -0.26577408257E+03 -0.76324913849E+03  0.87460102017E+03  0.17200000000E+03 0.  1.
</event>
<event>
 4    1 -0.3305908E-004  0.1874452E+03  0.7818608E-02  0.1160786E+00
         -5   -1    0    0    0  501 -0.00000000000E+00  0.00000000000E+00  0.18628247522E+03  0.18634175746E+03  0.47000000000E+01 0.  1.
          5   -1    0    0  501    0  0.00000000000E+00 -0.00000000000E+00 -0.20569948945E+03  0.20575317727E+03  0.47000000000E+01 0. -1.
          6    1    1    2  502    0  0.62305148744E+02  0.40863012713E+02 -0.66387561395E+02  0.19885428252E+03  0.17200000000E+03 0. -1.
         -6    1    1    2    0  502 -0.62305148744E+02 -0.40863012713E+02  0.46970547168E+02  0.19324065222E+03  0.17200000000E+03 0.  1.
</event>
<event>
 4    1 -0.3305908E-004  0.2811095E+03  0.7818608E-02  0.1095084E+00
         -5   -1    0    0    0  501 -0.00000000000E+00  0.00000000000E+00  0.13232259847E+04  0.13232343317E+04  0.47000000000E+01 0.  1.
          5   -1    0    0  501    0  0.00000000000E+00 -0.00000000000E+00 -0.13305822957E+03  0.13314121247E+03  0.47000000000E+01 0. -1.
          6    1    1    2  502    0  0.21959375444E+03  0.34887820409E+02  0.54384901111E+02  0.28632201185E+03  0.17200000000E+03 0. -1.
         -6    1    1    2    0  502 -0.21959375444E+03 -0.34887820409E+02  0.11357828540E+04  0.11700535323E+04  0.17200000000E+03 0.  1.
</event>
<event>
 4    1 -0.3305908E-004  0.2148750E+03  0.7818608E-02  0.1137763E+00
          5   -1    0    0  501    0  0.00000000000E+00  0.00000000000E+00  0.46535231926E+03  0.46537605336E+03  0.47000000000E+01 0. -1.
         -5   -1    0    0    0  501 -0.00000000000E+00 -0.00000000000E+00 -0.99414669038E+02  0.99525707332E+02  0.47000000000E+01 0.  1.
          6    1    1    2  502    0 -0.78881799144E+02  0.10180829791E+03  0.19791463677E+03  0.29213262606E+03  0.17200000000E+03 0. -1.
         -6    1    1    2    0  502  0.78881799144E+02 -0.10180829791E+03  0.16802301346E+03  0.27276913464E+03  0.17200000000E+03 0.  1.
</event>
<event>
 4    1 -0.3305908E-004  0.2500295E+03  0.7818608E-02  0.1113286E+00
         -5   -1    0    0    0  501 -0.00000000000E+00  0.00000000000E+00  0.18921326812E+03  0.18927163240E+03  0.47000000000E+01 0.  1.
          5   -1    0    0  501    0  0.00000000000E+00 -0.00000000000E+00 -0.33694087179E+03  0.33697365042E+03  0.47000000000E+01 0. -1.
          6    1    1    2  502    0 -0.40145353337E+02  0.17697208804E+03 -0.36837755052E+02  0.25272868760E+03  0.17200000000E+03 0. -1.
         -6    1    1    2    0  502  0.40145353337E+02 -0.17697208804E+03 -0.11088984861E+03  0.27351659523E+03  0.17200000000E+03 0.  1.
</event>
<event>
 4    1 -0.3305908E-004  0.1784058E+03  0.7818608E-02  0.1169355E+00
          5   -1    0    0  501    0  0.00000000000E+00  0.00000000000E+00  0.42785938379E+03  0.42788519757E+03  0.47000000000E+01 0. -1.
         -5   -1    0    0    0  501 -0.00000000000E+00 -0.00000000000E+00 -0.76262265611E+02  0.76406957511E+02  0.47000000000E+01 0.  1.
          6    1    1    2  502    0 -0.33091991727E+01  0.47261931064E+02  0.13527582284E+03  0.22389325397E+03  0.17200000000E+03 0.  1.
         -6    1    1    2    0  502  0.33091991727E+01 -0.47261931064E+02  0.21632129534E+03  0.28039890111E+03  0.17200000000E+03 0. -1.
</event>
<event>
 4    1 -0.3305908E-004  0.2483698E+03  0.7818608E-02  0.1114339E+00
         -5   -1    0    0    0  501 -0.00000000000E+00  0.00000000000E+00  0.76197256510E+03  0.76198706023E+03  0.47000000000E+01 0.  1.
          5   -1    0    0  501    0  0.00000000000E+00 -0.00000000000E+00 -0.16500191334E+03  0.16506883839E+03  0.47000000000E+01 0. -1.
          6    1    1    2  502    0  0.17565910467E+03 -0.35319368550E+02 -0.32377513381E+02  0.25047132016E+03  0.17200000000E+03 0. -1.
         -6    1    1    2    0  502 -0.17565910467E+03  0.35319368550E+02  0.62934816514E+03  0.67658457846E+03  0.17200000000E+03 0.  1.
</event>
<event>
 4    1 -0.3305908E-004  0.2485221E+03  0.7818608E-02  0.1114242E+00
         -5   -1    0    0    0  501 -0.00000000000E+00  0.00000000000E+00  0.53895169409E+03  0.53897218718E+03  0.47000000000E+01 0.  1.
          5   -1    0    0  501    0  0.00000000000E+00 -0.00000000000E+00 -0.15633388781E+03  0.15640452192E+03  0.47000000000E+01 0. -1.
          6    1    1    2  502    0 -0.17365279482E+03  0.44988017417E+02  0.11571578435E+02  0.24879131072E+03  0.17200000000E+03 0. -1.
         -6    1    1    2    0  502  0.17365279482E+03 -0.44988017417E+02  0.37104622784E+03  0.44658539839E+03  0.17200000000E+03 0.  1.
</event>
<event>
 4    1 -0.3305908E-004  0.1834122E+03  0.7818608E-02  0.1164541E+00
          5   -1    0    0  501    0  0.00000000000E+00  0.00000000000E+00  0.29629468675E+03  0.29633196148E+03  0.47000000000E+01 0. -1.
         -5   -1    0    0    0  501 -0.00000000000E+00 -0.00000000000E+00 -0.11427407128E+03  0.11437068403E+03  0.47000000000E+01 0.  1.
          6    1    1    2  502    0 -0.34206818901E+01 -0.63594969386E+02  0.73504188475E+02  0.19759272992E+03  0.17200000000E+03 0. -1.
         -6    1    1    2    0  502  0.34206818901E+01  0.63594969386E+02  0.10851642700E+03  0.21310991559E+03  0.17200000000E+03 0. -1.
</event>
<event>
 4    1 -0.3305908E-004  0.2262227E+03  0.7818608E-02  0.1129327E+00
         -5   -1    0    0    0  501 -0.00000000000E+00  0.00000000000E+00  0.30310879591E+03  0.30314523278E+03  0.47000000000E+01 0.  1.
          5   -1    0    0  501    0  0.00000000000E+00 -0.00000000000E+00 -0.17715529895E+03  0.17721763441E+03  0.47000000000E+01 0. -1.
          6    1    1    2  502    0 -0.12046031598E+03  0.84154787254E+02  0.11524696123E+03  0.25388693944E+03  0.17200000000E+03 0. -1.
         -6    1    1    2    0  502  0.12046031598E+03 -0.84154787254E+02  0.10706535727E+02  0.22647592775E+03  0.17200000000E+03 0.  1.
</event>
<event>
 4    1 -0.3305908E-004  0.2308215E+03  0.7818608E-02  0.1126063E+00
         -5   -1    0    0    0  501 -0.00000000000E+00  0.00000000000E+00  0.10328192588E+04  0.10328299528E+04  0.47000000000E+01 0.  1.
          5   -1    0    0  501    0  0.00000000000E+00 -0.00000000000E+00 -0.62322320258E+02  0.62499292815E+02  0.47000000000E+01 0. -1.
          6    1    1    2  502    0 -0.10985128449E+03 -0.10782967188E+03  0.25706373780E+03  0.34548561205E+03  0.17200000000E+03 0. -1.
         -6    1    1    2    0  502  0.10985128449E+03  0.10782967188E+03  0.71343320075E+03  0.74984363355E+03  0.17200000000E+03 0.  1.
</event>
<event>
 4    1 -0.3305908E-004  0.3635813E+03  0.7818608E-02  0.1057175E+00
         -5   -1    0    0    0  501 -0.00000000000E+00  0.00000000000E+00  0.27334001124E+03  0.27338041580E+03  0.47000000000E+01 0.  1.
          5   -1    0    0  501    0  0.00000000000E+00 -0.00000000000E+00 -0.50450854859E+03  0.50453044071E+03  0.47000000000E+01 0. -1.
          6    1    1    2  502    0  0.19816913799E+03  0.25166717970E+03 -0.19489848989E+03  0.41252490586E+03  0.17200000000E+03 0. -1.
         -6    1    1    2    0  502 -0.19816913799E+03 -0.25166717970E+03 -0.36270047460E+02  0.36538595065E+03  0.17200000000E+03 0.  1.
</event>
<event>
 4    1 -0.3305908E-004  0.1895291E+03  0.7818608E-02  0.1158887E+00
         -5   -1    0    0    0  501 -0.00000000000E+00  0.00000000000E+00  0.12890777634E+03  0.12899342929E+03  0.47000000000E+01 0.  1.
          5   -1    0    0  501    0  0.00000000000E+00 -0.00000000000E+00 -0.33927588662E+03  0.33930843968E+03  0.47000000000E+01 0. -1.
          6    1    1    2  502    0 -0.45931090714E+02  0.65020237342E+02 -0.20430079053E+03  0.27867563469E+03  0.17200000000E+03 0. -1.
         -6    1    1    2    0  502  0.45931090714E+02 -0.65020237342E+02 -0.60673197476E+01  0.18962623428E+03  0.17200000000E+03 0.  1.
</event>
<event>
 4    1 -0.3305908E-004  0.1817906E+03  0.7818608E-02  0.1166081E+00
          5   -1    0    0  501    0  0.00000000000E+00  0.00000000000E+00  0.74193427896E+02  0.74342146478E+02  0.47000000000E+01 0. -1.
         -5   -1    0    0    0  501 -0.00000000000E+00 -0.00000000000E+00 -0.50662163253E+03  0.50664343334E+03  0.47000000000E+01 0.  1.
          6    1    1    2  502    0  0.29071396936E+02  0.51172912588E+02 -0.31765602136E+03  0.36599612158E+03  0.17200000000E+03 0.  1.
         -6    1    1    2    0  502 -0.29071396936E+02 -0.51172912588E+02 -0.11477218328E+03  0.21498945825E+03  0.17200000000E+03 0. -1.
</event>
<event>
 4    1 -0.3305908E-004  0.2663001E+03  0.7818608E-02  0.1103416E+00
         -5   -1    0    0    0  501 -0.00000000000E+00  0.00000000000E+00  0.18948262554E+03  0.18954090688E+03  0.47000000000E+01 0.  1.
          5   -1    0    0  501    0  0.00000000000E+00 -0.00000000000E+00 -0.41529598742E+03  0.41532258206E+03  0.47000000000E+01 0. -1.
          6    1    1    2  502    0 -0.16876012705E+03  0.11336554580E+03 -0.20811543294E+03  0.33797597678E+03  0.17200000000E+03 0.  1.
         -6    1    1    2    0  502  0.16876012705E+03 -0.11336554580E+03 -0.17697928947E+02  0.26688751216E+03  0.17200000000E+03 0. -1.
</event>
<event>
 4    1 -0.3305908E-004  0.2572355E+03  0.7818608E-02  0.1108816E+00
          5   -1    0    0  501    0  0.00000000000E+00  0.00000000000E+00  0.35995854907E+03  0.35998923185E+03  0.47000000000E+01 0. -1.
         -5   -1    0    0    0  501 -0.00000000000E+00 -0.00000000000E+00 -0.24350213952E+03  0.24354749424E+03  0.47000000000E+01 0.  1.
          6    1    1    2  502    0  0.64979243611E+02 -0.17989938081E+03  0.20767758990E+03  0.33060561196E+03  0.17200000000E+03 0.  1.
         -6    1    1    2    0  502 -0.64979243611E+02  0.17989938081E+03 -0.91221180352E+02  0.27293111413E+03  0.17200000000E+03 0.  1.
</event>
<event>
 4    1 -0.3305908E-004  0.2070141E+03  0.7818608E-02  0.1143953E+00
         -5   -1    0    0    0  501 -0.00000000000E+00  0.00000000000E+00  0.72992075768E+03  0.72993588930E+03  0.47000000000E+01 0.  1.
          5   -1    0    0  501    0  0.00000000000E+00 -0.00000000000E+00 -0.77874900012E+02  0.78016601130E+02  0.47000000000E+01 0. -1.
          6    1    1    2  502    0 -0.11152325765E+02 -0.11465808942E+03  0.52676159582E+03  0.56597935534E+03  0.17200000000E+03 0.  1.
         -6    1    1    2    0  502  0.11152325765E+02  0.11465808942E+03  0.12528426184E+03  0.24197313509E+03  0.17200000000E+03 0. -1.
</event>
<event>
 4    1 -0.3305908E-004  0.2165121E+03  0.7818608E-02  0.1136510E+00
         -5   -1    0    0    0  501 -0.00000000000E+00  0.00000000000E+00  0.25069162401E+03  0.25073567825E+03  0.47000000000E+01 0.  1.
          5   -1    0    0  501    0  0.00000000000E+00 -0.00000000000E+00 -0.24755996263E+03  0.24760457406E+03  0.47000000000E+01 0. -1.
          6    1    1    2  502    0  0.12278338378E+02 -0.13093022977E+03  0.12488013561E+03  0.24994505582E+03  0.17200000000E+03 0.  1.
         -6    1    1    2    0  502 -0.12278338378E+02  0.13093022977E+03 -0.12174847423E+03  0.24839519649E+03  0.17200000000E+03 0.  1.
</event>
<event>
 4    1 -0.3305908E-004  0.2597411E+03  0.7818608E-02  0.1107299E+00
         -5   -1    0    0    0  501 -0.00000000000E+00  0.00000000000E+00  0.17288239726E+03  0.17294627282E+03  0.47000000000E+01 0.  1.
          5   -1    0    0  501    0  0.00000000000E+00 -0.00000000000E+00 -0.65773570311E+03  0.65775249536E+03  0.47000000000E+01 0. -1.
          6    1    1    2  502    0 -0.36741474729E+02  0.19113215872E+03 -0.50736232858E+03  0.56998418445E+03  0.17200000000E+03 0. -1.
         -6    1    1    2    0  502  0.36741474729E+02 -0.19113215872E+03  0.22509022726E+02  0.26071458372E+03  0.17200000000E+03 0.  1.
</event>
<event>
 4    1 -0.3305908E-004  0.1781836E+03  0.7818608E-02  0.1169573E+00
          5   -1    0    0  501    0  0.00000000000E+00  0.00000000000E+00  0.49065289395E+02  0.49289883581E+02  0.47000000000E+01 0. -1.
         -5   -1    0    0    0  501 -0.00000000000E+00 -0.00000000000E+00 -0.10542711426E+04  0.10542816190E+04  0.47000000000E+01 0.  1.
          6    1    1    2  502    0 -0.11313093006E+02  0.45137798019E+02 -0.15900367438E+03  0.23881284586E+03  0.17200000000E+03 0. -1.
         -6    1    1    2    0  502  0.11313093006E+02 -0.45137798019E+02 -0.84620217888E+03  0.86475865675E+03  0.17200000000E+03 0.  1.
</event>
<event>
 4    1 -0.3305908E-004  0.1878389E+03  0.7818608E-02  0.1160425E+00
         -5   -1    0    0    0  501 -0.00000000000E+00  0.00000000000E+00  0.78494006174E+03  0.78495413275E+03  0.47000000000E+01 0.  1.
          5   -1    0    0  501    0  0.00000000000E+00 -0.00000000000E+00 -0.44966773819E+02  0.45211732412E+02  0.47000000000E+01 0. -1.
          6    1    1    2  502    0 -0.69095642588E+01  0.75177812536E+02  0.34579281261E+03  0.39351761692E+03  0.17200000000E+03 0.  1.
         -6    1    1    2    0  502  0.69095642588E+01 -0.75177812536E+02  0.39418047530E+03  0.43664824824E+03  0.17200000000E+03 0.  1.
</event>
<event>
 4    1 -0.3305908E-004  0.3739216E+03  0.7818608E-02  0.1053203E+00
          5   -1    0    0  501    0  0.00000000000E+00  0.00000000000E+00  0.19819363684E+04  0.19819419413E+04  0.47000000000E+01 0. -1.
         -5   -1    0    0    0  501 -0.00000000000E+00 -0.00000000000E+00 -0.90044113009E+02  0.90166691675E+02  0.47000000000E+01 0.  1.
          6    1    1    2  502    0  0.17785735238E+03 -0.28035719569E+03  0.14287114259E+04  0.14768323309E+04  0.17200000000E+03 0. -1.
         -6    1    1    2    0  502 -0.17785735238E+03  0.28035719569E+03  0.46318082951E+03  0.59527630206E+03  0.17200000000E+03 0.  1.
</event>
<event>
 4    1 -0.3305908E-004  0.2393135E+03  0.7818608E-02  0.1120251E+00
          5   -1    0    0  501    0  0.00000000000E+00  0.00000000000E+00  0.11681836622E+04  0.11681931171E+04  0.47000000000E+01 0. -1.
         -5   -1    0    0    0  501 -0.00000000000E+00 -0.00000000000E+00 -0.10345783075E+03  0.10356453420E+03  0.47000000000E+01 0.  1.
          6    1    1    2  502    0  0.80807105529E+02  0.14545497178E+03  0.99372303781E+03  0.10221332658E+04  0.17200000000E+03 0. -1.
         -6    1    1    2    0  502 -0.80807105529E+02 -0.14545497178E+03  0.71002793686E+02  0.24962438549E+03  0.17200000000E+03 0.  1.
</event>
<event>
 4    1 -0.3305908E-004  0.2174797E+03  0.7818608E-02  0.1135776E+00
         -5   -1    0    0    0  501 -0.00000000000E+00  0.00000000000E+00  0.36608725156E+03  0.36611742072E+03  0.47000000000E+01 0.  1.
          5   -1    0    0  501    0  0.00000000000E+00 -0.00000000000E+00 -0.12980037391E+03  0.12988543824E+03  0.47000000000E+01 0. -1.
          6    1    1    2  502    0  0.11301752749E+03 -0.70288261260E+02  0.10018069522E+03  0.23944430017E+03  0.17200000000E+03 0. -1.
         -6    1    1    2    0  502 -0.11301752749E+03  0.70288261260E+02  0.13610618243E+03  0.25655855879E+03  0.17200000000E+03 0.  1.
</event>
<event>
 4    1 -0.3305908E-004  0.3948249E+03  0.7818608E-02  0.1045586E+00
         -5   -1    0    0    0  501 -0.00000000000E+00  0.00000000000E+00  0.11218614424E+03  0.11228455352E+03  0.47000000000E+01 0.  1.
          5   -1    0    0  501    0  0.00000000000E+00 -0.00000000000E+00 -0.16622875991E+04  0.16622942436E+04  0.47000000000E+01 0. -1.
          6    1    1    2  502    0 -0.34872124145E+03 -0.68529039148E+02 -0.11349222541E+04  0.12016385714E+04  0.17200000000E+03 0. -1.
         -6    1    1    2    0  502  0.34872124145E+03  0.68529039148E+02 -0.41517920081E+03  0.57294022570E+03  0.17200000000E+03 0. -1.
</event>
<event>
 4    1 -0.3305908E-004  0.2125140E+03  0.7818608E-02  0.1139591E+00
          5   -1    0    0  501    0  0.00000000000E+00  0.00000000000E+00  0.10436810581E+04  0.10436916408E+04  0.47000000000E+01 0. -1.
         -5   -1    0    0    0  501 -0.00000000000E+00 -0.00000000000E+00 -0.43363490285E+02  0.43617453957E+02  0.47000000000E+01 0.  1.
          6    1    1    2  502    0 -0.80815401653E+02  0.95116070034E+02  0.46069262698E+03  0.50734592979E+03  0.17200000000E+03 0. -1.
         -6    1    1    2    0  502  0.80815401653E+02 -0.95116070034E+02  0.53962494082E+03  0.57996316493E+03  0.17200000000E+03 0.  1.
</event>
<event>
 4    1 -0.3305908E-004  0.2086519E+03  0.7818608E-02  0.1142638E+00
          5   -1    0    0  501    0  0.00000000000E+00  0.00000000000E+00  0.88668522079E+02  0.88792999767E+02  0.47000000000E+01 0. -1.
         -5   -1    0    0    0  501 -0.00000000000E+00 -0.00000000000E+00 -0.50480349604E+03  0.50482537537E+03  0.47000000000E+01 0.  1.
          6    1    1    2  502    0  0.94861158228E+01  0.11773537021E+03 -0.15813510254E+03  0.26180587169E+03  0.17200000000E+03 0. -1.
         -6    1    1    2    0  502 -0.94861158228E+01 -0.11773537021E+03 -0.25799987142E+03  0.33181250345E+03  0.17200000000E+03 0.  1.
</event>
<event>
 4    1 -0.3305908E-004  0.3324452E+03  0.7818608E-02  0.1070060E+00
         -5   -1    0    0    0  501 -0.00000000000E+00  0.00000000000E+00  0.14787715083E+04  0.14787789773E+04  0.47000000000E+01 0.  1.
          5   -1    0    0  501    0  0.00000000000E+00 -0.00000000000E+00 -0.82479673246E+02  0.82613476496E+02  0.47000000000E+01 0. -1.
          6    1    1    2  502    0  0.27662059586E+03  0.66459416316E+02  0.45791813263E+03  0.56586997117E+03  0.17200000000E+03 0. -1.
         -6    1    1    2    0  502 -0.27662059586E+03 -0.66459416316E+02  0.93837370245E+03  0.99552248268E+03  0.17200000000E+03 0. -1.
</event>
<event>
 4    1 -0.3305908E-004  0.2034954E+03  0.7818608E-02  0.1146823E+00
          5   -1    0    0  501    0  0.00000000000E+00  0.00000000000E+00  0.18936527607E+03  0.18942359352E+03  0.47000000000E+01 0. -1.
         -5   -1    0    0    0  501 -0.00000000000E+00 -0.00000000000E+00 -0.37175644777E+03  0.37178615689E+03  0.47000000000E+01 0.  1.
          6    1    1    2  502    0 -0.34902427665E+02 -0.10299605619E+03  0.88910816524E+02  0.22207093539E+03  0.17200000000E+03 0. -1.
         -6    1    1    2    0  502  0.34902427665E+02  0.10299605619E+03 -0.27130198822E+03  0.33913881503E+03  0.17200000000E+03 0.  1.
</event>
<event>
 4    1 -0.3305908E-004  0.3315363E+03  0.7818608E-02  0.1070459E+00
         -5   -1    0    0    0  501 -0.00000000000E+00  0.00000000000E+00  0.48473695449E+03  0.48475973951E+03  0.47000000000E+01 0.  1.
          5   -1    0    0  501    0  0.00000000000E+00 -0.00000000000E+00 -0.24513964727E+03  0.24518469908E+03  0.47000000000E+01 0. -1.
          6    1    1    2  502    0 -0.27637212814E+03 -0.62855036422E+02  0.19719600632E+02  0.33212222369E+03  0.17200000000E+03 0. -1.
         -6    1    1    2    0  502  0.27637212814E+03  0.62855036422E+02  0.21987770659E+03  0.39782221491E+03  0.17200000000E+03 0.  1.
</event>
<event>
 4    1 -0.3305908E-004  0.2063673E+03  0.7818608E-02  0.1144475E+00
         -5   -1    0    0    0  501 -0.00000000000E+00  0.00000000000E+00  0.23493245950E+03  0.23497946831E+03  0.47000000000E+01 0.  1.
          5   -1    0    0  501    0  0.00000000000E+00 -0.00000000000E+00 -0.18259947175E+03  0.18265994931E+03  0.47000000000E+01 0. -1.
          6    1    1    2  502    0  0.10588516954E+03 -0.42329498053E+02  0.44574383444E+02  0.21112633941E+03  0.17200000000E+03 0.  1.
         -6    1    1    2    0  502 -0.10588516954E+03  0.42329498053E+02  0.77586043104E+01  0.20651307822E+03  0.17200000000E+03 0.  1.
</event>
<event>
 4    1 -0.3305908E-004  0.2221178E+03  0.7818608E-02  0.1132314E+00
         -5   -1    0    0    0  501 -0.00000000000E+00  0.00000000000E+00  0.46937188422E+03  0.46939541508E+03  0.47000000000E+01 0.  1.
          5   -1    0    0  501    0  0.00000000000E+00 -0.00000000000E+00 -0.11081590322E+03  0.11091552825E+03  0.47000000000E+01 0. -1.
          6    1    1    2  502    0 -0.14039889818E+03 -0.63624455893E+01  0.11303064872E+03  0.24922331126E+03  0.17200000000E+03 0. -1.
         -6    1    1    2    0  502  0.14039889818E+03  0.63624455893E+01  0.24552533228E+03  0.33108763208E+03  0.17200000000E+03 0.  1.
</event>
<event>
 4    1 -0.3305908E-004  0.3610541E+03  0.7818608E-02  0.1058167E+00
         -5   -1    0    0    0  501 -0.00000000000E+00  0.00000000000E+00  0.24555064349E+03  0.24559561991E+03  0.47000000000E+01 0.  1.
          5   -1    0    0  501    0  0.00000000000E+00 -0.00000000000E+00 -0.55180648476E+03  0.55182650047E+03  0.47000000000E+01 0. -1.
          6    1    1    2  502    0  0.31180361239E+03  0.59620030796E+02 -0.23094497841E+03  0.42859727464E+03  0.17200000000E+03 0. -1.
         -6    1    1    2    0  502 -0.31180361239E+03 -0.59620030796E+02 -0.75310862863E+02  0.36882484574E+03  0.17200000000E+03 0.  1.
</event>
<event>
 4    1 -0.3305908E-004  0.2285808E+03  0.7818608E-02  0.1127643E+00
         -5   -1    0    0    0  501 -0.00000000000E+00  0.00000000000E+00  0.17015997805E+03  0.17022487518E+03  0.47000000000E+01 0.  1.
          5   -1    0    0  501    0  0.00000000000E+00 -0.00000000000E+00 -0.31474469113E+03  0.31477978110E+03  0.47000000000E+01 0. -1.
          6    1    1    2  502    0 -0.12322909350E+03 -0.86485652619E+02 -0.11052766164E+03  0.25390065297E+03  0.17200000000E+03 0. -1.
         -6    1    1    2    0  502  0.12322909350E+03  0.86485652619E+02 -0.34057051434E+02  0.23110400331E+03  0.17200000000E+03 0.  1.
</event>
<event>
 4    1 -0.3305908E-004  0.2067198E+03  0.7818608E-02  0.1144190E+00
          5   -1    0    0  501    0  0.00000000000E+00  0.00000000000E+00  0.30119744790E+03  0.30123411596E+03  0.47000000000E+01 0. -1.
         -5   -1    0    0    0  501 -0.00000000000E+00 -0.00000000000E+00 -0.21937803444E+03  0.21942837554E+03  0.47000000000E+01 0.  1.
          6    1    1    2  502    0 -0.10345713785E+02 -0.11420177362E+03  0.19569112559E+03  0.28465434395E+03  0.17200000000E+03 0. -1.
         -6    1    1    2    0  502  0.10345713785E+02  0.11420177362E+03 -0.11387171213E+03  0.23600814756E+03  0.17200000000E+03 0.  1.
</event>
<event>
 4    1 -0.3305908E-004  0.2118837E+03  0.7818608E-02  0.1140083E+00
          5   -1    0    0  501    0  0.00000000000E+00  0.00000000000E+00  0.44022212671E+03  0.44024721560E+03  0.47000000000E+01 0. -1.
         -5   -1    0    0    0  501 -0.00000000000E+00 -0.00000000000E+00 -0.11375515584E+03  0.11385220894E+03  0.47000000000E+01 0.  1.
          6    1    1    2  502    0  0.12297875848E+03  0.13671454404E+02  0.73843881730E+02  0.22438271451E+03  0.17200000000E+03 0. -1.
         -6    1    1    2    0  502 -0.12297875848E+03 -0.13671454404E+02  0.25262308914E+03  0.32971671003E+03  0.17200000000E+03 0. -1.
</event>
<event>
 4    1 -0.3305908E-004  0.5910038E+03  0.7818608E-02  0.9924248E-01
         -5   -1    0    0    0  501 -0.00000000000E+00  0.00000000000E+00  0.22111711159E+03  0.22116705686E+03  0.47000000000E+01 0.  1.
          5   -1    0    0  501    0  0.00000000000E+00 -0.00000000000E+00 -0.16053494711E+04  0.16053563512E+04  0.47000000000E+01 0. -1.
          6    1    1    2  502    0  0.35692238076E+02  0.56429387050E+03 -0.80820644043E+03  0.10012408094E+04  0.17200000000E+03 0. -1.
         -6    1    1    2    0  502 -0.35692238076E+02 -0.56429387050E+03 -0.57602591906E+03  0.82528259861E+03  0.17200000000E+03 0.  1.
</event>
<event>
 4    1 -0.3305908E-004  0.2952208E+03  0.7818608E-02  0.1087654E+00
          5   -1    0    0  501    0  0.00000000000E+00  0.00000000000E+00  0.38664801448E+03  0.38667657946E+03  0.47000000000E+01 0. -1.
         -5   -1    0    0    0  501 -0.00000000000E+00 -0.00000000000E+00 -0.33913821280E+03  0.33917077908E+03  0.47000000000E+01 0.  1.
          6    1    1    2  502    0 -0.21411116125E+03 -0.10829451943E+03  0.23395314562E+03  0.37668204982E+03  0.17200000000E+03 0. -1.
         -6    1    1    2    0  502  0.21411116125E+03  0.10829451943E+03 -0.18644334394E+03  0.34916530872E+03  0.17200000000E+03 0.  1.
</event>
<event>
 4    1 -0.3305908E-004  0.1859554E+03  0.7818608E-02  0.1162161E+00
         -5   -1    0    0    0  501 -0.00000000000E+00  0.00000000000E+00  0.19246072899E+03  0.19251810877E+03  0.47000000000E+01 0.  1.
          5   -1    0    0  501    0  0.00000000000E+00 -0.00000000000E+00 -0.25490685905E+03  0.25495018492E+03  0.47000000000E+01 0. -1.
          6    1    1    2  502    0 -0.68837266833E+02  0.16026224302E+02 -0.15284023107E+03  0.24070634683E+03  0.17200000000E+03 0.  1.
         -6    1    1    2    0  502  0.68837266833E+02 -0.16026224302E+02  0.90394101009E+02  0.20676194686E+03  0.17200000000E+03 0.  1.
</event>
<event>
 4    1 -0.3305908E-004  0.1773555E+03  0.7818608E-02  0.1170387E+00
         -5   -1    0    0    0  501 -0.00000000000E+00  0.00000000000E+00  0.64530855035E+03  0.64532566596E+03  0.47000000000E+01 0.  1.
          5   -1    0    0  501    0  0.00000000000E+00 -0.00000000000E+00 -0.48785692783E+02  0.49011568230E+02  0.47000000000E+01 0. -1.
          6    1    1    2  502    0 -0.13226408176E+02  0.41182762437E+02  0.27765496832E+03  0.32946508043E+03  0.17200000000E+03 0. -1.
         -6    1    1    2    0  502  0.13226408176E+02 -0.41182762437E+02  0.31886788925E+03  0.36487215376E+03  0.17200000000E+03 0.  1.
</event>
<event>
 4    1 -0.3305908E-004  0.3272761E+03  0.7818608E-02  0.1072349E+00
         -5   -1    0    0    0  501 -0.00000000000E+00  0.00000000000E+00  0.96063234330E+03  0.96064384087E+03  0.47000000000E+01 0.  1.
          5   -1    0    0  501    0  0.00000000000E+00 -0.00000000000E+00 -0.11342924942E+03  0.11352658113E+03  0.47000000000E+01 0. -1.
          6    1    1    2  502    0  0.17876912469E+03  0.21346483464E+03  0.35246386555E+03  0.48097859837E+03  0.17200000000E+03 0. -1.
         -6    1    1    2    0  502 -0.17876912469E+03 -0.21346483464E+03  0.49473922834E+03  0.59319182363E+03  0.17200000000E+03 0.  1.
</event>
<event>
 4    1 -0.3305908E-004  0.1835344E+03  0.7818608E-02  0.1164426E+00
          5   -1    0    0  501    0  0.00000000000E+00  0.00000000000E+00  0.30603109681E+03  0.30606718579E+03  0.47000000000E+01 0. -1.
         -5   -1    0    0    0  501 -0.00000000000E+00 -0.00000000000E+00 -0.22422722080E+03  0.22427647346E+03  0.47000000000E+01 0.  1.
          6    1    1    2  502    0  0.36463490031E+02  0.52642889900E+02  0.23013796197E+03  0.29436090348E+03  0.17200000000E+03 0. -1.
         -6    1    1    2    0  502 -0.36463490031E+02 -0.52642889900E+02 -0.14833408595E+03  0.23598275576E+03  0.17200000000E+03 0.  1.
</event>
<event>
 4    1 -0.3305908E-004  0.1829524E+03  0.7818608E-02  0.1164976E+00
          5   -1    0    0  501    0  0.00000000000E+00  0.00000000000E+00  0.42101999688E+03  0.42104622997E+03  0.47000000000E+01 0. -1.
         -5   -1    0    0    0  501 -0.00000000000E+00 -0.00000000000E+00 -0.80379945131E+02  0.80517237777E+02  0.47000000000E+01 0.  1.
          6    1    1    2  502    0  0.19564144352E+02  0.59201462919E+02  0.14269978021E+03  0.23202326657E+03  0.17200000000E+03 0.  1.
         -6    1    1    2    0  502 -0.19564144352E+02 -0.59201462919E+02  0.19794027154E+03  0.26954020118E+03  0.17200000000E+03 0. -1.
</event>
<event>
 4    1 -0.3305908E-004  0.1904837E+03  0.7818608E-02  0.1158026E+00
         -5   -1    0    0    0  501 -0.00000000000E+00  0.00000000000E+00  0.15447570272E+03  0.15454718610E+03  0.47000000000E+01 0.  1.
          5   -1    0    0  501    0  0.00000000000E+00 -0.00000000000E+00 -0.36853654277E+03  0.36856651144E+03  0.47000000000E+01 0. -1.
          6    1    1    2  502    0 -0.54440215945E+01 -0.81672539266E+02 -0.26460651977E+03  0.32603780662E+03  0.17200000000E+03 0. -1.
         -6    1    1    2    0  502  0.54440215945E+01  0.81672539266E+02  0.50545679723E+02  0.19707589091E+03  0.17200000000E+03 0.  1.
</event>
<event>
 4    1 -0.3305908E-004  0.1933278E+03  0.7818608E-02  0.1155494E+00
         -5   -1    0    0    0  501 -0.00000000000E+00  0.00000000000E+00  0.15543643777E+03  0.15550747952E+03  0.47000000000E+01 0.  1.
          5   -1    0    0  501    0  0.00000000000E+00 -0.00000000000E+00 -0.29004196928E+03  0.29008004748E+03  0.47000000000E+01 0. -1.
          6    1    1    2  502    0  0.26751604228E+02 -0.84118971138E+02 -0.15954249417E+03  0.25065804811E+03  0.17200000000E+03 0. -1.
         -6    1    1    2    0  502 -0.26751604228E+02  0.84118971138E+02  0.24936962653E+02  0.19492947889E+03  0.17200000000E+03 0.  1.
</event>
<event>
 4    1 -0.3305908E-004  0.5829507E+03  0.7818608E-02  0.9941423E-01
         -5   -1    0    0    0  501 -0.00000000000E+00  0.00000000000E+00  0.48989969453E+03  0.48992223944E+03  0.47000000000E+01 0.  1.
          5   -1    0    0  501    0  0.00000000000E+00 -0.00000000000E+00 -0.11265131527E+04  0.11265229573E+04  0.47000000000E+01 0. -1.
          6    1    1    2  502    0  0.50586274861E+03  0.23313181294E+03 -0.81931132218E+03  0.10055359791E+04  0.17200000000E+03 0. -1.
         -6    1    1    2    0  502 -0.50586274861E+03 -0.23313181294E+03  0.18269786399E+03  0.61090921759E+03  0.17200000000E+03 0.  1.
</event>
<event>
 4    1 -0.3305908E-004  0.2007531E+03  0.7818608E-02  0.1149105E+00
          5   -1    0    0  501    0  0.00000000000E+00  0.00000000000E+00  0.41561973289E+03  0.41564630681E+03  0.47000000000E+01 0. -1.
         -5   -1    0    0    0  501 -0.00000000000E+00 -0.00000000000E+00 -0.15967326184E+03  0.15974241937E+03  0.47000000000E+01 0.  1.
          6    1    1    2  502    0 -0.10091530858E+03  0.23106015997E+02  0.30831931894E+03  0.36791655292E+03  0.17200000000E+03 0. -1.
         -6    1    1    2    0  502  0.10091530858E+03 -0.23106015997E+02 -0.52372847890E+02  0.20747217326E+03  0.17200000000E+03 0.  1.
</event>
<event>
 4    1 -0.3305908E-004  0.1852870E+03  0.7818608E-02  0.1162782E+00
         -5   -1    0    0    0  501 -0.00000000000E+00  0.00000000000E+00  0.66002911883E+03  0.66004585272E+03  0.47000000000E+01 0.  1.
          5   -1    0    0  501    0  0.00000000000E+00 -0.00000000000E+00 -0.57336352057E+02  0.57528664744E+02  0.47000000000E+01 0. -1.
          6    1    1    2  502    0 -0.65862080480E+02 -0.20235268234E+02  0.19098963034E+03  0.26609832510E+03  0.17200000000E+03 0. -1.
         -6    1    1    2    0  502  0.65862080480E+02  0.20235268234E+02  0.41170313643E+03  0.45147619236E+03  0.17200000000E+03 0.  1.
</event>
<event>
 4    1 -0.3305908E-004  0.2047967E+03  0.7818608E-02  0.1145754E+00
          5   -1    0    0  501    0  0.00000000000E+00  0.00000000000E+00  0.97643467831E+03  0.97644598980E+03  0.47000000000E+01 0. -1.
         -5   -1    0    0    0  501 -0.00000000000E+00 -0.00000000000E+00 -0.50621193107E+02  0.50838914146E+02  0.47000000000E+01 0.  1.
          6    1    1    2  502    0 -0.83078090130E+02 -0.73862710257E+02  0.66413320363E+03  0.69499250441E+03  0.17200000000E+03 0. -1.
         -6    1    1    2    0  502  0.83078090130E+02  0.73862710257E+02  0.26168028157E+03  0.33229239953E+03  0.17200000000E+03 0. -1.
</event>
<event>
 4    1 -0.3305908E-004  0.6891928E+03  0.7818608E-02  0.9735895E-01
         -5   -1    0    0    0  501 -0.00000000000E+00  0.00000000000E+00  0.88888041356E+03  0.88889283921E+03  0.47000000000E+01 0.  1.
          5   -1    0    0  501    0  0.00000000000E+00 -0.00000000000E+00 -0.61200986782E+03  0.61202791465E+03  0.47000000000E+01 0. -1.
          6    1    1    2  502    0  0.52803326352E+03 -0.40814644865E+03 -0.12890693232E+03  0.70114452728E+03  0.17200000000E+03 0. -1.
         -6    1    1    2    0  502 -0.52803326352E+03  0.40814644865E+03  0.40577747805E+03  0.79977622659E+03  0.17200000000E+03 0.  1.
</event>
<event>
 4    1 -0.3305908E-004  0.1934597E+03  0.7818608E-02  0.1155377E+00
          5   -1    0    0  501    0  0.00000000000E+00  0.00000000000E+00  0.34649314166E+02  0.34966626548E+02  0.47000000000E+01 0. -1.
         -5   -1    0    0    0  501 -0.00000000000E+00 -0.00000000000E+00 -0.13010953436E+04  0.13011038325E+04  0.47000000000E+01 0.  1.
          6    1    1    2  502    0 -0.83855770444E+02  0.28475614806E+02 -0.91172145268E+03  0.93202073912E+03  0.17200000000E+03 0. -1.
         -6    1    1    2    0  502  0.83855770444E+02 -0.28475614806E+02 -0.35472457671E+03  0.40404971996E+03  0.17200000000E+03 0. -1.
</event>
<event>
 4    1 -0.3305908E-004  0.1795321E+03  0.7818608E-02  0.1168257E+00
         -5   -1    0    0    0  501 -0.00000000000E+00  0.00000000000E+00  0.45966686522E+03  0.45969089286E+03  0.47000000000E+01 0.  1.
          5   -1    0    0  501    0  0.00000000000E+00 -0.00000000000E+00 -0.70845985936E+02  0.71001716340E+02  0.47000000000E+01 0. -1.
          6    1    1    2  502    0 -0.43576341697E+02 -0.27365438039E+02  0.22310836874E+03  0.28637232575E+03  0.17200000000E+03 0. -1.
         -6    1    1    2    0  502  0.43576341697E+02  0.27365438039E+02  0.16571251055E+03  0.24432028345E+03  0.17200000000E+03 0.  1.
</event>
<event>
 4    1 -0.3305908E-004  0.2130916E+03  0.7818608E-02  0.1139141E+00
         -5   -1    0    0    0  501 -0.00000000000E+00  0.00000000000E+00  0.78755919424E+03  0.78757321846E+03  0.47000000000E+01 0.  1.
          5   -1    0    0  501    0  0.00000000000E+00 -0.00000000000E+00 -0.69650829302E+02  0.69809225912E+02  0.47000000000E+01 0. -1.
          6    1    1    2  502    0 -0.11480661035E+03 -0.51414619757E+02  0.18048353246E+03  0.27925315825E+03  0.17200000000E+03 0. -1.
         -6    1    1    2    0  502  0.11480661035E+03  0.51414619757E+02  0.53742483248E+03  0.57812928612E+03  0.17200000000E+03 0.  1.
</event>
<event>
 4    1 -0.3305908E-004  0.1736024E+03  0.7818608E-02  0.1174142E+00
          5   -1    0    0  501    0  0.00000000000E+00  0.00000000000E+00  0.14112582347E+04  0.14112660610E+04  0.47000000000E+01 0. -1.
         -5   -1    0    0    0  501 -0.00000000000E+00 -0.00000000000E+00 -0.21254388022E+02  0.21767843489E+02  0.47000000000E+01 0.  1.
          6    1    1    2  502    0 -0.12076112430E+02  0.20198077412E+02  0.63250073592E+03  0.65589250321E+03  0.17200000000E+03 0.  1.
         -6    1    1    2    0  502  0.12076112430E+02 -0.20198077412E+02  0.75750311074E+03  0.77714140129E+03  0.17200000000E+03 0. -1.
</event>
<event>
 4    1 -0.3305908E-004  0.2591841E+03  0.7818608E-02  0.1107634E+00
         -5   -1    0    0    0  501 -0.00000000000E+00  0.00000000000E+00  0.44268755087E+03  0.44271250004E+03  0.47000000000E+01 0.  1.
          5   -1    0    0  501    0  0.00000000000E+00 -0.00000000000E+00 -0.15173627983E+03  0.15180905314E+03  0.47000000000E+01 0. -1.
          6    1    1    2  502    0  0.19250055471E+03  0.23150239514E+02  0.13981000011E+03  0.29448808683E+03  0.17200000000E+03 0. -1.
         -6    1    1    2    0  502 -0.19250055471E+03 -0.23150239514E+02  0.15114127093E+03  0.30003346635E+03  0.17200000000E+03 0.  1.
</event>
<event>
 4    1 -0.3305908E-004  0.2309313E+03  0.7818608E-02  0.1125986E+00
          5   -1    0    0  501    0  0.00000000000E+00  0.00000000000E+00  0.11027539661E+04  0.11027639819E+04  0.47000000000E+01 0. -1.
         -5   -1    0    0    0  501 -0.00000000000E+00 -0.00000000000E+00 -0.48261985477E+02  0.48490300496E+02  0.47000000000E+01 0.  1.
          6    1    1    2  502    0 -0.13856929482E+03 -0.67407784438E+02  0.54066847816E+03  0.58792147618E+03  0.17200000000E+03 0. -1.
         -6    1    1    2    0  502  0.13856929482E+03  0.67407784438E+02  0.51382350243E+03  0.56333280618E+03  0.17200000000E+03 0. -1.
</event>
<event>
 4    1 -0.3305908E-004  0.1843287E+03  0.7818608E-02  0.1163678E+00
         -5   -1    0    0    0  501 -0.00000000000E+00  0.00000000000E+00  0.26570737450E+03  0.26574893953E+03  0.47000000000E+01 0.  1.
          5   -1    0    0  501    0  0.00000000000E+00 -0.00000000000E+00 -0.14413930495E+03  0.14421591186E+03  0.47000000000E+01 0. -1.
          6    1    1    2  502    0 -0.11572917538E+01  0.66270145894E+02 -0.82450976213E+01  0.18451301633E+03  0.17200000000E+03 0. -1.
         -6    1    1    2    0  502  0.11572917538E+01 -0.66270145894E+02  0.12981316716E+03  0.22545183506E+03  0.17200000000E+03 0.  1.
</event>
<event>
 4    1 -0.3305908E-004  0.1772223E+03  0.7818608E-02  0.1170519E+00
         -5   -1    0    0    0  501 -0.00000000000E+00  0.00000000000E+00  0.10400425660E+03  0.10411040002E+03  0.47000000000E+01 0.  1.
          5   -1    0    0  501    0  0.00000000000E+00 -0.00000000000E+00 -0.30658440541E+03  0.30662042927E+03  0.47000000000E+01 0. -1.
          6    1    1    2  502    0 -0.27406394446E+02  0.32751109772E+02 -0.75392545738E+02  0.19259226776E+03  0.17200000000E+03 0. -1.
         -6    1    1    2    0  502  0.27406394446E+02 -0.32751109772E+02 -0.12718760307E+03  0.21813856152E+03  0.17200000000E+03 0. -1.
</event>
<event>
 4    1 -0.3305908E-004  0.3478123E+03  0.7818608E-02  0.1063517E+00
          5   -1    0    0  501    0  0.00000000000E+00  0.00000000000E+00  0.17240955995E+03  0.17247361063E+03  0.47000000000E+01 0. -1.
         -5   -1    0    0    0  501 -0.00000000000E+00 -0.00000000000E+00 -0.14506802660E+04  0.14506878797E+04  0.47000000000E+01 0.  1.
          6    1    1    2  502    0 -0.25941354662E+03 -0.15522237584E+03 -0.55906309695E+02  0.35227672304E+03  0.17200000000E+03 0. -1.
         -6    1    1    2    0  502  0.25941354662E+03  0.15522237584E+03 -0.12223643964E+04  0.12708847673E+04  0.17200000000E+03 0.  1.
</event>
<event>
 4    1 -0.3305908E-004  0.2128597E+03  0.7818608E-02  0.1139321E+00
          5   -1    0    0  501    0  0.00000000000E+00  0.00000000000E+00  0.11448402669E+04  0.11448499145E+04  0.47000000000E+01 0. -1.
         -5   -1    0    0    0  501 -0.00000000000E+00 -0.00000000000E+00 -0.10197126815E+03  0.10207952551E+03  0.47000000000E+01 0.  1.
          6    1    1    2  502    0  0.78798816082E+02  0.97550024377E+02  0.10092237506E+04  0.10314270888E+04  0.17200000000E+03 0. -1.
         -6    1    1    2    0  502 -0.78798816082E+02 -0.97550024377E+02  0.33645248171E+02  0.21550235125E+03  0.17200000000E+03 0.  1.
</event>
<event>
 4    1 -0.3305908E-004  0.2447681E+03  0.7818608E-02  0.1116657E+00
         -5   -1    0    0    0  501 -0.00000000000E+00  0.00000000000E+00  0.12655173867E+04  0.12655261143E+04  0.47000000000E+01 0.  1.
          5   -1    0    0  501    0  0.00000000000E+00 -0.00000000000E+00 -0.10686593915E+03  0.10696924301E+03  0.47000000000E+01 0. -1.
          6    1    1    2  502    0  0.17529959309E+02 -0.17326313075E+03  0.67045941934E+02  0.25378449574E+03  0.17200000000E+03 0. -1.
         -6    1    1    2    0  502 -0.17529959309E+02  0.17326313075E+03  0.10916055056E+04  0.11187108616E+04  0.17200000000E+03 0.  1.
</event>
<event>
 4    1 -0.3305908E-004  0.1811022E+03  0.7818608E-02  0.1166741E+00
          5   -1    0    0  501    0  0.00000000000E+00  0.00000000000E+00  0.14299446527E+03  0.14307168517E+03  0.47000000000E+01 0. -1.
         -5   -1    0    0    0  501 -0.00000000000E+00 -0.00000000000E+00 -0.23133539266E+03  0.23138313227E+03  0.47000000000E+01 0.  1.
          6    1    1    2  502    0  0.50569966938E+02 -0.25625844195E+02 -0.26196946248E+02  0.18298711823E+03  0.17200000000E+03 0.  1.
         -6    1    1    2    0  502 -0.50569966938E+02  0.25625844195E+02 -0.62143981146E+02  0.19146769921E+03  0.17200000000E+03 0.  1.
</event>
<event>
 4    1 -0.3305908E-004  0.2173446E+03  0.7818608E-02  0.1135878E+00
         -5   -1    0    0    0  501 -0.00000000000E+00  0.00000000000E+00  0.27893864425E+02  0.28287058394E+02  0.47000000000E+01 0.  1.
          5   -1    0    0  501    0  0.00000000000E+00 -0.00000000000E+00 -0.17013676974E+04  0.17013741893E+04  0.47000000000E+01 0. -1.
          6    1    1    2  502    0  0.50466362132E+02 -0.12291396404E+03 -0.93072858804E+03  0.95576901020E+03  0.17200000000E+03 0.  1.
         -6    1    1    2    0  502 -0.50466362132E+02  0.12291396404E+03 -0.74274524498E+03  0.77389223746E+03  0.17200000000E+03 0.  1.
</event>
<event>
 4    1 -0.3305908E-004  0.2205448E+03  0.7818608E-02  0.1133478E+00
         -5   -1    0    0    0  501 -0.00000000000E+00  0.00000000000E+00  0.88950806179E+02  0.89074889390E+02  0.47000000000E+01 0.  1.
          5   -1    0    0  501    0  0.00000000000E+00 -0.00000000000E+00 -0.70978622112E+03  0.70980178198E+03  0.47000000000E+01 0. -1.
          6    1    1    2  502    0  0.85349883283E+02 -0.10849606147E+03 -0.50209829184E+03  0.54840012090E+03  0.17200000000E+03 0. -1.
         -6    1    1    2    0  502 -0.85349883283E+02  0.10849606147E+03 -0.11873712310E+03  0.25047655047E+03  0.17200000000E+03 0.  1.
</event>
<event>
 4    1 -0.3305908E-004  0.1786705E+03  0.7818608E-02  0.1169096E+00
         -5   -1    0    0    0  501 -0.00000000000E+00  0.00000000000E+00  0.68636868005E+03  0.68638477179E+03  0.47000000000E+01 0.  1.
          5   -1    0    0  501    0  0.00000000000E+00 -0.00000000000E+00 -0.87596162099E+02  0.87722161478E+02  0.47000000000E+01 0. -1.
          6    1    1    2  502    0  0.44875940575E+02  0.18035526173E+02  0.34170224722E+02  0.18190858832E+03  0.17200000000E+03 0. -1.
         -6    1    1    2    0  502 -0.44875940575E+02 -0.18035526173E+02  0.56460229322E+03  0.59219834495E+03  0.17200000000E+03 0.  1.
</event>
<event>
 4    1 -0.3305908E-004  0.1900227E+03  0.7818608E-02  0.1158441E+00
          5   -1    0    0  501    0  0.00000000000E+00  0.00000000000E+00  0.69933384140E+03  0.69934963483E+03  0.47000000000E+01 0. -1.
         -5   -1    0    0    0  501 -0.00000000000E+00 -0.00000000000E+00 -0.62210570461E+02  0.62387860013E+02  0.47000000000E+01 0.  1.
          6    1    1    2  502    0 -0.71594605863E+02  0.37401192839E+02  0.16086613615E+03  0.24897098340E+03  0.17200000000E+03 0.  1.
         -6    1    1    2    0  502  0.71594605863E+02 -0.37401192839E+02  0.47625713479E+03  0.51276651144E+03  0.17200000000E+03 0. -1.
</event>
<event>
 4    1 -0.3305908E-004  0.1830604E+03  0.7818608E-02  0.1164874E+00
         -5   -1    0    0    0  501 -0.00000000000E+00  0.00000000000E+00  0.58884240632E+03  0.58886116317E+03  0.47000000000E+01 0.  1.
          5   -1    0    0  501    0  0.00000000000E+00 -0.00000000000E+00 -0.83507361875E+02  0.83639521085E+02  0.47000000000E+01 0. -1.
          6    1    1    2  502    0  0.62513552883E+02 -0.43762682895E+01  0.62692276180E+02  0.19349784885E+03  0.17200000000E+03 0. -1.
         -6    1    1    2    0  502 -0.62513552883E+02  0.43762682895E+01  0.44264276827E+03  0.47900283540E+03  0.17200000000E+03 0.  1.
</event>
<event>
 4    1 -0.3305908E-004  0.2129105E+03  0.7818608E-02  0.1139282E+00
          5   -1    0    0  501    0  0.00000000000E+00  0.00000000000E+00  0.21198233559E+03  0.21203443259E+03  0.47000000000E+01 0. -1.
         -5   -1    0    0    0  501 -0.00000000000E+00 -0.00000000000E+00 -0.21443110473E+03  0.21448260693E+03  0.47000000000E+01 0.  1.
          6    1    1    2  502    0  0.10474601923E+03  0.69102493453E+02  0.10892497273E+02  0.21318895291E+03  0.17200000000E+03 0. -1.
         -6    1    1    2    0  502 -0.10474601923E+03 -0.69102493453E+02 -0.13341266408E+02  0.21332808661E+03  0.17200000000E+03 0.  1.
</event>
<event>
 4    1 -0.3305908E-004  0.4495541E+03  0.7818608E-02  0.1027855E+00
          5   -1    0    0  501    0  0.00000000000E+00  0.00000000000E+00  0.34677266920E+03  0.34680451857E+03  0.47000000000E+01 0. -1.
         -5   -1    0    0    0  501 -0.00000000000E+00 -0.00000000000E+00 -0.60685558818E+03  0.60687378828E+03  0.47000000000E+01 0.  1.
          6    1    1    2  502    0  0.40266742536E+03  0.10185214379E+03 -0.34972650367E+02  0.45091240936E+03  0.17200000000E+03 0. -1.
         -6    1    1    2    0  502 -0.40266742536E+03 -0.10185214379E+03 -0.22511026862E+03  0.50276589749E+03  0.17200000000E+03 0. -1.
</event>
<event>
 4    1 -0.3305908E-004  0.2277887E+03  0.7818608E-02  0.1128206E+00
         -5   -1    0    0    0  501 -0.00000000000E+00  0.00000000000E+00  0.70164608649E+02  0.70321848005E+02  0.47000000000E+01 0.  1.
          5   -1    0    0  501    0  0.00000000000E+00 -0.00000000000E+00 -0.11831414453E+04  0.11831507806E+04  0.47000000000E+01 0. -1.
          6    1    1    2  502    0  0.11928460889E+03 -0.89860365900E+02 -0.94066414435E+03  0.96785160833E+03  0.17200000000E+03 0. -1.
         -6    1    1    2    0  502 -0.11928460889E+03  0.89860365900E+02 -0.17231269227E+03  0.28562102023E+03  0.17200000000E+03 0.  1.
</event>
<event>
 4    1 -0.3305908E-004  0.1908554E+03  0.7818608E-02  0.1157692E+00
         -5   -1    0    0    0  501 -0.00000000000E+00  0.00000000000E+00  0.97934717862E+03  0.97935845647E+03  0.47000000000E+01 0.  1.
          5   -1    0    0  501    0  0.00000000000E+00 -0.00000000000E+00 -0.54967744521E+02  0.55168314617E+02  0.47000000000E+01 0. -1.
          6    1    1    2  502    0  0.76562585470E+02 -0.31304019729E+02  0.16742930640E+03  0.25388647815E+03  0.17200000000E+03 0. -1.
         -6    1    1    2    0  502 -0.76562585470E+02  0.31304019729E+02  0.75695012769E+03  0.78064029294E+03  0.17200000000E+03 0.  1.
</event>
<event>
 4    1 -0.3305908E-004  0.3047819E+03  0.7818608E-02  0.1082874E+00
          5   -1    0    0  501    0  0.00000000000E+00  0.00000000000E+00  0.15079807997E+04  0.15079881241E+04  0.47000000000E+01 0. -1.
         -5   -1    0    0    0  501 -0.00000000000E+00 -0.00000000000E+00 -0.10714722122E+03  0.10725025415E+03  0.47000000000E+01 0.  1.
          6    1    1    2  502    0  0.12118397657E+03  0.22050501910E+03  0.12271706004E+04  0.12644523329E+04  0.17200000000E+03 0. -1.
         -6    1    1    2    0  502 -0.12118397657E+03 -0.22050501910E+03  0.17366297806E+03  0.35078604530E+03  0.17200000000E+03 0.  1.
</event>
<event>
 4    1 -0.3305908E-004  0.4365302E+03  0.7818608E-02  0.1031817E+00
         -5   -1    0    0    0  501 -0.00000000000E+00  0.00000000000E+00  0.14930862609E+03  0.14938258207E+03  0.47000000000E+01 0.  1.
          5   -1    0    0  501    0  0.00000000000E+00 -0.00000000000E+00 -0.12930006725E+04  0.12930092146E+04  0.47000000000E+01 0. -1.
          6    1    1    2  502    0 -0.14324436041E+03  0.37477416701E+03 -0.48885862934E+03  0.65539406660E+03  0.17200000000E+03 0. -1.
         -6    1    1    2    0  502  0.14324436041E+03 -0.37477416701E+03 -0.65483341703E+03  0.78699773005E+03  0.17200000000E+03 0.  1.
</event>
<event>
 4    1 -0.3305908E-004  0.2988977E+03  0.7818608E-02  0.1085793E+00
          5   -1    0    0  501    0  0.00000000000E+00  0.00000000000E+00  0.84336098413E+02  0.84466960970E+02  0.47000000000E+01 0. -1.
         -5   -1    0    0    0  501 -0.00000000000E+00 -0.00000000000E+00 -0.14844356001E+04  0.14844430406E+04  0.47000000000E+01 0.  1.
          6    1    1    2  502    0 -0.14587151030E+03 -0.19615633709E+03 -0.27980384640E+03  0.40942642631E+03  0.17200000000E+03 0. -1.
         -6    1    1    2    0  502  0.14587151030E+03  0.19615633709E+03 -0.11202956553E+04  0.11594835753E+04  0.17200000000E+03 0.  1.
</event>
<event>
 4    1 -0.3305908E-004  0.2015320E+03  0.7818608E-02  0.1148453E+00
         -5   -1    0    0    0  501 -0.00000000000E+00  0.00000000000E+00  0.36893523794E+03  0.36896517423E+03  0.47000000000E+01 0.  1.
          5   -1    0    0  501    0  0.00000000000E+00 -0.00000000000E+00 -0.16825606128E+03  0.16832169247E+03  0.47000000000E+01 0. -1.
          6    1    1    2  502    0 -0.65288362926E+02 -0.82271371568E+02 -0.57677822072E+02  0.20962318591E+03  0.17200000000E+03 0. -1.
         -6    1    1    2    0  502  0.65288362926E+02  0.82271371568E+02  0.25835699874E+03  0.32766368079E+03  0.17200000000E+03 0.  1.
</event>
<event>
 4    1 -0.3305908E-004  0.1732791E+03  0.7818608E-02  0.1174471E+00
         -5   -1    0    0    0  501 -0.00000000000E+00  0.00000000000E+00  0.57076829809E+02  0.57270013978E+02  0.47000000000E+01 0.  1.
          5   -1    0    0  501    0  0.00000000000E+00 -0.00000000000E+00 -0.54106421930E+03  0.54108463239E+03  0.47000000000E+01 0. -1.
          6    1    1    2  502    0  0.12667250031E+02 -0.16768191237E+02 -0.29359198534E+03  0.34091331056E+03  0.17200000000E+03 0. -1.
         -6    1    1    2    0  502 -0.12667250031E+02  0.16768191237E+02 -0.19039540415E+03  0.25744133581E+03  0.17200000000E+03 0.  1.
</event>
<event>
 4    1 -0.3305908E-004  0.2725385E+03  0.7818608E-02  0.1099835E+00
          5   -1    0    0  501    0  0.00000000000E+00  0.00000000000E+00  0.39022735963E+03  0.39025566262E+03  0.47000000000E+01 0. -1.
         -5   -1    0    0    0  501 -0.00000000000E+00 -0.00000000000E+00 -0.20472411062E+03  0.20477805417E+03  0.47000000000E+01 0.  1.
          6    1    1    2  502    0  0.21135401938E+03 -0.47664904077E+01  0.17176379842E+03  0.32214910117E+03  0.17200000000E+03 0. -1.
         -6    1    1    2    0  502 -0.21135401938E+03  0.47664904077E+01  0.13739450583E+02  0.27288461562E+03  0.17200000000E+03 0.  1.
</event>
<event>
 4    1 -0.3305908E-004  0.2077578E+03  0.7818608E-02  0.1143354E+00
          5   -1    0    0  501    0  0.00000000000E+00  0.00000000000E+00  0.17461049305E+03  0.17467373667E+03  0.47000000000E+01 0. -1.
         -5   -1    0    0    0  501 -0.00000000000E+00 -0.00000000000E+00 -0.26167317673E+03  0.26171538247E+03  0.47000000000E+01 0.  1.
          6    1    1    2  502    0 -0.11577283465E+03 -0.13265047296E+02  0.80080262176E+01  0.20791209490E+03  0.17200000000E+03 0. -1.
         -6    1    1    2    0  502  0.11577283465E+03  0.13265047296E+02 -0.95070709898E+02  0.22847702423E+03  0.17200000000E+03 0.  1.
</event>
<event>
 4    1 -0.3305908E-004  0.2220722E+03  0.7818608E-02  0.1132348E+00
         -5   -1    0    0    0  501 -0.00000000000E+00  0.00000000000E+00  0.17618996044E+04  0.17619058732E+04  0.47000000000E+01 0.  1.
          5   -1    0    0  501    0  0.00000000000E+00 -0.00000000000E+00 -0.41304066834E+02  0.41570613864E+02  0.47000000000E+01 0. -1.
          6    1    1    2  502    0  0.80425560443E+02  0.11516849484E+03  0.34652925090E+03  0.41158058106E+03  0.17200000000E+03 0. -1.
         -6    1    1    2    0  502 -0.80425560443E+02 -0.11516849484E+03  0.13740662867E+04  0.13918959060E+04  0.17200000000E+03 0.  1.
</event>
<event>
 4    1 -0.3305908E-004  0.3026833E+03  0.7818608E-02  0.1083907E+00
          5   -1    0    0  501    0  0.00000000000E+00  0.00000000000E+00  0.39050005028E+03  0.39052833351E+03  0.47000000000E+01 0. -1.
         -5   -1    0    0    0  501 -0.00000000000E+00 -0.00000000000E+00 -0.24366607369E+03  0.24371139790E+03  0.47000000000E+01 0.  1.
          6    1    1    2  502    0  0.21160711840E+03  0.13136062932E+03  0.13472975222E+03  0.33131449353E+03  0.17200000000E+03 0. -1.
         -6    1    1    2    0  502 -0.21160711840E+03 -0.13136062932E+03  0.12104224379E+02  0.30292523787E+03  0.17200000000E+03 0.  1.
</event>
<event>
 4    1 -0.3305908E-004  0.2253571E+03  0.7818608E-02  0.1129951E+00
          5   -1    0    0  501    0  0.00000000000E+00  0.00000000000E+00  0.17787233771E+03  0.17793442197E+03  0.47000000000E+01 0. -1.
         -5   -1    0    0    0  501 -0.00000000000E+00 -0.00000000000E+00 -0.37098964335E+03  0.37101941388E+03  0.47000000000E+01 0.  1.
          6    1    1    2  502    0 -0.14026444465E+03 -0.39086033177E+02  0.35270567326E+02  0.22810051587E+03  0.17200000000E+03 0. -1.
         -6    1    1    2    0  502  0.14026444465E+03  0.39086033177E+02 -0.22838787297E+03  0.32085331998E+03  0.17200000000E+03 0.  1.
</event>
<event>
 4    1 -0.3305908E-004  0.2647378E+03  0.7818608E-02  0.1104330E+00
          5   -1    0    0  501    0  0.00000000000E+00  0.00000000000E+00  0.17440257334E+03  0.17446589233E+03  0.47000000000E+01 0. -1.
         -5   -1    0    0    0  501 -0.00000000000E+00 -0.00000000000E+00 -0.49876684935E+03  0.49878899348E+03  0.47000000000E+01 0.  1.
          6    1    1    2  502    0 -0.14629382930E+03  0.13820356145E+03 -0.13702601775E+02  0.26509219186E+03  0.17200000000E+03 0. -1.
         -6    1    1    2    0  502  0.14629382930E+03 -0.13820356145E+03 -0.31066167424E+03  0.40816269395E+03  0.17200000000E+03 0.  1.
</event>
<event>
 4    1 -0.3305908E-004  0.3524482E+03  0.7818608E-02  0.1061615E+00
          5   -1    0    0  501    0  0.00000000000E+00  0.00000000000E+00  0.69422187191E+03  0.69423778162E+03  0.47000000000E+01 0. -1.
         -5   -1    0    0    0  501 -0.00000000000E+00 -0.00000000000E+00 -0.56493307300E+03  0.56495262365E+03  0.47000000000E+01 0.  1.
          6    1    1    2  502    0 -0.30284305158E+03  0.54054154928E+02  0.58507386399E+03  0.68303088647E+03  0.17200000000E+03 0. -1.
         -6    1    1    2    0  502  0.30284305158E+03 -0.54054154928E+02 -0.45578506508E+03  0.57615951880E+03  0.17200000000E+03 0.  1.
</event>
<event>
 4    1 -0.3305908E-004  0.2277910E+03  0.7818608E-02  0.1128204E+00
          5   -1    0    0  501    0  0.00000000000E+00  0.00000000000E+00  0.19755005264E+03  0.19760595461E+03  0.47000000000E+01 0. -1.
         -5   -1    0    0    0  501 -0.00000000000E+00 -0.00000000000E+00 -0.28424036905E+03  0.28427922435E+03  0.47000000000E+01 0.  1.
          6    1    1    2  502    0 -0.13865089794E+03  0.55503812100E+02  0.23206517611E+02  0.22897005725E+03  0.17200000000E+03 0. -1.
         -6    1    1    2    0  502  0.13865089794E+03 -0.55503812100E+02 -0.10989683402E+03  0.25291512170E+03  0.17200000000E+03 0.  1.
</event>
<event>
 4    1 -0.3305908E-004  0.1866575E+03  0.7818608E-02  0.1161511E+00
          5   -1    0    0  501    0  0.00000000000E+00  0.00000000000E+00  0.16000202413E+03  0.16007103962E+03  0.47000000000E+01 0. -1.
         -5   -1    0    0    0  501 -0.00000000000E+00 -0.00000000000E+00 -0.21835704901E+03  0.21840762544E+03  0.47000000000E+01 0.  1.
          6    1    1    2  502    0  0.52864292141E+02 -0.49622351188E+02 -0.40226900475E+02  0.19094296175E+03  0.17200000000E+03 0. -1.
         -6    1    1    2    0  502 -0.52864292141E+02  0.49622351188E+02 -0.18128124402E+02  0.18753570331E+03  0.17200000000E+03 0. -1.
</event>
<event>
 4    1 -0.3305908E-004  0.2242829E+03  0.7818608E-02  0.1130730E+00
          5   -1    0    0  501    0  0.00000000000E+00  0.00000000000E+00  0.47700039082E+03  0.47702354537E+03  0.47000000000E+01 0. -1.
         -5   -1    0    0    0  501 -0.00000000000E+00 -0.00000000000E+00 -0.16675807197E+03  0.16682429250E+03  0.47000000000E+01 0.  1.
          6    1    1    2  502    0  0.14159396018E+03  0.25884160989E+02  0.35036632336E+03  0.41600408639E+03  0.17200000000E+03 0. -1.
         -6    1    1    2    0  502 -0.14159396018E+03 -0.25884160989E+02 -0.40124004516E+02  0.22784375148E+03  0.17200000000E+03 0.  1.
</event>
<event>
 4    1 -0.3305908E-004  0.1742537E+03  0.7818608E-02  0.1173483E+00
          5   -1    0    0  501    0  0.00000000000E+00  0.00000000000E+00  0.11870579780E+04  0.11870672824E+04  0.47000000000E+01 0. -1.
         -5   -1    0    0    0  501 -0.00000000000E+00 -0.00000000000E+00 -0.30642451403E+02  0.31000803667E+02  0.47000000000E+01 0.  1.
          6    1    1    2  502    0  0.24645768064E+02  0.13150257964E+02  0.32685046049E+03  0.37039919910E+03  0.17200000000E+03 0. -1.
         -6    1    1    2    0  502 -0.24645768064E+02 -0.13150257964E+02  0.82956506607E+03  0.84766888702E+03  0.17200000000E+03 0. -1.
</event>
<event>
 4    1 -0.3305908E-004  0.2577995E+03  0.7818608E-02  0.1108473E+00
          5   -1    0    0  501    0  0.00000000000E+00  0.00000000000E+00  0.15915191527E+03  0.15922129925E+03  0.47000000000E+01 0. -1.
         -5   -1    0    0    0  501 -0.00000000000E+00 -0.00000000000E+00 -0.43342247566E+03  0.43344795813E+03  0.47000000000E+01 0.  1.
          6    1    1    2  502    0  0.19182262285E+03 -0.89802785329E+01 -0.19407230305E+03  0.32268347161E+03  0.17200000000E+03 0. -1.
         -6    1    1    2    0  502 -0.19182262285E+03  0.89802785329E+01 -0.80198257340E+02  0.26998578577E+03  0.17200000000E+03 0.  1.
</event>
<event>
 4    1 -0.3305908E-004  0.2875382E+03  0.7818608E-02  0.1091641E+00
         -5   -1    0    0    0  501 -0.00000000000E+00  0.00000000000E+00  0.60347411608E+03  0.60349241816E+03  0.47000000000E+01 0.  1.
          5   -1    0    0  501    0  0.00000000000E+00 -0.00000000000E+00 -0.15708315666E+03  0.15715345401E+03  0.47000000000E+01 0. -1.
          6    1    1    2  502    0 -0.60537181852E+01  0.23034234804E+03  0.87054631295E+02  0.30042761796E+03  0.17200000000E+03 0. -1.
         -6    1    1    2    0  502  0.60537181852E+01 -0.23034234804E+03  0.35933632812E+03  0.46021825421E+03  0.17200000000E+03 0.  1.
</event>
<event>
 4    1 -0.3305908E-004  0.2008632E+03  0.7818608E-02  0.1149013E+00
          5   -1    0    0  501    0  0.00000000000E+00  0.00000000000E+00  0.17344942745E+03  0.17351309427E+03  0.47000000000E+01 0. -1.
         -5   -1    0    0    0  501 -0.00000000000E+00 -0.00000000000E+00 -0.27788170355E+03  0.27792144784E+03  0.47000000000E+01 0.  1.
          6    1    1    2  502    0  0.10370332823E+03 -0.27633901705E+01  0.39003652935E+02  0.20461500813E+03  0.17200000000E+03 0. -1.
         -6    1    1    2    0  502 -0.10370332823E+03  0.27633901705E+01 -0.14343592904E+03  0.24681953397E+03  0.17200000000E+03 0.  1.
</event>
<event>
 4    1 -0.3305908E-004  0.1803026E+03  0.7818608E-02  0.1167510E+00
         -5   -1    0    0    0  501 -0.00000000000E+00  0.00000000000E+00  0.60589763367E+03  0.60591586255E+03  0.47000000000E+01 0.  1.
          5   -1    0    0  501    0  0.00000000000E+00 -0.00000000000E+00 -0.67926474895E+02  0.68088883026E+02  0.47000000000E+01 0. -1.
          6    1    1    2  502    0 -0.54079383668E+02 -0.67462320072E+00  0.11408246883E+03  0.21336317524E+03  0.17200000000E+03 0.  1.
         -6    1    1    2    0  502  0.54079383668E+02  0.67462320072E+00  0.42388868995E+03  0.46064157034E+03  0.17200000000E+03 0.  1.
</event>
<event>
 4    1 -0.3305908E-004  0.2217489E+03  0.7818608E-02  0.1132586E+00
         -5   -1    0    0    0  501 -0.00000000000E+00  0.00000000000E+00  0.11972804525E+03  0.11982026048E+03  0.47000000000E+01 0.  1.
          5   -1    0    0  501    0  0.00000000000E+00 -0.00000000000E+00 -0.45033171697E+03  0.45035624267E+03  0.47000000000E+01 0. -1.
          6    1    1    2  502    0 -0.46921481136E+01  0.13988047483E+03 -0.25014297734E+03  0.33428142725E+03  0.17200000000E+03 0. -1.
         -6    1    1    2    0  502  0.46921481136E+01 -0.13988047483E+03 -0.80460694381E+02  0.23589507590E+03  0.17200000000E+03 0.  1.
</event>
<event>
 4    1 -0.3305908E-004  0.2147173E+03  0.7818608E-02  0.1137884E+00
         -5   -1    0    0    0  501 -0.00000000000E+00  0.00000000000E+00  0.82913018585E+03  0.82914350693E+03  0.47000000000E+01 0.  1.
          5   -1    0    0  501    0  0.00000000000E+00 -0.00000000000E+00 -0.55589520248E+02  0.55787854963E+02  0.47000000000E+01 0. -1.
          6    1    1    2  502    0  0.12412666707E+03  0.33348154831E+02  0.36823359923E+03  0.42626225790E+03  0.17200000000E+03 0.  1.
         -6    1    1    2    0  502 -0.12412666707E+03 -0.33348154831E+02  0.40530706637E+03  0.45866910399E+03  0.17200000000E+03 0.  1.
</event>
<event>
 4    1 -0.3305908E-004  0.2449204E+03  0.7818608E-02  0.1116558E+00
          5   -1    0    0  501    0  0.00000000000E+00  0.00000000000E+00  0.87296296176E+03  0.87297561398E+03  0.47000000000E+01 0. -1.
         -5   -1    0    0    0  501 -0.00000000000E+00 -0.00000000000E+00 -0.68722689032E+02  0.68883219929E+02  0.47000000000E+01 0.  1.
          6    1    1    2  502    0  0.39118242856E+02 -0.16991695425E+03  0.42013436806E+03  0.48631152104E+03  0.17200000000E+03 0. -1.
         -6    1    1    2    0  502 -0.39118242856E+02  0.16991695425E+03  0.38410590466E+03  0.45554731287E+03  0.17200000000E+03 0. -1.
</event>
<event>
 4    1 -0.3305908E-004  0.1881298E+03  0.7818608E-02  0.1160159E+00
         -5   -1    0    0    0  501 -0.00000000000E+00  0.00000000000E+00  0.92295880191E+03  0.92297076878E+03  0.47000000000E+01 0.  1.
          5   -1    0    0  501    0  0.00000000000E+00 -0.00000000000E+00 -0.39068418225E+02  0.39350111850E+02  0.47000000000E+01 0. -1.
          6    1    1    2  502    0  0.53160957886E+02 -0.54614442168E+02  0.37010436187E+03  0.41517473841E+03  0.17200000000E+03 0. -1.
         -6    1    1    2    0  502 -0.53160957886E+02  0.54614442168E+02  0.51378602182E+03  0.54714614223E+03  0.17200000000E+03 0.  1.
</event>
<event>
 4    1 -0.3305908E-004  0.1865024E+03  0.7818608E-02  0.1161654E+00
         -5   -1    0    0    0  501 -0.00000000000E+00  0.00000000000E+00  0.16957581465E+03  0.16964093526E+03  0.47000000000E+01 0.  1.
          5   -1    0    0  501    0  0.00000000000E+00 -0.00000000000E+00 -0.22342512929E+03  0.22347455872E+03  0.47000000000E+01 0. -1.
          6    1    1    2  502    0 -0.43552309430E+02 -0.57466064395E+02  0.29525782146E+02  0.18882511492E+03  0.17200000000E+03 0. -1.
         -6    1    1    2    0  502  0.43552309430E+02  0.57466064395E+02 -0.83375096779E+02  0.20429037906E+03  0.17200000000E+03 0. -1.
</event>
<event>
 4    1 -0.3305908E-004  0.2170499E+03  0.7818608E-02  0.1136102E+00
         -5   -1    0    0    0  501 -0.00000000000E+00  0.00000000000E+00  0.74850408676E+02  0.74997824495E+02  0.47000000000E+01 0.  1.
          5   -1    0    0  501    0  0.00000000000E+00 -0.00000000000E+00 -0.97811284947E+03  0.97812414155E+03  0.47000000000E+01 0. -1.
          6    1    1    2  502    0 -0.92671518931E+02 -0.94544448045E+02 -0.13690271900E+03  0.25661842792E+03  0.17200000000E+03 0.  1.
         -6    1    1    2    0  502  0.92671518931E+02  0.94544448045E+02 -0.76635972179E+03  0.79650353813E+03  0.17200000000E+03 0. -1.
</event>
<event>
 4    1 -0.3305908E-004  0.2315942E+03  0.7818608E-02  0.1125523E+00
          5   -1    0    0  501    0  0.00000000000E+00  0.00000000000E+00  0.37022315490E+03  0.37025298706E+03  0.47000000000E+01 0. -1.
         -5   -1    0    0    0  501 -0.00000000000E+00 -0.00000000000E+00 -0.21037504273E+03  0.21042753766E+03  0.47000000000E+01 0.  1.
          6    1    1    2  502    0 -0.21826102755E+01 -0.15507137464E+03  0.24198557073E+03  0.33495210324E+03  0.17200000000E+03 0. -1.
         -6    1    1    2    0  502  0.21826102755E+01  0.15507137464E+03 -0.82137458567E+02  0.24572842148E+03  0.17200000000E+03 0.  1.
</event>
<event>
 4    1 -0.3305908E-004  0.1769858E+03  0.7818608E-02  0.1170752E+00
         -5   -1    0    0    0  501 -0.00000000000E+00  0.00000000000E+00  0.43051304624E+03  0.43053870091E+03  0.47000000000E+01 0.  1.
          5   -1    0    0  501    0  0.00000000000E+00 -0.00000000000E+00 -0.72831983712E+02  0.72983476565E+02  0.47000000000E+01 0. -1.
          6    1    1    2  502    0  0.31330679236E+01 -0.41595125225E+02  0.19120533867E+03  0.26054452996E+03  0.17200000000E+03 0. -1.
         -6    1    1    2    0  502 -0.31330679236E+01  0.41595125225E+02  0.16647572385E+03  0.24297764751E+03  0.17200000000E+03 0. -1.
</event>
<event>
 4    1 -0.3305908E-004  0.1824914E+03  0.7818608E-02  0.1165413E+00
         -5   -1    0    0    0  501 -0.00000000000E+00  0.00000000000E+00  0.25007045347E+03  0.25011461713E+03  0.47000000000E+01 0.  1.
          5   -1    0    0  501    0  0.00000000000E+00 -0.00000000000E+00 -0.13399630887E+03  0.13407871118E+03  0.47000000000E+01 0. -1.
          6    1    1    2  502    0 -0.24039394742E+02 -0.56046658301E+02  0.42138024675E+02  0.18729317534E+03  0.17200000000E+03 0. -1.
         -6    1    1    2    0  502  0.24039394742E+02  0.56046658301E+02  0.73936119928E+02  0.19690015296E+03  0.17200000000E+03 0. -1.
</event>
<event>
 4    1 -0.3305908E-004  0.2074186E+03  0.7818608E-02  0.1143627E+00
          5   -1    0    0  501    0  0.00000000000E+00  0.00000000000E+00  0.28937667596E+03  0.28941484169E+03  0.47000000000E+01 0. -1.
         -5   -1    0    0    0  501 -0.00000000000E+00 -0.00000000000E+00 -0.32918337103E+03  0.32921692205E+03  0.47000000000E+01 0.  1.
          6    1    1    2  502    0  0.90941904798E+02 -0.71889084834E+02  0.20917081315E+03  0.29457579609E+03  0.17200000000E+03 0. -1.
         -6    1    1    2    0  502 -0.90941904798E+02  0.71889084834E+02 -0.24897750823E+03  0.32405596765E+03  0.17200000000E+03 0.  1.
</event>
<event>
 4    1 -0.3305908E-004  0.2108628E+03  0.7818608E-02  0.1140885E+00
         -5   -1    0    0    0  501 -0.00000000000E+00  0.00000000000E+00  0.30674611940E+03  0.30678212426E+03  0.47000000000E+01 0.  1.
          5   -1    0    0  501    0  0.00000000000E+00 -0.00000000000E+00 -0.15780783364E+03  0.15787780831E+03  0.47000000000E+01 0. -1.
          6    1    1    2  502    0 -0.72559681671E+02  0.98052029070E+02  0.79645596214E+01  0.21101313234E+03  0.17200000000E+03 0. -1.
         -6    1    1    2    0  502  0.72559681671E+02 -0.98052029070E+02  0.14097372614E+03  0.25364680024E+03  0.17200000000E+03 0.  1.
</event>
<event>
 4    1 -0.3305908E-004  0.1911812E+03  0.7818608E-02  0.1157400E+00
          5   -1    0    0  501    0  0.00000000000E+00  0.00000000000E+00  0.29102021062E+04  0.29102059015E+04  0.47000000000E+01 0. -1.
         -5   -1    0    0    0  501 -0.00000000000E+00 -0.00000000000E+00 -0.19623680733E+02  0.20178673036E+02  0.47000000000E+01 0.  1.
          6    1    1    2  502    0  0.70118612933E+02  0.45272798885E+02  0.23353678570E+04  0.23431801624E+04  0.17200000000E+03 0. -1.
         -6    1    1    2    0  502 -0.70118612933E+02 -0.45272798885E+02  0.55521056854E+03  0.58720441212E+03  0.17200000000E+03 0.  1.
</event>
<event>
 4    1 -0.3305908E-004  0.2007738E+03  0.7818608E-02  0.1149088E+00
         -5   -1    0    0    0  501 -0.00000000000E+00  0.00000000000E+00  0.25125348322E+03  0.25129743896E+03  0.47000000000E+01 0.  1.
          5   -1    0    0  501    0  0.00000000000E+00 -0.00000000000E+00 -0.16059054553E+03  0.16065930821E+03  0.47000000000E+01 0. -1.
          6    1    1    2  502    0 -0.93338749669E+02 -0.44877541187E+02  0.37257444127E+02  0.20420145209E+03  0.17200000000E+03 0. -1.
         -6    1    1    2    0  502  0.93338749669E+02  0.44877541187E+02  0.53405493558E+02  0.20775529508E+03  0.17200000000E+03 0.  1.
</event>
<event>
 4    1 -0.3305908E-004  0.2107094E+03  0.7818608E-02  0.1141005E+00
          5   -1    0    0  501    0  0.00000000000E+00  0.00000000000E+00  0.94459946090E+03  0.94461115361E+03  0.47000000000E+01 0. -1.
         -5   -1    0    0    0  501 -0.00000000000E+00 -0.00000000000E+00 -0.67221906750E+02  0.67386012993E+02  0.47000000000E+01 0.  1.
          6    1    1    2  502    0 -0.44925708835E+02 -0.11312001570E+03  0.71664982641E+03  0.74698422403E+03  0.17200000000E+03 0. -1.
         -6    1    1    2    0  502  0.44925708835E+02  0.11312001570E+03  0.16072772774E+03  0.26501294257E+03  0.17200000000E+03 0.  1.
</event>
<event>
 4    1 -0.3305908E-004  0.4034964E+03  0.7818608E-02  0.1042576E+00
         -5   -1    0    0    0  501 -0.00000000000E+00  0.00000000000E+00  0.16691504368E+04  0.16691570539E+04  0.47000000000E+01 0.  1.
          5   -1    0    0  501    0  0.00000000000E+00 -0.00000000000E+00 -0.42193767210E+03  0.42196384814E+03  0.47000000000E+01 0. -1.
          6    1    1    2  502    0  0.22182197930E+02  0.36432580342E+03 -0.29317730226E+03  0.49876073573E+03  0.17200000000E+03 0. -1.
         -6    1    1    2    0  502 -0.22182197930E+02 -0.36432580342E+03  0.15403900669E+04  0.15923601663E+04  0.17200000000E+03 0.  1.
</event>
<event>
 4    1 -0.3305908E-004  0.2180971E+03  0.7818608E-02  0.1135310E+00
         -5   -1    0    0    0  501 -0.00000000000E+00  0.00000000000E+00  0.38869825401E+03  0.38872666833E+03  0.47000000000E+01 0.  1.
          5   -1    0    0  501    0  0.00000000000E+00 -0.00000000000E+00 -0.19299040849E+03  0.19304763083E+03  0.47000000000E+01 0. -1.
          6    1    1    2  502    0  0.12152670135E+03  0.56688818903E+02 -0.78155505323E+02  0.23167788920E+03  0.17200000000E+03 0. -1.
         -6    1    1    2    0  502 -0.12152670135E+03 -0.56688818903E+02  0.27386335085E+03  0.35009640996E+03  0.17200000000E+03 0.  1.
</event>
<event>
 4    1 -0.3305908E-004  0.1889893E+03  0.7818608E-02  0.1159376E+00
         -5   -1    0    0    0  501 -0.00000000000E+00  0.00000000000E+00  0.52001104819E+03  0.52003228769E+03  0.47000000000E+01 0.  1.
          5   -1    0    0  501    0  0.00000000000E+00 -0.00000000000E+00 -0.71388323132E+02  0.71542873017E+02  0.47000000000E+01 0. -1.
          6    1    1    2  502    0 -0.24570146405E+02  0.74358996179E+02  0.16573827356E+03  0.25136850982E+03  0.17200000000E+03 0.  1.
         -6    1    1    2    0  502  0.24570146405E+02 -0.74358996179E+02  0.28288445151E+03  0.34020665089E+03  0.17200000000E+03 0.  1.
</event>
<event>
 4    1 -0.3305908E-004  0.2652310E+03  0.7818608E-02  0.1104040E+00
          5   -1    0    0  501    0  0.00000000000E+00  0.00000000000E+00  0.57240796351E+03  0.57242725887E+03  0.47000000000E+01 0. -1.
         -5   -1    0    0    0  501 -0.00000000000E+00 -0.00000000000E+00 -0.15625679937E+03  0.15632746832E+03  0.47000000000E+01 0.  1.
          6    1    1    2  502    0  0.14633084131E+02  0.20136868807E+03  0.39601296518E+02  0.26817109906E+03  0.17200000000E+03 0.  1.
         -6    1    1    2    0  502 -0.14633084131E+02 -0.20136868807E+03  0.37654986762E+03  0.46058362812E+03  0.17200000000E+03 0. -1.
</event>
<event>
 4    1 -0.3305908E-004  0.2065098E+03  0.7818608E-02  0.1144360E+00
          5   -1    0    0  501    0  0.00000000000E+00  0.00000000000E+00  0.11409378530E+03  0.11419055059E+03  0.47000000000E+01 0. -1.
         -5   -1    0    0    0  501 -0.00000000000E+00 -0.00000000000E+00 -0.45175924466E+03  0.45178369286E+03  0.47000000000E+01 0.  1.
          6    1    1    2  502    0  0.10113203984E+03 -0.53241190527E+02 -0.51076069748E+02  0.21273241114E+03  0.17200000000E+03 0. -1.
         -6    1    1    2    0  502 -0.10113203984E+03  0.53241190527E+02 -0.28658938961E+03  0.35324183230E+03  0.17200000000E+03 0. -1.
</event>
<event>
 4    1 -0.3305908E-004  0.2123264E+03  0.7818608E-02  0.1139737E+00
          5   -1    0    0  501    0  0.00000000000E+00  0.00000000000E+00  0.55797148748E+03  0.55799128205E+03  0.47000000000E+01 0. -1.
         -5   -1    0    0    0  501 -0.00000000000E+00 -0.00000000000E+00 -0.18737320363E+03  0.18743214089E+03  0.47000000000E+01 0.  1.
          6    1    1    2  502    0  0.47769199096E+02 -0.11496355387E+03  0.46642142279E+03  0.51247581283E+03  0.17200000000E+03 0. -1.
         -6    1    1    2    0  502 -0.47769199096E+02  0.11496355387E+03 -0.95823138933E+02  0.23294761011E+03  0.17200000000E+03 0.  1.
</event>
<event>
 4    1 -0.3305908E-004  0.1862422E+03  0.7818608E-02  0.1161895E+00
         -5   -1    0    0    0  501 -0.00000000000E+00  0.00000000000E+00  0.10470018125E+03  0.10480561986E+03  0.47000000000E+01 0.  1.
          5   -1    0    0  501    0  0.00000000000E+00 -0.00000000000E+00 -0.34821079287E+03  0.34824251072E+03  0.47000000000E+01 0. -1.
          6    1    1    2  502    0 -0.14552307541E+02  0.69931410161E+02 -0.17210390262E+03  0.25358612951E+03  0.17200000000E+03 0. -1.
         -6    1    1    2    0  502  0.14552307541E+02 -0.69931410161E+02 -0.71406708993E+02  0.19946200107E+03  0.17200000000E+03 0.  1.
</event>
<event>
 4    1 -0.3305908E-004  0.2223084E+03  0.7818608E-02  0.1132174E+00
         -5   -1    0    0    0  501 -0.00000000000E+00  0.00000000000E+00  0.38858846745E+03  0.38861688980E+03  0.47000000000E+01 0.  1.
          5   -1    0    0  501    0  0.00000000000E+00 -0.00000000000E+00 -0.15670815622E+03  0.15677862171E+03  0.47000000000E+01 0. -1.
          6    1    1    2  502    0  0.12425049171E+03  0.66323769257E+02 -0.25441850372E+01  0.22232296313E+03  0.17200000000E+03 0. -1.
         -6    1    1    2    0  502 -0.12425049171E+03 -0.66323769257E+02  0.23442449628E+03  0.32307254837E+03  0.17200000000E+03 0.  1.
</event>
<event>
 4    1 -0.3305908E-004  0.2979467E+03  0.7818608E-02  0.1086272E+00
         -5   -1    0    0    0  501 -0.00000000000E+00  0.00000000000E+00  0.48842462582E+03  0.48844723882E+03  0.47000000000E+01 0.  1.
          5   -1    0    0  501    0  0.00000000000E+00 -0.00000000000E+00 -0.19338094016E+03  0.19343804697E+03  0.47000000000E+01 0. -1.
          6    1    1    2  502    0 -0.16752464000E+03  0.17641925131E+03  0.63727503947E+02  0.30468582507E+03  0.17200000000E+03 0. -1.
         -6    1    1    2    0  502  0.16752464000E+03 -0.17641925131E+03  0.23131618172E+03  0.37719946072E+03  0.17200000000E+03 0. -1.
</event>
<event>
 4    1 -0.3305908E-004  0.2104169E+03  0.7818608E-02  0.1141236E+00
          5   -1    0    0  501    0  0.00000000000E+00  0.00000000000E+00  0.78135739302E+02  0.78276968236E+02  0.47000000000E+01 0. -1.
         -5   -1    0    0    0  501 -0.00000000000E+00 -0.00000000000E+00 -0.95401057477E+03  0.95402215214E+03  0.47000000000E+01 0.  1.
          6    1    1    2  502    0  0.67143023160E+02 -0.10091124933E+03 -0.10878682131E+03  0.23687515338E+03  0.17200000000E+03 0. -1.
         -6    1    1    2    0  502 -0.67143023160E+02  0.10091124933E+03 -0.76708801416E+03  0.79542396699E+03  0.17200000000E+03 0.  1.
</event>
<event>
 4    1 -0.3305908E-004  0.1923988E+03  0.7818608E-02  0.1156315E+00
         -5   -1    0    0    0  501 -0.00000000000E+00  0.00000000000E+00  0.11897530929E+03  0.11906810749E+03  0.47000000000E+01 0.  1.
          5   -1    0    0  501    0  0.00000000000E+00 -0.00000000000E+00 -0.41994878957E+03  0.41997508957E+03  0.47000000000E+01 0. -1.
          6    1    1    2  502    0  0.70063669492E+02  0.50243293468E+02 -0.28780771893E+03  0.34619443872E+03  0.17200000000E+03 0. -1.
         -6    1    1    2    0  502 -0.70063669492E+02 -0.50243293468E+02 -0.13165761343E+02  0.19284875834E+03  0.17200000000E+03 0.  1.
</event>
<event>
 4    1 -0.3305908E-004  0.2374745E+03  0.7818608E-02  0.1121487E+00
          5   -1    0    0  501    0  0.00000000000E+00  0.00000000000E+00  0.15808527611E+03  0.15815512803E+03  0.47000000000E+01 0. -1.
         -5   -1    0    0    0  501 -0.00000000000E+00 -0.00000000000E+00 -0.35954211536E+03  0.35957283367E+03  0.47000000000E+01 0.  1.
          6    1    1    2  502    0  0.11785304914E+03 -0.11366967159E+03 -0.77188887659E+02  0.24970434479E+03  0.17200000000E+03 0. -1.
         -6    1    1    2    0  502 -0.11785304914E+03  0.11366967159E+03 -0.12426795159E+03  0.26802361691E+03  0.17200000000E+03 0. -1.
</event>
<event>
 4    1 -0.3305908E-004  0.2246834E+03  0.7818608E-02  0.1130439E+00
         -5   -1    0    0    0  501 -0.00000000000E+00  0.00000000000E+00  0.60320406216E+03  0.60322237243E+03  0.47000000000E+01 0.  1.
          5   -1    0    0  501    0  0.00000000000E+00 -0.00000000000E+00 -0.84278286473E+02  0.84409238658E+02  0.47000000000E+01 0. -1.
          6    1    1    2  502    0  0.12967422228E+03 -0.63900052479E+02  0.22876433721E+03  0.32064893983E+03  0.17200000000E+03 0.  1.
         -6    1    1    2    0  502 -0.12967422228E+03  0.63900052479E+02  0.29016143847E+03  0.36698267127E+03  0.17200000000E+03 0.  1.
</event>
<event>
 4    1 -0.3305908E-004  0.3369750E+03  0.7818608E-02  0.1068092E+00
          5   -1    0    0  501    0  0.00000000000E+00  0.00000000000E+00  0.22557643752E+03  0.22562539566E+03  0.47000000000E+01 0. -1.
         -5   -1    0    0    0  501 -0.00000000000E+00 -0.00000000000E+00 -0.52377896937E+03  0.52380005609E+03  0.47000000000E+01 0.  1.
          6    1    1    2  502    0 -0.84652972578E+02 -0.27713183318E+03 -0.74962667973E+02  0.34521236988E+03  0.17200000000E+03 0. -1.
         -6    1    1    2    0  502  0.84652972578E+02  0.27713183318E+03 -0.22323986388E+03  0.40421308187E+03  0.17200000000E+03 0.  1.
</event>
<event>
 4    1 -0.3305908E-004  0.3856688E+03  0.7818608E-02  0.1048858E+00
         -5   -1    0    0    0  501 -0.00000000000E+00  0.00000000000E+00  0.39455151813E+03  0.39457951095E+03  0.47000000000E+01 0.  1.
          5   -1    0    0  501    0  0.00000000000E+00 -0.00000000000E+00 -0.64977826846E+03  0.64979526634E+03  0.47000000000E+01 0. -1.
          6    1    1    2  502    0 -0.23984877291E+02  0.34435617283E+03 -0.46597976004E+03  0.60487815704E+03  0.17200000000E+03 0. -1.
         -6    1    1    2    0  502  0.23984877291E+02 -0.34435617283E+03  0.21075300971E+03  0.43949662025E+03  0.17200000000E+03 0.  1.
</event>
<event>
 4    1 -0.3305908E-004  0.2321630E+03  0.7818608E-02  0.1125127E+00
          5   -1    0    0  501    0  0.00000000000E+00  0.00000000000E+00  0.15910448097E+03  0.15917388563E+03  0.47000000000E+01 0. -1.
         -5   -1    0    0    0  501 -0.00000000000E+00 -0.00000000000E+00 -0.39800240026E+03  0.39803015038E+03  0.47000000000E+01 0.  1.
          6    1    1    2  502    0 -0.12287015213E+03 -0.96013559253E+02 -0.11838521522E+02  0.23246468213E+03  0.17200000000E+03 0. -1.
         -6    1    1    2    0  502  0.12287015213E+03  0.96013559253E+02 -0.22705939777E+03  0.32473935388E+03  0.17200000000E+03 0. -1.
</event>
<event>
 4    1 -0.3305908E-004  0.2006420E+03  0.7818608E-02  0.1149198E+00
         -5   -1    0    0    0  501 -0.00000000000E+00  0.00000000000E+00  0.11250862041E+03  0.11260674787E+03  0.47000000000E+01 0.  1.
          5   -1    0    0  501    0  0.00000000000E+00 -0.00000000000E+00 -0.38423573030E+03  0.38426447460E+03  0.47000000000E+01 0. -1.
          6    1    1    2  502    0  0.98591671968E+01  0.10283977519E+03 -0.70396498393E+02  0.21263322771E+03  0.17200000000E+03 0.  1.
         -6    1    1    2    0  502 -0.98591671968E+01 -0.10283977519E+03 -0.20133061150E+03  0.28423799476E+03  0.17200000000E+03 0.  1.
</event>
<event>
 4    1 -0.3305908E-004  0.1926243E+03  0.7818608E-02  0.1156115E+00
          5   -1    0    0  501    0  0.00000000000E+00  0.00000000000E+00  0.25618567474E+03  0.25622878437E+03  0.47000000000E+01 0. -1.
         -5   -1    0    0    0  501 -0.00000000000E+00 -0.00000000000E+00 -0.16615845448E+03  0.16622491388E+03  0.47000000000E+01 0.  1.
          6    1    1    2  502    0 -0.30571195049E+02 -0.81151258381E+02 -0.30798304081E+02  0.19507091079E+03  0.17200000000E+03 0. -1.
         -6    1    1    2    0  502  0.30571195049E+02  0.81151258381E+02  0.12082552434E+03  0.22738278747E+03  0.17200000000E+03 0.  1.
</event>
<event>
 4    1 -0.3305908E-004  0.2930880E+03  0.7818608E-02  0.1088748E+00
         -5   -1    0    0    0  501 -0.00000000000E+00  0.00000000000E+00  0.27804907425E+03  0.27808879462E+03  0.47000000000E+01 0.  1.
          5   -1    0    0  501    0  0.00000000000E+00 -0.00000000000E+00 -0.32710196808E+03  0.32713573257E+03  0.47000000000E+01 0. -1.
          6    1    1    2  502    0 -0.10074015924E+03  0.21486743098E+03 -0.95979796923E+02  0.30840349219E+03  0.17200000000E+03 0. -1.
         -6    1    1    2    0  502  0.10074015924E+03 -0.21486743098E+03  0.46926903096E+02  0.29682103499E+03  0.17200000000E+03 0.  1.
</event>
<event>
 4    1 -0.3305908E-004  0.2852969E+03  0.7818608E-02  0.1092831E+00
         -5   -1    0    0    0  501 -0.00000000000E+00  0.00000000000E+00  0.25689976735E+04  0.25690019728E+04  0.47000000000E+01 0.  1.
          5   -1    0    0  501    0  0.00000000000E+00 -0.00000000000E+00 -0.32842224505E+02  0.33176824900E+02  0.47000000000E+01 0. -1.
          6    1    1    2  502    0  0.51417956791E+01  0.22756074277E+03  0.10068768838E+04  0.10465158331E+04  0.17200000000E+03 0. -1.
         -6    1    1    2    0  502 -0.51417956791E+01 -0.22756074277E+03  0.15292785651E+04  0.15556629646E+04  0.17200000000E+03 0.  1.
</event>
<event>
 4    1 -0.3305908E-004  0.1981846E+03  0.7818608E-02  0.1151280E+00
          5   -1    0    0  501    0  0.00000000000E+00  0.00000000000E+00  0.80104516103E+03  0.80105894915E+03  0.47000000000E+01 0. -1.
         -5   -1    0    0    0  501 -0.00000000000E+00 -0.00000000000E+00 -0.54482745905E+02  0.54685094874E+02  0.47000000000E+01 0.  1.
          6    1    1    2  502    0  0.63074406485E+02 -0.75596115358E+02  0.50989308144E+03  0.54705402650E+03  0.17200000000E+03 0. -1.
         -6    1    1    2    0  502 -0.63074406485E+02  0.75596115358E+02  0.23666933369E+03  0.30869001752E+03  0.17200000000E+03 0.  1.
</event>
<event>
 4    1 -0.3305908E-004  0.1930534E+03  0.7818608E-02  0.1155736E+00
          5   -1    0    0  501    0  0.00000000000E+00  0.00000000000E+00  0.15956804943E+03  0.15963725254E+03  0.47000000000E+01 0. -1.
         -5   -1    0    0    0  501 -0.00000000000E+00 -0.00000000000E+00 -0.46653129596E+03  0.46655497009E+03  0.47000000000E+01 0.  1.
          6    1    1    2  502    0  0.57711599848E+02  0.65992467603E+02  0.67811590749E+02  0.20461682819E+03  0.17200000000E+03 0.  1.
         -6    1    1    2    0  502 -0.57711599848E+02 -0.65992467603E+02 -0.37477483728E+03  0.42157539444E+03  0.17200000000E+03 0.  1.
</event>
<event>
 4    1 -0.3305908E-004  0.1947871E+03  0.7818608E-02  0.1154213E+00
          5   -1    0    0  501    0  0.00000000000E+00  0.00000000000E+00  0.24551825474E+03  0.24556323709E+03  0.47000000000E+01 0. -1.
         -5   -1    0    0    0  501 -0.00000000000E+00 -0.00000000000E+00 -0.15517491008E+03  0.15524607150E+03  0.47000000000E+01 0.  1.
          6    1    1    2  502    0  0.23657300179E+02 -0.88308316924E+02  0.58924041229E+02  0.20350447004E+03  0.17200000000E+03 0.  1.
         -6    1    1    2    0  502 -0.23657300179E+02  0.88308316924E+02  0.31419303434E+02  0.19730483856E+03  0.17200000000E+03 0. -1.
</event>
<event>
 4    1 -0.3305908E-004  0.1801073E+03  0.7818608E-02  0.1167699E+00
          5   -1    0    0  501    0  0.00000000000E+00  0.00000000000E+00  0.53400495649E+03  0.53402563941E+03  0.47000000000E+01 0. -1.
         -5   -1    0    0    0  501 -0.00000000000E+00 -0.00000000000E+00 -0.69122197828E+02  0.69281803040E+02  0.47000000000E+01 0.  1.
          6    1    1    2  502    0  0.52137248092E+02 -0.11676202719E+02  0.33800869493E+03  0.38299935273E+03  0.17200000000E+03 0. -1.
         -6    1    1    2    0  502 -0.52137248092E+02  0.11676202719E+02  0.12687406373E+03  0.22030808972E+03  0.17200000000E+03 0.  1.
</event>
<event>
 4    1 -0.3305908E-004  0.1988674E+03  0.7818608E-02  0.1150698E+00
         -5   -1    0    0    0  501 -0.00000000000E+00  0.00000000000E+00  0.11427529340E+03  0.11437190513E+03  0.47000000000E+01 0.  1.
          5   -1    0    0  501    0  0.00000000000E+00 -0.00000000000E+00 -0.83665541927E+03  0.83666862053E+03  0.47000000000E+01 0. -1.
          6    1    1    2  502    0 -0.69888899925E+02  0.71272502783E+02 -0.72538411226E+03  0.75215047583E+03  0.17200000000E+03 0. -1.
         -6    1    1    2    0  502  0.69888899925E+02 -0.71272502783E+02  0.30039863926E+01  0.19889004983E+03  0.17200000000E+03 0.  1.
</event>
<event>
 4    1 -0.3305908E-004  0.2768533E+03  0.7818608E-02  0.1097420E+00
          5   -1    0    0  501    0  0.00000000000E+00  0.00000000000E+00  0.84683294790E+03  0.84684599052E+03  0.47000000000E+01 0. -1.
         -5   -1    0    0    0  501 -0.00000000000E+00 -0.00000000000E+00 -0.99244346816E+02  0.99355575459E+02  0.47000000000E+01 0.  1.
          6    1    1    2  502    0  0.15189941707E+03  0.15488800952E+03  0.51464456632E+03  0.58438579555E+03  0.17200000000E+03 0. -1.
         -6    1    1    2    0  502 -0.15189941707E+03 -0.15488800952E+03  0.23294403477E+03  0.36181577043E+03  0.17200000000E+03 0.  1.
</event>
<event>
 4    1 -0.3305908E-004  0.1837409E+03  0.7818608E-02  0.1164231E+00
          5   -1    0    0  501    0  0.00000000000E+00  0.00000000000E+00  0.20360826315E+03  0.20366250225E+03  0.47000000000E+01 0. -1.
         -5   -1    0    0    0  501 -0.00000000000E+00 -0.00000000000E+00 -0.21782248591E+03  0.21787318644E+03  0.47000000000E+01 0.  1.
          6    1    1    2  502    0 -0.48355992257E+02  0.42876689135E+02  0.95965390352E+02  0.20729222996E+03  0.17200000000E+03 0. -1.
         -6    1    1    2    0  502  0.48355992257E+02 -0.42876689135E+02 -0.11017961312E+03  0.21424345872E+03  0.17200000000E+03 0.  1.
</event>
<event>
 4    1 -0.3305908E-004  0.2117785E+03  0.7818608E-02  0.1140165E+00
          5   -1    0    0  501    0  0.00000000000E+00  0.00000000000E+00  0.44555039868E+02  0.44802249694E+02  0.47000000000E+01 0. -1.
         -5   -1    0    0    0  501 -0.00000000000E+00 -0.00000000000E+00 -0.10039238131E+04  0.10039348148E+04  0.47000000000E+01 0.  1.
          6    1    1    2  502    0 -0.12353122248E+03 -0.24863184480E+01 -0.48930496923E+03  0.53316929546E+03  0.17200000000E+03 0. -1.
         -6    1    1    2    0  502  0.12353122248E+03  0.24863184480E+01 -0.47006380397E+03  0.51556776907E+03  0.17200000000E+03 0. -1.
</event>
<event>
 4    1 -0.3305908E-004  0.2232882E+03  0.7818608E-02  0.1131455E+00
         -5   -1    0    0    0  501 -0.00000000000E+00  0.00000000000E+00  0.44272016449E+03  0.44274511182E+03  0.47000000000E+01 0.  1.
          5   -1    0    0  501    0  0.00000000000E+00 -0.00000000000E+00 -0.11476455460E+03  0.11486075480E+03  0.47000000000E+01 0. -1.
          6    1    1    2  502    0 -0.14234175979E+03 -0.35250399096E+01  0.12517634366E+03  0.25598187338E+03  0.17200000000E+03 0. -1.
         -6    1    1    2    0  502  0.14234175979E+03  0.35250399096E+01  0.20277926623E+03  0.30162399324E+03  0.17200000000E+03 0.  1.
</event>
<event>
 4    1 -0.3305908E-004  0.2407033E+03  0.7818608E-02  0.1119325E+00
          5   -1    0    0  501    0  0.00000000000E+00  0.00000000000E+00  0.11577462629E+04  0.11577558029E+04  0.47000000000E+01 0. -1.
         -5   -1    0    0    0  501 -0.00000000000E+00 -0.00000000000E+00 -0.13893824100E+03  0.13901771403E+03  0.47000000000E+01 0.  1.
          6    1    1    2  502    0  0.77585127220E+02 -0.14944772260E+03  0.10280897076E+04  0.10558913394E+04  0.17200000000E+03 0. -1.
         -6    1    1    2    0  502 -0.77585127220E+02  0.14944772260E+03 -0.92816857603E+01  0.24088217752E+03  0.17200000000E+03 0.  1.
</event>
<event>
 4    1 -0.3305908E-004  0.1919138E+03  0.7818608E-02  0.1156746E+00
         -5   -1    0    0    0  501 -0.00000000000E+00  0.00000000000E+00  0.18665454815E+03  0.18671371225E+03  0.47000000000E+01 0.  1.
          5   -1    0    0  501    0  0.00000000000E+00 -0.00000000000E+00 -0.47933179985E+03  0.47935484179E+03  0.47000000000E+01 0. -1.
          6    1    1    2  502    0  0.25523540022E+02  0.81212473620E+02  0.10913726836E+03  0.22077558812E+03  0.17200000000E+03 0.  1.
         -6    1    1    2    0  502 -0.25523540022E+02 -0.81212473620E+02 -0.40181452006E+03  0.44529296592E+03  0.17200000000E+03 0. -1.
</event>
<event>
 4    1 -0.3305908E-004  0.2389885E+03  0.7818608E-02  0.1120468E+00
         -5   -1    0    0    0  501 -0.00000000000E+00  0.00000000000E+00  0.15197688141E+03  0.15204953957E+03  0.47000000000E+01 0.  1.
          5   -1    0    0  501    0  0.00000000000E+00 -0.00000000000E+00 -0.44789876851E+03  0.44792342742E+03  0.47000000000E+01 0. -1.
          6    1    1    2  502    0  0.12158891872E+03 -0.11290544959E+03 -0.26843930072E+03  0.35940946548E+03  0.17200000000E+03 0. -1.
         -6    1    1    2    0  502 -0.12158891872E+03  0.11290544959E+03 -0.27482586370E+02  0.24056350151E+03  0.17200000000E+03 0.  1.
</event>
<event>
 4    1 -0.3305908E-004  0.2648309E+03  0.7818608E-02  0.1104275E+00
          5   -1    0    0  501    0  0.00000000000E+00  0.00000000000E+00  0.32218704843E+03  0.32222132794E+03  0.47000000000E+01 0. -1.
         -5   -1    0    0    0  501 -0.00000000000E+00 -0.00000000000E+00 -0.30594499243E+03  0.30598109156E+03  0.47000000000E+01 0.  1.
          6    1    1    2  502    0  0.13295469633E+03  0.15124307165E+03 -0.16063097078E+03  0.30973815840E+03  0.17200000000E+03 0.  1.
         -6    1    1    2    0  502 -0.13295469633E+03 -0.15124307165E+03  0.17687302678E+03  0.31846426110E+03  0.17200000000E+03 0.  1.
</event>
<event>
 4    1 -0.3305908E-004  0.3373890E+03  0.7818608E-02  0.1067913E+00
          5   -1    0    0  501    0  0.00000000000E+00  0.00000000000E+00  0.12046026476E+03  0.12055191988E+03  0.47000000000E+01 0. -1.
         -5   -1    0    0    0  501 -0.00000000000E+00 -0.00000000000E+00 -0.11728439672E+04  0.11728533845E+04  0.47000000000E+01 0.  1.
          6    1    1    2  502    0  0.43108157496E+02 -0.28703487118E+03 -0.24086152750E+03  0.41454264672E+03  0.17200000000E+03 0. -1.
         -6    1    1    2    0  502 -0.43108157496E+02  0.28703487118E+03 -0.81152217498E+03  0.87886265764E+03  0.17200000000E+03 0.  1.
</event>
<event>
 4    1 -0.3305908E-004  0.1795860E+03  0.7818608E-02  0.1168204E+00
         -5   -1    0    0    0  501 -0.00000000000E+00  0.00000000000E+00  0.14143059021E+03  0.14150866351E+03  0.47000000000E+01 0.  1.
          5   -1    0    0  501    0  0.00000000000E+00 -0.00000000000E+00 -0.22843955607E+03  0.22848790073E+03  0.47000000000E+01 0. -1.
          6    1    1    2  502    0  0.51513727865E+02  0.36720987511E+01 -0.52739884886E+02  0.18717009357E+03  0.17200000000E+03 0. -1.
         -6    1    1    2    0  502 -0.51513727865E+02 -0.36720987511E+01 -0.34269080973E+02  0.18282647067E+03  0.17200000000E+03 0. -1.
</event>
<event>
 4    1 -0.3305908E-004  0.2176064E+03  0.7818608E-02  0.1135680E+00
          5   -1    0    0  501    0  0.00000000000E+00  0.00000000000E+00  0.26764886850E+03  0.26769013208E+03  0.47000000000E+01 0. -1.
         -5   -1    0    0    0  501 -0.00000000000E+00 -0.00000000000E+00 -0.19018338766E+03  0.19024145432E+03  0.47000000000E+01 0.  1.
          6    1    1    2  502    0 -0.10078152145E+03 -0.87244670473E+02 -0.21912188045E+02  0.21870686221E+03  0.17200000000E+03 0.  1.
         -6    1    1    2    0  502  0.10078152145E+03  0.87244670473E+02  0.99377668885E+02  0.23922472419E+03  0.17200000000E+03 0.  1.
</event>
<event>
 4    1 -0.3305908E-004  0.2902449E+03  0.7818608E-02  0.1090221E+00
         -5   -1    0    0    0  501 -0.00000000000E+00  0.00000000000E+00  0.10840733909E+03  0.10850917550E+03  0.47000000000E+01 0.  1.
          5   -1    0    0  501    0  0.00000000000E+00 -0.00000000000E+00 -0.10295039226E+04  0.10295146511E+04  0.47000000000E+01 0. -1.
          6    1    1    2  502    0 -0.79225411813E+01  0.23365645986E+03 -0.74254776200E+03  0.79725735289E+03  0.17200000000E+03 0. -1.
         -6    1    1    2    0  502  0.79225411813E+01 -0.23365645986E+03 -0.17854882156E+03  0.34076647366E+03  0.17200000000E+03 0.  1.
</event>
<event>
 4    1 -0.3305908E-004  0.2112231E+03  0.7818608E-02  0.1140601E+00
         -5   -1    0    0    0  501 -0.00000000000E+00  0.00000000000E+00  0.70318665331E+03  0.70320236020E+03  0.47000000000E+01 0.  1.
          5   -1    0    0  501    0  0.00000000000E+00 -0.00000000000E+00 -0.13349239536E+03  0.13357510854E+03  0.47000000000E+01 0. -1.
          6    1    1    2  502    0 -0.40808812355E+02  0.11561066962E+03 -0.18281730476E+02  0.21201275378E+03  0.17200000000E+03 0. -1.
         -6    1    1    2    0  502  0.40808812355E+02 -0.11561066962E+03  0.58797598842E+03  0.62476471495E+03  0.17200000000E+03 0.  1.
</event>
<event>
 4    1 -0.3305908E-004  0.3805563E+03  0.7818608E-02  0.1050728E+00
         -5   -1    0    0    0  501 -0.00000000000E+00  0.00000000000E+00  0.12488602035E+04  0.12488690475E+04  0.47000000000E+01 0.  1.
          5   -1    0    0  501    0  0.00000000000E+00 -0.00000000000E+00 -0.13240644332E+03  0.13248983445E+03  0.47000000000E+01 0. -1.
          6    1    1    2  502    0  0.33583790429E+03 -0.49517568215E+02  0.31450678412E+03  0.49369788817E+03  0.17200000000E+03 0. -1.
         -6    1    1    2    0  502 -0.33583790429E+03  0.49517568215E+02  0.80194697602E+03  0.88766099377E+03  0.17200000000E+03 0.  1.
</event>
<event>
 4    1 -0.3305908E-004  0.1798981E+03  0.7818608E-02  0.1167902E+00
         -5   -1    0    0    0  501 -0.00000000000E+00  0.00000000000E+00  0.22489244902E+03  0.22494155602E+03  0.47000000000E+01 0.  1.
          5   -1    0    0  501    0  0.00000000000E+00 -0.00000000000E+00 -0.27815820015E+03  0.27819790494E+03  0.47000000000E+01 0. -1.
          6    1    1    2  502    0  0.83883286622E+00  0.52712473293E+02 -0.20143902193E+03  0.27007589311E+03  0.17200000000E+03 0. -1.
         -6    1    1    2    0  502 -0.83883286622E+00 -0.52712473293E+02  0.14817327080E+03  0.23306356785E+03  0.17200000000E+03 0.  1.
</event>
<event>
 4    1 -0.3305908E-004  0.2886657E+03  0.7818608E-02  0.1091048E+00
         -5   -1    0    0    0  501 -0.00000000000E+00  0.00000000000E+00  0.42233514402E+03  0.42236129543E+03  0.47000000000E+01 0.  1.
          5   -1    0    0  501    0  0.00000000000E+00 -0.00000000000E+00 -0.23305602790E+03  0.23310341512E+03  0.47000000000E+01 0. -1.
          6    1    1    2  502    0  0.18270833805E+03 -0.14269383828E+03 -0.33812320293E+02  0.29063919433E+03  0.17200000000E+03 0. -1.
         -6    1    1    2    0  502 -0.18270833805E+03  0.14269383828E+03  0.22309143642E+03  0.36482551621E+03  0.17200000000E+03 0.  1.
</event>
<event>
 4    1 -0.3305908E-004  0.1996110E+03  0.7818608E-02  0.1150068E+00
          5   -1    0    0  501    0  0.00000000000E+00  0.00000000000E+00  0.31948060569E+03  0.31951517556E+03  0.47000000000E+01 0. -1.
         -5   -1    0    0    0  501 -0.00000000000E+00 -0.00000000000E+00 -0.13705301160E+03  0.13713357718E+03  0.47000000000E+01 0.  1.
          6    1    1    2  502    0 -0.38357298577E+02  0.93751019649E+02  0.15992308139E+03  0.25577319641E+03  0.17200000000E+03 0. -1.
         -6    1    1    2    0  502  0.38357298577E+02 -0.93751019649E+02  0.22504512699E+02  0.20087555633E+03  0.17200000000E+03 0. -1.
</event>
<event>
 4    1 -0.3305908E-004  0.1929054E+03  0.7818608E-02  0.1155867E+00
          5   -1    0    0  501    0  0.00000000000E+00  0.00000000000E+00  0.20965486281E+03  0.20970753801E+03  0.47000000000E+01 0. -1.
         -5   -1    0    0    0  501 -0.00000000000E+00 -0.00000000000E+00 -0.18385928737E+03  0.18391935067E+03  0.47000000000E+01 0.  1.
          6    1    1    2  502    0 -0.53552146211E+02  0.68997530441E+02 -0.24014796986E+02  0.19439444963E+03  0.17200000000E+03 0. -1.
         -6    1    1    2    0  502  0.53552146211E+02 -0.68997530441E+02  0.49810372428E+02  0.19923243906E+03  0.17200000000E+03 0. -1.
</event>
<event>
 4    1 -0.3305908E-004  0.2340111E+03  0.7818608E-02  0.1123848E+00
          5   -1    0    0  501    0  0.00000000000E+00  0.00000000000E+00  0.18065646271E+03  0.18071759051E+03  0.47000000000E+01 0. -1.
         -5   -1    0    0    0  501 -0.00000000000E+00 -0.00000000000E+00 -0.33005400321E+03  0.33008746573E+03  0.47000000000E+01 0.  1.
          6    1    1    2  502    0  0.75616331993E+02  0.13949681934E+03 -0.15775092311E+01  0.23401641140E+03  0.17200000000E+03 0. -1.
         -6    1    1    2    0  502 -0.75616331993E+02 -0.13949681934E+03 -0.14782003126E+03  0.27678864484E+03  0.17200000000E+03 0.  1.
</event>
<event>
 4    1 -0.3305908E-004  0.2261532E+03  0.7818608E-02  0.1129377E+00
          5   -1    0    0  501    0  0.00000000000E+00  0.00000000000E+00  0.85694565674E+03  0.85695854544E+03  0.47000000000E+01 0. -1.
         -5   -1    0    0    0  501 -0.00000000000E+00 -0.00000000000E+00 -0.81497483010E+02  0.81632896169E+02  0.47000000000E+01 0.  1.
          6    1    1    2  502    0  0.11717223733E+03 -0.88498184668E+02  0.14459576732E+03  0.26842726728E+03  0.17200000000E+03 0.  1.
         -6    1    1    2    0  502 -0.11717223733E+03  0.88498184668E+02  0.63085240641E+03  0.67016417433E+03  0.17200000000E+03 0. -1.
</event>
<event>
 4    1 -0.3305908E-004  0.2455659E+03  0.7818608E-02  0.1116140E+00
         -5   -1    0    0    0  501 -0.00000000000E+00  0.00000000000E+00  0.10732556196E+03  0.10742842384E+03  0.47000000000E+01 0.  1.
          5   -1    0    0  501    0  0.00000000000E+00 -0.00000000000E+00 -0.11310534597E+04  0.11310632249E+04  0.47000000000E+01 0. -1.
          6    1    1    2  502    0  0.12973790374E+03  0.11784175465E+03 -0.95127619841E+03  0.98246069054E+03  0.17200000000E+03 0. -1.
         -6    1    1    2    0  502 -0.12973790374E+03 -0.11784175465E+03 -0.72451699307E+02  0.25603095816E+03  0.17200000000E+03 0.  1.
</event>
<event>
 4    1 -0.3305908E-004  0.2218437E+03  0.7818608E-02  0.1132516E+00
          5   -1    0    0  501    0  0.00000000000E+00  0.00000000000E+00  0.48810004749E+02  0.49035768206E+02  0.47000000000E+01 0. -1.
         -5   -1    0    0    0  501 -0.00000000000E+00 -0.00000000000E+00 -0.12041702866E+04  0.12041794588E+04  0.47000000000E+01 0.  1.
          6    1    1    2  502    0 -0.12892944548E+03 -0.54843622384E+02 -0.32333586894E+03  0.39212333388E+03  0.17200000000E+03 0. -1.
         -6    1    1    2    0  502  0.12892944548E+03  0.54843622384E+02 -0.83202441288E+03  0.86109189315E+03  0.17200000000E+03 0.  1.
</event>
<event>
 4    1 -0.3305908E-004  0.3205989E+03  0.7818608E-02  0.1075374E+00
          5   -1    0    0  501    0  0.00000000000E+00  0.00000000000E+00  0.75039943140E+03  0.75041415008E+03  0.47000000000E+01 0. -1.
         -5   -1    0    0    0  501 -0.00000000000E+00 -0.00000000000E+00 -0.20750318028E+03  0.20755640155E+03  0.47000000000E+01 0.  1.
          6    1    1    2  502    0 -0.15169854513E+03  0.22402497687E+03  0.55075958155E+03  0.63727525884E+03  0.17200000000E+03 0. -1.
         -6    1    1    2    0  502  0.15169854513E+03 -0.22402497687E+03 -0.78633304312E+01  0.32069529280E+03  0.17200000000E+03 0.  1.
</event>
<event>
 4    1 -0.3305908E-004  0.1970120E+03  0.7818608E-02  0.1152285E+00
         -5   -1    0    0    0  501 -0.00000000000E+00  0.00000000000E+00  0.10558099583E+03  0.10568555568E+03  0.47000000000E+01 0.  1.
          5   -1    0    0  501    0  0.00000000000E+00 -0.00000000000E+00 -0.36848743475E+03  0.36851740741E+03  0.47000000000E+01 0. -1.
          6    1    1    2  502    0  0.95936998158E+02  0.50803365329E+01 -0.11810292046E+03  0.22969984166E+03  0.17200000000E+03 0.  1.
         -6    1    1    2    0  502 -0.95936998158E+02 -0.50803365329E+01 -0.14480351846E+03  0.24450312144E+03  0.17200000000E+03 0.  1.
</event>
<event>
 4    1 -0.3305908E-004  0.1811324E+03  0.7818608E-02  0.1166712E+00
          5   -1    0    0  501    0  0.00000000000E+00  0.00000000000E+00  0.24491271911E+02  0.24938171541E+02  0.47000000000E+01 0. -1.
         -5   -1    0    0    0  501 -0.00000000000E+00 -0.00000000000E+00 -0.13295867475E+04  0.13295950546E+04  0.47000000000E+01 0.  1.
          6    1    1    2  502    0  0.53843178544E+02 -0.18051898423E+02 -0.62300268329E+03  0.64879989388E+03  0.17200000000E+03 0. -1.
         -6    1    1    2    0  502 -0.53843178544E+02  0.18051898423E+02 -0.68209279232E+03  0.70573333225E+03  0.17200000000E+03 0.  1.
</event>
<event>
 4    1 -0.3305908E-004  0.2196839E+03  0.7818608E-02  0.1134119E+00
         -5   -1    0    0    0  501 -0.00000000000E+00  0.00000000000E+00  0.15259635746E+04  0.15259708126E+04  0.47000000000E+01 0.  1.
          5   -1    0    0  501    0  0.00000000000E+00 -0.00000000000E+00 -0.46683355130E+02  0.46919352577E+02  0.47000000000E+01 0. -1.
          6    1    1    2  502    0  0.13246026686E+03 -0.33634471272E+02  0.29175003619E+03  0.36521101239E+03  0.17200000000E+03 0. -1.
         -6    1    1    2    0  502 -0.13246026686E+03  0.33634471272E+02  0.11875301833E+04  0.12076791528E+04  0.17200000000E+03 0.  1.
</event>
<event>
 4    1 -0.3305908E-004  0.1931700E+03  0.7818608E-02  0.1155633E+00
         -5   -1    0    0    0  501 -0.00000000000E+00  0.00000000000E+00  0.82726350930E+03  0.82727686044E+03  0.47000000000E+01 0.  1.
          5   -1    0    0  501    0  0.00000000000E+00 -0.00000000000E+00 -0.44983916375E+02  0.45228782124E+02  0.47000000000E+01 0. -1.
          6    1    1    2  502    0 -0.27144155719E+01 -0.87882249231E+02  0.38347378938E+03  0.42937955811E+03  0.17200000000E+03 0. -1.
         -6    1    1    2    0  502  0.27144155719E+01  0.87882249231E+02  0.39880580355E+03  0.44312608445E+03  0.17200000000E+03 0.  1.
</event>
<event>
 4    1 -0.3305908E-004  0.4047615E+03  0.7818608E-02  0.1042143E+00
          5   -1    0    0  501    0  0.00000000000E+00  0.00000000000E+00  0.21621873514E+03  0.21626981164E+03  0.47000000000E+01 0. -1.
         -5   -1    0    0    0  501 -0.00000000000E+00 -0.00000000000E+00 -0.80306335885E+03  0.80307711232E+03  0.47000000000E+01 0.  1.
          6    1    1    2  502    0 -0.32402670169E+03 -0.17103968418E+03 -0.17211310740E+03  0.43983496758E+03  0.17200000000E+03 0. -1.
         -6    1    1    2    0  502  0.32402670169E+03  0.17103968418E+03 -0.41473151631E+03  0.57951195638E+03  0.17200000000E+03 0.  1.
</event>
<event>
 4    1 -0.3305908E-004  0.2512199E+03  0.7818608E-02  0.1112536E+00
         -5   -1    0    0    0  501 -0.00000000000E+00  0.00000000000E+00  0.37104979926E+02  0.37401464347E+02  0.47000000000E+01 0.  1.
          5   -1    0    0  501    0  0.00000000000E+00 -0.00000000000E+00 -0.17859429828E+04  0.17859491672E+04  0.47000000000E+01 0. -1.
          6    1    1    2  502    0  0.18823591922E+02  0.18213492478E+03 -0.10814575062E+04  0.11102530325E+04  0.17200000000E+03 0. -1.
         -6    1    1    2    0  502 -0.18823591922E+02 -0.18213492478E+03 -0.66738049667E+03  0.71309759905E+03  0.17200000000E+03 0.  1.
</event>
<event>
 4    1 -0.3305908E-004  0.2898314E+03  0.7818608E-02  0.1090437E+00
          5   -1    0    0  501    0  0.00000000000E+00  0.00000000000E+00  0.89530356731E+03  0.89531590382E+03  0.47000000000E+01 0. -1.
         -5   -1    0    0    0  501 -0.00000000000E+00 -0.00000000000E+00 -0.12883919463E+03  0.12892489315E+03  0.47000000000E+01 0.  1.
          6    1    1    2  502    0 -0.16493312761E+03 -0.16497069212E+03  0.65036073668E+03  0.71201920877E+03  0.17200000000E+03 0. -1.
         -6    1    1    2    0  502  0.16493312761E+03  0.16497069212E+03  0.11610363600E+03  0.31222158820E+03  0.17200000000E+03 0.  1.
</event>
<event>
 4    1 -0.3305908E-004  0.2068797E+03  0.7818608E-02  0.1144061E+00
          5   -1    0    0  501    0  0.00000000000E+00  0.00000000000E+00  0.21110665250E+04  0.21110717570E+04  0.47000000000E+01 0. -1.
         -5   -1    0    0    0  501 -0.00000000000E+00 -0.00000000000E+00 -0.20003523708E+02  0.20548259311E+02  0.47000000000E+01 0.  1.
          6    1    1    2  502    0  0.10899527752E+03 -0.36541141611E+02  0.10251681793E+04  0.10458341271E+04  0.17200000000E+03 0. -1.
         -6    1    1    2    0  502 -0.10899527752E+03  0.36541141611E+02  0.10658948220E+04  0.10857858892E+04  0.17200000000E+03 0.  1.
</event>
<event>
 4    1 -0.3305908E-004  0.4880040E+03  0.7818608E-02  0.1016958E+00
          5   -1    0    0  501    0  0.00000000000E+00  0.00000000000E+00  0.78498065298E+03  0.78499472326E+03  0.47000000000E+01 0. -1.
         -5   -1    0    0    0  501 -0.00000000000E+00 -0.00000000000E+00 -0.33910653593E+03  0.33913910526E+03  0.47000000000E+01 0.  1.
          6    1    1    2  502    0  0.97538403931E+02  0.44615037623E+03  0.40424282466E+02  0.48967542420E+03  0.17200000000E+03 0. -1.
         -6    1    1    2    0  502 -0.97538403931E+02 -0.44615037623E+03  0.40544983457E+03  0.63445840432E+03  0.17200000000E+03 0.  1.
</event>
<event>
 4    1 -0.3305908E-004  0.2506274E+03  0.7818608E-02  0.1112909E+00
          5   -1    0    0  501    0  0.00000000000E+00  0.00000000000E+00  0.78489468430E+03  0.78490875612E+03  0.47000000000E+01 0. -1.
         -5   -1    0    0    0  501 -0.00000000000E+00 -0.00000000000E+00 -0.85613207249E+02  0.85742120661E+02  0.47000000000E+01 0.  1.
          6    1    1    2  502    0 -0.15960728582E+02 -0.18159121933E+03  0.23772374273E+03  0.34543696046E+03  0.17200000000E+03 0.  1.
         -6    1    1    2    0  502  0.15960728582E+02  0.18159121933E+03  0.46155773432E+03  0.52521391632E+03  0.17200000000E+03 0. -1.
</event>
<event>
 4    1 -0.3305908E-004  0.2057065E+03  0.7818608E-02  0.1145012E+00
          5   -1    0    0  501    0  0.00000000000E+00  0.00000000000E+00  0.55372128093E+03  0.55374122743E+03  0.47000000000E+01 0. -1.
         -5   -1    0    0    0  501 -0.00000000000E+00 -0.00000000000E+00 -0.10688964660E+03  0.10699292757E+03  0.47000000000E+01 0.  1.
          6    1    1    2  502    0 -0.10666727528E+03 -0.36786443663E+02  0.39995438296E+03  0.44975399776E+03  0.17200000000E+03 0. -1.
         -6    1    1    2    0  502  0.10666727528E+03  0.36786443663E+02  0.46877251368E+02  0.21098015724E+03  0.17200000000E+03 0.  1.
</event>
<event>
 4    1 -0.3305908E-004  0.2082256E+03  0.7818608E-02  0.1142979E+00
         -5   -1    0    0    0  501 -0.00000000000E+00  0.00000000000E+00  0.58949532073E+03  0.58951405679E+03  0.47000000000E+01 0.  1.
          5   -1    0    0  501    0  0.00000000000E+00 -0.00000000000E+00 -0.87219456217E+02  0.87345999009E+02  0.47000000000E+01 0. -1.
          6    1    1    2  502    0 -0.10528439888E+03 -0.51856435428E+02  0.11681897868E+03  0.23875629483E+03  0.17200000000E+03 0. -1.
         -6    1    1    2    0  502  0.10528439888E+03  0.51856435428E+02  0.38545688583E+03  0.43810376097E+03  0.17200000000E+03 0.  1.
</event>
<event>
 4    1 -0.3305908E-004  0.1903944E+03  0.7818608E-02  0.1158106E+00
          5   -1    0    0  501    0  0.00000000000E+00  0.00000000000E+00  0.19947057335E+03  0.19952593724E+03  0.47000000000E+01 0. -1.
         -5   -1    0    0    0  501 -0.00000000000E+00 -0.00000000000E+00 -0.28168966328E+03  0.28172887036E+03  0.47000000000E+01 0.  1.
          6    1    1    2  502    0 -0.32681179099E+02  0.74819651598E+02  0.10228380888E+03  0.21612963076E+03  0.17200000000E+03 0. -1.
         -6    1    1    2    0  502  0.32681179099E+02 -0.74819651598E+02 -0.18450289880E+03  0.26512517685E+03  0.17200000000E+03 0.  1.
</event>
<event>
 4    1 -0.3305908E-004  0.3098985E+03  0.7818608E-02  0.1080395E+00
          5   -1    0    0  501    0  0.00000000000E+00  0.00000000000E+00  0.27445152226E+03  0.27449176321E+03  0.47000000000E+01 0. -1.
         -5   -1    0    0    0  501 -0.00000000000E+00 -0.00000000000E+00 -0.52688961866E+03  0.52691058089E+03  0.47000000000E+01 0.  1.
          6    1    1    2  502    0  0.24856769885E+03 -0.68316924627E+02  0.10604305398E+03  0.32753966538E+03  0.17200000000E+03 0. -1.
         -6    1    1    2    0  502 -0.24856769885E+03  0.68316924627E+02 -0.35848115038E+03  0.47386267872E+03  0.17200000000E+03 0.  1.
</event>
<event>
 4    1 -0.3305908E-004  0.2439897E+03  0.7818608E-02  0.1117163E+00
         -5   -1    0    0    0  501 -0.00000000000E+00  0.00000000000E+00  0.66508759523E+03  0.66510420186E+03  0.47000000000E+01 0.  1.
          5   -1    0    0  501    0  0.00000000000E+00 -0.00000000000E+00 -0.20732149753E+03  0.20737476543E+03  0.47000000000E+01 0. -1.
          6    1    1    2  502    0 -0.75293800812E+02 -0.15581338657E+03 -0.99995791883E+02  0.26368565807E+03  0.17200000000E+03 0. -1.
         -6    1    1    2    0  502  0.75293800812E+02  0.15581338657E+03  0.55776188959E+03  0.60879330922E+03  0.17200000000E+03 0.  1.
</event>
<event>
 4    1 -0.3305908E-004  0.5237363E+03  0.7818608E-02  0.1007763E+00
         -5   -1    0    0    0  501 -0.00000000000E+00  0.00000000000E+00  0.52130328504E+03  0.52132447189E+03  0.47000000000E+01 0.  1.
          5   -1    0    0  501    0  0.00000000000E+00 -0.00000000000E+00 -0.53724392222E+03  0.53726448045E+03  0.47000000000E+01 0. -1.
          6    1    1    2  502    0 -0.48545046520E+03 -0.95150147234E+02 -0.84067131390E+02  0.53044037107E+03  0.17200000000E+03 0. -1.
         -6    1    1    2    0  502  0.48545046520E+03  0.95150147234E+02  0.68126494214E+02  0.52814858127E+03  0.17200000000E+03 0. -1.
</event>
<event>
 4    1 -0.3305908E-004  0.1820992E+03  0.7818608E-02  0.1165787E+00
         -5   -1    0    0    0  501 -0.00000000000E+00  0.00000000000E+00  0.86309068489E+02  0.86436944089E+02  0.47000000000E+01 0.  1.
          5   -1    0    0  501    0  0.00000000000E+00 -0.00000000000E+00 -0.38590670146E+03  0.38593532131E+03  0.47000000000E+01 0. -1.
          6    1    1    2  502    0 -0.44965864735E+02 -0.39423327136E+02 -0.13225019635E+03  0.22505608667E+03  0.17200000000E+03 0. -1.
         -6    1    1    2    0  502  0.44965864735E+02  0.39423327136E+02 -0.16734743663E+03  0.24731617872E+03  0.17200000000E+03 0.  1.
</event>
<event>
 4    1 -0.3305908E-004  0.2088927E+03  0.7818608E-02  0.1142446E+00
          5   -1    0    0  501    0  0.00000000000E+00  0.00000000000E+00  0.83217916197E+02  0.83350534348E+02  0.47000000000E+01 0. -1.
         -5   -1    0    0    0  501 -0.00000000000E+00 -0.00000000000E+00 -0.78968085547E+03  0.78969484201E+03  0.47000000000E+01 0.  1.
          6    1    1    2  502    0 -0.14660959641E+02  0.11763165669E+03 -0.99961466418E+02  0.23157816210E+03  0.17200000000E+03 0. -1.
         -6    1    1    2    0  502  0.14660959641E+02 -0.11763165669E+03 -0.60650147286E+03  0.64146721426E+03  0.17200000000E+03 0.  1.
</event>
<event>
 4    1 -0.3305908E-004  0.4041094E+03  0.7818608E-02  0.1042366E+00
          5   -1    0    0  501    0  0.00000000000E+00  0.00000000000E+00  0.13839661432E+04  0.13839741239E+04  0.47000000000E+01 0. -1.
         -5   -1    0    0    0  501 -0.00000000000E+00 -0.00000000000E+00 -0.32838472936E+03  0.32841836197E+03  0.47000000000E+01 0.  1.
          6    1    1    2  502    0 -0.35332753435E+03 -0.94234080713E+02  0.12131229691E+04  0.12786601373E+04  0.17200000000E+03 0. -1.
         -6    1    1    2    0  502  0.35332753435E+03  0.94234080713E+02 -0.15754155531E+03  0.43373234851E+03  0.17200000000E+03 0.  1.
</event>
<event>
 4    1 -0.3305908E-004  0.1934573E+03  0.7818608E-02  0.1155380E+00
          5   -1    0    0  501    0  0.00000000000E+00  0.00000000000E+00  0.26421384539E+04  0.26421426342E+04  0.47000000000E+01 0. -1.
         -5   -1    0    0    0  501 -0.00000000000E+00 -0.00000000000E+00 -0.21244490046E+02  0.21758179090E+02  0.47000000000E+01 0.  1.
          6    1    1    2  502    0  0.31393921732E+02 -0.82801820693E+02  0.20886244439E+04  0.20975647279E+04  0.17200000000E+03 0. -1.
         -6    1    1    2    0  502 -0.31393921732E+02  0.82801820693E+02  0.53226951993E+03  0.56633608545E+03  0.17200000000E+03 0.  1.
</event>
<event>
 4    1 -0.3305908E-004  0.2139644E+03  0.7818608E-02  0.1138465E+00
         -5   -1    0    0    0  501 -0.00000000000E+00  0.00000000000E+00  0.58603126111E+03  0.58605010792E+03  0.47000000000E+01 0.  1.
          5   -1    0    0  501    0  0.00000000000E+00 -0.00000000000E+00 -0.78379766948E+02  0.78520556970E+02  0.47000000000E+01 0. -1.
          6    1    1    2  502    0 -0.54069302639E+02  0.11520963645E+03  0.27602682813E+03  0.34924426934E+03  0.17200000000E+03 0.  1.
         -6    1    1    2    0  502  0.54069302639E+02 -0.11520963645E+03  0.23162466602E+03  0.31532639555E+03  0.17200000000E+03 0. -1.
</event>
<event>
 4    1 -0.3305908E-004  0.1735944E+03  0.7818608E-02  0.1174150E+00
          5   -1    0    0  501    0  0.00000000000E+00  0.00000000000E+00  0.15267265993E+03  0.15274498712E+03  0.47000000000E+01 0. -1.
         -5   -1    0    0    0  501 -0.00000000000E+00 -0.00000000000E+00 -0.21107869805E+03  0.21113101802E+03  0.47000000000E+01 0.  1.
          6    1    1    2  502    0 -0.16402828928E+02  0.16792219301E+02 -0.75780728270E+02  0.18941422915E+03  0.17200000000E+03 0.  1.
         -6    1    1    2    0  502  0.16402828928E+02 -0.16792219301E+02  0.17374690149E+02  0.17446177600E+03  0.17200000000E+03 0. -1.
</event>
<event>
 4    1 -0.3305908E-004  0.2383796E+03  0.7818608E-02  0.1120877E+00
         -5   -1    0    0    0  501 -0.00000000000E+00  0.00000000000E+00  0.50172293866E+03  0.50174495232E+03  0.47000000000E+01 0.  1.
          5   -1    0    0  501    0  0.00000000000E+00 -0.00000000000E+00 -0.11676498552E+03  0.11685953895E+03  0.47000000000E+01 0. -1.
          6    1    1    2  502    0 -0.15380075135E+03 -0.59884752873E+02  0.13835652642E+03  0.27562181181E+03  0.17200000000E+03 0. -1.
         -6    1    1    2    0  502  0.15380075135E+03  0.59884752873E+02  0.24660142672E+03  0.34298267945E+03  0.17200000000E+03 0.  1.
</event>
<event>
 4    1 -0.3305908E-004  0.1931219E+03  0.7818608E-02  0.1155675E+00
          5   -1    0    0  501    0  0.00000000000E+00  0.00000000000E+00  0.15813540275E+03  0.15820523254E+03  0.47000000000E+01 0. -1.
         -5   -1    0    0    0  501 -0.00000000000E+00 -0.00000000000E+00 -0.90739894369E+03  0.90741111576E+03  0.47000000000E+01 0.  1.
          6    1    1    2  502    0  0.41614569786E+02  0.77332273658E+02  0.83757203627E+02  0.21050254660E+03  0.17200000000E+03 0. -1.
         -6    1    1    2    0  502 -0.41614569786E+02 -0.77332273658E+02 -0.83302074456E+03  0.85511380169E+03  0.17200000000E+03 0.  1.
</event>
<event>
 4    1 -0.3305908E-004  0.4103184E+03  0.7818608E-02  0.1040264E+00
          5   -1    0    0  501    0  0.00000000000E+00  0.00000000000E+00  0.12544704653E+03  0.12553506077E+03  0.47000000000E+01 0. -1.
         -5   -1    0    0    0  501 -0.00000000000E+00 -0.00000000000E+00 -0.14613557675E+04  0.14613633255E+04  0.47000000000E+01 0.  1.
          6    1    1    2  502    0 -0.87499459722E+02 -0.36210634961E+03 -0.44075456376E+03  0.60218414903E+03  0.17200000000E+03 0. -1.
         -6    1    1    2    0  502  0.87499459722E+02  0.36210634961E+03 -0.89515415719E+03  0.98471423723E+03  0.17200000000E+03 0.  1.
</event>
<event>
 4    1 -0.3305908E-004  0.2434098E+03  0.7818608E-02  0.1117542E+00
          5   -1    0    0  501    0  0.00000000000E+00  0.00000000000E+00  0.91061343831E+02  0.91182555022E+02  0.47000000000E+01 0. -1.
         -5   -1    0    0    0  501 -0.00000000000E+00 -0.00000000000E+00 -0.65715307863E+03  0.65716988576E+03  0.47000000000E+01 0.  1.
          6    1    1    2  502    0 -0.81715471077E+02 -0.15161441215E+03 -0.32186189162E+03  0.40353862945E+03  0.17200000000E+03 0. -1.
         -6    1    1    2    0  502  0.81715471077E+02  0.15161441215E+03 -0.24422984318E+03  0.34481381133E+03  0.17200000000E+03 0.  1.
</event>
<event>
 4    1 -0.3305908E-004  0.1841166E+03  0.7818608E-02  0.1163877E+00
         -5   -1    0    0    0  501 -0.00000000000E+00  0.00000000000E+00  0.11877369237E+03  0.11886664797E+03  0.47000000000E+01 0.  1.
          5   -1    0    0  501    0  0.00000000000E+00 -0.00000000000E+00 -0.32210206925E+03  0.32213635779E+03  0.47000000000E+01 0. -1.
          6    1    1    2  502    0 -0.52614726180E+02 -0.39327042447E+02 -0.27028143826E+02  0.18608988752E+03  0.17200000000E+03 0. -1.
         -6    1    1    2    0  502  0.52614726180E+02  0.39327042447E+02 -0.17630023305E+03  0.25491311824E+03  0.17200000000E+03 0. -1.
</event>
<event>
 4    1 -0.3305908E-004  0.2499342E+03  0.7818608E-02  0.1113346E+00
         -5   -1    0    0    0  501 -0.00000000000E+00  0.00000000000E+00  0.13470110992E+04  0.13470192988E+04  0.47000000000E+01 0.  1.
          5   -1    0    0  501    0  0.00000000000E+00 -0.00000000000E+00 -0.50487113106E+02  0.50705409867E+02  0.47000000000E+01 0. -1.
          6    1    1    2  502    0 -0.16228424105E+03 -0.80913167056E+02  0.44620820179E+03  0.51143804595E+03  0.17200000000E+03 0. -1.
         -6    1    1    2    0  502  0.16228424105E+03  0.80913167056E+02  0.85031578427E+03  0.88628666269E+03  0.17200000000E+03 0. -1.
</event>
<event>
 4    1 -0.3305908E-004  0.4639395E+03  0.7818608E-02  0.1023645E+00
         -5   -1    0    0    0  501 -0.00000000000E+00  0.00000000000E+00  0.33800035382E+03  0.33803302973E+03  0.47000000000E+01 0.  1.
          5   -1    0    0  501    0  0.00000000000E+00 -0.00000000000E+00 -0.81263562199E+03  0.81264921345E+03  0.47000000000E+01 0. -1.
          6    1    1    2  502    0  0.31386193590E+03  0.29520593447E+03 -0.50498942650E+03  0.68575081438E+03  0.17200000000E+03 0. -1.
         -6    1    1    2    0  502 -0.31386193590E+03 -0.29520593447E+03  0.30354158336E+02  0.46493142879E+03  0.17200000000E+03 0.  1.
</event>
<event>
 4    1 -0.3305908E-004  0.1924016E+03  0.7818608E-02  0.1156313E+00
         -5   -1    0    0    0  501 -0.00000000000E+00  0.00000000000E+00  0.65721992531E+02  0.65889834590E+02  0.47000000000E+01 0.  1.
          5   -1    0    0  501    0  0.00000000000E+00 -0.00000000000E+00 -0.58571523403E+03  0.58573409102E+03  0.47000000000E+01 0. -1.
          6    1    1    2  502    0 -0.61342539810E+02  0.60592568384E+02 -0.32504521365E+03  0.37772047529E+03  0.17200000000E+03 0.  1.
         -6    1    1    2    0  502  0.61342539810E+02 -0.60592568384E+02 -0.19494802785E+03  0.27390345032E+03  0.17200000000E+03 0.  1.
</event>
<event>
 4    1 -0.3305908E-004  0.2506823E+03  0.7818608E-02  0.1112874E+00
          5   -1    0    0  501    0  0.00000000000E+00  0.00000000000E+00  0.11055761829E+03  0.11065747585E+03  0.47000000000E+01 0. -1.
         -5   -1    0    0    0  501 -0.00000000000E+00 -0.00000000000E+00 -0.79864867535E+03  0.79866250484E+03  0.47000000000E+01 0.  1.
          6    1    1    2  502    0 -0.10583343758E+03 -0.14851560942E+03 -0.99750153713E+02  0.26979936234E+03  0.17200000000E+03 0. -1.
         -6    1    1    2    0  502  0.10583343758E+03  0.14851560942E+03 -0.58834090335E+03  0.63952061836E+03  0.17200000000E+03 0.  1.
</event>
<event>
 4    1 -0.3305908E-004  0.2275988E+03  0.7818608E-02  0.1128341E+00
          5   -1    0    0  501    0  0.00000000000E+00  0.00000000000E+00  0.12019449054E+03  0.12028634817E+03  0.47000000000E+01 0. -1.
         -5   -1    0    0    0  501 -0.00000000000E+00 -0.00000000000E+00 -0.46693614047E+03  0.46695979407E+03  0.47000000000E+01 0.  1.
          6    1    1    2  502    0 -0.12317267806E+03 -0.83938621391E+02 -0.91594961194E+02  0.24533821084E+03  0.17200000000E+03 0. -1.
         -6    1    1    2    0  502  0.12317267806E+03  0.83938621391E+02 -0.25514668874E+03  0.34190793140E+03  0.17200000000E+03 0.  1.
</event>
<event>
 4    1 -0.3305908E-004  0.2155983E+03  0.7818608E-02  0.1137208E+00
         -5   -1    0    0    0  501 -0.00000000000E+00  0.00000000000E+00  0.32498266410E+03  0.32501664876E+03  0.47000000000E+01 0.  1.
          5   -1    0    0  501    0  0.00000000000E+00 -0.00000000000E+00 -0.17972244724E+03  0.17978389261E+03  0.47000000000E+01 0. -1.
          6    1    1    2  502    0  0.24390448122E+02  0.12768608395E+03 -0.41504952804E+02  0.21955703382E+03  0.17200000000E+03 0. -1.
         -6    1    1    2    0  502 -0.24390448122E+02 -0.12768608395E+03  0.18676516967E+03  0.28524350754E+03  0.17200000000E+03 0.  1.
</event>
<event>
 4    1 -0.3305908E-004  0.1787307E+03  0.7818608E-02  0.1169037E+00
          5   -1    0    0  501    0  0.00000000000E+00  0.00000000000E+00  0.11235547955E+04  0.11235646258E+04  0.47000000000E+01 0. -1.
         -5   -1    0    0    0  501 -0.00000000000E+00 -0.00000000000E+00 -0.30249514773E+02  0.30612467134E+02  0.47000000000E+01 0.  1.
          6    1    1    2  502    0 -0.13897376727E+02 -0.46556755074E+02  0.39839343251E+03  0.43664859509E+03  0.17200000000E+03 0.  1.
         -6    1    1    2    0  502  0.13897376727E+02  0.46556755074E+02  0.69491184818E+03  0.71752849788E+03  0.17200000000E+03 0. -1.
</event>
<event>
 4    1 -0.3305908E-004  0.4914910E+03  0.7818608E-02  0.1016024E+00
         -5   -1    0    0    0  501 -0.00000000000E+00  0.00000000000E+00  0.41245242041E+03  0.41247919839E+03  0.47000000000E+01 0.  1.
          5   -1    0    0  501    0  0.00000000000E+00 -0.00000000000E+00 -0.74062671460E+03  0.74064162750E+03  0.47000000000E+01 0. -1.
          6    1    1    2  502    0 -0.13522172140E+03 -0.44010739341E+03 -0.42784577278E+03  0.65162522738E+03  0.17200000000E+03 0. -1.
         -6    1    1    2    0  502  0.13522172140E+03  0.44010739341E+03  0.99671478586E+02  0.50149559850E+03  0.17200000000E+03 0.  1.
</event>
<event>
 4    1 -0.3305908E-004  0.3661267E+03  0.7818608E-02  0.1056184E+00
          5   -1    0    0  501    0  0.00000000000E+00  0.00000000000E+00  0.58423048922E+03  0.58424939412E+03  0.47000000000E+01 0. -1.
         -5   -1    0    0    0  501 -0.00000000000E+00 -0.00000000000E+00 -0.31778062787E+03  0.31781538265E+03  0.47000000000E+01 0.  1.
          6    1    1    2  502    0  0.32162414634E+03 -0.31978787338E+02  0.37106531570E+03  0.52128514544E+03  0.17200000000E+03 0. -1.
         -6    1    1    2    0  502 -0.32162414634E+03  0.31978787338E+02 -0.10461545435E+03  0.38077963133E+03  0.17200000000E+03 0.  1.
</event>
<event>
 4    1 -0.3305908E-004  0.4250936E+03  0.7818608E-02  0.1035421E+00
          5   -1    0    0  501    0  0.00000000000E+00  0.00000000000E+00  0.13056030868E+04  0.13056115464E+04  0.47000000000E+01 0. -1.
         -5   -1    0    0    0  501 -0.00000000000E+00 -0.00000000000E+00 -0.20862605954E+03  0.20867899444E+03  0.47000000000E+01 0.  1.
          6    1    1    2  502    0 -0.35243021317E+03 -0.16405350214E+03  0.98782316443E+03  0.10754065329E+04  0.17200000000E+03 0. -1.
         -6    1    1    2    0  502  0.35243021317E+03  0.16405350214E+03  0.10915386280E+03  0.43888400801E+03  0.17200000000E+03 0.  1.
</event>
<event>
 4    1 -0.3305908E-004  0.1820402E+03  0.7818608E-02  0.1165843E+00
          5   -1    0    0  501    0  0.00000000000E+00  0.00000000000E+00  0.60160868887E+02  0.60344180707E+02  0.47000000000E+01 0. -1.
         -5   -1    0    0    0  501 -0.00000000000E+00 -0.00000000000E+00 -0.63665938939E+03  0.63667673752E+03  0.47000000000E+01 0.  1.
          6    1    1    2  502    0 -0.27508297831E+02  0.52895556510E+02 -0.15954432429E+03  0.24205998794E+03  0.17200000000E+03 0. -1.
         -6    1    1    2    0  502  0.27508297831E+02 -0.52895556510E+02 -0.41695419621E+03  0.45496093029E+03  0.17200000000E+03 0.  1.
</event>
<event>
 4    1 -0.3305908E-004  0.9484200E+03  0.7818608E-02  0.9366999E-01
         -5   -1    0    0    0  501 -0.00000000000E+00  0.00000000000E+00  0.32086477764E+03  0.32089919840E+03  0.47000000000E+01 0.  1.
          5   -1    0    0  501    0  0.00000000000E+00 -0.00000000000E+00 -0.28592332783E+04  0.28592371413E+04  0.47000000000E+01 0. -1.
          6    1    1    2  502    0 -0.85785717594E+03  0.36605684523E+03 -0.10465449500E+04  0.14123586232E+04  0.17200000000E+03 0. -1.
         -6    1    1    2    0  502  0.85785717594E+03 -0.36605684523E+03 -0.14918235507E+04  0.17677777164E+04  0.17200000000E+03 0.  1.
</event>
<event>
 4    1 -0.3305908E-004  0.2058613E+03  0.7818608E-02  0.1144886E+00
          5   -1    0    0  501    0  0.00000000000E+00  0.00000000000E+00  0.99202878521E+02  0.99314153608E+02  0.47000000000E+01 0. -1.
         -5   -1    0    0    0  501 -0.00000000000E+00 -0.00000000000E+00 -0.42747975006E+03  0.42750558676E+03  0.47000000000E+01 0.  1.
          6    1    1    2  502    0  0.10214264777E+03 -0.48597845570E+02 -0.15387291568E+03  0.25701312275E+03  0.17200000000E+03 0.  1.
         -6    1    1    2    0  502 -0.10214264777E+03  0.48597845570E+02 -0.17440395586E+03  0.26980661761E+03  0.17200000000E+03 0.  1.
</event>
<event>
 4    1 -0.3305908E-004  0.1769012E+03  0.7818608E-02  0.1170836E+00
         -5   -1    0    0    0  501 -0.00000000000E+00  0.00000000000E+00  0.22694501681E+02  0.23176074011E+02  0.47000000000E+01 0.  1.
          5   -1    0    0  501    0  0.00000000000E+00 -0.00000000000E+00 -0.15387577426E+04  0.15387649204E+04  0.47000000000E+01 0. -1.
          6    1    1    2  502    0  0.36289071102E+02 -0.19827612682E+02 -0.10212063661E+04  0.10364152030E+04  0.17200000000E+03 0. -1.
         -6    1    1    2    0  502 -0.36289071102E+02  0.19827612682E+02 -0.49485687482E+03  0.52552579143E+03  0.17200000000E+03 0.  1.
</event>
<event>
 4    1 -0.3305908E-004  0.3436931E+03  0.7818608E-02  0.1065234E+00
          5   -1    0    0  501    0  0.00000000000E+00  0.00000000000E+00  0.18989795319E+03  0.18995610710E+03  0.47000000000E+01 0. -1.
         -5   -1    0    0    0  501 -0.00000000000E+00 -0.00000000000E+00 -0.71421631581E+03  0.71423178014E+03  0.47000000000E+01 0.  1.
          6    1    1    2  502    0  0.29471968263E+03 -0.41003295596E+02 -0.42470368567E+03  0.54634987160E+03  0.17200000000E+03 0. -1.
         -6    1    1    2    0  502 -0.29471968263E+03  0.41003295596E+02 -0.99614676950E+02  0.35783801564E+03  0.17200000000E+03 0.  1.
</event>
<event>
 4    1 -0.3305908E-004  0.2675045E+03  0.7818608E-02  0.1102716E+00
         -5   -1    0    0    0  501 -0.00000000000E+00  0.00000000000E+00  0.47446976641E+03  0.47449304446E+03  0.47000000000E+01 0.  1.
          5   -1    0    0  501    0  0.00000000000E+00 -0.00000000000E+00 -0.15159025122E+03  0.15166309460E+03  0.47000000000E+01 0. -1.
          6    1    1    2  502    0 -0.63419581036E+02  0.19481424991E+03  0.13820091408E+03  0.30109488186E+03  0.17200000000E+03 0. -1.
         -6    1    1    2    0  502  0.63419581036E+02 -0.19481424991E+03  0.18467860111E+03  0.32506125720E+03  0.17200000000E+03 0.  1.
</event>
<event>
 4    1 -0.3305908E-004  0.1733843E+03  0.7818608E-02  0.1174364E+00
         -5   -1    0    0    0  501 -0.00000000000E+00  0.00000000000E+00  0.14414989881E+04  0.14415066503E+04  0.47000000000E+01 0.  1.
          5   -1    0    0  501    0  0.00000000000E+00 -0.00000000000E+00 -0.20747940615E+02  0.21273623099E+02  0.47000000000E+01 0. -1.
          6    1    1    2  502    0  0.20543609609E+02 -0.74875299746E+01  0.64581934595E+03  0.66868881448E+03  0.17200000000E+03 0.  1.
         -6    1    1    2    0  502 -0.20543609609E+02  0.74875299746E+01  0.77493170155E+03  0.79409145888E+03  0.17200000000E+03 0.  1.
</event>
<event>
 4    1 -0.3305908E-004  0.1775886E+03  0.7818608E-02  0.1170157E+00
         -5   -1    0    0    0  501 -0.00000000000E+00  0.00000000000E+00  0.10913095686E+03  0.10923211865E+03  0.47000000000E+01 0.  1.
          5   -1    0    0  501    0  0.00000000000E+00 -0.00000000000E+00 -0.49159314169E+03  0.49161560894E+03  0.47000000000E+01 0. -1.
          6    1    1    2  502    0 -0.42891234827E+02  0.10679535766E+02  0.17297573697E+01  0.17759702298E+03  0.17200000000E+03 0.  1.
         -6    1    1    2    0  502  0.42891234827E+02 -0.10679535766E+02 -0.38419194220E+03  0.42325070462E+03  0.17200000000E+03 0. -1.
</event>
<event>
 4    1 -0.3305908E-004  0.3467861E+03  0.7818608E-02  0.1063942E+00
         -5   -1    0    0    0  501 -0.00000000000E+00  0.00000000000E+00  0.38705704554E+03  0.38708558034E+03  0.47000000000E+01 0.  1.
          5   -1    0    0  501    0  0.00000000000E+00 -0.00000000000E+00 -0.49575904015E+03  0.49578131862E+03  0.47000000000E+01 0. -1.
          6    1    1    2  502    0 -0.27340777332E+02 -0.29988181197E+03 -0.32407626314E+03  0.47464306967E+03  0.17200000000E+03 0. -1.
         -6    1    1    2    0  502  0.27340777332E+02  0.29988181197E+03  0.21537426853E+03  0.40822382929E+03  0.17200000000E+03 0.  1.
</event>
<event>
 4    1 -0.3305908E-004  0.2706518E+03  0.7818608E-02  0.1100907E+00
         -5   -1    0    0    0  501 -0.00000000000E+00  0.00000000000E+00  0.16148764558E+04  0.16148832953E+04  0.47000000000E+01 0.  1.
          5   -1    0    0  501    0  0.00000000000E+00 -0.00000000000E+00 -0.61286936621E+02  0.61466890278E+02  0.47000000000E+01 0. -1.
          6    1    1    2  502    0 -0.19559828278E+03 -0.73550666730E+02  0.34856377221E+03  0.44130385462E+03  0.17200000000E+03 0. -1.
         -6    1    1    2    0  502  0.19559828278E+03  0.73550666730E+02  0.12050257470E+04  0.12350463310E+04  0.17200000000E+03 0.  1.
</event>
<event>
 4    1 -0.3305908E-004  0.1772782E+03  0.7818608E-02  0.1170463E+00
         -5   -1    0    0    0  501 -0.00000000000E+00  0.00000000000E+00  0.10360114700E+03  0.10370770299E+03  0.47000000000E+01 0.  1.
          5   -1    0    0  501    0  0.00000000000E+00 -0.00000000000E+00 -0.32300456694E+03  0.32303875970E+03  0.47000000000E+01 0. -1.
          6    1    1    2  502    0 -0.26214990359E+02  0.34005043221E+02 -0.56706765640E+02  0.18612690819E+03  0.17200000000E+03 0.  1.
         -6    1    1    2    0  502  0.26214990359E+02 -0.34005043221E+02 -0.16269665430E+03  0.24061955449E+03  0.17200000000E+03 0.  1.
</event>
<event>
 4    1 -0.3305908E-004  0.3084020E+03  0.7818608E-02  0.1081114E+00
          5   -1    0    0  501    0  0.00000000000E+00  0.00000000000E+00  0.15610577081E+03  0.15617650810E+03  0.47000000000E+01 0. -1.
         -5   -1    0    0    0  501 -0.00000000000E+00 -0.00000000000E+00 -0.71169809201E+03  0.71171361106E+03  0.47000000000E+01 0.  1.
          6    1    1    2  502    0 -0.22458656897E+03 -0.12283584193E+03 -0.44257998752E+03  0.53943379239E+03  0.17200000000E+03 0.  1.
         -6    1    1    2    0  502  0.22458656897E+03  0.12283584193E+03 -0.11301233368E+03  0.32845632676E+03  0.17200000000E+03 0.  1.
</event>
<event>
 4    1 -0.3305908E-004  0.1728232E+03  0.7818608E-02  0.1174935E+00
         -5   -1    0    0    0  501 -0.00000000000E+00  0.00000000000E+00  0.30146196535E+03  0.30149860124E+03  0.47000000000E+01 0.  1.
          5   -1    0    0  501    0  0.00000000000E+00 -0.00000000000E+00 -0.10243742753E+03  0.10254519276E+03  0.47000000000E+01 0. -1.
          6    1    1    2  502    0  0.13819200042E+01 -0.16791824973E+02  0.13660937895E+03  0.22029525076E+03  0.17200000000E+03 0. -1.
         -6    1    1    2    0  502 -0.13819200042E+01  0.16791824973E+02  0.62415158866E+02  0.18374854325E+03  0.17200000000E+03 0. -1.
</event>
<event>
 4    1 -0.3305908E-004  0.3295373E+03  0.7818608E-02  0.1071342E+00
          5   -1    0    0  501    0  0.00000000000E+00  0.00000000000E+00  0.49948922765E+03  0.49951133975E+03  0.47000000000E+01 0. -1.
         -5   -1    0    0    0  501 -0.00000000000E+00 -0.00000000000E+00 -0.22386805844E+03  0.22391739010E+03  0.47000000000E+01 0.  1.
          6    1    1    2  502    0 -0.17998098816E+02 -0.28051184718E+03  0.19947642711E+03  0.38520860964E+03  0.17200000000E+03 0. -1.
         -6    1    1    2    0  502  0.17998098816E+02  0.28051184718E+03  0.76144742103E+02  0.33822012021E+03  0.17200000000E+03 0.  1.
</event>
<event>
 4    1 -0.3305908E-004  0.2274493E+03  0.7818608E-02  0.1128448E+00
         -5   -1    0    0    0  501 -0.00000000000E+00  0.00000000000E+00  0.45591875735E+03  0.45594298251E+03  0.47000000000E+01 0.  1.
          5   -1    0    0  501    0  0.00000000000E+00 -0.00000000000E+00 -0.11975030974E+03  0.11984250783E+03  0.47000000000E+01 0. -1.
          6    1    1    2  502    0 -0.40175708655E+02 -0.14330067826E+03  0.10179067679E+03  0.24918770803E+03  0.17200000000E+03 0. -1.
         -6    1    1    2    0  502  0.40175708655E+02  0.14330067826E+03  0.23437777082E+03  0.32659778231E+03  0.17200000000E+03 0.  1.
</event>
<event>
 4    1 -0.3305908E-004  0.4813871E+03  0.7818608E-02  0.1018755E+00
          5   -1    0    0  501    0  0.00000000000E+00  0.00000000000E+00  0.34248339634E+03  0.34251564456E+03  0.47000000000E+01 0. -1.
         -5   -1    0    0    0  501 -0.00000000000E+00 -0.00000000000E+00 -0.68498821431E+03  0.68500433848E+03  0.47000000000E+01 0.  1.
          6    1    1    2  502    0  0.44182235011E+03  0.83321819882E+02 -0.11424823784E+03  0.49475870339E+03  0.17200000000E+03 0. -1.
         -6    1    1    2    0  502 -0.44182235011E+03 -0.83321819882E+02 -0.22825658012E+03  0.53276127965E+03  0.17200000000E+03 0.  1.
</event>
<event>
 4    1 -0.3305908E-004  0.1856239E+03  0.7818608E-02  0.1162469E+00
          5   -1    0    0  501    0  0.00000000000E+00  0.00000000000E+00  0.55930650932E+02  0.56127780231E+02  0.47000000000E+01 0. -1.
         -5   -1    0    0    0  501 -0.00000000000E+00 -0.00000000000E+00 -0.62684104203E+03  0.62685866188E+03  0.47000000000E+01 0.  1.
          6    1    1    2  502    0  0.17454174064E+01  0.69779500512E+02 -0.23806033378E+03  0.30187571564E+03  0.17200000000E+03 0. -1.
         -6    1    1    2    0  502 -0.17454174064E+01 -0.69779500512E+02 -0.33285005732E+03  0.38111072647E+03  0.17200000000E+03 0. -1.
</event>
<event>
 4    1 -0.3305908E-004  0.1916615E+03  0.7818608E-02  0.1156971E+00
         -5   -1    0    0    0  501 -0.00000000000E+00  0.00000000000E+00  0.51216527807E+03  0.51218684292E+03  0.47000000000E+01 0.  1.
          5   -1    0    0  501    0  0.00000000000E+00 -0.00000000000E+00 -0.10229675354E+03  0.10240466681E+03  0.47000000000E+01 0. -1.
          6    1    1    2  502    0  0.18546664200E+02  0.82499400336E+02  0.36788931355E+02  0.19516033224E+03  0.17200000000E+03 0.  1.
         -6    1    1    2    0  502 -0.18546664200E+02 -0.82499400336E+02  0.37307959317E+03  0.41943117749E+03  0.17200000000E+03 0.  1.
</event>
<event>
 4    1 -0.3305908E-004  0.2084766E+03  0.7818608E-02  0.1142778E+00
          5   -1    0    0  501    0  0.00000000000E+00  0.00000000000E+00  0.42632635156E+03  0.42635225816E+03  0.47000000000E+01 0. -1.
         -5   -1    0    0    0  501 -0.00000000000E+00 -0.00000000000E+00 -0.25025425147E+03  0.25029838269E+03  0.47000000000E+01 0.  1.
          6    1    1    2  502    0 -0.84098503855E+02  0.82498142315E+02  0.34850667858E+03  0.40610270481E+03  0.17200000000E+03 0. -1.
         -6    1    1    2    0  502  0.84098503855E+02 -0.82498142315E+02 -0.17243457849E+03  0.27054793604E+03  0.17200000000E+03 0.  1.
</event>
<event>
 4    1 -0.3305908E-004  0.4617768E+03  0.7818608E-02  0.1024267E+00
         -5   -1    0    0    0  501 -0.00000000000E+00  0.00000000000E+00  0.41940316059E+03  0.41942949481E+03  0.47000000000E+01 0.  1.
          5   -1    0    0  501    0  0.00000000000E+00 -0.00000000000E+00 -0.50867296318E+03  0.50869467607E+03  0.47000000000E+01 0. -1.
          6    1    1    2  502    0 -0.37392305774E+03 -0.20936895921E+03 -0.33468701726E+02  0.46298808644E+03  0.17200000000E+03 0. -1.
         -6    1    1    2    0  502  0.37392305774E+03  0.20936895921E+03 -0.55801100856E+02  0.46513608444E+03  0.17200000000E+03 0.  1.
</event>
<event>
 4    1 -0.3305908E-004  0.1975918E+03  0.7818608E-02  0.1151787E+00
         -5   -1    0    0    0  501 -0.00000000000E+00  0.00000000000E+00  0.10554989264E+04  0.10555093906E+04  0.47000000000E+01 0.  1.
          5   -1    0    0  501    0  0.00000000000E+00 -0.00000000000E+00 -0.42749631362E+02  0.43007220110E+02  0.47000000000E+01 0. -1.
          6    1    1    2  502    0  0.97112193584E+02 -0.52679595232E+01  0.71008319385E+03  0.73706218987E+03  0.17200000000E+03 0.  1.
         -6    1    1    2    0  502 -0.97112193584E+02  0.52679595232E+01  0.30266610123E+03  0.36145442088E+03  0.17200000000E+03 0. -1.
</event>
<event>
 4    1 -0.3305908E-004  0.1845193E+03  0.7818608E-02  0.1163499E+00
         -5   -1    0    0    0  501 -0.00000000000E+00  0.00000000000E+00  0.48598136764E+03  0.48600409432E+03  0.47000000000E+01 0.  1.
          5   -1    0    0  501    0  0.00000000000E+00 -0.00000000000E+00 -0.18420946523E+03  0.18426941439E+03  0.47000000000E+01 0. -1.
          6    1    1    2  502    0  0.33334670945E+02  0.57898097283E+02 -0.11295735317E+03  0.21634868521E+03  0.17200000000E+03 0. -1.
         -6    1    1    2    0  502 -0.33334670945E+02 -0.57898097283E+02  0.41472925558E+03  0.45392482350E+03  0.17200000000E+03 0.  1.
</event>
<event>
 4    1 -0.3305908E-004  0.2984848E+03  0.7818608E-02  0.1086001E+00
         -5   -1    0    0    0  501 -0.00000000000E+00  0.00000000000E+00  0.12065613249E+03  0.12074763893E+03  0.47000000000E+01 0.  1.
          5   -1    0    0  501    0  0.00000000000E+00 -0.00000000000E+00 -0.78178097877E+03  0.78179510664E+03  0.47000000000E+01 0. -1.
          6    1    1    2  502    0 -0.22169664091E+03 -0.10178291038E+03 -0.43731444343E+03  0.52946868072E+03  0.17200000000E+03 0. -1.
         -6    1    1    2    0  502  0.22169664091E+03  0.10178291038E+03 -0.22381040286E+03  0.37307406485E+03  0.17200000000E+03 0. -1.
</event>
<event>
 4    1 -0.3305908E-004  0.7188155E+03  0.7818608E-02  0.9685585E-01
         -5   -1    0    0    0  501 -0.00000000000E+00  0.00000000000E+00  0.47571883365E+03  0.47574205058E+03  0.47000000000E+01 0.  1.
          5   -1    0    0  501    0  0.00000000000E+00 -0.00000000000E+00 -0.11163864259E+04  0.11163963193E+04  0.47000000000E+01 0. -1.
          6    1    1    2  502    0  0.33059594008E+03 -0.61466901577E+03 -0.45149065260E+03  0.84884597186E+03  0.17200000000E+03 0. -1.
         -6    1    1    2    0  502 -0.33059594008E+03  0.61466901577E+03 -0.18917693959E+03  0.74329239807E+03  0.17200000000E+03 0.  1.
</event>
<event>
 4    1 -0.3305908E-004  0.2175473E+03  0.7818608E-02  0.1135725E+00
         -5   -1    0    0    0  501 -0.00000000000E+00  0.00000000000E+00  0.35835084167E+03  0.35838166209E+03  0.47000000000E+01 0.  1.
          5   -1    0    0  501    0  0.00000000000E+00 -0.00000000000E+00 -0.13302828859E+03  0.13311129015E+03  0.47000000000E+01 0. -1.
          6    1    1    2  502    0 -0.11232680617E+03 -0.71592768936E+02  0.13436154524E+03  0.25569485874E+03  0.17200000000E+03 0.  1.
         -6    1    1    2    0  502  0.11232680617E+03  0.71592768936E+02  0.90961007845E+02  0.23579809350E+03  0.17200000000E+03 0.  1.
</event>
<event>
 4    1 -0.3305908E-004  0.4070625E+03  0.7818608E-02  0.1041361E+00
         -5   -1    0    0    0  501 -0.00000000000E+00  0.00000000000E+00  0.46760641005E+03  0.46763002974E+03  0.47000000000E+01 0.  1.
          5   -1    0    0  501    0  0.00000000000E+00 -0.00000000000E+00 -0.35692548500E+03  0.35695642850E+03  0.47000000000E+01 0. -1.
          6    1    1    2  502    0 -0.32594521095E+03 -0.17284554231E+03  0.90635244413E+02  0.41703070579E+03  0.17200000000E+03 0. -1.
         -6    1    1    2    0  502  0.32594521095E+03  0.17284554231E+03  0.20045680631E+02  0.40755575245E+03  0.17200000000E+03 0.  1.
</event>
<event>
 4    1 -0.3305908E-004  0.2244104E+03  0.7818608E-02  0.1130637E+00
          5   -1    0    0  501    0  0.00000000000E+00  0.00000000000E+00  0.57542571366E+03  0.57544490782E+03  0.47000000000E+01 0. -1.
         -5   -1    0    0    0  501 -0.00000000000E+00 -0.00000000000E+00 -0.87464771111E+02  0.87590959497E+02  0.47000000000E+01 0.  1.
          6    1    1    2  502    0  0.86936311248E+02 -0.11497007338E+03  0.23777872464E+03  0.32695376107E+03  0.17200000000E+03 0. -1.
         -6    1    1    2    0  502 -0.86936311248E+02  0.11497007338E+03  0.25018221791E+03  0.33608210625E+03  0.17200000000E+03 0. -1.
</event>
<event>
 4    1 -0.3305908E-004  0.1727325E+03  0.7818608E-02  0.1175028E+00
         -5   -1    0    0    0  501 -0.00000000000E+00  0.00000000000E+00  0.34120626190E+03  0.34123863081E+03  0.47000000000E+01 0.  1.
          5   -1    0    0  501    0  0.00000000000E+00 -0.00000000000E+00 -0.11355435578E+03  0.11365158035E+03  0.47000000000E+01 0. -1.
          6    1    1    2  502    0 -0.14338009375E+02 -0.68522702295E+01  0.46238764669E+01  0.17279442223E+03  0.17200000000E+03 0. -1.
         -6    1    1    2    0  502  0.14338009375E+02  0.68522702295E+01  0.22302802965E+03  0.28209578893E+03  0.17200000000E+03 0.  1.
</event>
<event>
 4    1 -0.3305908E-004  0.1777815E+03  0.7818608E-02  0.1169968E+00
          5   -1    0    0  501    0  0.00000000000E+00  0.00000000000E+00  0.25508241198E+03  0.25512570804E+03  0.47000000000E+01 0. -1.
         -5   -1    0    0    0  501 -0.00000000000E+00 -0.00000000000E+00 -0.13724029846E+03  0.13732075415E+03  0.47000000000E+01 0.  1.
          6    1    1    2  502    0 -0.44591449411E+02  0.58205246682E+01  0.12028121313E+03  0.21464819147E+03  0.17200000000E+03 0. -1.
         -6    1    1    2    0  502  0.44591449411E+02 -0.58205246682E+01 -0.24390996044E+01  0.17779827073E+03  0.17200000000E+03 0.  1.
</event>
<event>
 4    1 -0.3305908E-004  0.1820085E+03  0.7818608E-02  0.1165873E+00
          5   -1    0    0  501    0  0.00000000000E+00  0.00000000000E+00  0.92707552246E+03  0.92708743619E+03  0.47000000000E+01 0. -1.
         -5   -1    0    0    0  501 -0.00000000000E+00 -0.00000000000E+00 -0.71917493977E+02  0.72070909110E+02  0.47000000000E+01 0.  1.
          6    1    1    2  502    0  0.45818305864E+02  0.37996964594E+02  0.78215890667E+03  0.80305643747E+03  0.17200000000E+03 0. -1.
         -6    1    1    2    0  502 -0.45818305864E+02 -0.37996964594E+02  0.72999121808E+02  0.19610190783E+03  0.17200000000E+03 0.  1.
</event>
<event>
 4    1 -0.3305908E-004  0.1807500E+03  0.7818608E-02  0.1167079E+00
         -5   -1    0    0    0  501 -0.00000000000E+00  0.00000000000E+00  0.10318103167E+04  0.10318210211E+04  0.47000000000E+01 0.  1.
          5   -1    0    0  501    0  0.00000000000E+00 -0.00000000000E+00 -0.32591383452E+02  0.32928532845E+02  0.47000000000E+01 0. -1.
          6    1    1    2  502    0 -0.47115548947E+02 -0.29439678283E+02  0.40174103037E+03  0.44052970966E+03  0.17200000000E+03 0. -1.
         -6    1    1    2    0  502  0.47115548947E+02  0.29439678283E+02  0.59747790286E+03  0.62421984430E+03  0.17200000000E+03 0.  1.
</event>
<event>
 4    1 -0.3305908E-004  0.1851641E+03  0.7818608E-02  0.1162897E+00
         -5   -1    0    0    0  501 -0.00000000000E+00  0.00000000000E+00  0.41739269718E+03  0.41741915823E+03  0.47000000000E+01 0.  1.
          5   -1    0    0  501    0  0.00000000000E+00 -0.00000000000E+00 -0.12478114289E+03  0.12486962650E+03  0.47000000000E+01 0. -1.
          6    1    1    2  502    0  0.15654144225E+02  0.66758462940E+02 -0.12284680937E+02  0.18557116692E+03  0.17200000000E+03 0. -1.
         -6    1    1    2    0  502 -0.15654144225E+02 -0.66758462940E+02  0.30489623522E+03  0.35671761782E+03  0.17200000000E+03 0.  1.
</event>
<event>
 4    1 -0.3305908E-004  0.1932195E+03  0.7818608E-02  0.1155589E+00
         -5   -1    0    0    0  501 -0.00000000000E+00  0.00000000000E+00  0.35190853306E+02  0.35503325991E+02  0.47000000000E+01 0.  1.
          5   -1    0    0  501    0  0.00000000000E+00 -0.00000000000E+00 -0.20229288018E+04  0.20229342617E+04  0.47000000000E+01 0. -1.
          6    1    1    2  502    0  0.65602808782E+02  0.58703119939E+02 -0.17054190968E+04  0.17163298286E+04  0.17200000000E+03 0. -1.
         -6    1    1    2    0  502 -0.65602808782E+02 -0.58703119939E+02 -0.28231885172E+03  0.34210775912E+03  0.17200000000E+03 0.  1.
</event>
<event>
 4    1 -0.3305908E-004  0.2915773E+03  0.7818608E-02  0.1089529E+00
         -5   -1    0    0    0  501 -0.00000000000E+00  0.00000000000E+00  0.11294610198E+04  0.11294707987E+04  0.47000000000E+01 0.  1.
          5   -1    0    0  501    0  0.00000000000E+00 -0.00000000000E+00 -0.81287159046E+02  0.81422921993E+02  0.47000000000E+01 0. -1.
          6    1    1    2  502    0 -0.14195683002E+03  0.18783386853E+03  0.35840991504E+03  0.46203351714E+03  0.17200000000E+03 0. -1.
         -6    1    1    2    0  502  0.14195683002E+03 -0.18783386853E+03  0.68976394570E+03  0.74886020360E+03  0.17200000000E+03 0.  1.
</event>
<event>
 4    1 -0.3305908E-004  0.2101054E+03  0.7818608E-02  0.1141483E+00
          5   -1    0    0  501    0  0.00000000000E+00  0.00000000000E+00  0.17398650746E+03  0.17404997781E+03  0.47000000000E+01 0. -1.
         -5   -1    0    0    0  501 -0.00000000000E+00 -0.00000000000E+00 -0.54063259191E+03  0.54065302130E+03  0.47000000000E+01 0.  1.
          6    1    1    2  502    0 -0.11662040340E+03 -0.30982932269E+02  0.77039630084E+02  0.22378419333E+03  0.17200000000E+03 0. -1.
         -6    1    1    2    0  502  0.11662040340E+03  0.30982932269E+02 -0.44368571454E+03  0.49091880578E+03  0.17200000000E+03 0. -1.
</event>
<event>
 4    1 -0.3305908E-004  0.2963231E+03  0.7818608E-02  0.1087093E+00
          5   -1    0    0  501    0  0.00000000000E+00  0.00000000000E+00  0.10651873347E+03  0.10662237373E+03  0.47000000000E+01 0. -1.
         -5   -1    0    0    0  501 -0.00000000000E+00 -0.00000000000E+00 -0.21298504522E+04  0.21298556380E+04  0.47000000000E+01 0.  1.
          6    1    1    2  502    0 -0.20404182474E+03 -0.12880347295E+03 -0.13602877537E+03  0.32605402715E+03  0.17200000000E+03 0. -1.
         -6    1    1    2    0  502  0.20404182474E+03  0.12880347295E+03 -0.18873029434E+04  0.19104239846E+04  0.17200000000E+03 0.  1.
</event>
<event>
 4    1 -0.3305908E-004  0.1969643E+03  0.7818608E-02  0.1152326E+00
         -5   -1    0    0    0  501 -0.00000000000E+00  0.00000000000E+00  0.16757009003E+03  0.16763598979E+03  0.47000000000E+01 0.  1.
          5   -1    0    0  501    0  0.00000000000E+00 -0.00000000000E+00 -0.24385028813E+03  0.24389557810E+03  0.47000000000E+01 0. -1.
          6    1    1    2  502    0 -0.38183836252E+02 -0.88050823361E+02  0.83819059390E+01  0.19714261131E+03  0.17200000000E+03 0.  1.
         -6    1    1    2    0  502  0.38183836252E+02  0.88050823361E+02 -0.84662104038E+02  0.21438895658E+03  0.17200000000E+03 0. -1.
</event>
<event>
 4    1 -0.3305908E-004  0.2445462E+03  0.7818608E-02  0.1116801E+00
          5   -1    0    0  501    0  0.00000000000E+00  0.00000000000E+00  0.29209671347E+03  0.29213452384E+03  0.47000000000E+01 0. -1.
         -5   -1    0    0    0  501 -0.00000000000E+00 -0.00000000000E+00 -0.22142865296E+03  0.22147852797E+03  0.47000000000E+01 0.  1.
          6    1    1    2  502    0 -0.15681378115E+03  0.75021818742E+02  0.10599364602E+03  0.26652858804E+03  0.17200000000E+03 0. -1.
         -6    1    1    2    0  502  0.15681378115E+03 -0.75021818742E+02 -0.35325585513E+02  0.24708446377E+03  0.17200000000E+03 0.  1.
</event>
<event>
 4    1 -0.3305908E-004  0.1820248E+03  0.7818608E-02  0.1165858E+00
         -5   -1    0    0    0  501 -0.00000000000E+00  0.00000000000E+00  0.82247192300E+02  0.82381373145E+02  0.47000000000E+01 0.  1.
          5   -1    0    0  501    0  0.00000000000E+00 -0.00000000000E+00 -0.72665391335E+03  0.72666911300E+03  0.47000000000E+01 0. -1.
          6    1    1    2  502    0 -0.15600054237E+02  0.57494777036E+02 -0.59241107614E+03  0.61974502355E+03  0.17200000000E+03 0. -1.
         -6    1    1    2    0  502  0.15600054237E+02 -0.57494777036E+02 -0.51995644907E+02  0.18930546259E+03  0.17200000000E+03 0.  1.
</event>
<event>
 4    1 -0.3305908E-004  0.2075982E+03  0.7818608E-02  0.1143482E+00
          5   -1    0    0  501    0  0.00000000000E+00  0.00000000000E+00  0.78718058307E+03  0.78719461403E+03  0.47000000000E+01 0. -1.
         -5   -1    0    0    0  501 -0.00000000000E+00 -0.00000000000E+00 -0.55238181867E+02  0.55437773548E+02  0.47000000000E+01 0.  1.
          6    1    1    2  502    0  0.35107063453E+02  0.11081751679E+03  0.40997865376E+03  0.45954273410E+03  0.17200000000E+03 0. -1.
         -6    1    1    2    0  502 -0.35107063453E+02 -0.11081751679E+03  0.32196374744E+03  0.38308965347E+03  0.17200000000E+03 0.  1.
</event>
<event>
 4    1 -0.3305908E-004  0.2013747E+03  0.7818608E-02  0.1148584E+00
          5   -1    0    0  501    0  0.00000000000E+00  0.00000000000E+00  0.10403329079E+03  0.10413940461E+03  0.47000000000E+01 0. -1.
         -5   -1    0    0    0  501 -0.00000000000E+00 -0.00000000000E+00 -0.59977447715E+03  0.59979289213E+03  0.47000000000E+01 0.  1.
          6    1    1    2  502    0  0.10271133787E+03  0.20449084196E+02 -0.39480622552E+02  0.20520843922E+03  0.17200000000E+03 0. -1.
         -6    1    1    2    0  502 -0.10271133787E+03 -0.20449084196E+02 -0.45626056381E+03  0.49872385752E+03  0.17200000000E+03 0.  1.
</event>
<event>
 4    1 -0.3305908E-004  0.2157203E+03  0.7818608E-02  0.1137115E+00
         -5   -1    0    0    0  501 -0.00000000000E+00  0.00000000000E+00  0.17207713789E+03  0.17214131225E+03  0.47000000000E+01 0.  1.
          5   -1    0    0  501    0  0.00000000000E+00 -0.00000000000E+00 -0.37872247404E+03  0.37875163676E+03  0.47000000000E+01 0. -1.
          6    1    1    2  502    0 -0.12893893635E+03 -0.18055189609E+02 -0.25068438043E+03  0.33072329488E+03  0.17200000000E+03 0. -1.
         -6    1    1    2    0  502  0.12893893635E+03  0.18055189609E+02  0.44039044278E+02  0.22016965413E+03  0.17200000000E+03 0.  1.
</event>
<event>
 4    1 -0.3305908E-004  0.2881127E+03  0.7818608E-02  0.1091339E+00
          5   -1    0    0  501    0  0.00000000000E+00  0.00000000000E+00  0.14507020666E+03  0.14514632224E+03  0.47000000000E+01 0. -1.
         -5   -1    0    0    0  501 -0.00000000000E+00 -0.00000000000E+00 -0.59053312157E+03  0.59055182472E+03  0.47000000000E+01 0.  1.
          6    1    1    2  502    0 -0.21486130841E+03  0.85203086245E+02 -0.15750489083E+03  0.32835459246E+03  0.17200000000E+03 0. -1.
         -6    1    1    2    0  502  0.21486130841E+03 -0.85203086245E+02 -0.28795802408E+03  0.40734355449E+03  0.17200000000E+03 0.  1.
</event>
<event>
 4    1 -0.3305908E-004  0.1744978E+03  0.7818608E-02  0.1173237E+00
         -5   -1    0    0    0  501 -0.00000000000E+00  0.00000000000E+00  0.18306387249E+03  0.18312419668E+03  0.47000000000E+01 0.  1.
          5   -1    0    0  501    0  0.00000000000E+00 -0.00000000000E+00 -0.41278003387E+03  0.41280679059E+03  0.47000000000E+01 0. -1.
          6    1    1    2  502    0  0.25977800840E+02 -0.13806523673E+02 -0.34511844785E+03  0.38672497887E+03  0.17200000000E+03 0. -1.
         -6    1    1    2    0  502 -0.25977800840E+02  0.13806523673E+02  0.11540228647E+03  0.20920600841E+03  0.17200000000E+03 0.  1.
</event>
<event>
 4    1 -0.3305908E-004  0.1745542E+03  0.7818608E-02  0.1173180E+00
         -5   -1    0    0    0  501 -0.00000000000E+00  0.00000000000E+00  0.44486894988E+03  0.44489377672E+03  0.47000000000E+01 0.  1.
          5   -1    0    0  501    0  0.00000000000E+00 -0.00000000000E+00 -0.74006450023E+02  0.74155543589E+02  0.47000000000E+01 0. -1.
          6    1    1    2  502    0  0.11532235869E+02 -0.27425989628E+02  0.11397763580E+03  0.20847081051E+03  0.17200000000E+03 0.  1.
         -6    1    1    2    0  502 -0.11532235869E+02  0.27425989628E+02  0.25688486406E+03  0.31057850981E+03  0.17200000000E+03 0. -1.
</event>
<event>
 4    1 -0.3305908E-004  0.1727345E+03  0.7818608E-02  0.1175026E+00
          5   -1    0    0  501    0  0.00000000000E+00  0.00000000000E+00  0.65187668754E+02  0.65356883016E+02  0.47000000000E+01 0. -1.
         -5   -1    0    0    0  501 -0.00000000000E+00 -0.00000000000E+00 -0.78246510620E+03  0.78247922172E+03  0.47000000000E+01 0.  1.
          6    1    1    2  502    0  0.10261025661E+02 -0.12161972370E+02 -0.85243516728E+02  0.19262310184E+03  0.17200000000E+03 0. -1.
         -6    1    1    2    0  502 -0.10261025661E+02  0.12161972370E+02 -0.63203392072E+03  0.65521300290E+03  0.17200000000E+03 0.  1.
</event>
<event>
 4    1 -0.3305908E-004  0.1887851E+03  0.7818608E-02  0.1159562E+00
          5   -1    0    0  501    0  0.00000000000E+00  0.00000000000E+00  0.47882347420E+03  0.47884654060E+03  0.47000000000E+01 0. -1.
         -5   -1    0    0    0  501 -0.00000000000E+00 -0.00000000000E+00 -0.14714285785E+03  0.14721790182E+03  0.47000000000E+01 0.  1.
          6    1    1    2  502    0  0.57066719371E+02 -0.52907455630E+02  0.38593814808E+03  0.42963712999E+03  0.17200000000E+03 0. -1.
         -6    1    1    2    0  502 -0.57066719371E+02  0.52907455630E+02 -0.54257531723E+02  0.19642731243E+03  0.17200000000E+03 0.  1.
</event>
<event>
 4    1 -0.3305908E-004  0.1789037E+03  0.7818608E-02  0.1168868E+00
          5   -1    0    0  501    0  0.00000000000E+00  0.00000000000E+00  0.65224433226E+02  0.65393552356E+02  0.47000000000E+01 0. -1.
         -5   -1    0    0    0  501 -0.00000000000E+00 -0.00000000000E+00 -0.84101058107E+03  0.84102371397E+03  0.47000000000E+01 0.  1.
          6    1    1    2  502    0 -0.51418574736E+01 -0.48950094669E+02 -0.95092350608E+02  0.20260578869E+03  0.17200000000E+03 0. -1.
         -6    1    1    2    0  502  0.51418574736E+01  0.48950094669E+02 -0.68069379723E+03  0.70381147764E+03  0.17200000000E+03 0.  1.
</event>
<event>
 4    1 -0.3305908E-004  0.1960779E+03  0.7818608E-02  0.1153091E+00
         -5   -1    0    0    0  501 -0.00000000000E+00  0.00000000000E+00  0.23203296218E+04  0.23203343819E+04  0.47000000000E+01 0.  1.
          5   -1    0    0  501    0  0.00000000000E+00 -0.00000000000E+00 -0.16276274896E+02  0.16941284617E+02  0.47000000000E+01 0. -1.
          6    1    1    2  502    0 -0.18219628670E+02  0.92361081414E+02  0.12122595802E+04  0.12280145822E+04  0.17200000000E+03 0.  1.
         -6    1    1    2    0  502  0.18219628670E+02 -0.92361081414E+02  0.10917937667E+04  0.11092610843E+04  0.17200000000E+03 0. -1.
</event>
<event>
 4    1 -0.3305908E-004  0.4532474E+03  0.7818608E-02  0.1026758E+00
         -5   -1    0    0    0  501 -0.00000000000E+00  0.00000000000E+00  0.63409012677E+03  0.63410754519E+03  0.47000000000E+01 0.  1.
          5   -1    0    0  501    0  0.00000000000E+00 -0.00000000000E+00 -0.41505984449E+03  0.41508645426E+03  0.47000000000E+01 0. -1.
          6    1    1    2  502    0  0.32548095328E+03  0.26440748250E+03 -0.13626507098E+03  0.47328779545E+03  0.17200000000E+03 0. -1.
         -6    1    1    2    0  502 -0.32548095328E+03 -0.26440748250E+03  0.35529535326E+03  0.57590620400E+03  0.17200000000E+03 0.  1.
</event>
<event>
 4    1 -0.3305908E-004  0.3227339E+03  0.7818608E-02  0.1074398E+00
         -5   -1    0    0    0  501 -0.00000000000E+00  0.00000000000E+00  0.69658242493E+03  0.69659828074E+03  0.47000000000E+01 0.  1.
          5   -1    0    0  501    0  0.00000000000E+00 -0.00000000000E+00 -0.20346657370E+03  0.20352085056E+03  0.47000000000E+01 0. -1.
          6    1    1    2  502    0 -0.26456334433E+03 -0.67671450614E+02  0.14756986093E+02  0.32307113308E+03  0.17200000000E+03 0. -1.
         -6    1    1    2    0  502  0.26456334433E+03  0.67671450614E+02  0.47835886514E+03  0.57704799822E+03  0.17200000000E+03 0.  1.
</event>
<event>
 4    1 -0.3305908E-004  0.2048009E+03  0.7818608E-02  0.1145751E+00
         -5   -1    0    0    0  501 -0.00000000000E+00  0.00000000000E+00  0.10540385097E+03  0.10550858638E+03  0.47000000000E+01 0.  1.
          5   -1    0    0  501    0  0.00000000000E+00 -0.00000000000E+00 -0.45129520359E+03  0.45131967692E+03  0.47000000000E+01 0. -1.
          6    1    1    2  502    0  0.10866898434E+03 -0.23462280054E+02 -0.76937713485E+02  0.21877577219E+03  0.17200000000E+03 0.  1.
         -6    1    1    2    0  502 -0.10866898434E+03  0.23462280054E+02 -0.26895363913E+03  0.33805249111E+03  0.17200000000E+03 0. -1.
</event>
<event>
 4    1 -0.3305908E-004  0.2303950E+03  0.7818608E-02  0.1126362E+00
         -5   -1    0    0    0  501 -0.00000000000E+00  0.00000000000E+00  0.12766339186E+03  0.12774987915E+03  0.47000000000E+01 0.  1.
          5   -1    0    0  501    0  0.00000000000E+00 -0.00000000000E+00 -0.41587308111E+03  0.41589963884E+03  0.47000000000E+01 0. -1.
          6    1    1    2  502    0  0.13629378740E+03 -0.70155818631E+02 -0.15162492921E+03  0.27581144742E+03  0.17200000000E+03 0. -1.
         -6    1    1    2    0  502 -0.13629378740E+03  0.70155818631E+02 -0.13658476004E+03  0.26783807057E+03  0.17200000000E+03 0. -1.
</event>
<event>
 4    1 -0.3305908E-004  0.1892963E+03  0.7818608E-02  0.1159098E+00
         -5   -1    0    0    0  501 -0.00000000000E+00  0.00000000000E+00  0.10276726289E+04  0.10276833764E+04  0.47000000000E+01 0.  1.
          5   -1    0    0  501    0  0.00000000000E+00 -0.00000000000E+00 -0.60274553633E+02  0.60457520754E+02  0.47000000000E+01 0. -1.
          6    1    1    2  502    0 -0.77594631148E+02  0.15105432956E+02  0.13005622797E+03  0.22966872517E+03  0.17200000000E+03 0. -1.
         -6    1    1    2    0  502  0.77594631148E+02 -0.15105432956E+02  0.83734184725E+03  0.85847217196E+03  0.17200000000E+03 0.  1.
</event>
<event>
 4    1 -0.3305908E-004  0.3265573E+03  0.7818608E-02  0.1072670E+00
          5   -1    0    0  501    0  0.00000000000E+00  0.00000000000E+00  0.10606550365E+04  0.10606654498E+04  0.47000000000E+01 0. -1.
         -5   -1    0    0    0  501 -0.00000000000E+00 -0.00000000000E+00 -0.10849801357E+03  0.10859976495E+03  0.47000000000E+01 0.  1.
          6    1    1    2  502    0  0.22868639336E+03  0.15734741120E+03  0.63496794158E+03  0.71401958037E+03  0.17200000000E+03 0.  1.
         -6    1    1    2    0  502 -0.22868639336E+03 -0.15734741120E+03  0.31718908135E+03  0.45524563440E+03  0.17200000000E+03 0.  1.
</event>
<event>
 4    1 -0.3305908E-004  0.3561150E+03  0.7818608E-02  0.1060133E+00
         -5   -1    0    0    0  501 -0.00000000000E+00  0.00000000000E+00  0.54266127178E+03  0.54268162479E+03  0.47000000000E+01 0.  1.
          5   -1    0    0  501    0  0.00000000000E+00 -0.00000000000E+00 -0.26957677740E+03  0.26961774591E+03  0.47000000000E+01 0. -1.
          6    1    1    2  502    0  0.24668996429E+03  0.19073012336E+03 -0.11714592402E+02  0.35630766215E+03  0.17200000000E+03 0. -1.
         -6    1    1    2    0  502 -0.24668996429E+03 -0.19073012336E+03  0.28479908678E+03  0.45599170855E+03  0.17200000000E+03 0.  1.
</event>
<event>
 4    1 -0.3305908E-004  0.1772220E+03  0.7818608E-02  0.1170519E+00
          5   -1    0    0  501    0  0.00000000000E+00  0.00000000000E+00  0.36250995929E+03  0.36254042614E+03  0.47000000000E+01 0. -1.
         -5   -1    0    0    0  501 -0.00000000000E+00 -0.00000000000E+00 -0.13296934854E+03  0.13305238687E+03  0.47000000000E+01 0.  1.
          6    1    1    2  502    0 -0.92377577245E+01  0.41693008452E+02  0.26111831555E+03  0.31557949528E+03  0.17200000000E+03 0. -1.
         -6    1    1    2    0  502  0.92377577245E+01 -0.41693008452E+02 -0.31577704803E+02  0.18001331774E+03  0.17200000000E+03 0.  1.
</event>
<event>
 4    1 -0.3305908E-004  0.1885736E+03  0.7818608E-02  0.1159754E+00
          5   -1    0    0  501    0  0.00000000000E+00  0.00000000000E+00  0.12776769716E+03  0.12785411389E+03  0.47000000000E+01 0. -1.
         -5   -1    0    0    0  501 -0.00000000000E+00 -0.00000000000E+00 -0.38098390148E+03  0.38101289110E+03  0.47000000000E+01 0.  1.
          6    1    1    2  502    0 -0.53838149524E+02 -0.55474691182E+02  0.55791809107E+01  0.18865607588E+03  0.17200000000E+03 0. -1.
         -6    1    1    2    0  502  0.53838149524E+02  0.55474691182E+02 -0.25879538523E+03  0.32021092911E+03  0.17200000000E+03 0.  1.
</event>
<event>
 4    1 -0.3305908E-004  0.2239272E+03  0.7818608E-02  0.1130989E+00
         -5   -1    0    0    0  501 -0.00000000000E+00  0.00000000000E+00  0.85138577096E+03  0.85139874383E+03  0.47000000000E+01 0.  1.
          5   -1    0    0  501    0  0.00000000000E+00 -0.00000000000E+00 -0.74325815022E+02  0.74474269239E+02  0.47000000000E+01 0. -1.
          6    1    1    2  502    0  0.14096549531E+03 -0.26231763007E+02  0.17713010270E+03  0.28551435960E+03  0.17200000000E+03 0. -1.
         -6    1    1    2    0  502 -0.14096549531E+03  0.26231763007E+02  0.59992985324E+03  0.64035865347E+03  0.17200000000E+03 0. -1.
</event>
<event>
 4    1 -0.3305908E-004  0.2439524E+03  0.7818608E-02  0.1117187E+00
          5   -1    0    0  501    0  0.00000000000E+00  0.00000000000E+00  0.33750904506E+03  0.33754176852E+03  0.47000000000E+01 0. -1.
         -5   -1    0    0    0  501 -0.00000000000E+00 -0.00000000000E+00 -0.47130202337E+03  0.47132545787E+03  0.47000000000E+01 0.  1.
          6    1    1    2  502    0 -0.16557318373E+03 -0.50142965604E+02  0.25307178137E+03  0.35150835367E+03  0.17200000000E+03 0. -1.
         -6    1    1    2    0  502  0.16557318373E+03  0.50142965604E+02 -0.38686475969E+03  0.45735887272E+03  0.17200000000E+03 0.  1.
</event>
<event>
 4    1 -0.3305908E-004  0.3043409E+03  0.7818608E-02  0.1083091E+00
         -5   -1    0    0    0  501 -0.00000000000E+00  0.00000000000E+00  0.27395062395E+03  0.27399093847E+03  0.47000000000E+01 0.  1.
          5   -1    0    0  501    0  0.00000000000E+00 -0.00000000000E+00 -0.33869895214E+03  0.33873156065E+03  0.47000000000E+01 0. -1.
          6    1    1    2  502    0 -0.24605176935E+03  0.49979020296E+02 -0.18668298222E+02  0.30491290728E+03  0.17200000000E+03 0.  1.
         -6    1    1    2    0  502  0.24605176935E+03 -0.49979020296E+02 -0.46080029960E+02  0.30780959184E+03  0.17200000000E+03 0. -1.
</event>
<event>
 4    1 -0.3305908E-004  0.4871060E+03  0.7818608E-02  0.1017200E+00
         -5   -1    0    0    0  501 -0.00000000000E+00  0.00000000000E+00  0.38110943300E+03  0.38113841307E+03  0.47000000000E+01 0.  1.
          5   -1    0    0  501    0  0.00000000000E+00 -0.00000000000E+00 -0.62499503507E+03  0.62501270696E+03  0.47000000000E+01 0. -1.
          6    1    1    2  502    0  0.44899277964E+03 -0.78062646025E+02 -0.90295934098E+02  0.49540453024E+03  0.17200000000E+03 0.  1.
         -6    1    1    2    0  502 -0.44899277964E+03  0.78062646025E+02 -0.15358966797E+03  0.51074658979E+03  0.17200000000E+03 0.  1.
</event>
<event>
 4    1 -0.3305908E-004  0.6324799E+03  0.7818608E-02  0.9840221E-01
         -5   -1    0    0    0  501 -0.00000000000E+00  0.00000000000E+00  0.14027522968E+04  0.14027601706E+04  0.47000000000E+01 0.  1.
          5   -1    0    0  501    0  0.00000000000E+00 -0.00000000000E+00 -0.32782451322E+03  0.32785820329E+03  0.47000000000E+01 0. -1.
          6    1    1    2  502    0 -0.29059202905E+03  0.53479253350E+03  0.22527466460E+03  0.67140111390E+03  0.17200000000E+03 0. -1.
         -6    1    1    2    0  502  0.29059202905E+03 -0.53479253350E+03  0.84965311898E+03  0.10592172600E+04  0.17200000000E+03 0.  1.
</event>
<event>
 4    1 -0.3305908E-004  0.1735556E+03  0.7818608E-02  0.1174190E+00
         -5   -1    0    0    0  501 -0.00000000000E+00  0.00000000000E+00  0.30122482690E+03  0.30126149163E+03  0.47000000000E+01 0.  1.
          5   -1    0    0  501    0  0.00000000000E+00 -0.00000000000E+00 -0.10711896508E+03  0.10722202516E+03  0.47000000000E+01 0. -1.
          6    1    1    2  502    0  0.69068843622E+01 -0.22132406990E+02  0.15004262649E+03  0.22942174756E+03  0.17200000000E+03 0.  1.
         -6    1    1    2    0  502 -0.69068843622E+01  0.22132406990E+02  0.44063235330E+02  0.17906176923E+03  0.17200000000E+03 0. -1.
</event>
<event>
 4    1 -0.3305908E-004  0.2875915E+03  0.7818608E-02  0.1091613E+00
          5   -1    0    0  501    0  0.00000000000E+00  0.00000000000E+00  0.75965562684E+03  0.75967016618E+03  0.47000000000E+01 0. -1.
         -5   -1    0    0    0  501 -0.00000000000E+00 -0.00000000000E+00 -0.13798490035E+03  0.13806492213E+03  0.47000000000E+01 0.  1.
          6    1    1    2  502    0  0.17113786370E+03  0.15439145325E+03  0.51715363873E+03  0.59174046277E+03  0.17200000000E+03 0. -1.
         -6    1    1    2    0  502 -0.17113786370E+03 -0.15439145325E+03  0.10451708776E+03  0.30599462554E+03  0.17200000000E+03 0.  1.
</event>
<event>
 4    1 -0.3305908E-004  0.1841504E+03  0.7818608E-02  0.1163846E+00
          5   -1    0    0  501    0  0.00000000000E+00  0.00000000000E+00  0.25982524622E+03  0.25986775209E+03  0.47000000000E+01 0. -1.
         -5   -1    0    0    0  501 -0.00000000000E+00 -0.00000000000E+00 -0.13332352030E+03  0.13340633817E+03  0.47000000000E+01 0.  1.
          6    1    1    2  502    0 -0.70920418078E+01  0.65399203481E+02  0.34248578377E+02  0.18730808310E+03  0.17200000000E+03 0. -1.
         -6    1    1    2    0  502  0.70920418078E+01 -0.65399203481E+02  0.92253147550E+02  0.20596600716E+03  0.17200000000E+03 0. -1.
</event>
<event>
 4    1 -0.3305908E-004  0.2217127E+03  0.7818608E-02  0.1132613E+00
          5   -1    0    0  501    0  0.00000000000E+00  0.00000000000E+00  0.29090448509E+03  0.29094245040E+03  0.47000000000E+01 0. -1.
         -5   -1    0    0    0  501 -0.00000000000E+00 -0.00000000000E+00 -0.17084898596E+03  0.17091362147E+03  0.47000000000E+01 0.  1.
          6    1    1    2  502    0  0.13184742158E+03  0.46784277505E+02  0.84707102485E+02  0.23734322069E+03  0.17200000000E+03 0. -1.
         -6    1    1    2    0  502 -0.13184742158E+03 -0.46784277505E+02  0.35348396648E+02  0.22451285118E+03  0.17200000000E+03 0.  1.
</event>
<event>
 4    1 -0.3305908E-004  0.3401802E+03  0.7818608E-02  0.1066719E+00
         -5   -1    0    0    0  501 -0.00000000000E+00  0.00000000000E+00  0.53545696013E+02  0.53751572642E+02  0.47000000000E+01 0.  1.
          5   -1    0    0  501    0  0.00000000000E+00 -0.00000000000E+00 -0.22259311113E+04  0.22259360733E+04  0.47000000000E+01 0. -1.
          6    1    1    2  502    0  0.19687158203E+02  0.29283267981E+03 -0.12870040485E+04  0.13312032089E+04  0.17200000000E+03 0. -1.
         -6    1    1    2    0  502 -0.19687158203E+02 -0.29283267981E+03 -0.88538136675E+03  0.94848443696E+03  0.17200000000E+03 0.  1.
</event>
<event>
 4    1 -0.3305908E-004  0.2358964E+03  0.7818608E-02  0.1122557E+00
          5   -1    0    0  501    0  0.00000000000E+00  0.00000000000E+00  0.14900387900E+03  0.14907798616E+03  0.47000000000E+01 0. -1.
         -5   -1    0    0    0  501 -0.00000000000E+00 -0.00000000000E+00 -0.44470417223E+03  0.44472900827E+03  0.47000000000E+01 0.  1.
          6    1    1    2  502    0  0.16053522705E+03 -0.17074876336E+02 -0.28875153905E+02  0.23765707446E+03  0.17200000000E+03 0. -1.
         -6    1    1    2    0  502 -0.16053522705E+03  0.17074876336E+02 -0.26682513932E+03  0.35614991998E+03  0.17200000000E+03 0.  1.
</event>
<event>
 4    1 -0.3305908E-004  0.2336548E+03  0.7818608E-02  0.1124093E+00
         -5   -1    0    0    0  501 -0.00000000000E+00  0.00000000000E+00  0.28735909778E+03  0.28739753144E+03  0.47000000000E+01 0.  1.
          5   -1    0    0  501    0  0.00000000000E+00 -0.00000000000E+00 -0.19653294887E+03  0.19658914007E+03  0.47000000000E+01 0. -1.
          6    1    1    2  502    0  0.72492150579E+02 -0.14055412907E+03  0.99069337938E+00  0.23365692065E+03  0.17200000000E+03 0. -1.
         -6    1    1    2    0  502 -0.72492150579E+02  0.14055412907E+03  0.89835455534E+02  0.25032975086E+03  0.17200000000E+03 0.  1.
</event>
<event>
 4    1 -0.3305908E-004  0.3055771E+03  0.7818608E-02  0.1082485E+00
          5   -1    0    0  501    0  0.00000000000E+00  0.00000000000E+00  0.21143606551E+03  0.21148829707E+03  0.47000000000E+01 0. -1.
         -5   -1    0    0    0  501 -0.00000000000E+00 -0.00000000000E+00 -0.50634683918E+03  0.50636865182E+03  0.47000000000E+01 0.  1.
          6    1    1    2  502    0 -0.22681314797E+03 -0.11112666066E+03 -0.19031206464E+02  0.30616911278E+03  0.17200000000E+03 0. -1.
         -6    1    1    2    0  502  0.22681314797E+03  0.11112666066E+03 -0.27587956720E+03  0.41168783611E+03  0.17200000000E+03 0.  1.
</event>
<event>
 4    1 -0.3305908E-004  0.1752590E+03  0.7818608E-02  0.1172472E+00
         -5   -1    0    0    0  501 -0.00000000000E+00  0.00000000000E+00  0.29672598100E+03  0.29676320156E+03  0.47000000000E+01 0.  1.
          5   -1    0    0  501    0  0.00000000000E+00 -0.00000000000E+00 -0.10570709386E+03  0.10581152911E+03  0.47000000000E+01 0. -1.
          6    1    1    2  502    0 -0.32675839254E+02  0.79994554155E+01  0.65910540382E+02  0.18724289330E+03  0.17200000000E+03 0. -1.
         -6    1    1    2    0  502  0.32675839254E+02 -0.79994554155E+01  0.12510834675E+03  0.21533183737E+03  0.17200000000E+03 0.  1.
</event>
<event>
 4    1 -0.3305908E-004  0.2437436E+03  0.7818608E-02  0.1117324E+00
          5   -1    0    0  501    0  0.00000000000E+00  0.00000000000E+00  0.92834346717E+02  0.92953245938E+02  0.47000000000E+01 0. -1.
         -5   -1    0    0    0  501 -0.00000000000E+00 -0.00000000000E+00 -0.12249852352E+04  0.12249942516E+04  0.47000000000E+01 0.  1.
          6    1    1    2  502    0 -0.17108567667E+03 -0.23593480488E+02 -0.11049708956E+03  0.26762019334E+03  0.17200000000E+03 0. -1.
         -6    1    1    2    0  502  0.17108567667E+03  0.23593480488E+02 -0.10216537989E+04  0.10503273042E+04  0.17200000000E+03 0.  1.
</event>
<event>
 4    1 -0.3305908E-004  0.6107660E+03  0.7818608E-02  0.9883318E-01
          5   -1    0    0  501    0  0.00000000000E+00  0.00000000000E+00  0.43339149491E+03  0.43341697920E+03  0.47000000000E+01 0. -1.
         -5   -1    0    0    0  501 -0.00000000000E+00 -0.00000000000E+00 -0.13271711522E+04  0.13271794744E+04  0.47000000000E+01 0.  1.
          6    1    1    2  502    0  0.53424802845E+03  0.24089458566E+03  0.75005331226E+02  0.61535433452E+03  0.17200000000E+03 0. -1.
         -6    1    1    2    0  502 -0.53424802845E+03 -0.24089458566E+03 -0.96878498849E+03  0.11452421190E+04  0.17200000000E+03 0.  1.
</event>
<event>
 4    1 -0.3305908E-004  0.3107936E+03  0.7818608E-02  0.1079966E+00
          5   -1    0    0  501    0  0.00000000000E+00  0.00000000000E+00  0.79339930361E+03  0.79341322460E+03  0.47000000000E+01 0. -1.
         -5   -1    0    0    0  501 -0.00000000000E+00 -0.00000000000E+00 -0.12270121782E+03  0.12279120024E+03  0.47000000000E+01 0.  1.
          6    1    1    2  502    0  0.65151622453E+02  0.25052734273E+03  0.29367686704E+03  0.42759652196E+03  0.17200000000E+03 0. -1.
         -6    1    1    2    0  502 -0.65151622453E+02 -0.25052734273E+03  0.37702121874E+03  0.48860790287E+03  0.17200000000E+03 0. -1.
</event>
<event>
 4    1 -0.3305908E-004  0.1985387E+03  0.7818608E-02  0.1150978E+00
         -5   -1    0    0    0  501 -0.00000000000E+00  0.00000000000E+00  0.54265003924E+02  0.54468161809E+02  0.47000000000E+01 0.  1.
          5   -1    0    0  501    0  0.00000000000E+00 -0.00000000000E+00 -0.81559859694E+03  0.81561213903E+03  0.47000000000E+01 0. -1.
          6    1    1    2  502    0 -0.90751644654E+02 -0.39972033923E+02 -0.52578339489E+03  0.56201939722E+03  0.17200000000E+03 0. -1.
         -6    1    1    2    0  502  0.90751644654E+02  0.39972033923E+02 -0.23555019812E+03  0.30806090362E+03  0.17200000000E+03 0.  1.
</event>
<event>
 4    1 -0.3305908E-004  0.2195480E+03  0.7818608E-02  0.1134220E+00
          5   -1    0    0  501    0  0.00000000000E+00  0.00000000000E+00  0.28410247964E+03  0.28414135380E+03  0.47000000000E+01 0. -1.
         -5   -1    0    0    0  501 -0.00000000000E+00 -0.00000000000E+00 -0.22184265221E+03  0.22189243416E+03  0.47000000000E+01 0.  1.
          6    1    1    2  502    0 -0.13628218392E+03  0.66703913676E+01 -0.91651819009E+02  0.23791045312E+03  0.17200000000E+03 0. -1.
         -6    1    1    2    0  502  0.13628218392E+03 -0.66703913676E+01  0.15391164644E+03  0.26812333484E+03  0.17200000000E+03 0.  1.
</event>
<event>
 4    1 -0.3305908E-004  0.2495241E+03  0.7818608E-02  0.1113606E+00
         -5   -1    0    0    0  501 -0.00000000000E+00  0.00000000000E+00  0.47728717013E+02  0.47959570762E+02  0.47000000000E+01 0.  1.
          5   -1    0    0  501    0  0.00000000000E+00 -0.00000000000E+00 -0.16117385182E+04  0.16117453710E+04  0.47000000000E+01 0. -1.
          6    1    1    2  502    0  0.52541161275E+02  0.17296740355E+03 -0.11462838158E+04  0.11731278203E+04  0.17200000000E+03 0. -1.
         -6    1    1    2    0  502 -0.52541161275E+02 -0.17296740355E+03 -0.41772598533E+03  0.48657712147E+03  0.17200000000E+03 0.  1.
</event>
<event>
 4    1 -0.3305908E-004  0.1971407E+03  0.7818608E-02  0.1152174E+00
         -5   -1    0    0    0  501 -0.00000000000E+00  0.00000000000E+00  0.67455057894E+02  0.67618598296E+02  0.47000000000E+01 0.  1.
          5   -1    0    0  501    0  0.00000000000E+00 -0.00000000000E+00 -0.61504951883E+03  0.61506747648E+03  0.47000000000E+01 0. -1.
          6    1    1    2  502    0 -0.91510197337E+02 -0.30105578778E+02 -0.36057973946E+03  0.41095280824E+03  0.17200000000E+03 0.  1.
         -6    1    1    2    0  502  0.91510197337E+02  0.30105578778E+02 -0.18701472148E+03  0.27173326653E+03  0.17200000000E+03 0.  1.
</event>
<event>
 4    1 -0.3305908E-004  0.2561594E+03  0.7818608E-02  0.1109473E+00
         -5   -1    0    0    0  501 -0.00000000000E+00  0.00000000000E+00  0.64851332455E+03  0.64853035559E+03  0.47000000000E+01 0.  1.
          5   -1    0    0  501    0  0.00000000000E+00 -0.00000000000E+00 -0.14289562421E+03  0.14297289750E+03  0.47000000000E+01 0. -1.
          6    1    1    2  502    0  0.12147483640E+03 -0.14586804216E+03  0.38881572691E+02  0.25909341616E+03  0.17200000000E+03 0.  1.
         -6    1    1    2    0  502 -0.12147483640E+03  0.14586804216E+03  0.46673612765E+03  0.53240983692E+03  0.17200000000E+03 0.  1.
</event>
<event>
 4    1 -0.3305908E-004  0.2674791E+03  0.7818608E-02  0.1102731E+00
          5   -1    0    0  501    0  0.00000000000E+00  0.00000000000E+00  0.15152837918E+04  0.15152910809E+04  0.47000000000E+01 0. -1.
         -5   -1    0    0    0  501 -0.00000000000E+00 -0.00000000000E+00 -0.73802888894E+02  0.73952392856E+02  0.47000000000E+01 0.  1.
          6    1    1    2  502    0  0.16051626759E+03  0.12726186499E+03  0.11981481001E+04  0.12276416106E+04  0.17200000000E+03 0. -1.
         -6    1    1    2    0  502 -0.16051626759E+03 -0.12726186499E+03  0.24333280283E+03  0.36160186307E+03  0.17200000000E+03 0.  1.
</event>
<event>
 4    1 -0.3305908E-004  0.1839676E+03  0.7818608E-02  0.1164017E+00
         -5   -1    0    0    0  501 -0.00000000000E+00  0.00000000000E+00  0.12193042326E+04  0.12193132910E+04  0.47000000000E+01 0.  1.
          5   -1    0    0  501    0  0.00000000000E+00 -0.00000000000E+00 -0.32673579348E+02  0.33009889236E+02  0.47000000000E+01 0. -1.
          6    1    1    2  502    0 -0.59286001213E+02  0.27299245307E+02  0.83988732331E+03  0.85979927576E+03  0.17200000000E+03 0.  1.
         -6    1    1    2    0  502  0.59286001213E+02 -0.27299245307E+02  0.34674332990E+03  0.39252390445E+03  0.17200000000E+03 0. -1.
</event>
<event>
 4    1 -0.3305908E-004  0.2133904E+03  0.7818608E-02  0.1138909E+00
         -5   -1    0    0    0  501 -0.00000000000E+00  0.00000000000E+00  0.24132349521E+04  0.24132395290E+04  0.47000000000E+01 0.  1.
          5   -1    0    0  501    0  0.00000000000E+00 -0.00000000000E+00 -0.24458408438E+02  0.24905897762E+02  0.47000000000E+01 0. -1.
          6    1    1    2  502    0 -0.20341532761E+02 -0.12465024331E+03  0.60259059365E+03  0.63925807360E+03  0.17200000000E+03 0. -1.
         -6    1    1    2    0  502  0.20341532761E+02  0.12465024331E+03  0.17861859500E+04  0.17988873531E+04  0.17200000000E+03 0.  1.
</event>
<event>
 4    1 -0.3305908E-004  0.2025542E+03  0.7818608E-02  0.1147602E+00
         -5   -1    0    0    0  501 -0.00000000000E+00  0.00000000000E+00  0.60115300963E+03  0.60117138238E+03  0.47000000000E+01 0.  1.
          5   -1    0    0  501    0  0.00000000000E+00 -0.00000000000E+00 -0.14948806683E+03  0.14956193407E+03  0.47000000000E+01 0. -1.
          6    1    1    2  502    0 -0.91815525808E+02 -0.54901112619E+02 -0.50928314136E+02  0.20885860319E+03  0.17200000000E+03 0. -1.
         -6    1    1    2    0  502  0.91815525808E+02  0.54901112619E+02  0.50259325694E+03  0.54187471326E+03  0.17200000000E+03 0.  1.
</event>
<event>
 4    1 -0.3305908E-004  0.2438663E+03  0.7818608E-02  0.1117244E+00
         -5   -1    0    0    0  501 -0.00000000000E+00  0.00000000000E+00  0.10843156972E+03  0.10853338340E+03  0.47000000000E+01 0.  1.
          5   -1    0    0  501    0  0.00000000000E+00 -0.00000000000E+00 -0.14448092760E+04  0.14448169206E+04  0.47000000000E+01 0. -1.
          6    1    1    2  502    0 -0.10247772001E+03  0.13923030983E+03 -0.12800374637E+04  0.13030605015E+04  0.17200000000E+03 0. -1.
         -6    1    1    2    0  502  0.10247772001E+03 -0.13923030983E+03 -0.56340242624E+02  0.25028980245E+03  0.17200000000E+03 0.  1.
</event>
<event>
 4    1 -0.3305908E-004  0.1871400E+03  0.7818608E-02  0.1161066E+00
          5   -1    0    0  501    0  0.00000000000E+00  0.00000000000E+00  0.48568722834E+02  0.48795602648E+02  0.47000000000E+01 0. -1.
         -5   -1    0    0    0  501 -0.00000000000E+00 -0.00000000000E+00 -0.72561060039E+03  0.72562582189E+03  0.47000000000E+01 0.  1.
          6    1    1    2  502    0 -0.70557579127E+02 -0.21424343471E+02 -0.37504146200E+03  0.41913896584E+03  0.17200000000E+03 0.  1.
         -6    1    1    2    0  502  0.70557579127E+02  0.21424343471E+02 -0.30200041555E+03  0.35528245870E+03  0.17200000000E+03 0.  1.
</event>
<event>
 4    1 -0.3305908E-004  0.1798806E+03  0.7818608E-02  0.1167919E+00
          5   -1    0    0  501    0  0.00000000000E+00  0.00000000000E+00  0.13895042034E+04  0.13895121522E+04  0.47000000000E+01 0. -1.
         -5   -1    0    0    0  501 -0.00000000000E+00 -0.00000000000E+00 -0.25492952695E+02  0.25922589321E+02  0.47000000000E+01 0.  1.
          6    1    1    2  502    0 -0.46890995015E+02  0.23964039493E+02  0.46449656679E+03  0.49811053107E+03  0.17200000000E+03 0. -1.
         -6    1    1    2    0  502  0.46890995015E+02 -0.23964039493E+02  0.89951468390E+03  0.91732421049E+03  0.17200000000E+03 0.  1.
</event>
<event>
 4    1 -0.3305908E-004  0.2320852E+03  0.7818608E-02  0.1125181E+00
         -5   -1    0    0    0  501 -0.00000000000E+00  0.00000000000E+00  0.62023977669E+03  0.62025758406E+03  0.47000000000E+01 0.  1.
          5   -1    0    0  501    0  0.00000000000E+00 -0.00000000000E+00 -0.95131673111E+02  0.95247704586E+02  0.47000000000E+01 0. -1.
          6    1    1    2  502    0 -0.91725465197E+02  0.12596027137E+03  0.15650746132E+03  0.27992523355E+03  0.17200000000E+03 0. -1.
         -6    1    1    2    0  502  0.91725465197E+02 -0.12596027137E+03  0.36860064226E+03  0.43558005510E+03  0.17200000000E+03 0.  1.
</event>
<event>
 4    1 -0.3305908E-004  0.2326347E+03  0.7818608E-02  0.1124799E+00
          5   -1    0    0  501    0  0.00000000000E+00  0.00000000000E+00  0.15045136046E+03  0.15052475499E+03  0.47000000000E+01 0. -1.
         -5   -1    0    0    0  501 -0.00000000000E+00 -0.00000000000E+00 -0.57515843792E+03  0.57517764100E+03  0.47000000000E+01 0.  1.
          6    1    1    2  502    0  0.13078961340E+03 -0.86191425881E+02  0.97967973409E+01  0.23284085146E+03  0.17200000000E+03 0. -1.
         -6    1    1    2    0  502 -0.13078961340E+03  0.86191425881E+02 -0.43450387480E+03  0.49286154454E+03  0.17200000000E+03 0.  1.
</event>
<event>
 4    1 -0.3305908E-004  0.4144330E+03  0.7818608E-02  0.1038894E+00
          5   -1    0    0  501    0  0.00000000000E+00  0.00000000000E+00  0.21309761352E+03  0.21314943793E+03  0.47000000000E+01 0. -1.
         -5   -1    0    0    0  501 -0.00000000000E+00 -0.00000000000E+00 -0.82055864847E+03  0.82057210871E+03  0.47000000000E+01 0.  1.
          6    1    1    2  502    0 -0.28482254811E+03  0.24707653947E+03 -0.23449592569E+03  0.47617542926E+03  0.17200000000E+03 0. -1.
         -6    1    1    2    0  502  0.28482254811E+03 -0.24707653947E+03 -0.37296510926E+03  0.55754611737E+03  0.17200000000E+03 0.  1.
</event>
<event>
 4    1 -0.3305908E-004  0.1779239E+03  0.7818608E-02  0.1169828E+00
          5   -1    0    0  501    0  0.00000000000E+00  0.00000000000E+00  0.70328723252E+03  0.70330293717E+03  0.47000000000E+01 0. -1.
         -5   -1    0    0    0  501 -0.00000000000E+00 -0.00000000000E+00 -0.50857469426E+02  0.51074183267E+02  0.47000000000E+01 0.  1.
          6    1    1    2  502    0  0.20102261176E+02  0.40851037060E+02  0.45528104616E+03  0.48881258078E+03  0.17200000000E+03 0. -1.
         -6    1    1    2    0  502 -0.20102261176E+02 -0.40851037060E+02  0.19714871693E+03  0.26556453965E+03  0.17200000000E+03 0.  1.
</event>
<event>
 4    1 -0.3305908E-004  0.2689667E+03  0.7818608E-02  0.1101872E+00
         -5   -1    0    0    0  501 -0.00000000000E+00  0.00000000000E+00  0.36064228217E+03  0.36067290678E+03  0.47000000000E+01 0.  1.
          5   -1    0    0  501    0  0.00000000000E+00 -0.00000000000E+00 -0.26052556366E+03  0.26056795528E+03  0.47000000000E+01 0. -1.
          6    1    1    2  502    0  0.13901172256E+03  0.15308429040E+03 -0.98982088677E+02  0.28660166233E+03  0.17200000000E+03 0. -1.
         -6    1    1    2    0  502 -0.13901172256E+03 -0.15308429040E+03  0.19909880718E+03  0.33463919973E+03  0.17200000000E+03 0.  1.
</event>
<event>
 4    1 -0.3305908E-004  0.2327020E+03  0.7818608E-02  0.1124752E+00
          5   -1    0    0  501    0  0.00000000000E+00  0.00000000000E+00  0.15406874875E+03  0.15414042085E+03  0.47000000000E+01 0. -1.
         -5   -1    0    0    0  501 -0.00000000000E+00 -0.00000000000E+00 -0.44298221641E+03  0.44300714899E+03  0.47000000000E+01 0.  1.
          6    1    1    2  502    0 -0.89374537087E+02 -0.12875713801E+03 -0.86393978557E+01  0.23286229335E+03  0.17200000000E+03 0. -1.
         -6    1    1    2    0  502  0.89374537087E+02  0.12875713801E+03 -0.28027406981E+03  0.36428527650E+03  0.17200000000E+03 0.  1.
</event>
<event>
 4    1 -0.3305908E-004  0.1783942E+03  0.7818608E-02  0.1169366E+00
         -5   -1    0    0    0  501 -0.00000000000E+00  0.00000000000E+00  0.25114710300E+03  0.25119107736E+03  0.47000000000E+01 0.  1.
          5   -1    0    0  501    0  0.00000000000E+00 -0.00000000000E+00 -0.12740993053E+03  0.12749658975E+03  0.47000000000E+01 0. -1.
          6    1    1    2  502    0  0.70036605436E+01 -0.46812734023E+02  0.46946984773E+02  0.18446816177E+03  0.17200000000E+03 0. -1.
         -6    1    1    2    0  502 -0.70036605436E+01  0.46812734023E+02  0.76790187703E+02  0.19421950534E+03  0.17200000000E+03 0.  1.
</event>
<event>
 4    1 -0.3305908E-004  0.1812289E+03  0.7818608E-02  0.1166619E+00
          5   -1    0    0  501    0  0.00000000000E+00  0.00000000000E+00  0.12759594451E+04  0.12759681013E+04  0.47000000000E+01 0. -1.
         -5   -1    0    0    0  501 -0.00000000000E+00 -0.00000000000E+00 -0.25531364244E+02  0.25960365177E+02  0.47000000000E+01 0.  1.
          6    1    1    2  502    0 -0.34285293358E+02 -0.45655735813E+02  0.64041067937E+03  0.66555973872E+03  0.17200000000E+03 0. -1.
         -6    1    1    2    0  502  0.34285293358E+02  0.45655735813E+02  0.61001740146E+03  0.63636872773E+03  0.17200000000E+03 0.  1.
</event>
<event>
 4    1 -0.3305908E-004  0.4597646E+03  0.7818608E-02  0.1024850E+00
         -5   -1    0    0    0  501 -0.00000000000E+00  0.00000000000E+00  0.26814446384E+03  0.26818565116E+03  0.47000000000E+01 0.  1.
          5   -1    0    0  501    0  0.00000000000E+00 -0.00000000000E+00 -0.86228577111E+03  0.86229858000E+03  0.47000000000E+01 0. -1.
          6    1    1    2  502    0  0.67427533882E+02 -0.42101430284E+03 -0.46273571741E+03  0.65230963483E+03  0.17200000000E+03 0. -1.
         -6    1    1    2    0  502 -0.67427533882E+02  0.42101430284E+03 -0.13140558986E+03  0.47817459632E+03  0.17200000000E+03 0.  1.
</event>
<event>
 4    1 -0.3305908E-004  0.1757310E+03  0.7818608E-02  0.1172000E+00
          5   -1    0    0  501    0  0.00000000000E+00  0.00000000000E+00  0.50658587143E+02  0.50876148157E+02  0.47000000000E+01 0. -1.
         -5   -1    0    0    0  501 -0.00000000000E+00 -0.00000000000E+00 -0.71513494317E+03  0.71515038764E+03  0.47000000000E+01 0.  1.
          6    1    1    2  502    0 -0.54940568485E+01  0.35597961845E+02 -0.18406106828E+03  0.25447961884E+03  0.17200000000E+03 0. -1.
         -6    1    1    2    0  502  0.54940568485E+01 -0.35597961845E+02 -0.48041528775E+03  0.51154691696E+03  0.17200000000E+03 0.  1.
</event>
<event>
 4    1 -0.3305908E-004  0.5967031E+03  0.7818608E-02  0.9912270E-01
          5   -1    0    0  501    0  0.00000000000E+00  0.00000000000E+00  0.24607045837E+03  0.24611533979E+03  0.47000000000E+01 0. -1.
         -5   -1    0    0    0  501 -0.00000000000E+00 -0.00000000000E+00 -0.17531412253E+04  0.17531475254E+04  0.47000000000E+01 0.  1.
          6    1    1    2  502    0  0.33509270108E+03 -0.46279963658E+03 -0.33566565317E+03  0.68463570799E+03  0.17200000000E+03 0. -1.
         -6    1    1    2    0  502 -0.33509270108E+03  0.46279963658E+03 -0.11714051137E+04  0.13146271572E+04  0.17200000000E+03 0. -1.
</event>
<event>
 4    1 -0.3305908E-004  0.5117438E+03  0.7818608E-02  0.1010758E+00
         -5   -1    0    0    0  501 -0.00000000000E+00  0.00000000000E+00  0.35280025685E+03  0.35283156212E+03  0.47000000000E+01 0.  1.
          5   -1    0    0  501    0  0.00000000000E+00 -0.00000000000E+00 -0.84467157292E+03  0.84468464890E+03  0.47000000000E+01 0. -1.
          6    1    1    2  502    0  0.48004261754E+03 -0.43090470193E+02 -0.45445631295E+03  0.68440649008E+03  0.17200000000E+03 0. -1.
         -6    1    1    2    0  502 -0.48004261754E+03  0.43090470193E+02 -0.37415003117E+02  0.51310972095E+03  0.17200000000E+03 0.  1.
</event>
<event>
 4    1 -0.3305908E-004  0.3714696E+03  0.7818608E-02  0.1054132E+00
          5   -1    0    0  501    0  0.00000000000E+00  0.00000000000E+00  0.12075940487E+04  0.12076031949E+04  0.47000000000E+01 0. -1.
         -5   -1    0    0    0  501 -0.00000000000E+00 -0.00000000000E+00 -0.15939756123E+03  0.15946683832E+03  0.47000000000E+01 0.  1.
          6    1    1    2  502    0 -0.97651330225E+02 -0.31443580410E+03  0.88793142732E+03  0.96250292301E+03  0.17200000000E+03 0. -1.
         -6    1    1    2    0  502  0.97651330225E+02  0.31443580410E+03  0.16026506015E+03  0.40456711026E+03  0.17200000000E+03 0.  1.
</event>
<event>
 4    1 -0.3305908E-004  0.3728100E+03  0.7818608E-02  0.1053624E+00
         -5   -1    0    0    0  501 -0.00000000000E+00  0.00000000000E+00  0.55628207172E+03  0.55630192640E+03  0.47000000000E+01 0.  1.
          5   -1    0    0  501    0  0.00000000000E+00 -0.00000000000E+00 -0.37668911095E+03  0.37671843107E+03  0.47000000000E+01 0. -1.
          6    1    1    2  502    0  0.13512903219E+03  0.30189975415E+03 -0.18093718304E+03  0.41439785364E+03  0.17200000000E+03 0. -1.
         -6    1    1    2    0  502 -0.13512903219E+03 -0.30189975415E+03  0.36053014380E+03  0.51862250383E+03  0.17200000000E+03 0. -1.
</event>
<event>
 4    1 -0.3305908E-004  0.3117248E+03  0.7818608E-02  0.1079522E+00
         -5   -1    0    0    0  501 -0.00000000000E+00  0.00000000000E+00  0.34883846966E+03  0.34887013044E+03  0.47000000000E+01 0.  1.
          5   -1    0    0  501    0  0.00000000000E+00 -0.00000000000E+00 -0.30828657272E+03  0.30832239769E+03  0.47000000000E+01 0. -1.
          6    1    1    2  502    0 -0.13132452758E+03  0.22437078774E+03 -0.81859879143E+02  0.32229399894E+03  0.17200000000E+03 0. -1.
         -6    1    1    2    0  502  0.13132452758E+03 -0.22437078774E+03  0.12241177609E+03  0.33489852920E+03  0.17200000000E+03 0.  1.
</event>
<event>
 4    1 -0.3305908E-004  0.2614998E+03  0.7818608E-02  0.1106245E+00
          5   -1    0    0  501    0  0.00000000000E+00  0.00000000000E+00  0.42267300469E+03  0.42269913519E+03  0.47000000000E+01 0. -1.
         -5   -1    0    0    0  501 -0.00000000000E+00 -0.00000000000E+00 -0.25066319542E+03  0.25070725466E+03  0.47000000000E+01 0.  1.
          6    1    1    2  502    0  0.44701174434E+02  0.19183319933E+03  0.28653870413E+03  0.38792602430E+03  0.17200000000E+03 0. -1.
         -6    1    1    2    0  502 -0.44701174434E+02 -0.19183319933E+03 -0.11452889486E+03  0.28548036556E+03  0.17200000000E+03 0.  1.
</event>
<event>
 4    1 -0.3305908E-004  0.1901216E+03  0.7818608E-02  0.1158352E+00
         -5   -1    0    0    0  501 -0.00000000000E+00  0.00000000000E+00  0.25191082298E+03  0.25195466405E+03  0.47000000000E+01 0.  1.
          5   -1    0    0  501    0  0.00000000000E+00 -0.00000000000E+00 -0.15043248948E+03  0.15050589322E+03  0.47000000000E+01 0. -1.
          6    1    1    2  502    0 -0.38239045927E+02  0.71414180799E+02  0.72268237276E+01  0.19025886795E+03  0.17200000000E+03 0.  1.
         -6    1    1    2    0  502  0.38239045927E+02 -0.71414180799E+02  0.94251509767E+02  0.21220168931E+03  0.17200000000E+03 0.  1.
</event>
<event>
 4    1 -0.3305908E-004  0.1810998E+03  0.7818608E-02  0.1166743E+00
          5   -1    0    0  501    0  0.00000000000E+00  0.00000000000E+00  0.36140765655E+03  0.36143821631E+03  0.47000000000E+01 0. -1.
         -5   -1    0    0    0  501 -0.00000000000E+00 -0.00000000000E+00 -0.30892373683E+03  0.30895948792E+03  0.47000000000E+01 0.  1.
          6    1    1    2  502    0 -0.42472522616E+02 -0.37539582384E+02  0.30794904671E+03  0.35725306268E+03  0.17200000000E+03 0. -1.
         -6    1    1    2    0  502  0.42472522616E+02  0.37539582384E+02 -0.25546512699E+03  0.31314464155E+03  0.17200000000E+03 0.  1.
</event>
<event>
 4    1 -0.3305908E-004  0.2563824E+03  0.7818608E-02  0.1109336E+00
          5   -1    0    0  501    0  0.00000000000E+00  0.00000000000E+00  0.12180221668E+03  0.12189286275E+03  0.47000000000E+01 0. -1.
         -5   -1    0    0    0  501 -0.00000000000E+00 -0.00000000000E+00 -0.66387890824E+03  0.66389554510E+03  0.47000000000E+01 0.  1.
          6    1    1    2  502    0 -0.64884806853E+02  0.17871172509E+03 -0.10089536998E+03  0.27552095116E+03  0.17200000000E+03 0. -1.
         -6    1    1    2    0  502  0.64884806853E+02 -0.17871172509E+03 -0.44118132158E+03  0.51026745669E+03  0.17200000000E+03 0.  1.
</event>
<event>
 4    1 -0.3305908E-004  0.2314296E+03  0.7818608E-02  0.1125638E+00
          5   -1    0    0  501    0  0.00000000000E+00  0.00000000000E+00  0.79724318821E+02  0.79862738567E+02  0.47000000000E+01 0. -1.
         -5   -1    0    0    0  501 -0.00000000000E+00 -0.00000000000E+00 -0.68237115380E+03  0.68238733981E+03  0.47000000000E+01 0.  1.
          6    1    1    2  502    0 -0.10768123935E+03  0.11126725659E+03 -0.35034089722E+03  0.41987902539E+03  0.17200000000E+03 0. -1.
         -6    1    1    2    0  502  0.10768123935E+03 -0.11126725659E+03 -0.25230593775E+03  0.34237105299E+03  0.17200000000E+03 0.  1.
</event>
<event>
 4    1 -0.3305908E-004  0.2354422E+03  0.7818608E-02  0.1122867E+00
          5   -1    0    0  501    0  0.00000000000E+00  0.00000000000E+00  0.10266256408E+03  0.10277009323E+03  0.47000000000E+01 0. -1.
         -5   -1    0    0    0  501 -0.00000000000E+00 -0.00000000000E+00 -0.57635904514E+03  0.57637820822E+03  0.47000000000E+01 0.  1.
          6    1    1    2  502    0 -0.32068596782E+02 -0.15754568961E+03 -0.15104623847E+03  0.27972844934E+03  0.17200000000E+03 0.  1.
         -6    1    1    2    0  502  0.32068596782E+02  0.15754568961E+03 -0.32265024259E+03  0.39941985211E+03  0.17200000000E+03 0. -1.
</event>
<event>
 4    1 -0.3305908E-004  0.3304031E+03  0.7818608E-02  0.1070959E+00
         -5   -1    0    0    0  501 -0.00000000000E+00  0.00000000000E+00  0.69695317953E+03  0.69696902690E+03  0.47000000000E+01 0.  1.
          5   -1    0    0  501    0  0.00000000000E+00 -0.00000000000E+00 -0.34328169572E+03  0.34331386896E+03  0.47000000000E+01 0. -1.
          6    1    1    2  502    0 -0.26764261951E+03 -0.89160847785E+02 -0.20671871781E+03  0.38974203885E+03  0.17200000000E+03 0. -1.
         -6    1    1    2    0  502  0.26764261951E+03  0.89160847785E+02  0.56039020162E+03  0.65054085700E+03  0.17200000000E+03 0.  1.
</event>
<event>
 4    1 -0.3305908E-004  0.2469012E+03  0.7818608E-02  0.1115279E+00
         -5   -1    0    0    0  501 -0.00000000000E+00  0.00000000000E+00  0.16316244553E+03  0.16323012476E+03  0.47000000000E+01 0.  1.
          5   -1    0    0  501    0  0.00000000000E+00 -0.00000000000E+00 -0.39060045293E+03  0.39062872889E+03  0.47000000000E+01 0. -1.
          6    1    1    2  502    0  0.10718297744E+03  0.14102481935E+03 -0.17172903548E+03  0.30075081372E+03  0.17200000000E+03 0. -1.
         -6    1    1    2    0  502 -0.10718297744E+03 -0.14102481935E+03 -0.55708971923E+02  0.25310803993E+03  0.17200000000E+03 0.  1.
</event>
<event>
 4    1 -0.3305908E-004  0.1866033E+03  0.7818608E-02  0.1161561E+00
         -5   -1    0    0    0  501 -0.00000000000E+00  0.00000000000E+00  0.10558873362E+03  0.10569328582E+03  0.47000000000E+01 0.  1.
          5   -1    0    0  501    0  0.00000000000E+00 -0.00000000000E+00 -0.50303814035E+03  0.50306009646E+03  0.47000000000E+01 0. -1.
          6    1    1    2  502    0  0.54376813918E+02 -0.47748792587E+02 -0.37748049043E+03  0.42108467763E+03  0.17200000000E+03 0. -1.
         -6    1    1    2    0  502 -0.54376813918E+02  0.47748792587E+02 -0.19968916305E+02  0.18766870465E+03  0.17200000000E+03 0.  1.
</event>
<event>
 4    1 -0.3305908E-004  0.2528809E+03  0.7818608E-02  0.1111498E+00
          5   -1    0    0  501    0  0.00000000000E+00  0.00000000000E+00  0.59957015755E+02  0.60140948931E+02  0.47000000000E+01 0. -1.
         -5   -1    0    0    0  501 -0.00000000000E+00 -0.00000000000E+00 -0.11617824076E+04  0.11617919145E+04  0.47000000000E+01 0.  1.
          6    1    1    2  502    0  0.70149603801E+02  0.17159185341E+03 -0.37436221194E+03  0.45176962802E+03  0.17200000000E+03 0. -1.
         -6    1    1    2    0  502 -0.70149603801E+02 -0.17159185341E+03 -0.72746317990E+03  0.77016323542E+03  0.17200000000E+03 0.  1.
</event>
<event>
 4    1 -0.3305908E-004  0.2188482E+03  0.7818608E-02  0.1134745E+00
          5   -1    0    0  501    0  0.00000000000E+00  0.00000000000E+00  0.11958994973E+03  0.11968227135E+03  0.47000000000E+01 0. -1.
         -5   -1    0    0    0  501 -0.00000000000E+00 -0.00000000000E+00 -0.40606959516E+03  0.40609679402E+03  0.47000000000E+01 0.  1.
          6    1    1    2  502    0 -0.13332964293E+03 -0.23102734986E+02 -0.11171593086E+03  0.24571320529E+03  0.17200000000E+03 0. -1.
         -6    1    1    2    0  502  0.13332964293E+03  0.23102734986E+02 -0.17476371458E+03  0.28006586008E+03  0.17200000000E+03 0.  1.
</event>
<event>
 4    1 -0.3305908E-004  0.2789939E+03  0.7818608E-02  0.1096240E+00
          5   -1    0    0  501    0  0.00000000000E+00  0.00000000000E+00  0.10880365038E+03  0.10890511621E+03  0.47000000000E+01 0. -1.
         -5   -1    0    0    0  501 -0.00000000000E+00 -0.00000000000E+00 -0.75278675805E+03  0.75280143006E+03  0.47000000000E+01 0.  1.
          6    1    1    2  502    0  0.17687985011E+03  0.13025790408E+03 -0.41857489759E+03  0.50303334665E+03  0.17200000000E+03 0.  1.
         -6    1    1    2    0  502 -0.17687985011E+03 -0.13025790408E+03 -0.22540821008E+03  0.35867319962E+03  0.17200000000E+03 0.  1.
</event>
<event>
 4    1 -0.3305908E-004  0.2712744E+03  0.7818608E-02  0.1100552E+00
          5   -1    0    0  501    0  0.00000000000E+00  0.00000000000E+00  0.75843406308E+03  0.75844862584E+03  0.47000000000E+01 0. -1.
         -5   -1    0    0    0  501 -0.00000000000E+00 -0.00000000000E+00 -0.16891236202E+03  0.16897773831E+03  0.47000000000E+01 0.  1.
          6    1    1    2  502    0 -0.10378668739E+03 -0.18230230540E+03  0.59732595818E+03  0.65603971476E+03  0.17200000000E+03 0. -1.
         -6    1    1    2    0  502  0.10378668739E+03  0.18230230540E+03 -0.78042571242E+01  0.27138664938E+03  0.17200000000E+03 0.  1.
</event>
<event>
 4    1 -0.3305908E-004  0.2502323E+03  0.7818608E-02  0.1113158E+00
          5   -1    0    0  501    0  0.00000000000E+00  0.00000000000E+00  0.31562848208E+03  0.31566347382E+03  0.47000000000E+01 0. -1.
         -5   -1    0    0    0  501 -0.00000000000E+00 -0.00000000000E+00 -0.50251460333E+03  0.50253658231E+03  0.47000000000E+01 0.  1.
          6    1    1    2  502    0 -0.13655645271E+03 -0.11993549689E+03  0.22483360441E+03  0.33640204795E+03  0.17200000000E+03 0. -1.
         -6    1    1    2    0  502  0.13655645271E+03  0.11993549689E+03 -0.41171972566E+03  0.48179800818E+03  0.17200000000E+03 0.  1.
</event>
<event>
 4    1 -0.3305908E-004  0.1923531E+03  0.7818608E-02  0.1156356E+00
         -5   -1    0    0    0  501 -0.00000000000E+00  0.00000000000E+00  0.62414538484E+03  0.62416308078E+03  0.47000000000E+01 0.  1.
          5   -1    0    0  501    0  0.00000000000E+00 -0.00000000000E+00 -0.66872692683E+02  0.67037653797E+02  0.47000000000E+01 0. -1.
          6    1    1    2  502    0  0.33718396353E+02  0.79238791536E+02  0.16150434172E+03  0.25116402754E+03  0.17200000000E+03 0.  1.
         -6    1    1    2    0  502 -0.33718396353E+02 -0.79238791536E+02  0.39576835043E+03  0.44003670704E+03  0.17200000000E+03 0.  1.
</event>
<event>
 4    1 -0.3305908E-004  0.7021210E+03  0.7818608E-02  0.9713612E-01
         -5   -1    0    0    0  501 -0.00000000000E+00  0.00000000000E+00  0.62815178612E+03  0.62816936921E+03  0.47000000000E+01 0.  1.
          5   -1    0    0  501    0  0.00000000000E+00 -0.00000000000E+00 -0.12245068757E+04  0.12245158957E+04  0.47000000000E+01 0. -1.
          6    1    1    2  502    0  0.36025212137E+03  0.57758840190E+03 -0.85329482104E+03  0.11050276035E+04  0.17200000000E+03 0. -1.
         -6    1    1    2    0  502 -0.36025212137E+03 -0.57758840190E+03  0.25693973142E+03  0.74765766133E+03  0.17200000000E+03 0.  1.
</event>
<event>
 4    1 -0.3305908E-004  0.1775265E+03  0.7818608E-02  0.1170219E+00
         -5   -1    0    0    0  501 -0.00000000000E+00  0.00000000000E+00  0.49360262501E+02  0.49583520591E+02  0.47000000000E+01 0.  1.
          5   -1    0    0  501    0  0.00000000000E+00 -0.00000000000E+00 -0.68692763721E+03  0.68694371587E+03  0.47000000000E+01 0. -1.
          6    1    1    2  502    0  0.34661403962E+02  0.27023210852E+02 -0.21932950411E+03  0.28217210745E+03  0.17200000000E+03 0.  1.
         -6    1    1    2    0  502 -0.34661403962E+02 -0.27023210852E+02 -0.41823787060E+03  0.45435512901E+03  0.17200000000E+03 0. -1.
</event>
<event>
 4    1 -0.3305908E-004  0.1782284E+03  0.7818608E-02  0.1169529E+00
         -5   -1    0    0    0  501 -0.00000000000E+00  0.00000000000E+00  0.13104100773E+03  0.13112526723E+03  0.47000000000E+01 0.  1.
          5   -1    0    0  501    0  0.00000000000E+00 -0.00000000000E+00 -0.26992729142E+03  0.26996820675E+03  0.47000000000E+01 0. -1.
          6    1    1    2  502    0 -0.35623057252E+02  0.30205216736E+02 -0.13367711882E+03  0.22278897958E+03  0.17200000000E+03 0. -1.
         -6    1    1    2    0  502  0.35623057252E+02 -0.30205216736E+02 -0.52091648795E+01  0.17830449440E+03  0.17200000000E+03 0.  1.
</event>
<event>
 4    1 -0.3305908E-004  0.2449088E+03  0.7818608E-02  0.1116565E+00
          5   -1    0    0  501    0  0.00000000000E+00  0.00000000000E+00  0.41245400960E+03  0.41248078748E+03  0.47000000000E+01 0. -1.
         -5   -1    0    0    0  501 -0.00000000000E+00 -0.00000000000E+00 -0.27904735807E+03  0.27908693636E+03  0.47000000000E+01 0.  1.
          6    1    1    2  502    0 -0.16954224762E+03  0.40641844185E+02  0.30601040231E+03  0.39194731731E+03  0.17200000000E+03 0. -1.
         -6    1    1    2    0  502  0.16954224762E+03 -0.40641844185E+02 -0.17260375078E+03  0.29962040653E+03  0.17200000000E+03 0.  1.
</event>
<event>
 4    1 -0.3305908E-004  0.1904249E+03  0.7818608E-02  0.1158079E+00
         -5   -1    0    0    0  501 -0.00000000000E+00  0.00000000000E+00  0.11813048194E+03  0.11822394327E+03  0.47000000000E+01 0.  1.
          5   -1    0    0  501    0  0.00000000000E+00 -0.00000000000E+00 -0.42113329218E+03  0.42115951822E+03  0.47000000000E+01 0. -1.
          6    1    1    2  502    0  0.80646690246E+02  0.13181182989E+02 -0.29204578178E+03  0.34864361587E+03  0.17200000000E+03 0. -1.
         -6    1    1    2    0  502 -0.80646690246E+02 -0.13181182989E+02 -0.10957028465E+02  0.19073984562E+03  0.17200000000E+03 0.  1.
</event>
<event>
 4    1 -0.3305908E-004  0.1870362E+03  0.7818608E-02  0.1161162E+00
          5   -1    0    0  501    0  0.00000000000E+00  0.00000000000E+00  0.61403517345E+03  0.61405316076E+03  0.47000000000E+01 0. -1.
         -5   -1    0    0    0  501 -0.00000000000E+00 -0.00000000000E+00 -0.88413112235E+02  0.88537949011E+02  0.47000000000E+01 0.  1.
          6    1    1    2  502    0 -0.69816250181E+02 -0.22896364168E+02  0.47247758142E+03  0.50815117556E+03  0.17200000000E+03 0. -1.
         -6    1    1    2    0  502  0.69816250181E+02  0.22896364168E+02  0.53144479800E+02  0.19443993421E+03  0.17200000000E+03 0.  1.
</event>
<event>
 4    1 -0.3305908E-004  0.1811362E+03  0.7818608E-02  0.1166708E+00
         -5   -1    0    0    0  501 -0.00000000000E+00  0.00000000000E+00  0.60989895564E+03  0.60991706492E+03  0.47000000000E+01 0.  1.
          5   -1    0    0  501    0  0.00000000000E+00 -0.00000000000E+00 -0.55143875530E+02  0.55343807318E+02  0.47000000000E+01 0. -1.
          6    1    1    2  502    0  0.50139651308E+02  0.26689745362E+02  0.22319270129E+03  0.28744618462E+03  0.17200000000E+03 0. -1.
         -6    1    1    2    0  502 -0.50139651308E+02 -0.26689745362E+02  0.33156237881E+03  0.37781468763E+03  0.17200000000E+03 0.  1.
</event>
<event>
 4    1 -0.3305908E-004  0.1853015E+03  0.7818608E-02  0.1162769E+00
          5   -1    0    0  501    0  0.00000000000E+00  0.00000000000E+00  0.11306634405E+04  0.11306732091E+04  0.47000000000E+01 0. -1.
         -5   -1    0    0    0  501 -0.00000000000E+00 -0.00000000000E+00 -0.46297161303E+02  0.46535117328E+02  0.47000000000E+01 0.  1.
          6    1    1    2  502    0  0.68903678113E+02  0.22215519089E+01  0.88834676887E+03  0.90746715308E+03  0.17200000000E+03 0. -1.
         -6    1    1    2    0  502 -0.68903678113E+02 -0.22215519089E+01  0.19601951033E+03  0.26974117331E+03  0.17200000000E+03 0.  1.
</event>
<event>
 4    1 -0.3305908E-004  0.1913995E+03  0.7818608E-02  0.1157205E+00
         -5   -1    0    0    0  501 -0.00000000000E+00  0.00000000000E+00  0.14257726095E+03  0.14265470669E+03  0.47000000000E+01 0.  1.
          5   -1    0    0  501    0  0.00000000000E+00 -0.00000000000E+00 -0.26399762663E+03  0.26403946082E+03  0.47000000000E+01 0. -1.
          6    1    1    2  502    0  0.99516444497E+01  0.83371024217E+02 -0.94346380588E+02  0.21338932128E+03  0.17200000000E+03 0. -1.
         -6    1    1    2    0  502 -0.99516444497E+01 -0.83371024217E+02 -0.27073985092E+02  0.19330484623E+03  0.17200000000E+03 0. -1.
</event>
<event>
 4    1 -0.3305908E-004  0.2192753E+03  0.7818608E-02  0.1134424E+00
         -5   -1    0    0    0  501 -0.00000000000E+00  0.00000000000E+00  0.65901123025E+03  0.65902798999E+03  0.47000000000E+01 0.  1.
          5   -1    0    0  501    0  0.00000000000E+00 -0.00000000000E+00 -0.85134496924E+02  0.85264134116E+02  0.47000000000E+01 0. -1.
          6    1    1    2  502    0 -0.12813222187E+03  0.45604866595E+02  0.14580192756E+03  0.26332465175E+03  0.17200000000E+03 0.  1.
         -6    1    1    2    0  502  0.12813222187E+03 -0.45604866595E+02  0.42807480576E+03  0.48096747236E+03  0.17200000000E+03 0.  1.
</event>
<event>
 4    1 -0.3305908E-004  0.2271059E+03  0.7818608E-02  0.1128693E+00
         -5   -1    0    0    0  501 -0.00000000000E+00  0.00000000000E+00  0.33989041429E+03  0.33992290850E+03  0.47000000000E+01 0.  1.
          5   -1    0    0  501    0  0.00000000000E+00 -0.00000000000E+00 -0.15167064270E+03  0.15174344750E+03  0.47000000000E+01 0. -1.
          6    1    1    2  502    0 -0.39621371570E+02  0.14290993194E+03  0.93651828567E+02  0.24565782448E+03  0.17200000000E+03 0. -1.
         -6    1    1    2    0  502  0.39621371570E+02 -0.14290993194E+03  0.94567943016E+02  0.24600853152E+03  0.17200000000E+03 0. -1.
</event>
<event>
 4    1 -0.3305908E-004  0.2492397E+03  0.7818608E-02  0.1113786E+00
         -5   -1    0    0    0  501 -0.00000000000E+00  0.00000000000E+00  0.13440092614E+04  0.13440174793E+04  0.47000000000E+01 0.  1.
          5   -1    0    0  501    0  0.00000000000E+00 -0.00000000000E+00 -0.46874372318E+02  0.47109412862E+02  0.47000000000E+01 0. -1.
          6    1    1    2  502    0  0.14762231370E+03  0.10365373147E+03  0.55896180911E+03  0.61201204856E+03  0.17200000000E+03 0. -1.
         -6    1    1    2    0  502 -0.14762231370E+03 -0.10365373147E+03  0.73817307998E+03  0.77911484362E+03  0.17200000000E+03 0.  1.
</event>
<event>
 4    1 -0.3305908E-004  0.2311411E+03  0.7818608E-02  0.1125839E+00
         -5   -1    0    0    0  501 -0.00000000000E+00  0.00000000000E+00  0.15623789097E+03  0.15630856846E+03  0.47000000000E+01 0.  1.
          5   -1    0    0  501    0  0.00000000000E+00 -0.00000000000E+00 -0.51645226667E+03  0.51647365252E+03  0.47000000000E+01 0. -1.
          6    1    1    2  502    0 -0.38585193087E+02  0.14951050294E+03 -0.37571575746E+03  0.44112190834E+03  0.17200000000E+03 0. -1.
         -6    1    1    2    0  502  0.38585193087E+02 -0.14951050294E+03  0.15501381757E+02  0.23166031264E+03  0.17200000000E+03 0.  1.
</event>
<event>
 4    1 -0.3305908E-004  0.2193536E+03  0.7818608E-02  0.1134366E+00
          5   -1    0    0  501    0  0.00000000000E+00  0.00000000000E+00  0.34426549226E+03  0.34429757356E+03  0.47000000000E+01 0. -1.
         -5   -1    0    0    0  501 -0.00000000000E+00 -0.00000000000E+00 -0.22465872821E+03  0.22470788629E+03  0.47000000000E+01 0.  1.
          6    1    1    2  502    0 -0.41893099827E+02 -0.12952596886E+03  0.23473619451E+03  0.32127416553E+03  0.17200000000E+03 0. -1.
         -6    1    1    2    0  502  0.41893099827E+02  0.12952596886E+03 -0.11512943047E+03  0.24773129432E+03  0.17200000000E+03 0.  1.
</event>
<event>
 4    1 -0.3305908E-004  0.2357904E+03  0.7818608E-02  0.1122629E+00
          5   -1    0    0  501    0  0.00000000000E+00  0.00000000000E+00  0.27553559917E+02  0.27951541354E+02  0.47000000000E+01 0. -1.
         -5   -1    0    0    0  501 -0.00000000000E+00 -0.00000000000E+00 -0.20035145944E+04  0.20035201072E+04  0.47000000000E+01 0.  1.
          6    1    1    2  502    0 -0.10263071585E+03 -0.12441883473E+03 -0.97040440205E+03  0.99863998207E+03  0.17200000000E+03 0. -1.
         -6    1    1    2    0  502  0.10263071585E+03  0.12441883473E+03 -0.10055566324E+04  0.10328316665E+04  0.17200000000E+03 0.  1.
</event>
<event>
 4    1 -0.3305908E-004  0.2979897E+03  0.7818608E-02  0.1086250E+00
          5   -1    0    0  501    0  0.00000000000E+00  0.00000000000E+00  0.10651338895E+03  0.10661703441E+03  0.47000000000E+01 0. -1.
         -5   -1    0    0    0  501 -0.00000000000E+00 -0.00000000000E+00 -0.11748372822E+04  0.11748466835E+04  0.47000000000E+01 0.  1.
          6    1    1    2  502    0  0.24926435627E+02  0.24205888968E+03 -0.18864209181E+03  0.35268069421E+03  0.17200000000E+03 0. -1.
         -6    1    1    2    0  502 -0.24926435627E+02 -0.24205888968E+03 -0.87968180145E+03  0.92878302368E+03  0.17200000000E+03 0.  1.
</event>
<event>
 4    1 -0.3305908E-004  0.2809510E+03  0.7818608E-02  0.1095171E+00
          5   -1    0    0  501    0  0.00000000000E+00  0.00000000000E+00  0.38769176076E+03  0.38772024884E+03  0.47000000000E+01 0. -1.
         -5   -1    0    0    0  501 -0.00000000000E+00 -0.00000000000E+00 -0.25214053301E+03  0.25218433415E+03  0.47000000000E+01 0.  1.
          6    1    1    2  502    0  0.22164655901E+03 -0.14909007776E+02  0.20823088089E+03  0.34970498337E+03  0.17200000000E+03 0. -1.
         -6    1    1    2    0  502 -0.22164655901E+03  0.14909007776E+02 -0.72679653146E+02  0.29019959962E+03  0.17200000000E+03 0.  1.
</event>
<event>
 4    1 -0.3305908E-004  0.3460126E+03  0.7818608E-02  0.1064264E+00
          5   -1    0    0  501    0  0.00000000000E+00  0.00000000000E+00  0.55413026299E+03  0.55415019476E+03  0.47000000000E+01 0. -1.
         -5   -1    0    0    0  501 -0.00000000000E+00 -0.00000000000E+00 -0.56787633156E+03  0.56789578088E+03  0.47000000000E+01 0.  1.
          6    1    1    2  502    0  0.24257387313E+03  0.17691411167E+03  0.43471969043E+03  0.55561308127E+03  0.17200000000E+03 0. -1.
         -6    1    1    2    0  502 -0.24257387313E+03 -0.17691411167E+03 -0.44846575900E+03  0.56643289437E+03  0.17200000000E+03 0.  1.
</event>
<event>
 4    1 -0.3305908E-004  0.2807372E+03  0.7818608E-02  0.1095287E+00
         -5   -1    0    0    0  501 -0.00000000000E+00  0.00000000000E+00  0.16665449894E+03  0.16672076060E+03  0.47000000000E+01 0.  1.
          5   -1    0    0  501    0  0.00000000000E+00 -0.00000000000E+00 -0.67918503966E+03  0.67920130160E+03  0.47000000000E+01 0. -1.
          6    1    1    2  502    0 -0.22018199643E+03  0.27373144238E+02 -0.48943805828E+03  0.56423666442E+03  0.17200000000E+03 0. -1.
         -6    1    1    2    0  502  0.22018199643E+03 -0.27373144238E+02 -0.23092482435E+02  0.28168539778E+03  0.17200000000E+03 0. -1.
</event>
<event>
 4    1 -0.3305908E-004  0.2058545E+03  0.7818608E-02  0.1144891E+00
          5   -1    0    0  501    0  0.00000000000E+00  0.00000000000E+00  0.32651707168E+03  0.32655089664E+03  0.47000000000E+01 0. -1.
         -5   -1    0    0    0  501 -0.00000000000E+00 -0.00000000000E+00 -0.13112124986E+03  0.13120545783E+03  0.47000000000E+01 0.  1.
          6    1    1    2  502    0  0.11304989152E+03  0.34350937124E+01  0.12152432861E+03  0.23904861490E+03  0.17200000000E+03 0.  1.
         -6    1    1    2    0  502 -0.11304989152E+03 -0.34350937124E+01  0.73871493208E+02  0.21870773957E+03  0.17200000000E+03 0. -1.
</event>
<event>
 4    1 -0.3305908E-004  0.1935577E+03  0.7818608E-02  0.1155291E+00
          5   -1    0    0  501    0  0.00000000000E+00  0.00000000000E+00  0.19319929866E+03  0.19325645914E+03  0.47000000000E+01 0. -1.
         -5   -1    0    0    0  501 -0.00000000000E+00 -0.00000000000E+00 -0.19619359635E+03  0.19624988471E+03  0.47000000000E+01 0.  1.
          6    1    1    2  502    0 -0.84014126460E+02  0.28674252910E+02  0.19996980537E+02  0.19458793759E+03  0.17200000000E+03 0. -1.
         -6    1    1    2    0  502  0.84014126460E+02 -0.28674252910E+02 -0.22991278228E+02  0.19491840626E+03  0.17200000000E+03 0. -1.
</event>
<event>
 4    1 -0.3305908E-004  0.1839559E+03  0.7818608E-02  0.1164029E+00
         -5   -1    0    0    0  501 -0.00000000000E+00  0.00000000000E+00  0.92559127657E+02  0.92678379964E+02  0.47000000000E+01 0.  1.
          5   -1    0    0  501    0  0.00000000000E+00 -0.00000000000E+00 -0.37835631028E+03  0.37838550121E+03  0.47000000000E+01 0. -1.
          6    1    1    2  502    0  0.75165999090E+01 -0.64801776512E+02 -0.18675709012E+03  0.26214114561E+03  0.17200000000E+03 0. -1.
         -6    1    1    2    0  502 -0.75165999090E+01  0.64801776512E+02 -0.99040092507E+02  0.20892273557E+03  0.17200000000E+03 0. -1.
</event>
<event>
 4    1 -0.3305908E-004  0.3025547E+03  0.7818608E-02  0.1083970E+00
          5   -1    0    0  501    0  0.00000000000E+00  0.00000000000E+00  0.86728977764E+03  0.86730251262E+03  0.47000000000E+01 0. -1.
         -5   -1    0    0    0  501 -0.00000000000E+00 -0.00000000000E+00 -0.19301510567E+03  0.19307232069E+03  0.47000000000E+01 0.  1.
          6    1    1    2  502    0  0.21585391556E+03 -0.12394521686E+03  0.69409614122E+03  0.75717156768E+03  0.17200000000E+03 0. -1.
         -6    1    1    2    0  502 -0.21585391556E+03  0.12394521686E+03 -0.19821469257E+02  0.30320326563E+03  0.17200000000E+03 0.  1.
</event>
<event>
 4    1 -0.3305908E-004  0.2377713E+03  0.7818608E-02  0.1121286E+00
          5   -1    0    0  501    0  0.00000000000E+00  0.00000000000E+00  0.18695064605E+03  0.18700971648E+03  0.47000000000E+01 0. -1.
         -5   -1    0    0    0  501 -0.00000000000E+00 -0.00000000000E+00 -0.31589689713E+03  0.31593185914E+03  0.47000000000E+01 0.  1.
          6    1    1    2  502    0 -0.16161328184E+03 -0.28850191761E+02 -0.12274579052E+02  0.23808790755E+03  0.17200000000E+03 0. -1.
         -6    1    1    2    0  502  0.16161328184E+03  0.28850191761E+02 -0.11667167204E+03  0.26485366806E+03  0.17200000000E+03 0.  1.
</event>
<event>
 4    1 -0.3305908E-004  0.1823871E+03  0.7818608E-02  0.1165513E+00
         -5   -1    0    0    0  501 -0.00000000000E+00  0.00000000000E+00  0.26917693809E+03  0.26921796745E+03  0.47000000000E+01 0.  1.
          5   -1    0    0  501    0  0.00000000000E+00 -0.00000000000E+00 -0.14133188151E+03  0.14141000931E+03  0.47000000000E+01 0. -1.
          6    1    1    2  502    0 -0.81594834957E+01  0.60120470124E+02  0.13684854991E+03  0.22801880122E+03  0.17200000000E+03 0.  1.
         -6    1    1    2    0  502  0.81594834957E+01 -0.60120470124E+02 -0.90034933294E+01  0.18260917554E+03  0.17200000000E+03 0.  1.
</event>
<event>
 4    1 -0.3305908E-004  0.1888174E+03  0.7818608E-02  0.1159532E+00
          5   -1    0    0  501    0  0.00000000000E+00  0.00000000000E+00  0.19590644211E+03  0.19596281295E+03  0.47000000000E+01 0. -1.
         -5   -1    0    0    0  501 -0.00000000000E+00 -0.00000000000E+00 -0.18244987172E+03  0.18251039886E+03  0.47000000000E+01 0.  1.
          6    1    1    2  502    0  0.71908248158E+02  0.29953719566E+02  0.17374646487E+02  0.18961513602E+03  0.17200000000E+03 0. -1.
         -6    1    1    2    0  502 -0.71908248158E+02 -0.29953719566E+02 -0.39180761014E+01  0.18885807579E+03  0.17200000000E+03 0.  1.
</event>
<event>
 4    1 -0.3305908E-004  0.2834618E+03  0.7818608E-02  0.1093813E+00
          5   -1    0    0  501    0  0.00000000000E+00  0.00000000000E+00  0.68069716096E+02  0.68231783279E+02  0.47000000000E+01 0. -1.
         -5   -1    0    0    0  501 -0.00000000000E+00 -0.00000000000E+00 -0.11791907346E+04  0.11792001011E+04  0.47000000000E+01 0.  1.
          6    1    1    2  502    0 -0.53099331578E+02  0.21896818474E+03 -0.54489723558E+03  0.61421787851E+03  0.17200000000E+03 0.  1.
         -6    1    1    2    0  502  0.53099331578E+02 -0.21896818474E+03 -0.56622378289E+03  0.63321400589E+03  0.17200000000E+03 0.  1.
</event>
<event>
 4    1 -0.3305908E-004  0.4350610E+03  0.7818608E-02  0.1032273E+00
         -5   -1    0    0    0  501 -0.00000000000E+00  0.00000000000E+00  0.26962067544E+03  0.26966163729E+03  0.47000000000E+01 0.  1.
          5   -1    0    0  501    0  0.00000000000E+00 -0.00000000000E+00 -0.10314895370E+04  0.10315002448E+04  0.47000000000E+01 0. -1.
          6    1    1    2  502    0 -0.39172826758E+03 -0.79013031369E+02 -0.74866940654E+03  0.86590067273E+03  0.17200000000E+03 0. -1.
         -6    1    1    2    0  502  0.39172826758E+03  0.79013031369E+02 -0.13199455038E+02  0.43526120934E+03  0.17200000000E+03 0.  1.
</event>
<event>
 4    1 -0.3305908E-004  0.2417759E+03  0.7818608E-02  0.1118615E+00
         -5   -1    0    0    0  501 -0.00000000000E+00  0.00000000000E+00  0.61237017690E+02  0.61417117610E+02  0.47000000000E+01 0.  1.
          5   -1    0    0  501    0  0.00000000000E+00 -0.00000000000E+00 -0.10345403299E+04  0.10345510061E+04  0.47000000000E+01 0. -1.
          6    1    1    2  502    0 -0.10518545316E+03  0.13344520365E+03 -0.64048900140E+03  0.68460336170E+03  0.17200000000E+03 0. -1.
         -6    1    1    2    0  502  0.10518545316E+03 -0.13344520365E+03 -0.33281431082E+03  0.41136476201E+03  0.17200000000E+03 0.  1.
</event>
<event>
 4    1 -0.3305908E-004  0.4552295E+03  0.7818608E-02  0.1026174E+00
         -5   -1    0    0    0  501 -0.00000000000E+00  0.00000000000E+00  0.10742537716E+04  0.10742640531E+04  0.47000000000E+01 0.  1.
          5   -1    0    0  501    0  0.00000000000E+00 -0.00000000000E+00 -0.34183271651E+03  0.34186502611E+03  0.47000000000E+01 0. -1.
          6    1    1    2  502    0  0.14624011389E+03  0.39530206025E+03 -0.10116950425E+03  0.46633588575E+03  0.17200000000E+03 0. -1.
         -6    1    1    2    0  502 -0.14624011389E+03 -0.39530206025E+03  0.83359055934E+03  0.94979319348E+03  0.17200000000E+03 0.  1.
</event>
<event>
 4    1 -0.3305908E-004  0.2622714E+03  0.7818608E-02  0.1105786E+00
         -5   -1    0    0    0  501 -0.00000000000E+00  0.00000000000E+00  0.31699545370E+03  0.31703029455E+03  0.47000000000E+01 0.  1.
          5   -1    0    0  501    0  0.00000000000E+00 -0.00000000000E+00 -0.35051335240E+03  0.35054486191E+03  0.47000000000E+01 0. -1.
          6    1    1    2  502    0 -0.12011509814E+03 -0.15739967604E+03 -0.22280266295E+03  0.34413270905E+03  0.17200000000E+03 0. -1.
         -6    1    1    2    0  502  0.12011509814E+03  0.15739967604E+03  0.18928476424E+03  0.32344244742E+03  0.17200000000E+03 0.  1.
</event>
<event>
 4    1 -0.3305908E-004  0.3331707E+03  0.7818608E-02  0.1069742E+00
          5   -1    0    0  501    0  0.00000000000E+00  0.00000000000E+00  0.12801951780E+04  0.12802038055E+04  0.47000000000E+01 0. -1.
         -5   -1    0    0    0  501 -0.00000000000E+00 -0.00000000000E+00 -0.21351783584E+03  0.21356955828E+03  0.47000000000E+01 0.  1.
          6    1    1    2  502    0  0.23770281888E+03  0.15784823443E+03  0.11089630916E+04  0.11579299779E+04  0.17200000000E+03 0. -1.
         -6    1    1    2    0  502 -0.23770281888E+03 -0.15784823443E+03 -0.42285749509E+02  0.33584338586E+03  0.17200000000E+03 0.  1.
</event>
<event>
 4    1 -0.3305908E-004  0.2314300E+03  0.7818608E-02  0.1125637E+00
         -5   -1    0    0    0  501 -0.00000000000E+00  0.00000000000E+00  0.14295443362E+03  0.14303167513E+03  0.47000000000E+01 0.  1.
          5   -1    0    0  501    0  0.00000000000E+00 -0.00000000000E+00 -0.94850557577E+03  0.94851722034E+03  0.47000000000E+01 0. -1.
          6    1    1    2  502    0 -0.93633827017E+02  0.12332288710E+03 -0.82733656866E+03  0.85909581880E+03  0.17200000000E+03 0. -1.
         -6    1    1    2    0  502  0.93633827017E+02 -0.12332288710E+03  0.21785426503E+02  0.23245307667E+03  0.17200000000E+03 0.  1.
</event>
<event>
 4    1 -0.3305908E-004  0.2145526E+03  0.7818608E-02  0.1138011E+00
         -5   -1    0    0    0  501 -0.00000000000E+00  0.00000000000E+00  0.23042696833E+03  0.23047489611E+03  0.47000000000E+01 0.  1.
          5   -1    0    0  501    0  0.00000000000E+00 -0.00000000000E+00 -0.47456220717E+03  0.47458548069E+03  0.47000000000E+01 0. -1.
          6    1    1    2  502    0 -0.11878486025E+03 -0.48362970879E+02 -0.39034663993E+03  0.44542487501E+03  0.17200000000E+03 0. -1.
         -6    1    1    2    0  502  0.11878486025E+03  0.48362970879E+02  0.14621140109E+03  0.25963550178E+03  0.17200000000E+03 0.  1.
</event>
<event>
 4    1 -0.3305908E-004  0.4183682E+03  0.7818608E-02  0.1037599E+00
          5   -1    0    0  501    0  0.00000000000E+00  0.00000000000E+00  0.26868369577E+04  0.26868410685E+04  0.47000000000E+01 0. -1.
         -5   -1    0    0    0  501 -0.00000000000E+00 -0.00000000000E+00 -0.88997280239E+02  0.89121298745E+02  0.47000000000E+01 0.  1.
          6    1    1    2  502    0 -0.25538208681E+03  0.28324536078E+03  0.20182154051E+04  0.20611223559E+04  0.17200000000E+03 0. -1.
         -6    1    1    2    0  502  0.25538208681E+03 -0.28324536078E+03  0.57962427238E+03  0.71484001133E+03  0.17200000000E+03 0.  1.
</event>
<event>
 4    1 -0.3305908E-004  0.1980287E+03  0.7818608E-02  0.1151413E+00
         -5   -1    0    0    0  501 -0.00000000000E+00  0.00000000000E+00  0.13893457234E+03  0.13901404746E+03  0.47000000000E+01 0.  1.
          5   -1    0    0  501    0  0.00000000000E+00 -0.00000000000E+00 -0.29096826336E+03  0.29100622036E+03  0.47000000000E+01 0. -1.
          6    1    1    2  502    0 -0.89427495900E+02 -0.40424056922E+02 -0.11359209806E+03  0.22829486666E+03  0.17200000000E+03 0. -1.
         -6    1    1    2    0  502  0.89427495900E+02  0.40424056922E+02 -0.38441592974E+02  0.20172540116E+03  0.17200000000E+03 0.  1.
</event>
<event>
 4    1 -0.3305908E-004  0.1870678E+03  0.7818608E-02  0.1161133E+00
         -5   -1    0    0    0  501 -0.00000000000E+00  0.00000000000E+00  0.43215877575E+02  0.43470703635E+02  0.47000000000E+01 0.  1.
          5   -1    0    0  501    0  0.00000000000E+00 -0.00000000000E+00 -0.10277929236E+04  0.10278036699E+04  0.47000000000E+01 0. -1.
          6    1    1    2  502    0  0.42607380882E+02  0.59958180224E+02 -0.24412342065E+03  0.30755587588E+03  0.17200000000E+03 0.  1.
         -6    1    1    2    0  502 -0.42607380882E+02 -0.59958180224E+02 -0.74045362542E+03  0.76371849766E+03  0.17200000000E+03 0. -1.
</event>
<event>
 4    1 -0.3305908E-004  0.2810298E+03  0.7818608E-02  0.1095128E+00
          5   -1    0    0  501    0  0.00000000000E+00  0.00000000000E+00  0.37781459395E+03  0.37784382673E+03  0.47000000000E+01 0. -1.
         -5   -1    0    0    0  501 -0.00000000000E+00 -0.00000000000E+00 -0.24604013645E+03  0.24608502340E+03  0.47000000000E+01 0.  1.
          6    1    1    2  502    0  0.21815427967E+02  0.22117371702E+03  0.18695219521E+03  0.33753347877E+03  0.17200000000E+03 0. -1.
         -6    1    1    2    0  502 -0.21815427967E+02 -0.22117371702E+03 -0.55177737714E+02  0.28639537136E+03  0.17200000000E+03 0.  1.
</event>
<event>
 4    1 -0.3305908E-004  0.2152738E+03  0.7818608E-02  0.1137456E+00
          5   -1    0    0  501    0  0.00000000000E+00  0.00000000000E+00  0.11367030046E+04  0.11367127213E+04  0.47000000000E+01 0. -1.
         -5   -1    0    0    0  501 -0.00000000000E+00 -0.00000000000E+00 -0.14028878944E+03  0.14036749781E+03  0.47000000000E+01 0.  1.
          6    1    1    2  502    0  0.43094071166E+02  0.12207262980E+03  0.10360578721E+04  0.10581865338E+04  0.17200000000E+03 0. -1.
         -6    1    1    2    0  502 -0.43094071166E+02 -0.12207262980E+03 -0.39643656956E+02  0.21889368528E+03  0.17200000000E+03 0.  1.
</event>
<event>
 4    1 -0.3305908E-004  0.1753040E+03  0.7818608E-02  0.1172427E+00
          5   -1    0    0  501    0  0.00000000000E+00  0.00000000000E+00  0.97535621751E+03  0.97536754151E+03  0.47000000000E+01 0. -1.
         -5   -1    0    0    0  501 -0.00000000000E+00 -0.00000000000E+00 -0.31845491901E+02  0.32190454399E+02  0.47000000000E+01 0.  1.
          6    1    1    2  502    0 -0.41773945403E+01 -0.33615929005E+02  0.40747124117E+03  0.44358121431E+03  0.17200000000E+03 0.  1.
         -6    1    1    2    0  502  0.41773945403E+01  0.33615929005E+02  0.53603948443E+03  0.56397678160E+03  0.17200000000E+03 0.  1.
</event>
<event>
 4    1 -0.3305908E-004  0.1996265E+03  0.7818608E-02  0.1150055E+00
         -5   -1    0    0    0  501 -0.00000000000E+00  0.00000000000E+00  0.11896676614E+03  0.11905957099E+03  0.47000000000E+01 0.  1.
          5   -1    0    0  501    0  0.00000000000E+00 -0.00000000000E+00 -0.33741516627E+03  0.33744789883E+03  0.47000000000E+01 0. -1.
          6    1    1    2  502    0 -0.97857987291E+02  0.26278286317E+02 -0.12956820328E+03  0.23798876719E+03  0.17200000000E+03 0. -1.
         -6    1    1    2    0  502  0.97857987291E+02 -0.26278286317E+02 -0.88880196851E+02  0.21851870263E+03  0.17200000000E+03 0.  1.
</event>
<event>
 4    1 -0.3305908E-004  0.2288300E+03  0.7818608E-02  0.1127466E+00
         -5   -1    0    0    0  501 -0.00000000000E+00  0.00000000000E+00  0.11720953850E+03  0.11730373360E+03  0.47000000000E+01 0.  1.
          5   -1    0    0  501    0  0.00000000000E+00 -0.00000000000E+00 -0.59692004307E+03  0.59693854610E+03  0.47000000000E+01 0. -1.
          6    1    1    2  502    0  0.89082841911E+02  0.12183358921E+03 -0.41913137906E+03  0.47752935941E+03  0.17200000000E+03 0. -1.
         -6    1    1    2    0  502 -0.89082841911E+02 -0.12183358921E+03 -0.60579125506E+02  0.23671292028E+03  0.17200000000E+03 0.  1.
</event>
<event>
 4    1 -0.3305908E-004  0.1796767E+03  0.7818608E-02  0.1168116E+00
          5   -1    0    0  501    0  0.00000000000E+00  0.00000000000E+00  0.51419077643E+03  0.51421225633E+03  0.47000000000E+01 0. -1.
         -5   -1    0    0    0  501 -0.00000000000E+00 -0.00000000000E+00 -0.80107501437E+02  0.80245260212E+02  0.47000000000E+01 0.  1.
          6    1    1    2  502    0  0.49710357265E+02 -0.15119776282E+02  0.35554316904E+03  0.39836499885E+03  0.17200000000E+03 0. -1.
         -6    1    1    2    0  502 -0.49710357265E+02  0.15119776282E+02  0.78540105948E+02  0.19609251770E+03  0.17200000000E+03 0.  1.
</event>
<event>
 4    1 -0.3305908E-004  0.1726463E+03  0.7818608E-02  0.1175116E+00
          5   -1    0    0  501    0  0.00000000000E+00  0.00000000000E+00  0.14048949695E+03  0.14056809294E+03  0.47000000000E+01 0. -1.
         -5   -1    0    0    0  501 -0.00000000000E+00 -0.00000000000E+00 -0.30279110185E+03  0.30282757695E+03  0.47000000000E+01 0.  1.
          6    1    1    2  502    0  0.14754234213E+02  0.22496538136E+01  0.40222867697E+02  0.17726992823E+03  0.17200000000E+03 0. -1.
         -6    1    1    2    0  502 -0.14754234213E+02 -0.22496538136E+01 -0.20252447260E+03  0.26612574166E+03  0.17200000000E+03 0.  1.
</event>
<event>
 4    1 -0.3305908E-004  0.2378598E+03  0.7818608E-02  0.1121227E+00
          5   -1    0    0  501    0  0.00000000000E+00  0.00000000000E+00  0.15633246831E+04  0.15633317482E+04  0.47000000000E+01 0. -1.
         -5   -1    0    0    0  501 -0.00000000000E+00 -0.00000000000E+00 -0.45225713434E+02  0.45469277052E+02  0.47000000000E+01 0.  1.
          6    1    1    2  502    0 -0.16377111101E+03 -0.13127221180E+02  0.11206348295E+04  0.11456001579E+04  0.17200000000E+03 0. -1.
         -6    1    1    2    0  502  0.16377111101E+03  0.13127221180E+02  0.39746414016E+03  0.46320086729E+03  0.17200000000E+03 0.  1.
</event>
<event>
 4    1 -0.3305908E-004  0.1755887E+03  0.7818608E-02  0.1172142E+00
         -5   -1    0    0    0  501 -0.00000000000E+00  0.00000000000E+00  0.70449679964E+03  0.70451247733E+03  0.47000000000E+01 0.  1.
          5   -1    0    0  501    0  0.00000000000E+00 -0.00000000000E+00 -0.43648319309E+02  0.43900635286E+02  0.47000000000E+01 0. -1.
          6    1    1    2  502    0  0.89963496307E+01 -0.34153396866E+02  0.32114263195E+03  0.36601089995E+03  0.17200000000E+03 0. -1.
         -6    1    1    2    0  502 -0.89963496307E+01  0.34153396866E+02  0.33970584838E+03  0.38240221266E+03  0.17200000000E+03 0.  1.
</event>
<event>
 4    1 -0.3305908E-004  0.2443646E+03  0.7818608E-02  0.1116919E+00
         -5   -1    0    0    0  501 -0.00000000000E+00  0.00000000000E+00  0.12900594603E+04  0.12900680219E+04  0.47000000000E+01 0.  1.
          5   -1    0    0  501    0  0.00000000000E+00 -0.00000000000E+00 -0.52138089153E+02  0.52349501817E+02  0.47000000000E+01 0. -1.
          6    1    1    2  502    0 -0.16656408530E+03  0.48851361316E+02  0.84573735274E+03  0.88033273245E+03  0.17200000000E+03 0.  1.
         -6    1    1    2    0  502  0.16656408530E+03 -0.48851361316E+02  0.39218401841E+03  0.46208479125E+03  0.17200000000E+03 0. -1.
</event>
<event>
 4    1 -0.3305908E-004  0.3429057E+03  0.7818608E-02  0.1065565E+00
          5   -1    0    0  501    0  0.00000000000E+00  0.00000000000E+00  0.14417129604E+04  0.14417206214E+04  0.47000000000E+01 0. -1.
         -5   -1    0    0    0  501 -0.00000000000E+00 -0.00000000000E+00 -0.16672672033E+03  0.16679295330E+03  0.47000000000E+01 0.  1.
          6    1    1    2  502    0  0.29418634204E+03  0.38140505107E+02  0.12123790518E+04  0.12599393903E+04  0.17200000000E+03 0. -1.
         -6    1    1    2    0  502 -0.29418634204E+03 -0.38140505107E+02  0.62607188198E+02  0.34857418434E+03  0.17200000000E+03 0.  1.
</event>
<event>
 4    1 -0.3305908E-004  0.2137003E+03  0.7818608E-02  0.1138669E+00
         -5   -1    0    0    0  501 -0.00000000000E+00  0.00000000000E+00  0.12255420192E+04  0.12255510315E+04  0.47000000000E+01 0.  1.
          5   -1    0    0  501    0  0.00000000000E+00 -0.00000000000E+00 -0.38585181417E+02  0.38870377217E+02  0.47000000000E+01 0. -1.
          6    1    1    2  502    0  0.12676843098E+03  0.36831324723E+01  0.47017167468E+03  0.51645832768E+03  0.17200000000E+03 0. -1.
         -6    1    1    2    0  502 -0.12676843098E+03 -0.36831324723E+01  0.71678516308E+03  0.74796308102E+03  0.17200000000E+03 0.  1.
</event>
<event>
 4    1 -0.3305908E-004  0.2026366E+03  0.7818608E-02  0.1147533E+00
         -5   -1    0    0    0  501 -0.00000000000E+00  0.00000000000E+00  0.25689547461E+02  0.26115950084E+02  0.47000000000E+01 0.  1.
          5   -1    0    0  501    0  0.00000000000E+00 -0.00000000000E+00 -0.15876414204E+04  0.15876483772E+04  0.47000000000E+01 0. -1.
          6    1    1    2  502    0  0.44570164001E+02  0.97422293630E+02 -0.81515494321E+03  0.83996379937E+03  0.17200000000E+03 0. -1.
         -6    1    1    2    0  502 -0.44570164001E+02 -0.97422293630E+02 -0.74679692973E+03  0.77380052796E+03  0.17200000000E+03 0.  1.
</event>
<event>
 4    1 -0.3305908E-004  0.2389461E+03  0.7818608E-02  0.1120497E+00
          5   -1    0    0  501    0  0.00000000000E+00  0.00000000000E+00  0.18909201070E+03  0.18915041239E+03  0.47000000000E+01 0. -1.
         -5   -1    0    0    0  501 -0.00000000000E+00 -0.00000000000E+00 -0.93545272340E+03  0.93546453044E+03  0.47000000000E+01 0.  1.
          6    1    1    2  502    0 -0.15683153606E+03  0.53991824087E+02  0.89586486253E+02  0.25518813901E+03  0.17200000000E+03 0. -1.
         -6    1    1    2    0  502  0.15683153606E+03 -0.53991824087E+02 -0.83594719895E+03  0.86942680382E+03  0.17200000000E+03 0.  1.
</event>
<event>
 4    1 -0.3305908E-004  0.1843778E+03  0.7818608E-02  0.1163632E+00
         -5   -1    0    0    0  501 -0.00000000000E+00  0.00000000000E+00  0.25105140969E+03  0.25109540080E+03  0.47000000000E+01 0.  1.
          5   -1    0    0  501    0  0.00000000000E+00 -0.00000000000E+00 -0.21092193362E+03  0.21097429247E+03  0.47000000000E+01 0. -1.
          6    1    1    2  502    0 -0.28309611505E+02  0.60081047634E+02 -0.11822329020E+03  0.21902491350E+03  0.17200000000E+03 0. -1.
         -6    1    1    2    0  502  0.28309611505E+02 -0.60081047634E+02  0.15835276627E+03  0.24304477977E+03  0.17200000000E+03 0.  1.
</event>
<event>
 4    1 -0.3305908E-004  0.2969126E+03  0.7818608E-02  0.1086794E+00
          5   -1    0    0  501    0  0.00000000000E+00  0.00000000000E+00  0.15080101149E+03  0.15087423593E+03  0.47000000000E+01 0. -1.
         -5   -1    0    0    0  501 -0.00000000000E+00 -0.00000000000E+00 -0.78529799773E+03  0.78531206233E+03  0.47000000000E+01 0.  1.
          6    1    1    2  502    0 -0.81403875902E+02 -0.22791772369E+03 -0.80485873460E+02  0.30762811252E+03  0.17200000000E+03 0. -1.
         -6    1    1    2    0  502  0.81403875902E+02  0.22791772369E+03 -0.55401111278E+03  0.62855818574E+03  0.17200000000E+03 0.  1.
</event>
<event>
 4    1 -0.3305908E-004  0.2663024E+03  0.7818608E-02  0.1103415E+00
          5   -1    0    0  501    0  0.00000000000E+00  0.00000000000E+00  0.28186156087E+03  0.28190074405E+03  0.47000000000E+01 0. -1.
         -5   -1    0    0    0  501 -0.00000000000E+00 -0.00000000000E+00 -0.31300223572E+03  0.31303752102E+03  0.47000000000E+01 0.  1.
          6    1    1    2  502    0 -0.12550958462E+03  0.15993850896E+03  0.11624799651E+03  0.29056940509E+03  0.17200000000E+03 0. -1.
         -6    1    1    2    0  502  0.12550958462E+03 -0.15993850896E+03 -0.14738867136E+03  0.30436885998E+03  0.17200000000E+03 0.  1.
</event>
<event>
 4    1 -0.3305908E-004  0.3839397E+03  0.7818608E-02  0.1049487E+00
          5   -1    0    0  501    0  0.00000000000E+00  0.00000000000E+00  0.46394558950E+03  0.46396939556E+03  0.47000000000E+01 0. -1.
         -5   -1    0    0    0  501 -0.00000000000E+00 -0.00000000000E+00 -0.33349265754E+03  0.33352577507E+03  0.47000000000E+01 0.  1.
          6    1    1    2  502    0  0.34200323364E+03  0.29316919032E+02  0.15204310548E+03  0.41294890663E+03  0.17200000000E+03 0. -1.
         -6    1    1    2    0  502 -0.34200323364E+03 -0.29316919032E+02 -0.21590173517E+02  0.38454626400E+03  0.17200000000E+03 0.  1.
</event>
<event>
 4    1 -0.3305908E-004  0.1970838E+03  0.7818608E-02  0.1152223E+00
          5   -1    0    0  501    0  0.00000000000E+00  0.00000000000E+00  0.63121864502E+03  0.63123614267E+03  0.47000000000E+01 0. -1.
         -5   -1    0    0    0  501 -0.00000000000E+00 -0.00000000000E+00 -0.66187596101E+02  0.66354260433E+02  0.47000000000E+01 0.  1.
          6    1    1    2  502    0  0.45775435949E+01 -0.96109734725E+02  0.37592573092E+03  0.42445516864E+03  0.17200000000E+03 0. -1.
         -6    1    1    2    0  502 -0.45775435949E+01  0.96109734725E+02  0.18910531799E+03  0.27313523447E+03  0.17200000000E+03 0.  1.
</event>
<event>
 4    1 -0.3305908E-004  0.1868439E+03  0.7818608E-02  0.1161339E+00
          5   -1    0    0  501    0  0.00000000000E+00  0.00000000000E+00  0.10977108690E+03  0.10987165931E+03  0.47000000000E+01 0. -1.
         -5   -1    0    0    0  501 -0.00000000000E+00 -0.00000000000E+00 -0.32782364809E+03  0.32785733825E+03  0.47000000000E+01 0.  1.
          6    1    1    2  502    0  0.45085267048E+02 -0.57392920667E+02 -0.14735104956E+03  0.23795579517E+03  0.17200000000E+03 0. -1.
         -6    1    1    2    0  502 -0.45085267048E+02  0.57392920667E+02 -0.70701511630E+02  0.19977320239E+03  0.17200000000E+03 0. -1.
</event>
<event>
 4    1 -0.3305908E-004  0.3463265E+03  0.7818608E-02  0.1064133E+00
         -5   -1    0    0    0  501 -0.00000000000E+00  0.00000000000E+00  0.15508113361E+03  0.15515233805E+03  0.47000000000E+01 0.  1.
          5   -1    0    0  501    0  0.00000000000E+00 -0.00000000000E+00 -0.78788128780E+03  0.78789530628E+03  0.47000000000E+01 0. -1.
          6    1    1    2  502    0  0.12691017215E+03  0.27249198332E+03 -0.25194820351E+03  0.42827557719E+03  0.17200000000E+03 0. -1.
         -6    1    1    2    0  502 -0.12691017215E+03 -0.27249198332E+03 -0.38085195068E+03  0.51477206714E+03  0.17200000000E+03 0.  1.
</event>
<event>
 4    1 -0.3305908E-004  0.2455418E+03  0.7818608E-02  0.1116155E+00
         -5   -1    0    0    0  501 -0.00000000000E+00  0.00000000000E+00  0.53582702376E+03  0.53584763635E+03  0.47000000000E+01 0.  1.
          5   -1    0    0  501    0  0.00000000000E+00 -0.00000000000E+00 -0.24912154276E+03  0.24916587461E+03  0.47000000000E+01 0. -1.
          6    1    1    2  502    0 -0.55005434515E+02  0.16637654425E+03 -0.14732042354E+03  0.28634604851E+03  0.17200000000E+03 0. -1.
         -6    1    1    2    0  502  0.55005434515E+02 -0.16637654425E+03  0.43402590454E+03  0.49866746245E+03  0.17200000000E+03 0.  1.
</event>
<event>
 4    1 -0.3305908E-004  0.1850639E+03  0.7818608E-02  0.1162990E+00
          5   -1    0    0  501    0  0.00000000000E+00  0.00000000000E+00  0.37130487520E+03  0.37133462045E+03  0.47000000000E+01 0. -1.
         -5   -1    0    0    0  501 -0.00000000000E+00 -0.00000000000E+00 -0.92273947816E+02  0.92393568205E+02  0.47000000000E+01 0.  1.
          6    1    1    2  502    0  0.56644915937E+02  0.38157702855E+02  0.13086506523E+03  0.22665904369E+03  0.17200000000E+03 0.  1.
         -6    1    1    2    0  502 -0.56644915937E+02 -0.38157702855E+02  0.14816586216E+03  0.23706914497E+03  0.17200000000E+03 0.  1.
</event>
<event>
 4    1 -0.3305908E-004  0.1965512E+03  0.7818608E-02  0.1152682E+00
         -5   -1    0    0    0  501 -0.00000000000E+00  0.00000000000E+00  0.59082650067E+03  0.59084519453E+03  0.47000000000E+01 0.  1.
          5   -1    0    0  501    0  0.00000000000E+00 -0.00000000000E+00 -0.66509844158E+02  0.66675702996E+02  0.47000000000E+01 0. -1.
          6    1    1    2  502    0 -0.93257726623E+02  0.18745401119E+02  0.21756643546E+03  0.29320222966E+03  0.17200000000E+03 0. -1.
         -6    1    1    2    0  502  0.93257726623E+02 -0.18745401119E+02  0.30675022106E+03  0.36431866787E+03  0.17200000000E+03 0.  1.
</event>
<event>
 4    1 -0.3305908E-004  0.5081376E+03  0.7818608E-02  0.1011676E+00
         -5   -1    0    0    0  501 -0.00000000000E+00  0.00000000000E+00  0.18623223292E+04  0.18623282599E+04  0.47000000000E+01 0.  1.
          5   -1    0    0  501    0  0.00000000000E+00 -0.00000000000E+00 -0.18736774795E+03  0.18742668693E+03  0.47000000000E+01 0. -1.
          6    1    1    2  502    0 -0.21711147859E+03 -0.42600752205E+03  0.31471649207E+03  0.59770416876E+03  0.17200000000E+03 0. -1.
         -6    1    1    2    0  502  0.21711147859E+03  0.42600752205E+03  0.13602380891E+04  0.14520507781E+04  0.17200000000E+03 0.  1.
</event>
<event>
 4    1 -0.3305908E-004  0.1745600E+03  0.7818608E-02  0.1173174E+00
          5   -1    0    0  501    0  0.00000000000E+00  0.00000000000E+00  0.21755237922E+03  0.21760314268E+03  0.47000000000E+01 0. -1.
         -5   -1    0    0    0  501 -0.00000000000E+00 -0.00000000000E+00 -0.27554912991E+03  0.27558921059E+03  0.47000000000E+01 0.  1.
          6    1    1    2  502    0 -0.68063708341E+01  0.28997870653E+02  0.14395014847E+03  0.22625836655E+03  0.17200000000E+03 0. -1.
         -6    1    1    2    0  502  0.68063708341E+01 -0.28997870653E+02 -0.20194689916E+03  0.26693398672E+03  0.17200000000E+03 0.  1.
</event>
<event>
 4    1 -0.3305908E-004  0.2280780E+03  0.7818608E-02  0.1128000E+00
         -5   -1    0    0    0  501 -0.00000000000E+00  0.00000000000E+00  0.34040137223E+03  0.34043381767E+03  0.47000000000E+01 0.  1.
          5   -1    0    0  501    0  0.00000000000E+00 -0.00000000000E+00 -0.15558840266E+03  0.15565937506E+03  0.47000000000E+01 0. -1.
          6    1    1    2  502    0  0.32630701957E+02  0.14618761529E+03  0.58870561611E+02  0.23555323093E+03  0.17200000000E+03 0. -1.
         -6    1    1    2    0  502 -0.32630701957E+02 -0.14618761529E+03  0.12594240795E+03  0.26053996180E+03  0.17200000000E+03 0. -1.
</event>
<event>
 4    1 -0.3305908E-004  0.4541742E+03  0.7818608E-02  0.1026485E+00
         -5   -1    0    0    0  501 -0.00000000000E+00  0.00000000000E+00  0.14971369734E+04  0.14971443508E+04  0.47000000000E+01 0.  1.
          5   -1    0    0  501    0  0.00000000000E+00 -0.00000000000E+00 -0.21671583663E+03  0.21676679599E+03  0.47000000000E+01 0. -1.
          6    1    1    2  502    0 -0.98719162533E+02 -0.40858875058E+03  0.12294824416E+03  0.47052153075E+03  0.17200000000E+03 0. -1.
         -6    1    1    2    0  502  0.98719162533E+02  0.40858875058E+03  0.11574728926E+04  0.12433896160E+04  0.17200000000E+03 0.  1.
</event>
<event>
 4    1 -0.3305908E-004  0.2261520E+03  0.7818608E-02  0.1129378E+00
          5   -1    0    0  501    0  0.00000000000E+00  0.00000000000E+00  0.12770676891E+03  0.12779322683E+03  0.47000000000E+01 0. -1.
         -5   -1    0    0    0  501 -0.00000000000E+00 -0.00000000000E+00 -0.65211112221E+03  0.65212805929E+03  0.47000000000E+01 0.  1.
          6    1    1    2  502    0  0.14659001792E+03 -0.84898655159E+01 -0.19873637473E+02  0.22702350679E+03  0.17200000000E+03 0. -1.
         -6    1    1    2    0  502 -0.14659001792E+03  0.84898655159E+01 -0.50453071583E+03  0.55289777933E+03  0.17200000000E+03 0.  1.
</event>
<event>
 4    1 -0.3305908E-004  0.2970691E+03  0.7818608E-02  0.1086715E+00
          5   -1    0    0  501    0  0.00000000000E+00  0.00000000000E+00  0.83662463036E+03  0.83663783212E+03  0.47000000000E+01 0. -1.
         -5   -1    0    0    0  501 -0.00000000000E+00 -0.00000000000E+00 -0.13271836721E+03  0.13280156248E+03  0.47000000000E+01 0.  1.
          6    1    1    2  502    0 -0.13227237356E+02  0.24184934534E+03  0.57170952674E+03  0.64428398134E+03  0.17200000000E+03 0. -1.
         -6    1    1    2    0  502  0.13227237356E+02 -0.24184934534E+03  0.13219673641E+03  0.32515541325E+03  0.17200000000E+03 0. -1.
</event>
<event>
 4    1 -0.3305908E-004  0.1743428E+03  0.7818608E-02  0.1173393E+00
          5   -1    0    0  501    0  0.00000000000E+00  0.00000000000E+00  0.50751692318E+03  0.50753868553E+03  0.47000000000E+01 0. -1.
         -5   -1    0    0    0  501 -0.00000000000E+00 -0.00000000000E+00 -0.66016242970E+02  0.66183338809E+02  0.47000000000E+01 0.  1.
          6    1    1    2  502    0  0.27328436806E+02 -0.80361549510E+01  0.13268057446E+03  0.21908801447E+03  0.17200000000E+03 0.  1.
         -6    1    1    2    0  502 -0.27328436806E+02  0.80361549510E+01  0.30882010574E+03  0.35463400987E+03  0.17200000000E+03 0. -1.
</event>
<event>
 4    1 -0.3305908E-004  0.2400356E+03  0.7818608E-02  0.1119769E+00
          5   -1    0    0  501    0  0.00000000000E+00  0.00000000000E+00  0.35582137965E+03  0.35585241915E+03  0.47000000000E+01 0. -1.
         -5   -1    0    0    0  501 -0.00000000000E+00 -0.00000000000E+00 -0.16260519225E+03  0.16267310333E+03  0.47000000000E+01 0.  1.
          6    1    1    2  502    0 -0.40411904378E+02 -0.16248065663E+03  0.11421535206E+03  0.26582368675E+03  0.17200000000E+03 0. -1.
         -6    1    1    2    0  502  0.40411904378E+02  0.16248065663E+03  0.79000835338E+02  0.25270183572E+03  0.17200000000E+03 0. -1.
</event>
<event>
 4    1 -0.3305908E-004  0.3846520E+03  0.7818608E-02  0.1049228E+00
          5   -1    0    0  501    0  0.00000000000E+00  0.00000000000E+00  0.24490160881E+03  0.24494670440E+03  0.47000000000E+01 0. -1.
         -5   -1    0    0    0  501 -0.00000000000E+00 -0.00000000000E+00 -0.88659205928E+03  0.88660451700E+03  0.47000000000E+01 0.  1.
          6    1    1    2  502    0 -0.34356156268E+03 -0.18400786983E+02 -0.64023216841E+03  0.74689648934E+03  0.17200000000E+03 0. -1.
         -6    1    1    2    0  502  0.34356156268E+03  0.18400786983E+02 -0.14582820603E+01  0.38465473207E+03  0.17200000000E+03 0.  1.
</event>
<event>
 4    1 -0.3305908E-004  0.2388940E+03  0.7818608E-02  0.1120532E+00
         -5   -1    0    0    0  501 -0.00000000000E+00  0.00000000000E+00  0.31737618217E+03  0.31741098124E+03  0.47000000000E+01 0.  1.
          5   -1    0    0  501    0  0.00000000000E+00 -0.00000000000E+00 -0.23273941699E+03  0.23278686866E+03  0.47000000000E+01 0. -1.
          6    1    1    2  502    0 -0.16426031498E+03  0.22470247508E+02 -0.88928844850E+02  0.25490920452E+03  0.17200000000E+03 0. -1.
         -6    1    1    2    0  502  0.16426031498E+03 -0.22470247508E+02  0.17356561004E+03  0.29528864538E+03  0.17200000000E+03 0.  1.
</event>
<event>
 4    1 -0.3305908E-004  0.4873823E+03  0.7818608E-02  0.1017126E+00
         -5   -1    0    0    0  501 -0.00000000000E+00  0.00000000000E+00  0.17457358483E+03  0.17463684181E+03  0.47000000000E+01 0.  1.
          5   -1    0    0  501    0  0.00000000000E+00 -0.00000000000E+00 -0.18459062942E+04  0.18459122777E+04  0.47000000000E+01 0. -1.
          6    1    1    2  502    0  0.45256881085E+03 -0.56026863804E+02 -0.13537880965E+04  0.14388480630E+04  0.17200000000E+03 0. -1.
         -6    1    1    2    0  502 -0.45256881085E+03  0.56026863804E+02 -0.31754461283E+03  0.58170105652E+03  0.17200000000E+03 0.  1.
</event>
<event>
 4    1 -0.3305908E-004  0.1790441E+03  0.7818608E-02  0.1168731E+00
         -5   -1    0    0    0  501 -0.00000000000E+00  0.00000000000E+00  0.34718903027E+03  0.34722084145E+03  0.47000000000E+01 0.  1.
          5   -1    0    0  501    0  0.00000000000E+00 -0.00000000000E+00 -0.16435931184E+03  0.16442649844E+03  0.47000000000E+01 0. -1.
          6    1    1    2  502    0  0.48387981358E+02  0.11463294412E+02 -0.77985505936E+02  0.19529091887E+03  0.17200000000E+03 0. -1.
         -6    1    1    2    0  502 -0.48387981358E+02 -0.11463294412E+02  0.26081522436E+03  0.31635642102E+03  0.17200000000E+03 0.  1.
</event>
<event>
 4    1 -0.3305908E-004  0.1833819E+03  0.7818608E-02  0.1164570E+00
          5   -1    0    0  501    0  0.00000000000E+00  0.00000000000E+00  0.32742716236E+03  0.32746089332E+03  0.47000000000E+01 0. -1.
         -5   -1    0    0    0  501 -0.00000000000E+00 -0.00000000000E+00 -0.11108767339E+03  0.11118705491E+03  0.47000000000E+01 0.  1.
          6    1    1    2  502    0  0.63323678716E+02 -0.59180921839E+01  0.16870771679E+03  0.24918107032E+03  0.17200000000E+03 0. -1.
         -6    1    1    2    0  502 -0.63323678716E+02  0.59180921839E+01  0.47631772186E+02  0.18946687790E+03  0.17200000000E+03 0.  1.
</event>
<event>
 4    1 -0.3305908E-004  0.1755846E+03  0.7818608E-02  0.1172146E+00
          5   -1    0    0  501    0  0.00000000000E+00  0.00000000000E+00  0.34086009314E+02  0.34408516837E+02  0.47000000000E+01 0. -1.
         -5   -1    0    0    0  501 -0.00000000000E+00 -0.00000000000E+00 -0.10922277480E+04  0.10922378603E+04  0.47000000000E+01 0.  1.
          6    1    1    2  502    0  0.10822449768E+01  0.35281220230E+02 -0.76542865434E+03  0.78530946807E+03  0.17200000000E+03 0.  1.
         -6    1    1    2    0  502 -0.10822449768E+01 -0.35281220230E+02 -0.29271308437E+03  0.34133690910E+03  0.17200000000E+03 0. -1.
</event>
<event>
 4    1 -0.3305908E-004  0.2044358E+03  0.7818608E-02  0.1146050E+00
          5   -1    0    0  501    0  0.00000000000E+00  0.00000000000E+00  0.53485253761E+03  0.53487318776E+03  0.47000000000E+01 0. -1.
         -5   -1    0    0    0  501 -0.00000000000E+00 -0.00000000000E+00 -0.78114214115E+02  0.78255481896E+02  0.47000000000E+01 0.  1.
          6    1    1    2  502    0  0.25525812590E+02 -0.10751010701E+03  0.21947263646E+03  0.29993704068E+03  0.17200000000E+03 0.  1.
         -6    1    1    2    0  502 -0.25525812590E+02  0.10751010701E+03  0.23726568703E+03  0.31319162898E+03  0.17200000000E+03 0. -1.
</event>
<event>
 4    1 -0.3305908E-004  0.2692830E+03  0.7818608E-02  0.1101691E+00
          5   -1    0    0  501    0  0.00000000000E+00  0.00000000000E+00  0.69591420422E+03  0.69593007525E+03  0.47000000000E+01 0. -1.
         -5   -1    0    0    0  501 -0.00000000000E+00 -0.00000000000E+00 -0.29609169376E+03  0.29612899405E+03  0.47000000000E+01 0.  1.
          6    1    1    2  502    0  0.20700565812E+03 -0.88323564658E+01  0.59924781902E+03  0.65697130958E+03  0.17200000000E+03 0. -1.
         -6    1    1    2    0  502 -0.20700565812E+03  0.88323564658E+01 -0.19942530856E+03  0.33508775971E+03  0.17200000000E+03 0.  1.
</event>
<event>
 4    1 -0.3305908E-004  0.1879443E+03  0.7818608E-02  0.1160329E+00
          5   -1    0    0  501    0  0.00000000000E+00  0.00000000000E+00  0.14374974926E+04  0.14375051760E+04  0.47000000000E+01 0. -1.
         -5   -1    0    0    0  501 -0.00000000000E+00 -0.00000000000E+00 -0.30027141653E+02  0.30392749725E+02  0.47000000000E+01 0.  1.
          6    1    1    2  502    0 -0.49654448694E+02 -0.57214540347E+02  0.10209626900E+04  0.10381174703E+04  0.17200000000E+03 0. -1.
         -6    1    1    2    0  502  0.49654448694E+02  0.57214540347E+02  0.38650766096E+03  0.42978045544E+03  0.17200000000E+03 0.  1.
</event>
<event>
 4    1 -0.3305908E-004  0.2503770E+03  0.7818608E-02  0.1113067E+00
         -5   -1    0    0    0  501 -0.00000000000E+00  0.00000000000E+00  0.20301733563E+03  0.20307173256E+03  0.47000000000E+01 0.  1.
          5   -1    0    0  501    0  0.00000000000E+00 -0.00000000000E+00 -0.31057812150E+03  0.31061368217E+03  0.47000000000E+01 0. -1.
          6    1    1    2  502    0  0.18154864085E+03 -0.12031114365E+02 -0.73903599221E+02  0.26105631324E+03  0.17200000000E+03 0. -1.
         -6    1    1    2    0  502 -0.18154864085E+03  0.12031114365E+02 -0.33657186646E+02  0.25262910149E+03  0.17200000000E+03 0.  1.
</event>
<event>
 4    1 -0.3305908E-004  0.2547130E+03  0.7818608E-02  0.1110362E+00
          5   -1    0    0  501    0  0.00000000000E+00  0.00000000000E+00  0.13605827023E+04  0.13605908201E+04  0.47000000000E+01 0. -1.
         -5   -1    0    0    0  501 -0.00000000000E+00 -0.00000000000E+00 -0.12686294847E+03  0.12694998107E+03  0.47000000000E+01 0.  1.
          6    1    1    2  502    0 -0.17683614732E+03  0.63432396250E+02  0.12045232189E+04  0.12311599720E+04  0.17200000000E+03 0. -1.
         -6    1    1    2    0  502  0.17683614732E+03 -0.63432396250E+02  0.29196534906E+02  0.25638082913E+03  0.17200000000E+03 0.  1.
</event>
<event>
 4    1 -0.3305908E-004  0.2737740E+03  0.7818608E-02  0.1099139E+00
         -5   -1    0    0    0  501 -0.00000000000E+00  0.00000000000E+00  0.49343643717E+02  0.49566976661E+02  0.47000000000E+01 0.  1.
          5   -1    0    0  501    0  0.00000000000E+00 -0.00000000000E+00 -0.16950968500E+04  0.16951033658E+04  0.47000000000E+01 0. -1.
          6    1    1    2  502    0  0.19365913874E+03  0.88681036694E+02 -0.11069399245E+04  0.11402930258E+04  0.17200000000E+03 0. -1.
         -6    1    1    2    0  502 -0.19365913874E+03 -0.88681036694E+02 -0.53881328176E+03  0.60437731666E+03  0.17200000000E+03 0.  1.
</event>
<event>
 4    1 -0.3305908E-004  0.1970213E+03  0.7818608E-02  0.1152277E+00
          5   -1    0    0  501    0  0.00000000000E+00  0.00000000000E+00  0.45691571046E+03  0.45693988276E+03  0.47000000000E+01 0. -1.
         -5   -1    0    0    0  501 -0.00000000000E+00 -0.00000000000E+00 -0.10778836288E+03  0.10789078354E+03  0.47000000000E+01 0.  1.
          6    1    1    2  502    0 -0.26870519960E+02  0.92256978744E+02  0.30472153280E+03  0.36286717615E+03  0.17200000000E+03 0. -1.
         -6    1    1    2    0  502  0.26870519960E+02 -0.92256978744E+02  0.44405814772E+02  0.20196349015E+03  0.17200000000E+03 0.  1.
</event>
<event>
 4    1 -0.3305908E-004  0.2278868E+03  0.7818608E-02  0.1128136E+00
          5   -1    0    0  501    0  0.00000000000E+00  0.00000000000E+00  0.67757711788E+02  0.67920523458E+02  0.47000000000E+01 0. -1.
         -5   -1    0    0    0  501 -0.00000000000E+00 -0.00000000000E+00 -0.78881375995E+03  0.78882776187E+03  0.47000000000E+01 0.  1.
          6    1    1    2  502    0  0.14555897276E+03 -0.34073141655E+02 -0.28665936941E+03  0.36620484378E+03  0.17200000000E+03 0. -1.
         -6    1    1    2    0  502 -0.14555897276E+03  0.34073141655E+02 -0.43439667875E+03  0.49054344155E+03  0.17200000000E+03 0.  1.
</event>
<event>
 4    1 -0.3305908E-004  0.1822239E+03  0.7818608E-02  0.1165668E+00
         -5   -1    0    0    0  501 -0.00000000000E+00  0.00000000000E+00  0.34114360064E+03  0.34117597550E+03  0.47000000000E+01 0.  1.
          5   -1    0    0  501    0  0.00000000000E+00 -0.00000000000E+00 -0.97531486637E+02  0.97644666447E+02  0.47000000000E+01 0. -1.
          6    1    1    2  502    0  0.44521326381E+02 -0.40489308101E+02  0.10986518246E+03  0.21278132176E+03  0.17200000000E+03 0. -1.
         -6    1    1    2    0  502 -0.44521326381E+02  0.40489308101E+02  0.13374693155E+03  0.22603932019E+03  0.17200000000E+03 0. -1.
</event>
<event>
 4    1 -0.3305908E-004  0.2957601E+03  0.7818608E-02  0.1087379E+00
          5   -1    0    0  501    0  0.00000000000E+00  0.00000000000E+00  0.40851500544E+03  0.40854204150E+03  0.47000000000E+01 0. -1.
         -5   -1    0    0    0  501 -0.00000000000E+00 -0.00000000000E+00 -0.21688207883E+03  0.21693299914E+03  0.47000000000E+01 0.  1.
          6    1    1    2  502    0  0.23281804600E+03 -0.60710969486E+02  0.13143975068E+03  0.32365177648E+03  0.17200000000E+03 0. -1.
         -6    1    1    2    0  502 -0.23281804600E+03  0.60710969486E+02  0.60193175939E+02  0.30182326416E+03  0.17200000000E+03 0.  1.
</event>
<event>
 4    1 -0.3305908E-004  0.2310933E+03  0.7818608E-02  0.1125873E+00
          5   -1    0    0  501    0  0.00000000000E+00  0.00000000000E+00  0.29980674169E+03  0.29984357983E+03  0.47000000000E+01 0. -1.
         -5   -1    0    0    0  501 -0.00000000000E+00 -0.00000000000E+00 -0.21786260697E+03  0.21791329816E+03  0.47000000000E+01 0.  1.
          6    1    1    2  502    0 -0.25454715077E+02 -0.15222403232E+03  0.15161509544E+03  0.27638964470E+03  0.17200000000E+03 0. -1.
         -6    1    1    2    0  502  0.25454715077E+02  0.15222403232E+03 -0.69670960714E+02  0.24136723328E+03  0.17200000000E+03 0.  1.
</event>
<event>
 4    1 -0.3305908E-004  0.2307148E+03  0.7818608E-02  0.1126138E+00
          5   -1    0    0  501    0  0.00000000000E+00  0.00000000000E+00  0.93705019108E+02  0.93822814954E+02  0.47000000000E+01 0. -1.
         -5   -1    0    0    0  501 -0.00000000000E+00 -0.00000000000E+00 -0.71568036553E+03  0.71569579823E+03  0.47000000000E+01 0.  1.
          6    1    1    2  502    0  0.12707924526E+03 -0.86580450547E+02 -0.12687119312E+03  0.26329756671E+03  0.17200000000E+03 0. -1.
         -6    1    1    2    0  502 -0.12707924526E+03  0.86580450547E+02 -0.49510415331E+03  0.54622104648E+03  0.17200000000E+03 0.  1.
</event>
<event>
 4    1 -0.3305908E-004  0.1768287E+03  0.7818608E-02  0.1170908E+00
          5   -1    0    0  501    0  0.00000000000E+00  0.00000000000E+00  0.86111020681E+02  0.86239189947E+02  0.47000000000E+01 0. -1.
         -5   -1    0    0    0  501 -0.00000000000E+00 -0.00000000000E+00 -0.59205246569E+03  0.59207112084E+03  0.47000000000E+01 0.  1.
          6    1    1    2  502    0 -0.41038633353E+02  0.47970457003E+00 -0.46403288489E+03  0.49658324358E+03  0.17200000000E+03 0.  1.
         -6    1    1    2    0  502  0.41038633353E+02 -0.47970457003E+00 -0.41908560119E+02  0.18172706721E+03  0.17200000000E+03 0. -1.
</event>
<event>
 4    1 -0.3305908E-004  0.1720130E+03  0.7818608E-02  0.1175765E+00
         -5   -1    0    0    0  501 -0.00000000000E+00  0.00000000000E+00  0.45830167664E+02  0.46070535792E+02  0.47000000000E+01 0.  1.
          5   -1    0    0  501    0  0.00000000000E+00 -0.00000000000E+00 -0.66775295266E+03  0.66776949300E+03  0.47000000000E+01 0. -1.
          6    1    1    2  502    0 -0.21057488075E+01 -0.15944251980E+00 -0.24319669318E+03  0.29788100170E+03  0.17200000000E+03 0.  1.
         -6    1    1    2    0  502  0.21057488075E+01  0.15944251980E+00 -0.37872609181E+03  0.41595902709E+03  0.17200000000E+03 0. -1.
</event>
<event>
 4    1 -0.3305908E-004  0.1953374E+03  0.7818608E-02  0.1153734E+00
         -5   -1    0    0    0  501 -0.00000000000E+00  0.00000000000E+00  0.21359826368E+02  0.21870806626E+02  0.47000000000E+01 0.  1.
          5   -1    0    0  501    0  0.00000000000E+00 -0.00000000000E+00 -0.18218632652E+04  0.18218693277E+04  0.47000000000E+01 0. -1.
          6    1    1    2  502    0 -0.93205803435E+01  0.92118650941E+02 -0.10634527628E+04  0.10812439585E+04  0.17200000000E+03 0. -1.
         -6    1    1    2    0  502  0.93205803435E+01 -0.92118650941E+02 -0.73705067605E+03  0.76249617581E+03  0.17200000000E+03 0.  1.
</event>
<event>
 4    1 -0.3305908E-004  0.2066009E+03  0.7818608E-02  0.1144286E+00
          5   -1    0    0  501    0  0.00000000000E+00  0.00000000000E+00  0.59097690706E+02  0.59284290050E+02  0.47000000000E+01 0. -1.
         -5   -1    0    0    0  501 -0.00000000000E+00 -0.00000000000E+00 -0.72339289483E+03  0.72340816300E+03  0.47000000000E+01 0.  1.
          6    1    1    2  502    0 -0.19697924469E+02  0.11274725321E+03 -0.30930750745E+03  0.37196113440E+03  0.17200000000E+03 0.  1.
         -6    1    1    2    0  502  0.19697924469E+02 -0.11274725321E+03 -0.35498769667E+03  0.41073131865E+03  0.17200000000E+03 0.  1.
</event>
<event>
 4    1 -0.3305908E-004  0.2273830E+03  0.7818608E-02  0.1128495E+00
          5   -1    0    0  501    0  0.00000000000E+00  0.00000000000E+00  0.26442226350E+03  0.26446403051E+03  0.47000000000E+01 0. -1.
         -5   -1    0    0    0  501 -0.00000000000E+00 -0.00000000000E+00 -0.20648926314E+03  0.20654274568E+03  0.47000000000E+01 0.  1.
          6    1    1    2  502    0  0.86226370829E+02  0.12117771006E+03 -0.25481764985E+02  0.22880634779E+03  0.17200000000E+03 0. -1.
         -6    1    1    2    0  502 -0.86226370829E+02 -0.12117771006E+03  0.83414765339E+02  0.24220042840E+03  0.17200000000E+03 0. -1.
</event>
<event>
 4    1 -0.3305908E-004  0.4956811E+03  0.7818608E-02  0.1014912E+00
          5   -1    0    0  501    0  0.00000000000E+00  0.00000000000E+00  0.84840487144E+03  0.84841788989E+03  0.47000000000E+01 0. -1.
         -5   -1    0    0    0  501 -0.00000000000E+00 -0.00000000000E+00 -0.32758743580E+03  0.32762115025E+03  0.47000000000E+01 0.  1.
          6    1    1    2  502    0  0.44242815183E+03  0.14273447028E+03  0.60099955376E+02  0.49931132890E+03  0.17200000000E+03 0. -1.
         -6    1    1    2    0  502 -0.44242815183E+03 -0.14273447028E+03  0.46071748026E+03  0.67672771124E+03  0.17200000000E+03 0.  1.
</event>
<event>
 4    1 -0.3305908E-004  0.4256008E+03  0.7818608E-02  0.1035259E+00
          5   -1    0    0  501    0  0.00000000000E+00  0.00000000000E+00  0.17072093180E+03  0.17078561578E+03  0.47000000000E+01 0. -1.
         -5   -1    0    0    0  501 -0.00000000000E+00 -0.00000000000E+00 -0.16088842888E+04  0.16088911538E+04  0.47000000000E+01 0.  1.
          6    1    1    2  502    0  0.20196161951E+03 -0.33281156512E+03 -0.19969839166E+03  0.47012283636E+03  0.17200000000E+03 0. -1.
         -6    1    1    2    0  502 -0.20196161951E+03  0.33281156512E+03 -0.12384649654E+04  0.13095539332E+04  0.17200000000E+03 0.  1.
</event>
<event>
 4    1 -0.3305908E-004  0.3281330E+03  0.7818608E-02  0.1071966E+00
         -5   -1    0    0    0  501 -0.00000000000E+00  0.00000000000E+00  0.90574350270E+02  0.90696212307E+02  0.47000000000E+01 0.  1.
          5   -1    0    0  501    0  0.00000000000E+00 -0.00000000000E+00 -0.13122115059E+04  0.13122199229E+04  0.47000000000E+01 0. -1.
          6    1    1    2  502    0 -0.26090674549E+02 -0.27822035148E+03 -0.39487208357E+03  0.51341527992E+03  0.17200000000E+03 0. -1.
         -6    1    1    2    0  502  0.26090674549E+02  0.27822035148E+03 -0.82676507202E+03  0.88950085530E+03  0.17200000000E+03 0. -1.
</event>
<event>
 4    1 -0.3305908E-004  0.3215213E+03  0.7818608E-02  0.1074951E+00
          5   -1    0    0  501    0  0.00000000000E+00  0.00000000000E+00  0.16138334924E+03  0.16145177426E+03  0.47000000000E+01 0. -1.
         -5   -1    0    0    0  501 -0.00000000000E+00 -0.00000000000E+00 -0.74642904233E+03  0.74644383930E+03  0.47000000000E+01 0.  1.
          6    1    1    2  502    0  0.87847061871E+02  0.25705029129E+03 -0.12140133555E+03  0.34367752735E+03  0.17200000000E+03 0. -1.
         -6    1    1    2    0  502 -0.87847061871E+02 -0.25705029129E+03 -0.46364435754E+03  0.56421808621E+03  0.17200000000E+03 0.  1.
</event>
<event>
 4    1 -0.3305908E-004  0.1721091E+03  0.7818608E-02  0.1175666E+00
         -5   -1    0    0    0  501 -0.00000000000E+00  0.00000000000E+00  0.54454469956E+03  0.54456498218E+03  0.47000000000E+01 0.  1.
          5   -1    0    0  501    0  0.00000000000E+00 -0.00000000000E+00 -0.55191824528E+02  0.55391583248E+02  0.47000000000E+01 0. -1.
          6    1    1    2  502    0 -0.61223606967E+01 -0.25054306376E+00  0.20607078791E+03  0.26848969384E+03  0.17200000000E+03 0. -1.
         -6    1    1    2    0  502  0.61223606967E+01  0.25054306376E+00  0.28328208713E+03  0.33146687159E+03  0.17200000000E+03 0.  1.
</event>
<event>
 4    1 -0.3305908E-004  0.2352801E+03  0.7818608E-02  0.1122978E+00
          5   -1    0    0  501    0  0.00000000000E+00  0.00000000000E+00  0.78611944838E+03  0.78613349829E+03  0.47000000000E+01 0. -1.
         -5   -1    0    0    0  501 -0.00000000000E+00 -0.00000000000E+00 -0.99683266850E+02  0.99794006282E+02  0.47000000000E+01 0.  1.
          6    1    1    2  502    0  0.98207016918E+02 -0.12699643127E+03  0.58343501747E+03  0.62908912830E+03  0.17200000000E+03 0. -1.
         -6    1    1    2    0  502 -0.98207016918E+02  0.12699643127E+03  0.10300116406E+03  0.25683837627E+03  0.17200000000E+03 0.  1.
</event>
<event>
 4    1 -0.3305908E-004  0.1731454E+03  0.7818608E-02  0.1174607E+00
         -5   -1    0    0    0  501 -0.00000000000E+00  0.00000000000E+00  0.51193456527E+03  0.51195613984E+03  0.47000000000E+01 0.  1.
          5   -1    0    0  501    0  0.00000000000E+00 -0.00000000000E+00 -0.62773658137E+02  0.62949361839E+02  0.47000000000E+01 0. -1.
          6    1    1    2  502    0 -0.98785887959E+01 -0.17254755616E+02  0.29995362436E+03  0.34634013610E+03  0.17200000000E+03 0.  1.
         -6    1    1    2    0  502  0.98785887959E+01  0.17254755616E+02  0.14920728277E+03  0.22856536557E+03  0.17200000000E+03 0. -1.
</event>
<event>
 4    1 -0.3305908E-004  0.2072764E+03  0.7818608E-02  0.1143741E+00
          5   -1    0    0  501    0  0.00000000000E+00  0.00000000000E+00  0.58553741810E+02  0.58742069081E+02  0.47000000000E+01 0. -1.
         -5   -1    0    0    0  501 -0.00000000000E+00 -0.00000000000E+00 -0.79019431365E+03  0.79020829110E+03  0.47000000000E+01 0.  1.
          6    1    1    2  502    0 -0.11485947326E+03  0.13667218689E+02 -0.25100955559E+03  0.32552924364E+03  0.17200000000E+03 0. -1.
         -6    1    1    2    0  502  0.11485947326E+03 -0.13667218689E+02 -0.48063101625E+03  0.52342111654E+03  0.17200000000E+03 0.  1.
</event>
<event>
 4    1 -0.3305908E-004  0.2914570E+03  0.7818608E-02  0.1089591E+00
         -5   -1    0    0    0  501 -0.00000000000E+00  0.00000000000E+00  0.41065849476E+03  0.41068538971E+03  0.47000000000E+01 0.  1.
          5   -1    0    0  501    0  0.00000000000E+00 -0.00000000000E+00 -0.20776390255E+03  0.20781705705E+03  0.47000000000E+01 0. -1.
          6    1    1    2  502    0 -0.64863161315E+02 -0.22617682101E+03  0.80339839248E+02  0.30232709741E+03  0.17200000000E+03 0. -1.
         -6    1    1    2    0  502  0.64863161315E+02  0.22617682101E+03  0.12255475297E+03  0.31617534935E+03  0.17200000000E+03 0.  1.
</event>
<event>
 4    1 -0.3305908E-004  0.3426495E+03  0.7818608E-02  0.1065673E+00
          5   -1    0    0  501    0  0.00000000000E+00  0.00000000000E+00  0.74699858899E+03  0.74701337469E+03  0.47000000000E+01 0. -1.
         -5   -1    0    0    0  501 -0.00000000000E+00 -0.00000000000E+00 -0.16033076835E+03  0.16039964239E+03  0.47000000000E+01 0.  1.
          6    1    1    2  502    0  0.95928622929E+02 -0.28039685545E+03  0.22916986021E+03  0.41222266079E+03  0.17200000000E+03 0.  1.
         -6    1    1    2    0  502 -0.95928622929E+02  0.28039685545E+03  0.35749796044E+03  0.49519035629E+03  0.17200000000E+03 0.  1.
</event>
<event>
 4    1 -0.3305908E-004  0.2129735E+03  0.7818608E-02  0.1139233E+00
          5   -1    0    0  501    0  0.00000000000E+00  0.00000000000E+00  0.10453997737E+04  0.10454103390E+04  0.47000000000E+01 0. -1.
         -5   -1    0    0    0  501 -0.00000000000E+00 -0.00000000000E+00 -0.14981299495E+03  0.14988670206E+03  0.47000000000E+01 0.  1.
          6    1    1    2  502    0 -0.13146474356E+02  0.12490343671E+03  0.95155096607E+03  0.97509329775E+03  0.17200000000E+03 0. -1.
         -6    1    1    2    0  502  0.13146474356E+02 -0.12490343671E+03 -0.55964187334E+02  0.22020374328E+03  0.17200000000E+03 0.  1.
</event>
<event>
 4    1 -0.3305908E-004  0.1754371E+03  0.7818608E-02  0.1172294E+00
          5   -1    0    0  501    0  0.00000000000E+00  0.00000000000E+00  0.10969846183E+03  0.10979910076E+03  0.47000000000E+01 0. -1.
         -5   -1    0    0    0  501 -0.00000000000E+00 -0.00000000000E+00 -0.31017872769E+03  0.31021433415E+03  0.47000000000E+01 0.  1.
          6    1    1    2  502    0 -0.33257074772E+02  0.93881705183E+01 -0.35099210457E+02  0.17891373716E+03  0.17200000000E+03 0. -1.
         -6    1    1    2    0  502  0.33257074772E+02 -0.93881705183E+01 -0.16538105541E+03  0.24109969775E+03  0.17200000000E+03 0.  1.
</event>
<event>
 4    1 -0.3305908E-004  0.3888048E+03  0.7818608E-02  0.1047727E+00
         -5   -1    0    0    0  501 -0.00000000000E+00  0.00000000000E+00  0.14423046720E+04  0.14423123299E+04  0.47000000000E+01 0.  1.
          5   -1    0    0  501    0  0.00000000000E+00 -0.00000000000E+00 -0.14695312323E+03  0.14702826404E+03  0.47000000000E+01 0. -1.
          6    1    1    2  502    0  0.15603252222E+03 -0.31183178329E+03  0.22195585144E+03  0.44769812268E+03  0.17200000000E+03 0. -1.
         -6    1    1    2    0  502 -0.15603252222E+03  0.31183178329E+03  0.10733956973E+04  0.11416424712E+04  0.17200000000E+03 0.  1.
</event>
<event>
 4    1 -0.3305908E-004  0.2787631E+03  0.7818608E-02  0.1096366E+00
         -5   -1    0    0    0  501 -0.00000000000E+00  0.00000000000E+00  0.33845824922E+03  0.33849088092E+03  0.47000000000E+01 0.  1.
          5   -1    0    0  501    0  0.00000000000E+00 -0.00000000000E+00 -0.34276508725E+03  0.34279730897E+03  0.47000000000E+01 0. -1.
          6    1    1    2  502    0 -0.13777038673E+03  0.17071673296E+03 -0.19792474343E+03  0.34188168485E+03  0.17200000000E+03 0. -1.
         -6    1    1    2    0  502  0.13777038673E+03 -0.17071673296E+03  0.19361790539E+03  0.33940650504E+03  0.17200000000E+03 0. -1.
</event>
<event>
 4    1 -0.3305908E-004  0.1730896E+03  0.7818608E-02  0.1174664E+00
          5   -1    0    0  501    0  0.00000000000E+00  0.00000000000E+00  0.46986768833E+02  0.47221249934E+02  0.47000000000E+01 0. -1.
         -5   -1    0    0    0  501 -0.00000000000E+00 -0.00000000000E+00 -0.13252959093E+04  0.13253042432E+04  0.47000000000E+01 0.  1.
          6    1    1    2  502    0  0.77192310255E+01 -0.17788296317E+02 -0.14420553641E+03  0.22528925128E+03  0.17200000000E+03 0. -1.
         -6    1    1    2    0  502 -0.77192310255E+01  0.17788296317E+02 -0.11341036040E+04  0.11472362419E+04  0.17200000000E+03 0.  1.
</event>
<event>
 4    1 -0.3305908E-004  0.2338355E+03  0.7818608E-02  0.1123969E+00
          5   -1    0    0  501    0  0.00000000000E+00  0.00000000000E+00  0.63430822707E+02  0.63604711062E+02  0.47000000000E+01 0. -1.
         -5   -1    0    0    0  501 -0.00000000000E+00 -0.00000000000E+00 -0.87053399717E+03  0.87054668469E+03  0.47000000000E+01 0.  1.
          6    1    1    2  502    0  0.61591267502E+02  0.14595052503E+03 -0.45327498404E+03  0.51003651942E+03  0.17200000000E+03 0. -1.
         -6    1    1    2    0  502 -0.61591267502E+02 -0.14595052503E+03 -0.35382819043E+03  0.42411487634E+03  0.17200000000E+03 0.  1.
</event>
<event>
 4    1 -0.3305908E-004  0.1789518E+03  0.7818608E-02  0.1168821E+00
         -5   -1    0    0    0  501 -0.00000000000E+00  0.00000000000E+00  0.22457909685E+03  0.22462827236E+03  0.47000000000E+01 0.  1.
          5   -1    0    0  501    0  0.00000000000E+00 -0.00000000000E+00 -0.16061362479E+03  0.16068237759E+03  0.47000000000E+01 0. -1.
          6    1    1    2  502    0  0.33755979760E+02  0.36059633089E+02 -0.32706864554E+02  0.18191619581E+03  0.17200000000E+03 0. -1.
         -6    1    1    2    0  502 -0.33755979760E+02 -0.36059633089E+02  0.96672336616E+02  0.20339445414E+03  0.17200000000E+03 0.  1.
</event>
<event>
 4    1 -0.3305908E-004  0.2680120E+03  0.7818608E-02  0.1102423E+00
          5   -1    0    0  501    0  0.00000000000E+00  0.00000000000E+00  0.28604379275E+03  0.28608240311E+03  0.47000000000E+01 0. -1.
         -5   -1    0    0    0  501 -0.00000000000E+00 -0.00000000000E+00 -0.27867848879E+03  0.27871811946E+03  0.47000000000E+01 0.  1.
          6    1    1    2  502    0  0.83290387638E+02  0.18790728908E+03  0.92605384511E+02  0.28355986176E+03  0.17200000000E+03 0. -1.
         -6    1    1    2    0  502 -0.83290387638E+02 -0.18790728908E+03 -0.85240080549E+02  0.28124066081E+03  0.17200000000E+03 0.  1.
</event>
<event>
 4    1 -0.3305908E-004  0.1958010E+03  0.7818608E-02  0.1153331E+00
         -5   -1    0    0    0  501 -0.00000000000E+00  0.00000000000E+00  0.41866379286E+03  0.41869017358E+03  0.47000000000E+01 0.  1.
          5   -1    0    0  501    0  0.00000000000E+00 -0.00000000000E+00 -0.11821266191E+03  0.11830605832E+03  0.47000000000E+01 0. -1.
          6    1    1    2  502    0 -0.25123674626E+02  0.90126652796E+02  0.27782927542E+03  0.33989280494E+03  0.17200000000E+03 0.  1.
         -6    1    1    2    0  502  0.25123674626E+02 -0.90126652796E+02  0.22621855523E+02  0.19710342696E+03  0.17200000000E+03 0. -1.
</event>
<event>
 4    1 -0.3305908E-004  0.1860554E+03  0.7818608E-02  0.1162068E+00
          5   -1    0    0  501    0  0.00000000000E+00  0.00000000000E+00  0.40721093385E+02  0.40991431379E+02  0.47000000000E+01 0. -1.
         -5   -1    0    0    0  501 -0.00000000000E+00 -0.00000000000E+00 -0.12426218317E+04  0.12426307201E+04  0.47000000000E+01 0.  1.
          6    1    1    2  502    0  0.59172384791E+02  0.39131179787E+02 -0.23885083962E+03  0.30276450244E+03  0.17200000000E+03 0. -1.
         -6    1    1    2    0  502 -0.59172384791E+02 -0.39131179787E+02 -0.96304989867E+03  0.98085764904E+03  0.17200000000E+03 0.  1.
</event>
<event>
 4    1 -0.3305908E-004  0.1750864E+03  0.7818608E-02  0.1172645E+00
          5   -1    0    0  501    0  0.00000000000E+00  0.00000000000E+00  0.13140505950E+03  0.13148908572E+03  0.47000000000E+01 0. -1.
         -5   -1    0    0    0  501 -0.00000000000E+00 -0.00000000000E+00 -0.23404861898E+03  0.23409580527E+03  0.47000000000E+01 0.  1.
          6    1    1    2  502    0  0.32712440107E+02 -0.10707210943E+01 -0.62919445757E+02  0.18604866792E+03  0.17200000000E+03 0. -1.
         -6    1    1    2    0  502 -0.32712440107E+02  0.10707210943E+01 -0.39724113717E+02  0.17953622306E+03  0.17200000000E+03 0. -1.
</event>
<event>
 4    1 -0.3305908E-004  0.2537111E+03  0.7818608E-02  0.1110982E+00
          5   -1    0    0  501    0  0.00000000000E+00  0.00000000000E+00  0.23741863003E+03  0.23746514668E+03  0.47000000000E+01 0. -1.
         -5   -1    0    0    0  501 -0.00000000000E+00 -0.00000000000E+00 -0.68808513647E+03  0.68810118807E+03  0.47000000000E+01 0.  1.
          6    1    1    2  502    0  0.18646401468E+03 -0.40599374741E+01  0.13493877076E+03  0.28736350450E+03  0.17200000000E+03 0. -1.
         -6    1    1    2    0  502 -0.18646401468E+03  0.40599374741E+01 -0.58560527719E+03  0.63820283025E+03  0.17200000000E+03 0.  1.
</event>
<event>
 4    1 -0.3305908E-004  0.2486908E+03  0.7818608E-02  0.1114135E+00
         -5   -1    0    0    0  501 -0.00000000000E+00  0.00000000000E+00  0.13447935559E+03  0.13456146209E+03  0.47000000000E+01 0.  1.
          5   -1    0    0  501    0  0.00000000000E+00 -0.00000000000E+00 -0.49119782899E+03  0.49122031433E+03  0.47000000000E+01 0. -1.
          6    1    1    2  502    0  0.13249701643E+03  0.12127517100E+03 -0.25762622578E+03  0.35807596774E+03  0.17200000000E+03 0. -1.
         -6    1    1    2    0  502 -0.13249701643E+03 -0.12127517100E+03 -0.99092247630E+02  0.26770580868E+03  0.17200000000E+03 0. -1.
</event>
<event>
 4    1 -0.3305908E-004  0.1724582E+03  0.7818608E-02  0.1175308E+00
          5   -1    0    0  501    0  0.00000000000E+00  0.00000000000E+00  0.96524301976E+02  0.96638661373E+02  0.47000000000E+01 0. -1.
         -5   -1    0    0    0  501 -0.00000000000E+00 -0.00000000000E+00 -0.41038598380E+03  0.41041289660E+03  0.47000000000E+01 0.  1.
          6    1    1    2  502    0 -0.87053582852E+01  0.90582173977E+01 -0.30205113044E+02  0.17508336134E+03  0.17200000000E+03 0. -1.
         -6    1    1    2    0  502  0.87053582852E+01 -0.90582173977E+01 -0.28365656878E+03  0.33196819663E+03  0.17200000000E+03 0.  1.
</event>
<event>
 4    1 -0.3305908E-004  0.2689646E+03  0.7818608E-02  0.1101874E+00
          5   -1    0    0  501    0  0.00000000000E+00  0.00000000000E+00  0.22892166269E+03  0.22896990556E+03  0.47000000000E+01 0. -1.
         -5   -1    0    0    0  501 -0.00000000000E+00 -0.00000000000E+00 -0.33813548360E+03  0.33816814645E+03  0.47000000000E+01 0.  1.
          6    1    1    2  502    0  0.16482527236E+03 -0.12486229636E+03  0.18080375136E+02  0.26957162949E+03  0.17200000000E+03 0. -1.
         -6    1    1    2    0  502 -0.16482527236E+03  0.12486229636E+03 -0.12729419604E+03  0.29756642251E+03  0.17200000000E+03 0.  1.
</event>
<event>
 4    1 -0.3305908E-004  0.3123972E+03  0.7818608E-02  0.1079203E+00
         -5   -1    0    0    0  501 -0.00000000000E+00  0.00000000000E+00  0.12242839091E+04  0.12242929307E+04  0.47000000000E+01 0.  1.
          5   -1    0    0  501    0  0.00000000000E+00 -0.00000000000E+00 -0.17520832663E+03  0.17527135454E+03  0.47000000000E+01 0. -1.
          6    1    1    2  502    0  0.20155115311E+02 -0.26000339832E+03  0.78622274198E+01  0.31249609666E+03  0.17200000000E+03 0. -1.
         -6    1    1    2    0  502 -0.20155115311E+02  0.26000339832E+03  0.10412133550E+04  0.10870681885E+04  0.17200000000E+03 0.  1.
</event>
<event>
 4    1 -0.3305908E-004  0.1762704E+03  0.7818608E-02  0.1171462E+00
          5   -1    0    0  501    0  0.00000000000E+00  0.00000000000E+00  0.24722762805E+03  0.24727229944E+03  0.47000000000E+01 0. -1.
         -5   -1    0    0    0  501 -0.00000000000E+00 -0.00000000000E+00 -0.15796286891E+03  0.15803277494E+03  0.47000000000E+01 0.  1.
          6    1    1    2  502    0 -0.14111568744E+01  0.38539049405E+02  0.13635383186E+03  0.22285335348E+03  0.17200000000E+03 0. -1.
         -6    1    1    2    0  502  0.14111568744E+01 -0.38539049405E+02 -0.47089072722E+02  0.18245172091E+03  0.17200000000E+03 0.  1.
</event>
<event>
 4    1 -0.3305908E-004  0.1771414E+03  0.7818608E-02  0.1170599E+00
         -5   -1    0    0    0  501 -0.00000000000E+00  0.00000000000E+00  0.27480827516E+02  0.27879847220E+02  0.47000000000E+01 0.  1.
          5   -1    0    0  501    0  0.00000000000E+00 -0.00000000000E+00 -0.12112235529E+04  0.12112326717E+04  0.47000000000E+01 0. -1.
          6    1    1    2  502    0 -0.42100342786E+02  0.47568788101E+01 -0.74907231665E+03  0.76973268239E+03  0.17200000000E+03 0. -1.
         -6    1    1    2    0  502  0.42100342786E+02 -0.47568788101E+01 -0.43467040873E+03  0.46937983658E+03  0.17200000000E+03 0.  1.
</event>
<event>
 4    1 -0.3305908E-004  0.1819577E+03  0.7818608E-02  0.1165922E+00
          5   -1    0    0  501    0  0.00000000000E+00  0.00000000000E+00  0.33844142380E+03  0.33847405712E+03  0.47000000000E+01 0. -1.
         -5   -1    0    0    0  501 -0.00000000000E+00 -0.00000000000E+00 -0.10355834160E+03  0.10366494159E+03  0.47000000000E+01 0.  1.
          6    1    1    2  502    0 -0.37290265019E+02  0.46195765039E+02  0.16983808843E+03  0.24890477869E+03  0.17200000000E+03 0. -1.
         -6    1    1    2    0  502  0.37290265019E+02 -0.46195765039E+02  0.65044993774E+02  0.19323422002E+03  0.17200000000E+03 0.  1.
</event>
<event>
 4    1 -0.3305908E-004  0.2015750E+03  0.7818608E-02  0.1148417E+00
         -5   -1    0    0    0  501 -0.00000000000E+00  0.00000000000E+00  0.15129896800E+03  0.15137195156E+03  0.47000000000E+01 0.  1.
          5   -1    0    0  501    0  0.00000000000E+00 -0.00000000000E+00 -0.32175446823E+03  0.32178879382E+03  0.47000000000E+01 0. -1.
          6    1    1    2  502    0 -0.42598211034E+01 -0.10502533322E+03 -0.18155088174E+03  0.27128064684E+03  0.17200000000E+03 0. -1.
         -6    1    1    2    0  502  0.42598211034E+01  0.10502533322E+03  0.11095381508E+02  0.20188009854E+03  0.17200000000E+03 0.  1.
</event>
<event>
 4    1 -0.3305908E-004  0.2100573E+03  0.7818608E-02  0.1141521E+00
          5   -1    0    0  501    0  0.00000000000E+00  0.00000000000E+00  0.46077970921E+02  0.46317053060E+02  0.47000000000E+01 0. -1.
         -5   -1    0    0    0  501 -0.00000000000E+00 -0.00000000000E+00 -0.10688036738E+04  0.10688140077E+04  0.47000000000E+01 0.  1.
          6    1    1    2  502    0  0.91742865504E+02  0.78251502861E+02 -0.69338207291E+03  0.72450172540E+03  0.17200000000E+03 0. -1.
         -6    1    1    2    0  502 -0.91742865504E+02 -0.78251502861E+02 -0.32934362996E+03  0.39062933539E+03  0.17200000000E+03 0. -1.
</event>
<event>
 4    1 -0.3305908E-004  0.1724905E+03  0.7818608E-02  0.1175275E+00
          5   -1    0    0  501    0  0.00000000000E+00  0.00000000000E+00  0.47150005466E+03  0.47152347931E+03  0.47000000000E+01 0. -1.
         -5   -1    0    0    0  501 -0.00000000000E+00 -0.00000000000E+00 -0.69172190017E+02  0.69331680145E+02  0.47000000000E+01 0.  1.
          6    1    1    2  502    0  0.49554849668E+01  0.12016740853E+02  0.28189682937E+03  0.33048264902E+03  0.17200000000E+03 0. -1.
         -6    1    1    2    0  502 -0.49554849668E+01 -0.12016740853E+02  0.12043103527E+03  0.21037251044E+03  0.17200000000E+03 0.  1.
</event>
<event>
 4    1 -0.3305908E-004  0.1873619E+03  0.7818608E-02  0.1160862E+00
          5   -1    0    0  501    0  0.00000000000E+00  0.00000000000E+00  0.43515608033E+02  0.43768689065E+02  0.47000000000E+01 0. -1.
         -5   -1    0    0    0  501 -0.00000000000E+00 -0.00000000000E+00 -0.87806139857E+03  0.87807397732E+03  0.47000000000E+01 0.  1.
          6    1    1    2  502    0  0.44594187994E+02  0.59429358484E+02 -0.28353086437E+03  0.33984443692E+03  0.17200000000E+03 0. -1.
         -6    1    1    2    0  502 -0.44594187994E+02 -0.59429358484E+02 -0.55101492616E+03  0.58199822947E+03  0.17200000000E+03 0.  1.
</event>
<event>
 4    1 -0.3305908E-004  0.3904331E+03  0.7818608E-02  0.1047144E+00
          5   -1    0    0  501    0  0.00000000000E+00  0.00000000000E+00  0.20172679389E+04  0.20172734141E+04  0.47000000000E+01 0. -1.
         -5   -1    0    0    0  501 -0.00000000000E+00 -0.00000000000E+00 -0.79218099258E+02  0.79357401986E+02  0.47000000000E+01 0.  1.
          6    1    1    2  502    0  0.31773325696E+03  0.14798500990E+03  0.74175575886E+03  0.83823599990E+03  0.17200000000E+03 0. -1.
         -6    1    1    2    0  502 -0.31773325696E+03 -0.14798500990E+03  0.11962940808E+04  0.12583948162E+04  0.17200000000E+03 0.  1.
</event>
<event>
 4    1 -0.3305908E-004  0.1981744E+03  0.7818608E-02  0.1151288E+00
          5   -1    0    0  501    0  0.00000000000E+00  0.00000000000E+00  0.86841308470E+02  0.86968401485E+02  0.47000000000E+01 0. -1.
         -5   -1    0    0    0  501 -0.00000000000E+00 -0.00000000000E+00 -0.50440003697E+03  0.50442193379E+03  0.47000000000E+01 0.  1.
          6    1    1    2  502    0 -0.56979330977E+02 -0.80264920926E+02 -0.11327803309E+03  0.22826522834E+03  0.17200000000E+03 0.  1.
         -6    1    1    2    0  502  0.56979330977E+02  0.80264920926E+02 -0.30428069541E+03  0.36312510693E+03  0.17200000000E+03 0.  1.
</event>
<event>
 4    1 -0.3305908E-004  0.2304726E+03  0.7818608E-02  0.1126308E+00
          5   -1    0    0  501    0  0.00000000000E+00  0.00000000000E+00  0.63840480816E+02  0.64013256367E+02  0.47000000000E+01 0. -1.
         -5   -1    0    0    0  501 -0.00000000000E+00 -0.00000000000E+00 -0.11587839680E+04  0.11587934995E+04  0.47000000000E+01 0.  1.
          6    1    1    2  502    0 -0.14662789783E+03 -0.45098465692E+02 -0.22218757618E+03  0.32013267724E+03  0.17200000000E+03 0. -1.
         -6    1    1    2    0  502  0.14662789783E+03  0.45098465692E+02 -0.87275591098E+03  0.90267407860E+03  0.17200000000E+03 0.  1.
</event>
<event>
 4    1 -0.3305908E-004  0.2169972E+03  0.7818608E-02  0.1136142E+00
          5   -1    0    0  501    0  0.00000000000E+00  0.00000000000E+00  0.78320711964E+03  0.78322122179E+03  0.47000000000E+01 0. -1.
         -5   -1    0    0    0  501 -0.00000000000E+00 -0.00000000000E+00 -0.12193752151E+03  0.12202806707E+03  0.47000000000E+01 0.  1.
          6    1    1    2  502    0 -0.23694238325E+02  0.13016277647E+03  0.65298199983E+03  0.68809393066E+03  0.17200000000E+03 0. -1.
         -6    1    1    2    0  502  0.23694238325E+02 -0.13016277647E+03  0.82875982956E+01  0.21715535820E+03  0.17200000000E+03 0.  1.
</event>
<event>
 4    1 -0.3305908E-004  0.2964715E+03  0.7818608E-02  0.1087018E+00
         -5   -1    0    0    0  501 -0.00000000000E+00  0.00000000000E+00  0.11767940838E+03  0.11777322768E+03  0.47000000000E+01 0.  1.
          5   -1    0    0  501    0  0.00000000000E+00 -0.00000000000E+00 -0.75418141469E+03  0.75419605957E+03  0.47000000000E+01 0. -1.
          6    1    1    2  502    0 -0.13262712153E+03  0.20179543320E+03 -0.36223001365E+03  0.46808752709E+03  0.17200000000E+03 0. -1.
         -6    1    1    2    0  502  0.13262712153E+03 -0.20179543320E+03 -0.27427199265E+03  0.40388176015E+03  0.17200000000E+03 0.  1.
</event>
<event>
 4    1 -0.3305908E-004  0.2178877E+03  0.7818608E-02  0.1135468E+00
          5   -1    0    0  501    0  0.00000000000E+00  0.00000000000E+00  0.78175587563E+02  0.78316744639E+02  0.47000000000E+01 0. -1.
         -5   -1    0    0    0  501 -0.00000000000E+00 -0.00000000000E+00 -0.64372483845E+03  0.64374199617E+03  0.47000000000E+01 0.  1.
          6    1    1    2  502    0  0.38618589295E+02  0.12806116141E+03 -0.19607188352E+03  0.29311983899E+03  0.17200000000E+03 0. -1.
         -6    1    1    2    0  502 -0.38618589295E+02 -0.12806116141E+03 -0.36947736736E+03  0.42893890182E+03  0.17200000000E+03 0.  1.
</event>
<event>
 4    1 -0.3305908E-004  0.2160105E+03  0.7818608E-02  0.1136893E+00
         -5   -1    0    0    0  501 -0.00000000000E+00  0.00000000000E+00  0.49255075079E+03  0.49257317437E+03  0.47000000000E+01 0.  1.
          5   -1    0    0  501    0  0.00000000000E+00 -0.00000000000E+00 -0.13121150482E+03  0.13129565491E+03  0.47000000000E+01 0. -1.
          6    1    1    2  502    0  0.97354691486E+02 -0.87169887750E+02  0.16085100145E+02  0.21660853107E+03  0.17200000000E+03 0. -1.
         -6    1    1    2    0  502 -0.97354691486E+02  0.87169887750E+02  0.34525414582E+03  0.40726029820E+03  0.17200000000E+03 0.  1.
</event>
<event>
 4    1 -0.3305908E-004  0.1983415E+03  0.7818608E-02  0.1151146E+00
          5   -1    0    0  501    0  0.00000000000E+00  0.00000000000E+00  0.10543521582E+03  0.10553992010E+03  0.47000000000E+01 0. -1.
         -5   -1    0    0    0  501 -0.00000000000E+00 -0.00000000000E+00 -0.43523705969E+03  0.43526243593E+03  0.47000000000E+01 0.  1.
          6    1    1    2  502    0  0.98003860573E+02 -0.12270934156E+02 -0.62508151482E+02  0.20795817251E+03  0.17200000000E+03 0. -1.
         -6    1    1    2    0  502 -0.98003860573E+02  0.12270934156E+02 -0.26729369239E+03  0.33284418352E+03  0.17200000000E+03 0. -1.
</event>
<event>
 4    1 -0.3305908E-004  0.2597872E+03  0.7818608E-02  0.1107271E+00
          5   -1    0    0  501    0  0.00000000000E+00  0.00000000000E+00  0.39346799518E+03  0.39349606508E+03  0.47000000000E+01 0. -1.
         -5   -1    0    0    0  501 -0.00000000000E+00 -0.00000000000E+00 -0.18955221802E+03  0.18961047797E+03  0.47000000000E+01 0.  1.
          6    1    1    2  502    0  0.17677270967E+03  0.81589067622E+02  0.11900211193E+02  0.26005957368E+03  0.17200000000E+03 0.  1.
         -6    1    1    2    0  502 -0.17677270967E+03 -0.81589067622E+02  0.19201556598E+03  0.32304696936E+03  0.17200000000E+03 0. -1.
</event>
<event>
 4    1 -0.3305908E-004  0.3003766E+03  0.7818608E-02  0.1085053E+00
          5   -1    0    0  501    0  0.00000000000E+00  0.00000000000E+00  0.83890685736E+03  0.83892002320E+03  0.47000000000E+01 0. -1.
         -5   -1    0    0    0  501 -0.00000000000E+00 -0.00000000000E+00 -0.13979633759E+03  0.13987532307E+03  0.47000000000E+01 0.  1.
          6    1    1    2  502    0 -0.10248473784E+03 -0.22391733233E+03  0.11436512433E+03  0.32141169063E+03  0.17200000000E+03 0. -1.
         -6    1    1    2    0  502  0.10248473784E+03  0.22391733233E+03  0.58474539544E+03  0.65738365564E+03  0.17200000000E+03 0.  1.
</event>
<event>
 4    1 -0.3305908E-004  0.2272275E+03  0.7818608E-02  0.1128607E+00
         -5   -1    0    0    0  501 -0.00000000000E+00  0.00000000000E+00  0.30604658017E+03  0.30608266732E+03  0.47000000000E+01 0.  1.
          5   -1    0    0  501    0  0.00000000000E+00 -0.00000000000E+00 -0.17325531719E+03  0.17331905531E+03  0.47000000000E+01 0. -1.
          6    1    1    2  502    0 -0.43707598669E+00  0.14848616718E+03  0.10555485101E+03  0.25054771891E+03  0.17200000000E+03 0. -1.
         -6    1    1    2    0  502  0.43707598669E+00 -0.14848616718E+03  0.27236411975E+02  0.22885400372E+03  0.17200000000E+03 0. -1.
</event>
<event>
 4    1 -0.3305908E-004  0.1861002E+03  0.7818608E-02  0.1162026E+00
          5   -1    0    0  501    0  0.00000000000E+00  0.00000000000E+00  0.21126283478E+03  0.21131510916E+03  0.47000000000E+01 0. -1.
         -5   -1    0    0    0  501 -0.00000000000E+00 -0.00000000000E+00 -0.20033029036E+03  0.20038541673E+03  0.47000000000E+01 0.  1.
          6    1    1    2  502    0  0.92138766829E+01  0.70458413138E+02  0.93310500597E+02  0.20818293164E+03  0.17200000000E+03 0. -1.
         -6    1    1    2    0  502 -0.92138766829E+01 -0.70458413138E+02 -0.82377956178E+02  0.20351759425E+03  0.17200000000E+03 0. -1.
</event>
<event>
 4    1 -0.3305908E-004  0.2742608E+03  0.7818608E-02  0.1098865E+00
          5   -1    0    0  501    0  0.00000000000E+00  0.00000000000E+00  0.90704961132E+03  0.90706178808E+03  0.47000000000E+01 0. -1.
         -5   -1    0    0    0  501 -0.00000000000E+00 -0.00000000000E+00 -0.83468725082E+02  0.83600945370E+02  0.47000000000E+01 0.  1.
          6    1    1    2  502    0  0.20221418402E+03 -0.68879874664E+02  0.36910469513E+03  0.45984485353E+03  0.17200000000E+03 0. -1.
         -6    1    1    2    0  502 -0.20221418402E+03  0.68879874664E+02  0.45447619111E+03  0.53081787992E+03  0.17200000000E+03 0.  1.
</event>
<event>
 4    1 -0.3305908E-004  0.2768681E+03  0.7818608E-02  0.1097412E+00
         -5   -1    0    0    0  501 -0.00000000000E+00  0.00000000000E+00  0.45236107007E+03  0.45238548574E+03  0.47000000000E+01 0.  1.
          5   -1    0    0  501    0  0.00000000000E+00 -0.00000000000E+00 -0.21187080310E+03  0.21192292752E+03  0.47000000000E+01 0. -1.
          6    1    1    2  502    0  0.14447778279E+03  0.16185831162E+03 -0.28446168800E+02  0.27832557784E+03  0.17200000000E+03 0. -1.
         -6    1    1    2    0  502 -0.14447778279E+03 -0.16185831162E+03  0.26893643576E+03  0.38598283542E+03  0.17200000000E+03 0.  1.
</event>
<event>
 4    1 -0.3305908E-004  0.2135523E+03  0.7818608E-02  0.1138783E+00
          5   -1    0    0  501    0  0.00000000000E+00  0.00000000000E+00  0.40045656110E+03  0.40048414117E+03  0.47000000000E+01 0. -1.
         -5   -1    0    0    0  501 -0.00000000000E+00 -0.00000000000E+00 -0.17365440639E+03  0.17371799808E+03  0.47000000000E+01 0.  1.
          6    1    1    2  502    0 -0.54598668987E+02 -0.11419099413E+03  0.28190098049E+03  0.35365627465E+03  0.17200000000E+03 0. -1.
         -6    1    1    2    0  502  0.54598668987E+02  0.11419099413E+03 -0.55098825775E+02  0.22054586461E+03  0.17200000000E+03 0.  1.
</event>
<event>
 4    1 -0.3305908E-004  0.1769285E+03  0.7818608E-02  0.1170809E+00
         -5   -1    0    0    0  501 -0.00000000000E+00  0.00000000000E+00  0.43543763058E+02  0.43796681396E+02  0.47000000000E+01 0.  1.
          5   -1    0    0  501    0  0.00000000000E+00 -0.00000000000E+00 -0.71657325132E+03  0.71658866480E+03  0.47000000000E+01 0. -1.
          6    1    1    2  502    0  0.12996572073E+02 -0.39379796144E+02 -0.33820185060E+03  0.38168595858E+03  0.17200000000E+03 0. -1.
         -6    1    1    2    0  502 -0.12996572073E+02  0.39379796144E+02 -0.33482763767E+03  0.37869938761E+03  0.17200000000E+03 0. -1.
</event>
<event>
 4    1 -0.3305908E-004  0.2006049E+03  0.7818608E-02  0.1149230E+00
          5   -1    0    0  501    0  0.00000000000E+00  0.00000000000E+00  0.22915100422E+03  0.22919919881E+03  0.47000000000E+01 0. -1.
         -5   -1    0    0    0  501 -0.00000000000E+00 -0.00000000000E+00 -0.19623275323E+03  0.19628903036E+03  0.47000000000E+01 0.  1.
          6    1    1    2  502    0 -0.10269468276E+03  0.10588148103E+02  0.85563625690E+02  0.21809044176E+03  0.17200000000E+03 0. -1.
         -6    1    1    2    0  502  0.10269468276E+03 -0.10588148103E+02 -0.52645374694E+02  0.20739778741E+03  0.17200000000E+03 0.  1.
</event>
<event>
 4    1 -0.3305908E-004  0.1781451E+03  0.7818608E-02  0.1169610E+00
         -5   -1    0    0    0  501 -0.00000000000E+00  0.00000000000E+00  0.97380096617E+03  0.97381230826E+03  0.47000000000E+01 0.  1.
          5   -1    0    0  501    0  0.00000000000E+00 -0.00000000000E+00 -0.43880847007E+02  0.44131833568E+02  0.47000000000E+01 0. -1.
          6    1    1    2  502    0  0.27696610939E+02  0.37210095103E+02  0.20561831406E+03  0.27205621572E+03  0.17200000000E+03 0. -1.
         -6    1    1    2    0  502 -0.27696610939E+02 -0.37210095103E+02  0.72430180510E+03  0.74588792611E+03  0.17200000000E+03 0.  1.
</event>
<event>
 4    1 -0.3305908E-004  0.3960160E+03  0.7818608E-02  0.1045168E+00
         -5   -1    0    0    0  501 -0.00000000000E+00  0.00000000000E+00  0.38436589169E+03  0.38439462626E+03  0.47000000000E+01 0.  1.
          5   -1    0    0  501    0  0.00000000000E+00 -0.00000000000E+00 -0.48823125106E+03  0.48825387301E+03  0.47000000000E+01 0. -1.
          6    1    1    2  502    0  0.35539364924E+03  0.30660111980E+02 -0.22884090897E+03  0.45738042154E+03  0.17200000000E+03 0. -1.
         -6    1    1    2    0  502 -0.35539364924E+03 -0.30660111980E+02  0.12497554961E+03  0.41526807773E+03  0.17200000000E+03 0.  1.
</event>
<event>
 4    1 -0.3305908E-004  0.2091133E+03  0.7818608E-02  0.1142270E+00
         -5   -1    0    0    0  501 -0.00000000000E+00  0.00000000000E+00  0.59406754876E+02  0.59592386467E+02  0.47000000000E+01 0.  1.
          5   -1    0    0  501    0  0.00000000000E+00 -0.00000000000E+00 -0.86667472919E+03  0.86668747321E+03  0.47000000000E+01 0. -1.
          6    1    1    2  502    0  0.11285105039E+03 -0.37536606325E+02 -0.58431379248E+03  0.62060532101E+03  0.17200000000E+03 0. -1.
         -6    1    1    2    0  502 -0.11285105039E+03  0.37536606325E+02 -0.22295418183E+03  0.30567453866E+03  0.17200000000E+03 0.  1.
</event>
<event>
 4    1 -0.3305908E-004  0.1794966E+03  0.7818608E-02  0.1168291E+00
         -5   -1    0    0    0  501 -0.00000000000E+00  0.00000000000E+00  0.94668647408E+02  0.94785245699E+02  0.47000000000E+01 0.  1.
          5   -1    0    0  501    0  0.00000000000E+00 -0.00000000000E+00 -0.34181880592E+03  0.34185111684E+03  0.47000000000E+01 0. -1.
          6    1    1    2  502    0  0.50778512671E+02  0.75213225477E+01 -0.13952999112E+03  0.22734917212E+03  0.17200000000E+03 0. -1.
         -6    1    1    2    0  502 -0.50778512671E+02 -0.75213225477E+01 -0.10762016740E+03  0.20928719042E+03  0.17200000000E+03 0.  1.
</event>
<event>
 4    1 -0.3305908E-004  0.2862046E+03  0.7818608E-02  0.1092348E+00
         -5   -1    0    0    0  501 -0.00000000000E+00  0.00000000000E+00  0.53991557309E+03  0.53993602960E+03  0.47000000000E+01 0.  1.
          5   -1    0    0  501    0  0.00000000000E+00 -0.00000000000E+00 -0.16294114707E+03  0.16300891818E+03  0.47000000000E+01 0. -1.
          6    1    1    2  502    0 -0.20381289727E+03  0.10387184345E+03  0.96010758880E+02  0.30187931823E+03  0.17200000000E+03 0. -1.
         -6    1    1    2    0  502  0.20381289727E+03 -0.10387184345E+03  0.28096366714E+03  0.40106562955E+03  0.17200000000E+03 0.  1.
</event>
<event>
 4    1 -0.3305908E-004  0.4140293E+03  0.7818608E-02  0.1039027E+00
         -5   -1    0    0    0  501 -0.00000000000E+00  0.00000000000E+00  0.52808063672E+03  0.52810155168E+03  0.47000000000E+01 0.  1.
          5   -1    0    0  501    0  0.00000000000E+00 -0.00000000000E+00 -0.32490928930E+03  0.32494328162E+03  0.47000000000E+01 0. -1.
          6    1    1    2  502    0 -0.31953328004E+03  0.19933585154E+03  0.11545414070E+03  0.42982549641E+03  0.17200000000E+03 0. -1.
         -6    1    1    2    0  502  0.31953328004E+03 -0.19933585154E+03  0.87717206732E+02  0.42321933689E+03  0.17200000000E+03 0.  1.
</event>
<event>
 4    1 -0.3305908E-004  0.4800836E+03  0.7818608E-02  0.1019112E+00
          5   -1    0    0  501    0  0.00000000000E+00  0.00000000000E+00  0.37782491220E+03  0.37785414419E+03  0.47000000000E+01 0. -1.
         -5   -1    0    0    0  501 -0.00000000000E+00 -0.00000000000E+00 -0.11883497482E+04  0.11883590425E+04  0.47000000000E+01 0.  1.
          6    1    1    2  502    0  0.42157443654E+03 -0.15222111414E+03  0.14106421601E+03  0.50037924234E+03  0.17200000000E+03 0. -1.
         -6    1    1    2    0  502 -0.42157443654E+03  0.15222111414E+03 -0.95158905197E+03  0.10658339444E+04  0.17200000000E+03 0.  1.
</event>
<event>
 4    1 -0.3305908E-004  0.2392349E+03  0.7818608E-02  0.1120304E+00
         -5   -1    0    0    0  501 -0.00000000000E+00  0.00000000000E+00  0.72989615447E+02  0.73140781806E+02  0.47000000000E+01 0.  1.
          5   -1    0    0  501    0  0.00000000000E+00 -0.00000000000E+00 -0.79237550071E+03  0.79238943969E+03  0.47000000000E+01 0. -1.
          6    1    1    2  502    0 -0.16260707835E+03 -0.34760267209E+02 -0.40635771830E+03  0.47155056285E+03  0.17200000000E+03 0. -1.
         -6    1    1    2    0  502  0.16260707835E+03  0.34760267209E+02 -0.31302816697E+03  0.39397965864E+03  0.17200000000E+03 0.  1.
</event>
<event>
 4    1 -0.3305908E-004  0.3180332E+03  0.7818608E-02  0.1076558E+00
          5   -1    0    0  501    0  0.00000000000E+00  0.00000000000E+00  0.43172473112E+03  0.43175031380E+03  0.47000000000E+01 0. -1.
         -5   -1    0    0    0  501 -0.00000000000E+00 -0.00000000000E+00 -0.28120506367E+03  0.28124433831E+03  0.47000000000E+01 0.  1.
          6    1    1    2  502    0 -0.25254529461E+03  0.88215700743E+02  0.22095540335E+03  0.38725498829E+03  0.17200000000E+03 0. -1.
         -6    1    1    2    0  502  0.25254529461E+03 -0.88215700743E+02 -0.70435735893E+02  0.32573966381E+03  0.17200000000E+03 0.  1.
</event>
<event>
 4    1 -0.3305908E-004  0.2858514E+03  0.7818608E-02  0.1092535E+00
         -5   -1    0    0    0  501 -0.00000000000E+00  0.00000000000E+00  0.76718186625E+03  0.76719626296E+03  0.47000000000E+01 0.  1.
          5   -1    0    0  501    0  0.00000000000E+00 -0.00000000000E+00 -0.11054493948E+03  0.11064480849E+03  0.47000000000E+01 0. -1.
          6    1    1    2  502    0  0.22831043459E+03  0.11699371398E+01  0.41284656274E+03  0.50214869079E+03  0.17200000000E+03 0. -1.
         -6    1    1    2    0  502 -0.22831043459E+03 -0.11699371398E+01  0.24379036403E+03  0.37569238066E+03  0.17200000000E+03 0.  1.
</event>
<event>
 4    1 -0.3305908E-004  0.3771569E+03  0.7818608E-02  0.1051990E+00
          5   -1    0    0  501    0  0.00000000000E+00  0.00000000000E+00  0.13214197748E+04  0.13214281332E+04  0.47000000000E+01 0. -1.
         -5   -1    0    0    0  501 -0.00000000000E+00 -0.00000000000E+00 -0.12373142982E+03  0.12382066357E+03  0.47000000000E+01 0.  1.
          6    1    1    2  502    0  0.33052368510E+03 -0.58458877246E+02  0.85975750898E+03  0.93884520608E+03  0.17200000000E+03 0. -1.
         -6    1    1    2    0  502 -0.33052368510E+03  0.58458877246E+02  0.33793083598E+03  0.50640359067E+03  0.17200000000E+03 0.  1.
</event>
<event>
 4    1 -0.3305908E-004  0.1956925E+03  0.7818608E-02  0.1153425E+00
          5   -1    0    0  501    0  0.00000000000E+00  0.00000000000E+00  0.93710452509E+03  0.93711631132E+03  0.47000000000E+01 0. -1.
         -5   -1    0    0    0  501 -0.00000000000E+00 -0.00000000000E+00 -0.52065909092E+02  0.52277613656E+02  0.47000000000E+01 0.  1.
          6    1    1    2  502    0 -0.85166734971E+02 -0.38185990174E+02  0.67290581954E+03  0.70078369313E+03  0.17200000000E+03 0. -1.
         -6    1    1    2    0  502  0.85166734971E+02  0.38185990174E+02  0.21213279646E+03  0.28861023184E+03  0.17200000000E+03 0.  1.
</event>
<event>
 4    1 -0.3305908E-004  0.2523246E+03  0.7818608E-02  0.1111844E+00
          5   -1    0    0  501    0  0.00000000000E+00  0.00000000000E+00  0.12455279745E+03  0.12464144316E+03  0.47000000000E+01 0. -1.
         -5   -1    0    0    0  501 -0.00000000000E+00 -0.00000000000E+00 -0.52192699610E+03  0.52194815763E+03  0.47000000000E+01 0.  1.
          6    1    1    2  502    0 -0.48503292150E+02  0.17813234638E+03 -0.15167698224E+03  0.29440381981E+03  0.17200000000E+03 0. -1.
         -6    1    1    2    0  502  0.48503292150E+02 -0.17813234638E+03 -0.24569721641E+03  0.35218578099E+03  0.17200000000E+03 0.  1.
</event>
<event>
 4    1 -0.3305908E-004  0.1745198E+03  0.7818608E-02  0.1173215E+00
          5   -1    0    0  501    0  0.00000000000E+00  0.00000000000E+00  0.68680531433E+03  0.68682139585E+03  0.47000000000E+01 0. -1.
         -5   -1    0    0    0  501 -0.00000000000E+00 -0.00000000000E+00 -0.44704398745E+02  0.44950787170E+02  0.47000000000E+01 0.  1.
          6    1    1    2  502    0 -0.18022453371E+01 -0.29494460660E+02  0.35960981205E+03  0.39972038754E+03  0.17200000000E+03 0. -1.
         -6    1    1    2    0  502  0.18022453371E+01  0.29494460660E+02  0.28249110354E+03  0.33205179547E+03  0.17200000000E+03 0.  1.
</event>
<event>
 4    1 -0.3305908E-004  0.3190431E+03  0.7818608E-02  0.1076091E+00
          5   -1    0    0  501    0  0.00000000000E+00  0.00000000000E+00  0.16066824549E+04  0.16066893293E+04  0.47000000000E+01 0. -1.
         -5   -1    0    0    0  501 -0.00000000000E+00 -0.00000000000E+00 -0.70160658917E+02  0.70317907105E+02  0.47000000000E+01 0.  1.
          6    1    1    2  502    0 -0.22579127550E+03  0.14568047104E+03  0.10309247080E+04  0.10791636824E+04  0.17200000000E+03 0. -1.
         -6    1    1    2    0  502  0.22579127550E+03 -0.14568047104E+03  0.50559708792E+03  0.59784355399E+03  0.17200000000E+03 0.  1.
</event>
<event>
 4    1 -0.3305908E-004  0.1804833E+03  0.7818608E-02  0.1167336E+00
          5   -1    0    0  501    0  0.00000000000E+00  0.00000000000E+00  0.90979457498E+03  0.90980671500E+03  0.47000000000E+01 0. -1.
         -5   -1    0    0    0  501 -0.00000000000E+00 -0.00000000000E+00 -0.49761423881E+02  0.49982890139E+02  0.47000000000E+01 0.  1.
          6    1    1    2  502    0 -0.45645534183E+02  0.30111340604E+02  0.68497832445E+03  0.70835691045E+03  0.17200000000E+03 0. -1.
         -6    1    1    2    0  502  0.45645534183E+02 -0.30111340604E+02  0.17505482665E+03  0.25143269469E+03  0.17200000000E+03 0.  1.
</event>
<event>
 4    1 -0.3305908E-004  0.4276775E+03  0.7818608E-02  0.1034596E+00
          5   -1    0    0  501    0  0.00000000000E+00  0.00000000000E+00  0.57615519018E+03  0.57617436004E+03  0.47000000000E+01 0. -1.
         -5   -1    0    0    0  501 -0.00000000000E+00 -0.00000000000E+00 -0.52895650803E+03  0.52897738835E+03  0.47000000000E+01 0.  1.
          6    1    1    2  502    0  0.34332342099E+03  0.18828977311E+03  0.37302438269E+03  0.56749907501E+03  0.17200000000E+03 0. -1.
         -6    1    1    2    0  502 -0.34332342099E+03 -0.18828977311E+03 -0.32582570054E+03  0.53765267338E+03  0.17200000000E+03 0.  1.
</event>
<event>
 4    1 -0.3305908E-004  0.2439013E+03  0.7818608E-02  0.1117221E+00
          5   -1    0    0  501    0  0.00000000000E+00  0.00000000000E+00  0.14496783233E+04  0.14496859422E+04  0.47000000000E+01 0. -1.
         -5   -1    0    0    0  501 -0.00000000000E+00 -0.00000000000E+00 -0.41125884615E+02  0.41393579036E+02  0.47000000000E+01 0.  1.
          6    1    1    2  502    0  0.18909280651E+02 -0.17189034518E+03  0.64834604785E+03  0.69270516775E+03  0.17200000000E+03 0.  1.
         -6    1    1    2    0  502 -0.18909280651E+02  0.17189034518E+03  0.76020639086E+03  0.79837435352E+03  0.17200000000E+03 0.  1.
</event>
<event>
 4    1 -0.3305908E-004  0.2079589E+03  0.7818608E-02  0.1143193E+00
         -5   -1    0    0    0  501 -0.00000000000E+00  0.00000000000E+00  0.69154951428E+03  0.69156548548E+03  0.47000000000E+01 0.  1.
          5   -1    0    0  501    0  0.00000000000E+00 -0.00000000000E+00 -0.99486600535E+02  0.99597558635E+02  0.47000000000E+01 0. -1.
          6    1    1    2  502    0 -0.69951973601E+02  0.93646182034E+02  0.54801608610E+02  0.21505836958E+03  0.17200000000E+03 0. -1.
         -6    1    1    2    0  502  0.69951973601E+02 -0.93646182034E+02  0.53726130514E+03  0.57610467453E+03  0.17200000000E+03 0.  1.
</event>
<event>
 4    1 -0.3305908E-004  0.2207337E+03  0.7818608E-02  0.1133337E+00
          5   -1    0    0  501    0  0.00000000000E+00  0.00000000000E+00  0.16878255458E+03  0.16884798113E+03  0.47000000000E+01 0. -1.
         -5   -1    0    0    0  501 -0.00000000000E+00 -0.00000000000E+00 -0.54544185013E+03  0.54546209939E+03  0.47000000000E+01 0.  1.
          6    1    1    2  502    0  0.13385004815E+03 -0.34979304098E+02  0.56764371349E+02  0.22791573215E+03  0.17200000000E+03 0. -1.
         -6    1    1    2    0  502 -0.13385004815E+03  0.34979304098E+02 -0.43342366690E+03  0.48639434838E+03  0.17200000000E+03 0.  1.
</event>
<event>
 4    1 -0.3305908E-004  0.1723494E+03  0.7818608E-02  0.1175420E+00
          5   -1    0    0  501    0  0.00000000000E+00  0.00000000000E+00  0.28231531409E+03  0.28235443430E+03  0.47000000000E+01 0. -1.
         -5   -1    0    0    0  501 -0.00000000000E+00 -0.00000000000E+00 -0.11479851967E+03  0.11489469143E+03  0.47000000000E+01 0.  1.
          6    1    1    2  502    0  0.22743283943E+01  0.10730154312E+02  0.26114523860E+02  0.17431660029E+03  0.17200000000E+03 0.  1.
         -6    1    1    2    0  502 -0.22743283943E+01 -0.10730154312E+02  0.14140227056E+03  0.22293252544E+03  0.17200000000E+03 0. -1.
</event>
<event>
 4    1 -0.3305908E-004  0.2353873E+03  0.7818608E-02  0.1122904E+00
         -5   -1    0    0    0  501 -0.00000000000E+00  0.00000000000E+00  0.28154473820E+03  0.28158396547E+03  0.47000000000E+01 0.  1.
          5   -1    0    0  501    0  0.00000000000E+00 -0.00000000000E+00 -0.25537144092E+03  0.25541468798E+03  0.47000000000E+01 0. -1.
          6    1    1    2  502    0 -0.68386579367E+02 -0.14541829037E+03  0.14174412847E+03  0.27477008820E+03  0.17200000000E+03 0. -1.
         -6    1    1    2    0  502  0.68386579367E+02  0.14541829037E+03 -0.11557083119E+03  0.26222856525E+03  0.17200000000E+03 0. -1.
</event>
<event>
 4    1 -0.3305908E-004  0.2786776E+03  0.7818608E-02  0.1096413E+00
         -5   -1    0    0    0  501 -0.00000000000E+00  0.00000000000E+00  0.46322401148E+03  0.46324785462E+03  0.47000000000E+01 0.  1.
          5   -1    0    0  501    0  0.00000000000E+00 -0.00000000000E+00 -0.27053135760E+03  0.27057218158E+03  0.47000000000E+01 0. -1.
          6    1    1    2  502    0 -0.17313006950E+03  0.13454798660E+03 -0.12995048969E+03  0.30748709149E+03  0.17200000000E+03 0. -1.
         -6    1    1    2    0  502  0.17313006950E+03 -0.13454798660E+03  0.32264314356E+03  0.42633294471E+03  0.17200000000E+03 0.  1.
</event>
<event>
 4    1 -0.3305908E-004  0.2064005E+03  0.7818608E-02  0.1144449E+00
          5   -1    0    0  501    0  0.00000000000E+00  0.00000000000E+00  0.14090305270E+04  0.14090383657E+04  0.47000000000E+01 0. -1.
         -5   -1    0    0    0  501 -0.00000000000E+00 -0.00000000000E+00 -0.30668910730E+02  0.31026957398E+02  0.47000000000E+01 0.  1.
          6    1    1    2  502    0  0.28077842573E+02 -0.11058389393E+03  0.79136813072E+03  0.81784147679E+03  0.17200000000E+03 0. -1.
         -6    1    1    2    0  502 -0.28077842573E+02  0.11058389393E+03  0.58699348559E+03  0.62222384635E+03  0.17200000000E+03 0. -1.
</event>
<event>
 4    1 -0.3305908E-004  0.2031278E+03  0.7818608E-02  0.1147127E+00
          5   -1    0    0  501    0  0.00000000000E+00  0.00000000000E+00  0.35351473000E+03  0.35354597201E+03  0.47000000000E+01 0. -1.
         -5   -1    0    0    0  501 -0.00000000000E+00 -0.00000000000E+00 -0.11847326985E+03  0.11856646097E+03  0.47000000000E+01 0.  1.
          6    1    1    2  502    0 -0.92851503504E+02  0.55276696047E+02  0.88112214607E+02  0.22141516929E+03  0.17200000000E+03 0.  1.
         -6    1    1    2    0  502  0.92851503504E+02 -0.55276696047E+02  0.14692924555E+03  0.25069726370E+03  0.17200000000E+03 0.  1.
</event>
<event>
 4    1 -0.3305908E-004  0.1738724E+03  0.7818608E-02  0.1173869E+00
         -5   -1    0    0    0  501 -0.00000000000E+00  0.00000000000E+00  0.24707873136E+03  0.24712342967E+03  0.47000000000E+01 0.  1.
          5   -1    0    0  501    0  0.00000000000E+00 -0.00000000000E+00 -0.12892632425E+03  0.12901196489E+03  0.47000000000E+01 0. -1.
          6    1    1    2  502    0  0.11099078390E+02 -0.22900488108E+02  0.16318328282E+02  0.17463650745E+03  0.17200000000E+03 0. -1.
         -6    1    1    2    0  502 -0.11099078390E+02  0.22900488108E+02  0.10183407882E+03  0.20149888711E+03  0.17200000000E+03 0.  1.
</event>
<event>
 4    1 -0.3305908E-004  0.3371627E+03  0.7818608E-02  0.1068011E+00
          5   -1    0    0  501    0  0.00000000000E+00  0.00000000000E+00  0.74707965572E+02  0.74855661910E+02  0.47000000000E+01 0. -1.
         -5   -1    0    0    0  501 -0.00000000000E+00 -0.00000000000E+00 -0.16136712504E+04  0.16136780950E+04  0.47000000000E+01 0.  1.
          6    1    1    2  502    0  0.11838144645E+03 -0.26472724425E+03 -0.97289775012E+03  0.10296643691E+04  0.17200000000E+03 0.  1.
         -6    1    1    2    0  502 -0.11838144645E+03  0.26472724425E+03 -0.56606553473E+03  0.65886938790E+03  0.17200000000E+03 0. -1.
</event>
<event>
 4    1 -0.3305908E-004  0.2424607E+03  0.7818608E-02  0.1118164E+00
         -5   -1    0    0    0  501 -0.00000000000E+00  0.00000000000E+00  0.33034617948E+03  0.33037961241E+03  0.47000000000E+01 0.  1.
          5   -1    0    0  501    0  0.00000000000E+00 -0.00000000000E+00 -0.25349793390E+03  0.25354150053E+03  0.47000000000E+01 0. -1.
          6    1    1    2  502    0  0.15732571087E+03  0.66721782218E+02  0.19785317554E+03  0.31294257395E+03  0.17200000000E+03 0.  1.
         -6    1    1    2    0  502 -0.15732571087E+03 -0.66721782218E+02 -0.12100492995E+03  0.27097853899E+03  0.17200000000E+03 0. -1.
</event>
<event>
 4    1 -0.3305908E-004  0.4745989E+03  0.7818608E-02  0.1020630E+00
          5   -1    0    0  501    0  0.00000000000E+00  0.00000000000E+00  0.70180599530E+03  0.70182173309E+03  0.47000000000E+01 0. -1.
         -5   -1    0    0    0  501 -0.00000000000E+00 -0.00000000000E+00 -0.32908853587E+03  0.32912209655E+03  0.47000000000E+01 0.  1.
          6    1    1    2  502    0 -0.33861985510E+03  0.28459921016E+03  0.26760088168E+03  0.54484341656E+03  0.17200000000E+03 0. -1.
         -6    1    1    2    0  502  0.33861985510E+03 -0.28459921016E+03  0.10511657775E+03  0.48610041309E+03  0.17200000000E+03 0.  1.
</event>
<event>
 4    1 -0.3305908E-004  0.1860682E+03  0.7818608E-02  0.1162056E+00
         -5   -1    0    0    0  501 -0.00000000000E+00  0.00000000000E+00  0.14638780551E+04  0.14638856001E+04  0.47000000000E+01 0.  1.
          5   -1    0    0  501    0  0.00000000000E+00 -0.00000000000E+00 -0.23828724216E+02  0.24287817888E+02  0.47000000000E+01 0. -1.
          6    1    1    2  502    0  0.11597642055E+02  0.70020380321E+02  0.81778812356E+03  0.83868872295E+03  0.17200000000E+03 0. -1.
         -6    1    1    2    0  502 -0.11597642055E+02 -0.70020380321E+02  0.62226120730E+03  0.64948469503E+03  0.17200000000E+03 0.  1.
</event>
<event>
 4    1 -0.3305908E-004  0.1737065E+03  0.7818608E-02  0.1174037E+00
          5   -1    0    0  501    0  0.00000000000E+00  0.00000000000E+00  0.20040858196E+03  0.20046368680E+03  0.47000000000E+01 0. -1.
         -5   -1    0    0    0  501 -0.00000000000E+00 -0.00000000000E+00 -0.23885110347E+03  0.23889734119E+03  0.47000000000E+01 0.  1.
          6    1    1    2  502    0 -0.23082277196E+02 -0.75592926094E+01  0.11439315229E+03  0.20798972983E+03  0.17200000000E+03 0. -1.
         -6    1    1    2    0  502  0.23082277196E+02  0.75592926094E+01 -0.15283567379E+03  0.23137129815E+03  0.17200000000E+03 0.  1.
</event>
<event>
 4    1 -0.3305908E-004  0.2337065E+03  0.7818608E-02  0.1124058E+00
          5   -1    0    0  501    0  0.00000000000E+00  0.00000000000E+00  0.13100609704E+03  0.13109037898E+03  0.47000000000E+01 0. -1.
         -5   -1    0    0    0  501 -0.00000000000E+00 -0.00000000000E+00 -0.42581006697E+03  0.42583600498E+03  0.47000000000E+01 0.  1.
          6    1    1    2  502    0  0.71946119591E+02 -0.14092006902E+03 -0.10664475114E+03  0.25688871700E+03  0.17200000000E+03 0. -1.
         -6    1    1    2    0  502 -0.71946119591E+02  0.14092006902E+03 -0.18815921879E+03  0.30003766696E+03  0.17200000000E+03 0. -1.
</event>
<event>
 4    1 -0.3305908E-004  0.2720741E+03  0.7818608E-02  0.1100098E+00
         -5   -1    0    0    0  501 -0.00000000000E+00  0.00000000000E+00  0.54763057765E+03  0.54765074599E+03  0.47000000000E+01 0.  1.
          5   -1    0    0  501    0  0.00000000000E+00 -0.00000000000E+00 -0.14699414202E+03  0.14706926187E+03  0.47000000000E+01 0. -1.
          6    1    1    2  502    0  0.18892307618E+03 -0.93532915011E+02  0.10157769910E+03  0.29041756809E+03  0.17200000000E+03 0. -1.
         -6    1    1    2    0  502 -0.18892307618E+03  0.93532915011E+02  0.29905873653E+03  0.40430243976E+03  0.17200000000E+03 0.  1.
</event>
<event>
 4    1 -0.3305908E-004  0.1820660E+03  0.7818608E-02  0.1165818E+00
         -5   -1    0    0    0  501 -0.00000000000E+00  0.00000000000E+00  0.19862343344E+03  0.19867903339E+03  0.47000000000E+01 0.  1.
          5   -1    0    0  501    0  0.00000000000E+00 -0.00000000000E+00 -0.17259219890E+03  0.17265618183E+03  0.47000000000E+01 0. -1.
          6    1    1    2  502    0 -0.59615283428E+02 -0.31685189017E+01 -0.21053970983E+02  0.18327927113E+03  0.17200000000E+03 0. -1.
         -6    1    1    2    0  502  0.59615283428E+02  0.31685189017E+01  0.47085205515E+02  0.18805594409E+03  0.17200000000E+03 0.  1.
</event>
<event>
 4    1 -0.3305908E-004  0.1802391E+03  0.7818608E-02  0.1167572E+00
          5   -1    0    0  501    0  0.00000000000E+00  0.00000000000E+00  0.78908138570E+03  0.78909538287E+03  0.47000000000E+01 0. -1.
         -5   -1    0    0    0  501 -0.00000000000E+00 -0.00000000000E+00 -0.45096462178E+02  0.45340720120E+02  0.47000000000E+01 0.  1.
          6    1    1    2  502    0 -0.47347292209E+02  0.25697913075E+02  0.24694328954E+03  0.30572395566E+03  0.17200000000E+03 0.  1.
         -6    1    1    2    0  502  0.47347292209E+02 -0.25697913075E+02  0.49704163399E+03  0.52871214733E+03  0.17200000000E+03 0. -1.
</event>
<event>
 4    1 -0.3305908E-004  0.1931174E+03  0.7818608E-02  0.1155679E+00
         -5   -1    0    0    0  501 -0.00000000000E+00  0.00000000000E+00  0.22610893519E+03  0.22615777805E+03  0.47000000000E+01 0.  1.
          5   -1    0    0  501    0  0.00000000000E+00 -0.00000000000E+00 -0.30005527100E+03  0.30009207863E+03  0.47000000000E+01 0. -1.
          6    1    1    2  502    0 -0.79590589009E+02  0.37090058148E+02 -0.21357780587E+03  0.28794064220E+03  0.17200000000E+03 0. -1.
         -6    1    1    2    0  502  0.79590589009E+02 -0.37090058148E+02  0.13963147006E+03  0.23830921447E+03  0.17200000000E+03 0.  1.
</event>
<event>
 4    1 -0.3305908E-004  0.2384097E+03  0.7818608E-02  0.1120857E+00
          5   -1    0    0  501    0  0.00000000000E+00  0.00000000000E+00  0.65358390385E+02  0.65527163785E+02  0.47000000000E+01 0. -1.
         -5   -1    0    0    0  501 -0.00000000000E+00 -0.00000000000E+00 -0.89516549036E+03  0.89517782878E+03  0.47000000000E+01 0.  1.
          6    1    1    2  502    0  0.15881879872E+03 -0.45075117784E+02 -0.33178501247E+03  0.40855901847E+03  0.17200000000E+03 0. -1.
         -6    1    1    2    0  502 -0.15881879872E+03  0.45075117784E+02 -0.49802208751E+03  0.55214597410E+03  0.17200000000E+03 0.  1.
</event>
<event>
 4    1 -0.3305908E-004  0.3873444E+03  0.7818608E-02  0.1048252E+00
         -5   -1    0    0    0  501 -0.00000000000E+00  0.00000000000E+00  0.24688019455E+03  0.24692492880E+03  0.47000000000E+01 0.  1.
          5   -1    0    0  501    0  0.00000000000E+00 -0.00000000000E+00 -0.60933138077E+03  0.60934950693E+03  0.47000000000E+01 0. -1.
          6    1    1    2  502    0  0.47811646642E+02  0.34375243356E+03 -0.15852267487E+03  0.41852733194E+03  0.17200000000E+03 0. -1.
         -6    1    1    2    0  502 -0.47811646642E+02 -0.34375243356E+03 -0.20392851135E+03  0.43774710378E+03  0.17200000000E+03 0.  1.
</event>
<event>
 4    1 -0.3305908E-004  0.2003136E+03  0.7818608E-02  0.1149475E+00
          5   -1    0    0  501    0  0.00000000000E+00  0.00000000000E+00  0.30117744763E+02  0.30482266149E+02  0.47000000000E+01 0. -1.
         -5   -1    0    0    0  501 -0.00000000000E+00 -0.00000000000E+00 -0.14401434444E+04  0.14401511138E+04  0.47000000000E+01 0.  1.
          6    1    1    2  502    0 -0.83394807778E+02 -0.59890265330E+02 -0.91388858552E+03  0.93558424772E+03  0.17200000000E+03 0.  1.
         -6    1    1    2    0  502  0.83394807778E+02  0.59890265330E+02 -0.49613711416E+03  0.53504913223E+03  0.17200000000E+03 0.  1.
</event>
<event>
 4    1 -0.3305908E-004  0.2106076E+03  0.7818608E-02  0.1141086E+00
         -5   -1    0    0    0  501 -0.00000000000E+00  0.00000000000E+00  0.45610010406E+02  0.45851532681E+02  0.47000000000E+01 0.  1.
          5   -1    0    0  501    0  0.00000000000E+00 -0.00000000000E+00 -0.16291262234E+04  0.16291330031E+04  0.47000000000E+01 0. -1.
          6    1    1    2  502    0 -0.51606500013E+02 -0.11003777344E+03 -0.13245524075E+04  0.13411914936E+04  0.17200000000E+03 0.  1.
         -6    1    1    2    0  502  0.51606500013E+02  0.11003777344E+03 -0.25896380558E+03  0.33379304221E+03  0.17200000000E+03 0.  1.
</event>
<event>
 4    1 -0.3305908E-004  0.1898632E+03  0.7818608E-02  0.1158585E+00
          5   -1    0    0  501    0  0.00000000000E+00  0.00000000000E+00  0.17356036060E+03  0.17362398674E+03  0.47000000000E+01 0. -1.
         -5   -1    0    0    0  501 -0.00000000000E+00 -0.00000000000E+00 -0.20871975509E+03  0.20877266623E+03  0.47000000000E+01 0.  1.
          6    1    1    2  502    0  0.80377281760E+02  0.18740082532E+01 -0.33868155019E+01  0.18989336442E+03  0.17200000000E+03 0.  1.
         -6    1    1    2    0  502 -0.80377281760E+02 -0.18740082532E+01 -0.31772578989E+02  0.19250328856E+03  0.17200000000E+03 0. -1.
</event>
<event>
 4    1 -0.3305908E-004  0.3119324E+03  0.7818608E-02  0.1079423E+00
         -5   -1    0    0    0  501 -0.00000000000E+00  0.00000000000E+00  0.76917908842E+03  0.76919344775E+03  0.47000000000E+01 0.  1.
          5   -1    0    0  501    0  0.00000000000E+00 -0.00000000000E+00 -0.13602347307E+03  0.13610464807E+03  0.47000000000E+01 0. -1.
          6    1    1    2  502    0  0.15003926168E+03  0.21261707848E+03  0.19648372398E+03  0.36865655548E+03  0.17200000000E+03 0. -1.
         -6    1    1    2    0  502 -0.15003926168E+03 -0.21261707848E+03  0.43667189137E+03  0.53664154034E+03  0.17200000000E+03 0.  1.
</event>
<event>
 4    1 -0.3305908E-004  0.2003850E+03  0.7818608E-02  0.1149415E+00
          5   -1    0    0  501    0  0.00000000000E+00  0.00000000000E+00  0.78650981912E+03  0.78652386205E+03  0.47000000000E+01 0. -1.
         -5   -1    0    0    0  501 -0.00000000000E+00 -0.00000000000E+00 -0.57065757612E+02  0.57258979137E+02  0.47000000000E+01 0.  1.
          6    1    1    2  502    0  0.97486722005E+02  0.32657034543E+02  0.50278733180E+03  0.54124785810E+03  0.17200000000E+03 0. -1.
         -6    1    1    2    0  502 -0.97486722005E+02 -0.32657034543E+02  0.22665672971E+03  0.30253498309E+03  0.17200000000E+03 0.  1.
</event>
<event>
 4    1 -0.3305908E-004  0.2123494E+03  0.7818608E-02  0.1139719E+00
         -5   -1    0    0    0  501 -0.00000000000E+00  0.00000000000E+00  0.41927895997E+03  0.41930530199E+03  0.47000000000E+01 0.  1.
          5   -1    0    0  501    0  0.00000000000E+00 -0.00000000000E+00 -0.11066230035E+03  0.11076206354E+03  0.47000000000E+01 0. -1.
          6    1    1    2  502    0 -0.49728775042E+02 -0.11417233031E+03  0.19932444287E+03  0.29124303528E+03  0.17200000000E+03 0. -1.
         -6    1    1    2    0  502  0.49728775042E+02  0.11417233031E+03  0.10929221675E+03  0.23882433025E+03  0.17200000000E+03 0.  1.
</event>
<event>
 4    1 -0.3305908E-004  0.1868194E+03  0.7818608E-02  0.1161362E+00
          5   -1    0    0  501    0  0.00000000000E+00  0.00000000000E+00  0.84797638664E+02  0.84927790052E+02  0.47000000000E+01 0. -1.
         -5   -1    0    0    0  501 -0.00000000000E+00 -0.00000000000E+00 -0.41942600221E+03  0.41945233499E+03  0.47000000000E+01 0.  1.
          6    1    1    2  502    0 -0.54774037642E+02  0.48138158629E+02 -0.13184501240E+03  0.22865822708E+03  0.17200000000E+03 0. -1.
         -6    1    1    2    0  502  0.54774037642E+02 -0.48138158629E+02 -0.20278335114E+03  0.27572189796E+03  0.17200000000E+03 0.  1.
</event>
<event>
 4    1 -0.3305908E-004  0.1769971E+03  0.7818608E-02  0.1170741E+00
         -5   -1    0    0    0  501 -0.00000000000E+00  0.00000000000E+00  0.36008373462E+03  0.36011440674E+03  0.47000000000E+01 0.  1.
          5   -1    0    0  501    0  0.00000000000E+00 -0.00000000000E+00 -0.87553208027E+02  0.87679269134E+02  0.47000000000E+01 0. -1.
          6    1    1    2  502    0 -0.39892943016E+02  0.12349741717E+02  0.11700272733E+03  0.21217351679E+03  0.17200000000E+03 0. -1.
         -6    1    1    2    0  502  0.39892943016E+02 -0.12349741717E+02  0.15552779926E+03  0.23562015908E+03  0.17200000000E+03 0.  1.
</event>
<event>
 4    1 -0.3305908E-004  0.2032537E+03  0.7818608E-02  0.1147023E+00
          5   -1    0    0  501    0  0.00000000000E+00  0.00000000000E+00  0.19404468036E+03  0.19410159189E+03  0.47000000000E+01 0. -1.
         -5   -1    0    0    0  501 -0.00000000000E+00 -0.00000000000E+00 -0.22751366481E+03  0.22756220616E+03  0.47000000000E+01 0.  1.
          6    1    1    2  502    0 -0.10002232950E+03 -0.41516287590E+02  0.36894770261E+02  0.20657515002E+03  0.17200000000E+03 0.  1.
         -6    1    1    2    0  502  0.10002232950E+03  0.41516287590E+02 -0.70363754710E+02  0.21508864803E+03  0.17200000000E+03 0.  1.
</event>
<event>
 4    1 -0.3305908E-004  0.2279112E+03  0.7818608E-02  0.1128119E+00
         -5   -1    0    0    0  501 -0.00000000000E+00  0.00000000000E+00  0.40439635673E+02  0.40711842668E+02  0.47000000000E+01 0.  1.
          5   -1    0    0  501    0  0.00000000000E+00 -0.00000000000E+00 -0.13507511602E+04  0.13507593371E+04  0.47000000000E+01 0. -1.
          6    1    1    2  502    0  0.10924520874E+03  0.10210293780E+03 -0.49581422562E+03  0.54568788870E+03  0.17200000000E+03 0.  1.
         -6    1    1    2    0  502 -0.10924520874E+03 -0.10210293780E+03 -0.81449729888E+03  0.84578329105E+03  0.17200000000E+03 0. -1.
</event>
<event>
 4    1 -0.3305908E-004  0.2427681E+03  0.7818608E-02  0.1117962E+00
         -5   -1    0    0    0  501 -0.00000000000E+00  0.00000000000E+00  0.30114275944E+03  0.30117943417E+03  0.47000000000E+01 0.  1.
          5   -1    0    0  501    0  0.00000000000E+00 -0.00000000000E+00 -0.20094741608E+03  0.20100237320E+03  0.47000000000E+01 0. -1.
          6    1    1    2  502    0  0.33863139556E+02  0.16794541309E+03  0.90924689808E+02  0.25923671271E+03  0.17200000000E+03 0. -1.
         -6    1    1    2    0  502 -0.33863139556E+02 -0.16794541309E+03  0.92706535528E+01  0.24294509466E+03  0.17200000000E+03 0.  1.
</event>
<event>
 4    1 -0.3305908E-004  0.2390668E+03  0.7818608E-02  0.1120416E+00
          5   -1    0    0  501    0  0.00000000000E+00  0.00000000000E+00  0.24942146697E+03  0.24946574551E+03  0.47000000000E+01 0. -1.
         -5   -1    0    0    0  501 -0.00000000000E+00 -0.00000000000E+00 -0.37408749796E+03  0.37411702198E+03  0.47000000000E+01 0.  1.
          6    1    1    2  502    0  0.29219864984E+02 -0.16344759855E+03  0.13178444047E+03  0.27298361989E+03  0.17200000000E+03 0. -1.
         -6    1    1    2    0  502 -0.29219864984E+02  0.16344759855E+03 -0.25645047147E+03  0.35059914760E+03  0.17200000000E+03 0.  1.
</event>
<event>
 4    1 -0.3305908E-004  0.2269493E+03  0.7818608E-02  0.1128806E+00
          5   -1    0    0  501    0  0.00000000000E+00  0.00000000000E+00  0.82643943813E+02  0.82777481533E+02  0.47000000000E+01 0. -1.
         -5   -1    0    0    0  501 -0.00000000000E+00 -0.00000000000E+00 -0.65956283643E+03  0.65957958215E+03  0.47000000000E+01 0.  1.
          6    1    1    2  502    0 -0.14802552919E+03 -0.32267992825E+01 -0.37634029469E+03  0.43947467154E+03  0.17200000000E+03 0.  1.
         -6    1    1    2    0  502  0.14802552919E+03  0.32267992825E+01 -0.20057859793E+03  0.30288239214E+03  0.17200000000E+03 0.  1.
</event>
<event>
 4    1 -0.3305908E-004  0.2037271E+03  0.7818608E-02  0.1146632E+00
         -5   -1    0    0    0  501 -0.00000000000E+00  0.00000000000E+00  0.98482911741E+03  0.98484033249E+03  0.47000000000E+01 0.  1.
          5   -1    0    0  501    0  0.00000000000E+00 -0.00000000000E+00 -0.76126516221E+02  0.76271465647E+02  0.47000000000E+01 0. -1.
          6    1    1    2  502    0 -0.10885518257E+03  0.84422172351E+01  0.99629847516E+02  0.22678365973E+03  0.17200000000E+03 0. -1.
         -6    1    1    2    0  502  0.10885518257E+03 -0.84422172351E+01  0.80907275367E+03  0.83432813841E+03  0.17200000000E+03 0.  1.
</event>
<event>
 4    1 -0.3305908E-004  0.1897023E+03  0.7818608E-02  0.1158730E+00
         -5   -1    0    0    0  501 -0.00000000000E+00  0.00000000000E+00  0.12562166812E+04  0.12562254734E+04  0.47000000000E+01 0.  1.
          5   -1    0    0  501    0  0.00000000000E+00 -0.00000000000E+00 -0.36207725531E+02  0.36511496657E+02  0.47000000000E+01 0. -1.
          6    1    1    2  502    0  0.33521432848E+02 -0.72658653111E+02  0.31217604112E+03  0.36529556113E+03  0.17200000000E+03 0. -1.
         -6    1    1    2    0  502 -0.33521432848E+02  0.72658653111E+02  0.90783291453E+03  0.92744140895E+03  0.17200000000E+03 0.  1.
</event>
<event>
 4    1 -0.3305908E-004  0.4528249E+03  0.7818608E-02  0.1026883E+00
          5   -1    0    0  501    0  0.00000000000E+00  0.00000000000E+00  0.30806004744E+03  0.30809589876E+03  0.47000000000E+01 0. -1.
         -5   -1    0    0    0  501 -0.00000000000E+00 -0.00000000000E+00 -0.69676787078E+03  0.69678372237E+03  0.47000000000E+01 0.  1.
          6    1    1    2  502    0 -0.41883072556E+03  0.68729538511E+01 -0.87982095356E+02  0.46129303406E+03  0.17200000000E+03 0. -1.
         -6    1    1    2    0  502  0.41883072556E+03 -0.68729538511E+01 -0.30072572799E+03  0.54358658707E+03  0.17200000000E+03 0. -1.
</event>
<event>
 4    1 -0.3305908E-004  0.2615789E+03  0.7818608E-02  0.1106198E+00
          5   -1    0    0  501    0  0.00000000000E+00  0.00000000000E+00  0.17880604050E+03  0.17886780068E+03  0.47000000000E+01 0. -1.
         -5   -1    0    0    0  501 -0.00000000000E+00 -0.00000000000E+00 -0.43225946896E+03  0.43228501998E+03  0.47000000000E+01 0.  1.
          6    1    1    2  502    0  0.11810915733E+03 -0.15776489355E+03 -0.23087541273E+02  0.26259582868E+03  0.17200000000E+03 0. -1.
         -6    1    1    2    0  502 -0.11810915733E+03  0.15776489355E+03 -0.23036588718E+03  0.34855699198E+03  0.17200000000E+03 0.  1.
</event>
<event>
 4    1 -0.3305908E-004  0.1793341E+03  0.7818608E-02  0.1168449E+00
         -5   -1    0    0    0  501 -0.00000000000E+00  0.00000000000E+00  0.41743663071E+02  0.42007420851E+02  0.47000000000E+01 0.  1.
          5   -1    0    0  501    0  0.00000000000E+00 -0.00000000000E+00 -0.81806330475E+03  0.81807680604E+03  0.47000000000E+01 0. -1.
          6    1    1    2  502    0 -0.48548624904E+02  0.14823750757E+02 -0.49480597773E+03  0.52630187931E+03  0.17200000000E+03 0. -1.
         -6    1    1    2    0  502  0.48548624904E+02 -0.14823750757E+02 -0.28151366395E+03  0.33378234758E+03  0.17200000000E+03 0.  1.
</event>
<event>
 4    1 -0.3305908E-004  0.1924778E+03  0.7818608E-02  0.1156245E+00
          5   -1    0    0  501    0  0.00000000000E+00  0.00000000000E+00  0.24600595865E+03  0.24605085184E+03  0.47000000000E+01 0. -1.
         -5   -1    0    0    0  501 -0.00000000000E+00 -0.00000000000E+00 -0.17038294855E+03  0.17044776078E+03  0.47000000000E+01 0.  1.
          6    1    1    2  502    0 -0.72623201596E+02  0.46793063041E+02  0.10892451465E+03  0.22116118568E+03  0.17200000000E+03 0. -1.
         -6    1    1    2    0  502  0.72623201596E+02 -0.46793063041E+02 -0.33301504550E+02  0.19533742694E+03  0.17200000000E+03 0.  1.
</event>
<event>
 4    1 -0.3305908E-004  0.4919152E+03  0.7818608E-02  0.1015911E+00
          5   -1    0    0  501    0  0.00000000000E+00  0.00000000000E+00  0.84877111964E+03  0.84878413247E+03  0.47000000000E+01 0. -1.
         -5   -1    0    0    0  501 -0.00000000000E+00 -0.00000000000E+00 -0.39058603082E+03  0.39061430781E+03  0.47000000000E+01 0.  1.
          6    1    1    2  502    0 -0.37295284835E+03 -0.27074482973E+03  0.55118102672E+03  0.73877000084E+03  0.17200000000E+03 0. -1.
         -6    1    1    2    0  502  0.37295284835E+03  0.27074482973E+03 -0.92995937895E+02  0.50062843945E+03  0.17200000000E+03 0.  1.
</event>
<event>
 4    1 -0.3305908E-004  0.5184521E+03  0.7818608E-02  0.1009072E+00
          5   -1    0    0  501    0  0.00000000000E+00  0.00000000000E+00  0.44406641651E+03  0.44409128822E+03  0.47000000000E+01 0. -1.
         -5   -1    0    0    0  501 -0.00000000000E+00 -0.00000000000E+00 -0.71673707967E+03  0.71675248962E+03  0.47000000000E+01 0.  1.
          6    1    1    2  502    0  0.14056719554E+03 -0.46845435773E+03  0.92576767478E+02  0.52665271253E+03  0.17200000000E+03 0. -1.
         -6    1    1    2    0  502 -0.14056719554E+03  0.46845435773E+03 -0.36524743064E+03  0.63419106531E+03  0.17200000000E+03 0.  1.
</event>
<event>
 4    1 -0.3305908E-004  0.2375527E+03  0.7818608E-02  0.1121434E+00
          5   -1    0    0  501    0  0.00000000000E+00  0.00000000000E+00  0.11558721772E+03  0.11568273381E+03  0.47000000000E+01 0. -1.
         -5   -1    0    0    0  501 -0.00000000000E+00 -0.00000000000E+00 -0.69379756190E+03  0.69381348135E+03  0.47000000000E+01 0.  1.
          6    1    1    2  502    0  0.15376054833E+03 -0.56612416129E+02 -0.68633637014E+02  0.24726877687E+03  0.17200000000E+03 0. -1.
         -6    1    1    2    0  502 -0.15376054833E+03  0.56612416129E+02 -0.50957670716E+03  0.56222743829E+03  0.17200000000E+03 0.  1.
</event>
<event>
 4    1 -0.3305908E-004  0.2085298E+03  0.7818608E-02  0.1142736E+00
         -5   -1    0    0    0  501 -0.00000000000E+00  0.00000000000E+00  0.69963843990E+02  0.70121533539E+02  0.47000000000E+01 0.  1.
          5   -1    0    0  501    0  0.00000000000E+00 -0.00000000000E+00 -0.71927085701E+03  0.71928621268E+03  0.47000000000E+01 0. -1.
          6    1    1    2  502    0 -0.98727826693E+02  0.64447484610E+02 -0.17852816272E+03  0.27451223455E+03  0.17200000000E+03 0.  1.
         -6    1    1    2    0  502  0.98727826693E+02 -0.64447484610E+02 -0.47077885030E+03  0.51489551166E+03  0.17200000000E+03 0. -1.
</event>
<event>
 4    1 -0.3305908E-004  0.3500344E+03  0.7818608E-02  0.1062601E+00
          5   -1    0    0  501    0  0.00000000000E+00  0.00000000000E+00  0.85941485312E+03  0.85942770480E+03  0.47000000000E+01 0. -1.
         -5   -1    0    0    0  501 -0.00000000000E+00 -0.00000000000E+00 -0.15428204604E+03  0.15435361910E+03  0.47000000000E+01 0.  1.
          6    1    1    2  502    0  0.16794376543E+03  0.25443073733E+03  0.21261365910E+03  0.40954691609E+03  0.17200000000E+03 0. -1.
         -6    1    1    2    0  502 -0.16794376543E+03 -0.25443073733E+03  0.49251914799E+03  0.60423440781E+03  0.17200000000E+03 0. -1.
</event>
<event>
 4    1 -0.3305908E-004  0.2197147E+03  0.7818608E-02  0.1134096E+00
          5   -1    0    0  501    0  0.00000000000E+00  0.00000000000E+00  0.16329525750E+03  0.16336288172E+03  0.47000000000E+01 0. -1.
         -5   -1    0    0    0  501 -0.00000000000E+00 -0.00000000000E+00 -0.32830164772E+03  0.32833528884E+03  0.47000000000E+01 0.  1.
          6    1    1    2  502    0  0.82987443777E+02 -0.10864449562E+03 -0.47809692362E+01  0.21976669429E+03  0.17200000000E+03 0. -1.
         -6    1    1    2    0  502 -0.82987443777E+02  0.10864449562E+03 -0.16022542098E+03  0.27193147626E+03  0.17200000000E+03 0.  1.
</event>
<event>
 4    1 -0.3305908E-004  0.3937372E+03  0.7818608E-02  0.1045970E+00
         -5   -1    0    0    0  501 -0.00000000000E+00  0.00000000000E+00  0.12449738823E+03  0.12458607337E+03  0.47000000000E+01 0.  1.
          5   -1    0    0  501    0  0.00000000000E+00 -0.00000000000E+00 -0.12479233668E+04  0.12479322175E+04  0.47000000000E+01 0. -1.
          6    1    1    2  502    0 -0.14854850299E+03  0.32152503186E+03 -0.59657579159E+03  0.71479485096E+03  0.17200000000E+03 0. -1.
         -6    1    1    2    0  502  0.14854850299E+03 -0.32152503186E+03 -0.52685018701E+03  0.65772343991E+03  0.17200000000E+03 0.  1.
</event>
<event>
 4    1 -0.3305908E-004  0.1802697E+03  0.7818608E-02  0.1167542E+00
          5   -1    0    0  501    0  0.00000000000E+00  0.00000000000E+00  0.13626572121E+02  0.14414349370E+02  0.47000000000E+01 0. -1.
         -5   -1    0    0    0  501 -0.00000000000E+00 -0.00000000000E+00 -0.24619728168E+04  0.24619773030E+04  0.47000000000E+01 0.  1.
          6    1    1    2  502    0  0.19681724827E+02 -0.50257274070E+02 -0.15245377387E+04  0.15351587802E+04  0.17200000000E+03 0.  1.
         -6    1    1    2    0  502 -0.19681724827E+02  0.50257274070E+02 -0.92380850600E+03  0.94123287217E+03  0.17200000000E+03 0. -1.
</event>
<event>
 4    1 -0.3305908E-004  0.2300865E+03  0.7818608E-02  0.1126579E+00
         -5   -1    0    0    0  501 -0.00000000000E+00  0.00000000000E+00  0.59210401112E+03  0.59212266464E+03  0.47000000000E+01 0.  1.
          5   -1    0    0  501    0  0.00000000000E+00 -0.00000000000E+00 -0.19125554318E+03  0.19131328443E+03  0.47000000000E+01 0. -1.
          6    1    1    2  502    0  0.12051074956E+03 -0.93983783089E+02 -0.85458990457E+02  0.24544455849E+03  0.17200000000E+03 0. -1.
         -6    1    1    2    0  502 -0.12051074956E+03  0.93983783089E+02  0.48630745839E+03  0.53799139057E+03  0.17200000000E+03 0.  1.
</event>
<event>
 4    1 -0.3305908E-004  0.1825843E+03  0.7818608E-02  0.1165325E+00
          5   -1    0    0  501    0  0.00000000000E+00  0.00000000000E+00  0.21901265576E+03  0.21906308083E+03  0.47000000000E+01 0. -1.
         -5   -1    0    0    0  501 -0.00000000000E+00 -0.00000000000E+00 -0.16009414703E+03  0.16016312283E+03  0.47000000000E+01 0.  1.
          6    1    1    2  502    0 -0.16569339341E+02  0.58978813334E+02  0.71785140043E+02  0.19618906636E+03  0.17200000000E+03 0. -1.
         -6    1    1    2    0  502  0.16569339341E+02 -0.58978813334E+02 -0.12866631318E+02  0.18303713730E+03  0.17200000000E+03 0.  1.
</event>
<event>
 4    1 -0.3305908E-004  0.2083688E+03  0.7818608E-02  0.1142864E+00
         -5   -1    0    0    0  501 -0.00000000000E+00  0.00000000000E+00  0.13399061437E+03  0.13407302018E+03  0.47000000000E+01 0.  1.
          5   -1    0    0  501    0  0.00000000000E+00 -0.00000000000E+00 -0.33499814178E+03  0.33503111049E+03  0.47000000000E+01 0. -1.
          6    1    1    2  502    0 -0.66417910495E+02 -0.97068079662E+02 -0.57695033605E+02  0.21620885233E+03  0.17200000000E+03 0. -1.
         -6    1    1    2    0  502  0.66417910495E+02  0.97068079662E+02 -0.14331249380E+03  0.25289527833E+03  0.17200000000E+03 0.  1.
</event>
<event>
 4    1 -0.3305908E-004  0.2183021E+03  0.7818608E-02  0.1135155E+00
         -5   -1    0    0    0  501 -0.00000000000E+00  0.00000000000E+00  0.62993658659E+02  0.63168750433E+02  0.47000000000E+01 0.  1.
          5   -1    0    0  501    0  0.00000000000E+00 -0.00000000000E+00 -0.75817046695E+03  0.75818503477E+03  0.47000000000E+01 0. -1.
          6    1    1    2  502    0 -0.12967834859E+03 -0.35430910394E+02 -0.32225836308E+03  0.38923807121E+03  0.17200000000E+03 0. -1.
         -6    1    1    2    0  502  0.12967834859E+03  0.35430910394E+02 -0.37291844521E+03  0.43211571400E+03  0.17200000000E+03 0. -1.
</event>
<event>
 4    1 -0.3305908E-004  0.1821706E+03  0.7818608E-02  0.1165719E+00
         -5   -1    0    0    0  501 -0.00000000000E+00  0.00000000000E+00  0.98463751212E+01  0.10910595906E+02  0.47000000000E+01 0.  1.
          5   -1    0    0  501    0  0.00000000000E+00 -0.00000000000E+00 -0.32628344805E+04  0.32628378656E+04  0.47000000000E+01 0. -1.
          6    1    1    2  502    0 -0.28812283929E+02 -0.52649478112E+02 -0.18598109679E+04  0.18687115752E+04  0.17200000000E+03 0.  1.
         -6    1    1    2    0  502  0.28812283929E+02  0.52649478112E+02 -0.13931771375E+04  0.14050368863E+04  0.17200000000E+03 0.  1.
</event>
<event>
 4    1 -0.3305908E-004  0.2197601E+03  0.7818608E-02  0.1134062E+00
          5   -1    0    0  501    0  0.00000000000E+00  0.00000000000E+00  0.30056898367E+03  0.30060572839E+03  0.47000000000E+01 0. -1.
         -5   -1    0    0    0  501 -0.00000000000E+00 -0.00000000000E+00 -0.16444818566E+03  0.16451533596E+03  0.47000000000E+01 0.  1.
          6    1    1    2  502    0  0.55241890042E+02 -0.12513531144E+03  0.32477954123E+02  0.22214709111E+03  0.17200000000E+03 0.  1.
         -6    1    1    2    0  502 -0.55241890042E+02  0.12513531144E+03  0.10364284388E+03  0.24297397324E+03  0.17200000000E+03 0.  1.
</event>
<event>
 4    1 -0.3305908E-004  0.1723776E+03  0.7818608E-02  0.1175391E+00
         -5   -1    0    0    0  501 -0.00000000000E+00  0.00000000000E+00  0.17649922725E+04  0.17649985304E+04  0.47000000000E+01 0.  1.
          5   -1    0    0  501    0  0.00000000000E+00 -0.00000000000E+00 -0.16521630961E+02  0.17177144396E+02  0.47000000000E+01 0. -1.
          6    1    1    2  502    0 -0.17471378987E+01  0.11268212145E+02  0.84318929561E+03  0.86062896380E+03  0.17200000000E+03 0.  1.
         -6    1    1    2    0  502  0.17471378987E+01 -0.11268212145E+02  0.90528134597E+03  0.92154671095E+03  0.17200000000E+03 0.  1.
</event>
<event>
 4    1 -0.3305908E-004  0.1826676E+03  0.7818608E-02  0.1165246E+00
         -5   -1    0    0    0  501 -0.00000000000E+00  0.00000000000E+00  0.83968181273E+02  0.84099616327E+02  0.47000000000E+01 0.  1.
          5   -1    0    0  501    0  0.00000000000E+00 -0.00000000000E+00 -0.46354956553E+03  0.46357339193E+03  0.47000000000E+01 0. -1.
          6    1    1    2  502    0  0.61306283491E+02  0.49984444747E+01 -0.85993909753E+02  0.20189699690E+03  0.17200000000E+03 0. -1.
         -6    1    1    2    0  502 -0.61306283491E+02 -0.49984444747E+01 -0.29358747450E+03  0.34577601135E+03  0.17200000000E+03 0. -1.
</event>
<event>
 4    1 -0.3305908E-004  0.3526796E+03  0.7818608E-02  0.1061521E+00
         -5   -1    0    0    0  501 -0.00000000000E+00  0.00000000000E+00  0.15240830326E+03  0.15248075584E+03  0.47000000000E+01 0.  1.
          5   -1    0    0  501    0  0.00000000000E+00 -0.00000000000E+00 -0.81692633479E+03  0.81693985487E+03  0.47000000000E+01 0. -1.
          6    1    1    2  502    0 -0.68898588919E+01 -0.30781716828E+03 -0.31460881757E+03  0.47261145493E+03  0.17200000000E+03 0. -1.
         -6    1    1    2    0  502  0.68898588919E+01  0.30781716828E+03 -0.34990921397E+03  0.49680915577E+03  0.17200000000E+03 0.  1.
</event>
<event>
 4    1 -0.3305908E-004  0.2628769E+03  0.7818608E-02  0.1105427E+00
         -5   -1    0    0    0  501 -0.00000000000E+00  0.00000000000E+00  0.34265934814E+02  0.34586764646E+02  0.47000000000E+01 0.  1.
          5   -1    0    0  501    0  0.00000000000E+00 -0.00000000000E+00 -0.20390799349E+04  0.20390853516E+04  0.47000000000E+01 0. -1.
          6    1    1    2  502    0 -0.19820276848E+03  0.15360290450E+02 -0.11324786664E+04  0.11625885797E+04  0.17200000000E+03 0. -1.
         -6    1    1    2    0  502  0.19820276848E+03 -0.15360290450E+02 -0.87233533373E+03  0.91108353648E+03  0.17200000000E+03 0. -1.
</event>
<event>
 4    1 -0.3305908E-004  0.2186390E+03  0.7818608E-02  0.1134902E+00
         -5   -1    0    0    0  501 -0.00000000000E+00  0.00000000000E+00  0.61427252028E+03  0.61429050064E+03  0.47000000000E+01 0.  1.
          5   -1    0    0  501    0  0.00000000000E+00 -0.00000000000E+00 -0.94777547772E+02  0.94894012254E+02  0.47000000000E+01 0. -1.
          6    1    1    2  502    0  0.12308477146E+03 -0.55400067154E+02  0.10948011425E+03  0.24451773724E+03  0.17200000000E+03 0. -1.
         -6    1    1    2    0  502 -0.12308477146E+03  0.55400067154E+02  0.41001485826E+03  0.46466677566E+03  0.17200000000E+03 0.  1.
</event>
<event>
 4    1 -0.3305908E-004  0.1846875E+03  0.7818608E-02  0.1163342E+00
         -5   -1    0    0    0  501 -0.00000000000E+00  0.00000000000E+00  0.19276374473E+03  0.19282103434E+03  0.47000000000E+01 0.  1.
          5   -1    0    0  501    0  0.00000000000E+00 -0.00000000000E+00 -0.47757486703E+03  0.47759799373E+03  0.47000000000E+01 0. -1.
          6    1    1    2  502    0 -0.65347490014E+02  0.15973786181E+02 -0.40838361009E+03  0.44820378099E+03  0.17200000000E+03 0. -1.
         -6    1    1    2    0  502  0.65347490014E+02 -0.15973786181E+02  0.12357248780E+03  0.22221524709E+03  0.17200000000E+03 0.  1.
</event>
<event>
 4    1 -0.3305908E-004  0.1775578E+03  0.7818608E-02  0.1170188E+00
         -5   -1    0    0    0  501 -0.00000000000E+00  0.00000000000E+00  0.70002660198E+03  0.70004237978E+03  0.47000000000E+01 0.  1.
          5   -1    0    0  501    0  0.00000000000E+00 -0.00000000000E+00 -0.57773552950E+02  0.57964415123E+02  0.47000000000E+01 0. -1.
          6    1    1    2  502    0 -0.21757542835E+01  0.44023307022E+02  0.49968927029E+03  0.53029817302E+03  0.17200000000E+03 0.  1.
         -6    1    1    2    0  502  0.21757542835E+01 -0.44023307022E+02  0.14256377874E+03  0.22770862188E+03  0.17200000000E+03 0. -1.
</event>
<event>
 4    1 -0.3305908E-004  0.2196767E+03  0.7818608E-02  0.1134124E+00
         -5   -1    0    0    0  501 -0.00000000000E+00  0.00000000000E+00  0.51835420479E+03  0.51837551218E+03  0.47000000000E+01 0.  1.
          5   -1    0    0  501    0  0.00000000000E+00 -0.00000000000E+00 -0.13908354030E+03  0.13916293034E+03  0.47000000000E+01 0. -1.
          6    1    1    2  502    0 -0.12157582338E+03  0.62395315006E+02  0.37876712735E+03  0.43786115713E+03  0.17200000000E+03 0. -1.
         -6    1    1    2    0  502  0.12157582338E+03 -0.62395315006E+02  0.50353714883E+00  0.21967728539E+03  0.17200000000E+03 0. -1.
</event>
<event>
 4    1 -0.3305908E-004  0.2555157E+03  0.7818608E-02  0.1109868E+00
          5   -1    0    0  501    0  0.00000000000E+00  0.00000000000E+00  0.47796283492E+03  0.47798594285E+03  0.47000000000E+01 0. -1.
         -5   -1    0    0    0  501 -0.00000000000E+00 -0.00000000000E+00 -0.14066574488E+03  0.14074424245E+03  0.47000000000E+01 0.  1.
          6    1    1    2  502    0  0.70392554805E+02 -0.17535443684E+03  0.22167435011E+03  0.33827179573E+03  0.17200000000E+03 0. -1.
         -6    1    1    2    0  502 -0.70392554805E+02  0.17535443684E+03  0.11562273992E+03  0.28045838957E+03  0.17200000000E+03 0.  1.
</event>
<event>
 4    1 -0.3305908E-004  0.1818130E+03  0.7818608E-02  0.1166060E+00
         -5   -1    0    0    0  501 -0.00000000000E+00  0.00000000000E+00  0.48156661791E+02  0.48385473800E+02  0.47000000000E+01 0.  1.
          5   -1    0    0  501    0  0.00000000000E+00 -0.00000000000E+00 -0.86132199179E+03  0.86133481500E+03  0.47000000000E+01 0. -1.
          6    1    1    2  502    0 -0.22559218063E+02 -0.54433737360E+02 -0.61261072666E+03  0.63902101100E+03  0.17200000000E+03 0. -1.
         -6    1    1    2    0  502  0.22559218063E+02  0.54433737360E+02 -0.20055460334E+03  0.27069927780E+03  0.17200000000E+03 0.  1.
</event>
<event>
 4    1 -0.3305908E-004  0.2303954E+03  0.7818608E-02  0.1126362E+00
          5   -1    0    0  501    0  0.00000000000E+00  0.00000000000E+00  0.17262338404E+04  0.17262402387E+04  0.47000000000E+01 0. -1.
         -5   -1    0    0    0  501 -0.00000000000E+00 -0.00000000000E+00 -0.68572773674E+02  0.68733654707E+02  0.47000000000E+01 0.  1.
          6    1    1    2  502    0  0.15131450005E+03 -0.24535211182E+02  0.14957160087E+04  0.15133566774E+04  0.17200000000E+03 0. -1.
         -6    1    1    2    0  502 -0.15131450005E+03  0.24535211182E+02  0.16194505805E+03  0.28161721598E+03  0.17200000000E+03 0.  1.
</event>
<event>
 4    1 -0.3305908E-004  0.1958789E+03  0.7818608E-02  0.1153263E+00
          5   -1    0    0  501    0  0.00000000000E+00  0.00000000000E+00  0.52172374969E+03  0.52174491947E+03  0.47000000000E+01 0. -1.
         -5   -1    0    0    0  501 -0.00000000000E+00 -0.00000000000E+00 -0.10721352571E+03  0.10731649498E+03  0.47000000000E+01 0.  1.
          6    1    1    2  502    0 -0.78294810690E+01  0.93398279074E+02  0.38365611625E+03  0.43076740225E+03  0.17200000000E+03 0. -1.
         -6    1    1    2    0  502  0.78294810690E+01 -0.93398279074E+02  0.30854107738E+02  0.19829401219E+03  0.17200000000E+03 0. -1.
</event>
<event>
 4    1 -0.3305908E-004  0.4329092E+03  0.7818608E-02  0.1032945E+00
          5   -1    0    0  501    0  0.00000000000E+00  0.00000000000E+00  0.15899086690E+04  0.15899156159E+04  0.47000000000E+01 0. -1.
         -5   -1    0    0    0  501 -0.00000000000E+00 -0.00000000000E+00 -0.18243886805E+03  0.18249939883E+03  0.47000000000E+01 0.  1.
          6    1    1    2  502    0  0.13736235566E+03  0.37277067228E+03  0.12310296014E+04  0.13049307531E+04  0.17200000000E+03 0. -1.
         -6    1    1    2    0  502 -0.13736235566E+03 -0.37277067228E+03  0.17644019955E+03  0.46748426164E+03  0.17200000000E+03 0.  1.
</event>
<event>
 4    1 -0.3305908E-004  0.2909380E+03  0.7818608E-02  0.1089860E+00
          5   -1    0    0  501    0  0.00000000000E+00  0.00000000000E+00  0.98379643525E+02  0.98491848698E+02  0.47000000000E+01 0. -1.
         -5   -1    0    0    0  501 -0.00000000000E+00 -0.00000000000E+00 -0.94127106568E+03  0.94128279974E+03  0.47000000000E+01 0.  1.
          6    1    1    2  502    0 -0.19880766366E+03 -0.12464514788E+03 -0.26848691576E+03  0.39589155580E+03  0.17200000000E+03 0. -1.
         -6    1    1    2    0  502  0.19880766366E+03  0.12464514788E+03 -0.57440450640E+03  0.64388309264E+03  0.17200000000E+03 0.  1.
</event>
<event>
 4    1 -0.3305908E-004  0.2247356E+03  0.7818608E-02  0.1130401E+00
         -5   -1    0    0    0  501 -0.00000000000E+00  0.00000000000E+00  0.43964726117E+02  0.44215236543E+02  0.47000000000E+01 0.  1.
          5   -1    0    0  501    0  0.00000000000E+00 -0.00000000000E+00 -0.12288394719E+04  0.12288484600E+04  0.47000000000E+01 0. -1.
          6    1    1    2  502    0 -0.76285889079E+02 -0.12289235640E+03 -0.75841812369E+03  0.79101461331E+03  0.17200000000E+03 0. -1.
         -6    1    1    2    0  502  0.76285889079E+02  0.12289235640E+03 -0.42645662208E+03  0.48204908324E+03  0.17200000000E+03 0.  1.
</event>
<event>
 4    1 -0.3305908E-004  0.2951168E+03  0.7818608E-02  0.1087707E+00
         -5   -1    0    0    0  501 -0.00000000000E+00  0.00000000000E+00  0.14995090618E+03  0.15002454554E+03  0.47000000000E+01 0.  1.
          5   -1    0    0  501    0  0.00000000000E+00 -0.00000000000E+00 -0.59463149123E+03  0.59465006547E+03  0.47000000000E+01 0. -1.
          6    1    1    2  502    0 -0.17883865289E+03  0.15977070364E+03 -0.27955077177E+03  0.40650040038E+03  0.17200000000E+03 0. -1.
         -6    1    1    2    0  502  0.17883865289E+03 -0.15977070364E+03 -0.16512981328E+03  0.33817421064E+03  0.17200000000E+03 0.  1.
</event>
<event>
 4    1 -0.3305908E-004  0.1887163E+03  0.7818608E-02  0.1159624E+00
         -5   -1    0    0    0  501 -0.00000000000E+00  0.00000000000E+00  0.13255019820E+03  0.13263349895E+03  0.47000000000E+01 0.  1.
          5   -1    0    0  501    0  0.00000000000E+00 -0.00000000000E+00 -0.35841473169E+03  0.35844554662E+03  0.47000000000E+01 0. -1.
          6    1    1    2  502    0  0.55407652008E+02  0.54404392005E+02 -0.23589879662E+03  0.30209615691E+03  0.17200000000E+03 0. -1.
         -6    1    1    2    0  502 -0.55407652008E+02 -0.54404392005E+02  0.10034263131E+02  0.18898288866E+03  0.17200000000E+03 0.  1.
</event>
<event>
 4    1 -0.3305908E-004  0.6006096E+03  0.7818608E-02  0.9904142E-01
         -5   -1    0    0    0  501 -0.00000000000E+00  0.00000000000E+00  0.66542738613E+03  0.66544398428E+03  0.47000000000E+01 0.  1.
          5   -1    0    0  501    0  0.00000000000E+00 -0.00000000000E+00 -0.58781440761E+03  0.58783319726E+03  0.47000000000E+01 0. -1.
          6    1    1    2  502    0  0.56312946210E+03  0.11846149974E+03  0.21360707175E+03  0.63746364532E+03  0.17200000000E+03 0.  1.
         -6    1    1    2    0  502 -0.56312946210E+03 -0.11846149974E+03 -0.13599409323E+03  0.61581353622E+03  0.17200000000E+03 0. -1.
</event>
<event>
 4    1 -0.3305908E-004  0.4179336E+03  0.7818608E-02  0.1037741E+00
          5   -1    0    0  501    0  0.00000000000E+00  0.00000000000E+00  0.70572593384E+03  0.70574158421E+03  0.47000000000E+01 0. -1.
         -5   -1    0    0    0  501 -0.00000000000E+00 -0.00000000000E+00 -0.26638355564E+03  0.26642501518E+03  0.47000000000E+01 0.  1.
          6    1    1    2  502    0  0.28426242595E+03 -0.25353372918E+03  0.34920924178E+03  0.54462424954E+03  0.17200000000E+03 0. -1.
         -6    1    1    2    0  502 -0.28426242595E+03  0.25353372918E+03  0.90133136419E+02  0.42754234986E+03  0.17200000000E+03 0.  1.
</event>
<event>
 4    1 -0.3305908E-004  0.1780337E+03  0.7818608E-02  0.1169720E+00
         -5   -1    0    0    0  501 -0.00000000000E+00  0.00000000000E+00  0.67529352847E+02  0.67692713758E+02  0.47000000000E+01 0.  1.
          5   -1    0    0  501    0  0.00000000000E+00 -0.00000000000E+00 -0.48243171437E+03  0.48245460826E+03  0.47000000000E+01 0. -1.
          6    1    1    2  502    0 -0.30453392975E+02  0.34417808080E+02 -0.25397851905E+03  0.31016299392E+03  0.17200000000E+03 0. -1.
         -6    1    1    2    0  502  0.30453392975E+02 -0.34417808080E+02 -0.16092384247E+03  0.23998432810E+03  0.17200000000E+03 0.  1.
</event>
<event>
 4    1 -0.3305908E-004  0.1785353E+03  0.7818608E-02  0.1169228E+00
          5   -1    0    0  501    0  0.00000000000E+00  0.00000000000E+00  0.23828408916E+03  0.23833043689E+03  0.47000000000E+01 0. -1.
         -5   -1    0    0    0  501 -0.00000000000E+00 -0.00000000000E+00 -0.16384487465E+03  0.16391227212E+03  0.47000000000E+01 0.  1.
          6    1    1    2  502    0  0.37659414476E+02  0.29540124964E+02  0.12350174802E+03  0.21708876582E+03  0.17200000000E+03 0. -1.
         -6    1    1    2    0  502 -0.37659414476E+02 -0.29540124964E+02 -0.49062533512E+02  0.18515394318E+03  0.17200000000E+03 0.  1.
</event>
<event>
 4    1 -0.3305908E-004  0.3173543E+03  0.7818608E-02  0.1076873E+00
          5   -1    0    0  501    0  0.00000000000E+00  0.00000000000E+00  0.12174738161E+03  0.12183806847E+03  0.47000000000E+01 0. -1.
         -5   -1    0    0    0  501 -0.00000000000E+00 -0.00000000000E+00 -0.84193432424E+03  0.84194744273E+03  0.47000000000E+01 0.  1.
          6    1    1    2  502    0 -0.33419648744E+02 -0.26459950980E+03 -0.29555318341E+03  0.43366514471E+03  0.17200000000E+03 0. -1.
         -6    1    1    2    0  502  0.33419648744E+02  0.26459950980E+03 -0.42463375921E+03  0.53012036649E+03  0.17200000000E+03 0.  1.
</event>
<event>
 4    1 -0.3305908E-004  0.1820149E+03  0.7818608E-02  0.1165867E+00
         -5   -1    0    0    0  501 -0.00000000000E+00  0.00000000000E+00  0.57474446059E+03  0.57476367751E+03  0.47000000000E+01 0.  1.
          5   -1    0    0  501    0  0.00000000000E+00 -0.00000000000E+00 -0.60346844267E+02  0.60529592870E+02  0.47000000000E+01 0. -1.
          6    1    1    2  502    0 -0.57840797135E+02 -0.14136950317E+02  0.32575833640E+03  0.37315935592E+03  0.17200000000E+03 0. -1.
         -6    1    1    2    0  502  0.57840797135E+02  0.14136950317E+02  0.18863927993E+03  0.26213391446E+03  0.17200000000E+03 0. -1.
</event>
<event>
 4    1 -0.3305908E-004  0.2437195E+03  0.7818608E-02  0.1117340E+00
          5   -1    0    0  501    0  0.00000000000E+00  0.00000000000E+00  0.99237552822E+02  0.99348789072E+02  0.47000000000E+01 0. -1.
         -5   -1    0    0    0  501 -0.00000000000E+00 -0.00000000000E+00 -0.61324283779E+03  0.61326084834E+03  0.47000000000E+01 0.  1.
          6    1    1    2  502    0 -0.61427426624E+02 -0.16137488520E+03 -0.20101825495E+03  0.31592328363E+03  0.17200000000E+03 0. -1.
         -6    1    1    2    0  502  0.61427426624E+02  0.16137488520E+03 -0.31298703002E+03  0.39668635378E+03  0.17200000000E+03 0. -1.
</event>
<event>
 4    1 -0.3305908E-004  0.2826180E+03  0.7818608E-02  0.1094268E+00
         -5   -1    0    0    0  501 -0.00000000000E+00  0.00000000000E+00  0.59332669692E+03  0.59334531201E+03  0.47000000000E+01 0.  1.
          5   -1    0    0  501    0  0.00000000000E+00 -0.00000000000E+00 -0.14575292056E+03  0.14582867980E+03  0.47000000000E+01 0. -1.
          6    1    1    2  502    0  0.12627491905E+03  0.18532022768E+03  0.12138890437E+03  0.30758447307E+03  0.17200000000E+03 0. -1.
         -6    1    1    2    0  502 -0.12627491905E+03 -0.18532022768E+03  0.32618487199E+03  0.43158951874E+03  0.17200000000E+03 0.  1.
</event>
<event>
 4    1 -0.3305908E-004  0.2240313E+03  0.7818608E-02  0.1130913E+00
          5   -1    0    0  501    0  0.00000000000E+00  0.00000000000E+00  0.30611619846E+04  0.30611655927E+04  0.47000000000E+01 0. -1.
         -5   -1    0    0    0  501 -0.00000000000E+00 -0.00000000000E+00 -0.26389000855E+02  0.26804278877E+02  0.47000000000E+01 0.  1.
          6    1    1    2  502    0  0.12110136610E+03  0.77074581793E+02  0.24736913159E+04  0.24838153632E+04  0.17200000000E+03 0. -1.
         -6    1    1    2    0  502 -0.12110136610E+03 -0.77074581793E+02  0.56108166791E+03  0.60415450846E+03  0.17200000000E+03 0.  1.
</event>
<event>
 4    1 -0.3305908E-004  0.2170785E+03  0.7818608E-02  0.1136080E+00
         -5   -1    0    0    0  501 -0.00000000000E+00  0.00000000000E+00  0.70285333150E+03  0.70286904584E+03  0.47000000000E+01 0.  1.
          5   -1    0    0  501    0  0.00000000000E+00 -0.00000000000E+00 -0.75540301445E+02  0.75686373558E+02  0.47000000000E+01 0. -1.
          6    1    1    2  502    0 -0.85179191219E+02 -0.10140797082E+03  0.44480722639E+03  0.49495104790E+03  0.17200000000E+03 0. -1.
         -6    1    1    2    0  502  0.85179191219E+02  0.10140797082E+03  0.18250580366E+03  0.28360437150E+03  0.17200000000E+03 0.  1.
</event>
<event>
 4    1 -0.3305908E-004  0.2920227E+03  0.7818608E-02  0.1089298E+00
          5   -1    0    0  501    0  0.00000000000E+00  0.00000000000E+00  0.44991122358E+03  0.44993577219E+03  0.47000000000E+01 0. -1.
         -5   -1    0    0    0  501 -0.00000000000E+00 -0.00000000000E+00 -0.20788344933E+03  0.20793657327E+03  0.47000000000E+01 0.  1.
          6    1    1    2  502    0  0.28450037577E+02  0.23427302117E+03  0.23171798918E+02  0.29294058332E+03  0.17200000000E+03 0. -1.
         -6    1    1    2    0  502 -0.28450037577E+02 -0.23427302117E+03  0.21885597533E+03  0.36493176215E+03  0.17200000000E+03 0.  1.
</event>
<event>
 4    1 -0.3305908E-004  0.2310342E+03  0.7818608E-02  0.1125914E+00
         -5   -1    0    0    0  501 -0.00000000000E+00  0.00000000000E+00  0.26425542434E+03  0.26429721772E+03  0.47000000000E+01 0.  1.
          5   -1    0    0  501    0  0.00000000000E+00 -0.00000000000E+00 -0.22761027578E+03  0.22765879654E+03  0.47000000000E+01 0. -1.
          6    1    1    2  502    0 -0.26991774172E+02 -0.15186914708E+03 -0.64324684540E+02  0.23982172285E+03  0.17200000000E+03 0. -1.
         -6    1    1    2    0  502  0.26991774172E+02  0.15186914708E+03  0.10096983309E+03  0.25213429141E+03  0.17200000000E+03 0.  1.
</event>
<event>
 4    1 -0.3305908E-004  0.4390191E+03  0.7818608E-02  0.1031048E+00
          5   -1    0    0  501    0  0.00000000000E+00  0.00000000000E+00  0.37684735098E+03  0.37687665879E+03  0.47000000000E+01 0. -1.
         -5   -1    0    0    0  501 -0.00000000000E+00 -0.00000000000E+00 -0.88542030607E+03  0.88543278029E+03  0.47000000000E+01 0.  1.
          6    1    1    2  502    0 -0.29589524869E+03 -0.27495417563E+03  0.15592171081E+03  0.46588558338E+03  0.17200000000E+03 0. -1.
         -6    1    1    2    0  502  0.29589524869E+03  0.27495417563E+03 -0.66449466591E+03  0.79642385569E+03  0.17200000000E+03 0.  1.
</event>
<event>
 4    1 -0.3305908E-004  0.2516301E+03  0.7818608E-02  0.1112279E+00
         -5   -1    0    0    0  501 -0.00000000000E+00  0.00000000000E+00  0.13110637742E+03  0.13119059494E+03  0.47000000000E+01 0.  1.
          5   -1    0    0  501    0  0.00000000000E+00 -0.00000000000E+00 -0.60288720714E+03  0.60290552704E+03  0.47000000000E+01 0. -1.
          6    1    1    2  502    0  0.17149016427E+03  0.65763362940E+02 -0.39976037656E+03  0.47236220744E+03  0.17200000000E+03 0. -1.
         -6    1    1    2    0  502 -0.17149016427E+03 -0.65763362940E+02 -0.72020453158E+02  0.26173391454E+03  0.17200000000E+03 0.  1.
</event>
<event>
 4    1 -0.3305908E-004  0.1851595E+03  0.7818608E-02  0.1162901E+00
          5   -1    0    0  501    0  0.00000000000E+00  0.00000000000E+00  0.54321845254E+03  0.54323878468E+03  0.47000000000E+01 0. -1.
         -5   -1    0    0    0  501 -0.00000000000E+00 -0.00000000000E+00 -0.63057161635E+02  0.63232077567E+02  0.47000000000E+01 0.  1.
          6    1    1    2  502    0 -0.34332164680E+02  0.59341036674E+02  0.24888923420E+03  0.31020945676E+03  0.17200000000E+03 0. -1.
         -6    1    1    2    0  502  0.34332164680E+02 -0.59341036674E+02  0.23127205670E+03  0.29626140548E+03  0.17200000000E+03 0.  1.
</event>
<event>
 4    1 -0.3305908E-004  0.2995488E+03  0.7818608E-02  0.1085466E+00
         -5   -1    0    0    0  501 -0.00000000000E+00  0.00000000000E+00  0.15024577175E+03  0.15031926666E+03  0.47000000000E+01 0.  1.
          5   -1    0    0  501    0  0.00000000000E+00 -0.00000000000E+00 -0.64163507166E+03  0.64165228526E+03  0.47000000000E+01 0. -1.
          6    1    1    2  502    0  0.23983275629E+03  0.51242028215E+02 -0.35014132728E+03  0.46079110833E+03  0.17200000000E+03 0. -1.
         -6    1    1    2    0  502 -0.23983275629E+03 -0.51242028215E+02 -0.14124797263E+03  0.33118044359E+03  0.17200000000E+03 0.  1.
</event>
<event>
 4    1 -0.3305908E-004  0.3715871E+03  0.7818608E-02  0.1054088E+00
          5   -1    0    0  501    0  0.00000000000E+00  0.00000000000E+00  0.24371800238E+03  0.24376331693E+03  0.47000000000E+01 0. -1.
         -5   -1    0    0    0  501 -0.00000000000E+00 -0.00000000000E+00 -0.57009669021E+03  0.57011606378E+03  0.47000000000E+01 0.  1.
          6    1    1    2  502    0 -0.11982418189E+03 -0.30681446137E+03 -0.19579570160E+03  0.42001536286E+03  0.17200000000E+03 0. -1.
         -6    1    1    2    0  502  0.11982418189E+03  0.30681446137E+03 -0.13058298623E+03  0.39386401786E+03  0.17200000000E+03 0. -1.
</event>
<event>
 4    1 -0.3305908E-004  0.3376278E+03  0.7818608E-02  0.1067811E+00
         -5   -1    0    0    0  501 -0.00000000000E+00  0.00000000000E+00  0.23599066525E+03  0.23603746331E+03  0.47000000000E+01 0.  1.
          5   -1    0    0  501    0  0.00000000000E+00 -0.00000000000E+00 -0.64205981692E+03  0.64207701914E+03  0.47000000000E+01 0. -1.
          6    1    1    2  502    0 -0.10916263861E+03 -0.26924353804E+03 -0.42160097984E+03  0.54012956839E+03  0.17200000000E+03 0. -1.
         -6    1    1    2    0  502  0.10916263861E+03  0.26924353804E+03  0.15531828173E+02  0.33798491406E+03  0.17200000000E+03 0.  1.
</event>
<event>
 4    1 -0.3305908E-004  0.1724673E+03  0.7818608E-02  0.1175299E+00
          5   -1    0    0  501    0  0.00000000000E+00  0.00000000000E+00  0.46644576596E+03  0.46646944442E+03  0.47000000000E+01 0. -1.
         -5   -1    0    0    0  501 -0.00000000000E+00 -0.00000000000E+00 -0.76367026378E+02  0.76511520164E+02  0.47000000000E+01 0.  1.
          6    1    1    2  502    0 -0.66192365582E+01 -0.10824484670E+02  0.84415781274E+02  0.19201824884E+03  0.17200000000E+03 0.  1.
         -6    1    1    2    0  502  0.66192365582E+01  0.10824484670E+02  0.30566295830E+03  0.35096271574E+03  0.17200000000E+03 0. -1.
</event>
<event>
 4    1 -0.3305908E-004  0.4446290E+03  0.7818608E-02  0.1029336E+00
          5   -1    0    0  501    0  0.00000000000E+00  0.00000000000E+00  0.89408182277E+02  0.89531631606E+02  0.47000000000E+01 0. -1.
         -5   -1    0    0    0  501 -0.00000000000E+00 -0.00000000000E+00 -0.22351628309E+04  0.22351677724E+04  0.47000000000E+01 0.  1.
          6    1    1    2  502    0 -0.90066125549E+02  0.39999875849E+03 -0.11974242033E+04  0.12773095304E+04  0.17200000000E+03 0. -1.
         -6    1    1    2    0  502  0.90066125549E+02 -0.39999875849E+03 -0.94833044531E+03  0.10473898736E+04  0.17200000000E+03 0. -1.
</event>
<event>
 4    1 -0.3305908E-004  0.1767963E+03  0.7818608E-02  0.1170940E+00
          5   -1    0    0  501    0  0.00000000000E+00  0.00000000000E+00  0.91381607111E+02  0.91502394057E+02  0.47000000000E+01 0. -1.
         -5   -1    0    0    0  501 -0.00000000000E+00 -0.00000000000E+00 -0.34193498482E+03  0.34196728476E+03  0.47000000000E+01 0.  1.
          6    1    1    2  502    0  0.40528519029E+02 -0.55111262553E+01 -0.13112924075E+03  0.22011772111E+03  0.17200000000E+03 0. -1.
         -6    1    1    2    0  502 -0.40528519029E+02  0.55111262553E+01 -0.11942413696E+03  0.21335195770E+03  0.17200000000E+03 0. -1.
</event>
<event>
 4    1 -0.3305908E-004  0.4227436E+03  0.7818608E-02  0.1036177E+00
         -5   -1    0    0    0  501 -0.00000000000E+00  0.00000000000E+00  0.92121149408E+02  0.92240967949E+02  0.47000000000E+01 0.  1.
          5   -1    0    0  501    0  0.00000000000E+00 -0.00000000000E+00 -0.19542695052E+04  0.19542751569E+04  0.47000000000E+01 0. -1.
          6    1    1    2  502    0  0.17284787968E+03  0.34532844907E+03 -0.10227414142E+04  0.11066671259E+04  0.17200000000E+03 0. -1.
         -6    1    1    2    0  502 -0.17284787968E+03 -0.34532844907E+03 -0.83940694158E+03  0.93984899895E+03  0.17200000000E+03 0.  1.
</event>
<event>
 4    1 -0.3305908E-004  0.2537181E+03  0.7818608E-02  0.1110977E+00
         -5   -1    0    0    0  501 -0.00000000000E+00  0.00000000000E+00  0.20696916814E+03  0.20702252670E+03  0.47000000000E+01 0.  1.
          5   -1    0    0  501    0  0.00000000000E+00 -0.00000000000E+00 -0.31354316428E+03  0.31357838871E+03  0.47000000000E+01 0. -1.
          6    1    1    2  502    0 -0.39528268832E+02 -0.18228103306E+03 -0.29459315556E+02  0.25542261122E+03  0.17200000000E+03 0. -1.
         -6    1    1    2    0  502  0.39528268832E+02  0.18228103306E+03 -0.77114680581E+02  0.26517830418E+03  0.17200000000E+03 0.  1.
</event>
<event>
 4    1 -0.3305908E-004  0.1973526E+03  0.7818608E-02  0.1151992E+00
          5   -1    0    0  501    0  0.00000000000E+00  0.00000000000E+00  0.12567639610E+03  0.12576424983E+03  0.47000000000E+01 0. -1.
         -5   -1    0    0    0  501 -0.00000000000E+00 -0.00000000000E+00 -0.32814670253E+03  0.32818035953E+03  0.47000000000E+01 0.  1.
          6    1    1    2  502    0 -0.40131786816E+01  0.96684751215E+02 -0.47421265725E+02  0.20297000558E+03  0.17200000000E+03 0. -1.
         -6    1    1    2    0  502  0.40131786816E+01 -0.96684751215E+02 -0.15504904071E+03  0.25097460378E+03  0.17200000000E+03 0.  1.
</event>
<event>
 4    1 -0.3305908E-004  0.1752194E+03  0.7818608E-02  0.1172512E+00
          5   -1    0    0  501    0  0.00000000000E+00  0.00000000000E+00  0.69096664167E+03  0.69098262634E+03  0.47000000000E+01 0. -1.
         -5   -1    0    0    0  501 -0.00000000000E+00 -0.00000000000E+00 -0.63125404977E+02  0.63300132334E+02  0.47000000000E+01 0.  1.
          6    1    1    2  502    0  0.27302891423E+02 -0.19297662037E+02  0.10829341503E+03  0.20598376484E+03  0.17200000000E+03 0.  1.
         -6    1    1    2    0  502 -0.27302891423E+02  0.19297662037E+02  0.51954782166E+03  0.54829899383E+03  0.17200000000E+03 0.  1.
</event>
<event>
 4    1 -0.3305908E-004  0.1963121E+03  0.7818608E-02  0.1152888E+00
         -5   -1    0    0    0  501 -0.00000000000E+00  0.00000000000E+00  0.77439881182E+03  0.77441307437E+03  0.47000000000E+01 0.  1.
          5   -1    0    0  501    0  0.00000000000E+00 -0.00000000000E+00 -0.12751114655E+03  0.12759773703E+03  0.47000000000E+01 0. -1.
          6    1    1    2  502    0  0.12296432467E+02 -0.93825661390E+02 -0.28772336712E+02  0.19840943613E+03  0.17200000000E+03 0.  1.
         -6    1    1    2    0  502 -0.12296432467E+02  0.93825661390E+02  0.67566000199E+03  0.70360137526E+03  0.17200000000E+03 0.  1.
</event>
<event>
 4    1 -0.3305908E-004  0.2089415E+03  0.7818608E-02  0.1142407E+00
         -5   -1    0    0    0  501 -0.00000000000E+00  0.00000000000E+00  0.22866027703E+03  0.22870857503E+03  0.47000000000E+01 0.  1.
          5   -1    0    0  501    0  0.00000000000E+00 -0.00000000000E+00 -0.35911781765E+03  0.35914857226E+03  0.47000000000E+01 0. -1.
          6    1    1    2  502    0 -0.10610658534E+03  0.53046545656E+02  0.13595786938E+03  0.24928113788E+03  0.17200000000E+03 0.  1.
         -6    1    1    2    0  502  0.10610658534E+03 -0.53046545656E+02 -0.26641541000E+03  0.33857600940E+03  0.17200000000E+03 0. -1.
</event>
<event>
 4    1 -0.3305908E-004  0.3740165E+03  0.7818608E-02  0.1053168E+00
          5   -1    0    0  501    0  0.00000000000E+00  0.00000000000E+00  0.44896920913E+03  0.44899380925E+03  0.47000000000E+01 0. -1.
         -5   -1    0    0    0  501 -0.00000000000E+00 -0.00000000000E+00 -0.36217769277E+03  0.36220818757E+03  0.47000000000E+01 0.  1.
          6    1    1    2  502    0  0.10993541846E+03  0.31339843419E+03  0.19506623074E+03  0.42182841199E+03  0.17200000000E+03 0. -1.
         -6    1    1    2    0  502 -0.10993541846E+03 -0.31339843419E+03 -0.10827471439E+03  0.38937358483E+03  0.17200000000E+03 0.  1.
</event>
<event>
 4    1 -0.3305908E-004  0.2847064E+03  0.7818608E-02  0.1093146E+00
          5   -1    0    0  501    0  0.00000000000E+00  0.00000000000E+00  0.88393909449E+03  0.88395158961E+03  0.47000000000E+01 0. -1.
         -5   -1    0    0    0  501 -0.00000000000E+00 -0.00000000000E+00 -0.12888104120E+03  0.12896671191E+03  0.47000000000E+01 0.  1.
          6    1    1    2  502    0 -0.13393488413E+03 -0.18312608089E+03  0.64969940830E+03  0.70934267871E+03  0.17200000000E+03 0. -1.
         -6    1    1    2    0  502  0.13393488413E+03  0.18312608089E+03  0.10535864499E+03  0.30357562281E+03  0.17200000000E+03 0.  1.
</event>
<event>
 4    1 -0.3305908E-004  0.1748509E+03  0.7818608E-02  0.1172882E+00
         -5   -1    0    0    0  501 -0.00000000000E+00  0.00000000000E+00  0.58434795702E+02  0.58623505088E+02  0.47000000000E+01 0.  1.
          5   -1    0    0  501    0  0.00000000000E+00 -0.00000000000E+00 -0.53393740394E+03  0.53395808948E+03  0.47000000000E+01 0. -1.
          6    1    1    2  502    0  0.29517965671E+01  0.31306730271E+02 -0.19374191596E+03  0.26097654006E+03  0.17200000000E+03 0. -1.
         -6    1    1    2    0  502 -0.29517965671E+01 -0.31306730271E+02 -0.28176069227E+03  0.33160505451E+03  0.17200000000E+03 0. -1.
</event>
<event>
 4    1 -0.3305908E-004  0.2363786E+03  0.7818608E-02  0.1122229E+00
          5   -1    0    0  501    0  0.00000000000E+00  0.00000000000E+00  0.11038844475E+04  0.11038944530E+04  0.47000000000E+01 0. -1.
         -5   -1    0    0    0  501 -0.00000000000E+00 -0.00000000000E+00 -0.61129771895E+02  0.61310186852E+02  0.47000000000E+01 0.  1.
          6    1    1    2  502    0 -0.13156392856E+03  0.94772219080E+02  0.76393917388E+03  0.79967362230E+03  0.17200000000E+03 0. -1.
         -6    1    1    2    0  502  0.13156392856E+03 -0.94772219080E+02  0.27881550168E+03  0.36553101754E+03  0.17200000000E+03 0.  1.
</event>
<event>
 4    1 -0.3305908E-004  0.2088577E+03  0.7818608E-02  0.1142474E+00
         -5   -1    0    0    0  501 -0.00000000000E+00  0.00000000000E+00  0.13583682106E+04  0.13583763416E+04  0.47000000000E+01 0.  1.
          5   -1    0    0  501    0  0.00000000000E+00 -0.00000000000E+00 -0.32641559893E+02  0.32978196316E+02  0.47000000000E+01 0. -1.
          6    1    1    2  502    0  0.96831641395E+02  0.68272743227E+02  0.56090544305E+03  0.59852857098E+03  0.17200000000E+03 0. -1.
         -6    1    1    2    0  502 -0.96831641395E+02 -0.68272743227E+02  0.76482120763E+03  0.79282596696E+03  0.17200000000E+03 0.  1.
</event>
<event>
 4    1 -0.3305908E-004  0.2847466E+03  0.7818608E-02  0.1093124E+00
         -5   -1    0    0    0  501 -0.00000000000E+00  0.00000000000E+00  0.14242260394E+04  0.14242337945E+04  0.47000000000E+01 0.  1.
          5   -1    0    0  501    0  0.00000000000E+00 -0.00000000000E+00 -0.67852454224E+02  0.68015039103E+02  0.47000000000E+01 0. -1.
          6    1    1    2  502    0 -0.22214911462E+03 -0.46329491481E+02  0.37780233378E+03  0.47309116914E+03  0.17200000000E+03 0. -1.
         -6    1    1    2    0  502  0.22214911462E+03  0.46329491481E+02  0.97857125142E+03  0.10191576645E+04  0.17200000000E+03 0.  1.
</event>
<event>
 4    1 -0.3305908E-004  0.2054542E+03  0.7818608E-02  0.1145217E+00
         -5   -1    0    0    0  501 -0.00000000000E+00  0.00000000000E+00  0.30446353055E+03  0.30449980532E+03  0.47000000000E+01 0.  1.
          5   -1    0    0  501    0  0.00000000000E+00 -0.00000000000E+00 -0.13898267202E+03  0.13906211965E+03  0.47000000000E+01 0. -1.
          6    1    1    2  502    0 -0.10217845742E+03 -0.46765196579E+02  0.95000837369E+02  0.22635498641E+03  0.17200000000E+03 0. -1.
         -6    1    1    2    0  502  0.10217845742E+03  0.46765196579E+02  0.70480021165E+02  0.21720693855E+03  0.17200000000E+03 0.  1.
</event>
<event>
 4    1 -0.3305908E-004  0.2495240E+03  0.7818608E-02  0.1113606E+00
         -5   -1    0    0    0  501 -0.00000000000E+00  0.00000000000E+00  0.79772524762E+03  0.79773909312E+03  0.47000000000E+01 0.  1.
          5   -1    0    0  501    0  0.00000000000E+00 -0.00000000000E+00 -0.11743248562E+03  0.11752650203E+03  0.47000000000E+01 0. -1.
          6    1    1    2  502    0 -0.14365039847E+03  0.10973957681E+03  0.74989580829E+02  0.26054874579E+03  0.17200000000E+03 0. -1.
         -6    1    1    2    0  502  0.14365039847E+03 -0.10973957681E+03  0.60530318117E+03  0.65471684936E+03  0.17200000000E+03 0.  1.
</event>
<event>
 4    1 -0.3305908E-004  0.1896258E+03  0.7818608E-02  0.1158799E+00
          5   -1    0    0  501    0  0.00000000000E+00  0.00000000000E+00  0.16180142028E+03  0.16186966857E+03  0.47000000000E+01 0. -1.
         -5   -1    0    0    0  501 -0.00000000000E+00 -0.00000000000E+00 -0.23629448984E+03  0.23634122773E+03  0.47000000000E+01 0.  1.
          6    1    1    2  502    0  0.17556091614E+02  0.77882867831E+02  0.11549388661E+02  0.18997722451E+03  0.17200000000E+03 0. -1.
         -6    1    1    2    0  502 -0.17556091614E+02 -0.77882867831E+02 -0.86042458217E+02  0.20823367180E+03  0.17200000000E+03 0.  1.
</event>
<event>
 4    1 -0.3305908E-004  0.1911780E+03  0.7818608E-02  0.1157403E+00
         -5   -1    0    0    0  501 -0.00000000000E+00  0.00000000000E+00  0.44674967908E+02  0.44921517757E+02  0.47000000000E+01 0.  1.
          5   -1    0    0  501    0  0.00000000000E+00 -0.00000000000E+00 -0.12700489616E+04  0.12700576581E+04  0.47000000000E+01 0. -1.
          6    1    1    2  502    0 -0.62169229201E+02 -0.55677643214E+02 -0.10059425236E+04  0.10239479351E+04  0.17200000000E+03 0. -1.
         -6    1    1    2    0  502  0.62169229201E+02  0.55677643214E+02 -0.21943147004E+03  0.29103124069E+03  0.17200000000E+03 0.  1.
</event>
<event>
 4    1 -0.3305908E-004  0.2240250E+03  0.7818608E-02  0.1130917E+00
          5   -1    0    0  501    0  0.00000000000E+00  0.00000000000E+00  0.66594198207E+03  0.66595856739E+03  0.47000000000E+01 0. -1.
         -5   -1    0    0    0  501 -0.00000000000E+00 -0.00000000000E+00 -0.82656485953E+02  0.82790003443E+02  0.47000000000E+01 0.  1.
          6    1    1    2  502    0  0.37413833314E+02  0.13857641218E+03  0.17984869905E+03  0.28728517449E+03  0.17200000000E+03 0. -1.
         -6    1    1    2    0  502 -0.37413833314E+02 -0.13857641218E+03  0.40343679707E+03  0.46146339634E+03  0.17200000000E+03 0. -1.
</event>
<event>
 4    1 -0.3305908E-004  0.1776648E+03  0.7818608E-02  0.1170082E+00
          5   -1    0    0  501    0  0.00000000000E+00  0.00000000000E+00  0.52481482529E+02  0.52691517424E+02  0.47000000000E+01 0. -1.
         -5   -1    0    0    0  501 -0.00000000000E+00 -0.00000000000E+00 -0.64161159022E+03  0.64162880445E+03  0.47000000000E+01 0.  1.
          6    1    1    2  502    0 -0.14501818078E+02  0.42076966209E+02 -0.20619798996E+03  0.27218079447E+03  0.17200000000E+03 0. -1.
         -6    1    1    2    0  502  0.14501818078E+02 -0.42076966209E+02 -0.38293211773E+03  0.42213952741E+03  0.17200000000E+03 0. -1.
</event>
<event>
 4    1 -0.3305908E-004  0.1861963E+03  0.7818608E-02  0.1161937E+00
          5   -1    0    0  501    0  0.00000000000E+00  0.00000000000E+00  0.12061933607E+03  0.12071087041E+03  0.47000000000E+01 0. -1.
         -5   -1    0    0    0  501 -0.00000000000E+00 -0.00000000000E+00 -0.48931917263E+03  0.48934174429E+03  0.47000000000E+01 0.  1.
          6    1    1    2  502    0 -0.70682532972E+02 -0.94352902145E+01  0.11663085776E+02  0.18656117693E+03  0.17200000000E+03 0. -1.
         -6    1    1    2    0  502  0.70682532972E+02  0.94352902145E+01 -0.38036292234E+03  0.42349143776E+03  0.17200000000E+03 0.  1.
</event>
<event>
 4    1 -0.3305908E-004  0.2177258E+03  0.7818608E-02  0.1135590E+00
          5   -1    0    0  501    0  0.00000000000E+00  0.00000000000E+00  0.25909498093E+03  0.25913760658E+03  0.47000000000E+01 0. -1.
         -5   -1    0    0    0  501 -0.00000000000E+00 -0.00000000000E+00 -0.59907618434E+03  0.59909462078E+03  0.47000000000E+01 0.  1.
          6    1    1    2  502    0  0.66628232820E+02 -0.11567711490E+03  0.18765773443E+03  0.28743684804E+03  0.17200000000E+03 0. -1.
         -6    1    1    2    0  502 -0.66628232820E+02  0.11567711490E+03 -0.52763893784E+03  0.57079537931E+03  0.17200000000E+03 0.  1.
</event>
<event>
 4    1 -0.3305908E-004  0.3089733E+03  0.7818608E-02  0.1080839E+00
         -5   -1    0    0    0  501 -0.00000000000E+00  0.00000000000E+00  0.46093376771E+03  0.46095772932E+03  0.47000000000E+01 0.  1.
          5   -1    0    0  501    0  0.00000000000E+00 -0.00000000000E+00 -0.21234731663E+03  0.21239932410E+03  0.47000000000E+01 0. -1.
          6    1    1    2  502    0 -0.12235888470E+03  0.22562973961E+03  0.71151562355E+02  0.31705996418E+03  0.17200000000E+03 0. -1.
         -6    1    1    2    0  502  0.12235888470E+03 -0.22562973961E+03  0.17743488873E+03  0.35629708924E+03  0.17200000000E+03 0.  1.
</event>
<event>
 4    1 -0.3305908E-004  0.2054893E+03  0.7818608E-02  0.1145189E+00
         -5   -1    0    0    0  501 -0.00000000000E+00  0.00000000000E+00  0.67657378235E+03  0.67659010705E+03  0.47000000000E+01 0.  1.
          5   -1    0    0  501    0  0.00000000000E+00 -0.00000000000E+00 -0.82468151016E+02  0.82601972930E+02  0.47000000000E+01 0. -1.
          6    1    1    2  502    0  0.28759373922E+02  0.10869561232E+03  0.10955402830E+03  0.23286889626E+03  0.17200000000E+03 0. -1.
         -6    1    1    2    0  502 -0.28759373922E+02 -0.10869561232E+03  0.48455160303E+03  0.52632318373E+03  0.17200000000E+03 0.  1.
</event>
<event>
 4    1 -0.3305908E-004  0.1761270E+03  0.7818608E-02  0.1171605E+00
          5   -1    0    0  501    0  0.00000000000E+00  0.00000000000E+00  0.81022844045E+02  0.81159049139E+02  0.47000000000E+01 0. -1.
         -5   -1    0    0    0  501 -0.00000000000E+00 -0.00000000000E+00 -0.43782431025E+03  0.43784953654E+03  0.47000000000E+01 0.  1.
          6    1    1    2  502    0 -0.20597791195E+02  0.31819098069E+02 -0.86080645672E+02  0.19603724535E+03  0.17200000000E+03 0. -1.
         -6    1    1    2    0  502  0.20597791195E+02 -0.31819098069E+02 -0.27072082054E+03  0.32297134033E+03  0.17200000000E+03 0.  1.
</event>
<event>
 4    1 -0.3305908E-004  0.5674309E+03  0.7818608E-02  0.9975380E-01
         -5   -1    0    0    0  501 -0.00000000000E+00  0.00000000000E+00  0.15643761231E+04  0.15643831834E+04  0.47000000000E+01 0.  1.
          5   -1    0    0  501    0  0.00000000000E+00 -0.00000000000E+00 -0.67281023234E+03  0.67282664836E+03  0.47000000000E+01 0. -1.
          6    1    1    2  502    0  0.50507341843E+03 -0.19311814961E+03 -0.48615575044E+03  0.74721161086E+03  0.17200000000E+03 0. -1.
         -6    1    1    2    0  502 -0.50507341843E+03  0.19311814961E+03  0.13777216412E+04  0.14899982209E+04  0.17200000000E+03 0.  1.
</event>
<event>
 4    1 -0.3305908E-004  0.3313880E+03  0.7818608E-02  0.1070524E+00
         -5   -1    0    0    0  501 -0.00000000000E+00  0.00000000000E+00  0.12281451329E+03  0.12290441276E+03  0.47000000000E+01 0.  1.
          5   -1    0    0  501    0  0.00000000000E+00 -0.00000000000E+00 -0.94449229613E+03  0.94450399018E+03  0.47000000000E+01 0. -1.
          6    1    1    2  502    0 -0.73776291886E+02  0.27347959745E+03 -0.28714656323E+03  0.43848737752E+03  0.17200000000E+03 0. -1.
         -6    1    1    2    0  502  0.73776291886E+02 -0.27347959745E+03 -0.53453121962E+03  0.62892102542E+03  0.17200000000E+03 0.  1.
</event>
<event>
 4    1 -0.3305908E-004  0.3111337E+03  0.7818608E-02  0.1079804E+00
          5   -1    0    0  501    0  0.00000000000E+00  0.00000000000E+00  0.65719905664E+03  0.65721586260E+03  0.47000000000E+01 0. -1.
         -5   -1    0    0    0  501 -0.00000000000E+00 -0.00000000000E+00 -0.15032187764E+03  0.15039533536E+03  0.47000000000E+01 0.  1.
          6    1    1    2  502    0 -0.13059688585E+03 -0.22397458608E+03  0.31122207552E+03  0.44007197377E+03  0.17200000000E+03 0. -1.
         -6    1    1    2    0  502  0.13059688585E+03  0.22397458608E+03  0.19565510348E+03  0.36753922420E+03  0.17200000000E+03 0. -1.
</event>
<event>
 4    1 -0.3305908E-004  0.2447596E+03  0.7818608E-02  0.1116662E+00
         -5   -1    0    0    0  501 -0.00000000000E+00  0.00000000000E+00  0.37851562976E+03  0.37854480841E+03  0.47000000000E+01 0.  1.
          5   -1    0    0  501    0  0.00000000000E+00 -0.00000000000E+00 -0.15904787452E+03  0.15911730387E+03  0.47000000000E+01 0. -1.
          6    1    1    2  502    0 -0.16372672525E+03  0.59302863591E+02  0.90097462865E+02  0.26081568781E+03  0.17200000000E+03 0.  1.
         -6    1    1    2    0  502  0.16372672525E+03 -0.59302863591E+02  0.12937029237E+03  0.27684642447E+03  0.17200000000E+03 0.  1.
</event>
<event>
 4    1 -0.3305908E-004  0.1960882E+03  0.7818608E-02  0.1153082E+00
          5   -1    0    0  501    0  0.00000000000E+00  0.00000000000E+00  0.15741130468E+03  0.15748145554E+03  0.47000000000E+01 0. -1.
         -5   -1    0    0    0  501 -0.00000000000E+00 -0.00000000000E+00 -0.24443444460E+03  0.24447962637E+03  0.47000000000E+01 0.  1.
          6    1    1    2  502    0  0.92536819042E+02 -0.17422256738E+02 -0.50705227755E+02  0.20253794220E+03  0.17200000000E+03 0.  1.
         -6    1    1    2    0  502 -0.92536819042E+02  0.17422256738E+02 -0.36317912175E+02  0.19942313971E+03  0.17200000000E+03 0. -1.
</event>
<event>
 4    1 -0.3305908E-004  0.2545609E+03  0.7818608E-02  0.1110456E+00
          5   -1    0    0  501    0  0.00000000000E+00  0.00000000000E+00  0.23988832083E+03  0.23993435867E+03  0.47000000000E+01 0. -1.
         -5   -1    0    0    0  501 -0.00000000000E+00 -0.00000000000E+00 -0.31685575928E+03  0.31689061550E+03  0.47000000000E+01 0.  1.
          6    1    1    2  502    0  0.13856480126E+03 -0.12655846884E+03  0.68521112211E+02  0.26362168538E+03  0.17200000000E+03 0. -1.
         -6    1    1    2    0  502 -0.13856480126E+03  0.12655846884E+03 -0.14548855066E+03  0.29320328879E+03  0.17200000000E+03 0.  1.
</event>
<event>
 4    1 -0.3305908E-004  0.2021490E+03  0.7818608E-02  0.1147938E+00
         -5   -1    0    0    0  501 -0.00000000000E+00  0.00000000000E+00  0.50005064635E+03  0.50007273363E+03  0.47000000000E+01 0.  1.
          5   -1    0    0  501    0  0.00000000000E+00 -0.00000000000E+00 -0.16326615731E+03  0.16333379357E+03  0.47000000000E+01 0. -1.
          6    1    1    2  502    0 -0.99618963831E+02 -0.36827620467E+02 -0.66075065582E+02  0.21267375455E+03  0.17200000000E+03 0. -1.
         -6    1    1    2    0  502  0.99618963831E+02  0.36827620467E+02  0.40285955463E+03  0.45073277265E+03  0.17200000000E+03 0.  1.
</event>
<event>
 4    1 -0.3305908E-004  0.2183145E+03  0.7818608E-02  0.1135146E+00
         -5   -1    0    0    0  501 -0.00000000000E+00  0.00000000000E+00  0.12801100984E+03  0.12809726242E+03  0.47000000000E+01 0.  1.
          5   -1    0    0  501    0  0.00000000000E+00 -0.00000000000E+00 -0.57192514964E+03  0.57194446128E+03  0.47000000000E+01 0. -1.
          6    1    1    2  502    0  0.12662949084E+03 -0.45190805857E+02 -0.42883439903E+03  0.48120700190E+03  0.17200000000E+03 0. -1.
         -6    1    1    2    0  502 -0.12662949084E+03  0.45190805857E+02 -0.15079740773E+02  0.21883472180E+03  0.17200000000E+03 0.  1.
</event>
<event>
 4    1 -0.3305908E-004  0.1779136E+03  0.7818608E-02  0.1169838E+00
          5   -1    0    0  501    0  0.00000000000E+00  0.00000000000E+00  0.20789889613E+02  0.21314537530E+02  0.47000000000E+01 0. -1.
         -5   -1    0    0    0  501 -0.00000000000E+00 -0.00000000000E+00 -0.15061755960E+04  0.15061829292E+04  0.47000000000E+01 0.  1.
          6    1    1    2  502    0 -0.18985982607E+02  0.41337467616E+02 -0.70780166978E+03  0.72981946912E+03  0.17200000000E+03 0.  1.
         -6    1    1    2    0  502  0.18985982607E+02 -0.41337467616E+02 -0.77758403664E+03  0.79767799757E+03  0.17200000000E+03 0. -1.
</event>
<event>
 4    1 -0.3305908E-004  0.3481964E+03  0.7818608E-02  0.1063358E+00
          5   -1    0    0  501    0  0.00000000000E+00  0.00000000000E+00  0.34418506710E+03  0.34421715590E+03  0.47000000000E+01 0. -1.
         -5   -1    0    0    0  501 -0.00000000000E+00 -0.00000000000E+00 -0.44407319366E+03  0.44409806499E+03  0.47000000000E+01 0.  1.
          6    1    1    2  502    0 -0.23011851338E+03 -0.19672876813E+03  0.12933538509E+03  0.37144095123E+03  0.17200000000E+03 0. -1.
         -6    1    1    2    0  502  0.23011851338E+03  0.19672876813E+03 -0.22922351165E+03  0.41687426966E+03  0.17200000000E+03 0.  1.
</event>
<event>
 4    1 -0.3305908E-004  0.1796325E+03  0.7818608E-02  0.1168159E+00
         -5   -1    0    0    0  501 -0.00000000000E+00  0.00000000000E+00  0.22747669620E+02  0.23228139683E+02  0.47000000000E+01 0.  1.
          5   -1    0    0  501    0  0.00000000000E+00 -0.00000000000E+00 -0.14426876648E+04  0.14426953206E+04  0.47000000000E+01 0. -1.
          6    1    1    2  502    0 -0.10972184732E+02  0.50630437464E+02 -0.58873259168E+03  0.61552733046E+03  0.17200000000E+03 0. -1.
         -6    1    1    2    0  502  0.10972184732E+02 -0.50630437464E+02 -0.83120740348E+03  0.85039612984E+03  0.17200000000E+03 0.  1.
</event>
<event>
 4    1 -0.3305908E-004  0.2171256E+03  0.7818608E-02  0.1136044E+00
          5   -1    0    0  501    0  0.00000000000E+00  0.00000000000E+00  0.58317419728E+03  0.58319313643E+03  0.47000000000E+01 0. -1.
         -5   -1    0    0    0  501 -0.00000000000E+00 -0.00000000000E+00 -0.80820710407E+02  0.80957255578E+02  0.47000000000E+01 0.  1.
          6    1    1    2  502    0 -0.12980781898E+03 -0.26635759526E+02  0.26092318494E+03  0.33944725952E+03  0.17200000000E+03 0.  1.
         -6    1    1    2    0  502  0.12980781898E+03  0.26635759526E+02  0.24143030194E+03  0.32470313249E+03  0.17200000000E+03 0.  1.
</event>
<event>
 4    1 -0.3305908E-004  0.2633927E+03  0.7818608E-02  0.1105122E+00
         -5   -1    0    0    0  501 -0.00000000000E+00  0.00000000000E+00  0.11543202719E+03  0.11552767158E+03  0.47000000000E+01 0.  1.
          5   -1    0    0  501    0  0.00000000000E+00 -0.00000000000E+00 -0.87692901979E+03  0.87694161479E+03  0.47000000000E+01 0. -1.
          6    1    1    2  502    0  0.16732737469E+03 -0.10859667489E+03 -0.65926256930E+03  0.70993156248E+03  0.17200000000E+03 0. -1.
         -6    1    1    2    0  502 -0.16732737469E+03  0.10859667489E+03 -0.10223442330E+03  0.28253772390E+03  0.17200000000E+03 0.  1.
</event>
<event>
 4    1 -0.3305908E-004  0.1857792E+03  0.7818608E-02  0.1162324E+00
          5   -1    0    0  501    0  0.00000000000E+00  0.00000000000E+00  0.51577073186E+02  0.51790775997E+02  0.47000000000E+01 0. -1.
         -5   -1    0    0    0  501 -0.00000000000E+00 -0.00000000000E+00 -0.75291345327E+03  0.75292812280E+03  0.47000000000E+01 0.  1.
          6    1    1    2  502    0  0.56124104355E+02 -0.42190033954E+02 -0.48611548674E+03  0.52040578446E+03  0.17200000000E+03 0.  1.
         -6    1    1    2    0  502 -0.56124104355E+02  0.42190033954E+02 -0.21522089334E+03  0.28431311434E+03  0.17200000000E+03 0. -1.
</event>
<event>
 4    1 -0.3305908E-004  0.2130295E+03  0.7818608E-02  0.1139189E+00
          5   -1    0    0  501    0  0.00000000000E+00  0.00000000000E+00  0.52879541229E+03  0.52881629897E+03  0.47000000000E+01 0. -1.
         -5   -1    0    0    0  501 -0.00000000000E+00 -0.00000000000E+00 -0.17433592921E+03  0.17439927240E+03  0.47000000000E+01 0.  1.
          6    1    1    2  502    0 -0.78309394072E+02  0.98311684257E+02 -0.73347622022E+02  0.22530295630E+03  0.17200000000E+03 0.  1.
         -6    1    1    2    0  502  0.78309394072E+02 -0.98311684257E+02  0.42780710510E+03  0.47791261506E+03  0.17200000000E+03 0. -1.
</event>
<event>
 4    1 -0.3305908E-004  0.2590047E+03  0.7818608E-02  0.1107743E+00
          5   -1    0    0  501    0  0.00000000000E+00  0.00000000000E+00  0.49718087434E+02  0.49939745876E+02  0.47000000000E+01 0. -1.
         -5   -1    0    0    0  501 -0.00000000000E+00 -0.00000000000E+00 -0.13480134452E+04  0.13480216388E+04  0.47000000000E+01 0.  1.
          6    1    1    2  502    0 -0.18273103268E+03 -0.64099928835E+02 -0.62246918015E+03  0.67420420602E+03  0.17200000000E+03 0. -1.
         -6    1    1    2    0  502  0.18273103268E+03  0.64099928835E+02 -0.67582617766E+03  0.72375717861E+03  0.17200000000E+03 0. -1.
</event>
<event>
 4    1 -0.3305908E-004  0.2353168E+03  0.7818608E-02  0.1122953E+00
          5   -1    0    0  501    0  0.00000000000E+00  0.00000000000E+00  0.39950152412E+03  0.39952917011E+03  0.47000000000E+01 0. -1.
         -5   -1    0    0    0  501 -0.00000000000E+00 -0.00000000000E+00 -0.17544106189E+03  0.17550400622E+03  0.47000000000E+01 0.  1.
          6    1    1    2  502    0  0.16042072914E+03 -0.74273261874E+01  0.24386241743E+03  0.33888472103E+03  0.17200000000E+03 0. -1.
         -6    1    1    2    0  502 -0.16042072914E+03  0.74273261874E+01 -0.19801955212E+02  0.23614845530E+03  0.17200000000E+03 0.  1.
</event>
<event>
 4    1 -0.3305908E-004  0.2082437E+03  0.7818608E-02  0.1142964E+00
          5   -1    0    0  501    0  0.00000000000E+00  0.00000000000E+00  0.57420235916E+02  0.57612268595E+02  0.47000000000E+01 0. -1.
         -5   -1    0    0    0  501 -0.00000000000E+00 -0.00000000000E+00 -0.77282042720E+03  0.77283471887E+03  0.47000000000E+01 0.  1.
          6    1    1    2  502    0 -0.10810984619E+03 -0.45757003944E+02 -0.42288498407E+03  0.47137792906E+03  0.17200000000E+03 0. -1.
         -6    1    1    2    0  502  0.10810984619E+03  0.45757003944E+02 -0.29251520721E+03  0.35906905840E+03  0.17200000000E+03 0. -1.
</event>
<event>
 4    1 -0.3305908E-004  0.1927536E+03  0.7818608E-02  0.1156001E+00
         -5   -1    0    0    0  501 -0.00000000000E+00  0.00000000000E+00  0.26908454927E+03  0.26912559272E+03  0.47000000000E+01 0.  1.
          5   -1    0    0  501    0  0.00000000000E+00 -0.00000000000E+00 -0.15289563087E+03  0.15296785264E+03  0.47000000000E+01 0. -1.
          6    1    1    2  502    0 -0.86740705970E+02 -0.67825314281E+01  0.12397849982E+03  0.22918250636E+03  0.17200000000E+03 0.  1.
         -6    1    1    2    0  502  0.86740705970E+02  0.67825314281E+01 -0.77895814240E+01  0.19291093899E+03  0.17200000000E+03 0.  1.
</event>
<event>
 4    1 -0.3305908E-004  0.2113082E+03  0.7818608E-02  0.1140534E+00
         -5   -1    0    0    0  501 -0.00000000000E+00  0.00000000000E+00  0.30827915290E+03  0.30831497874E+03  0.47000000000E+01 0.  1.
          5   -1    0    0  501    0  0.00000000000E+00 -0.00000000000E+00 -0.15822775209E+03  0.15829754114E+03  0.47000000000E+01 0. -1.
          6    1    1    2  502    0 -0.11931640059E+03  0.28822901538E+02  0.14307460372E+03  0.25518915598E+03  0.17200000000E+03 0. -1.
         -6    1    1    2    0  502  0.11931640059E+03 -0.28822901538E+02  0.69767971021E+01  0.21142336389E+03  0.17200000000E+03 0. -1.
</event>
<event>
 4    1 -0.3305908E-004  0.1734896E+03  0.7818608E-02  0.1174257E+00
          5   -1    0    0  501    0  0.00000000000E+00  0.00000000000E+00  0.17211387778E+03  0.17217803845E+03  0.47000000000E+01 0. -1.
         -5   -1    0    0    0  501 -0.00000000000E+00 -0.00000000000E+00 -0.37993362901E+03  0.37996269877E+03  0.47000000000E+01 0.  1.
          6    1    1    2  502    0 -0.14899379468E+02 -0.17107201168E+02 -0.30676050418E+03  0.35242113269E+03  0.17200000000E+03 0.  1.
         -6    1    1    2    0  502  0.14899379468E+02  0.17107201168E+02  0.98940752948E+02  0.19971960453E+03  0.17200000000E+03 0. -1.
</event>
<event>
 4    1 -0.3305908E-004  0.2530161E+03  0.7818608E-02  0.1111413E+00
          5   -1    0    0  501    0  0.00000000000E+00  0.00000000000E+00  0.10974964754E+03  0.10985023958E+03  0.47000000000E+01 0. -1.
         -5   -1    0    0    0  501 -0.00000000000E+00 -0.00000000000E+00 -0.58649209014E+03  0.58651092215E+03  0.47000000000E+01 0.  1.
          6    1    1    2  502    0  0.34595705947E+02 -0.18230823454E+03 -0.26552441613E+03  0.36677018801E+03  0.17200000000E+03 0.  1.
         -6    1    1    2    0  502 -0.34595705947E+02  0.18230823454E+03 -0.21121802647E+03  0.32959097372E+03  0.17200000000E+03 0.  1.
</event>
<event>
 4    1 -0.3305908E-004  0.3480520E+03  0.7818608E-02  0.1063417E+00
          5   -1    0    0  501    0  0.00000000000E+00  0.00000000000E+00  0.13981689164E+03  0.13989586551E+03  0.47000000000E+01 0. -1.
         -5   -1    0    0    0  501 -0.00000000000E+00 -0.00000000000E+00 -0.10796250920E+04  0.10796353224E+04  0.47000000000E+01 0.  1.
          6    1    1    2  502    0 -0.26616584971E+03  0.14391641635E+03 -0.19873354802E+03  0.40079323542E+03  0.17200000000E+03 0. -1.
         -6    1    1    2    0  502  0.26616584971E+03 -0.14391641635E+03 -0.74107465238E+03  0.81873795249E+03  0.17200000000E+03 0.  1.
</event>
<event>
 4    1 -0.3305908E-004  0.2813465E+03  0.7818608E-02  0.1094956E+00
         -5   -1    0    0    0  501 -0.00000000000E+00  0.00000000000E+00  0.36176902125E+03  0.36179955049E+03  0.47000000000E+01 0.  1.
          5   -1    0    0  501    0  0.00000000000E+00 -0.00000000000E+00 -0.21882476321E+03  0.21887523156E+03  0.47000000000E+01 0. -1.
          6    1    1    2  502    0  0.86211034435E+02  0.20527907478E+03  0.77280653579E+02  0.29176727099E+03  0.17200000000E+03 0. -1.
         -6    1    1    2    0  502 -0.86211034435E+02 -0.20527907478E+03  0.65663604463E+02  0.28890751107E+03  0.17200000000E+03 0.  1.
</event>
<event>
 4    1 -0.3305908E-004  0.1776231E+03  0.7818608E-02  0.1170123E+00
          5   -1    0    0  501    0  0.00000000000E+00  0.00000000000E+00  0.22753717771E+03  0.22758571405E+03  0.47000000000E+01 0. -1.
         -5   -1    0    0    0  501 -0.00000000000E+00 -0.00000000000E+00 -0.15884064676E+03  0.15891016664E+03  0.47000000000E+01 0.  1.
          6    1    1    2  502    0 -0.14786456769E+02  0.41801013376E+02  0.10338125325E+03  0.20551799811E+03  0.17200000000E+03 0. -1.
         -6    1    1    2    0  502  0.14786456769E+02 -0.41801013376E+02 -0.34684722302E+02  0.18097788258E+03  0.17200000000E+03 0.  1.
</event>
<event>
 4    1 -0.3305908E-004  0.2483429E+03  0.7818608E-02  0.1114357E+00
         -5   -1    0    0    0  501 -0.00000000000E+00  0.00000000000E+00  0.34242846929E+02  0.34563891069E+02  0.47000000000E+01 0.  1.
          5   -1    0    0  501    0  0.00000000000E+00 -0.00000000000E+00 -0.20783670002E+04  0.20783723145E+04  0.47000000000E+01 0. -1.
          6    1    1    2  502    0 -0.62253438007E+02 -0.16797232213E+03 -0.63018172884E+03  0.67735013317E+03  0.17200000000E+03 0. -1.
         -6    1    1    2    0  502  0.62253438007E+02  0.16797232213E+03 -0.14139424245E+04  0.14355860724E+04  0.17200000000E+03 0. -1.
</event>
<event>
 4    1 -0.3305908E-004  0.5284812E+03  0.7818608E-02  0.1006601E+00
         -5   -1    0    0    0  501 -0.00000000000E+00  0.00000000000E+00  0.20394743693E+03  0.20400158585E+03  0.47000000000E+01 0.  1.
          5   -1    0    0  501    0  0.00000000000E+00 -0.00000000000E+00 -0.15054654707E+04  0.15054728072E+04  0.47000000000E+01 0. -1.
          6    1    1    2  502    0 -0.49132531922E+03 -0.91146984613E+02 -0.90791245754E+03  0.10505224284E+04  0.17200000000E+03 0. -1.
         -6    1    1    2    0  502  0.49132531922E+03  0.91146984613E+02 -0.39360557620E+03  0.65895196465E+03  0.17200000000E+03 0.  1.
</event>
<event>
 4    1 -0.3305908E-004  0.1855859E+03  0.7818608E-02  0.1162504E+00
          5   -1    0    0  501    0  0.00000000000E+00  0.00000000000E+00  0.28197312138E+03  0.28201228906E+03  0.47000000000E+01 0. -1.
         -5   -1    0    0    0  501 -0.00000000000E+00 -0.00000000000E+00 -0.14083945296E+03  0.14091785377E+03  0.47000000000E+01 0.  1.
          6    1    1    2  502    0 -0.69388627936E+02  0.65826697541E+01  0.14776337134E+03  0.23722589896E+03  0.17200000000E+03 0. -1.
         -6    1    1    2    0  502  0.69388627936E+02 -0.65826697541E+01 -0.66297029315E+01  0.18570424386E+03  0.17200000000E+03 0.  1.
</event>
<event>
 4    1 -0.3305908E-004  0.3205156E+03  0.7818608E-02  0.1075412E+00
         -5   -1    0    0    0  501 -0.00000000000E+00  0.00000000000E+00  0.77863865410E+03  0.77865283899E+03  0.47000000000E+01 0.  1.
          5   -1    0    0  501    0  0.00000000000E+00 -0.00000000000E+00 -0.14662987685E+03  0.14670518322E+03  0.47000000000E+01 0. -1.
          6    1    1    2  502    0  0.23636273530E+03 -0.13144927276E+03  0.46270992471E+03  0.56287718765E+03  0.17200000000E+03 0. -1.
         -6    1    1    2    0  502 -0.23636273530E+03  0.13144927276E+03  0.16929885254E+03  0.36248083456E+03  0.17200000000E+03 0. -1.
</event>
<event>
 4    1 -0.3305908E-004  0.1886973E+03  0.7818608E-02  0.1159642E+00
          5   -1    0    0  501    0  0.00000000000E+00  0.00000000000E+00  0.28996176629E+03  0.28999985502E+03  0.47000000000E+01 0. -1.
         -5   -1    0    0    0  501 -0.00000000000E+00 -0.00000000000E+00 -0.13291276575E+03  0.13299583940E+03  0.47000000000E+01 0.  1.
          6    1    1    2  502    0 -0.41204419468E+02  0.65763627100E+02  0.19944438228E+02  0.18974835823E+03  0.17200000000E+03 0.  1.
         -6    1    1    2    0  502  0.41204419468E+02 -0.65763627100E+02  0.13710456232E+03  0.23324733619E+03  0.17200000000E+03 0.  1.
</event>
<event>
 4    1 -0.3305908E-004  0.1803920E+03  0.7818608E-02  0.1167424E+00
          5   -1    0    0  501    0  0.00000000000E+00  0.00000000000E+00  0.47635729497E+03  0.47638048079E+03  0.47000000000E+01 0. -1.
         -5   -1    0    0    0  501 -0.00000000000E+00 -0.00000000000E+00 -0.10363293724E+03  0.10373946057E+03  0.47000000000E+01 0.  1.
          6    1    1    2  502    0 -0.44054405749E+02 -0.31882312501E+02  0.16901080971E+02  0.18118200533E+03  0.17200000000E+03 0.  1.
         -6    1    1    2    0  502  0.44054405749E+02  0.31882312501E+02  0.35582327677E+03  0.39893793603E+03  0.17200000000E+03 0. -1.
</event>
<event>
 4    1 -0.3305908E-004  0.1851806E+03  0.7818608E-02  0.1162881E+00
          5   -1    0    0  501    0  0.00000000000E+00  0.00000000000E+00  0.59904174053E+02  0.60088268980E+02  0.47000000000E+01 0. -1.
         -5   -1    0    0    0  501 -0.00000000000E+00 -0.00000000000E+00 -0.58836142958E+03  0.58838020176E+03  0.47000000000E+01 0.  1.
          6    1    1    2  502    0 -0.28058334369E+02 -0.62614538991E+02 -0.31931416752E+03  0.36912516603E+03  0.17200000000E+03 0.  1.
         -6    1    1    2    0  502  0.28058334369E+02  0.62614538991E+02 -0.20914308801E+03  0.27934330471E+03  0.17200000000E+03 0.  1.
</event>
<event>
 4    1 -0.3305908E-004  0.1796936E+03  0.7818608E-02  0.1168100E+00
          5   -1    0    0  501    0  0.00000000000E+00  0.00000000000E+00  0.13979094774E+03  0.13986993626E+03  0.47000000000E+01 0. -1.
         -5   -1    0    0    0  501 -0.00000000000E+00 -0.00000000000E+00 -0.24344246445E+03  0.24348783029E+03  0.47000000000E+01 0.  1.
          6    1    1    2  502    0 -0.38089352069E+02  0.35425661163E+02 -0.95464307979E+02  0.20347778824E+03  0.17200000000E+03 0.  1.
         -6    1    1    2    0  502  0.38089352069E+02 -0.35425661163E+02 -0.81872087371E+01  0.17987997831E+03  0.17200000000E+03 0. -1.
</event>
<event>
 4    1 -0.3305908E-004  0.3080978E+03  0.7818608E-02  0.1081261E+00
          5   -1    0    0  501    0  0.00000000000E+00  0.00000000000E+00  0.87339583990E+02  0.87465952985E+02  0.47000000000E+01 0. -1.
         -5   -1    0    0    0  501 -0.00000000000E+00 -0.00000000000E+00 -0.13131085775E+04  0.13131169888E+04  0.47000000000E+01 0.  1.
          6    1    1    2  502    0  0.24874921296E+03  0.58856553599E+02 -0.90415424847E+03  0.95520634937E+03  0.17200000000E+03 0. -1.
         -6    1    1    2    0  502 -0.24874921296E+03 -0.58856553599E+02 -0.32161474502E+03  0.44537659241E+03  0.17200000000E+03 0.  1.
</event>
<event>
 4    1 -0.3305908E-004  0.2257231E+03  0.7818608E-02  0.1129687E+00
          5   -1    0    0  501    0  0.00000000000E+00  0.00000000000E+00  0.40159098741E+02  0.40433194428E+02  0.47000000000E+01 0. -1.
         -5   -1    0    0    0  501 -0.00000000000E+00 -0.00000000000E+00 -0.16664834035E+04  0.16664900312E+04  0.47000000000E+01 0.  1.
          6    1    1    2  502    0 -0.75910873652E+01  0.14597701094E+03 -0.12324854305E+04  0.12529849355E+04  0.17200000000E+03 0.  1.
         -6    1    1    2    0  502  0.75910873652E+01 -0.14597701094E+03 -0.39383887425E+03  0.45393829008E+03  0.17200000000E+03 0. -1.
</event>
<event>
 4    1 -0.3305908E-004  0.2423547E+03  0.7818608E-02  0.1118234E+00
          5   -1    0    0  501    0  0.00000000000E+00  0.00000000000E+00  0.31106000407E+03  0.31109550966E+03  0.47000000000E+01 0. -1.
         -5   -1    0    0    0  501 -0.00000000000E+00 -0.00000000000E+00 -0.24992456502E+03  0.24996875445E+03  0.47000000000E+01 0.  1.
          6    1    1    2  502    0 -0.94412626507E+02 -0.14226049071E+03  0.16933636082E+03  0.29565282741E+03  0.17200000000E+03 0. -1.
         -6    1    1    2    0  502  0.94412626507E+02  0.14226049071E+03 -0.10820092177E+03  0.26541143670E+03  0.17200000000E+03 0.  1.
</event>
<event>
 4    1 -0.3305908E-004  0.1834460E+03  0.7818608E-02  0.1164509E+00
         -5   -1    0    0    0  501 -0.00000000000E+00  0.00000000000E+00  0.89364341606E+02  0.89487851414E+02  0.47000000000E+01 0.  1.
          5   -1    0    0  501    0  0.00000000000E+00 -0.00000000000E+00 -0.43213800085E+03  0.43216355906E+03  0.47000000000E+01 0. -1.
          6    1    1    2  502    0  0.88325621236E+01  0.63169826203E+02 -0.26523033642E+03  0.32248964705E+03  0.17200000000E+03 0. -1.
         -6    1    1    2    0  502 -0.88325621236E+01 -0.63169826203E+02 -0.77543322828E+02  0.19916176343E+03  0.17200000000E+03 0.  1.
</event>
<event>
 4    1 -0.3305908E-004  0.1841615E+03  0.7818608E-02  0.1163835E+00
         -5   -1    0    0    0  501 -0.00000000000E+00  0.00000000000E+00  0.32600224515E+03  0.32603612353E+03  0.47000000000E+01 0.  1.
          5   -1    0    0  501    0  0.00000000000E+00 -0.00000000000E+00 -0.36260711065E+03  0.36263756934E+03  0.47000000000E+01 0. -1.
          6    1    1    2  502    0 -0.55454381654E+02 -0.35443973599E+02 -0.30908811042E+03  0.35979289003E+03  0.17200000000E+03 0. -1.
         -6    1    1    2    0  502  0.55454381654E+02  0.35443973599E+02  0.27248324493E+03  0.32888080284E+03  0.17200000000E+03 0.  1.
</event>
<event>
 4    1 -0.3305908E-004  0.2150112E+03  0.7818608E-02  0.1137658E+00
          5   -1    0    0  501    0  0.00000000000E+00  0.00000000000E+00  0.31718508622E+02  0.32064837271E+02  0.47000000000E+01 0. -1.
         -5   -1    0    0    0  501 -0.00000000000E+00 -0.00000000000E+00 -0.16778537513E+04  0.16778603341E+04  0.47000000000E+01 0.  1.
          6    1    1    2  502    0  0.10815828753E+03  0.70339061469E+02 -0.50751108781E+03  0.55117810459E+03  0.17200000000E+03 0. -1.
         -6    1    1    2    0  502 -0.10815828753E+03 -0.70339061469E+02 -0.11386241549E+04  0.11587470668E+04  0.17200000000E+03 0.  1.
</event>
<event>
 4    1 -0.3305908E-004  0.2854390E+03  0.7818608E-02  0.1092755E+00
          5   -1    0    0  501    0  0.00000000000E+00  0.00000000000E+00  0.12735234299E+03  0.12743904137E+03  0.47000000000E+01 0. -1.
         -5   -1    0    0    0  501 -0.00000000000E+00 -0.00000000000E+00 -0.82172089775E+03  0.82173433894E+03  0.47000000000E+01 0.  1.
          6    1    1    2  502    0 -0.29034097558E+02 -0.22593907315E+03 -0.57068757681E+03  0.63809070979E+03  0.17200000000E+03 0.  1.
         -6    1    1    2    0  502  0.29034097558E+02  0.22593907315E+03 -0.12368097794E+03  0.31108267052E+03  0.17200000000E+03 0. -1.
</event>
<event>
 4    1 -0.3305908E-004  0.3293398E+03  0.7818608E-02  0.1071429E+00
         -5   -1    0    0    0  501 -0.00000000000E+00  0.00000000000E+00  0.58276588532E+03  0.58278483773E+03  0.47000000000E+01 0.  1.
          5   -1    0    0  501    0  0.00000000000E+00 -0.00000000000E+00 -0.18948141760E+03  0.18953969932E+03  0.47000000000E+01 0. -1.
          6    1    1    2  502    0  0.22399686224E+03  0.16942873726E+03  0.24845501123E+03  0.41254646272E+03  0.17200000000E+03 0.  1.
         -6    1    1    2    0  502 -0.22399686224E+03 -0.16942873726E+03  0.14482945648E+03  0.35977807433E+03  0.17200000000E+03 0.  1.
</event>
<event>
 4    1 -0.3305908E-004  0.3539861E+03  0.7818608E-02  0.1060991E+00
         -5   -1    0    0    0  501 -0.00000000000E+00  0.00000000000E+00  0.98571487391E+02  0.98683474435E+02  0.47000000000E+01 0.  1.
          5   -1    0    0  501    0  0.00000000000E+00 -0.00000000000E+00 -0.12726017281E+04  0.12726104071E+04  0.47000000000E+01 0. -1.
          6    1    1    2  502    0 -0.26642103378E+03  0.15729594758E+03 -0.55838964563E+03  0.66113930356E+03  0.17200000000E+03 0. -1.
         -6    1    1    2    0  502  0.26642103378E+03 -0.15729594758E+03 -0.61564059508E+03  0.71015457802E+03  0.17200000000E+03 0.  1.
</event>
<event>
 4    1 -0.3305908E-004  0.1960389E+03  0.7818608E-02  0.1153125E+00
          5   -1    0    0  501    0  0.00000000000E+00  0.00000000000E+00  0.39552607291E+03  0.39555399676E+03  0.47000000000E+01 0. -1.
         -5   -1    0    0    0  501 -0.00000000000E+00 -0.00000000000E+00 -0.34703488357E+03  0.34706670889E+03  0.47000000000E+01 0.  1.
          6    1    1    2  502    0 -0.89551812156E+02 -0.28769940540E+02  0.33932586825E+03  0.39188427042E+03  0.17200000000E+03 0. -1.
         -6    1    1    2    0  502  0.89551812156E+02  0.28769940540E+02 -0.29083467891E+03  0.35073643523E+03  0.17200000000E+03 0.  1.
</event>
<event>
 4    1 -0.3305908E-004  0.3546152E+03  0.7818608E-02  0.1060737E+00
         -5   -1    0    0    0  501 -0.00000000000E+00  0.00000000000E+00  0.13163339682E+04  0.13163423589E+04  0.47000000000E+01 0.  1.
          5   -1    0    0  501    0  0.00000000000E+00 -0.00000000000E+00 -0.11117235869E+03  0.11127166457E+03  0.47000000000E+01 0. -1.
          6    1    1    2  502    0 -0.26321867175E+02 -0.30899045906E+03  0.33441601432E+03  0.48742795890E+03  0.17200000000E+03 0. -1.
         -6    1    1    2    0  502  0.26321867175E+02  0.30899045906E+03  0.87074559515E+03  0.94018606454E+03  0.17200000000E+03 0.  1.
</event>
<event>
 4    1 -0.3305908E-004  0.1831719E+03  0.7818608E-02  0.1164768E+00
         -5   -1    0    0    0  501 -0.00000000000E+00  0.00000000000E+00  0.69141444128E+02  0.69301005015E+02  0.47000000000E+01 0.  1.
          5   -1    0    0  501    0  0.00000000000E+00 -0.00000000000E+00 -0.50225341263E+03  0.50227540303E+03  0.47000000000E+01 0. -1.
          6    1    1    2  502    0 -0.15982836249E+01  0.62971279772E+02 -0.16288774425E+03  0.24512110031E+03  0.17200000000E+03 0.  1.
         -6    1    1    2    0  502  0.15982836249E+01 -0.62971279772E+02 -0.27022422424E+03  0.32645530774E+03  0.17200000000E+03 0. -1.
</event>
<event>
 4    1 -0.3305908E-004  0.3137356E+03  0.7818608E-02  0.1078569E+00
          5   -1    0    0  501    0  0.00000000000E+00  0.00000000000E+00  0.18448927500E+04  0.18448987368E+04  0.47000000000E+01 0. -1.
         -5   -1    0    0    0  501 -0.00000000000E+00 -0.00000000000E+00 -0.57694239826E+02  0.57885363514E+02  0.47000000000E+01 0.  1.
          6    1    1    2  502    0 -0.22699452825E+03 -0.13160353832E+03  0.11573891771E+04  0.11991579189E+04  0.17200000000E+03 0.  1.
         -6    1    1    2    0  502  0.22699452825E+03  0.13160353832E+03  0.62980933309E+03  0.70362618144E+03  0.17200000000E+03 0.  1.
</event>
<event>
 4    1 -0.3305908E-004  0.2265377E+03  0.7818608E-02  0.1129101E+00
         -5   -1    0    0    0  501 -0.00000000000E+00  0.00000000000E+00  0.48916353813E+03  0.48918611697E+03  0.47000000000E+01 0.  1.
          5   -1    0    0  501    0  0.00000000000E+00 -0.00000000000E+00 -0.19613443276E+03  0.19619073809E+03  0.47000000000E+01 0. -1.
          6    1    1    2  502    0  0.11143345774E+03  0.96529293081E+02 -0.87230659801E+02  0.24275194734E+03  0.17200000000E+03 0. -1.
         -6    1    1    2    0  502 -0.11143345774E+03 -0.96529293081E+02  0.38025976517E+03  0.44262490772E+03  0.17200000000E+03 0.  1.
</event>
<event>
 4    1 -0.3305908E-004  0.1801047E+03  0.7818608E-02  0.1167702E+00
         -5   -1    0    0    0  501 -0.00000000000E+00  0.00000000000E+00  0.78966963320E+03  0.78968361994E+03  0.47000000000E+01 0.  1.
          5   -1    0    0  501    0  0.00000000000E+00 -0.00000000000E+00 -0.41724596451E+02  0.41988474001E+02  0.47000000000E+01 0. -1.
          6    1    1    2  502    0  0.29701197113E+02  0.44402202846E+02  0.31673394000E+03  0.36435985711E+03  0.17200000000E+03 0. -1.
         -6    1    1    2    0  502 -0.29701197113E+02 -0.44402202846E+02  0.43121109675E+03  0.46731223682E+03  0.17200000000E+03 0.  1.
</event>
<event>
 4    1 -0.3305908E-004  0.1957617E+03  0.7818608E-02  0.1153365E+00
         -5   -1    0    0    0  501 -0.00000000000E+00  0.00000000000E+00  0.48706567477E+03  0.48708835085E+03  0.47000000000E+01 0.  1.
          5   -1    0    0  501    0  0.00000000000E+00 -0.00000000000E+00 -0.10784144306E+03  0.10794381335E+03  0.47000000000E+01 0. -1.
          6    1    1    2  502    0  0.19943330634E+02  0.91328503865E+02  0.34754810449E+02  0.19882285810E+03  0.17200000000E+03 0. -1.
         -6    1    1    2    0  502 -0.19943330634E+02 -0.91328503865E+02  0.34446942126E+03  0.39620930610E+03  0.17200000000E+03 0. -1.
</event>
<event>
 4    1 -0.3305908E-004  0.1814088E+03  0.7818608E-02  0.1166447E+00
          5   -1    0    0  501    0  0.00000000000E+00  0.00000000000E+00  0.10295716931E+04  0.10295824208E+04  0.47000000000E+01 0. -1.
         -5   -1    0    0    0  501 -0.00000000000E+00 -0.00000000000E+00 -0.31780887279E+02  0.32126543484E+02  0.47000000000E+01 0.  1.
          6    1    1    2  502    0  0.32432237582E+02 -0.47679278175E+02  0.49645664315E+03  0.52856254325E+03  0.17200000000E+03 0. -1.
         -6    1    1    2    0  502 -0.32432237582E+02  0.47679278175E+02  0.50133416263E+03  0.53314642100E+03  0.17200000000E+03 0. -1.
</event>
<event>
 4    1 -0.3305908E-004  0.2198901E+03  0.7818608E-02  0.1133965E+00
         -5   -1    0    0    0  501 -0.00000000000E+00  0.00000000000E+00  0.13365194025E+03  0.13373455474E+03  0.47000000000E+01 0.  1.
          5   -1    0    0  501    0  0.00000000000E+00 -0.00000000000E+00 -0.38530199810E+03  0.38533066286E+03  0.47000000000E+01 0. -1.
          6    1    1    2  502    0 -0.13065460301E+03 -0.41195148797E+02 -0.19023544138E+03  0.29075967521E+03  0.17200000000E+03 0. -1.
         -6    1    1    2    0  502  0.13065460301E+03  0.41195148797E+02 -0.61414616473E+02  0.22830554240E+03  0.17200000000E+03 0.  1.
</event>
<event>
 4    1 -0.3305908E-004  0.1801440E+03  0.7818608E-02  0.1167664E+00
         -5   -1    0    0    0  501 -0.00000000000E+00  0.00000000000E+00  0.16950312018E+03  0.16956826870E+03  0.47000000000E+01 0.  1.
          5   -1    0    0  501    0  0.00000000000E+00 -0.00000000000E+00 -0.29837705431E+03  0.29841406893E+03  0.47000000000E+01 0. -1.
          6    1    1    2  502    0 -0.17106664831E+02 -0.50746745865E+02 -0.20456924605E+03  0.27258108266E+03  0.17200000000E+03 0. -1.
         -6    1    1    2    0  502  0.17106664831E+02  0.50746745865E+02  0.75695311922E+02  0.19540125497E+03  0.17200000000E+03 0.  1.
</event>
<event>
 4    1 -0.3305908E-004  0.1860895E+03  0.7818608E-02  0.1162036E+00
          5   -1    0    0  501    0  0.00000000000E+00  0.00000000000E+00  0.12281285279E+03  0.12290275347E+03  0.47000000000E+01 0. -1.
         -5   -1    0    0    0  501 -0.00000000000E+00 -0.00000000000E+00 -0.32996204756E+03  0.32999551941E+03  0.47000000000E+01 0.  1.
          6    1    1    2  502    0  0.67785323528E+02 -0.21223648965E+02 -0.19011311055E+03  0.26603061509E+03  0.17200000000E+03 0.  1.
         -6    1    1    2    0  502 -0.67785323528E+02  0.21223648965E+02 -0.17036084221E+02  0.18686765779E+03  0.17200000000E+03 0. -1.
</event>
<event>
 4    1 -0.3305908E-004  0.1749324E+03  0.7818608E-02  0.1172800E+00
         -5   -1    0    0    0  501 -0.00000000000E+00  0.00000000000E+00  0.14831652471E+03  0.14839097513E+03  0.47000000000E+01 0.  1.
          5   -1    0    0  501    0  0.00000000000E+00 -0.00000000000E+00 -0.20700782623E+03  0.20706117482E+03  0.47000000000E+01 0. -1.
          6    1    1    2  502    0  0.77571289128E+01 -0.30938112496E+02 -0.18052841970E+02  0.17586143681E+03  0.17200000000E+03 0.  1.
         -6    1    1    2    0  502 -0.77571289128E+01  0.30938112496E+02 -0.40638459552E+02  0.17959071315E+03  0.17200000000E+03 0. -1.
</event>
<event>
 4    1 -0.3305908E-004  0.1870343E+03  0.7818608E-02  0.1161164E+00
          5   -1    0    0  501    0  0.00000000000E+00  0.00000000000E+00  0.40515814725E+03  0.40518540729E+03  0.47000000000E+01 0. -1.
         -5   -1    0    0    0  501 -0.00000000000E+00 -0.00000000000E+00 -0.89783908812E+02  0.89906842240E+02  0.47000000000E+01 0.  1.
          6    1    1    2  502    0  0.68096952092E+02 -0.27579523281E+02  0.10859643845E+03  0.21627531397E+03  0.17200000000E+03 0. -1.
         -6    1    1    2    0  502 -0.68096952092E+02  0.27579523281E+02  0.20677779999E+03  0.27881693556E+03  0.17200000000E+03 0. -1.
</event>
<event>
 4    1 -0.3305908E-004  0.2018808E+03  0.7818608E-02  0.1148162E+00
          5   -1    0    0  501    0  0.00000000000E+00  0.00000000000E+00  0.35223146482E+03  0.35226282065E+03  0.47000000000E+01 0. -1.
         -5   -1    0    0    0  501 -0.00000000000E+00 -0.00000000000E+00 -0.11598414558E+03  0.11607933505E+03  0.47000000000E+01 0.  1.
          6    1    1    2  502    0 -0.10121164507E+03  0.30464308640E+02  0.10507083393E+03  0.22758679958E+03  0.17200000000E+03 0. -1.
         -6    1    1    2    0  502  0.10121164507E+03 -0.30464308640E+02  0.13117648532E+03  0.24075535612E+03  0.17200000000E+03 0. -1.
</event>
<event>
 4    1 -0.3305908E-004  0.2994250E+03  0.7818608E-02  0.1085528E+00
          5   -1    0    0  501    0  0.00000000000E+00  0.00000000000E+00  0.25176260504E+03  0.25180647191E+03  0.47000000000E+01 0. -1.
         -5   -1    0    0    0  501 -0.00000000000E+00 -0.00000000000E+00 -0.37721469616E+03  0.37724397543E+03  0.47000000000E+01 0.  1.
          6    1    1    2  502    0  0.12639084838E+02  0.24476846556E+03  0.11820836101E+02  0.29965827265E+03  0.17200000000E+03 0. -1.
         -6    1    1    2    0  502 -0.12639084838E+02 -0.24476846556E+03 -0.13727292722E+03  0.32939217469E+03  0.17200000000E+03 0.  1.
</event>
<event>
 4    1 -0.3305908E-004  0.2214383E+03  0.7818608E-02  0.1132815E+00
         -5   -1    0    0    0  501 -0.00000000000E+00  0.00000000000E+00  0.82236543752E+03  0.82237886818E+03  0.47000000000E+01 0.  1.
          5   -1    0    0  501    0  0.00000000000E+00 -0.00000000000E+00 -0.64052414303E+02  0.64224619719E+02  0.47000000000E+01 0. -1.
          6    1    1    2  502    0 -0.13934303613E+03 -0.58667948594E+01  0.26141185652E+03  0.34259459968E+03  0.17200000000E+03 0. -1.
         -6    1    1    2    0  502  0.13934303613E+03  0.58667948594E+01  0.49690116669E+03  0.54400888822E+03  0.17200000000E+03 0.  1.
</event>
<event>
 4    1 -0.3305908E-004  0.3679167E+03  0.7818608E-02  0.1055492E+00
          5   -1    0    0  501    0  0.00000000000E+00  0.00000000000E+00  0.22804125991E+03  0.22808968899E+03  0.47000000000E+01 0. -1.
         -5   -1    0    0    0  501 -0.00000000000E+00 -0.00000000000E+00 -0.67519217465E+03  0.67520853276E+03  0.47000000000E+01 0.  1.
          6    1    1    2  502    0 -0.18459114210E+03 -0.26777756254E+03 -0.38069916406E+03  0.52942852800E+03  0.17200000000E+03 0.  1.
         -6    1    1    2    0  502  0.18459114210E+03  0.26777756254E+03 -0.66451750678E+02  0.37386969375E+03  0.17200000000E+03 0.  1.
</event>
<event>
 4    1 -0.3305908E-004  0.1936629E+03  0.7818608E-02  0.1155199E+00
          5   -1    0    0  501    0  0.00000000000E+00  0.00000000000E+00  0.56765609891E+03  0.56767555578E+03  0.47000000000E+01 0. -1.
         -5   -1    0    0    0  501 -0.00000000000E+00 -0.00000000000E+00 -0.66976665298E+02  0.67141370961E+02  0.47000000000E+01 0.  1.
          6    1    1    2  502    0 -0.16688754237E+02 -0.87423138975E+02  0.21140860158E+03  0.28670353428E+03  0.17200000000E+03 0.  1.
         -6    1    1    2    0  502  0.16688754237E+02  0.87423138975E+02  0.28927083203E+03  0.34811339246E+03  0.17200000000E+03 0. -1.
</event>
<event>
 4    1 -0.3305908E-004  0.1932167E+03  0.7818608E-02  0.1155592E+00
         -5   -1    0    0    0  501 -0.00000000000E+00  0.00000000000E+00  0.27289053770E+03  0.27293100880E+03  0.47000000000E+01 0.  1.
          5   -1    0    0  501    0  0.00000000000E+00 -0.00000000000E+00 -0.14616250466E+03  0.14623805171E+03  0.47000000000E+01 0. -1.
          6    1    1    2  502    0 -0.32707453015E+02 -0.81724741488E+02  0.10097627072E+02  0.19348042001E+03  0.17200000000E+03 0. -1.
         -6    1    1    2    0  502  0.32707453015E+02  0.81724741488E+02  0.11663040597E+03  0.22568864050E+03  0.17200000000E+03 0.  1.
</event>
<event>
 4    1 -0.3305908E-004  0.2276623E+03  0.7818608E-02  0.1128296E+00
         -5   -1    0    0    0  501 -0.00000000000E+00  0.00000000000E+00  0.30460432211E+02  0.30820900871E+02  0.47000000000E+01 0.  1.
          5   -1    0    0  501    0  0.00000000000E+00 -0.00000000000E+00 -0.17199962896E+04  0.17200027111E+04  0.47000000000E+01 0. -1.
          6    1    1    2  502    0 -0.14794490643E+03 -0.18931682686E+02 -0.95806082783E+03  0.98473887593E+03  0.17200000000E+03 0. -1.
         -6    1    1    2    0  502  0.14794490643E+03  0.18931682686E+02 -0.73147502959E+03  0.76608473608E+03  0.17200000000E+03 0. -1.
</event>
<event>
 4    1 -0.3305908E-004  0.2141190E+03  0.7818608E-02  0.1138345E+00
          5   -1    0    0  501    0  0.00000000000E+00  0.00000000000E+00  0.22944547175E+03  0.22949360450E+03  0.47000000000E+01 0. -1.
         -5   -1    0    0    0  501 -0.00000000000E+00 -0.00000000000E+00 -0.23386640741E+03  0.23391363046E+03  0.47000000000E+01 0.  1.
          6    1    1    2  502    0  0.12752447337E+03  0.67199148921E+00  0.86307611850E+02  0.23085914915E+03  0.17200000000E+03 0. -1.
         -6    1    1    2    0  502 -0.12752447337E+03 -0.67199148921E+00 -0.90728547506E+02  0.23254808581E+03  0.17200000000E+03 0.  1.
</event>
<event>
 4    1 -0.3305908E-004  0.1907211E+03  0.7818608E-02  0.1157813E+00
         -5   -1    0    0    0  501 -0.00000000000E+00  0.00000000000E+00  0.23843827504E+03  0.23848459280E+03  0.47000000000E+01 0.  1.
          5   -1    0    0  501    0  0.00000000000E+00 -0.00000000000E+00 -0.17010877681E+03  0.17017369347E+03  0.47000000000E+01 0. -1.
          6    1    1    2  502    0  0.31782027147E+02  0.76029327522E+02  0.99964889627E+02  0.21533122173E+03  0.17200000000E+03 0.  1.
         -6    1    1    2    0  502 -0.31782027147E+02 -0.76029327522E+02 -0.31635391402E+02  0.19332706454E+03  0.17200000000E+03 0.  1.
</event>
<event>
 4    1 -0.3305908E-004  0.1884750E+03  0.7818608E-02  0.1159844E+00
         -5   -1    0    0    0  501 -0.00000000000E+00  0.00000000000E+00  0.47334212668E+03  0.47336546017E+03  0.47000000000E+01 0.  1.
          5   -1    0    0  501    0  0.00000000000E+00 -0.00000000000E+00 -0.11438696707E+03  0.11448348456E+03  0.47000000000E+01 0. -1.
          6    1    1    2  502    0  0.20968976366E+02 -0.74156013070E+02  0.69991809049E+01  0.18860488005E+03  0.17200000000E+03 0. -1.
         -6    1    1    2    0  502 -0.20968976366E+02  0.74156013070E+02  0.35195597870E+03  0.39924406468E+03  0.17200000000E+03 0.  1.
</event>
<event>
 4    1 -0.3305908E-004  0.1800631E+03  0.7818608E-02  0.1167742E+00
         -5   -1    0    0    0  501 -0.00000000000E+00  0.00000000000E+00  0.46095083232E+03  0.46097479304E+03  0.47000000000E+01 0.  1.
          5   -1    0    0  501    0  0.00000000000E+00 -0.00000000000E+00 -0.76883442657E+02  0.77026967711E+02  0.47000000000E+01 0. -1.
          6    1    1    2  502    0 -0.36432231716E+02  0.38876868482E+02  0.27105125999E+03  0.32540974778E+03  0.17200000000E+03 0.  1.
         -6    1    1    2    0  502  0.36432231716E+02 -0.38876868482E+02  0.11301612968E+03  0.21259201297E+03  0.17200000000E+03 0. -1.
</event>
<event>
 4    1 -0.3305908E-004  0.2146292E+03  0.7818608E-02  0.1137952E+00
          5   -1    0    0  501    0  0.00000000000E+00  0.00000000000E+00  0.75249258306E+02  0.75395894289E+02  0.47000000000E+01 0. -1.
         -5   -1    0    0    0  501 -0.00000000000E+00 -0.00000000000E+00 -0.75553117208E+03  0.75554579080E+03  0.47000000000E+01 0.  1.
          6    1    1    2  502    0 -0.27039516575E+02  0.12550124830E+03 -0.15870996468E+03  0.26693548222E+03  0.17200000000E+03 0. -1.
         -6    1    1    2    0  502  0.27039516575E+02 -0.12550124830E+03 -0.52157194910E+03  0.56400620286E+03  0.17200000000E+03 0.  1.
</event>
<event>
 4    1 -0.3305908E-004  0.2462090E+03  0.7818608E-02  0.1115724E+00
         -5   -1    0    0    0  501 -0.00000000000E+00  0.00000000000E+00  0.43503871285E+03  0.43506410065E+03  0.47000000000E+01 0.  1.
          5   -1    0    0  501    0  0.00000000000E+00 -0.00000000000E+00 -0.31159725433E+03  0.31163269871E+03  0.47000000000E+01 0. -1.
          6    1    1    2  502    0  0.10992119936E+03 -0.13766699179E+03 -0.21588856020E+03  0.32745494518E+03  0.17200000000E+03 0. -1.
         -6    1    1    2    0  502 -0.10992119936E+03  0.13766699179E+03  0.33933001872E+03  0.41924185418E+03  0.17200000000E+03 0.  1.
</event>
<event>
 4    1 -0.3305908E-004  0.3370843E+03  0.7818608E-02  0.1068045E+00
         -5   -1    0    0    0  501 -0.00000000000E+00  0.00000000000E+00  0.45987243292E+03  0.45989644982E+03  0.47000000000E+01 0.  1.
          5   -1    0    0  501    0  0.00000000000E+00 -0.00000000000E+00 -0.25358869072E+03  0.25363224176E+03  0.47000000000E+01 0. -1.
          6    1    1    2  502    0  0.54074483594E+02  0.28481184359E+03  0.45767199799E+02  0.34017711946E+03  0.17200000000E+03 0. -1.
         -6    1    1    2    0  502 -0.54074483594E+02 -0.28481184359E+03  0.16051654240E+03  0.37335157213E+03  0.17200000000E+03 0.  1.
</event>
<event>
 4    1 -0.3305908E-004  0.2210070E+03  0.7818608E-02  0.1133134E+00
          5   -1    0    0  501    0  0.00000000000E+00  0.00000000000E+00  0.61200869665E+03  0.61202674351E+03  0.47000000000E+01 0. -1.
         -5   -1    0    0    0  501 -0.00000000000E+00 -0.00000000000E+00 -0.13636457007E+03  0.13644554214E+03  0.47000000000E+01 0.  1.
          6    1    1    2  502    0 -0.13480928300E+03 -0.32963063256E+02  0.47890512020E+03  0.52744120096E+03  0.17200000000E+03 0. -1.
         -6    1    1    2    0  502  0.13480928300E+03  0.32963063256E+02 -0.32609936173E+01  0.22103108469E+03  0.17200000000E+03 0.  1.
</event>
<event>
 4    1 -0.3305908E-004  0.2524809E+03  0.7818608E-02  0.1111747E+00
         -5   -1    0    0    0  501 -0.00000000000E+00  0.00000000000E+00  0.11147448245E+03  0.11157351943E+03  0.47000000000E+01 0.  1.
          5   -1    0    0  501    0  0.00000000000E+00 -0.00000000000E+00 -0.72113954744E+03  0.72115486332E+03  0.47000000000E+01 0. -1.
          6    1    1    2  502    0 -0.18373788527E+03 -0.20074742011E+02 -0.49449053800E+03  0.55521842361E+03  0.17200000000E+03 0. -1.
         -6    1    1    2    0  502  0.18373788527E+03  0.20074742011E+02 -0.11517452699E+03  0.27750995913E+03  0.17200000000E+03 0.  1.
</event>
<event>
 4    1 -0.3305908E-004  0.4378172E+03  0.7818608E-02  0.1031419E+00
          5   -1    0    0  501    0  0.00000000000E+00  0.00000000000E+00  0.18660704574E+03  0.18666622490E+03  0.47000000000E+01 0. -1.
         -5   -1    0    0    0  501 -0.00000000000E+00 -0.00000000000E+00 -0.14129348609E+04  0.14129426779E+04  0.47000000000E+01 0.  1.
          6    1    1    2  502    0 -0.30972626753E+02  0.40142326594E+03 -0.19515928894E+03  0.47934443786E+03  0.17200000000E+03 0. -1.
         -6    1    1    2    0  502  0.30972626753E+02 -0.40142326594E+03 -0.10311685262E+04  0.11202644649E+04  0.17200000000E+03 0.  1.
</event>
<event>
 4    1 -0.3305908E-004  0.2691732E+03  0.7818608E-02  0.1101754E+00
          5   -1    0    0  501    0  0.00000000000E+00  0.00000000000E+00  0.73889341851E+02  0.74038671241E+02  0.47000000000E+01 0. -1.
         -5   -1    0    0    0  501 -0.00000000000E+00 -0.00000000000E+00 -0.13787825016E+04  0.13787905122E+04  0.47000000000E+01 0.  1.
          6    1    1    2  502    0 -0.15787209979E+02  0.20644843575E+03 -0.26152590005E+03  0.37529986547E+03  0.17200000000E+03 0. -1.
         -6    1    1    2    0  502  0.15787209979E+02 -0.20644843575E+03 -0.10433672597E+04  0.10775293180E+04  0.17200000000E+03 0.  1.
</event>
<event>
 4    1 -0.3305908E-004  0.2240956E+03  0.7818608E-02  0.1130866E+00
          5   -1    0    0  501    0  0.00000000000E+00  0.00000000000E+00  0.62318479089E+03  0.62320251411E+03  0.47000000000E+01 0. -1.
         -5   -1    0    0    0  501 -0.00000000000E+00 -0.00000000000E+00 -0.11412929536E+03  0.11422603057E+03  0.47000000000E+01 0.  1.
          6    1    1    2  502    0 -0.94186985722E+02  0.10846045227E+03  0.45456684712E+03  0.50680358768E+03  0.17200000000E+03 0. -1.
         -6    1    1    2    0  502  0.94186985722E+02 -0.10846045227E+03  0.54488648414E+02  0.23062495700E+03  0.17200000000E+03 0.  1.
</event>
<event>
 4    1 -0.3305908E-004  0.1938616E+03  0.7818608E-02  0.1155024E+00
          5   -1    0    0  501    0  0.00000000000E+00  0.00000000000E+00  0.20641013973E+03  0.20646364276E+03  0.47000000000E+01 0. -1.
         -5   -1    0    0    0  501 -0.00000000000E+00 -0.00000000000E+00 -0.18203904897E+03  0.18209971266E+03  0.47000000000E+01 0.  1.
          6    1    1    2  502    0 -0.75297222333E+02  0.48256075276E+02  0.16009129924E+02  0.19452149684E+03  0.17200000000E+03 0. -1.
         -6    1    1    2    0  502  0.75297222333E+02 -0.48256075276E+02  0.83619608383E+01  0.19404185858E+03  0.17200000000E+03 0.  1.
</event>
<event>
 4    1 -0.3305908E-004  0.1812331E+03  0.7818608E-02  0.1166615E+00
          5   -1    0    0  501    0  0.00000000000E+00  0.00000000000E+00  0.27915895666E+03  0.27919851913E+03  0.47000000000E+01 0. -1.
         -5   -1    0    0    0  501 -0.00000000000E+00 -0.00000000000E+00 -0.18916747015E+03  0.18922584856E+03  0.47000000000E+01 0.  1.
          6    1    1    2  502    0 -0.24349590038E+01 -0.57057143546E+02  0.18904842035E+03  0.26188690668E+03  0.17200000000E+03 0. -1.
         -6    1    1    2    0  502  0.24349590038E+01  0.57057143546E+02 -0.99056933840E+02  0.20653746100E+03  0.17200000000E+03 0.  1.
</event>
<event>
 4    1 -0.3305908E-004  0.1759078E+03  0.7818608E-02  0.1171823E+00
          5   -1    0    0  501    0  0.00000000000E+00  0.00000000000E+00  0.39075737806E+03  0.39078564265E+03  0.47000000000E+01 0. -1.
         -5   -1    0    0    0  501 -0.00000000000E+00 -0.00000000000E+00 -0.13034358006E+03  0.13042829012E+03  0.47000000000E+01 0.  1.
          6    1    1    2  502    0  0.16858154701E+02 -0.32792372036E+02  0.29354186642E+03  0.34221391612E+03  0.17200000000E+03 0. -1.
         -6    1    1    2    0  502 -0.16858154701E+02  0.32792372036E+02 -0.33128068425E+02  0.17900001665E+03  0.17200000000E+03 0.  1.
</event>
<event>
 4    1 -0.3305908E-004  0.1779194E+03  0.7818608E-02  0.1169832E+00
         -5   -1    0    0    0  501 -0.00000000000E+00  0.00000000000E+00  0.18558375829E+03  0.18564326366E+03  0.47000000000E+01 0.  1.
          5   -1    0    0  501    0  0.00000000000E+00 -0.00000000000E+00 -0.31704629267E+03  0.31708112794E+03  0.47000000000E+01 0. -1.
          6    1    1    2  502    0  0.82165213209E+01 -0.44763694537E+02 -0.23662333747E+03  0.29605050820E+03  0.17200000000E+03 0. -1.
         -6    1    1    2    0  502 -0.82165213209E+01  0.44763694537E+02  0.10516080309E+03  0.20667388340E+03  0.17200000000E+03 0.  1.
</event>
<event>
 4    1 -0.3305908E-004  0.2266642E+03  0.7818608E-02  0.1129010E+00
         -5   -1    0    0    0  501 -0.00000000000E+00  0.00000000000E+00  0.33822221548E+03  0.33825486995E+03  0.47000000000E+01 0.  1.
          5   -1    0    0  501    0  0.00000000000E+00 -0.00000000000E+00 -0.58170385077E+03  0.58172283779E+03  0.47000000000E+01 0. -1.
          6    1    1    2  502    0 -0.14140881925E+03  0.42381773977E+02 -0.51714356928E+03  0.56463629017E+03  0.17200000000E+03 0. -1.
         -6    1    1    2    0  502  0.14140881925E+03 -0.42381773977E+02  0.27366193398E+03  0.35534141757E+03  0.17200000000E+03 0.  1.
</event>
<event>
 4    1 -0.3305908E-004  0.2015109E+03  0.7818608E-02  0.1148470E+00
         -5   -1    0    0    0  501 -0.00000000000E+00  0.00000000000E+00  0.34896295712E+03  0.34899460660E+03  0.47000000000E+01 0.  1.
          5   -1    0    0  501    0  0.00000000000E+00 -0.00000000000E+00 -0.13068248792E+03  0.13076697844E+03  0.47000000000E+01 0. -1.
          6    1    1    2  502    0 -0.51716607315E+02 -0.91367619409E+02  0.29540193677E+02  0.20366460761E+03  0.17200000000E+03 0.  1.
         -6    1    1    2    0  502  0.51716607315E+02  0.91367619409E+02  0.18874027552E+03  0.27609697744E+03  0.17200000000E+03 0. -1.
</event>
<event>
 4    1 -0.3305908E-004  0.2132800E+03  0.7818608E-02  0.1138995E+00
         -5   -1    0    0    0  501 -0.00000000000E+00  0.00000000000E+00  0.96283923820E+03  0.96285070941E+03  0.47000000000E+01 0.  1.
          5   -1    0    0  501    0  0.00000000000E+00 -0.00000000000E+00 -0.71651546841E+02  0.71805530182E+02  0.47000000000E+01 0. -1.
          6    1    1    2  502    0  0.12191625476E+03  0.32261379952E+02  0.14329561446E+03  0.25694747116E+03  0.17200000000E+03 0. -1.
         -6    1    1    2    0  502 -0.12191625476E+03 -0.32261379952E+02  0.74789207690E+03  0.77770876844E+03  0.17200000000E+03 0.  1.
</event>
<event>
 4    1 -0.3305908E-004  0.5966904E+03  0.7818608E-02  0.9912296E-01
          5   -1    0    0  501    0  0.00000000000E+00  0.00000000000E+00  0.10089876471E+04  0.10089985936E+04  0.47000000000E+01 0. -1.
         -5   -1    0    0    0  501 -0.00000000000E+00 -0.00000000000E+00 -0.38560984828E+03  0.38563849016E+03  0.47000000000E+01 0.  1.
          6    1    1    2  502    0  0.56980311073E+03  0.42188855877E+02  0.10841832591E+03  0.60646023608E+03  0.17200000000E+03 0. -1.
         -6    1    1    2    0  502 -0.56980311073E+03 -0.42188855877E+02  0.51495947290E+03  0.78817684773E+03  0.17200000000E+03 0.  1.
</event>
<event>
 4    1 -0.3305908E-004  0.3311315E+03  0.7818608E-02  0.1070637E+00
         -5   -1    0    0    0  501 -0.00000000000E+00  0.00000000000E+00  0.77531683671E+02  0.77674010923E+02  0.47000000000E+01 0.  1.
          5   -1    0    0  501    0  0.00000000000E+00 -0.00000000000E+00 -0.20042763576E+04  0.20042818683E+04  0.47000000000E+01 0. -1.
          6    1    1    2  502    0 -0.83913845978E+02 -0.27022686856E+03 -0.15288532015E+04  0.15643018269E+04  0.17200000000E+03 0. -1.
         -6    1    1    2    0  502  0.83913845978E+02  0.27022686856E+03 -0.39789147250E+03  0.51765405236E+03  0.17200000000E+03 0.  1.
</event>
<event>
 4    1 -0.3305908E-004  0.2206805E+03  0.7818608E-02  0.1133377E+00
          5   -1    0    0  501    0  0.00000000000E+00  0.00000000000E+00  0.85745511412E+02  0.85874226211E+02  0.47000000000E+01 0. -1.
         -5   -1    0    0    0  501 -0.00000000000E+00 -0.00000000000E+00 -0.81154428487E+03  0.81155789461E+03  0.47000000000E+01 0.  1.
          6    1    1    2  502    0 -0.35092151058E+02 -0.13373271173E+03 -0.11680305950E+03  0.24968550611E+03  0.17200000000E+03 0. -1.
         -6    1    1    2    0  502  0.35092151058E+02  0.13373271173E+03 -0.60899571396E+03  0.64774661472E+03  0.17200000000E+03 0.  1.
</event>
<event>
 4    1 -0.3305908E-004  0.1863243E+03  0.7818608E-02  0.1161819E+00
         -5   -1    0    0    0  501 -0.00000000000E+00  0.00000000000E+00  0.22737682892E+03  0.22742539948E+03  0.47000000000E+01 0.  1.
          5   -1    0    0  501    0  0.00000000000E+00 -0.00000000000E+00 -0.22029946867E+03  0.22034959927E+03  0.47000000000E+01 0. -1.
          6    1    1    2  502    0  0.55680626171E+01  0.71426490621E+02 -0.12055882377E+03  0.22192606173E+03  0.17200000000E+03 0. -1.
         -6    1    1    2    0  502 -0.55680626171E+01 -0.71426490621E+02  0.12763618402E+03  0.22584893702E+03  0.17200000000E+03 0.  1.
</event>
<event>
 4    1 -0.3305908E-004  0.2063134E+03  0.7818608E-02  0.1144519E+00
         -5   -1    0    0    0  501 -0.00000000000E+00  0.00000000000E+00  0.10802872178E+04  0.10802974419E+04  0.47000000000E+01 0.  1.
          5   -1    0    0  501    0  0.00000000000E+00 -0.00000000000E+00 -0.57413716171E+02  0.57605770584E+02  0.47000000000E+01 0. -1.
          6    1    1    2  502    0  0.43061080670E+02 -0.10548445933E+03  0.19211702187E+03  0.28191164914E+03  0.17200000000E+03 0. -1.
         -6    1    1    2    0  502 -0.43061080670E+02  0.10548445933E+03  0.83075647977E+03  0.85599156333E+03  0.17200000000E+03 0.  1.
</event>
<event>
 4    1 -0.3305908E-004  0.1743280E+03  0.7818608E-02  0.1173408E+00
         -5   -1    0    0    0  501 -0.00000000000E+00  0.00000000000E+00  0.84021811190E+03  0.84023125719E+03  0.47000000000E+01 0.  1.
          5   -1    0    0  501    0  0.00000000000E+00 -0.00000000000E+00 -0.54419060984E+02  0.54621645877E+02  0.47000000000E+01 0. -1.
          6    1    1    2  502    0 -0.28252099818E+02 -0.28426019599E+01  0.13325626228E+03  0.21942536993E+03  0.17200000000E+03 0. -1.
         -6    1    1    2    0  502  0.28252099818E+02  0.28426019599E+01  0.65254278863E+03  0.67542753314E+03  0.17200000000E+03 0.  1.
</event>
<event>
 4    1 -0.3305908E-004  0.1871510E+03  0.7818608E-02  0.1161056E+00
          5   -1    0    0  501    0  0.00000000000E+00  0.00000000000E+00  0.16903163086E+03  0.16909696103E+03  0.47000000000E+01 0. -1.
         -5   -1    0    0    0  501 -0.00000000000E+00 -0.00000000000E+00 -0.20708767966E+03  0.20714100769E+03  0.47000000000E+01 0.  1.
          6    1    1    2  502    0  0.27101497766E+02 -0.68607563538E+02 -0.20128019701E+02  0.18823024766E+03  0.17200000000E+03 0. -1.
         -6    1    1    2    0  502 -0.27101497766E+02  0.68607563538E+02 -0.17928029103E+02  0.18800772107E+03  0.17200000000E+03 0. -1.
</event>
<event>
 4    1 -0.3305908E-004  0.1881116E+03  0.7818608E-02  0.1160176E+00
          5   -1    0    0  501    0  0.00000000000E+00  0.00000000000E+00  0.70581992838E+02  0.70738304425E+02  0.47000000000E+01 0. -1.
         -5   -1    0    0    0  501 -0.00000000000E+00 -0.00000000000E+00 -0.71109061096E+03  0.71110614327E+03  0.47000000000E+01 0.  1.
          6    1    1    2  502    0 -0.64208661215E+02 -0.40978125867E+02 -0.10760376683E+03  0.21671301209E+03  0.17200000000E+03 0. -1.
         -6    1    1    2    0  502  0.64208661215E+02  0.40978125867E+02 -0.53290485129E+03  0.56513143560E+03  0.17200000000E+03 0.  1.
</event>
<event>
 4    1 -0.3305908E-004  0.1941068E+03  0.7818608E-02  0.1154809E+00
         -5   -1    0    0    0  501 -0.00000000000E+00  0.00000000000E+00  0.24851830621E+03  0.24856274564E+03  0.47000000000E+01 0.  1.
          5   -1    0    0  501    0  0.00000000000E+00 -0.00000000000E+00 -0.15153195847E+03  0.15160482986E+03  0.47000000000E+01 0. -1.
          6    1    1    2  502    0  0.79921776664E+02  0.41303348959E+02  0.50674135429E+02  0.20061237505E+03  0.17200000000E+03 0. -1.
         -6    1    1    2    0  502 -0.79921776664E+02 -0.41303348959E+02  0.46312212314E+02  0.19955520046E+03  0.17200000000E+03 0. -1.
</event>
<event>
 4    1 -0.3305908E-004  0.1802442E+03  0.7818608E-02  0.1167567E+00
          5   -1    0    0  501    0  0.00000000000E+00  0.00000000000E+00  0.23645788121E+03  0.23650458682E+03  0.47000000000E+01 0. -1.
         -5   -1    0    0    0  501 -0.00000000000E+00 -0.00000000000E+00 -0.15538903702E+03  0.15546010043E+03  0.47000000000E+01 0.  1.
          6    1    1    2  502    0  0.17274492887E+02  0.51044671528E+02 -0.26318072700E+02  0.18215544885E+03  0.17200000000E+03 0.  1.
         -6    1    1    2    0  502 -0.17274492887E+02 -0.51044671528E+02  0.10738691689E+03  0.20980923839E+03  0.17200000000E+03 0. -1.
</event>
<event>
 4    1 -0.3305908E-004  0.2329108E+03  0.7818608E-02  0.1124608E+00
         -5   -1    0    0    0  501 -0.00000000000E+00  0.00000000000E+00  0.34837588966E+03  0.34840759248E+03  0.47000000000E+01 0.  1.
          5   -1    0    0  501    0  0.00000000000E+00 -0.00000000000E+00 -0.16600305500E+03  0.16606957659E+03  0.47000000000E+01 0. -1.
          6    1    1    2  502    0  0.96544230069E+02 -0.12386540163E+03  0.15543605868E+03  0.28001391826E+03  0.17200000000E+03 0.  1.
         -6    1    1    2    0  502 -0.96544230069E+02  0.12386540163E+03  0.26936775985E+02  0.23446325081E+03  0.17200000000E+03 0. -1.
</event>
<event>
 4    1 -0.3305908E-004  0.2401545E+03  0.7818608E-02  0.1119690E+00
         -5   -1    0    0    0  501 -0.00000000000E+00  0.00000000000E+00  0.53669873288E+03  0.53671931200E+03  0.47000000000E+01 0.  1.
          5   -1    0    0  501    0  0.00000000000E+00 -0.00000000000E+00 -0.27762868680E+03  0.27766846730E+03  0.47000000000E+01 0. -1.
          6    1    1    2  502    0  0.14433142851E+03  0.85197555962E+02 -0.18927373160E+03  0.30577562079E+03  0.17200000000E+03 0. -1.
         -6    1    1    2    0  502 -0.14433142851E+03 -0.85197555962E+02  0.44834377768E+03  0.50861215851E+03  0.17200000000E+03 0.  1.
</event>
<event>
 4    1 -0.3305908E-004  0.3355373E+03  0.7818608E-02  0.1068713E+00
         -5   -1    0    0    0  501 -0.00000000000E+00  0.00000000000E+00  0.58556773869E+02  0.58745091420E+02  0.47000000000E+01 0.  1.
          5   -1    0    0  501    0  0.00000000000E+00 -0.00000000000E+00 -0.20639288399E+04  0.20639341913E+04  0.47000000000E+01 0. -1.
          6    1    1    2  502    0 -0.28291908078E+03  0.54388270617E+02 -0.12835378946E+04  0.13266705759E+04  0.17200000000E+03 0. -1.
         -6    1    1    2    0  502  0.28291908078E+03 -0.54388270617E+02 -0.72183417146E+03  0.79600870682E+03  0.17200000000E+03 0.  1.
</event>
<event>
 4    1 -0.3305908E-004  0.1725032E+03  0.7818608E-02  0.1175262E+00
         -5   -1    0    0    0  501 -0.00000000000E+00  0.00000000000E+00  0.33023757640E+03  0.33027102032E+03  0.47000000000E+01 0.  1.
          5   -1    0    0  501    0  0.00000000000E+00 -0.00000000000E+00 -0.91680311242E+02  0.91800705168E+02  0.47000000000E+01 0. -1.
          6    1    1    2  502    0  0.12968464334E+02  0.22745674053E+01  0.14774297354E+03  0.22712406512E+03  0.17200000000E+03 0. -1.
         -6    1    1    2    0  502 -0.12968464334E+02 -0.22745674053E+01  0.90814291611E+02  0.19494766037E+03  0.17200000000E+03 0. -1.
</event>
<event>
 4    1 -0.3305908E-004  0.2184570E+03  0.7818608E-02  0.1135039E+00
         -5   -1    0    0    0  501 -0.00000000000E+00  0.00000000000E+00  0.69187893323E+02  0.69347347335E+02  0.47000000000E+01 0.  1.
          5   -1    0    0  501    0  0.00000000000E+00 -0.00000000000E+00 -0.77102541780E+03  0.77103974274E+03  0.47000000000E+01 0. -1.
          6    1    1    2  502    0 -0.86014513881E+02 -0.10363856689E+03 -0.48811968197E+03  0.53477497424E+03  0.17200000000E+03 0. -1.
         -6    1    1    2    0  502  0.86014513881E+02  0.10363856689E+03 -0.21371784251E+03  0.30561211584E+03  0.17200000000E+03 0.  1.
</event>
<event>
 4    1 -0.3305908E-004  0.2260461E+03  0.7818608E-02  0.1129454E+00
          5   -1    0    0  501    0  0.00000000000E+00  0.00000000000E+00  0.32669890502E+03  0.32673271116E+03  0.47000000000E+01 0. -1.
         -5   -1    0    0    0  501 -0.00000000000E+00 -0.00000000000E+00 -0.16038851232E+03  0.16045736158E+03  0.47000000000E+01 0.  1.
          6    1    1    2  502    0  0.13291273380E+03  0.62024716929E+02  0.44400654317E+02  0.23036553219E+03  0.17200000000E+03 0. -1.
         -6    1    1    2    0  502 -0.13291273380E+03 -0.62024716929E+02  0.12190973838E+03  0.25682454055E+03  0.17200000000E+03 0. -1.
</event>
<event>
 4    1 -0.3305908E-004  0.2133697E+03  0.7818608E-02  0.1138925E+00
          5   -1    0    0  501    0  0.00000000000E+00  0.00000000000E+00  0.23725248435E+03  0.23729903356E+03  0.47000000000E+01 0. -1.
         -5   -1    0    0    0  501 -0.00000000000E+00 -0.00000000000E+00 -0.19185629636E+03  0.19191385686E+03  0.47000000000E+01 0.  1.
          6    1    1    2  502    0  0.11084843322E+03  0.60458824239E+02  0.18924826544E+02  0.21420736130E+03  0.17200000000E+03 0. -1.
         -6    1    1    2    0  502 -0.11084843322E+03 -0.60458824239E+02  0.26471361444E+02  0.21500552912E+03  0.17200000000E+03 0. -1.
</event>
<event>
 4    1 -0.3305908E-004  0.4202425E+03  0.7818608E-02  0.1036987E+00
         -5   -1    0    0    0  501 -0.00000000000E+00  0.00000000000E+00  0.49374445842E+03  0.49376682779E+03  0.47000000000E+01 0.  1.
          5   -1    0    0  501    0  0.00000000000E+00 -0.00000000000E+00 -0.38295052719E+03  0.38297936795E+03  0.47000000000E+01 0. -1.
          6    1    1    2  502    0  0.30956788004E+03 -0.22624645619E+03 -0.57302843910E+02  0.42413128535E+03  0.17200000000E+03 0. -1.
         -6    1    1    2    0  502 -0.30956788004E+03  0.22624645619E+03  0.16809677514E+03  0.45261491039E+03  0.17200000000E+03 0.  1.
</event>
<event>
 4    1 -0.3305908E-004  0.2018910E+03  0.7818608E-02  0.1148153E+00
          5   -1    0    0  501    0  0.00000000000E+00  0.00000000000E+00  0.70559259038E+02  0.70715620877E+02  0.47000000000E+01 0. -1.
         -5   -1    0    0    0  501 -0.00000000000E+00 -0.00000000000E+00 -0.85077755606E+03  0.85079053821E+03  0.47000000000E+01 0.  1.
          6    1    1    2  502    0 -0.94494020641E+02  0.47400911850E+02 -0.12869899841E+03  0.23942305355E+03  0.17200000000E+03 0. -1.
         -6    1    1    2    0  502  0.94494020641E+02 -0.47400911850E+02 -0.65151929862E+03  0.68208310553E+03  0.17200000000E+03 0.  1.
</event>
<event>
 4    1 -0.3305908E-004  0.1991948E+03  0.7818608E-02  0.1150420E+00
         -5   -1    0    0    0  501 -0.00000000000E+00  0.00000000000E+00  0.61249022216E+03  0.61250825484E+03  0.47000000000E+01 0.  1.
          5   -1    0    0  501    0  0.00000000000E+00 -0.00000000000E+00 -0.64848786712E+02  0.65018882935E+02  0.47000000000E+01 0. -1.
          6    1    1    2  502    0  0.92683964143E+02 -0.38784730491E+02  0.29117447018E+03  0.35279051094E+03  0.17200000000E+03 0.  1.
         -6    1    1    2    0  502 -0.92683964143E+02  0.38784730491E+02  0.25646696527E+03  0.32473662683E+03  0.17200000000E+03 0.  1.
</event>
<event>
 4    1 -0.3305908E-004  0.3638767E+03  0.7818608E-02  0.1057059E+00
          5   -1    0    0  501    0  0.00000000000E+00  0.00000000000E+00  0.98759768789E+03  0.98760887153E+03  0.47000000000E+01 0. -1.
         -5   -1    0    0    0  501 -0.00000000000E+00 -0.00000000000E+00 -0.14448137686E+03  0.14455780249E+03  0.47000000000E+01 0.  1.
          6    1    1    2  502    0  0.27628765146E+03 -0.16274947414E+03  0.26925176298E+03  0.45266187110E+03  0.17200000000E+03 0. -1.
         -6    1    1    2    0  502 -0.27628765146E+03  0.16274947414E+03  0.57386454805E+03  0.67950480292E+03  0.17200000000E+03 0.  1.
</event>
<event>
 4    1 -0.3305908E-004  0.2006654E+03  0.7818608E-02  0.1149179E+00
          5   -1    0    0  501    0  0.00000000000E+00  0.00000000000E+00  0.19818859474E+03  0.19824431665E+03  0.47000000000E+01 0. -1.
         -5   -1    0    0    0  501 -0.00000000000E+00 -0.00000000000E+00 -0.20317770773E+03  0.20323206174E+03  0.47000000000E+01 0.  1.
          6    1    1    2  502    0  0.89968977293E+02  0.50874209991E+02  0.23011941218E+01  0.20067859281E+03  0.17200000000E+03 0.  1.
         -6    1    1    2    0  502 -0.89968977293E+02 -0.50874209991E+02 -0.72903071123E+01  0.20079778558E+03  0.17200000000E+03 0.  1.
</event>
<event>
 4    1 -0.3305908E-004  0.2781536E+03  0.7818608E-02  0.1096702E+00
          5   -1    0    0  501    0  0.00000000000E+00  0.00000000000E+00  0.34335704754E+03  0.34338921371E+03  0.47000000000E+01 0. -1.
         -5   -1    0    0    0  501 -0.00000000000E+00 -0.00000000000E+00 -0.32608799251E+03  0.32612186198E+03  0.47000000000E+01 0.  1.
          6    1    1    2  502    0 -0.49577657431E+02  0.21290253446E+03  0.19475365116E+03  0.33955620733E+03  0.17200000000E+03 0. -1.
         -6    1    1    2    0  502  0.49577657431E+02 -0.21290253446E+03 -0.17748459613E+03  0.32995486837E+03  0.17200000000E+03 0.  1.
</event>
<event>
 4    1 -0.3305908E-004  0.3032359E+03  0.7818608E-02  0.1083634E+00
          5   -1    0    0  501    0  0.00000000000E+00  0.00000000000E+00  0.35045054681E+03  0.35048206197E+03  0.47000000000E+01 0. -1.
         -5   -1    0    0    0  501 -0.00000000000E+00 -0.00000000000E+00 -0.26231988942E+03  0.26236199112E+03  0.47000000000E+01 0.  1.
          6    1    1    2  502    0 -0.24959731319E+03  0.83194965730E+01  0.44893930965E+02  0.30654118453E+03  0.17200000000E+03 0.  1.
         -6    1    1    2    0  502  0.24959731319E+03 -0.83194965730E+01  0.43236726429E+02  0.30630286856E+03  0.17200000000E+03 0.  1.
</event>
<event>
 4    1 -0.3305908E-004  0.1787500E+03  0.7818608E-02  0.1169018E+00
         -5   -1    0    0    0  501 -0.00000000000E+00  0.00000000000E+00  0.68916069365E+02  0.69076150854E+02  0.47000000000E+01 0.  1.
          5   -1    0    0  501    0  0.00000000000E+00 -0.00000000000E+00 -0.64823094926E+03  0.64824798771E+03  0.47000000000E+01 0. -1.
          6    1    1    2  502    0  0.16412271332E+02  0.45805917451E+02 -0.48139654457E+03  0.51351161414E+03  0.17200000000E+03 0. -1.
         -6    1    1    2    0  502 -0.16412271332E+02 -0.45805917451E+02 -0.97918335317E+02  0.20381252443E+03  0.17200000000E+03 0.  1.
</event>
<event>
 4    1 -0.3305908E-004  0.1918103E+03  0.7818608E-02  0.1156839E+00
         -5   -1    0    0    0  501 -0.00000000000E+00  0.00000000000E+00  0.42541365851E+03  0.42543962068E+03  0.47000000000E+01 0.  1.
          5   -1    0    0  501    0  0.00000000000E+00 -0.00000000000E+00 -0.91070213079E+02  0.91191412480E+02  0.47000000000E+01 0. -1.
          6    1    1    2  502    0 -0.81402361574E+02  0.24100598676E+02  0.10866605339E+03  0.22045293032E+03  0.17200000000E+03 0. -1.
         -6    1    1    2    0  502  0.81402361574E+02 -0.24100598676E+02  0.22567739204E+03  0.29617810284E+03  0.17200000000E+03 0.  1.
</event>
<event>
 4    1 -0.3305908E-004  0.1771771E+03  0.7818608E-02  0.1170563E+00
         -5   -1    0    0    0  501 -0.00000000000E+00  0.00000000000E+00  0.62672367881E+03  0.62674130196E+03  0.47000000000E+01 0.  1.
          5   -1    0    0  501    0  0.00000000000E+00 -0.00000000000E+00 -0.59358544594E+02  0.59544326483E+02  0.47000000000E+01 0. -1.
          6    1    1    2  502    0 -0.20322707039E+02  0.37345629472E+02  0.14739449159E+03  0.23047091924E+03  0.17200000000E+03 0. -1.
         -6    1    1    2    0  502  0.20322707039E+02 -0.37345629472E+02  0.41997064262E+03  0.45581470920E+03  0.17200000000E+03 0. -1.
</event>
<event>
 4    1 -0.3305908E-004  0.2244119E+03  0.7818608E-02  0.1130636E+00
          5   -1    0    0  501    0  0.00000000000E+00  0.00000000000E+00  0.14942924380E+03  0.14950314011E+03  0.47000000000E+01 0. -1.
         -5   -1    0    0    0  501 -0.00000000000E+00 -0.00000000000E+00 -0.38872056885E+03  0.38874898154E+03  0.47000000000E+01 0.  1.
          6    1    1    2  502    0  0.82562295848E+02 -0.11815307534E+03 -0.21345745032E+02  0.22542476071E+03  0.17200000000E+03 0. -1.
         -6    1    1    2    0  502 -0.82562295848E+02  0.11815307534E+03 -0.21794558002E+03  0.31282736095E+03  0.17200000000E+03 0.  1.
</event>
<event>
 4    1 -0.3305908E-004  0.2069689E+03  0.7818608E-02  0.1143989E+00
          5   -1    0    0  501    0  0.00000000000E+00  0.00000000000E+00  0.14644239655E+03  0.14651779929E+03  0.47000000000E+01 0. -1.
         -5   -1    0    0    0  501 -0.00000000000E+00 -0.00000000000E+00 -0.29236506005E+03  0.29240283572E+03  0.47000000000E+01 0.  1.
          6    1    1    2  502    0  0.73065019888E+02 -0.88958671024E+02 -0.71025645087E+02  0.21881678304E+03  0.17200000000E+03 0. -1.
         -6    1    1    2    0  502 -0.73065019888E+02  0.88958671024E+02 -0.74897018409E+02  0.22010385196E+03  0.17200000000E+03 0. -1.
</event>
<event>
 4    1 -0.3305908E-004  0.2284877E+03  0.7818608E-02  0.1127709E+00
         -5   -1    0    0    0  501 -0.00000000000E+00  0.00000000000E+00  0.20798077954E+03  0.20803387863E+03  0.47000000000E+01 0.  1.
          5   -1    0    0  501    0  0.00000000000E+00 -0.00000000000E+00 -0.31062294972E+03  0.31065850527E+03  0.47000000000E+01 0. -1.
          6    1    1    2  502    0 -0.67250639600E+02  0.13453623706E+03 -0.16501418164E+03  0.28184450989E+03  0.17200000000E+03 0. -1.
         -6    1    1    2    0  502  0.67250639600E+02 -0.13453623706E+03  0.62372011455E+02  0.23684787401E+03  0.17200000000E+03 0.  1.
</event>
<event>
 4    1 -0.3305908E-004  0.1888710E+03  0.7818608E-02  0.1159484E+00
          5   -1    0    0  501    0  0.00000000000E+00  0.00000000000E+00  0.11372423170E+03  0.11382131117E+03  0.47000000000E+01 0. -1.
         -5   -1    0    0    0  501 -0.00000000000E+00 -0.00000000000E+00 -0.46189054050E+03  0.46191445248E+03  0.47000000000E+01 0.  1.
          6    1    1    2  502    0  0.75247364822E+02  0.20642312593E+02 -0.10899332877E+02  0.18918527014E+03  0.17200000000E+03 0. -1.
         -6    1    1    2    0  502 -0.75247364822E+02 -0.20642312593E+02 -0.33726697592E+03  0.38655049351E+03  0.17200000000E+03 0.  1.
</event>
<event>
 4    1 -0.3305908E-004  0.1952487E+03  0.7818608E-02  0.1153811E+00
         -5   -1    0    0    0  501 -0.00000000000E+00  0.00000000000E+00  0.24382947383E+03  0.24387476767E+03  0.47000000000E+01 0.  1.
          5   -1    0    0  501    0  0.00000000000E+00 -0.00000000000E+00 -0.16008280670E+03  0.16015178738E+03  0.47000000000E+01 0. -1.
          6    1    1    2  502    0 -0.52893410728E+02  0.75764965272E+02  0.10634354182E+02  0.19553805857E+03  0.17200000000E+03 0. -1.
         -6    1    1    2    0  502  0.52893410728E+02 -0.75764965272E+02  0.73112312946E+02  0.20848849648E+03  0.17200000000E+03 0.  1.
</event>
<event>
 4    1 -0.3305908E-004  0.2686220E+03  0.7818608E-02  0.1102071E+00
         -5   -1    0    0    0  501 -0.00000000000E+00  0.00000000000E+00  0.67151814973E+03  0.67153459733E+03  0.47000000000E+01 0.  1.
          5   -1    0    0  501    0  0.00000000000E+00 -0.00000000000E+00 -0.14917095185E+03  0.14924497605E+03  0.47000000000E+01 0. -1.
          6    1    1    2  502    0 -0.16551472922E+03  0.12320165535E+03  0.44046390820E+02  0.27220921736E+03  0.17200000000E+03 0. -1.
         -6    1    1    2    0  502  0.16551472922E+03 -0.12320165535E+03  0.47830080706E+03  0.54857035602E+03  0.17200000000E+03 0.  1.
</event>
<event>
 4    1 -0.3305908E-004  0.2263520E+03  0.7818608E-02  0.1129234E+00
         -5   -1    0    0    0  501 -0.00000000000E+00  0.00000000000E+00  0.19415540041E+03  0.19421227950E+03  0.47000000000E+01 0.  1.
          5   -1    0    0  501    0  0.00000000000E+00 -0.00000000000E+00 -0.26431991076E+03  0.26436169394E+03  0.47000000000E+01 0. -1.
          6    1    1    2  502    0 -0.14581856804E+03  0.19702637354E+02 -0.24638971302E+02  0.22768910297E+03  0.17200000000E+03 0. -1.
         -6    1    1    2    0  502  0.14581856804E+03 -0.19702637354E+02 -0.45525539052E+02  0.23088487047E+03  0.17200000000E+03 0. -1.
</event>
<event>
 4    1 -0.3305908E-004  0.2051777E+03  0.7818608E-02  0.1145443E+00
         -5   -1    0    0    0  501 -0.00000000000E+00  0.00000000000E+00  0.20112570137E+03  0.20118060978E+03  0.47000000000E+01 0.  1.
          5   -1    0    0  501    0  0.00000000000E+00 -0.00000000000E+00 -0.28804449651E+03  0.28808283873E+03  0.47000000000E+01 0. -1.
          6    1    1    2  502    0 -0.87925673413E+02 -0.69158850666E+02 -0.17142379826E+03  0.26736489912E+03  0.17200000000E+03 0. -1.
         -6    1    1    2    0  502  0.87925673413E+02  0.69158850666E+02  0.84505003124E+02  0.22189854939E+03  0.17200000000E+03 0.  1.
</event>
<event>
 4    1 -0.3305908E-004  0.2171160E+03  0.7818608E-02  0.1136052E+00
          5   -1    0    0  501    0  0.00000000000E+00  0.00000000000E+00  0.44805522780E+03  0.44807987811E+03  0.47000000000E+01 0. -1.
         -5   -1    0    0    0  501 -0.00000000000E+00 -0.00000000000E+00 -0.13034635940E+03  0.13043106765E+03  0.47000000000E+01 0.  1.
          6    1    1    2  502    0 -0.75093830509E+02  0.10916173351E+03  0.28602446855E+03  0.35909520194E+03  0.17200000000E+03 0. -1.
         -6    1    1    2    0  502  0.75093830509E+02 -0.10916173351E+03  0.31684399853E+02  0.21941574382E+03  0.17200000000E+03 0. -1.
</event>
<event>
 4    1 -0.3305908E-004  0.2124911E+03  0.7818608E-02  0.1139608E+00
          5   -1    0    0  501    0  0.00000000000E+00  0.00000000000E+00  0.24955221928E+03  0.24959647463E+03  0.47000000000E+01 0. -1.
         -5   -1    0    0    0  501 -0.00000000000E+00 -0.00000000000E+00 -0.11307425956E+04  0.11307523635E+04  0.47000000000E+01 0.  1.
          6    1    1    2  502    0 -0.73925002395E+02 -0.10051637067E+03  0.19196306482E+03  0.28636037611E+03  0.17200000000E+03 0. -1.
         -6    1    1    2    0  502  0.73925002395E+02  0.10051637067E+03 -0.10731534412E+04  0.10939884620E+04  0.17200000000E+03 0.  1.
</event>
<event>
 4    1 -0.3305908E-004  0.1948888E+03  0.7818608E-02  0.1154124E+00
          5   -1    0    0  501    0  0.00000000000E+00  0.00000000000E+00  0.70917809724E+03  0.70919367144E+03  0.47000000000E+01 0. -1.
         -5   -1    0    0    0  501 -0.00000000000E+00 -0.00000000000E+00 -0.55318619426E+02  0.55517921928E+02  0.47000000000E+01 0.  1.
          6    1    1    2  502    0 -0.75088334151E+02  0.52529677799E+02  0.39729109472E+03  0.44251761425E+03  0.17200000000E+03 0. -1.
         -6    1    1    2    0  502  0.75088334151E+02 -0.52529677799E+02  0.25656838309E+03  0.32219397912E+03  0.17200000000E+03 0.  1.
</event>
<event>
 4    1 -0.3305908E-004  0.2598048E+03  0.7818608E-02  0.1107261E+00
         -5   -1    0    0    0  501 -0.00000000000E+00  0.00000000000E+00  0.13834458722E+03  0.13842440107E+03  0.47000000000E+01 0.  1.
          5   -1    0    0  501    0  0.00000000000E+00 -0.00000000000E+00 -0.87843402944E+03  0.87844660286E+03  0.47000000000E+01 0. -1.
          6    1    1    2  502    0  0.19352985699E+03 -0.21464176301E+02 -0.70913453890E+03  0.75522864794E+03  0.17200000000E+03 0. -1.
         -6    1    1    2    0  502 -0.19352985699E+03  0.21464176301E+02 -0.30954903322E+02  0.26164235599E+03  0.17200000000E+03 0.  1.
</event>
<event>
 4    1 -0.3305908E-004  0.2547223E+03  0.7818608E-02  0.1110356E+00
         -5   -1    0    0    0  501 -0.00000000000E+00  0.00000000000E+00  0.88088007763E+02  0.88213304618E+02  0.47000000000E+01 0.  1.
          5   -1    0    0  501    0  0.00000000000E+00 -0.00000000000E+00 -0.75060312359E+03  0.75061783828E+03  0.47000000000E+01 0. -1.
          6    1    1    2  502    0  0.78282841420E+02  0.17079589743E+03 -0.38991513994E+03  0.46574376883E+03  0.17200000000E+03 0. -1.
         -6    1    1    2    0  502 -0.78282841420E+02 -0.17079589743E+03 -0.27259997589E+03  0.37308737408E+03  0.17200000000E+03 0. -1.
</event>
<event>
 4    1 -0.3305908E-004  0.2473418E+03  0.7818608E-02  0.1114996E+00
         -5   -1    0    0    0  501 -0.00000000000E+00  0.00000000000E+00  0.37496911910E+03  0.37499857370E+03  0.47000000000E+01 0.  1.
          5   -1    0    0  501    0  0.00000000000E+00 -0.00000000000E+00 -0.22754222172E+03  0.22759075699E+03  0.47000000000E+01 0. -1.
          6    1    1    2  502    0  0.11020396397E+02  0.17740490749E+03 -0.86615870454E+02  0.26206918810E+03  0.17200000000E+03 0. -1.
         -6    1    1    2    0  502 -0.11020396397E+02 -0.17740490749E+03  0.23404276783E+03  0.34052014259E+03  0.17200000000E+03 0.  1.
</event>
<event>
 4    1 -0.3305908E-004  0.2628500E+03  0.7818608E-02  0.1105443E+00
         -5   -1    0    0    0  501 -0.00000000000E+00  0.00000000000E+00  0.27173009359E+04  0.27173050006E+04  0.47000000000E+01 0.  1.
          5   -1    0    0  501    0  0.00000000000E+00 -0.00000000000E+00 -0.52964790955E+02  0.53172916799E+02  0.47000000000E+01 0. -1.
          6    1    1    2  502    0  0.87959456806E+02 -0.17823925191E+03  0.33237132773E+03  0.42374614625E+03  0.17200000000E+03 0. -1.
         -6    1    1    2    0  502 -0.87959456806E+02  0.17823925191E+03  0.23319648172E+04  0.23467317712E+04  0.17200000000E+03 0.  1.
</event>
<event>
 4    1 -0.3305908E-004  0.2249674E+03  0.7818608E-02  0.1130233E+00
          5   -1    0    0  501    0  0.00000000000E+00  0.00000000000E+00  0.27626475320E+03  0.27630473008E+03  0.47000000000E+01 0. -1.
         -5   -1    0    0    0  501 -0.00000000000E+00 -0.00000000000E+00 -0.42164956841E+03  0.42167576234E+03  0.47000000000E+01 0.  1.
          6    1    1    2  502    0  0.25328476117E+02  0.14277532682E+03  0.18977376042E+03  0.29432024360E+03  0.17200000000E+03 0. -1.
         -6    1    1    2    0  502 -0.25328476117E+02 -0.14277532682E+03 -0.33515857563E+03  0.40366024881E+03  0.17200000000E+03 0.  1.
</event>
<event>
 4    1 -0.3305908E-004  0.1805688E+03  0.7818608E-02  0.1167254E+00
         -5   -1    0    0    0  501 -0.00000000000E+00  0.00000000000E+00  0.10801437679E+03  0.10811658334E+03  0.47000000000E+01 0.  1.
          5   -1    0    0  501    0  0.00000000000E+00 -0.00000000000E+00 -0.35525309409E+03  0.35528418324E+03  0.47000000000E+01 0. -1.
          6    1    1    2  502    0  0.31157700370E+02 -0.45280205162E+02 -0.21364988631E+03  0.27973446908E+03  0.17200000000E+03 0. -1.
         -6    1    1    2    0  502 -0.31157700370E+02  0.45280205162E+02 -0.33588830989E+02  0.18366629750E+03  0.17200000000E+03 0.  1.
</event>
<event>
 4    1 -0.3305908E-004  0.1987053E+03  0.7818608E-02  0.1150836E+00
          5   -1    0    0  501    0  0.00000000000E+00  0.00000000000E+00  0.12612934044E+04  0.12613021613E+04  0.47000000000E+01 0. -1.
         -5   -1    0    0    0  501 -0.00000000000E+00 -0.00000000000E+00 -0.12608732524E+03  0.12617489285E+03  0.47000000000E+01 0.  1.
          6    1    1    2  502    0  0.92721275468E+02  0.36091016581E+02  0.11691308368E+04  0.11858965849E+04  0.17200000000E+03 0. -1.
         -6    1    1    2    0  502 -0.92721275468E+02 -0.36091016581E+02 -0.33924757650E+02  0.20158046925E+03  0.17200000000E+03 0.  1.
</event>
<event>
 4    1 -0.3305908E-004  0.2688260E+03  0.7818608E-02  0.1101953E+00
          5   -1    0    0  501    0  0.00000000000E+00  0.00000000000E+00  0.10174723670E+04  0.10174832223E+04  0.47000000000E+01 0. -1.
         -5   -1    0    0    0  501 -0.00000000000E+00 -0.00000000000E+00 -0.76853999796E+02  0.76997579733E+02  0.47000000000E+01 0.  1.
          6    1    1    2  502    0  0.16968805456E+03  0.11785323363E+03  0.62198887665E+03  0.67759691795E+03  0.17200000000E+03 0.  1.
         -6    1    1    2    0  502 -0.16968805456E+03 -0.11785323363E+03  0.31862949056E+03  0.41688388406E+03  0.17200000000E+03 0. -1.
</event>
<event>
 4    1 -0.3305908E-004  0.2359874E+03  0.7818608E-02  0.1122495E+00
          5   -1    0    0  501    0  0.00000000000E+00  0.00000000000E+00  0.18325373035E+04  0.18325433306E+04  0.47000000000E+01 0. -1.
         -5   -1    0    0    0  501 -0.00000000000E+00 -0.00000000000E+00 -0.40731058417E+02  0.41001330707E+02  0.47000000000E+01 0.  1.
          6    1    1    2  502    0 -0.14240261356E+03 -0.76338491867E+02  0.13703154817E+04  0.13904871769E+04  0.17200000000E+03 0. -1.
         -6    1    1    2    0  502  0.14240261356E+03  0.76338491867E+02  0.42149076338E+03  0.48305748447E+03  0.17200000000E+03 0.  1.
</event>
<event>
 4    1 -0.3305908E-004  0.2141232E+03  0.7818608E-02  0.1138342E+00
          5   -1    0    0  501    0  0.00000000000E+00  0.00000000000E+00  0.32658426288E+03  0.32661808088E+03  0.47000000000E+01 0. -1.
         -5   -1    0    0    0  501 -0.00000000000E+00 -0.00000000000E+00 -0.14883460946E+03  0.14890880086E+03  0.47000000000E+01 0.  1.
          6    1    1    2  502    0 -0.11059956883E+03  0.63501662853E+02  0.31987583848E+02  0.21649926404E+03  0.17200000000E+03 0.  1.
         -6    1    1    2    0  502  0.11059956883E+03 -0.63501662853E+02  0.14576206957E+03  0.25902761771E+03  0.17200000000E+03 0. -1.
</event>
<event>
 4    1 -0.3305908E-004  0.2173963E+03  0.7818608E-02  0.1135839E+00
         -5   -1    0    0    0  501 -0.00000000000E+00  0.00000000000E+00  0.14884528337E+04  0.14884602542E+04  0.47000000000E+01 0.  1.
          5   -1    0    0  501    0  0.00000000000E+00 -0.00000000000E+00 -0.98592676962E+02  0.98704639964E+02  0.47000000000E+01 0. -1.
          6    1    1    2  502    0  0.10351561611E+03 -0.83436696824E+02  0.41412767983E+02  0.22130563144E+03  0.17200000000E+03 0. -1.
         -6    1    1    2    0  502 -0.10351561611E+03  0.83436696824E+02  0.13484473888E+04  0.13658592627E+04  0.17200000000E+03 0.  1.
</event>
<event>
 4    1 -0.3305908E-004  0.1730211E+03  0.7818608E-02  0.1174733E+00
          5   -1    0    0  501    0  0.00000000000E+00  0.00000000000E+00  0.40693478767E+03  0.40696192871E+03  0.47000000000E+01 0. -1.
         -5   -1    0    0    0  501 -0.00000000000E+00 -0.00000000000E+00 -0.10800793223E+03  0.10811014488E+03  0.47000000000E+01 0.  1.
          6    1    1    2  502    0  0.16071114455E+02  0.96958186724E+01  0.39144576698E+01  0.17306534199E+03  0.17200000000E+03 0.  1.
         -6    1    1    2    0  502 -0.16071114455E+02 -0.96958186724E+01  0.29501239777E+03  0.34200673160E+03  0.17200000000E+03 0. -1.
</event>
<event>
 4    1 -0.3305908E-004  0.2914305E+03  0.7818608E-02  0.1089605E+00
          5   -1    0    0  501    0  0.00000000000E+00  0.00000000000E+00  0.22138917122E+03  0.22143905512E+03  0.47000000000E+01 0. -1.
         -5   -1    0    0    0  501 -0.00000000000E+00 -0.00000000000E+00 -0.38532320505E+03  0.38535186823E+03  0.47000000000E+01 0.  1.
          6    1    1    2  502    0 -0.23352374284E+03 -0.28537755948E+02 -0.10269975878E+03  0.30899673532E+03  0.17200000000E+03 0.  1.
         -6    1    1    2    0  502  0.23352374284E+03  0.28537755948E+02 -0.61234275051E+02  0.29779418803E+03  0.17200000000E+03 0. -1.
</event>
<event>
 4    1 -0.3305908E-004  0.4019548E+03  0.7818608E-02  0.1043105E+00
         -5   -1    0    0    0  501 -0.00000000000E+00  0.00000000000E+00  0.17894039569E+04  0.17894101293E+04  0.47000000000E+01 0.  1.
          5   -1    0    0  501    0  0.00000000000E+00 -0.00000000000E+00 -0.91285643406E+02  0.91406557161E+02  0.47000000000E+01 0. -1.
          6    1    1    2  502    0  0.36315795987E+03 -0.99991920959E+01  0.74770726600E+03  0.84890155100E+03  0.17200000000E+03 0. -1.
         -6    1    1    2    0  502 -0.36315795987E+03  0.99991920959E+01  0.95041104745E+03  0.10319151355E+04  0.17200000000E+03 0.  1.
</event>
<event>
 4    1 -0.3305908E-004  0.2775163E+03  0.7818608E-02  0.1097053E+00
         -5   -1    0    0    0  501 -0.00000000000E+00  0.00000000000E+00  0.11518468062E+04  0.11518563951E+04  0.47000000000E+01 0.  1.
          5   -1    0    0  501    0  0.00000000000E+00 -0.00000000000E+00 -0.80053732415E+02  0.80191583558E+02  0.47000000000E+01 0. -1.
          6    1    1    2  502    0 -0.16637398337E+03  0.14053824215E+03  0.28521020511E+03  0.39794492200E+03  0.17200000000E+03 0. -1.
         -6    1    1    2    0  502  0.16637398337E+03 -0.14053824215E+03  0.78658286870E+03  0.83410305669E+03  0.17200000000E+03 0.  1.
</event>
<event>
 4    1 -0.3305908E-004  0.2963109E+03  0.7818608E-02  0.1087099E+00
          5   -1    0    0  501    0  0.00000000000E+00  0.00000000000E+00  0.46218583959E+03  0.46220973629E+03  0.47000000000E+01 0. -1.
         -5   -1    0    0    0  501 -0.00000000000E+00 -0.00000000000E+00 -0.19003278065E+03  0.19009089331E+03  0.47000000000E+01 0.  1.
          6    1    1    2  502    0  0.21951748580E+03 -0.10014104624E+03  0.12776544093E+03  0.32268276002E+03  0.17200000000E+03 0. -1.
         -6    1    1    2    0  502 -0.21951748580E+03  0.10014104624E+03  0.14438761801E+03  0.32961786959E+03  0.17200000000E+03 0.  1.
</event>
<event>
 4    1 -0.3305908E-004  0.2646895E+03  0.7818608E-02  0.1104358E+00
         -5   -1    0    0    0  501 -0.00000000000E+00  0.00000000000E+00  0.45106109924E+03  0.45108558528E+03  0.47000000000E+01 0.  1.
          5   -1    0    0  501    0  0.00000000000E+00 -0.00000000000E+00 -0.15928744701E+03  0.15935677198E+03  0.47000000000E+01 0. -1.
          6    1    1    2  502    0 -0.35378671101E+02 -0.19805275597E+03  0.19440811056E+03  0.32841293819E+03  0.17200000000E+03 0. -1.
         -6    1    1    2    0  502  0.35378671101E+02  0.19805275597E+03  0.97365541660E+02  0.28202941907E+03  0.17200000000E+03 0. -1.
</event>
<event>
 4    1 -0.3305908E-004  0.1852734E+03  0.7818608E-02  0.1162795E+00
         -5   -1    0    0    0  501 -0.00000000000E+00  0.00000000000E+00  0.37621635362E+03  0.37624571058E+03  0.47000000000E+01 0.  1.
          5   -1    0    0  501    0  0.00000000000E+00 -0.00000000000E+00 -0.15034369613E+03  0.15041714320E+03  0.47000000000E+01 0. -1.
          6    1    1    2  502    0  0.33692559951E+02  0.60058745394E+02 -0.52231378829E+02  0.19249508677E+03  0.17200000000E+03 0. -1.
         -6    1    1    2    0  502 -0.33692559951E+02 -0.60058745394E+02  0.27810403631E+03  0.33416776701E+03  0.17200000000E+03 0.  1.
</event>
<event>
 4    1 -0.3305908E-004  0.2699565E+03  0.7818608E-02  0.1101305E+00
         -5   -1    0    0    0  501 -0.00000000000E+00  0.00000000000E+00  0.40160981007E+02  0.40435063935E+02  0.47000000000E+01 0.  1.
          5   -1    0    0  501    0  0.00000000000E+00 -0.00000000000E+00 -0.18480303272E+04  0.18480363039E+04  0.47000000000E+01 0. -1.
          6    1    1    2  502    0 -0.20580859603E+03 -0.30583269109E+02 -0.10426127723E+04  0.10769948502E+04  0.17200000000E+03 0. -1.
         -6    1    1    2    0  502  0.20580859603E+03  0.30583269109E+02 -0.76525657397E+03  0.81147651756E+03  0.17200000000E+03 0. -1.
</event>
<event>
 4    1 -0.3305908E-004  0.2730853E+03  0.7818608E-02  0.1099527E+00
         -5   -1    0    0    0  501 -0.00000000000E+00  0.00000000000E+00  0.36220942367E+03  0.36223991579E+03  0.47000000000E+01 0.  1.
          5   -1    0    0  501    0  0.00000000000E+00 -0.00000000000E+00 -0.21034718664E+03  0.21039968851E+03  0.47000000000E+01 0. -1.
          6    1    1    2  502    0 -0.19656247363E+03  0.79716865585E+02  0.11790512434E+03  0.29745117758E+03  0.17200000000E+03 0. -1.
         -6    1    1    2    0  502  0.19656247363E+03 -0.79716865585E+02  0.33957112687E+02  0.27518842672E+03  0.17200000000E+03 0.  1.
</event>
<event>
 4    1 -0.3305908E-004  0.1791305E+03  0.7818608E-02  0.1168647E+00
          5   -1    0    0  501    0  0.00000000000E+00  0.00000000000E+00  0.11744011973E+03  0.11753413003E+03  0.47000000000E+01 0. -1.
         -5   -1    0    0    0  501 -0.00000000000E+00 -0.00000000000E+00 -0.32109482766E+03  0.32112922375E+03  0.47000000000E+01 0.  1.
          6    1    1    2  502    0  0.49791108625E+02 -0.49586096215E+01 -0.16961665071E+02  0.17993176593E+03  0.17200000000E+03 0. -1.
         -6    1    1    2    0  502 -0.49791108625E+02  0.49586096215E+01 -0.18669304285E+03  0.25873158786E+03  0.17200000000E+03 0.  1.
</event>
<event>
 4    1 -0.3305908E-004  0.1819319E+03  0.7818608E-02  0.1165946E+00
         -5   -1    0    0    0  501 -0.00000000000E+00  0.00000000000E+00  0.41568259039E+03  0.41570916029E+03  0.47000000000E+01 0.  1.
          5   -1    0    0  501    0  0.00000000000E+00 -0.00000000000E+00 -0.10261101687E+03  0.10271859998E+03  0.47000000000E+01 0. -1.
          6    1    1    2  502    0 -0.13250589049E+02 -0.57789471107E+02  0.33680406125E+02  0.18502316298E+03  0.17200000000E+03 0. -1.
         -6    1    1    2    0  502  0.13250589049E+02  0.57789471107E+02  0.27939116740E+03  0.33340459730E+03  0.17200000000E+03 0.  1.
</event>
<event>
 4    1 -0.3305908E-004  0.3323840E+03  0.7818608E-02  0.1070087E+00
         -5   -1    0    0    0  501 -0.00000000000E+00  0.00000000000E+00  0.48136338451E+03  0.48138632921E+03  0.47000000000E+01 0.  1.
          5   -1    0    0  501    0  0.00000000000E+00 -0.00000000000E+00 -0.26052761992E+03  0.26057001120E+03  0.47000000000E+01 0. -1.
          6    1    1    2  502    0  0.79089040534E+02 -0.27320327746E+03 -0.17672248468E+02  0.33285344450E+03  0.17200000000E+03 0. -1.
         -6    1    1    2    0  502 -0.79089040534E+02  0.27320327746E+03  0.23850801306E+03  0.40910289591E+03  0.17200000000E+03 0.  1.
</event>
<event>
 4    1 -0.3305908E-004  0.2208088E+03  0.7818608E-02  0.1133281E+00
         -5   -1    0    0    0  501 -0.00000000000E+00  0.00000000000E+00  0.61860665030E+03  0.61862450469E+03  0.47000000000E+01 0.  1.
          5   -1    0    0  501    0  0.00000000000E+00 -0.00000000000E+00 -0.89589875619E+02  0.89713074930E+02  0.47000000000E+01 0. -1.
          6    1    1    2  502    0  0.11023383451E+03  0.83791634173E+02  0.14128914252E+03  0.26214339210E+03  0.17200000000E+03 0. -1.
         -6    1    1    2    0  502 -0.11023383451E+03 -0.83791634173E+02  0.38772763217E+03  0.44619418752E+03  0.17200000000E+03 0.  1.
</event>
<event>
 4    1 -0.3305908E-004  0.2874115E+03  0.7818608E-02  0.1091708E+00
         -5   -1    0    0    0  501 -0.00000000000E+00  0.00000000000E+00  0.73264152767E+02  0.73414753835E+02  0.47000000000E+01 0.  1.
          5   -1    0    0  501    0  0.00000000000E+00 -0.00000000000E+00 -0.13663145696E+04  0.13663226534E+04  0.47000000000E+01 0. -1.
          6    1    1    2  502    0  0.20089457415E+03  0.11252873541E+03 -0.94829347668E+03  0.99089144922E+03  0.17200000000E+03 0. -1.
         -6    1    1    2    0  502 -0.20089457415E+03 -0.11252873541E+03 -0.34475694015E+03  0.44884595798E+03  0.17200000000E+03 0.  1.
</event>
<event>
 4    1 -0.3305908E-004  0.1812792E+03  0.7818608E-02  0.1166571E+00
         -5   -1    0    0    0  501 -0.00000000000E+00  0.00000000000E+00  0.49075263622E+03  0.49077514195E+03  0.47000000000E+01 0.  1.
          5   -1    0    0  501    0  0.00000000000E+00 -0.00000000000E+00 -0.73637216702E+02  0.73787056342E+02  0.47000000000E+01 0. -1.
          6    1    1    2  502    0 -0.29501770582E+02 -0.49069264992E+02  0.29411366309E+03  0.34549239362E+03  0.17200000000E+03 0.  1.
         -6    1    1    2    0  502  0.29501770582E+02  0.49069264992E+02  0.12300175643E+03  0.21906980467E+03  0.17200000000E+03 0. -1.
</event>
<event>
 4    1 -0.3305908E-004  0.1842389E+03  0.7818608E-02  0.1163763E+00
         -5   -1    0    0    0  501 -0.00000000000E+00  0.00000000000E+00  0.24744971139E+03  0.24749434270E+03  0.47000000000E+01 0.  1.
          5   -1    0    0  501    0  0.00000000000E+00 -0.00000000000E+00 -0.13713752007E+03  0.13721803602E+03  0.47000000000E+01 0. -1.
          6    1    1    2  502    0  0.24256071220E+02 -0.61413409224E+02  0.51147879746E+02  0.19120687599E+03  0.17200000000E+03 0.  1.
         -6    1    1    2    0  502 -0.24256071220E+02  0.61413409224E+02  0.59164311579E+02  0.19350550273E+03  0.17200000000E+03 0.  1.
</event>
<event>
 4    1 -0.3305908E-004  0.1989531E+03  0.7818608E-02  0.1150625E+00
          5   -1    0    0  501    0  0.00000000000E+00  0.00000000000E+00  0.66213343013E+03  0.66215011084E+03  0.47000000000E+01 0. -1.
         -5   -1    0    0    0  501 -0.00000000000E+00 -0.00000000000E+00 -0.71661977612E+02  0.71815938588E+02  0.47000000000E+01 0.  1.
          6    1    1    2  502    0 -0.21192315407E+02  0.97720162627E+02  0.44516303753E+03  0.48759868170E+03  0.17200000000E+03 0. -1.
         -6    1    1    2    0  502  0.21192315407E+02 -0.97720162627E+02  0.14530841499E+03  0.24636736773E+03  0.17200000000E+03 0.  1.
</event>
<event>
 4    1 -0.3305908E-004  0.1902764E+03  0.7818608E-02  0.1158212E+00
          5   -1    0    0  501    0  0.00000000000E+00  0.00000000000E+00  0.38704568402E+02  0.38988890920E+02  0.47000000000E+01 0. -1.
         -5   -1    0    0    0  501 -0.00000000000E+00 -0.00000000000E+00 -0.93173333742E+03  0.93174519160E+03  0.47000000000E+01 0.  1.
          6    1    1    2  502    0  0.69301673916E+02 -0.42642402470E+02 -0.44903010483E+03  0.48768138322E+03  0.17200000000E+03 0. -1.
         -6    1    1    2    0  502 -0.69301673916E+02  0.42642402470E+02 -0.44399866419E+03  0.48305269929E+03  0.17200000000E+03 0.  1.
</event>
<event>
 4    1 -0.3305908E-004  0.1887058E+03  0.7818608E-02  0.1159634E+00
          5   -1    0    0  501    0  0.00000000000E+00  0.00000000000E+00  0.16811572572E+03  0.16818141168E+03  0.47000000000E+01 0. -1.
         -5   -1    0    0    0  501 -0.00000000000E+00 -0.00000000000E+00 -0.22651046985E+03  0.22655922614E+03  0.47000000000E+01 0.  1.
          6    1    1    2  502    0  0.76666754111E+02  0.12168677834E+02  0.21284886621E+02  0.18990238099E+03  0.17200000000E+03 0. -1.
         -6    1    1    2    0  502 -0.76666754111E+02 -0.12168677834E+02 -0.79679630751E+02  0.20483825683E+03  0.17200000000E+03 0.  1.
</event>
<event>
 4    1 -0.3305908E-004  0.1739154E+03  0.7818608E-02  0.1173825E+00
          5   -1    0    0  501    0  0.00000000000E+00  0.00000000000E+00  0.44830902592E+02  0.45076599552E+02  0.47000000000E+01 0. -1.
         -5   -1    0    0    0  501 -0.00000000000E+00 -0.00000000000E+00 -0.69808958385E+03  0.69810540542E+03  0.47000000000E+01 0.  1.
          6    1    1    2  502    0 -0.23265694830E+02 -0.11012246361E+02 -0.25561421472E+03  0.30916854447E+03  0.17200000000E+03 0. -1.
         -6    1    1    2    0  502  0.23265694830E+02  0.11012246361E+02 -0.39764446654E+03  0.43401346050E+03  0.17200000000E+03 0.  1.
</event>
<event>
 4    1 -0.3305908E-004  0.3689841E+03  0.7818608E-02  0.1055082E+00
          5   -1    0    0  501    0  0.00000000000E+00  0.00000000000E+00  0.21678265934E+03  0.21683360300E+03  0.47000000000E+01 0. -1.
         -5   -1    0    0    0  501 -0.00000000000E+00 -0.00000000000E+00 -0.20561726077E+04  0.20561779794E+04  0.47000000000E+01 0.  1.
          6    1    1    2  502    0  0.13489414803E+03 -0.29726899381E+03  0.27499314164E+02  0.37000742983E+03  0.17200000000E+03 0. -1.
         -6    1    1    2    0  502 -0.13489414803E+03  0.29726899381E+03 -0.18668892626E+04  0.19030041525E+04  0.17200000000E+03 0.  1.
</event>
<event>
 4    1 -0.3305908E-004  0.2425839E+03  0.7818608E-02  0.1118083E+00
          5   -1    0    0  501    0  0.00000000000E+00  0.00000000000E+00  0.18269292715E+04  0.18269353171E+04  0.47000000000E+01 0. -1.
         -5   -1    0    0    0  501 -0.00000000000E+00 -0.00000000000E+00 -0.32099681739E+02  0.32441941492E+02  0.47000000000E+01 0.  1.
          6    1    1    2  502    0 -0.51202275228E+02 -0.16322148983E+03  0.85535234682E+03  0.88908636529E+03  0.17200000000E+03 0. -1.
         -6    1    1    2    0  502  0.51202275228E+02  0.16322148983E+03  0.93947724293E+03  0.97029089335E+03  0.17200000000E+03 0.  1.
</event>
<event>
 4    1 -0.3305908E-004  0.2135244E+03  0.7818608E-02  0.1138805E+00
          5   -1    0    0  501    0  0.00000000000E+00  0.00000000000E+00  0.13090606977E+03  0.13099041607E+03  0.47000000000E+01 0. -1.
         -5   -1    0    0    0  501 -0.00000000000E+00 -0.00000000000E+00 -0.38705947367E+03  0.38708800829E+03  0.47000000000E+01 0.  1.
          6    1    1    2  502    0  0.11310915432E+03 -0.56700784838E+02 -0.45877066935E+02  0.21839726432E+03  0.17200000000E+03 0. -1.
         -6    1    1    2    0  502 -0.11310915432E+03  0.56700784838E+02 -0.21027633697E+03  0.29968116004E+03  0.17200000000E+03 0.  1.
</event>
<event>
 4    1 -0.3305908E-004  0.1764477E+03  0.7818608E-02  0.1171286E+00
         -5   -1    0    0    0  501 -0.00000000000E+00  0.00000000000E+00  0.26627845792E+03  0.26631993382E+03  0.47000000000E+01 0.  1.
          5   -1    0    0  501    0  0.00000000000E+00 -0.00000000000E+00 -0.13289280877E+03  0.13297589490E+03  0.47000000000E+01 0. -1.
          6    1    1    2  502    0 -0.13288173570E+02  0.37056770700E+02 -0.26964606856E+01  0.17646827112E+03  0.17200000000E+03 0. -1.
         -6    1    1    2    0  502  0.13288173570E+02 -0.37056770700E+02  0.13608210983E+03  0.22282755760E+03  0.17200000000E+03 0.  1.
</event>
<event>
 4    1 -0.3305908E-004  0.2628295E+03  0.7818608E-02  0.1105455E+00
         -5   -1    0    0    0  501 -0.00000000000E+00  0.00000000000E+00  0.28963718984E+03  0.28967532124E+03  0.47000000000E+01 0.  1.
          5   -1    0    0  501    0  0.00000000000E+00 -0.00000000000E+00 -0.24354884969E+03  0.24359419572E+03  0.47000000000E+01 0. -1.
          6    1    1    2  502    0  0.61584674397E+02  0.18895146949E+03 -0.15619724848E+02  0.26329319350E+03  0.17200000000E+03 0. -1.
         -6    1    1    2    0  502 -0.61584674397E+02 -0.18895146949E+03  0.61708064996E+02  0.26997632346E+03  0.17200000000E+03 0. -1.
</event>
<event>
 4    1 -0.3305908E-004  0.3746521E+03  0.7818608E-02  0.1052928E+00
         -5   -1    0    0    0  501 -0.00000000000E+00  0.00000000000E+00  0.22983819660E+03  0.22988624712E+03  0.47000000000E+01 0.  1.
          5   -1    0    0  501    0  0.00000000000E+00 -0.00000000000E+00 -0.63432749582E+03  0.63434490772E+03  0.47000000000E+01 0. -1.
          6    1    1    2  502    0 -0.17768223807E+03 -0.28144134535E+03 -0.28583527315E+03  0.47123880568E+03  0.17200000000E+03 0. -1.
         -6    1    1    2    0  502  0.17768223807E+03  0.28144134535E+03 -0.11865402607E+03  0.39299234917E+03  0.17200000000E+03 0.  1.
</event>
<event>
 4    1 -0.3305908E-004  0.2015293E+03  0.7818608E-02  0.1148455E+00
          5   -1    0    0  501    0  0.00000000000E+00  0.00000000000E+00  0.24940627542E+02  0.25379615880E+02  0.47000000000E+01 0. -1.
         -5   -1    0    0    0  501 -0.00000000000E+00 -0.00000000000E+00 -0.16402142254E+04  0.16402209592E+04  0.47000000000E+01 0.  1.
          6    1    1    2  502    0  0.87828977058E+02  0.57585818986E+02 -0.91334469956E+03  0.93531416967E+03  0.17200000000E+03 0.  1.
         -6    1    1    2    0  502 -0.87828977058E+02 -0.57585818986E+02 -0.70192889827E+03  0.73028640545E+03  0.17200000000E+03 0. -1.
</event>
<event>
 4    1 -0.3305908E-004  0.1732931E+03  0.7818608E-02  0.1174457E+00
          5   -1    0    0  501    0  0.00000000000E+00  0.00000000000E+00  0.11332537810E+03  0.11342279895E+03  0.47000000000E+01 0. -1.
         -5   -1    0    0    0  501 -0.00000000000E+00 -0.00000000000E+00 -0.65188584380E+03  0.65190278673E+03  0.47000000000E+01 0.  1.
          6    1    1    2  502    0  0.17953426760E+02  0.11143065778E+02  0.25578187738E+02  0.17517059438E+03  0.17200000000E+03 0. -1.
         -6    1    1    2    0  502 -0.17953426760E+02 -0.11143065778E+02 -0.56413865344E+03  0.59015499130E+03  0.17200000000E+03 0.  1.
</event>
<event>
 4    1 -0.3305908E-004  0.1800689E+03  0.7818608E-02  0.1167736E+00
         -5   -1    0    0    0  501 -0.00000000000E+00  0.00000000000E+00  0.30704206106E+03  0.30707803122E+03  0.47000000000E+01 0.  1.
          5   -1    0    0  501    0  0.00000000000E+00 -0.00000000000E+00 -0.13340958805E+03  0.13349235253E+03  0.47000000000E+01 0. -1.
          6    1    1    2  502    0  0.12215566400E+02  0.51880683033E+02 -0.13873338633E+02  0.18060258819E+03  0.17200000000E+03 0. -1.
         -6    1    1    2    0  502 -0.12215566400E+02 -0.51880683033E+02  0.18750581164E+03  0.25996779557E+03  0.17200000000E+03 0.  1.
</event>
<event>
 4    1 -0.3305908E-004  0.1953263E+03  0.7818608E-02  0.1153743E+00
         -5   -1    0    0    0  501 -0.00000000000E+00  0.00000000000E+00  0.32157216343E+03  0.32160650847E+03  0.47000000000E+01 0.  1.
          5   -1    0    0  501    0  0.00000000000E+00 -0.00000000000E+00 -0.13289891562E+03  0.13298199793E+03  0.47000000000E+01 0. -1.
          6    1    1    2  502    0 -0.81523059898E+02 -0.43844467002E+02  0.19700799989E+02  0.19631726389E+03  0.17200000000E+03 0. -1.
         -6    1    1    2    0  502  0.81523059898E+02  0.43844467002E+02  0.16897244782E+03  0.25827124250E+03  0.17200000000E+03 0.  1.
</event>
<event>
 4    1 -0.3305908E-004  0.2913486E+03  0.7818608E-02  0.1089647E+00
          5   -1    0    0  501    0  0.00000000000E+00  0.00000000000E+00  0.51498650530E+03  0.51500795201E+03  0.47000000000E+01 0. -1.
         -5   -1    0    0    0  501 -0.00000000000E+00 -0.00000000000E+00 -0.41783069001E+03  0.41785712333E+03  0.47000000000E+01 0.  1.
          6    1    1    2  502    0  0.59605508667E+02  0.22748011684E+03  0.41154413099E+03  0.50423465963E+03  0.17200000000E+03 0. -1.
         -6    1    1    2    0  502 -0.59605508667E+02 -0.22748011684E+03 -0.31438831570E+03  0.42863041571E+03  0.17200000000E+03 0.  1.
</event>
<event>
 4    1 -0.3305908E-004  0.1817310E+03  0.7818608E-02  0.1166138E+00
          5   -1    0    0  501    0  0.00000000000E+00  0.00000000000E+00  0.92354404098E+03  0.92355600027E+03  0.47000000000E+01 0. -1.
         -5   -1    0    0    0  501 -0.00000000000E+00 -0.00000000000E+00 -0.45894322252E+02  0.46134356124E+02  0.47000000000E+01 0.  1.
          6    1    1    2  502    0  0.13954079054E+02 -0.56986437898E+02  0.66780958585E+03  0.69209523433E+03  0.17200000000E+03 0. -1.
         -6    1    1    2    0  502 -0.13954079054E+02  0.56986437898E+02  0.20984013287E+03  0.27759512206E+03  0.17200000000E+03 0.  1.
</event>
<event>
 4    1 -0.3305908E-004  0.2724603E+03  0.7818608E-02  0.1099880E+00
          5   -1    0    0  501    0  0.00000000000E+00  0.00000000000E+00  0.18596567827E+03  0.18602506147E+03  0.47000000000E+01 0. -1.
         -5   -1    0    0    0  501 -0.00000000000E+00 -0.00000000000E+00 -0.44262744765E+03  0.44265240021E+03  0.47000000000E+01 0.  1.
          6    1    1    2  502    0  0.11982717952E+03 -0.17404610865E+03 -0.22695433482E+03  0.35460241255E+03  0.17200000000E+03 0.  1.
         -6    1    1    2    0  502 -0.11982717952E+03  0.17404610865E+03 -0.29707434555E+02  0.27407504913E+03  0.17200000000E+03 0.  1.
</event>
<event>
 4    1 -0.3305908E-004  0.7345955E+03  0.7818608E-02  0.9659832E-01
         -5   -1    0    0    0  501 -0.00000000000E+00  0.00000000000E+00  0.13656211862E+04  0.13656292740E+04  0.47000000000E+01 0.  1.
          5   -1    0    0  501    0  0.00000000000E+00 -0.00000000000E+00 -0.45115142429E+03  0.45117590543E+03  0.47000000000E+01 0. -1.
          6    1    1    2  502    0 -0.71051055906E+03 -0.72258144986E+02  0.13714252609E+03  0.74728747248E+03  0.17200000000E+03 0. -1.
         -6    1    1    2    0  502  0.71051055906E+03  0.72258144986E+02  0.77732723579E+03  0.10695177070E+04  0.17200000000E+03 0.  1.
</event>
<event>
 4    1 -0.3305908E-004  0.1961504E+03  0.7818608E-02  0.1153028E+00
          5   -1    0    0  501    0  0.00000000000E+00  0.00000000000E+00  0.28497685179E+02  0.28882660206E+02  0.47000000000E+01 0. -1.
         -5   -1    0    0    0  501 -0.00000000000E+00 -0.00000000000E+00 -0.21936002002E+04  0.21936052353E+04  0.47000000000E+01 0.  1.
          6    1    1    2  502    0  0.83138702686E+02  0.44485407855E+02 -0.38968306845E+03  0.43626584697E+03  0.17200000000E+03 0. -1.
         -6    1    1    2    0  502 -0.83138702686E+02 -0.44485407855E+02 -0.17754194466E+04  0.17862220486E+04  0.17200000000E+03 0.  1.
</event>
<event>
 4    1 -0.3305908E-004  0.2472046E+03  0.7818608E-02  0.1115084E+00
         -5   -1    0    0    0  501 -0.00000000000E+00  0.00000000000E+00  0.29535511565E+03  0.29539250895E+03  0.47000000000E+01 0.  1.
          5   -1    0    0  501    0  0.00000000000E+00 -0.00000000000E+00 -0.23295440927E+03  0.23300181716E+03  0.47000000000E+01 0. -1.
          6    1    1    2  502    0  0.16810065825E+03 -0.57168911464E+02  0.11966336088E+03  0.27464419834E+03  0.17200000000E+03 0.  1.
         -6    1    1    2    0  502 -0.16810065825E+03  0.57168911464E+02 -0.57262654502E+02  0.25375012777E+03  0.17200000000E+03 0. -1.
</event>
<event>
 4    1 -0.3305908E-004  0.1764759E+03  0.7818608E-02  0.1171258E+00
          5   -1    0    0  501    0  0.00000000000E+00  0.00000000000E+00  0.10400903671E+03  0.10411517525E+03  0.47000000000E+01 0. -1.
         -5   -1    0    0    0  501 -0.00000000000E+00 -0.00000000000E+00 -0.29916228097E+03  0.29919919845E+03  0.47000000000E+01 0.  1.
          6    1    1    2  502    0 -0.38924487364E+02  0.66811499795E+01 -0.98512181256E+02  0.20210987937E+03  0.17200000000E+03 0. -1.
         -6    1    1    2    0  502  0.38924487364E+02 -0.66811499795E+01 -0.96641063006E+02  0.20120449433E+03  0.17200000000E+03 0. -1.
</event>
<event>
 4    1 -0.3305908E-004  0.2046519E+03  0.7818608E-02  0.1145872E+00
         -5   -1    0    0    0  501 -0.00000000000E+00  0.00000000000E+00  0.35557394372E+02  0.35866673870E+02  0.47000000000E+01 0.  1.
          5   -1    0    0  501    0  0.00000000000E+00 -0.00000000000E+00 -0.14243542758E+04  0.14243620302E+04  0.47000000000E+01 0. -1.
          6    1    1    2  502    0  0.39497560653E+02 -0.10362599855E+03 -0.10013969741E+04  0.10220950565E+04  0.17200000000E+03 0. -1.
         -6    1    1    2    0  502 -0.39497560653E+02  0.10362599855E+03 -0.38739990734E+03  0.43813364751E+03  0.17200000000E+03 0.  1.
</event>
<event>
 4    1 -0.3305908E-004  0.1752931E+03  0.7818608E-02  0.1172438E+00
         -5   -1    0    0    0  501 -0.00000000000E+00  0.00000000000E+00  0.12870505811E+03  0.12879084588E+03  0.47000000000E+01 0.  1.
          5   -1    0    0  501    0  0.00000000000E+00 -0.00000000000E+00 -0.24589443844E+03  0.24593935199E+03  0.47000000000E+01 0. -1.
          6    1    1    2  502    0  0.10018612215E+02 -0.32300216581E+02 -0.26236237498E+02  0.17724563955E+03  0.17200000000E+03 0. -1.
         -6    1    1    2    0  502 -0.10018612215E+02  0.32300216581E+02 -0.90953142839E+02  0.19748455832E+03  0.17200000000E+03 0. -1.
</event>
<event>
 4    1 -0.3305908E-004  0.1735963E+03  0.7818608E-02  0.1174149E+00
         -5   -1    0    0    0  501 -0.00000000000E+00  0.00000000000E+00  0.91518502521E+02  0.91639109029E+02  0.47000000000E+01 0.  1.
          5   -1    0    0  501    0  0.00000000000E+00 -0.00000000000E+00 -0.34998545630E+03  0.35001701333E+03  0.47000000000E+01 0. -1.
          6    1    1    2  502    0  0.11346958091E+02 -0.20564819412E+02 -0.18338481778E+03  0.25251862634E+03  0.17200000000E+03 0. -1.
         -6    1    1    2    0  502 -0.11346958091E+02  0.20564819412E+02 -0.75082135999E+02  0.18913749602E+03  0.17200000000E+03 0.  1.
</event>
<event>
 4    1 -0.3305908E-004  0.2063506E+03  0.7818608E-02  0.1144489E+00
         -5   -1    0    0    0  501 -0.00000000000E+00  0.00000000000E+00  0.71320793254E+03  0.71322341874E+03  0.47000000000E+01 0.  1.
          5   -1    0    0  501    0  0.00000000000E+00 -0.00000000000E+00 -0.73961283007E+02  0.74110467439E+02  0.47000000000E+01 0. -1.
          6    1    1    2  502    0 -0.15166038050E+02 -0.11298924789E+03  0.14633273708E+03  0.25297005512E+03  0.17200000000E+03 0.  1.
         -6    1    1    2    0  502  0.15166038050E+02  0.11298924789E+03  0.49291391246E+03  0.53436383106E+03  0.17200000000E+03 0.  1.
</event>
<event>
 4    1 -0.3305908E-004  0.1787686E+03  0.7818608E-02  0.1169000E+00
          5   -1    0    0  501    0  0.00000000000E+00  0.00000000000E+00  0.11490590633E+03  0.11500198828E+03  0.47000000000E+01 0. -1.
         -5   -1    0    0    0  501 -0.00000000000E+00 -0.00000000000E+00 -0.47589324931E+03  0.47591645773E+03  0.47000000000E+01 0.  1.
          6    1    1    2  502    0 -0.48617552001E+02 -0.32471107436E+01 -0.37104746997E+03  0.41186701138E+03  0.17200000000E+03 0. -1.
         -6    1    1    2    0  502  0.48617552001E+02  0.32471107436E+01  0.10060126984E+02  0.17905143464E+03  0.17200000000E+03 0. -1.
</event>
<event>
 4    1 -0.3305908E-004  0.2145199E+03  0.7818608E-02  0.1138036E+00
         -5   -1    0    0    0  501 -0.00000000000E+00  0.00000000000E+00  0.14686038300E+04  0.14686113508E+04  0.47000000000E+01 0.  1.
          5   -1    0    0  501    0  0.00000000000E+00 -0.00000000000E+00 -0.36635478163E+02  0.36935731484E+02  0.47000000000E+01 0. -1.
          6    1    1    2  502    0  0.72566505469E+02 -0.10568298286E+03  0.42604724061E+03  0.47700633310E+03  0.17200000000E+03 0. -1.
         -6    1    1    2    0  502 -0.72566505469E+02  0.10568298286E+03  0.10059211113E+04  0.10285407492E+04  0.17200000000E+03 0. -1.
</event>
<event>
 4    1 -0.3305908E-004  0.1864355E+03  0.7818608E-02  0.1161716E+00
         -5   -1    0    0    0  501 -0.00000000000E+00  0.00000000000E+00  0.35200381101E+03  0.35203518711E+03  0.47000000000E+01 0.  1.
          5   -1    0    0  501    0  0.00000000000E+00 -0.00000000000E+00 -0.10231850400E+03  0.10242639435E+03  0.47000000000E+01 0. -1.
          6    1    1    2  502    0  0.22735229154E+01 -0.71895958325E+02  0.16782712144E+03  0.25084684655E+03  0.17200000000E+03 0. -1.
         -6    1    1    2    0  502 -0.22735229154E+01  0.71895958325E+02  0.81858185566E+02  0.20361473491E+03  0.17200000000E+03 0. -1.
</event>
<event>
 4    1 -0.3305908E-004  0.1866812E+03  0.7818608E-02  0.1161489E+00
          5   -1    0    0  501    0  0.00000000000E+00  0.00000000000E+00  0.10088720928E+04  0.10088830406E+04  0.47000000000E+01 0. -1.
         -5   -1    0    0    0  501 -0.00000000000E+00 -0.00000000000E+00 -0.34885948341E+02  0.35201127705E+02  0.47000000000E+01 0.  1.
          6    1    1    2  502    0  0.62356934381E+02 -0.37114604431E+02  0.55003897582E+03  0.58085519370E+03  0.17200000000E+03 0.  1.
         -6    1    1    2    0  502 -0.62356934381E+02  0.37114604431E+02  0.42394716866E+03  0.46322897464E+03  0.17200000000E+03 0. -1.
</event>
<event>
 4    1 -0.3305908E-004  0.3161236E+03  0.7818608E-02  0.1077447E+00
         -5   -1    0    0    0  501 -0.00000000000E+00  0.00000000000E+00  0.22917766470E+03  0.22922585369E+03  0.47000000000E+01 0.  1.
          5   -1    0    0  501    0  0.00000000000E+00 -0.00000000000E+00 -0.49044579427E+03  0.49046831408E+03  0.47000000000E+01 0. -1.
          6    1    1    2  502    0  0.24260887618E+03 -0.10719628859E+03 -0.25057792840E+03  0.40338989735E+03  0.17200000000E+03 0. -1.
         -6    1    1    2    0  502 -0.24260887618E+03  0.10719628859E+03 -0.10690201170E+02  0.31630427042E+03  0.17200000000E+03 0.  1.
</event>
<event>
 4    1 -0.3305908E-004  0.2151563E+03  0.7818608E-02  0.1137547E+00
          5   -1    0    0  501    0  0.00000000000E+00  0.00000000000E+00  0.42520667335E+02  0.42779634765E+02  0.47000000000E+01 0. -1.
         -5   -1    0    0    0  501 -0.00000000000E+00 -0.00000000000E+00 -0.13280337586E+04  0.13280420754E+04  0.47000000000E+01 0.  1.
          6    1    1    2  502    0  0.10439826783E+02 -0.12883797877E+03 -0.34965384808E+03  0.41054844810E+03  0.17200000000E+03 0. -1.
         -6    1    1    2    0  502 -0.10439826783E+02  0.12883797877E+03 -0.93585924320E+03  0.96027326207E+03  0.17200000000E+03 0.  1.
</event>
<event>
 4    1 -0.3305908E-004  0.1738766E+03  0.7818608E-02  0.1173864E+00
         -5   -1    0    0    0  501 -0.00000000000E+00  0.00000000000E+00  0.24092224754E+02  0.24546390643E+02  0.47000000000E+01 0.  1.
          5   -1    0    0  501    0  0.00000000000E+00 -0.00000000000E+00 -0.13267846974E+04  0.13267930221E+04  0.47000000000E+01 0. -1.
          6    1    1    2  502    0  0.24901240219E+02  0.53842775489E+01 -0.48129310552E+03  0.51173832730E+03  0.17200000000E+03 0.  1.
         -6    1    1    2    0  502 -0.24901240219E+02 -0.53842775489E+01 -0.82139936718E+03  0.83960108540E+03  0.17200000000E+03 0. -1.
</event>
<event>
 4    1 -0.3305908E-004  0.1947964E+03  0.7818608E-02  0.1154205E+00
         -5   -1    0    0    0  501 -0.00000000000E+00  0.00000000000E+00  0.17202282782E+04  0.17202346989E+04  0.47000000000E+01 0.  1.
          5   -1    0    0  501    0  0.00000000000E+00 -0.00000000000E+00 -0.24371859120E+02  0.24820908867E+02  0.47000000000E+01 0. -1.
          6    1    1    2  502    0  0.69093458563E+02  0.59897600044E+02  0.11285209330E+04  0.11452096423E+04  0.17200000000E+03 0. -1.
         -6    1    1    2    0  502 -0.69093458563E+02 -0.59897600044E+02  0.56733548610E+03  0.59984596547E+03  0.17200000000E+03 0.  1.
</event>
<event>
 4    1 -0.3305908E-004  0.1858690E+03  0.7818608E-02  0.1162241E+00
          5   -1    0    0  501    0  0.00000000000E+00  0.00000000000E+00  0.53674593454E+03  0.53676651185E+03  0.47000000000E+01 0. -1.
         -5   -1    0    0    0  501 -0.00000000000E+00 -0.00000000000E+00 -0.74783020991E+02  0.74930569386E+02  0.47000000000E+01 0.  1.
          6    1    1    2  502    0 -0.46945880922E+01 -0.70293933721E+02  0.11637173617E+03  0.21929354130E+03  0.17200000000E+03 0. -1.
         -6    1    1    2    0  502  0.46945880922E+01  0.70293933721E+02  0.34559117738E+03  0.39240353994E+03  0.17200000000E+03 0.  1.
</event>
<event>
 4    1 -0.3305908E-004  0.1814194E+03  0.7818608E-02  0.1166436E+00
         -5   -1    0    0    0  501 -0.00000000000E+00  0.00000000000E+00  0.68229185396E+02  0.68390874682E+02  0.47000000000E+01 0.  1.
          5   -1    0    0  501    0  0.00000000000E+00 -0.00000000000E+00 -0.50523457422E+03  0.50525643488E+03  0.47000000000E+01 0. -1.
          6    1    1    2  502    0  0.57416017513E+02 -0.56905509694E+01 -0.28046872784E+03  0.33402947286E+03  0.17200000000E+03 0. -1.
         -6    1    1    2    0  502 -0.57416017513E+02  0.56905509694E+01 -0.15653666098E+03  0.23961783671E+03  0.17200000000E+03 0. -1.
</event>
<event>
 4    1 -0.3305908E-004  0.2087043E+03  0.7818608E-02  0.1142596E+00
          5   -1    0    0  501    0  0.00000000000E+00  0.00000000000E+00  0.68928156313E+03  0.68929758687E+03  0.47000000000E+01 0. -1.
         -5   -1    0    0    0  501 -0.00000000000E+00 -0.00000000000E+00 -0.66737782649E+02  0.66903076408E+02  0.47000000000E+01 0.  1.
          6    1    1    2  502    0 -0.55283204361E+01 -0.11808020021E+03  0.22297925938E+03  0.30541323829E+03  0.17200000000E+03 0. -1.
         -6    1    1    2    0  502  0.55283204361E+01  0.11808020021E+03  0.39956452110E+03  0.45078742499E+03  0.17200000000E+03 0.  1.
</event>
<event>
 4    1 -0.3305908E-004  0.3288475E+03  0.7818608E-02  0.1071648E+00
         -5   -1    0    0    0  501 -0.00000000000E+00  0.00000000000E+00  0.88567874084E+03  0.88569121142E+03  0.47000000000E+01 0.  1.
          5   -1    0    0  501    0  0.00000000000E+00 -0.00000000000E+00 -0.29597804391E+03  0.29601535852E+03  0.47000000000E+01 0. -1.
          6    1    1    2  502    0 -0.19541492401E+03  0.20092212247E+03 -0.15803716755E+03  0.36485125483E+03  0.17200000000E+03 0. -1.
         -6    1    1    2    0  502  0.19541492401E+03 -0.20092212247E+03  0.74773786448E+03  0.81685531510E+03  0.17200000000E+03 0.  1.
</event>
<event>
 4    1 -0.3305908E-004  0.2020109E+03  0.7818608E-02  0.1148053E+00
          5   -1    0    0  501    0  0.00000000000E+00  0.00000000000E+00  0.11913654903E+04  0.11913747611E+04  0.47000000000E+01 0. -1.
         -5   -1    0    0    0  501 -0.00000000000E+00 -0.00000000000E+00 -0.54769956491E+02  0.54971248249E+02  0.47000000000E+01 0.  1.
          6    1    1    2  502    0  0.95600928098E+02 -0.45660505192E+02  0.95034326654E+03  0.97157642183E+03  0.17200000000E+03 0. -1.
         -6    1    1    2    0  502 -0.95600928098E+02  0.45660505192E+02  0.18625226727E+03  0.27476958757E+03  0.17200000000E+03 0.  1.
</event>
<event>
 4    1 -0.3305908E-004  0.1851216E+03  0.7818608E-02  0.1162936E+00
          5   -1    0    0  501    0  0.00000000000E+00  0.00000000000E+00  0.14909545007E+03  0.14916951174E+03  0.47000000000E+01 0. -1.
         -5   -1    0    0    0  501 -0.00000000000E+00 -0.00000000000E+00 -0.23819076643E+03  0.23823713232E+03  0.47000000000E+01 0.  1.
          6    1    1    2  502    0  0.64857617662E+02 -0.21896997760E+02 -0.79796402897E+01  0.18529345304E+03  0.17200000000E+03 0. -1.
         -6    1    1    2    0  502 -0.64857617662E+02  0.21896997760E+02 -0.81115676070E+02  0.20211319102E+03  0.17200000000E+03 0.  1.
</event>
<event>
 4    1 -0.3305908E-004  0.1872243E+03  0.7818608E-02  0.1160989E+00
          5   -1    0    0  501    0  0.00000000000E+00  0.00000000000E+00  0.40941278305E+03  0.40943975982E+03  0.47000000000E+01 0. -1.
         -5   -1    0    0    0  501 -0.00000000000E+00 -0.00000000000E+00 -0.15063077804E+03  0.15070408519E+03  0.47000000000E+01 0.  1.
          6    1    1    2  502    0  0.45759220969E+02  0.58094965848E+02  0.31344430302E+03  0.36510308470E+03  0.17200000000E+03 0. -1.
         -6    1    1    2    0  502 -0.45759220969E+02 -0.58094965848E+02 -0.54662298013E+02  0.19504076032E+03  0.17200000000E+03 0.  1.
</event>
<event>
 4    1 -0.3305908E-004  0.1731912E+03  0.7818608E-02  0.1174560E+00
         -5   -1    0    0    0  501 -0.00000000000E+00  0.00000000000E+00  0.55220324506E+03  0.55222324639E+03  0.47000000000E+01 0.  1.
          5   -1    0    0  501    0  0.00000000000E+00 -0.00000000000E+00 -0.59581533924E+02  0.59766622664E+02  0.47000000000E+01 0. -1.
          6    1    1    2  502    0  0.85770044578E+00  0.20259293786E+02  0.15448236382E+03  0.23207752016E+03  0.17200000000E+03 0. -1.
         -6    1    1    2    0  502 -0.85770044578E+00 -0.20259293786E+02  0.33813934732E+03  0.37991234889E+03  0.17200000000E+03 0.  1.
</event>
<event>
 4    1 -0.3305908E-004  0.2157855E+03  0.7818608E-02  0.1137065E+00
         -5   -1    0    0    0  501 -0.00000000000E+00  0.00000000000E+00  0.80705612029E+02  0.80842351605E+02  0.47000000000E+01 0.  1.
          5   -1    0    0  501    0  0.00000000000E+00 -0.00000000000E+00 -0.83969960384E+03  0.83971275725E+03  0.47000000000E+01 0. -1.
          6    1    1    2  502    0 -0.11553563550E+03  0.60256987914E+02 -0.12174009353E+03  0.24775802315E+03  0.17200000000E+03 0.  1.
         -6    1    1    2    0  502  0.11553563550E+03 -0.60256987914E+02 -0.63725389828E+03  0.67279708570E+03  0.17200000000E+03 0. -1.
</event>
<event>
 4    1 -0.3305908E-004  0.2084594E+03  0.7818608E-02  0.1142792E+00
          5   -1    0    0  501    0  0.00000000000E+00  0.00000000000E+00  0.47998377663E+03  0.48000678727E+03  0.47000000000E+01 0. -1.
         -5   -1    0    0    0  501 -0.00000000000E+00 -0.00000000000E+00 -0.10845835386E+03  0.10856014241E+03  0.47000000000E+01 0.  1.
          6    1    1    2  502    0 -0.12789920293E+02 -0.11708010707E+03  0.65918860253E+02  0.21863355111E+03  0.17200000000E+03 0.  1.
         -6    1    1    2    0  502  0.12789920293E+02  0.11708010707E+03  0.30560656252E+03  0.36993337858E+03  0.17200000000E+03 0. -1.
</event>
<event>
 4    1 -0.3305908E-004  0.2206014E+03  0.7818608E-02  0.1133435E+00
          5   -1    0    0  501    0  0.00000000000E+00  0.00000000000E+00  0.26834992172E+03  0.26839107751E+03  0.47000000000E+01 0. -1.
         -5   -1    0    0    0  501 -0.00000000000E+00 -0.00000000000E+00 -0.39459746853E+03  0.39462545809E+03  0.47000000000E+01 0.  1.
          6    1    1    2  502    0  0.12925041207E+03 -0.48737040882E+02 -0.30684885256E+03  0.37791690422E+03  0.17200000000E+03 0.  1.
         -6    1    1    2    0  502 -0.12925041207E+03  0.48737040882E+02  0.18060130575E+03  0.28509963138E+03  0.17200000000E+03 0. -1.
</event>
<event>
 4    1 -0.3305908E-004  0.1868578E+03  0.7818608E-02  0.1161326E+00
         -5   -1    0    0    0  501 -0.00000000000E+00  0.00000000000E+00  0.39581329592E+03  0.39584119951E+03  0.47000000000E+01 0.  1.
          5   -1    0    0  501    0  0.00000000000E+00 -0.00000000000E+00 -0.90493863755E+02  0.90615834032E+02  0.47000000000E+01 0. -1.
          6    1    1    2  502    0 -0.71638020993E+02 -0.14136362584E+02  0.11329235130E+03  0.21852002119E+03  0.17200000000E+03 0. -1.
         -6    1    1    2    0  502  0.71638020993E+02  0.14136362584E+02  0.19202708087E+03  0.26793701235E+03  0.17200000000E+03 0.  1.
</event>
<event>
 4    1 -0.3305908E-004  0.3892008E+03  0.7818608E-02  0.1047585E+00
          5   -1    0    0  501    0  0.00000000000E+00  0.00000000000E+00  0.11417994324E+03  0.11427663558E+03  0.47000000000E+01 0. -1.
         -5   -1    0    0    0  501 -0.00000000000E+00 -0.00000000000E+00 -0.23615883590E+04  0.23615930359E+04  0.47000000000E+01 0.  1.
          6    1    1    2  502    0 -0.30946134219E+02 -0.34775792413E+03 -0.30395387181E+03  0.49382708837E+03  0.17200000000E+03 0. -1.
         -6    1    1    2    0  502  0.30946134219E+02  0.34775792413E+03 -0.19434545439E+04  0.19820425831E+04  0.17200000000E+03 0.  1.
</event>
<event>
 4    1 -0.3305908E-004  0.2976617E+03  0.7818608E-02  0.1086415E+00
         -5   -1    0    0    0  501 -0.00000000000E+00  0.00000000000E+00  0.14699176475E+03  0.14706688582E+03  0.47000000000E+01 0.  1.
          5   -1    0    0  501    0  0.00000000000E+00 -0.00000000000E+00 -0.67399147947E+03  0.67400786671E+03  0.47000000000E+01 0. -1.
          6    1    1    2  502    0 -0.23646784756E+03  0.55690668779E+02 -0.39716585162E+03  0.49632973637E+03  0.17200000000E+03 0. -1.
         -6    1    1    2    0  502  0.23646784756E+03 -0.55690668779E+02 -0.12983386310E+03  0.32474501616E+03  0.17200000000E+03 0.  1.
</event>
<event>
 4    1 -0.3305908E-004  0.1802105E+03  0.7818608E-02  0.1167600E+00
         -5   -1    0    0    0  501 -0.00000000000E+00  0.00000000000E+00  0.19447706411E+03  0.19453384915E+03  0.47000000000E+01 0.  1.
          5   -1    0    0  501    0  0.00000000000E+00 -0.00000000000E+00 -0.23872424738E+03  0.23877050967E+03  0.47000000000E+01 0. -1.
          6    1    1    2  502    0  0.52133852499E+02  0.13186080401E+02 -0.14095179408E+03  0.22878640595E+03  0.17200000000E+03 0. -1.
         -6    1    1    2    0  502 -0.52133852499E+02 -0.13186080401E+02  0.96704610809E+02  0.20451795287E+03  0.17200000000E+03 0.  1.
</event>
<event>
 4    1 -0.3305908E-004  0.1929034E+03  0.7818608E-02  0.1155868E+00
         -5   -1    0    0    0  501 -0.00000000000E+00  0.00000000000E+00  0.29434877384E+04  0.29434914908E+04  0.47000000000E+01 0.  1.
          5   -1    0    0  501    0  0.00000000000E+00 -0.00000000000E+00 -0.12809825881E+02  0.13644839284E+02  0.47000000000E+01 0. -1.
          6    1    1    2  502    0 -0.42746946444E+02  0.76160606324E+02  0.11533676299E+04  0.11693881430E+04  0.17200000000E+03 0.  1.
         -6    1    1    2    0  502  0.42746946444E+02 -0.76160606324E+02  0.17773102827E+04  0.17877481871E+04  0.17200000000E+03 0.  1.
</event>
<event>
 4    1 -0.3305908E-004  0.1944949E+03  0.7818608E-02  0.1154469E+00
         -5   -1    0    0    0  501 -0.00000000000E+00  0.00000000000E+00  0.71824773441E+02  0.71978386199E+02  0.47000000000E+01 0.  1.
          5   -1    0    0  501    0  0.00000000000E+00 -0.00000000000E+00 -0.54716862883E+03  0.54718881419E+03  0.47000000000E+01 0. -1.
          6    1    1    2  502    0  0.80212696796E+02  0.42546161890E+02 -0.17671359626E+03  0.26278498382E+03  0.17200000000E+03 0.  1.
         -6    1    1    2    0  502 -0.80212696796E+02 -0.42546161890E+02 -0.29863025912E+03  0.35638221656E+03  0.17200000000E+03 0. -1.
</event>
<event>
 4    1 -0.3305908E-004  0.1725387E+03  0.7818608E-02  0.1175226E+00
          5   -1    0    0  501    0  0.00000000000E+00  0.00000000000E+00  0.16185378666E+02  0.16853975275E+02  0.47000000000E+01 0. -1.
         -5   -1    0    0    0  501 -0.00000000000E+00 -0.00000000000E+00 -0.25715632255E+04  0.25715675206E+04  0.47000000000E+01 0.  1.
          6    1    1    2  502    0 -0.13452310855E+02  0.21564830513E+01 -0.56951266836E+03  0.59507503267E+03  0.17200000000E+03 0. -1.
         -6    1    1    2    0  502  0.13452310855E+02 -0.21564830513E+01 -0.19858651785E+04  0.19933464632E+04  0.17200000000E+03 0.  1.
</event>
<event>
 4    1 -0.3305908E-004  0.6477738E+03  0.7818608E-02  0.9810965E-01
         -5   -1    0    0    0  501 -0.00000000000E+00  0.00000000000E+00  0.10059000547E+04  0.10059110349E+04  0.47000000000E+01 0.  1.
          5   -1    0    0  501    0  0.00000000000E+00 -0.00000000000E+00 -0.42928739405E+03  0.42931312197E+03  0.47000000000E+01 0. -1.
          6    1    1    2  502    0 -0.57481801552E+03 -0.24415400505E+03  0.16751434930E+03  0.66908294431E+03  0.17200000000E+03 0. -1.
         -6    1    1    2    0  502  0.57481801552E+03  0.24415400505E+03  0.40909831134E+03  0.76614121250E+03  0.17200000000E+03 0.  1.
</event>
<event>
 4    1 -0.3305908E-004  0.1939332E+03  0.7818608E-02  0.1154961E+00
         -5   -1    0    0    0  501 -0.00000000000E+00  0.00000000000E+00  0.21224408845E+03  0.21229612121E+03  0.47000000000E+01 0.  1.
          5   -1    0    0  501    0  0.00000000000E+00 -0.00000000000E+00 -0.19774426018E+03  0.19780010727E+03  0.47000000000E+01 0. -1.
          6    1    1    2  502    0 -0.56910635659E+02  0.69190044590E+02 -0.58988822251E+02  0.20270610221E+03  0.17200000000E+03 0.  1.
         -6    1    1    2    0  502  0.56910635659E+02 -0.69190044590E+02  0.73488650518E+02  0.20739012628E+03  0.17200000000E+03 0.  1.
</event>
<event>
 4    1 -0.3305908E-004  0.2177971E+03  0.7818608E-02  0.1135536E+00
          5   -1    0    0  501    0  0.00000000000E+00  0.00000000000E+00  0.38022552101E+03  0.38025456845E+03  0.47000000000E+01 0. -1.
         -5   -1    0    0    0  501 -0.00000000000E+00 -0.00000000000E+00 -0.14385398726E+03  0.14393074602E+03  0.47000000000E+01 0.  1.
          6    1    1    2  502    0 -0.12842172902E+03 -0.36870295569E+02  0.22532247280E+02  0.21895949705E+03  0.17200000000E+03 0. -1.
         -6    1    1    2    0  502  0.12842172902E+03  0.36870295569E+02  0.21383928647E+03  0.30522581742E+03  0.17200000000E+03 0. -1.
</event>
<event>
 4    1 -0.3305908E-004  0.1845302E+03  0.7818608E-02  0.1163489E+00
          5   -1    0    0  501    0  0.00000000000E+00  0.00000000000E+00  0.25042748856E+02  0.25479977831E+02  0.47000000000E+01 0. -1.
         -5   -1    0    0    0  501 -0.00000000000E+00 -0.00000000000E+00 -0.13475646543E+04  0.13475728505E+04  0.47000000000E+01 0.  1.
          6    1    1    2  502    0  0.63144480343E+02 -0.21912597355E+02 -0.65739025870E+03  0.68279816897E+03  0.17200000000E+03 0.  1.
         -6    1    1    2    0  502 -0.63144480343E+02  0.21912597355E+02 -0.66513164672E+03  0.69025465937E+03  0.17200000000E+03 0.  1.
</event>
<event>
 4    1 -0.3305908E-004  0.2849466E+03  0.7818608E-02  0.1093017E+00
          5   -1    0    0  501    0  0.00000000000E+00  0.00000000000E+00  0.19412740879E+03  0.19418429608E+03  0.47000000000E+01 0. -1.
         -5   -1    0    0    0  501 -0.00000000000E+00 -0.00000000000E+00 -0.48632986192E+03  0.48635257231E+03  0.47000000000E+01 0.  1.
          6    1    1    2  502    0 -0.32242030831E+02 -0.22488005357E+03 -0.27352037064E+03  0.39497845537E+03  0.17200000000E+03 0. -1.
         -6    1    1    2    0  502  0.32242030831E+02  0.22488005357E+03 -0.18682082486E+02  0.28555841303E+03  0.17200000000E+03 0.  1.
</event>
<event>
 4    1 -0.3305908E-004  0.1828579E+03  0.7818608E-02  0.1165066E+00
         -5   -1    0    0    0  501 -0.00000000000E+00  0.00000000000E+00  0.79320210841E+02  0.79459334554E+02  0.47000000000E+01 0.  1.
          5   -1    0    0  501    0  0.00000000000E+00 -0.00000000000E+00 -0.42222621583E+03  0.42225237399E+03  0.47000000000E+01 0. -1.
          6    1    1    2  502    0 -0.12944923681E+02  0.60707680523E+02 -0.15806332391E+03  0.24170438120E+03  0.17200000000E+03 0.  1.
         -6    1    1    2    0  502  0.12944923681E+02 -0.60707680523E+02 -0.18484268108E+03  0.26000732734E+03  0.17200000000E+03 0.  1.
</event>
<event>
 4    1 -0.3305908E-004  0.3687479E+03  0.7818608E-02  0.1055173E+00
         -5   -1    0    0    0  501 -0.00000000000E+00  0.00000000000E+00  0.63302665636E+03  0.63304410404E+03  0.47000000000E+01 0.  1.
          5   -1    0    0  501    0  0.00000000000E+00 -0.00000000000E+00 -0.24714129112E+03  0.24718597811E+03  0.47000000000E+01 0. -1.
          6    1    1    2  502    0  0.27301734962E+03  0.17847283690E+03  0.33643119430E+02  0.37027947039E+03  0.17200000000E+03 0.  1.
         -6    1    1    2    0  502 -0.27301734962E+03 -0.17847283690E+03  0.35224224581E+03  0.50995061176E+03  0.17200000000E+03 0.  1.
</event>
<event>
 4    1 -0.3305908E-004  0.1934801E+03  0.7818608E-02  0.1155359E+00
          5   -1    0    0  501    0  0.00000000000E+00  0.00000000000E+00  0.44162388236E+03  0.44164889162E+03  0.47000000000E+01 0. -1.
         -5   -1    0    0    0  501 -0.00000000000E+00 -0.00000000000E+00 -0.99588694900E+02  0.99699539376E+02  0.47000000000E+01 0.  1.
          6    1    1    2  502    0 -0.44007140033E+01  0.88493939690E+02  0.27569309970E+03  0.33681037524E+03  0.17200000000E+03 0. -1.
         -6    1    1    2    0  502  0.44007140033E+01 -0.88493939690E+02  0.66342087758E+02  0.20453805576E+03  0.17200000000E+03 0.  1.
</event>
<event>
 4    1 -0.3305908E-004  0.2228147E+03  0.7818608E-02  0.1131802E+00
          5   -1    0    0  501    0  0.00000000000E+00  0.00000000000E+00  0.11438970754E+04  0.11439067310E+04  0.47000000000E+01 0. -1.
         -5   -1    0    0    0  501 -0.00000000000E+00 -0.00000000000E+00 -0.10660570427E+03  0.10670926006E+03  0.47000000000E+01 0.  1.
          6    1    1    2  502    0  0.11761905238E+03 -0.78918622039E+02  0.10002214370E+04  0.10247386561E+04  0.17200000000E+03 0. -1.
         -6    1    1    2    0  502 -0.11761905238E+03  0.78918622039E+02  0.37069934148E+02  0.22587733486E+03  0.17200000000E+03 0.  1.
</event>
<event>
 4    1 -0.3305908E-004  0.2399340E+03  0.7818608E-02  0.1119837E+00
         -5   -1    0    0    0  501 -0.00000000000E+00  0.00000000000E+00  0.86913787834E+02  0.87040775018E+02  0.47000000000E+01 0.  1.
          5   -1    0    0  501    0  0.00000000000E+00 -0.00000000000E+00 -0.76505236555E+03  0.76506680233E+03  0.47000000000E+01 0. -1.
          6    1    1    2  502    0  0.16545982531E+03  0.24644553605E+02 -0.18252041569E+03  0.30146643255E+03  0.17200000000E+03 0.  1.
         -6    1    1    2    0  502 -0.16545982531E+03 -0.24644553605E+02 -0.49561816203E+03  0.55064114480E+03  0.17200000000E+03 0. -1.
</event>
<event>
 4    1 -0.3305908E-004  0.1772774E+03  0.7818608E-02  0.1170464E+00
          5   -1    0    0  501    0  0.00000000000E+00  0.00000000000E+00  0.27432456077E+03  0.27436482034E+03  0.47000000000E+01 0. -1.
         -5   -1    0    0    0  501 -0.00000000000E+00 -0.00000000000E+00 -0.12256656227E+03  0.12265664347E+03  0.47000000000E+01 0.  1.
          6    1    1    2  502    0  0.41641711101E+02 -0.10451821196E+02  0.24871612012E+02  0.17901360215E+03  0.17200000000E+03 0.  1.
         -6    1    1    2    0  502 -0.41641711101E+02  0.10451821196E+02  0.12688638649E+03  0.21800786166E+03  0.17200000000E+03 0. -1.
</event>
<event>
 4    1 -0.3305908E-004  0.3224169E+03  0.7818608E-02  0.1074542E+00
         -5   -1    0    0    0  501 -0.00000000000E+00  0.00000000000E+00  0.12373018550E+03  0.12381942014E+03  0.47000000000E+01 0.  1.
          5   -1    0    0  501    0  0.00000000000E+00 -0.00000000000E+00 -0.86183172601E+03  0.86184454164E+03  0.47000000000E+01 0. -1.
          6    1    1    2  502    0  0.27270257091E+03  0.13952010868E+01 -0.44792003077E+03  0.55189219303E+03  0.17200000000E+03 0. -1.
         -6    1    1    2    0  502 -0.27270257091E+03 -0.13952010868E+01 -0.29018150974E+03  0.43377176875E+03  0.17200000000E+03 0. -1.
</event>
<event>
 4    1 -0.3305908E-004  0.1803267E+03  0.7818608E-02  0.1167487E+00
         -5   -1    0    0    0  501 -0.00000000000E+00  0.00000000000E+00  0.28781906792E+03  0.28785744016E+03  0.47000000000E+01 0.  1.
          5   -1    0    0  501    0  0.00000000000E+00 -0.00000000000E+00 -0.11446416520E+03  0.11456061765E+03  0.47000000000E+01 0. -1.
          6    1    1    2  502    0 -0.41630771553E+02  0.34649627909E+02  0.63057371161E+02  0.19103389729E+03  0.17200000000E+03 0. -1.
         -6    1    1    2    0  502  0.41630771553E+02 -0.34649627909E+02  0.11029753155E+03  0.21138416053E+03  0.17200000000E+03 0.  1.
</event>
<event>
 4    1 -0.3305908E-004  0.1774785E+03  0.7818608E-02  0.1170266E+00
          5   -1    0    0  501    0  0.00000000000E+00  0.00000000000E+00  0.22059234869E+03  0.22064241274E+03  0.47000000000E+01 0. -1.
         -5   -1    0    0    0  501 -0.00000000000E+00 -0.00000000000E+00 -0.15189144629E+03  0.15196414530E+03  0.47000000000E+01 0.  1.
          6    1    1    2  502    0  0.33646556046E+02  0.27973421191E+02  0.80195927061E+02  0.19475623159E+03  0.17200000000E+03 0. -1.
         -6    1    1    2    0  502 -0.33646556046E+02 -0.27973421191E+02 -0.11495024664E+02  0.17785032645E+03  0.17200000000E+03 0.  1.
</event>
<event>
 4    1 -0.3305908E-004  0.1817966E+03  0.7818608E-02  0.1166076E+00
          5   -1    0    0  501    0  0.00000000000E+00  0.00000000000E+00  0.70662881402E+02  0.70819014453E+02  0.47000000000E+01 0. -1.
         -5   -1    0    0    0  501 -0.00000000000E+00 -0.00000000000E+00 -0.49267309272E+03  0.49269551073E+03  0.47000000000E+01 0.  1.
          6    1    1    2  502    0 -0.39510657711E+02 -0.43645251518E+02 -0.14673556527E+03  0.23362646718E+03  0.17200000000E+03 0. -1.
         -6    1    1    2    0  502  0.39510657711E+02  0.43645251518E+02 -0.27527464605E+03  0.32988805800E+03  0.17200000000E+03 0.  1.
</event>
<event>
 4    1 -0.3305908E-004  0.2368421E+03  0.7818608E-02  0.1121915E+00
         -5   -1    0    0    0  501 -0.00000000000E+00  0.00000000000E+00  0.22762224286E+03  0.22767076106E+03  0.47000000000E+01 0.  1.
          5   -1    0    0  501    0  0.00000000000E+00 -0.00000000000E+00 -0.35703220493E+03  0.35706313917E+03  0.47000000000E+01 0. -1.
          6    1    1    2  502    0 -0.16281826164E+03  0.64595897206E+00 -0.22747854189E+03  0.32839106353E+03  0.17200000000E+03 0. -1.
         -6    1    1    2    0  502  0.16281826164E+03 -0.64595897206E+00  0.98068579817E+02  0.25634283671E+03  0.17200000000E+03 0.  1.
</event>
<event>
 4    1 -0.3305908E-004  0.2990362E+03  0.7818608E-02  0.1085723E+00
          5   -1    0    0  501    0  0.00000000000E+00  0.00000000000E+00  0.14026611082E+04  0.14026689825E+04  0.47000000000E+01 0. -1.
         -5   -1    0    0    0  501 -0.00000000000E+00 -0.00000000000E+00 -0.32256139568E+03  0.32259563540E+03  0.47000000000E+01 0.  1.
          6    1    1    2  502    0  0.52135524590E+02 -0.23899903353E+03  0.13127548511E+04  0.13463832850E+04  0.17200000000E+03 0. -1.
         -6    1    1    2    0  502 -0.52135524590E+02  0.23899903353E+03 -0.23265513857E+03  0.37888133294E+03  0.17200000000E+03 0.  1.
</event>
<event>
 4    1 -0.3305908E-004  0.2815296E+03  0.7818608E-02  0.1094856E+00
         -5   -1    0    0    0  501 -0.00000000000E+00  0.00000000000E+00  0.12933615964E+03  0.12942152909E+03  0.47000000000E+01 0.  1.
          5   -1    0    0  501    0  0.00000000000E+00 -0.00000000000E+00 -0.72479080896E+03  0.72480604768E+03  0.47000000000E+01 0. -1.
          6    1    1    2  502    0  0.13058861869E+03 -0.18061429627E+03 -0.46581913352E+03  0.54428519776E+03  0.17200000000E+03 0. -1.
         -6    1    1    2    0  502 -0.13058861869E+03  0.18061429627E+03 -0.12963551579E+03  0.30994237901E+03  0.17200000000E+03 0. -1.
</event>
<event>
 4    1 -0.3305908E-004  0.1951041E+03  0.7818608E-02  0.1153937E+00
         -5   -1    0    0    0  501 -0.00000000000E+00  0.00000000000E+00  0.26258046927E+02  0.26675363698E+02  0.47000000000E+01 0.  1.
          5   -1    0    0  501    0  0.00000000000E+00 -0.00000000000E+00 -0.20683203119E+04  0.20683256519E+04  0.47000000000E+01 0. -1.
          6    1    1    2  502    0 -0.69727984453E+02  0.60163293218E+02 -0.44274591053E+03  0.48382802208E+03  0.17200000000E+03 0.  1.
         -6    1    1    2    0  502  0.69727984453E+02 -0.60163293218E+02 -0.15993163544E+04  0.16111729936E+04  0.17200000000E+03 0.  1.
</event>
<event>
 4    1 -0.3305908E-004  0.2154676E+03  0.7818608E-02  0.1137308E+00
         -5   -1    0    0    0  501 -0.00000000000E+00  0.00000000000E+00  0.32323306252E+03  0.32326723111E+03  0.47000000000E+01 0.  1.
          5   -1    0    0  501    0  0.00000000000E+00 -0.00000000000E+00 -0.14355110683E+03  0.14362802746E+03  0.47000000000E+01 0. -1.
          6    1    1    2  502    0 -0.95478266361E+02  0.87898804409E+02  0.90175186154E+02  0.23357624743E+03  0.17200000000E+03 0. -1.
         -6    1    1    2    0  502  0.95478266361E+02 -0.87898804409E+02  0.89506769542E+02  0.23331901114E+03  0.17200000000E+03 0.  1.
</event>
<event>
 4    1 -0.3305908E-004  0.2305794E+03  0.7818608E-02  0.1126233E+00
          5   -1    0    0  501    0  0.00000000000E+00  0.00000000000E+00  0.59003463805E+03  0.59005335700E+03  0.47000000000E+01 0. -1.
         -5   -1    0    0    0  501 -0.00000000000E+00 -0.00000000000E+00 -0.12415904417E+03  0.12424797080E+03  0.47000000000E+01 0.  1.
          6    1    1    2  502    0 -0.84262115060E+02  0.12838511051E+03  0.42010453782E+03  0.47922297872E+03  0.17200000000E+03 0. -1.
         -6    1    1    2    0  502  0.84262115060E+02 -0.12838511051E+03  0.45771056068E+02  0.23507834908E+03  0.17200000000E+03 0.  1.
</event>
<event>
 4    1 -0.3305908E-004  0.1974593E+03  0.7818608E-02  0.1151900E+00
          5   -1    0    0  501    0  0.00000000000E+00  0.00000000000E+00  0.23845846828E+03  0.23850478212E+03  0.47000000000E+01 0. -1.
         -5   -1    0    0    0  501 -0.00000000000E+00 -0.00000000000E+00 -0.26416555984E+03  0.26420736744E+03  0.47000000000E+01 0.  1.
          6    1    1    2  502    0 -0.96150211310E+02  0.12701427507E+02  0.14234781163E+03  0.24341957372E+03  0.17200000000E+03 0. -1.
         -6    1    1    2    0  502  0.96150211310E+02 -0.12701427507E+02 -0.16805490319E+03  0.25929257583E+03  0.17200000000E+03 0.  1.
</event>
<event>
 4    1 -0.3305908E-004  0.2843562E+03  0.7818608E-02  0.1093333E+00
          5   -1    0    0  501    0  0.00000000000E+00  0.00000000000E+00  0.63148334403E+03  0.63150083435E+03  0.47000000000E+01 0. -1.
         -5   -1    0    0    0  501 -0.00000000000E+00 -0.00000000000E+00 -0.19773114336E+03  0.19778699415E+03  0.47000000000E+01 0.  1.
          6    1    1    2  502    0 -0.46054463548E+02 -0.22170573126E+03  0.46308701869E+03  0.54342251680E+03  0.17200000000E+03 0. -1.
         -6    1    1    2    0  502  0.46054463548E+02  0.22170573126E+03 -0.29334818028E+02  0.28586531170E+03  0.17200000000E+03 0.  1.
</event>
<event>
 4    1 -0.3305908E-004  0.1784972E+03  0.7818608E-02  0.1169265E+00
          5   -1    0    0  501    0  0.00000000000E+00  0.00000000000E+00  0.99907776799E+02  0.10001826766E+03  0.47000000000E+01 0. -1.
         -5   -1    0    0    0  501 -0.00000000000E+00 -0.00000000000E+00 -0.38845227097E+03  0.38848070328E+03  0.47000000000E+01 0.  1.
          6    1    1    2  502    0  0.18977088784E+02  0.43784806624E+02 -0.40717938445E+02  0.18308246694E+03  0.17200000000E+03 0. -1.
         -6    1    1    2    0  502 -0.18977088784E+02 -0.43784806624E+02 -0.24782655572E+03  0.30541650399E+03  0.17200000000E+03 0.  1.
</event>
<event>
 4    1 -0.3305908E-004  0.3793700E+03  0.7818608E-02  0.1051167E+00
         -5   -1    0    0    0  501 -0.00000000000E+00  0.00000000000E+00  0.73548487831E+03  0.73549989546E+03  0.47000000000E+01 0.  1.
          5   -1    0    0  501    0  0.00000000000E+00 -0.00000000000E+00 -0.35819870327E+03  0.35822953678E+03  0.47000000000E+01 0. -1.
          6    1    1    2  502    0 -0.24070506229E+03 -0.23748411164E+03 -0.17973256019E+03  0.41979211937E+03  0.17200000000E+03 0. -1.
         -6    1    1    2    0  502  0.24070506229E+03  0.23748411164E+03  0.55701873522E+03  0.67393731287E+03  0.17200000000E+03 0.  1.
</event>
<event>
 4    1 -0.3305908E-004  0.1797213E+03  0.7818608E-02  0.1168073E+00
         -5   -1    0    0    0  501 -0.00000000000E+00  0.00000000000E+00  0.30108997472E+03  0.30112665587E+03  0.47000000000E+01 0.  1.
          5   -1    0    0  501    0  0.00000000000E+00 -0.00000000000E+00 -0.10725169552E+03  0.10735462819E+03  0.47000000000E+01 0. -1.
          6    1    1    2  502    0  0.30532842511E+02  0.42231382745E+02  0.91691290444E+02  0.20175984958E+03  0.17200000000E+03 0.  1.
         -6    1    1    2    0  502 -0.30532842511E+02 -0.42231382745E+02  0.10214698875E+03  0.20672143447E+03  0.17200000000E+03 0. -1.
</event>
<event>
 4    1 -0.3305908E-004  0.2071049E+03  0.7818608E-02  0.1143879E+00
         -5   -1    0    0    0  501 -0.00000000000E+00  0.00000000000E+00  0.16259190522E+04  0.16259258453E+04  0.47000000000E+01 0.  1.
          5   -1    0    0  501    0  0.00000000000E+00 -0.00000000000E+00 -0.26356361710E+02  0.26772146022E+02  0.47000000000E+01 0. -1.
          6    1    1    2  502    0 -0.69007095573E+02  0.92447016824E+02  0.86978370545E+03  0.89410073505E+03  0.17200000000E+03 0. -1.
         -6    1    1    2    0  502  0.69007095573E+02 -0.92447016824E+02  0.72977898503E+03  0.75859725623E+03  0.17200000000E+03 0. -1.
</event>
<event>
 4    1 -0.3305908E-004  0.2383529E+03  0.7818608E-02  0.1120895E+00
          5   -1    0    0  501    0  0.00000000000E+00  0.00000000000E+00  0.49832444418E+03  0.49834660796E+03  0.47000000000E+01 0. -1.
         -5   -1    0    0    0  501 -0.00000000000E+00 -0.00000000000E+00 -0.11566257792E+03  0.11575803182E+03  0.47000000000E+01 0.  1.
          6    1    1    2  502    0 -0.20277816562E+02 -0.16375871511E+03  0.15380339137E+03  0.28366809799E+03  0.17200000000E+03 0.  1.
         -6    1    1    2    0  502  0.20277816562E+02  0.16375871511E+03  0.22885847489E+03  0.33043654179E+03  0.17200000000E+03 0.  1.
</event>
<event>
 4    1 -0.3305908E-004  0.2471727E+03  0.7818608E-02  0.1115105E+00
          5   -1    0    0  501    0  0.00000000000E+00  0.00000000000E+00  0.74980405372E+02  0.75127566111E+02  0.47000000000E+01 0. -1.
         -5   -1    0    0    0  501 -0.00000000000E+00 -0.00000000000E+00 -0.92689413430E+03  0.92690605036E+03  0.47000000000E+01 0.  1.
          6    1    1    2  502    0  0.82921685508E+02 -0.15695334383E+03 -0.25100410790E+03  0.35227463753E+03  0.17200000000E+03 0. -1.
         -6    1    1    2    0  502 -0.82921685508E+02  0.15695334383E+03 -0.60090962103E+03  0.64975897894E+03  0.17200000000E+03 0.  1.
</event>
<event>
 4    1 -0.3305908E-004  0.2166304E+03  0.7818608E-02  0.1136420E+00
         -5   -1    0    0    0  501 -0.00000000000E+00  0.00000000000E+00  0.13061698532E+04  0.13061783092E+04  0.47000000000E+01 0.  1.
          5   -1    0    0  501    0  0.00000000000E+00 -0.00000000000E+00 -0.35942839346E+02  0.36248830329E+02  0.47000000000E+01 0. -1.
          6    1    1    2  502    0 -0.12109526069E+03 -0.51775341476E+02  0.58826449671E+03  0.62688425266E+03  0.17200000000E+03 0. -1.
         -6    1    1    2    0  502  0.12109526069E+03  0.51775341476E+02  0.68196251715E+03  0.71554288686E+03  0.17200000000E+03 0. -1.
</event>
<event>
 4    1 -0.3305908E-004  0.2016177E+03  0.7818608E-02  0.1148381E+00
         -5   -1    0    0    0  501 -0.00000000000E+00  0.00000000000E+00  0.21158302796E+03  0.21163522325E+03  0.47000000000E+01 0.  1.
          5   -1    0    0  501    0  0.00000000000E+00 -0.00000000000E+00 -0.22276326557E+03  0.22281284184E+03  0.47000000000E+01 0. -1.
          6    1    1    2  502    0  0.84090954029E+02 -0.63201442866E+02 -0.86272403122E+02  0.21930033851E+03  0.17200000000E+03 0. -1.
         -6    1    1    2    0  502 -0.84090954029E+02  0.63201442866E+02  0.75092165508E+02  0.21514772658E+03  0.17200000000E+03 0.  1.
</event>
<event>
 4    1 -0.3305908E-004  0.2145071E+03  0.7818608E-02  0.1138046E+00
         -5   -1    0    0    0  501 -0.00000000000E+00  0.00000000000E+00  0.10851144498E+03  0.10861318378E+03  0.47000000000E+01 0.  1.
          5   -1    0    0  501    0  0.00000000000E+00 -0.00000000000E+00 -0.44588685270E+03  0.44591162287E+03  0.47000000000E+01 0. -1.
          6    1    1    2  502    0  0.10982190435E+03  0.66094083064E+02 -0.10688647999E+03  0.23966225839E+03  0.17200000000E+03 0. -1.
         -6    1    1    2    0  502 -0.10982190435E+03 -0.66094083064E+02 -0.23048892774E+03  0.31486254827E+03  0.17200000000E+03 0.  1.
</event>
<event>
 4    1 -0.3305908E-004  0.2064755E+03  0.7818608E-02  0.1144388E+00
         -5   -1    0    0    0  501 -0.00000000000E+00  0.00000000000E+00  0.11239191279E+03  0.11249014206E+03  0.47000000000E+01 0.  1.
          5   -1    0    0  501    0  0.00000000000E+00 -0.00000000000E+00 -0.39405286156E+03  0.39408088979E+03  0.47000000000E+01 0. -1.
          6    1    1    2  502    0 -0.66272230137E+01 -0.11403609661E+03 -0.19026359917E+03  0.28077106081E+03  0.17200000000E+03 0. -1.
         -6    1    1    2    0  502  0.66272230137E+01  0.11403609661E+03 -0.91397349588E+02  0.22579997105E+03  0.17200000000E+03 0.  1.
</event>
<event>
 4    1 -0.3305908E-004  0.1958630E+03  0.7818608E-02  0.1153277E+00
         -5   -1    0    0    0  501 -0.00000000000E+00  0.00000000000E+00  0.50729941156E+02  0.50947197466E+02  0.47000000000E+01 0.  1.
          5   -1    0    0  501    0  0.00000000000E+00 -0.00000000000E+00 -0.11615416980E+04  0.11615512069E+04  0.47000000000E+01 0. -1.
          6    1    1    2  502    0 -0.14764589797E+02 -0.92522016394E+02 -0.91431270468E+03  0.93505616867E+03  0.17200000000E+03 0. -1.
         -6    1    1    2    0  502  0.14764589797E+02  0.92522016394E+02 -0.19649905214E+03  0.27744223565E+03  0.17200000000E+03 0.  1.
</event>
<event>
 4    1 -0.3305908E-004  0.2108542E+03  0.7818608E-02  0.1140891E+00
         -5   -1    0    0    0  501 -0.00000000000E+00  0.00000000000E+00  0.16243961774E+03  0.16250759801E+03  0.47000000000E+01 0.  1.
          5   -1    0    0  501    0  0.00000000000E+00 -0.00000000000E+00 -0.28242596697E+03  0.28246507185E+03  0.47000000000E+01 0. -1.
          6    1    1    2  502    0 -0.61322701823E+02 -0.10542775544E+03 -0.99420750586E+02  0.23311793372E+03  0.17200000000E+03 0. -1.
         -6    1    1    2    0  502  0.61322701823E+02  0.10542775544E+03 -0.20565598641E+02  0.21185473614E+03  0.17200000000E+03 0.  1.
</event>
<event>
 4    1 -0.3305908E-004  0.2004405E+03  0.7818608E-02  0.1149368E+00
          5   -1    0    0  501    0  0.00000000000E+00  0.00000000000E+00  0.64808030883E+03  0.64809735125E+03  0.47000000000E+01 0. -1.
         -5   -1    0    0    0  501 -0.00000000000E+00 -0.00000000000E+00 -0.66986143670E+02  0.67150826084E+02  0.47000000000E+01 0.  1.
          6    1    1    2  502    0 -0.10170057579E+03  0.15792535528E+02  0.19200632830E+03  0.27756592262E+03  0.17200000000E+03 0.  1.
         -6    1    1    2    0  502  0.10170057579E+03 -0.15792535528E+02  0.38908783686E+03  0.43768225471E+03  0.17200000000E+03 0.  1.
</event>
<event>
 4    1 -0.3305908E-004  0.1769783E+03  0.7818608E-02  0.1170760E+00
          5   -1    0    0  501    0  0.00000000000E+00  0.00000000000E+00  0.10348026399E+03  0.10358694433E+03  0.47000000000E+01 0. -1.
         -5   -1    0    0    0  501 -0.00000000000E+00 -0.00000000000E+00 -0.37139648199E+03  0.37142621991E+03  0.47000000000E+01 0.  1.
          6    1    1    2  502    0 -0.23198915448E+02  0.34628518515E+02 -0.31606707219E+02  0.17977849681E+03  0.17200000000E+03 0. -1.
         -6    1    1    2    0  502  0.23198915448E+02 -0.34628518515E+02 -0.23630951078E+03  0.29523466744E+03  0.17200000000E+03 0.  1.
</event>
<event>
 4    1 -0.3305908E-004  0.1800194E+03  0.7818608E-02  0.1167784E+00
          5   -1    0    0  501    0  0.00000000000E+00  0.00000000000E+00  0.88846698659E+03  0.88847941803E+03  0.47000000000E+01 0. -1.
         -5   -1    0    0    0  501 -0.00000000000E+00 -0.00000000000E+00 -0.10845527304E+03  0.10855706449E+03  0.47000000000E+01 0.  1.
          6    1    1    2  502    0  0.49198235988E+02  0.20063147707E+02  0.79619366416E+03  0.81629121468E+03  0.17200000000E+03 0. -1.
         -6    1    1    2    0  502 -0.49198235988E+02 -0.20063147707E+02 -0.16181950607E+02  0.18074526784E+03  0.17200000000E+03 0.  1.
</event>
<event>
 4    1 -0.3305908E-004  0.3628275E+03  0.7818608E-02  0.1057470E+00
          5   -1    0    0  501    0  0.00000000000E+00  0.00000000000E+00  0.36905418057E+03  0.36908410721E+03  0.47000000000E+01 0. -1.
         -5   -1    0    0    0  501 -0.00000000000E+00 -0.00000000000E+00 -0.43488351551E+03  0.43490891238E+03  0.47000000000E+01 0.  1.
          6    1    1    2  502    0  0.31901956455E+03 -0.16920146209E+02  0.13758144059E+03  0.38803663062E+03  0.17200000000E+03 0. -1.
         -6    1    1    2    0  502 -0.31901956455E+03  0.16920146209E+02 -0.20341077554E+03  0.41595638896E+03  0.17200000000E+03 0.  1.
</event>
<event>
 4    1 -0.3305908E-004  0.1743380E+03  0.7818608E-02  0.1173398E+00
          5   -1    0    0  501    0  0.00000000000E+00  0.00000000000E+00  0.87650284092E+02  0.87776205782E+02  0.47000000000E+01 0. -1.
         -5   -1    0    0    0  501 -0.00000000000E+00 -0.00000000000E+00 -0.34880145326E+03  0.34883311740E+03  0.47000000000E+01 0.  1.
          6    1    1    2  502    0 -0.28030390590E+02  0.49012769445E+01 -0.11235494498E+03  0.20740626551E+03  0.17200000000E+03 0. -1.
         -6    1    1    2    0  502  0.28030390590E+02 -0.49012769445E+01 -0.14879622419E+03  0.22920305767E+03  0.17200000000E+03 0. -1.
</event>
<event>
 4    1 -0.3305908E-004  0.4042996E+03  0.7818608E-02  0.1042301E+00
         -5   -1    0    0    0  501 -0.00000000000E+00  0.00000000000E+00  0.45770535070E+03  0.45772948131E+03  0.47000000000E+01 0.  1.
          5   -1    0    0  501    0  0.00000000000E+00 -0.00000000000E+00 -0.36112510746E+03  0.36115569113E+03  0.47000000000E+01 0. -1.
          6    1    1    2  502    0  0.12414895163E+03 -0.34418193873E+03  0.91640637695E+02  0.41455539511E+03  0.17200000000E+03 0. -1.
         -6    1    1    2    0  502 -0.12414895163E+03  0.34418193873E+03  0.49396055525E+01  0.40432977733E+03  0.17200000000E+03 0.  1.
</event>
<event>
 4    1 -0.3305908E-004  0.3829541E+03  0.7818608E-02  0.1049847E+00
         -5   -1    0    0    0  501 -0.00000000000E+00  0.00000000000E+00  0.52579184725E+03  0.52581285324E+03  0.47000000000E+01 0.  1.
          5   -1    0    0  501    0  0.00000000000E+00 -0.00000000000E+00 -0.64389087536E+03  0.64390802866E+03  0.47000000000E+01 0. -1.
          6    1    1    2  502    0 -0.34213013820E+03  0.41004968727E+01 -0.49938752233E+03  0.62931847502E+03  0.17200000000E+03 0. -1.
         -6    1    1    2    0  502  0.34213013820E+03 -0.41004968727E+01  0.38128849422E+03  0.54040240688E+03  0.17200000000E+03 0.  1.
</event>
<event>
 4    1 -0.3305908E-004  0.2904942E+03  0.7818608E-02  0.1090091E+00
          5   -1    0    0  501    0  0.00000000000E+00  0.00000000000E+00  0.26081749291E+03  0.26085983709E+03  0.47000000000E+01 0. -1.
         -5   -1    0    0    0  501 -0.00000000000E+00 -0.00000000000E+00 -0.45333778651E+03  0.45336214958E+03  0.47000000000E+01 0.  1.
          6    1    1    2  502    0 -0.31935369663E+02  0.23191168499E+03 -0.28738714684E+03  0.40862974640E+03  0.17200000000E+03 0. -1.
         -6    1    1    2    0  502  0.31935369663E+02 -0.23191168499E+03  0.94866853244E+02  0.30559224027E+03  0.17200000000E+03 0.  1.
</event>
<event>
 4    1 -0.3305908E-004  0.2175865E+03  0.7818608E-02  0.1135695E+00
          5   -1    0    0  501    0  0.00000000000E+00  0.00000000000E+00  0.19521737045E+03  0.19527394021E+03  0.47000000000E+01 0. -1.
         -5   -1    0    0    0  501 -0.00000000000E+00 -0.00000000000E+00 -0.50591770411E+03  0.50593953525E+03  0.47000000000E+01 0.  1.
          6    1    1    2  502    0 -0.96267297706E+02  0.92154653989E+02  0.97662905892E+02  0.23849929989E+03  0.17200000000E+03 0. -1.
         -6    1    1    2    0  502  0.96267297706E+02 -0.92154653989E+02 -0.40836323955E+03  0.46271417557E+03  0.17200000000E+03 0.  1.
</event>
<event>
 4    1 -0.3305908E-004  0.2164261E+03  0.7818608E-02  0.1136576E+00
         -5   -1    0    0    0  501 -0.00000000000E+00  0.00000000000E+00  0.40398807772E+03  0.40401541671E+03  0.47000000000E+01 0.  1.
          5   -1    0    0  501    0  0.00000000000E+00 -0.00000000000E+00 -0.13298973568E+03  0.13307276128E+03  0.47000000000E+01 0. -1.
          6    1    1    2  502    0 -0.47043203475E+01 -0.13127879058E+03  0.23181974239E+03  0.31714451666E+03  0.17200000000E+03 0.  1.
         -6    1    1    2    0  502  0.47043203475E+01  0.13127879058E+03  0.39178599648E+02  0.21994366132E+03  0.17200000000E+03 0. -1.
</event>
<event>
 4    1 -0.3305908E-004  0.2079022E+03  0.7818608E-02  0.1143238E+00
         -5   -1    0    0    0  501 -0.00000000000E+00  0.00000000000E+00  0.85886192741E+03  0.85887478735E+03  0.47000000000E+01 0.  1.
          5   -1    0    0  501    0  0.00000000000E+00 -0.00000000000E+00 -0.90860319832E+02  0.90981798839E+02  0.47000000000E+01 0. -1.
          6    1    1    2  502    0  0.90514036322E+02  0.73800692758E+02  0.66627107008E+02  0.21831743955E+03  0.17200000000E+03 0. -1.
         -6    1    1    2    0  502 -0.90514036322E+02 -0.73800692758E+02  0.70137450057E+03  0.73153914664E+03  0.17200000000E+03 0.  1.
</event>
<event>
 4    1 -0.3305908E-004  0.1869632E+03  0.7818608E-02  0.1161229E+00
          5   -1    0    0  501    0  0.00000000000E+00  0.00000000000E+00  0.11752003742E+04  0.11752097726E+04  0.47000000000E+01 0. -1.
         -5   -1    0    0    0  501 -0.00000000000E+00 -0.00000000000E+00 -0.56848186520E+02  0.57042145038E+02  0.47000000000E+01 0.  1.
          6    1    1    2  502    0 -0.53568844475E+02  0.50016338869E+02  0.98504341621E+03  0.10026294366E+04  0.17200000000E+03 0. -1.
         -6    1    1    2    0  502  0.53568844475E+02 -0.50016338869E+02  0.13330877151E+03  0.22962248107E+03  0.17200000000E+03 0.  1.
</event>
<event>
 4    1 -0.3305908E-004  0.2205008E+03  0.7818608E-02  0.1133510E+00
         -5   -1    0    0    0  501 -0.00000000000E+00  0.00000000000E+00  0.14745582806E+03  0.14753071283E+03  0.47000000000E+01 0.  1.
          5   -1    0    0  501    0  0.00000000000E+00 -0.00000000000E+00 -0.38191483456E+03  0.38194375353E+03  0.47000000000E+01 0. -1.
          6    1    1    2  502    0  0.86938870022E+02 -0.10713650059E+03 -0.21523995643E+03  0.30813768955E+03  0.17200000000E+03 0. -1.
         -6    1    1    2    0  502 -0.86938870022E+02  0.10713650059E+03 -0.19219050074E+02  0.22133677680E+03  0.17200000000E+03 0.  1.
</event>
<event>
 4    1 -0.3305908E-004  0.2026253E+03  0.7818608E-02  0.1147543E+00
         -5   -1    0    0    0  501 -0.00000000000E+00  0.00000000000E+00  0.27209563196E+03  0.27213622127E+03  0.47000000000E+01 0.  1.
          5   -1    0    0  501    0  0.00000000000E+00 -0.00000000000E+00 -0.15147603812E+03  0.15154893641E+03  0.47000000000E+01 0. -1.
          6    1    1    2  502    0  0.58465893836E+02  0.89748254042E+02  0.74421375277E+02  0.21586002628E+03  0.17200000000E+03 0. -1.
         -6    1    1    2    0  502 -0.58465893836E+02 -0.89748254042E+02  0.46198218554E+02  0.20782513140E+03  0.17200000000E+03 0. -1.
</event>
<event>
 4    1 -0.3305908E-004  0.1975466E+03  0.7818608E-02  0.1151826E+00
         -5   -1    0    0    0  501 -0.00000000000E+00  0.00000000000E+00  0.30186353524E+02  0.30550056286E+02  0.47000000000E+01 0.  1.
          5   -1    0    0  501    0  0.00000000000E+00 -0.00000000000E+00 -0.12855064455E+04  0.12855150375E+04  0.47000000000E+01 0. -1.
          6    1    1    2  502    0 -0.89013407170E+02  0.38952162687E+02 -0.64432372491E+03  0.67392708813E+03  0.17200000000E+03 0. -1.
         -6    1    1    2    0  502  0.89013407170E+02 -0.38952162687E+02 -0.61099636711E+03  0.64213800561E+03  0.17200000000E+03 0. -1.
</event>
<event>
 4    1 -0.3305908E-004  0.1764711E+03  0.7818608E-02  0.1171263E+00
         -5   -1    0    0    0  501 -0.00000000000E+00  0.00000000000E+00  0.15545526243E+03  0.15552629558E+03  0.47000000000E+01 0.  1.
          5   -1    0    0  501    0  0.00000000000E+00 -0.00000000000E+00 -0.22440754731E+03  0.22445676041E+03  0.47000000000E+01 0. -1.
          6    1    1    2  502    0 -0.34222360207E+02  0.19669217721E+02 -0.96880972901E+02  0.20131560042E+03  0.17200000000E+03 0. -1.
         -6    1    1    2    0  502  0.34222360207E+02 -0.19669217721E+02  0.27928688019E+02  0.17866745557E+03  0.17200000000E+03 0.  1.
</event>
<event>
 4    1 -0.3305908E-004  0.2241185E+03  0.7818608E-02  0.1130849E+00
          5   -1    0    0  501    0  0.00000000000E+00  0.00000000000E+00  0.15307125900E+03  0.15314339794E+03  0.47000000000E+01 0. -1.
         -5   -1    0    0    0  501 -0.00000000000E+00 -0.00000000000E+00 -0.44603395521E+03  0.44605871721E+03  0.47000000000E+01 0.  1.
          6    1    1    2  502    0  0.17517641577E+02 -0.14261222129E+03  0.76383456785E+01  0.22424865162E+03  0.17200000000E+03 0. -1.
         -6    1    1    2    0  502 -0.17517641577E+02  0.14261222129E+03 -0.30060104189E+03  0.37495346353E+03  0.17200000000E+03 0.  1.
</event>
<event>
 4    1 -0.3305908E-004  0.4869559E+03  0.7818608E-02  0.1017241E+00
         -5   -1    0    0    0  501 -0.00000000000E+00  0.00000000000E+00  0.43396212421E+03  0.43398757499E+03  0.47000000000E+01 0.  1.
          5   -1    0    0  501    0  0.00000000000E+00 -0.00000000000E+00 -0.75385612667E+03  0.75387077786E+03  0.47000000000E+01 0. -1.
          6    1    1    2  502    0 -0.36789834212E+01  0.45555293748E+03 -0.47152962006E+03  0.67783935881E+03  0.17200000000E+03 0. -1.
         -6    1    1    2    0  502  0.36789834212E+01 -0.45555293748E+03  0.15163561760E+03  0.51001899404E+03  0.17200000000E+03 0.  1.
</event>
<event>
 4    1 -0.3305908E-004  0.1879200E+03  0.7818608E-02  0.1160351E+00
         -5   -1    0    0    0  501 -0.00000000000E+00  0.00000000000E+00  0.10034882653E+03  0.10045883230E+03  0.47000000000E+01 0.  1.
          5   -1    0    0  501    0  0.00000000000E+00 -0.00000000000E+00 -0.38897789219E+03  0.38900628608E+03  0.47000000000E+01 0. -1.
          6    1    1    2  502    0  0.27723238220E+02  0.70436869350E+02 -0.22017191736E+03  0.28946433925E+03  0.17200000000E+03 0. -1.
         -6    1    1    2    0  502 -0.27723238220E+02 -0.70436869350E+02 -0.68457148295E+02  0.20000077913E+03  0.17200000000E+03 0.  1.
</event>
<event>
 4    1 -0.3305908E-004  0.3663786E+03  0.7818608E-02  0.1056086E+00
          5   -1    0    0  501    0  0.00000000000E+00  0.00000000000E+00  0.99012963084E+03  0.99014078588E+03  0.47000000000E+01 0. -1.
         -5   -1    0    0    0  501 -0.00000000000E+00 -0.00000000000E+00 -0.27019108369E+03  0.27023195907E+03  0.47000000000E+01 0.  1.
          6    1    1    2  502    0  0.31640262549E+03  0.67369343508E+02  0.80482030085E+03  0.88429009184E+03  0.17200000000E+03 0. -1.
         -6    1    1    2    0  502 -0.31640262549E+03 -0.67369343508E+02 -0.84881753701E+02  0.37608265312E+03  0.17200000000E+03 0.  1.
</event>
<event>
 4    1 -0.3305908E-004  0.2172124E+03  0.7818608E-02  0.1135979E+00
         -5   -1    0    0    0  501 -0.00000000000E+00  0.00000000000E+00  0.26117594216E+03  0.26121822824E+03  0.47000000000E+01 0.  1.
          5   -1    0    0  501    0  0.00000000000E+00 -0.00000000000E+00 -0.18146396537E+03  0.18152482124E+03  0.47000000000E+01 0. -1.
          6    1    1    2  502    0  0.11064875690E+03 -0.73171656076E+02  0.24251286397E+02  0.21856203593E+03  0.17200000000E+03 0. -1.
         -6    1    1    2    0  502 -0.11064875690E+03  0.73171656076E+02  0.55460690394E+02  0.22418101355E+03  0.17200000000E+03 0. -1.
</event>
<event>
 4    1 -0.3305908E-004  0.2489442E+03  0.7818608E-02  0.1113974E+00
         -5   -1    0    0    0  501 -0.00000000000E+00  0.00000000000E+00  0.24423273427E+04  0.24423318650E+04  0.47000000000E+01 0.  1.
          5   -1    0    0  501    0  0.00000000000E+00 -0.00000000000E+00 -0.44019878271E+02  0.44270076609E+02  0.47000000000E+01 0. -1.
          6    1    1    2  502    0 -0.16301446107E+03 -0.76259460658E+02  0.38837602320E+03  0.46131242694E+03  0.17200000000E+03 0. -1.
         -6    1    1    2    0  502  0.16301446107E+03  0.76259460658E+02  0.20099314412E+04  0.20252895147E+04  0.17200000000E+03 0.  1.
</event>
<event>
 4    1 -0.3305908E-004  0.3830128E+03  0.7818608E-02  0.1049826E+00
          5   -1    0    0  501    0  0.00000000000E+00  0.00000000000E+00  0.12779052267E+03  0.12787692397E+03  0.47000000000E+01 0. -1.
         -5   -1    0    0    0  501 -0.00000000000E+00 -0.00000000000E+00 -0.12124780462E+04  0.12124871556E+04  0.47000000000E+01 0.  1.
          6    1    1    2  502    0 -0.33100470960E+03  0.86894896311E+02 -0.38718555837E+03  0.54462050769E+03  0.17200000000E+03 0. -1.
         -6    1    1    2    0  502  0.33100470960E+03 -0.86894896311E+02 -0.69750196513E+03  0.79574357185E+03  0.17200000000E+03 0.  1.
</event>
<event>
 4    1 -0.3305908E-004  0.2713350E+03  0.7818608E-02  0.1100518E+00
          5   -1    0    0  501    0  0.00000000000E+00  0.00000000000E+00  0.22113657668E+03  0.22118651755E+03  0.47000000000E+01 0. -1.
         -5   -1    0    0    0  501 -0.00000000000E+00 -0.00000000000E+00 -0.41768046949E+03  0.41770691232E+03  0.47000000000E+01 0.  1.
          6    1    1    2  502    0 -0.12442037058E+03  0.16899190728E+03  0.45699415760E+02  0.27515655533E+03  0.17200000000E+03 0.  1.
         -6    1    1    2    0  502  0.12442037058E+03 -0.16899190728E+03 -0.24224330858E+03  0.36373687453E+03  0.17200000000E+03 0.  1.
</event>
<event>
 4    1 -0.3305908E-004  0.2631865E+03  0.7818608E-02  0.1105244E+00
          5   -1    0    0  501    0  0.00000000000E+00  0.00000000000E+00  0.16773220887E+03  0.16779804496E+03  0.47000000000E+01 0. -1.
         -5   -1    0    0    0  501 -0.00000000000E+00 -0.00000000000E+00 -0.45565909086E+03  0.45568332983E+03  0.47000000000E+01 0.  1.
          6    1    1    2  502    0 -0.43145228090E+02  0.19447786239E+03 -0.48367627699E+02  0.26759405276E+03  0.17200000000E+03 0. -1.
         -6    1    1    2    0  502  0.43145228090E+02 -0.19447786239E+03 -0.23955925429E+03  0.35588732203E+03  0.17200000000E+03 0.  1.
</event>
<event>
 4    1 -0.3305908E-004  0.1788755E+03  0.7818608E-02  0.1168896E+00
          5   -1    0    0  501    0  0.00000000000E+00  0.00000000000E+00  0.14207658456E+04  0.14207736195E+04  0.47000000000E+01 0. -1.
         -5   -1    0    0    0  501 -0.00000000000E+00 -0.00000000000E+00 -0.22577027801E+02  0.23061053409E+02  0.47000000000E+01 0.  1.
          6    1    1    2  502    0 -0.35546264918E+02  0.33895369998E+02  0.78272303071E+03  0.80290209606E+03  0.17200000000E+03 0. -1.
         -6    1    1    2    0  502  0.35546264918E+02 -0.33895369998E+02  0.61546578708E+03  0.64093257690E+03  0.17200000000E+03 0.  1.
</event>
<event>
 4    1 -0.3305908E-004  0.3631537E+03  0.7818608E-02  0.1057342E+00
          5   -1    0    0  501    0  0.00000000000E+00  0.00000000000E+00  0.67049819152E+03  0.67051466415E+03  0.47000000000E+01 0. -1.
         -5   -1    0    0    0  501 -0.00000000000E+00 -0.00000000000E+00 -0.28343670468E+03  0.28347567014E+03  0.47000000000E+01 0.  1.
          6    1    1    2  502    0 -0.10403680087E+03 -0.30244494843E+03  0.45745526580E+03  0.58407698377E+03  0.17200000000E+03 0. -1.
         -6    1    1    2    0  502  0.10403680087E+03  0.30244494843E+03 -0.70393778954E+02  0.36991335051E+03  0.17200000000E+03 0.  1.
</event>
<event>
 4    1 -0.3305908E-004  0.1963772E+03  0.7818608E-02  0.1152832E+00
         -5   -1    0    0    0  501 -0.00000000000E+00  0.00000000000E+00  0.83348601685E+03  0.83349926831E+03  0.47000000000E+01 0.  1.
          5   -1    0    0  501    0  0.00000000000E+00 -0.00000000000E+00 -0.23872396102E+03  0.23877022337E+03  0.47000000000E+01 0. -1.
          6    1    1    2  502    0 -0.65109324165E+02  0.68853419575E+02 -0.18401179780E+03  0.26911774228E+03  0.17200000000E+03 0. -1.
         -6    1    1    2    0  502  0.65109324165E+02 -0.68853419575E+02  0.77877385362E+03  0.80315174940E+03  0.17200000000E+03 0.  1.
</event>
<event>
 4    1 -0.3305908E-004  0.1729691E+03  0.7818608E-02  0.1174786E+00
         -5   -1    0    0    0  501 -0.00000000000E+00  0.00000000000E+00  0.19589045416E+03  0.19594682960E+03  0.47000000000E+01 0.  1.
          5   -1    0    0  501    0  0.00000000000E+00 -0.00000000000E+00 -0.15552671664E+03  0.15559771717E+03  0.47000000000E+01 0. -1.
          6    1    1    2  502    0 -0.71462418999E+01  0.16829953242E+02 -0.38574028440E+01  0.17301212575E+03  0.17200000000E+03 0.  1.
         -6    1    1    2    0  502  0.71462418999E+01 -0.16829953242E+02  0.44221140362E+02  0.17853242102E+03  0.17200000000E+03 0.  1.
</event>
<event>
 4    1 -0.3305908E-004  0.1993899E+03  0.7818608E-02  0.1150255E+00
         -5   -1    0    0    0  501 -0.00000000000E+00  0.00000000000E+00  0.16647760303E+03  0.16654393508E+03  0.47000000000E+01 0.  1.
          5   -1    0    0  501    0  0.00000000000E+00 -0.00000000000E+00 -0.42081978778E+03  0.42084603336E+03  0.47000000000E+01 0. -1.
          6    1    1    2  502    0 -0.42179307920E+02 -0.91614511997E+02 -0.32037138458E+03  0.37735147659E+03  0.17200000000E+03 0. -1.
         -6    1    1    2    0  502  0.42179307920E+02  0.91614511997E+02  0.66029199830E+02  0.21003849184E+03  0.17200000000E+03 0.  1.
</event>
<event>
 4    1 -0.3305908E-004  0.2898839E+03  0.7818608E-02  0.1090410E+00
          5   -1    0    0  501    0  0.00000000000E+00  0.00000000000E+00  0.43988301071E+03  0.43990811894E+03  0.47000000000E+01 0. -1.
         -5   -1    0    0    0  501 -0.00000000000E+00 -0.00000000000E+00 -0.19146672547E+03  0.19152440305E+03  0.47000000000E+01 0.  1.
          6    1    1    2  502    0 -0.23236085280E+03 -0.21379857457E+02  0.14021011830E+03  0.32201171018E+03  0.17200000000E+03 0. -1.
         -6    1    1    2    0  502  0.23236085280E+03  0.21379857457E+02  0.10820616693E+03  0.30942081181E+03  0.17200000000E+03 0.  1.
</event>
<event>
 4    1 -0.3305908E-004  0.3061039E+03  0.7818608E-02  0.1082229E+00
          5   -1    0    0  501    0  0.00000000000E+00  0.00000000000E+00  0.67654559194E+03  0.67656191732E+03  0.47000000000E+01 0. -1.
         -5   -1    0    0    0  501 -0.00000000000E+00 -0.00000000000E+00 -0.14449949710E+03  0.14457591315E+03  0.47000000000E+01 0.  1.
          6    1    1    2  502    0 -0.52149374602E+02 -0.24778220654E+03  0.35007705198E+03  0.46503066724E+03  0.17200000000E+03 0. -1.
         -6    1    1    2    0  502  0.52149374602E+02  0.24778220654E+03  0.18196904285E+03  0.35610716323E+03  0.17200000000E+03 0.  1.
</event>
<event>
 4    1 -0.3305908E-004  0.3681528E+03  0.7818608E-02  0.1055402E+00
          5   -1    0    0  501    0  0.00000000000E+00  0.00000000000E+00  0.44802263707E+03  0.44804728916E+03  0.47000000000E+01 0. -1.
         -5   -1    0    0    0  501 -0.00000000000E+00 -0.00000000000E+00 -0.33344801053E+03  0.33348113249E+03  0.47000000000E+01 0.  1.
          6    1    1    2  502    0 -0.32460705711E+03 -0.24140126107E+02  0.17638045838E+03  0.40822365599E+03  0.17200000000E+03 0. -1.
         -6    1    1    2    0  502  0.32460705711E+03  0.24140126107E+02 -0.61805831841E+02  0.37330476566E+03  0.17200000000E+03 0.  1.
</event>
<event>
 4    1 -0.3305908E-004  0.2482919E+03  0.7818608E-02  0.1114389E+00
          5   -1    0    0  501    0  0.00000000000E+00  0.00000000000E+00  0.15433465236E+03  0.15440620104E+03  0.47000000000E+01 0. -1.
         -5   -1    0    0    0  501 -0.00000000000E+00 -0.00000000000E+00 -0.86769012730E+03  0.86770285640E+03  0.47000000000E+01 0.  1.
          6    1    1    2  502    0 -0.11836981711E+03 -0.13436319066E+03  0.18795568951E+02  0.24900231729E+03  0.17200000000E+03 0. -1.
         -6    1    1    2    0  502  0.11836981711E+03  0.13436319066E+03 -0.73215104389E+03  0.77310674015E+03  0.17200000000E+03 0.  1.
</event>
<event>
 4    1 -0.3305908E-004  0.1903001E+03  0.7818608E-02  0.1158191E+00
         -5   -1    0    0    0  501 -0.00000000000E+00  0.00000000000E+00  0.86097565936E+03  0.86098848773E+03  0.47000000000E+01 0.  1.
          5   -1    0    0  501    0  0.00000000000E+00 -0.00000000000E+00 -0.57587694755E+02  0.57779170876E+02  0.47000000000E+01 0. -1.
          6    1    1    2  502    0 -0.71604350177E+02 -0.38767899748E+02  0.16255601063E+03  0.25027702573E+03  0.17200000000E+03 0. -1.
         -6    1    1    2    0  502  0.71604350177E+02  0.38767899748E+02  0.64083195397E+03  0.66849063288E+03  0.17200000000E+03 0.  1.
</event>
<event>
 4    1 -0.3305908E-004  0.1813868E+03  0.7818608E-02  0.1166468E+00
          5   -1    0    0  501    0  0.00000000000E+00  0.00000000000E+00  0.16547415612E+04  0.16547482359E+04  0.47000000000E+01 0. -1.
         -5   -1    0    0    0  501 -0.00000000000E+00 -0.00000000000E+00 -0.20602028141E+02  0.21131340789E+02  0.47000000000E+01 0.  1.
          6    1    1    2  502    0 -0.28744641048E+02  0.49909161859E+02  0.63454229954E+03  0.65995841439E+03  0.17200000000E+03 0.  1.
         -6    1    1    2    0  502  0.28744641048E+02 -0.49909161859E+02  0.99959723350E+03  0.10159211623E+04  0.17200000000E+03 0. -1.
</event>
<event>
 4    1 -0.3305908E-004  0.2204219E+03  0.7818608E-02  0.1133569E+00
         -5   -1    0    0    0  501 -0.00000000000E+00  0.00000000000E+00  0.17012540551E+02  0.17649831048E+02  0.47000000000E+01 0.  1.
          5   -1    0    0  501    0  0.00000000000E+00 -0.00000000000E+00 -0.36185827182E+04  0.36185857705E+04  0.47000000000E+01 0. -1.
          6    1    1    2  502    0  0.63386626673E+02  0.12240889090E+03 -0.26639998567E+04  0.26731032598E+04  0.17200000000E+03 0. -1.
         -6    1    1    2    0  502 -0.63386626673E+02 -0.12240889090E+03 -0.93757032101E+03  0.96313234181E+03  0.17200000000E+03 0.  1.
</event>
<event>
 4    1 -0.3305908E-004  0.1956020E+03  0.7818608E-02  0.1153504E+00
          5   -1    0    0  501    0  0.00000000000E+00  0.00000000000E+00  0.95293581888E+03  0.95294740931E+03  0.47000000000E+01 0. -1.
         -5   -1    0    0    0  501 -0.00000000000E+00 -0.00000000000E+00 -0.55603351332E+02  0.55801636888E+02  0.47000000000E+01 0.  1.
          6    1    1    2  502    0 -0.76491505785E+02  0.53152634178E+02  0.71525329568E+03  0.74151697887E+03  0.17200000000E+03 0. -1.
         -6    1    1    2    0  502  0.76491505785E+02 -0.53152634178E+02  0.18207917187E+03  0.26723206733E+03  0.17200000000E+03 0.  1.
</event>
<event>
 4    1 -0.3305908E-004  0.2348554E+03  0.7818608E-02  0.1123268E+00
          5   -1    0    0  501    0  0.00000000000E+00  0.00000000000E+00  0.26794524128E+02  0.27203612320E+02  0.47000000000E+01 0. -1.
         -5   -1    0    0    0  501 -0.00000000000E+00 -0.00000000000E+00 -0.26588861272E+04  0.26588902812E+04  0.47000000000E+01 0.  1.
          6    1    1    2  502    0 -0.64960043805E+02  0.14612757305E+03 -0.66945538804E+03  0.70945584180E+03  0.17200000000E+03 0.  1.
         -6    1    1    2    0  502  0.64960043805E+02 -0.14612757305E+03 -0.19626362150E+04  0.19766380517E+04  0.17200000000E+03 0.  1.
</event>
<event>
 4    1 -0.3305908E-004  0.4093016E+03  0.7818608E-02  0.1040606E+00
          5   -1    0    0  501    0  0.00000000000E+00  0.00000000000E+00  0.33246975519E+03  0.33250297460E+03  0.47000000000E+01 0. -1.
         -5   -1    0    0    0  501 -0.00000000000E+00 -0.00000000000E+00 -0.85996790348E+03  0.85998074688E+03  0.47000000000E+01 0.  1.
          6    1    1    2  502    0  0.22432971275E+03  0.29600673505E+03  0.11994408790E+03  0.42651423357E+03  0.17200000000E+03 0. -1.
         -6    1    1    2    0  502 -0.22432971275E+03 -0.29600673505E+03 -0.64744223619E+03  0.76596948791E+03  0.17200000000E+03 0.  1.
</event>
<event>
 4    1 -0.3305908E-004  0.1742667E+03  0.7818608E-02  0.1173470E+00
         -5   -1    0    0    0  501 -0.00000000000E+00  0.00000000000E+00  0.57765529072E+03  0.57767441081E+03  0.47000000000E+01 0.  1.
          5   -1    0    0  501    0  0.00000000000E+00 -0.00000000000E+00 -0.73795209027E+02  0.73944728516E+02  0.47000000000E+01 0. -1.
          6    1    1    2  502    0 -0.27701207098E+02 -0.41876882270E+01  0.76929475244E+02  0.19049156876E+03  0.17200000000E+03 0. -1.
         -6    1    1    2    0  502  0.27701207098E+02  0.41876882270E+01  0.42693060645E+03  0.46112757056E+03  0.17200000000E+03 0.  1.
</event>
<event>
 4    1 -0.3305908E-004  0.8247148E+03  0.7818608E-02  0.9524917E-01
         -5   -1    0    0    0  501 -0.00000000000E+00  0.00000000000E+00  0.23394260917E+04  0.23394308130E+04  0.47000000000E+01 0.  1.
          5   -1    0    0  501    0  0.00000000000E+00 -0.00000000000E+00 -0.64610141990E+03  0.64611851451E+03  0.47000000000E+01 0. -1.
          6    1    1    2  502    0  0.11973307336E+03 -0.79764304942E+03  0.19537590543E+04  0.21206906623E+04  0.17200000000E+03 0. -1.
         -6    1    1    2    0  502 -0.11973307336E+03  0.79764304942E+03 -0.26043438243E+03  0.86485866516E+03  0.17200000000E+03 0.  1.
</event>
<event>
 4    1 -0.3305908E-004  0.1814618E+03  0.7818608E-02  0.1166396E+00
         -5   -1    0    0    0  501 -0.00000000000E+00  0.00000000000E+00  0.15753045965E+03  0.15760055748E+03  0.47000000000E+01 0.  1.
          5   -1    0    0  501    0  0.00000000000E+00 -0.00000000000E+00 -0.21237165852E+03  0.21242366004E+03  0.47000000000E+01 0. -1.
          6    1    1    2  502    0  0.57819329242E+02 -0.11521725343E+01 -0.37241171418E+01  0.18150005891E+03  0.17200000000E+03 0.  1.
         -6    1    1    2    0  502 -0.57819329242E+02  0.11521725343E+01 -0.51117081728E+02  0.18852415861E+03  0.17200000000E+03 0.  1.
</event>
<event>
 4    1 -0.3305908E-004  0.2171812E+03  0.7818608E-02  0.1136002E+00
         -5   -1    0    0    0  501 -0.00000000000E+00  0.00000000000E+00  0.32234892252E+03  0.32238318481E+03  0.47000000000E+01 0.  1.
          5   -1    0    0  501    0  0.00000000000E+00 -0.00000000000E+00 -0.21686221938E+03  0.21691314436E+03  0.47000000000E+01 0. -1.
          6    1    1    2  502    0  0.14011394943E+02 -0.13186117362E+03 -0.10109434374E+03  0.23955741406E+03  0.17200000000E+03 0. -1.
         -6    1    1    2    0  502 -0.14011394943E+02  0.13186117362E+03  0.20658104688E+03  0.29973891510E+03  0.17200000000E+03 0.  1.
</event>
<event>
 4    1 -0.3305908E-004  0.1888404E+03  0.7818608E-02  0.1159511E+00
          5   -1    0    0  501    0  0.00000000000E+00  0.00000000000E+00  0.25244829505E+03  0.25249204279E+03  0.47000000000E+01 0. -1.
         -5   -1    0    0    0  501 -0.00000000000E+00 -0.00000000000E+00 -0.15648741734E+03  0.15655798218E+03  0.47000000000E+01 0.  1.
          6    1    1    2  502    0 -0.69544810958E+02 -0.35216559411E+02  0.11195640098E+03  0.21953342002E+03  0.17200000000E+03 0. -1.
         -6    1    1    2    0  502  0.69544810958E+02  0.35216559411E+02 -0.15995523261E+02  0.18951660495E+03  0.17200000000E+03 0.  1.
</event>
<event>
 4    1 -0.3305908E-004  0.1720017E+03  0.7818608E-02  0.1175776E+00
         -5   -1    0    0    0  501 -0.00000000000E+00  0.00000000000E+00  0.63288190026E+02  0.63462469198E+02  0.47000000000E+01 0.  1.
          5   -1    0    0  501    0  0.00000000000E+00 -0.00000000000E+00 -0.48411618776E+03  0.48413900199E+03  0.47000000000E+01 0. -1.
          6    1    1    2  502    0 -0.19326109376E+00  0.73424485195E+00 -0.26244096592E+03  0.31378310512E+03  0.17200000000E+03 0. -1.
         -6    1    1    2    0  502  0.19326109376E+00 -0.73424485195E+00 -0.15838703181E+03  0.23381836607E+03  0.17200000000E+03 0.  1.
</event>
<event>
 4    1 -0.3305908E-004  0.1955212E+03  0.7818608E-02  0.1153574E+00
         -5   -1    0    0    0  501 -0.00000000000E+00  0.00000000000E+00  0.47163399398E+03  0.47165741198E+03  0.47000000000E+01 0.  1.
          5   -1    0    0  501    0  0.00000000000E+00 -0.00000000000E+00 -0.11032521911E+03  0.11042528683E+03  0.47000000000E+01 0. -1.
          6    1    1    2  502    0  0.36295815157E+02 -0.85598840014E+02  0.30602693176E+02  0.19790167366E+03  0.17200000000E+03 0. -1.
         -6    1    1    2    0  502 -0.36295815157E+02  0.85598840014E+02  0.33070608169E+03  0.38418102514E+03  0.17200000000E+03 0.  1.
</event>
<event>
 4    1 -0.3305908E-004  0.2096678E+03  0.7818608E-02  0.1141829E+00
         -5   -1    0    0    0  501 -0.00000000000E+00  0.00000000000E+00  0.54872989344E+03  0.54875002137E+03  0.47000000000E+01 0.  1.
          5   -1    0    0  501    0  0.00000000000E+00 -0.00000000000E+00 -0.82427551039E+02  0.82561438761E+02  0.47000000000E+01 0. -1.
          6    1    1    2  502    0 -0.22455294990E+02  0.11778093839E+03  0.28701558703E+03  0.35544132697E+03  0.17200000000E+03 0.  1.
         -6    1    1    2    0  502  0.22455294990E+02 -0.11778093839E+03  0.17928675538E+03  0.27587013317E+03  0.17200000000E+03 0.  1.
</event>
<event>
 4    1 -0.3305908E-004  0.1850918E+03  0.7818608E-02  0.1162964E+00
          5   -1    0    0  501    0  0.00000000000E+00  0.00000000000E+00  0.43986351962E+03  0.43988862896E+03  0.47000000000E+01 0. -1.
         -5   -1    0    0    0  501 -0.00000000000E+00 -0.00000000000E+00 -0.93124794472E+02  0.93243323329E+02  0.47000000000E+01 0.  1.
          6    1    1    2  502    0 -0.11545639413E+01 -0.68364016074E+02  0.65278524699E+02  0.19626578280E+03  0.17200000000E+03 0.  1.
         -6    1    1    2    0  502  0.11545639413E+01  0.68364016074E+02  0.28146020045E+03  0.33686616949E+03  0.17200000000E+03 0. -1.
</event>
<event>
 4    1 -0.3305908E-004  0.2999678E+03  0.7818608E-02  0.1085257E+00
         -5   -1    0    0    0  501 -0.00000000000E+00  0.00000000000E+00  0.37528326567E+03  0.37531269562E+03  0.47000000000E+01 0.  1.
          5   -1    0    0  501    0  0.00000000000E+00 -0.00000000000E+00 -0.25622457820E+03  0.25626768129E+03  0.47000000000E+01 0. -1.
          6    1    1    2  502    0  0.16353779874E+03  0.18344493509E+03  0.13970071291E+03  0.33090322606E+03  0.17200000000E+03 0. -1.
         -6    1    1    2    0  502 -0.16353779874E+03 -0.18344493509E+03 -0.20642025438E+02  0.30067715085E+03  0.17200000000E+03 0.  1.
</event>
<event>
 4    1 -0.3305908E-004  0.2318009E+03  0.7818608E-02  0.1125379E+00
         -5   -1    0    0    0  501 -0.00000000000E+00  0.00000000000E+00  0.23299564985E+03  0.23304304935E+03  0.47000000000E+01 0.  1.
          5   -1    0    0  501    0  0.00000000000E+00 -0.00000000000E+00 -0.23091591903E+03  0.23096374534E+03  0.47000000000E+01 0. -1.
          6    1    1    2  502    0  0.15505468700E+03  0.10282115739E+02  0.10674130254E+02  0.23204657921E+03  0.17200000000E+03 0.  1.
         -6    1    1    2    0  502 -0.15505468700E+03 -0.10282115739E+02 -0.85943994308E+01  0.23196021548E+03  0.17200000000E+03 0.  1.
</event>
<event>
 4    1 -0.3305908E-004  0.2246108E+03  0.7818608E-02  0.1130491E+00
          5   -1    0    0  501    0  0.00000000000E+00  0.00000000000E+00  0.15880293727E+03  0.15887247365E+03  0.47000000000E+01 0. -1.
         -5   -1    0    0    0  501 -0.00000000000E+00 -0.00000000000E+00 -0.31756524570E+03  0.31760002405E+03  0.47000000000E+01 0.  1.
          6    1    1    2  502    0  0.36630304983E+02  0.13972906954E+03 -0.81788175864E+02  0.23903827691E+03  0.17200000000E+03 0.  1.
         -6    1    1    2    0  502 -0.36630304983E+02 -0.13972906954E+03 -0.76974132568E+02  0.23743422079E+03  0.17200000000E+03 0. -1.
</event>
<event>
 4    1 -0.3305908E-004  0.3898997E+03  0.7818608E-02  0.1047334E+00
         -5   -1    0    0    0  501 -0.00000000000E+00  0.00000000000E+00  0.85337092860E+03  0.85338387129E+03  0.47000000000E+01 0.  1.
          5   -1    0    0  501    0  0.00000000000E+00 -0.00000000000E+00 -0.19212585852E+03  0.19218333828E+03  0.47000000000E+01 0. -1.
          6    1    1    2  502    0 -0.29239666209E+03  0.19220294799E+03  0.18938432664E+03  0.43346072993E+03  0.17200000000E+03 0. -1.
         -6    1    1    2    0  502  0.29239666209E+03 -0.19220294799E+03  0.47186074344E+03  0.61210647964E+03  0.17200000000E+03 0.  1.
</event>
<event>
 4    1 -0.3305908E-004  0.5581598E+03  0.7818608E-02  0.9996227E-01
         -5   -1    0    0    0  501 -0.00000000000E+00  0.00000000000E+00  0.10691108736E+04  0.10691212046E+04  0.47000000000E+01 0.  1.
          5   -1    0    0  501    0  0.00000000000E+00 -0.00000000000E+00 -0.39413773172E+03  0.39416575392E+03  0.47000000000E+01 0. -1.
          6    1    1    2  502    0 -0.18259826533E+03 -0.49861431905E+03 -0.36085724853E+02  0.55932508007E+03  0.17200000000E+03 0. -1.
         -6    1    1    2    0  502  0.18259826533E+03  0.49861431905E+03  0.71105886674E+03  0.90396187841E+03  0.17200000000E+03 0.  1.
</event>
<event>
 4    1 -0.3305908E-004  0.2470879E+03  0.7818608E-02  0.1115159E+00
         -5   -1    0    0    0  501 -0.00000000000E+00  0.00000000000E+00  0.25131555768E+03  0.25135950257E+03  0.47000000000E+01 0.  1.
          5   -1    0    0  501    0  0.00000000000E+00 -0.00000000000E+00 -0.50183399310E+03  0.50185600188E+03  0.47000000000E+01 0. -1.
          6    1    1    2  502    0 -0.10954626828E+03 -0.13952792683E+03 -0.39579055280E+03  0.46658610025E+03  0.17200000000E+03 0. -1.
         -6    1    1    2    0  502  0.10954626828E+03  0.13952792683E+03  0.14527211738E+03  0.28662940420E+03  0.17200000000E+03 0.  1.
</event>
<event>
 4    1 -0.3305908E-004  0.5561336E+03  0.7818608E-02  0.1000084E+00
         -5   -1    0    0    0  501 -0.00000000000E+00  0.00000000000E+00  0.37121330678E+03  0.37124305937E+03  0.47000000000E+01 0.  1.
          5   -1    0    0  501    0  0.00000000000E+00 -0.00000000000E+00 -0.12164430066E+04  0.12164520863E+04  0.47000000000E+01 0. -1.
          6    1    1    2  502    0 -0.17757614078E+03  0.49816396723E+03 -0.86824678282E+03  0.10310853989E+04  0.17200000000E+03 0. -1.
         -6    1    1    2    0  502  0.17757614078E+03 -0.49816396723E+03  0.23017083025E+02  0.55660974671E+03  0.17200000000E+03 0.  1.
</event>
<event>
 4    1 -0.3305908E-004  0.1992784E+03  0.7818608E-02  0.1150349E+00
         -5   -1    0    0    0  501 -0.00000000000E+00  0.00000000000E+00  0.71749601099E+03  0.71751140464E+03  0.47000000000E+01 0.  1.
          5   -1    0    0  501    0  0.00000000000E+00 -0.00000000000E+00 -0.63879512564E+02  0.64052182831E+02  0.47000000000E+01 0. -1.
          6    1    1    2  502    0  0.87487603460E+02  0.49737337014E+02  0.18325504466E+03  0.27072919097E+03  0.17200000000E+03 0. -1.
         -6    1    1    2    0  502 -0.87487603460E+02 -0.49737337014E+02  0.47036145377E+03  0.51083439650E+03  0.17200000000E+03 0.  1.
</event>
<event>
 4    1 -0.3305908E-004  0.3884575E+03  0.7818608E-02  0.1047851E+00
         -5   -1    0    0    0  501 -0.00000000000E+00  0.00000000000E+00  0.12185641261E+04  0.12185731900E+04  0.47000000000E+01 0.  1.
          5   -1    0    0  501    0  0.00000000000E+00 -0.00000000000E+00 -0.12382741434E+03  0.12391657896E+03  0.47000000000E+01 0. -1.
          6    1    1    2  502    0 -0.16745483441E+03  0.30540808544E+03  0.56056618986E+03  0.68200709192E+03  0.17200000000E+03 0. -1.
         -6    1    1    2    0  502  0.16745483441E+03 -0.30540808544E+03  0.53417052193E+03  0.66048267708E+03  0.17200000000E+03 0.  1.
</event>
<event>
 4    1 -0.3305908E-004  0.1860166E+03  0.7818608E-02  0.1162104E+00
         -5   -1    0    0    0  501 -0.00000000000E+00  0.00000000000E+00  0.79031607094E+03  0.79033004623E+03  0.47000000000E+01 0.  1.
          5   -1    0    0  501    0  0.00000000000E+00 -0.00000000000E+00 -0.55535458761E+02  0.55733985859E+02  0.47000000000E+01 0. -1.
          6    1    1    2  502    0  0.51901779509E+02 -0.48211946281E+02  0.56273634583E+03  0.59268404855E+03  0.17200000000E+03 0.  1.
         -6    1    1    2    0  502 -0.51901779509E+02  0.48211946281E+02  0.17204426634E+03  0.25337998354E+03  0.17200000000E+03 0. -1.
</event>
<event>
 4    1 -0.3305908E-004  0.3490903E+03  0.7818608E-02  0.1062989E+00
          5   -1    0    0  501    0  0.00000000000E+00  0.00000000000E+00  0.16214897987E+04  0.16214966103E+04  0.47000000000E+01 0. -1.
         -5   -1    0    0    0  501 -0.00000000000E+00 -0.00000000000E+00 -0.10135894588E+03  0.10146785653E+03  0.47000000000E+01 0.  1.
          6    1    1    2  502    0 -0.97393227552E+02  0.28774047626E+03  0.11984658417E+04  0.12482725649E+04  0.17200000000E+03 0. -1.
         -6    1    1    2    0  502  0.97393227552E+02 -0.28774047626E+03  0.32166501115E+03  0.47469190203E+03  0.17200000000E+03 0.  1.
</event>
<event>
 4    1 -0.3305908E-004  0.2141963E+03  0.7818608E-02  0.1138285E+00
          5   -1    0    0  501    0  0.00000000000E+00  0.00000000000E+00  0.36395324218E+03  0.36398358822E+03  0.47000000000E+01 0. -1.
         -5   -1    0    0    0  501 -0.00000000000E+00 -0.00000000000E+00 -0.13363492697E+03  0.13371755198E+03  0.47000000000E+01 0.  1.
          6    1    1    2  502    0  0.12190958782E+03 -0.37869729062E+02  0.17468917704E+03  0.27639893733E+03  0.17200000000E+03 0. -1.
         -6    1    1    2    0  502 -0.12190958782E+03  0.37869729062E+02  0.55629138165E+02  0.22130220287E+03  0.17200000000E+03 0.  1.
</event>
<event>
 4    1 -0.3305908E-004  0.2162998E+03  0.7818608E-02  0.1136672E+00
         -5   -1    0    0    0  501 -0.00000000000E+00  0.00000000000E+00  0.80874349788E+03  0.80875715475E+03  0.47000000000E+01 0.  1.
          5   -1    0    0  501    0  0.00000000000E+00 -0.00000000000E+00 -0.67417423930E+02  0.67581055403E+02  0.47000000000E+01 0. -1.
          6    1    1    2  502    0 -0.10627666120E+03 -0.76856208794E+02  0.20488814469E+03  0.29793414940E+03  0.17200000000E+03 0. -1.
         -6    1    1    2    0  502  0.10627666120E+03  0.76856208794E+02  0.53643792926E+03  0.57840406075E+03  0.17200000000E+03 0.  1.
</event>
<event>
 4    1 -0.3305908E-004  0.5457959E+03  0.7818608E-02  0.1002472E+00
          5   -1    0    0  501    0  0.00000000000E+00  0.00000000000E+00  0.15393474987E+04  0.15393546738E+04  0.47000000000E+01 0. -1.
         -5   -1    0    0    0  501 -0.00000000000E+00 -0.00000000000E+00 -0.23016368346E+03  0.23021166604E+03  0.47000000000E+01 0.  1.
          6    1    1    2  502    0  0.49020975463E+03 -0.16734272009E+03  0.10077596608E+04  0.11460683764E+04  0.17200000000E+03 0. -1.
         -6    1    1    2    0  502 -0.49020975463E+03  0.16734272009E+03  0.30142415444E+03  0.62349796341E+03  0.17200000000E+03 0.  1.
</event>
<event>
 4    1 -0.3305908E-004  0.1809124E+03  0.7818608E-02  0.1166923E+00
         -5   -1    0    0    0  501 -0.00000000000E+00  0.00000000000E+00  0.16660903575E+03  0.16667531549E+03  0.47000000000E+01 0.  1.
          5   -1    0    0  501    0  0.00000000000E+00 -0.00000000000E+00 -0.19853019400E+03  0.19858582006E+03  0.47000000000E+01 0. -1.
          6    1    1    2  502    0  0.51544494768E+02  0.22101520422E+02  0.33453445086E+01  0.18094337091E+03  0.17200000000E+03 0.  1.
         -6    1    1    2    0  502 -0.51544494768E+02 -0.22101520422E+02 -0.35266502759E+02  0.18431776464E+03  0.17200000000E+03 0. -1.
</event>
<event>
 4    1 -0.3305908E-004  0.2067110E+03  0.7818608E-02  0.1144197E+00
          5   -1    0    0  501    0  0.00000000000E+00  0.00000000000E+00  0.66311092130E+03  0.66312757743E+03  0.47000000000E+01 0. -1.
         -5   -1    0    0    0  501 -0.00000000000E+00 -0.00000000000E+00 -0.65364087023E+02  0.65532845752E+02  0.47000000000E+01 0.  1.
          6    1    1    2  502    0  0.10361128450E+03  0.49093282923E+02  0.34452986677E+03  0.40178386951E+03  0.17200000000E+03 0. -1.
         -6    1    1    2    0  502 -0.10361128450E+03 -0.49093282923E+02  0.25321696751E+03  0.32687655367E+03  0.17200000000E+03 0.  1.
</event>
<event>
 4    1 -0.3305908E-004  0.2012225E+03  0.7818608E-02  0.1148712E+00
          5   -1    0    0  501    0  0.00000000000E+00  0.00000000000E+00  0.59412230355E+02  0.59597844892E+02  0.47000000000E+01 0. -1.
         -5   -1    0    0    0  501 -0.00000000000E+00 -0.00000000000E+00 -0.73097236315E+03  0.73098747301E+03  0.47000000000E+01 0.  1.
          6    1    1    2  502    0 -0.67735404291E+02  0.79488452365E+02 -0.43988231779E+03  0.48372197858E+03  0.17200000000E+03 0. -1.
         -6    1    1    2    0  502  0.67735404291E+02 -0.79488452365E+02 -0.23167781501E+03  0.30686333932E+03  0.17200000000E+03 0. -1.
</event>
<event>
 4    1 -0.3305908E-004  0.2018526E+03  0.7818608E-02  0.1148185E+00
         -5   -1    0    0    0  501 -0.00000000000E+00  0.00000000000E+00  0.32083628225E+03  0.32087070606E+03  0.47000000000E+01 0.  1.
          5   -1    0    0  501    0  0.00000000000E+00 -0.00000000000E+00 -0.13335012035E+03  0.13343292171E+03  0.47000000000E+01 0. -1.
          6    1    1    2  502    0 -0.18746042517E+02  0.10396669802E+03  0.43845952173E+02  0.20655981199E+03  0.17200000000E+03 0. -1.
         -6    1    1    2    0  502  0.18746042517E+02 -0.10396669802E+03  0.14364020973E+03  0.24774381578E+03  0.17200000000E+03 0.  1.
</event>
<event>
 4    1 -0.3305908E-004  0.2031451E+03  0.7818608E-02  0.1147112E+00
          5   -1    0    0  501    0  0.00000000000E+00  0.00000000000E+00  0.69590968447E+02  0.69749500998E+02  0.47000000000E+01 0. -1.
         -5   -1    0    0    0  501 -0.00000000000E+00 -0.00000000000E+00 -0.59236789265E+03  0.59238653786E+03  0.47000000000E+01 0.  1.
          6    1    1    2  502    0 -0.93759082053E+02 -0.53788129595E+02 -0.26752366238E+03  0.33591195020E+03  0.17200000000E+03 0. -1.
         -6    1    1    2    0  502  0.93759082053E+02  0.53788129595E+02 -0.25525326182E+03  0.32622408866E+03  0.17200000000E+03 0.  1.
</event>
<event>
 4    1 -0.3305908E-004  0.1878515E+03  0.7818608E-02  0.1160414E+00
          5   -1    0    0  501    0  0.00000000000E+00  0.00000000000E+00  0.12270982954E+03  0.12279980564E+03  0.47000000000E+01 0. -1.
         -5   -1    0    0    0  501 -0.00000000000E+00 -0.00000000000E+00 -0.32213723769E+03  0.32217152250E+03  0.47000000000E+01 0.  1.
          6    1    1    2  502    0 -0.73719928726E+02  0.16417798051E+02 -0.26625571944E+02  0.18972899901E+03  0.17200000000E+03 0. -1.
         -6    1    1    2    0  502  0.73719928726E+02 -0.16417798051E+02 -0.17280183621E+03  0.25524232913E+03  0.17200000000E+03 0.  1.
</event>
<event>
 4    1 -0.3305908E-004  0.1888593E+03  0.7818608E-02  0.1159494E+00
         -5   -1    0    0    0  501 -0.00000000000E+00  0.00000000000E+00  0.10321821838E+03  0.10332516927E+03  0.47000000000E+01 0.  1.
          5   -1    0    0  501    0  0.00000000000E+00 -0.00000000000E+00 -0.42698618385E+03  0.42701205041E+03  0.47000000000E+01 0. -1.
          6    1    1    2  502    0 -0.74104499330E+02  0.24338234175E+02 -0.27787876302E+03  0.33598278736E+03  0.17200000000E+03 0. -1.
         -6    1    1    2    0  502  0.74104499330E+02 -0.24338234175E+02 -0.45889202453E+02  0.19435443233E+03  0.17200000000E+03 0.  1.
</event>
<event>
 4    1 -0.3305908E-004  0.2892587E+03  0.7818608E-02  0.1090737E+00
         -5   -1    0    0    0  501 -0.00000000000E+00  0.00000000000E+00  0.50211216170E+03  0.50213415829E+03  0.47000000000E+01 0.  1.
          5   -1    0    0  501    0  0.00000000000E+00 -0.00000000000E+00 -0.18794737395E+03  0.18800613121E+03  0.47000000000E+01 0. -1.
          6    1    1    2  502    0 -0.79849538462E+02 -0.21842767288E+03  0.40754804239E+02  0.29211564686E+03  0.17200000000E+03 0. -1.
         -6    1    1    2    0  502  0.79849538462E+02  0.21842767288E+03  0.27340998351E+03  0.39802464265E+03  0.17200000000E+03 0.  1.
</event>
<event>
 4    1 -0.3305908E-004  0.6923131E+03  0.7818608E-02  0.9730469E-01
         -5   -1    0    0    0  501 -0.00000000000E+00  0.00000000000E+00  0.94459135352E+03  0.94460304633E+03  0.47000000000E+01 0.  1.
          5   -1    0    0  501    0  0.00000000000E+00 -0.00000000000E+00 -0.51723425784E+03  0.51725561136E+03  0.47000000000E+01 0. -1.
          6    1    1    2  502    0 -0.66837247033E+03  0.54695927559E+02  0.31452986082E+03  0.76041201787E+03  0.17200000000E+03 0. -1.
         -6    1    1    2    0  502  0.66837247033E+03 -0.54695927559E+02  0.11282723487E+03  0.70144663982E+03  0.17200000000E+03 0.  1.
</event>
<event>
 4    1 -0.3305908E-004  0.2678847E+03  0.7818608E-02  0.1102496E+00
         -5   -1    0    0    0  501 -0.00000000000E+00  0.00000000000E+00  0.19484495948E+03  0.19490163733E+03  0.47000000000E+01 0.  1.
          5   -1    0    0  501    0  0.00000000000E+00 -0.00000000000E+00 -0.94153896380E+03  0.94155069452E+03  0.47000000000E+01 0. -1.
          6    1    1    2  502    0  0.19288671733E+03  0.70519094447E+02 -0.81674922958E+03  0.85955891736E+03  0.17200000000E+03 0. -1.
         -6    1    1    2    0  502 -0.19288671733E+03 -0.70519094447E+02  0.70055225255E+02  0.27689341449E+03  0.17200000000E+03 0.  1.
</event>
<event>
 4    1 -0.3305908E-004  0.2972030E+03  0.7818608E-02  0.1086647E+00
          5   -1    0    0  501    0  0.00000000000E+00  0.00000000000E+00  0.79237595393E+03  0.79238989290E+03  0.47000000000E+01 0. -1.
         -5   -1    0    0    0  501 -0.00000000000E+00 -0.00000000000E+00 -0.19364803684E+03  0.19370506491E+03  0.47000000000E+01 0.  1.
          6    1    1    2  502    0  0.22869994644E+03  0.80261671392E+02  0.62059366554E+03  0.68808872910E+03  0.17200000000E+03 0. -1.
         -6    1    1    2    0  502 -0.22869994644E+03 -0.80261671392E+02 -0.21865748459E+02  0.29800622871E+03  0.17200000000E+03 0.  1.
</event>
<event>
 4    1 -0.3305908E-004  0.1808653E+03  0.7818608E-02  0.1166968E+00
         -5   -1    0    0    0  501 -0.00000000000E+00  0.00000000000E+00  0.75588669059E+02  0.75734647884E+02  0.47000000000E+01 0.  1.
          5   -1    0    0  501    0  0.00000000000E+00 -0.00000000000E+00 -0.65513271117E+03  0.65514957014E+03  0.47000000000E+01 0. -1.
          6    1    1    2  502    0  0.53742799271E+02  0.15490394434E+02 -0.76617295485E+02  0.19642416033E+03  0.17200000000E+03 0.  1.
         -6    1    1    2    0  502 -0.53742799271E+02 -0.15490394434E+02 -0.50292674663E+03  0.53446005769E+03  0.17200000000E+03 0. -1.
</event>
<event>
 4    1 -0.3305908E-004  0.1947982E+03  0.7818608E-02  0.1154203E+00
          5   -1    0    0  501    0  0.00000000000E+00  0.00000000000E+00  0.27270733322E+03  0.27274783150E+03  0.47000000000E+01 0. -1.
         -5   -1    0    0    0  501 -0.00000000000E+00 -0.00000000000E+00 -0.15810128742E+03  0.15817113227E+03  0.47000000000E+01 0.  1.
          6    1    1    2  502    0  0.47989774676E+02  0.77841687578E+02  0.13205640067E+03  0.23534068870E+03  0.17200000000E+03 0. -1.
         -6    1    1    2    0  502 -0.47989774676E+02 -0.77841687578E+02 -0.17450354877E+02  0.19557827508E+03  0.17200000000E+03 0.  1.
</event>
<event>
 4    1 -0.3305908E-004  0.2032614E+03  0.7818608E-02  0.1147016E+00
          5   -1    0    0  501    0  0.00000000000E+00  0.00000000000E+00  0.52345993277E+03  0.52348103234E+03  0.47000000000E+01 0. -1.
         -5   -1    0    0    0  501 -0.00000000000E+00 -0.00000000000E+00 -0.79759508944E+02  0.79897867725E+02  0.47000000000E+01 0.  1.
          6    1    1    2  502    0 -0.10445251842E+03 -0.28650991037E+02  0.18939309061E+03  0.27782179659E+03  0.17200000000E+03 0. -1.
         -6    1    1    2    0  502  0.10445251842E+03  0.28650991037E+02  0.25430733322E+03  0.32555710347E+03  0.17200000000E+03 0. -1.
</event>
<event>
 4    1 -0.3305908E-004  0.2251642E+03  0.7818608E-02  0.1130090E+00
         -5   -1    0    0    0  501 -0.00000000000E+00  0.00000000000E+00  0.24643395394E+03  0.24647876917E+03  0.47000000000E+01 0.  1.
          5   -1    0    0  501    0  0.00000000000E+00 -0.00000000000E+00 -0.22824480195E+03  0.22829318784E+03  0.47000000000E+01 0. -1.
          6    1    1    2  502    0  0.14286480940E+03 -0.26543689127E+02 -0.65595841128E+02  0.23452448821E+03  0.17200000000E+03 0. -1.
         -6    1    1    2    0  502 -0.14286480940E+03  0.26543689127E+02  0.83784993121E+02  0.24024746881E+03  0.17200000000E+03 0.  1.
</event>
<event>
 4    1 -0.3305908E-004  0.2180232E+03  0.7818608E-02  0.1135365E+00
          5   -1    0    0  501    0  0.00000000000E+00  0.00000000000E+00  0.72928174080E+02  0.73079467531E+02  0.47000000000E+01 0. -1.
         -5   -1    0    0    0  501 -0.00000000000E+00 -0.00000000000E+00 -0.17122520917E+04  0.17122585423E+04  0.47000000000E+01 0.  1.
          6    1    1    2  502    0  0.83555599781E+02 -0.10473097149E+03 -0.11690731569E+03  0.24738923806E+03  0.17200000000E+03 0. -1.
         -6    1    1    2    0  502 -0.83555599781E+02  0.10473097149E+03 -0.15224166019E+04  0.15379487717E+04  0.17200000000E+03 0.  1.
</event>
<event>
 4    1 -0.3305908E-004  0.1768270E+03  0.7818608E-02  0.1170910E+00
          5   -1    0    0  501    0  0.00000000000E+00  0.00000000000E+00  0.72613809598E+02  0.72765756674E+02  0.47000000000E+01 0. -1.
         -5   -1    0    0    0  501 -0.00000000000E+00 -0.00000000000E+00 -0.42999520208E+03  0.43002088765E+03  0.47000000000E+01 0.  1.
          6    1    1    2  502    0 -0.16054519937E+02 -0.37762887527E+02 -0.17964884896E+03  0.25207437835E+03  0.17200000000E+03 0. -1.
         -6    1    1    2    0  502  0.16054519937E+02  0.37762887527E+02 -0.17773254352E+03  0.25071226598E+03  0.17200000000E+03 0. -1.
</event>
<event>
 4    1 -0.3305908E-004  0.2032853E+03  0.7818608E-02  0.1146996E+00
          5   -1    0    0  501    0  0.00000000000E+00  0.00000000000E+00  0.30757685537E+03  0.30761276300E+03  0.47000000000E+01 0. -1.
         -5   -1    0    0    0  501 -0.00000000000E+00 -0.00000000000E+00 -0.13547155764E+03  0.13555306315E+03  0.47000000000E+01 0.  1.
          6    1    1    2  502    0 -0.96795207035E+02 -0.48699029250E+02  0.10689878896E+03  0.22967859856E+03  0.17200000000E+03 0. -1.
         -6    1    1    2    0  502  0.96795207035E+02  0.48699029250E+02  0.65206508774E+02  0.21348722758E+03  0.17200000000E+03 0.  1.
</event>
<event>
 4    1 -0.3305908E-004  0.1830009E+03  0.7818608E-02  0.1164930E+00
         -5   -1    0    0    0  501 -0.00000000000E+00  0.00000000000E+00  0.54763784139E+02  0.54965098501E+02  0.47000000000E+01 0.  1.
          5   -1    0    0  501    0  0.00000000000E+00 -0.00000000000E+00 -0.63073227803E+03  0.63074978918E+03  0.47000000000E+01 0. -1.
          6    1    1    2  502    0  0.20569034220E+02 -0.59010544654E+02 -0.22612144568E+03  0.29089557876E+03  0.17200000000E+03 0.  1.
         -6    1    1    2    0  502 -0.20569034220E+02  0.59010544654E+02 -0.34984704821E+03  0.39481930891E+03  0.17200000000E+03 0.  1.
</event>
<event>
 4    1 -0.3305908E-004  0.1767641E+03  0.7818608E-02  0.1170972E+00
          5   -1    0    0  501    0  0.00000000000E+00  0.00000000000E+00  0.45022322759E+03  0.45024775920E+03  0.47000000000E+01 0. -1.
         -5   -1    0    0    0  501 -0.00000000000E+00 -0.00000000000E+00 -0.97753751640E+02  0.97866674408E+02  0.47000000000E+01 0.  1.
          6    1    1    2  502    0 -0.20099208839E+02  0.35462286886E+02  0.32398653783E+03  0.36907022188E+03  0.17200000000E+03 0. -1.
         -6    1    1    2    0  502  0.20099208839E+02 -0.35462286886E+02  0.28482938122E+02  0.17904421172E+03  0.17200000000E+03 0.  1.
</event>
<event>
 4    1 -0.3305908E-004  0.2965205E+03  0.7818608E-02  0.1086993E+00
          5   -1    0    0  501    0  0.00000000000E+00  0.00000000000E+00  0.40289814265E+03  0.40292555560E+03  0.47000000000E+01 0. -1.
         -5   -1    0    0    0  501 -0.00000000000E+00 -0.00000000000E+00 -0.48964439472E+03  0.48966695138E+03  0.47000000000E+01 0.  1.
          6    1    1    2  502    0 -0.24001276655E+03 -0.27097518710E+02  0.28891829959E+03  0.41400264186E+03  0.17200000000E+03 0. -1.
         -6    1    1    2    0  502  0.24001276655E+03  0.27097518710E+02 -0.37566455166E+03  0.47858986512E+03  0.17200000000E+03 0.  1.
</event>
<event>
 4    1 -0.3305908E-004  0.5051772E+03  0.7818608E-02  0.1012436E+00
          5   -1    0    0  501    0  0.00000000000E+00  0.00000000000E+00  0.40388971918E+03  0.40391706482E+03  0.47000000000E+01 0. -1.
         -5   -1    0    0    0  501 -0.00000000000E+00 -0.00000000000E+00 -0.72037878848E+03  0.72039412053E+03  0.47000000000E+01 0.  1.
          6    1    1    2  502    0  0.47499096739E+03  0.19031749596E+01  0.38865035665E+02  0.50667004270E+03  0.17200000000E+03 0. -1.
         -6    1    1    2    0  502 -0.47499096739E+03 -0.19031749596E+01 -0.35535410497E+03  0.61764114265E+03  0.17200000000E+03 0.  1.
</event>
<event>
 4    1 -0.3305908E-004  0.1888295E+03  0.7818608E-02  0.1159521E+00
         -5   -1    0    0    0  501 -0.00000000000E+00  0.00000000000E+00  0.12248832588E+04  0.12248922759E+04  0.47000000000E+01 0.  1.
          5   -1    0    0  501    0  0.00000000000E+00 -0.00000000000E+00 -0.42314894734E+02  0.42575113815E+02  0.47000000000E+01 0. -1.
          6    1    1    2  502    0  0.13003710583E+02  0.76834177275E+02  0.23598896157E+03  0.30223728637E+03  0.17200000000E+03 0.  1.
         -6    1    1    2    0  502 -0.13003710583E+02 -0.76834177275E+02  0.94657940249E+03  0.96523010340E+03  0.17200000000E+03 0.  1.
</event>
<event>
 4    1 -0.3305908E-004  0.2447071E+03  0.7818608E-02  0.1116696E+00
         -5   -1    0    0    0  501 -0.00000000000E+00  0.00000000000E+00  0.51165162222E+03  0.51167320872E+03  0.47000000000E+01 0.  1.
          5   -1    0    0  501    0  0.00000000000E+00 -0.00000000000E+00 -0.11832572485E+03  0.11841903210E+03  0.47000000000E+01 0. -1.
          6    1    1    2  502    0  0.16966994123E+03  0.38854806327E+02  0.16288981197E+03  0.29396373208E+03  0.17200000000E+03 0. -1.
         -6    1    1    2    0  502 -0.16966994123E+03 -0.38854806327E+02  0.23043608539E+03  0.33612850874E+03  0.17200000000E+03 0.  1.
</event>
<event>
 4    1 -0.3305908E-004  0.2840281E+03  0.7818608E-02  0.1093509E+00
         -5   -1    0    0    0  501 -0.00000000000E+00  0.00000000000E+00  0.44659414179E+03  0.44661887273E+03  0.47000000000E+01 0.  1.
          5   -1    0    0  501    0  0.00000000000E+00 -0.00000000000E+00 -0.21553058596E+03  0.21558182549E+03  0.47000000000E+01 0. -1.
          6    1    1    2  502    0  0.16035725264E+03  0.15929070309E+03 -0.17778550209E+02  0.28458400063E+03  0.17200000000E+03 0. -1.
         -6    1    1    2    0  502 -0.16035725264E+03 -0.15929070309E+03  0.24884210604E+03  0.37761669760E+03  0.17200000000E+03 0.  1.
</event>
<event>
 4    1 -0.3305908E-004  0.1869111E+03  0.7818608E-02  0.1161277E+00
         -5   -1    0    0    0  501 -0.00000000000E+00  0.00000000000E+00  0.40808096287E+02  0.41077861709E+02  0.47000000000E+01 0.  1.
          5   -1    0    0  501    0  0.00000000000E+00 -0.00000000000E+00 -0.93027517310E+03  0.93028704586E+03  0.47000000000E+01 0. -1.
          6    1    1    2  502    0 -0.18689918342E+02 -0.70728040053E+02 -0.58469039860E+03  0.61383925495E+03  0.17200000000E+03 0. -1.
         -6    1    1    2    0  502  0.18689918342E+02  0.70728040053E+02 -0.30477667821E+03  0.35752565262E+03  0.17200000000E+03 0.  1.
</event>
<event>
 4    1 -0.3305908E-004  0.3811047E+03  0.7818608E-02  0.1050526E+00
         -5   -1    0    0    0  501 -0.00000000000E+00  0.00000000000E+00  0.21936836663E+03  0.21941870996E+03  0.47000000000E+01 0.  1.
          5   -1    0    0  501    0  0.00000000000E+00 -0.00000000000E+00 -0.80489208584E+03  0.80490580806E+03  0.47000000000E+01 0. -1.
          6    1    1    2  502    0 -0.45117258418E+02  0.33707752735E+03 -0.50858517529E+03  0.63553104328E+03  0.17200000000E+03 0. -1.
         -6    1    1    2    0  502  0.45117258418E+02 -0.33707752735E+03 -0.76938543922E+02  0.38879347473E+03  0.17200000000E+03 0.  1.
</event>
<event>
 4    1 -0.3305908E-004  0.3891703E+03  0.7818608E-02  0.1047595E+00
          5   -1    0    0  501    0  0.00000000000E+00  0.00000000000E+00  0.14579315282E+04  0.14579391040E+04  0.47000000000E+01 0. -1.
         -5   -1    0    0    0  501 -0.00000000000E+00 -0.00000000000E+00 -0.10925959294E+03  0.10936063573E+03  0.47000000000E+01 0.  1.
          6    1    1    2  502    0 -0.85440752356E+02  0.33848099825E+03  0.84907774316E+03  0.93401633940E+03  0.17200000000E+03 0. -1.
         -6    1    1    2    0  502  0.85440752356E+02 -0.33848099825E+03  0.49959419214E+03  0.63328340035E+03  0.17200000000E+03 0.  1.
</event>
<event>
 4    1 -0.3305908E-004  0.2531075E+03  0.7818608E-02  0.1111357E+00
          5   -1    0    0  501    0  0.00000000000E+00  0.00000000000E+00  0.61885958419E+03  0.61887743127E+03  0.47000000000E+01 0. -1.
         -5   -1    0    0    0  501 -0.00000000000E+00 -0.00000000000E+00 -0.13908499075E+03  0.13916437997E+03  0.47000000000E+01 0.  1.
          6    1    1    2  502    0  0.13188429836E+03 -0.13071325834E+03  0.43167191491E+03  0.50040390304E+03  0.17200000000E+03 0. -1.
         -6    1    1    2    0  502 -0.13188429836E+03  0.13071325834E+03  0.48102678527E+02  0.25763790820E+03  0.17200000000E+03 0.  1.
</event>
<event>
 4    1 -0.3305908E-004  0.1884090E+03  0.7818608E-02  0.1159904E+00
         -5   -1    0    0    0  501 -0.00000000000E+00  0.00000000000E+00  0.12096418746E+03  0.12105546104E+03  0.47000000000E+01 0.  1.
          5   -1    0    0  501    0  0.00000000000E+00 -0.00000000000E+00 -0.29323906544E+03  0.29327672854E+03  0.47000000000E+01 0. -1.
          6    1    1    2  502    0  0.70494230148E+02 -0.30732711490E+02 -0.86624720316E+02  0.20736870113E+03  0.17200000000E+03 0. -1.
         -6    1    1    2    0  502 -0.70494230148E+02  0.30732711490E+02 -0.85650157672E+02  0.20696348844E+03  0.17200000000E+03 0.  1.
</event>
<event>
 4    1 -0.3305908E-004  0.2238144E+03  0.7818608E-02  0.1131071E+00
          5   -1    0    0  501    0  0.00000000000E+00  0.00000000000E+00  0.66215711561E+03  0.66217379573E+03  0.47000000000E+01 0. -1.
         -5   -1    0    0    0  501 -0.00000000000E+00 -0.00000000000E+00 -0.81117787574E+02  0.81253833515E+02  0.47000000000E+01 0.  1.
          6    1    1    2  502    0  0.10929741906E+03  0.92536301309E+02  0.38771904045E+03  0.44768174768E+03  0.17200000000E+03 0. -1.
         -6    1    1    2    0  502 -0.10929741906E+03 -0.92536301309E+02  0.19332028758E+03  0.29574588157E+03  0.17200000000E+03 0.  1.
</event>
<event>
 4    1 -0.3305908E-004  0.2183420E+03  0.7818608E-02  0.1135125E+00
         -5   -1    0    0    0  501 -0.00000000000E+00  0.00000000000E+00  0.11112082493E+04  0.11112181889E+04  0.47000000000E+01 0.  1.
          5   -1    0    0  501    0  0.00000000000E+00 -0.00000000000E+00 -0.64000471111E+02  0.64172815914E+02  0.47000000000E+01 0. -1.
          6    1    1    2  502    0 -0.24649461656E+01 -0.13447366352E+03  0.18565764651E+03  0.28660426349E+03  0.17200000000E+03 0. -1.
         -6    1    1    2    0  502  0.24649461656E+01  0.13447366352E+03  0.86155013168E+03  0.88878674132E+03  0.17200000000E+03 0.  1.
</event>
<event>
 4    1 -0.3305908E-004  0.2634010E+03  0.7818608E-02  0.1105117E+00
         -5   -1    0    0    0  501 -0.00000000000E+00  0.00000000000E+00  0.13353570269E+04  0.13353652980E+04  0.47000000000E+01 0.  1.
          5   -1    0    0  501    0  0.00000000000E+00 -0.00000000000E+00 -0.14410127526E+03  0.14417790237E+03  0.47000000000E+01 0. -1.
          6    1    1    2  502    0 -0.75430284110E+02 -0.18467908264E+03  0.40121275646E+01  0.26343156320E+03  0.17200000000E+03 0. -1.
         -6    1    1    2    0  502  0.75430284110E+02  0.18467908264E+03  0.11872436240E+04  0.12161116372E+04  0.17200000000E+03 0.  1.
</event>
<event>
 4    1 -0.3305908E-004  0.2135478E+03  0.7818608E-02  0.1138787E+00
          5   -1    0    0  501    0  0.00000000000E+00  0.00000000000E+00  0.17077636184E+03  0.17084102483E+03  0.47000000000E+01 0. -1.
         -5   -1    0    0    0  501 -0.00000000000E+00 -0.00000000000E+00 -0.34764213117E+03  0.34767390089E+03  0.47000000000E+01 0.  1.
          6    1    1    2  502    0  0.23320427272E+02 -0.12439777183E+03  0.36496353058E+02  0.21664402081E+03  0.17200000000E+03 0. -1.
         -6    1    1    2    0  502 -0.23320427272E+02  0.12439777183E+03 -0.21336212238E+03  0.30187090491E+03  0.17200000000E+03 0.  1.
</event>
<event>
 4    1 -0.3305908E-004  0.1730531E+03  0.7818608E-02  0.1174701E+00
          5   -1    0    0  501    0  0.00000000000E+00  0.00000000000E+00  0.67594817287E+03  0.67596451268E+03  0.47000000000E+01 0. -1.
         -5   -1    0    0    0  501 -0.00000000000E+00 -0.00000000000E+00 -0.44622884930E+02  0.44869720965E+02  0.47000000000E+01 0.  1.
          6    1    1    2  502    0  0.15308311069E+02 -0.11359041275E+02  0.27916844122E+03  0.32845454903E+03  0.17200000000E+03 0.  1.
         -6    1    1    2    0  502 -0.15308311069E+02  0.11359041275E+02  0.35215684672E+03  0.39237968461E+03  0.17200000000E+03 0. -1.
</event>
<event>
 4    1 -0.3305908E-004  0.2644462E+03  0.7818608E-02  0.1104501E+00
          5   -1    0    0  501    0  0.00000000000E+00  0.00000000000E+00  0.54900914242E+03  0.54902926011E+03  0.47000000000E+01 0. -1.
         -5   -1    0    0    0  501 -0.00000000000E+00 -0.00000000000E+00 -0.13281702392E+03  0.13290015743E+03  0.47000000000E+01 0.  1.
          6    1    1    2  502    0  0.19758085757E+03 -0.36188273789E+02  0.27748272176E+03  0.38331246694E+03  0.17200000000E+03 0. -1.
         -6    1    1    2    0  502 -0.19758085757E+03  0.36188273789E+02  0.13870939674E+03  0.29861695059E+03  0.17200000000E+03 0.  1.
</event>
<event>
 4    1 -0.3305908E-004  0.2156154E+03  0.7818608E-02  0.1137195E+00
         -5   -1    0    0    0  501 -0.00000000000E+00  0.00000000000E+00  0.39033858624E+03  0.39036688116E+03  0.47000000000E+01 0.  1.
          5   -1    0    0  501    0  0.00000000000E+00 -0.00000000000E+00 -0.14420402594E+03  0.14428059848E+03  0.47000000000E+01 0. -1.
          6    1    1    2  502    0  0.99818134655E+02 -0.83320615907E+02  0.11402010798E+02  0.21591662949E+03  0.17200000000E+03 0. -1.
         -6    1    1    2    0  502 -0.99818134655E+02  0.83320615907E+02  0.23473254950E+03  0.31873085015E+03  0.17200000000E+03 0.  1.
</event>
<event>
 4    1 -0.3305908E-004  0.2295105E+03  0.7818608E-02  0.1126985E+00
         -5   -1    0    0    0  501 -0.00000000000E+00  0.00000000000E+00  0.78238814732E+02  0.78379857940E+02  0.47000000000E+01 0.  1.
          5   -1    0    0  501    0  0.00000000000E+00 -0.00000000000E+00 -0.68190627977E+03  0.68192247682E+03  0.47000000000E+01 0. -1.
          6    1    1    2  502    0 -0.13468896241E+03 -0.70356057639E+02 -0.34646533748E+03  0.41558792273E+03  0.17200000000E+03 0.  1.
         -6    1    1    2    0  502  0.13468896241E+03  0.70356057639E+02 -0.25720212756E+03  0.34471441203E+03  0.17200000000E+03 0.  1.
</event>
<event>
 4    1 -0.3305908E-004  0.1928657E+03  0.7818608E-02  0.1155902E+00
          5   -1    0    0  501    0  0.00000000000E+00  0.00000000000E+00  0.28902627372E+04  0.28902665587E+04  0.47000000000E+01 0. -1.
         -5   -1    0    0    0  501 -0.00000000000E+00 -0.00000000000E+00 -0.14178347246E+02  0.14937052274E+02  0.47000000000E+01 0.  1.
          6    1    1    2  502    0 -0.43352007057E+02 -0.75721623131E+02  0.19331573008E+04  0.19427543104E+04  0.17200000000E+03 0. -1.
         -6    1    1    2    0  502  0.43352007057E+02  0.75721623131E+02  0.94292708914E+03  0.96244930056E+03  0.17200000000E+03 0.  1.
</event>
<event>
 4    1 -0.3305908E-004  0.2648658E+03  0.7818608E-02  0.1104255E+00
          5   -1    0    0  501    0  0.00000000000E+00  0.00000000000E+00  0.81707224720E+02  0.81842290849E+02  0.47000000000E+01 0. -1.
         -5   -1    0    0    0  501 -0.00000000000E+00 -0.00000000000E+00 -0.11982291412E+04  0.11982383589E+04  0.47000000000E+01 0.  1.
          6    1    1    2  502    0 -0.76855966452E+02 -0.18618011148E+03 -0.21710249429E+03  0.34247243176E+03  0.17200000000E+03 0. -1.
         -6    1    1    2    0  502  0.76855966452E+02  0.18618011148E+03 -0.89941942215E+03  0.93760821798E+03  0.17200000000E+03 0.  1.
</event>
<event>
 4    1 -0.3305908E-004  0.2320100E+03  0.7818608E-02  0.1125233E+00
         -5   -1    0    0    0  501 -0.00000000000E+00  0.00000000000E+00  0.42549163663E+03  0.42551759405E+03  0.47000000000E+01 0.  1.
          5   -1    0    0  501    0  0.00000000000E+00 -0.00000000000E+00 -0.20394674483E+03  0.20400089394E+03  0.47000000000E+01 0. -1.
          6    1    1    2  502    0  0.14107606081E+02  0.15506652092E+03 -0.83226164646E+02  0.24648579055E+03  0.17200000000E+03 0. -1.
         -6    1    1    2    0  502 -0.14107606081E+02 -0.15506652092E+03  0.30477105645E+03  0.38303269744E+03  0.17200000000E+03 0.  1.
</event>
<event>
 4    1 -0.3305908E-004  0.2511917E+03  0.7818608E-02  0.1112554E+00
          5   -1    0    0  501    0  0.00000000000E+00  0.00000000000E+00  0.55288348024E+03  0.55290345696E+03  0.47000000000E+01 0. -1.
         -5   -1    0    0    0  501 -0.00000000000E+00 -0.00000000000E+00 -0.11611144633E+03  0.11620653153E+03  0.47000000000E+01 0.  1.
          6    1    1    2  502    0 -0.16058960622E+03  0.87887816974E+02  0.17386952925E+03  0.30549615906E+03  0.17200000000E+03 0. -1.
         -6    1    1    2    0  502  0.16058960622E+03 -0.87887816974E+02  0.26290250466E+03  0.36361382943E+03  0.17200000000E+03 0.  1.
</event>
<event>
 4    1 -0.3305908E-004  0.2038138E+03  0.7818608E-02  0.1146561E+00
         -5   -1    0    0    0  501 -0.00000000000E+00  0.00000000000E+00  0.15459314316E+04  0.15459385761E+04  0.47000000000E+01 0.  1.
          5   -1    0    0  501    0  0.00000000000E+00 -0.00000000000E+00 -0.26962271469E+02  0.27368852419E+02  0.47000000000E+01 0. -1.
          6    1    1    2  502    0 -0.51809061527E+02  0.96290721833E+02  0.84244155342E+03  0.86674555257E+03  0.17200000000E+03 0. -1.
         -6    1    1    2    0  502  0.51809061527E+02 -0.96290721833E+02  0.67652760672E+03  0.70656187600E+03  0.17200000000E+03 0.  1.
</event>
<event>
 4    1 -0.3305908E-004  0.1810250E+03  0.7818608E-02  0.1166815E+00
          5   -1    0    0  501    0  0.00000000000E+00  0.00000000000E+00  0.29125877166E+03  0.29129669080E+03  0.47000000000E+01 0. -1.
         -5   -1    0    0    0  501 -0.00000000000E+00 -0.00000000000E+00 -0.16038460008E+03  0.16045345102E+03  0.47000000000E+01 0.  1.
          6    1    1    2  502    0  0.55480782877E+02  0.10388806500E+02  0.18891651023E+03  0.26164764934E+03  0.17200000000E+03 0. -1.
         -6    1    1    2    0  502 -0.55480782877E+02 -0.10388806500E+02 -0.58042338652E+02  0.19010249248E+03  0.17200000000E+03 0.  1.
</event>
<event>
 4    1 -0.3305908E-004  0.3829102E+03  0.7818608E-02  0.1049863E+00
          5   -1    0    0  501    0  0.00000000000E+00  0.00000000000E+00  0.33289202280E+03  0.33292520007E+03  0.47000000000E+01 0. -1.
         -5   -1    0    0    0  501 -0.00000000000E+00 -0.00000000000E+00 -0.45080044430E+03  0.45082494450E+03  0.47000000000E+01 0.  1.
          6    1    1    2  502    0 -0.29392297211E+03  0.17505864816E+03  0.63260422359E+00  0.38291075203E+03  0.17200000000E+03 0. -1.
         -6    1    1    2    0  502  0.29392297211E+03 -0.17505864816E+03 -0.11854102573E+03  0.40083939254E+03  0.17200000000E+03 0.  1.
</event>
<event>
 4    1 -0.3305908E-004  0.1805739E+03  0.7818608E-02  0.1167249E+00
          5   -1    0    0  501    0  0.00000000000E+00  0.00000000000E+00  0.40451708392E+02  0.40723834689E+02  0.47000000000E+01 0. -1.
         -5   -1    0    0    0  501 -0.00000000000E+00 -0.00000000000E+00 -0.11993583960E+04  0.11993676051E+04  0.47000000000E+01 0.  1.
          6    1    1    2  502    0 -0.47935656750E+02  0.26927984918E+02 -0.22309018901E+03  0.28701250146E+03  0.17200000000E+03 0. -1.
         -6    1    1    2    0  502  0.47935656750E+02 -0.26927984918E+02 -0.93581649863E+03  0.95307893832E+03  0.17200000000E+03 0.  1.
</event>
<event>
 4    1 -0.3305908E-004  0.2211479E+03  0.7818608E-02  0.1133030E+00
         -5   -1    0    0    0  501 -0.00000000000E+00  0.00000000000E+00  0.26821748198E+02  0.27230427400E+02  0.47000000000E+01 0.  1.
          5   -1    0    0  501    0  0.00000000000E+00 -0.00000000000E+00 -0.18096474287E+04  0.18096535320E+04  0.47000000000E+01 0. -1.
          6    1    1    2  502    0  0.78399717287E+02 -0.11478615208E+03 -0.87676549096E+03  0.90422569224E+03  0.17200000000E+03 0. -1.
         -6    1    1    2    0  502 -0.78399717287E+02  0.11478615208E+03 -0.90606018950E+03  0.93265826720E+03  0.17200000000E+03 0. -1.
</event>
<event>
 4    1 -0.3305908E-004  0.5005272E+03  0.7818608E-02  0.1013641E+00
         -5   -1    0    0    0  501 -0.00000000000E+00  0.00000000000E+00  0.30913494698E+03  0.30917067365E+03  0.47000000000E+01 0.  1.
          5   -1    0    0  501    0  0.00000000000E+00 -0.00000000000E+00 -0.82952853819E+03  0.82954185287E+03  0.47000000000E+01 0. -1.
          6    1    1    2  502    0 -0.41307072510E+03  0.22431247517E+03 -0.34682159783E+03  0.60894394748E+03  0.17200000000E+03 0. -1.
         -6    1    1    2    0  502  0.41307072510E+03 -0.22431247517E+03 -0.17357199337E+03  0.52976857904E+03  0.17200000000E+03 0.  1.
</event>
<event>
 4    1 -0.3305908E-004  0.1929192E+03  0.7818608E-02  0.1155854E+00
         -5   -1    0    0    0  501 -0.00000000000E+00  0.00000000000E+00  0.65861918996E+02  0.66029405372E+02  0.47000000000E+01 0.  1.
          5   -1    0    0  501    0  0.00000000000E+00 -0.00000000000E+00 -0.11195108697E+04  0.11195207356E+04  0.47000000000E+01 0. -1.
          6    1    1    2  502    0 -0.21600904518E+02  0.84659457507E+02 -0.94428071357E+03  0.96378622570E+03  0.17200000000E+03 0. -1.
         -6    1    1    2    0  502  0.21600904518E+02 -0.84659457507E+02 -0.10936823717E+03  0.22176391529E+03  0.17200000000E+03 0.  1.
</event>
<event>
 4    1 -0.3305908E-004  0.1724105E+03  0.7818608E-02  0.1175357E+00
         -5   -1    0    0    0  501 -0.00000000000E+00  0.00000000000E+00  0.17360552842E+03  0.17366913801E+03  0.47000000000E+01 0.  1.
          5   -1    0    0  501    0  0.00000000000E+00 -0.00000000000E+00 -0.19183821454E+03  0.19189578046E+03  0.47000000000E+01 0. -1.
          6    1    1    2  502    0  0.25379397692E+01 -0.11616016926E+02 -0.69199007690E+02  0.18577910446E+03  0.17200000000E+03 0. -1.
         -6    1    1    2    0  502 -0.25379397692E+01  0.11616016926E+02  0.50966321569E+02  0.17978581402E+03  0.17200000000E+03 0.  1.
</event>
<event>
 4    1 -0.3305908E-004  0.3024516E+03  0.7818608E-02  0.1084021E+00
         -5   -1    0    0    0  501 -0.00000000000E+00  0.00000000000E+00  0.10949422906E+04  0.10949523778E+04  0.47000000000E+01 0.  1.
          5   -1    0    0  501    0  0.00000000000E+00 -0.00000000000E+00 -0.85226921216E+02  0.85356418036E+02  0.47000000000E+01 0. -1.
          6    1    1    2  502    0 -0.16754372727E+03 -0.18390776491E+03  0.58955870381E+03  0.66261333504E+03  0.17200000000E+03 0.  1.
         -6    1    1    2    0  502  0.16754372727E+03  0.18390776491E+03  0.42015666556E+03  0.51769546082E+03  0.17200000000E+03 0. -1.
</event>
<event>
 4    1 -0.3305908E-004  0.2385744E+03  0.7818608E-02  0.1120746E+00
         -5   -1    0    0    0  501 -0.00000000000E+00  0.00000000000E+00  0.12940240464E+04  0.12940325817E+04  0.47000000000E+01 0.  1.
          5   -1    0    0  501    0  0.00000000000E+00 -0.00000000000E+00 -0.88067352721E+02  0.88192678921E+02  0.47000000000E+01 0. -1.
          6    1    1    2  502    0  0.15984541753E+03  0.42228003833E+02  0.11382055503E+03  0.26433478878E+03  0.17200000000E+03 0. -1.
         -6    1    1    2    0  502 -0.15984541753E+03 -0.42228003833E+02  0.10921361386E+04  0.11178904719E+04  0.17200000000E+03 0.  1.
</event>
<event>
 4    1 -0.3305908E-004  0.2248159E+03  0.7818608E-02  0.1130343E+00
          5   -1    0    0  501    0  0.00000000000E+00  0.00000000000E+00  0.59244885022E+02  0.59431022213E+02  0.47000000000E+01 0. -1.
         -5   -1    0    0    0  501 -0.00000000000E+00 -0.00000000000E+00 -0.98683042039E+03  0.98684161273E+03  0.47000000000E+01 0.  1.
          6    1    1    2  502    0 -0.37169327318E+02  0.13991643666E+03 -0.27013862545E+03  0.35144991834E+03  0.17200000000E+03 0. -1.
         -6    1    1    2    0  502  0.37169327318E+02 -0.13991643666E+03 -0.65744690992E+03  0.69482271660E+03  0.17200000000E+03 0.  1.
</event>
<event>
 4    1 -0.3305908E-004  0.5344412E+03  0.7818608E-02  0.1005161E+00
          5   -1    0    0  501    0  0.00000000000E+00  0.00000000000E+00  0.14525481957E+04  0.14525557996E+04  0.47000000000E+01 0. -1.
         -5   -1    0    0    0  501 -0.00000000000E+00 -0.00000000000E+00 -0.20190243068E+03  0.20195712791E+03  0.47000000000E+01 0.  1.
          6    1    1    2  502    0 -0.15478109367E+03  0.48175321172E+03  0.75933143075E+03  0.92855348025E+03  0.17200000000E+03 0. -1.
         -6    1    1    2    0  502  0.15478109367E+03 -0.48175321172E+03  0.49131433429E+03  0.72595944724E+03  0.17200000000E+03 0.  1.
</event>
<event>
 4    1 -0.3305908E-004  0.1847676E+03  0.7818608E-02  0.1163267E+00
         -5   -1    0    0    0  501 -0.00000000000E+00  0.00000000000E+00  0.11355128962E+03  0.11364851682E+03  0.47000000000E+01 0.  1.
          5   -1    0    0  501    0  0.00000000000E+00 -0.00000000000E+00 -0.30810353604E+03  0.30813938230E+03  0.47000000000E+01 0. -1.
          6    1    1    2  502    0  0.65886865635E+02  0.14628111344E+02 -0.13060638658E+03  0.22626773725E+03  0.17200000000E+03 0. -1.
         -6    1    1    2    0  502 -0.65886865635E+02 -0.14628111344E+02 -0.63945859848E+02  0.19552016187E+03  0.17200000000E+03 0.  1.
</event>
<event>
 4    1 -0.3305908E-004  0.4741747E+03  0.7818608E-02  0.1020749E+00
         -5   -1    0    0    0  501 -0.00000000000E+00  0.00000000000E+00  0.65159218473E+03  0.65160913529E+03  0.47000000000E+01 0.  1.
          5   -1    0    0  501    0  0.00000000000E+00 -0.00000000000E+00 -0.69812577519E+03  0.69814159595E+03  0.47000000000E+01 0. -1.
          6    1    1    2  502    0 -0.33426806287E+03  0.28900255985E+03 -0.50321219098E+03  0.69142181525E+03  0.17200000000E+03 0. -1.
         -6    1    1    2    0  502  0.33426806287E+03 -0.28900255985E+03  0.45667860051E+03  0.65832891599E+03  0.17200000000E+03 0.  1.
</event>
<event>
 4    1 -0.3305908E-004  0.2882098E+03  0.7818608E-02  0.1091288E+00
         -5   -1    0    0    0  501 -0.00000000000E+00  0.00000000000E+00  0.17327368082E+03  0.17333741219E+03  0.47000000000E+01 0.  1.
          5   -1    0    0  501    0  0.00000000000E+00 -0.00000000000E+00 -0.60730372446E+03  0.60732191114E+03  0.47000000000E+01 0. -1.
          6    1    1    2  502    0  0.12324234134E+03  0.19568395302E+03 -0.39625789560E+03  0.48998490180E+03  0.17200000000E+03 0. -1.
         -6    1    1    2    0  502 -0.12324234134E+03 -0.19568395302E+03 -0.37772148041E+02  0.29067442153E+03  0.17200000000E+03 0.  1.
</event>
<event>
 4    1 -0.3305908E-004  0.1810760E+03  0.7818608E-02  0.1166766E+00
         -5   -1    0    0    0  501 -0.00000000000E+00  0.00000000000E+00  0.76949729464E+03  0.76951164804E+03  0.47000000000E+01 0.  1.
          5   -1    0    0  501    0  0.00000000000E+00 -0.00000000000E+00 -0.43494442348E+02  0.43747645824E+02  0.47000000000E+01 0. -1.
          6    1    1    2  502    0 -0.40580895117E+02 -0.39467908777E+02  0.30066489535E+03  0.35098134447E+03  0.17200000000E+03 0. -1.
         -6    1    1    2    0  502  0.40580895117E+02  0.39467908777E+02  0.42533795695E+03  0.46227794939E+03  0.17200000000E+03 0.  1.
</event>
<event>
 4    1 -0.3305908E-004  0.2122406E+03  0.7818608E-02  0.1139804E+00
         -5   -1    0    0    0  501 -0.00000000000E+00  0.00000000000E+00  0.19248640549E+03  0.19254377762E+03  0.47000000000E+01 0.  1.
          5   -1    0    0  501    0  0.00000000000E+00 -0.00000000000E+00 -0.32088304261E+03  0.32091746141E+03  0.47000000000E+01 0. -1.
          6    1    1    2  502    0  0.11959509778E+03  0.34045590423E+02 -0.19783919914E+03  0.29014899337E+03  0.17200000000E+03 0. -1.
         -6    1    1    2    0  502 -0.11959509778E+03 -0.34045590423E+02  0.69442562018E+02  0.22331224565E+03  0.17200000000E+03 0.  1.
</event>
<event>
 4    1 -0.3305908E-004  0.1893713E+03  0.7818608E-02  0.1159030E+00
          5   -1    0    0  501    0  0.00000000000E+00  0.00000000000E+00  0.76742035191E+03  0.76743474415E+03  0.47000000000E+01 0. -1.
         -5   -1    0    0    0  501 -0.00000000000E+00 -0.00000000000E+00 -0.46763312701E+02  0.46998908655E+02  0.47000000000E+01 0.  1.
          6    1    1    2  502    0 -0.24549981156E+02 -0.75331147606E+02  0.33609830259E+03  0.38577655758E+03  0.17200000000E+03 0. -1.
         -6    1    1    2    0  502  0.24549981156E+02  0.75331147606E+02  0.38455873662E+03  0.42865709523E+03  0.17200000000E+03 0.  1.
</event>
<event>
 4    1 -0.3305908E-004  0.2043801E+03  0.7818608E-02  0.1146095E+00
         -5   -1    0    0    0  501 -0.00000000000E+00  0.00000000000E+00  0.14149607466E+03  0.14157411184E+03  0.47000000000E+01 0.  1.
          5   -1    0    0  501    0  0.00000000000E+00 -0.00000000000E+00 -0.30232122998E+03  0.30235776176E+03  0.47000000000E+01 0. -1.
          6    1    1    2  502    0 -0.92349226081E+02  0.60488518338E+02 -0.11486943933E+03  0.23444877586E+03  0.17200000000E+03 0. -1.
         -6    1    1    2    0  502  0.92349226081E+02 -0.60488518338E+02 -0.45955715988E+02  0.20948309774E+03  0.17200000000E+03 0.  1.
</event>
<event>
 4    1 -0.3305908E-004  0.3295730E+03  0.7818608E-02  0.1071326E+00
          5   -1    0    0  501    0  0.00000000000E+00  0.00000000000E+00  0.19313089139E+03  0.19318807212E+03  0.47000000000E+01 0. -1.
         -5   -1    0    0    0  501 -0.00000000000E+00 -0.00000000000E+00 -0.58262328903E+03  0.58264224608E+03  0.47000000000E+01 0.  1.
          6    1    1    2  502    0  0.21510783593E+03  0.18100549236E+03 -0.12222555370E+03  0.35150740436E+03  0.17200000000E+03 0. -1.
         -6    1    1    2    0  502 -0.21510783593E+03 -0.18100549236E+03 -0.26726684394E+03  0.42432291384E+03  0.17200000000E+03 0.  1.
</event>
<event>
 4    1 -0.3305908E-004  0.1774640E+03  0.7818608E-02  0.1170280E+00
         -5   -1    0    0    0  501 -0.00000000000E+00  0.00000000000E+00  0.12779205060E+03  0.12787845087E+03  0.47000000000E+01 0.  1.
          5   -1    0    0  501    0  0.00000000000E+00 -0.00000000000E+00 -0.47179545540E+03  0.47181886539E+03  0.47000000000E+01 0. -1.
          6    1    1    2  502    0 -0.37027256611E+02  0.23204301476E+02 -0.37929532355E+03  0.41875816387E+03  0.17200000000E+03 0. -1.
         -6    1    1    2    0  502  0.37027256611E+02 -0.23204301476E+02  0.35291918752E+02  0.18093915239E+03  0.17200000000E+03 0.  1.
</event>
<event>
 4    1 -0.3305908E-004  0.1763050E+03  0.7818608E-02  0.1171428E+00
          5   -1    0    0  501    0  0.00000000000E+00  0.00000000000E+00  0.15848014794E+03  0.15854982590E+03  0.47000000000E+01 0. -1.
         -5   -1    0    0    0  501 -0.00000000000E+00 -0.00000000000E+00 -0.19661072579E+03  0.19666689477E+03  0.47000000000E+01 0.  1.
          6    1    1    2  502    0 -0.24226712268E+02  0.30207910182E+02 -0.91187828279E+01  0.17654065714E+03  0.17200000000E+03 0. -1.
         -6    1    1    2    0  502  0.24226712268E+02 -0.30207910182E+02 -0.29011795023E+02  0.17867606352E+03  0.17200000000E+03 0.  1.
</event>
<event>
 4    1 -0.3305908E-004  0.1763592E+03  0.7818608E-02  0.1171374E+00
          5   -1    0    0  501    0  0.00000000000E+00  0.00000000000E+00  0.88034313045E+02  0.88159686214E+02  0.47000000000E+01 0. -1.
         -5   -1    0    0    0  501 -0.00000000000E+00 -0.00000000000E+00 -0.35608208509E+03  0.35611310186E+03  0.47000000000E+01 0.  1.
          6    1    1    2  502    0 -0.94952870466E+01 -0.37794501353E+02 -0.15499104428E+03  0.23478673007E+03  0.17200000000E+03 0.  1.
         -6    1    1    2    0  502  0.94952870466E+01  0.37794501353E+02 -0.11305672776E+03  0.20948605801E+03  0.17200000000E+03 0.  1.
</event>
<event>
 4    1 -0.3305908E-004  0.2425598E+03  0.7818608E-02  0.1118099E+00
         -5   -1    0    0    0  501 -0.00000000000E+00  0.00000000000E+00  0.24128895734E+03  0.24133472800E+03  0.47000000000E+01 0.  1.
          5   -1    0    0  501    0  0.00000000000E+00 -0.00000000000E+00 -0.26423524219E+03  0.26427703876E+03  0.47000000000E+01 0. -1.
          6    1    1    2  502    0  0.14459513486E+03  0.91342833063E+02 -0.81858646453E+02  0.25600020347E+03  0.17200000000E+03 0. -1.
         -6    1    1    2    0  502 -0.14459513486E+03 -0.91342833063E+02  0.58912361605E+02  0.24961156329E+03  0.17200000000E+03 0.  1.
</event>
<event>
 4    1 -0.3305908E-004  0.2420484E+03  0.7818608E-02  0.1118436E+00
         -5   -1    0    0    0  501 -0.00000000000E+00  0.00000000000E+00  0.44433678672E+03  0.44436164329E+03  0.47000000000E+01 0.  1.
          5   -1    0    0  501    0  0.00000000000E+00 -0.00000000000E+00 -0.13846059923E+03  0.13854034625E+03  0.47000000000E+01 0. -1.
          6    1    1    2  502    0 -0.30457473214E+02 -0.16755819283E+03  0.21691748966E+03  0.32502400370E+03  0.17200000000E+03 0. -1.
         -6    1    1    2    0  502  0.30457473214E+02  0.16755819283E+03  0.88958697832E+02  0.25787798584E+03  0.17200000000E+03 0.  1.
</event>
<event>
 4    1 -0.3305908E-004  0.2019912E+03  0.7818608E-02  0.1148070E+00
          5   -1    0    0  501    0  0.00000000000E+00  0.00000000000E+00  0.87976589586E+03  0.87977845025E+03  0.47000000000E+01 0. -1.
         -5   -1    0    0    0  501 -0.00000000000E+00 -0.00000000000E+00 -0.57192085102E+02  0.57384881270E+02  0.47000000000E+01 0.  1.
          6    1    1    2  502    0  0.70102467156E+02 -0.79385751010E+02  0.61589008932E+03  0.64816745945E+03  0.17200000000E+03 0. -1.
         -6    1    1    2    0  502 -0.70102467156E+02  0.79385751010E+02  0.20668372143E+03  0.28899587207E+03  0.17200000000E+03 0.  1.
</event>
<event>
 4    1 -0.3305908E-004  0.1728167E+03  0.7818608E-02  0.1174942E+00
          5   -1    0    0  501    0  0.00000000000E+00  0.00000000000E+00  0.19860545837E+02  0.20409097994E+02  0.47000000000E+01 0. -1.
         -5   -1    0    0    0  501 -0.00000000000E+00 -0.00000000000E+00 -0.16900880920E+04  0.16900946271E+04  0.47000000000E+01 0.  1.
          6    1    1    2  502    0  0.89115436909E+01  0.14219156178E+02 -0.53559103340E+03  0.56278180059E+03  0.17200000000E+03 0. -1.
         -6    1    1    2    0  502 -0.89115436909E+01 -0.14219156178E+02 -0.11346365128E+04  0.11477219245E+04  0.17200000000E+03 0.  1.
</event>
<event>
 4    1 -0.3305908E-004  0.1870319E+03  0.7818608E-02  0.1161166E+00
          5   -1    0    0  501    0  0.00000000000E+00  0.00000000000E+00  0.35629440530E+03  0.35632540359E+03  0.47000000000E+01 0. -1.
         -5   -1    0    0    0  501 -0.00000000000E+00 -0.00000000000E+00 -0.15444557111E+03  0.15451706843E+03  0.47000000000E+01 0.  1.
          6    1    1    2  502    0  0.37714656921E+00 -0.73462725910E+02  0.25515535039E+03  0.31636239847E+03  0.17200000000E+03 0. -1.
         -6    1    1    2    0  502 -0.37714656921E+00  0.73462725910E+02 -0.53306516206E+02  0.19448007355E+03  0.17200000000E+03 0.  1.
</event>
<event>
 4    1 -0.3305908E-004  0.2312348E+03  0.7818608E-02  0.1125774E+00
          5   -1    0    0  501    0  0.00000000000E+00  0.00000000000E+00  0.66745896927E+02  0.66911170641E+02  0.47000000000E+01 0. -1.
         -5   -1    0    0    0  501 -0.00000000000E+00 -0.00000000000E+00 -0.29945233006E+04  0.29945269890E+04  0.47000000000E+01 0.  1.
          6    1    1    2  502    0  0.11586258894E+03  0.10228088471E+03 -0.15351172162E+03  0.27755245913E+03  0.17200000000E+03 0. -1.
         -6    1    1    2    0  502 -0.11586258894E+03 -0.10228088471E+03 -0.27742656821E+04  0.27838857005E+04  0.17200000000E+03 0.  1.
</event>
<event>
 4    1 -0.3305908E-004  0.1733298E+03  0.7818608E-02  0.1174419E+00
         -5   -1    0    0    0  501 -0.00000000000E+00  0.00000000000E+00  0.49357628009E+03  0.49359865707E+03  0.47000000000E+01 0.  1.
          5   -1    0    0  501    0  0.00000000000E+00 -0.00000000000E+00 -0.60855014280E+02  0.61036241390E+02  0.47000000000E+01 0. -1.
          6    1    1    2  502    0  0.89704446949E+01  0.19461073466E+02  0.22764667109E+03  0.28612271688E+03  0.17200000000E+03 0. -1.
         -6    1    1    2    0  502 -0.89704446949E+01 -0.19461073466E+02  0.20507459472E+03  0.26851218158E+03  0.17200000000E+03 0. -1.
</event>
<event>
 4    1 -0.3305908E-004  0.2068005E+03  0.7818608E-02  0.1144125E+00
          5   -1    0    0  501    0  0.00000000000E+00  0.00000000000E+00  0.86277617949E+02  0.86405540094E+02  0.47000000000E+01 0. -1.
         -5   -1    0    0    0  501 -0.00000000000E+00 -0.00000000000E+00 -0.62315103134E+03  0.62316875552E+03  0.47000000000E+01 0.  1.
          6    1    1    2  502    0 -0.11474043212E+03 -0.41342157490E+01 -0.10767636951E+03  0.23315372409E+03  0.17200000000E+03 0. -1.
         -6    1    1    2    0  502  0.11474043212E+03  0.41342157490E+01 -0.42919704388E+03  0.47642057153E+03  0.17200000000E+03 0.  1.
</event>
<event>
 4    1 -0.3305908E-004  0.1860957E+03  0.7818608E-02  0.1162031E+00
          5   -1    0    0  501    0  0.00000000000E+00  0.00000000000E+00  0.11720914666E+03  0.11730334207E+03  0.47000000000E+01 0. -1.
         -5   -1    0    0    0  501 -0.00000000000E+00 -0.00000000000E+00 -0.37454342472E+03  0.37457291280E+03  0.47000000000E+01 0.  1.
          6    1    1    2  502    0  0.24316953216E+02 -0.66755495497E+02 -0.15516971136E+02  0.18674149723E+03  0.17200000000E+03 0. -1.
         -6    1    1    2    0  502 -0.24316953216E+02  0.66755495497E+02 -0.24181730693E+03  0.30513475764E+03  0.17200000000E+03 0.  1.
</event>
<event>
 4    1 -0.3305908E-004  0.2026820E+03  0.7818608E-02  0.1147496E+00
         -5   -1    0    0    0  501 -0.00000000000E+00  0.00000000000E+00  0.74803988521E+02  0.74951495640E+02  0.47000000000E+01 0.  1.
          5   -1    0    0  501    0  0.00000000000E+00 -0.00000000000E+00 -0.85861510696E+03  0.85862797060E+03  0.47000000000E+01 0. -1.
          6    1    1    2  502    0 -0.90440959778E+02  0.57588462776E+02 -0.67242501591E+03  0.70230719794E+03  0.17200000000E+03 0. -1.
         -6    1    1    2    0  502  0.90440959778E+02 -0.57588462776E+02 -0.11138610253E+03  0.23127226830E+03  0.17200000000E+03 0.  1.
</event>
<event>
 4    1 -0.3305908E-004  0.3885767E+03  0.7818608E-02  0.1047809E+00
          5   -1    0    0  501    0  0.00000000000E+00  0.00000000000E+00  0.16223915808E+04  0.16223983887E+04  0.47000000000E+01 0. -1.
         -5   -1    0    0    0  501 -0.00000000000E+00 -0.00000000000E+00 -0.93695449069E+02  0.93813256932E+02  0.47000000000E+01 0.  1.
          6    1    1    2  502    0 -0.21003994731E+03  0.27801272798E+03  0.69052739193E+03  0.79235089158E+03  0.17200000000E+03 0. -1.
         -6    1    1    2    0  502  0.21003994731E+03 -0.27801272798E+03  0.83816873983E+03  0.92386075401E+03  0.17200000000E+03 0.  1.
</event>
<event>
 4    1 -0.3305908E-004  0.2066382E+03  0.7818608E-02  0.1144256E+00
         -5   -1    0    0    0  501 -0.00000000000E+00  0.00000000000E+00  0.91150573479E+02  0.91271666170E+02  0.47000000000E+01 0.  1.
          5   -1    0    0  501    0  0.00000000000E+00 -0.00000000000E+00 -0.73801362488E+03  0.73802859057E+03  0.47000000000E+01 0. -1.
          6    1    1    2  502    0 -0.56827542811E+02 -0.99428178094E+02 -0.57421422322E+03  0.61026330904E+03  0.17200000000E+03 0. -1.
         -6    1    1    2    0  502  0.56827542811E+02  0.99428178094E+02 -0.72648828179E+02  0.21903694770E+03  0.17200000000E+03 0.  1.
</event>
<event>
 4    1 -0.3305908E-004  0.1950800E+03  0.7818608E-02  0.1153958E+00
         -5   -1    0    0    0  501 -0.00000000000E+00  0.00000000000E+00  0.20133467429E+03  0.20138952572E+03  0.47000000000E+01 0.  1.
          5   -1    0    0  501    0  0.00000000000E+00 -0.00000000000E+00 -0.18890978904E+03  0.18896824705E+03  0.47000000000E+01 0. -1.
          6    1    1    2  502    0  0.67118132575E+02 -0.62986962949E+02  0.62574774778E+01  0.19518031982E+03  0.17200000000E+03 0. -1.
         -6    1    1    2    0  502 -0.67118132575E+02  0.62986962949E+02  0.61674077747E+01  0.19517745295E+03  0.17200000000E+03 0. -1.
</event>
<event>
 4    1 -0.3305908E-004  0.3838505E+03  0.7818608E-02  0.1049520E+00
         -5   -1    0    0    0  501 -0.00000000000E+00  0.00000000000E+00  0.11938020545E+04  0.11938113064E+04  0.47000000000E+01 0.  1.
          5   -1    0    0  501    0  0.00000000000E+00 -0.00000000000E+00 -0.16988619547E+03  0.16995119714E+03  0.47000000000E+01 0. -1.
          6    1    1    2  502    0 -0.27614472819E+03 -0.20371865278E+03  0.86868310016E+03  0.94971128713E+03  0.17200000000E+03 0.  1.
         -6    1    1    2    0  502  0.27614472819E+03  0.20371865278E+03  0.15523275887E+03  0.41405121643E+03  0.17200000000E+03 0. -1.
</event>
<event>
 4    1 -0.3305908E-004  0.1736038E+03  0.7818608E-02  0.1174141E+00
          5   -1    0    0  501    0  0.00000000000E+00  0.00000000000E+00  0.12833097905E+03  0.12841701672E+03  0.47000000000E+01 0. -1.
         -5   -1    0    0    0  501 -0.00000000000E+00 -0.00000000000E+00 -0.23518211828E+03  0.23522907720E+03  0.47000000000E+01 0.  1.
          6    1    1    2  502    0  0.10712963173E+02  0.20964569137E+02 -0.44859124502E+02  0.17930594466E+03  0.17200000000E+03 0.  1.
         -6    1    1    2    0  502 -0.10712963173E+02 -0.20964569137E+02 -0.61992014733E+02  0.18434014926E+03  0.17200000000E+03 0.  1.
</event>
<event>
 4    1 -0.3305908E-004  0.2311116E+03  0.7818608E-02  0.1125860E+00
          5   -1    0    0  501    0  0.00000000000E+00  0.00000000000E+00  0.35378544601E+02  0.35689374022E+02  0.47000000000E+01 0. -1.
         -5   -1    0    0    0  501 -0.00000000000E+00 -0.00000000000E+00 -0.16071532680E+04  0.16071601404E+04  0.47000000000E+01 0.  1.
          6    1    1    2  502    0 -0.49270789715E+02 -0.14629065612E+03 -0.57662400653E+03  0.62121478709E+03  0.17200000000E+03 0. -1.
         -6    1    1    2    0  502  0.49270789715E+02  0.14629065612E+03 -0.99515071685E+03  0.10216347273E+04  0.17200000000E+03 0.  1.
</event>
<event>
 4    1 -0.3305908E-004  0.2625615E+03  0.7818608E-02  0.1105614E+00
          5   -1    0    0  501    0  0.00000000000E+00  0.00000000000E+00  0.33012326375E+03  0.33015671926E+03  0.47000000000E+01 0. -1.
         -5   -1    0    0    0  501 -0.00000000000E+00 -0.00000000000E+00 -0.22274637237E+03  0.22279595239E+03  0.47000000000E+01 0.  1.
          6    1    1    2  502    0  0.38627645815E+02  0.19458278186E+03  0.12296421210E+03  0.28992887313E+03  0.17200000000E+03 0.  1.
         -6    1    1    2    0  502 -0.38627645815E+02 -0.19458278186E+03 -0.15587320712E+02  0.26302379852E+03  0.17200000000E+03 0. -1.
</event>
<event>
 4    1 -0.3305908E-004  0.5570352E+03  0.7818608E-02  0.9998786E-01
         -5   -1    0    0    0  501 -0.00000000000E+00  0.00000000000E+00  0.31703885771E+03  0.31707369380E+03  0.47000000000E+01 0.  1.
          5   -1    0    0  501    0  0.00000000000E+00 -0.00000000000E+00 -0.10828771397E+04  0.10828873393E+04  0.47000000000E+01 0. -1.
          6    1    1    2  502    0 -0.30377942880E+03 -0.43407633608E+03 -0.60011664823E+03  0.81879679921E+03  0.17200000000E+03 0. -1.
         -6    1    1    2    0  502  0.30377942880E+03  0.43407633608E+03 -0.16572163376E+03  0.58116423393E+03  0.17200000000E+03 0.  1.
</event>
<event>
 4    1 -0.3305908E-004  0.1862313E+03  0.7818608E-02  0.1161905E+00
          5   -1    0    0  501    0  0.00000000000E+00  0.00000000000E+00  0.35762567766E+03  0.35765656058E+03  0.47000000000E+01 0. -1.
         -5   -1    0    0    0  501 -0.00000000000E+00 -0.00000000000E+00 -0.11194523097E+03  0.11204385185E+03  0.47000000000E+01 0.  1.
          6    1    1    2  502    0  0.70865676286E+02 -0.87274857369E+01  0.20892224730E+03  0.27987607704E+03  0.17200000000E+03 0. -1.
         -6    1    1    2    0  502 -0.70865676286E+02  0.87274857369E+01  0.36758199394E+02  0.18982433539E+03  0.17200000000E+03 0.  1.
</event>
<event>
 4    1 -0.3305908E-004  0.3622717E+03  0.7818608E-02  0.1057688E+00
          5   -1    0    0  501    0  0.00000000000E+00  0.00000000000E+00  0.22367140474E+04  0.22367189855E+04  0.47000000000E+01 0. -1.
         -5   -1    0    0    0  501 -0.00000000000E+00 -0.00000000000E+00 -0.67597882495E+02  0.67761078192E+02  0.47000000000E+01 0.  1.
          6    1    1    2  502    0 -0.28283007113E+03 -0.14718669754E+03  0.15049279356E+04  0.15479175897E+04  0.17200000000E+03 0. -1.
         -6    1    1    2    0  502  0.28283007113E+03  0.14718669754E+03  0.66418822935E+03  0.75656247400E+03  0.17200000000E+03 0.  1.
</event>
<event>
 4    1 -0.3305908E-004  0.1722546E+03  0.7818608E-02  0.1175517E+00
         -5   -1    0    0    0  501 -0.00000000000E+00  0.00000000000E+00  0.43521112500E+03  0.43523650275E+03  0.47000000000E+01 0.  1.
          5   -1    0    0  501    0  0.00000000000E+00 -0.00000000000E+00 -0.14768587608E+03  0.14776064427E+03  0.47000000000E+01 0. -1.
          6    1    1    2  502    0  0.28172530329E+01 -0.89275072402E+01 -0.70160487507E+02  0.18599497657E+03  0.17200000000E+03 0. -1.
         -6    1    1    2    0  502 -0.28172530329E+01  0.89275072402E+01  0.35768573642E+03  0.39700217045E+03  0.17200000000E+03 0.  1.
</event>
<event>
 4    1 -0.3305908E-004  0.3526068E+03  0.7818608E-02  0.1061550E+00
         -5   -1    0    0    0  501 -0.00000000000E+00  0.00000000000E+00  0.10852567111E+04  0.10852668884E+04  0.47000000000E+01 0.  1.
          5   -1    0    0  501    0  0.00000000000E+00 -0.00000000000E+00 -0.11907987197E+03  0.11917258875E+03  0.47000000000E+01 0. -1.
          6    1    1    2  502    0  0.24799141887E+03 -0.18233975359E+03  0.60107235050E+03  0.69686404708E+03  0.17200000000E+03 0. -1.
         -6    1    1    2    0  502 -0.24799141887E+03  0.18233975359E+03  0.36510448865E+03  0.50757543007E+03  0.17200000000E+03 0.  1.
</event>
<event>
 4    1 -0.3305908E-004  0.2004715E+03  0.7818608E-02  0.1149342E+00
         -5   -1    0    0    0  501 -0.00000000000E+00  0.00000000000E+00  0.15723459866E+04  0.15723530112E+04  0.47000000000E+01 0.  1.
          5   -1    0    0  501    0  0.00000000000E+00 -0.00000000000E+00 -0.30862109222E+02  0.31217940125E+02  0.47000000000E+01 0. -1.
          6    1    1    2  502    0 -0.66836451233E+02 -0.78343582833E+02  0.43366568659E+03  0.47776014475E+03  0.17200000000E+03 0. -1.
         -6    1    1    2    0  502  0.66836451233E+02  0.78343582833E+02  0.11078181908E+04  0.11258108065E+04  0.17200000000E+03 0.  1.
</event>
<event>
 4    1 -0.3305908E-004  0.1796526E+03  0.7818608E-02  0.1168140E+00
         -5   -1    0    0    0  501 -0.00000000000E+00  0.00000000000E+00  0.80585865884E+02  0.80722808303E+02  0.47000000000E+01 0.  1.
          5   -1    0    0  501    0  0.00000000000E+00 -0.00000000000E+00 -0.53156702054E+03  0.53158779832E+03  0.47000000000E+01 0. -1.
          6    1    1    2  502    0  0.13966991663E+01  0.51856566916E+02 -0.37777193053E+03  0.41831409944E+03  0.17200000000E+03 0. -1.
         -6    1    1    2    0  502 -0.13966991663E+01 -0.51856566916E+02 -0.73209224130E+02  0.19399650718E+03  0.17200000000E+03 0.  1.
</event>
<event>
 4    1 -0.3305908E-004  0.1833201E+03  0.7818608E-02  0.1164628E+00
         -5   -1    0    0    0  501 -0.00000000000E+00  0.00000000000E+00  0.11661950332E+04  0.11662045042E+04  0.47000000000E+01 0.  1.
          5   -1    0    0  501    0  0.00000000000E+00 -0.00000000000E+00 -0.60027551903E+02  0.60211269606E+02  0.47000000000E+01 0. -1.
          6    1    1    2  502    0 -0.34279803222E+02 -0.53358892817E+02  0.11057550043E+03  0.21408693946E+03  0.17200000000E+03 0. -1.
         -6    1    1    2    0  502  0.34279803222E+02  0.53358892817E+02  0.99559198090E+03  0.10123288343E+04  0.17200000000E+03 0.  1.
</event>
<event>
 4    1 -0.3305908E-004  0.3180704E+03  0.7818608E-02  0.1076541E+00
          5   -1    0    0  501    0  0.00000000000E+00  0.00000000000E+00  0.18276091102E+03  0.18282133518E+03  0.47000000000E+01 0. -1.
         -5   -1    0    0    0  501 -0.00000000000E+00 -0.00000000000E+00 -0.59484906347E+03  0.59486763092E+03  0.47000000000E+01 0.  1.
          6    1    1    2  502    0  0.62153943802E+02  0.26023390571E+03 -0.10340321957E+03  0.33445631139E+03  0.17200000000E+03 0. -1.
         -6    1    1    2    0  502 -0.62153943802E+02 -0.26023390571E+03 -0.30868493288E+03  0.44323265471E+03  0.17200000000E+03 0.  1.
</event>
<event>
 4    1 -0.3305908E-004  0.1747572E+03  0.7818608E-02  0.1172976E+00
         -5   -1    0    0    0  501 -0.00000000000E+00  0.00000000000E+00  0.33629734331E+02  0.33956575669E+02  0.47000000000E+01 0.  1.
          5   -1    0    0  501    0  0.00000000000E+00 -0.00000000000E+00 -0.10589537925E+04  0.10589642225E+04  0.47000000000E+01 0. -1.
          6    1    1    2  502    0  0.29487528411E+02 -0.93042004436E+01 -0.72206713999E+03  0.74291388272E+03  0.17200000000E+03 0. -1.
         -6    1    1    2    0  502 -0.29487528411E+02  0.93042004436E+01 -0.30325691815E+03  0.35000691548E+03  0.17200000000E+03 0.  1.
</event>
<event>
 4    1 -0.3305908E-004  0.2429242E+03  0.7818608E-02  0.1117860E+00
          5   -1    0    0  501    0  0.00000000000E+00  0.00000000000E+00  0.47390591394E+03  0.47392921968E+03  0.47000000000E+01 0. -1.
         -5   -1    0    0    0  501 -0.00000000000E+00 -0.00000000000E+00 -0.12457566989E+03  0.12466429933E+03  0.47000000000E+01 0.  1.
          6    1    1    2  502    0 -0.15798467478E+03 -0.66850732103E+02  0.18408127720E+03  0.30479188714E+03  0.17200000000E+03 0.  1.
         -6    1    1    2    0  502  0.15798467478E+03  0.66850732103E+02  0.16524896685E+03  0.29380163188E+03  0.17200000000E+03 0. -1.
</event>
<event>
 4    1 -0.3305908E-004  0.2543441E+03  0.7818608E-02  0.1110590E+00
          5   -1    0    0  501    0  0.00000000000E+00  0.00000000000E+00  0.82005330058E+03  0.82006676911E+03  0.47000000000E+01 0. -1.
         -5   -1    0    0    0  501 -0.00000000000E+00 -0.00000000000E+00 -0.89986621777E+02  0.90109278650E+02  0.47000000000E+01 0.  1.
          6    1    1    2  502    0 -0.11857814729E+03 -0.14507285656E+03  0.52534536607E+03  0.58367684927E+03  0.17200000000E+03 0. -1.
         -6    1    1    2    0  502  0.11857814729E+03  0.14507285656E+03  0.20472131274E+03  0.32649919849E+03  0.17200000000E+03 0.  1.
</event>
<event>
 4    1 -0.3305908E-004  0.2181885E+03  0.7818608E-02  0.1135241E+00
         -5   -1    0    0    0  501 -0.00000000000E+00  0.00000000000E+00  0.34510557984E+03  0.34513758306E+03  0.47000000000E+01 0.  1.
          5   -1    0    0  501    0  0.00000000000E+00 -0.00000000000E+00 -0.14015384915E+03  0.14023263327E+03  0.47000000000E+01 0. -1.
          6    1    1    2  502    0 -0.10621916404E+03 -0.82095859091E+02  0.71498125409E+02  0.22960449217E+03  0.17200000000E+03 0.  1.
         -6    1    1    2    0  502  0.10621916404E+03  0.82095859091E+02  0.13345360528E+03  0.25576572415E+03  0.17200000000E+03 0.  1.
</event>
<event>
 4    1 -0.3305908E-004  0.1978140E+03  0.7818608E-02  0.1151597E+00
         -5   -1    0    0    0  501 -0.00000000000E+00  0.00000000000E+00  0.23690870522E+03  0.23695532197E+03  0.47000000000E+01 0.  1.
          5   -1    0    0  501    0  0.00000000000E+00 -0.00000000000E+00 -0.16516820345E+03  0.16523506114E+03  0.47000000000E+01 0. -1.
          6    1    1    2  502    0 -0.96976177237E+02 -0.11916815896E+02  0.31080505613E+02  0.20024082321E+03  0.17200000000E+03 0. -1.
         -6    1    1    2    0  502  0.96976177237E+02  0.11916815896E+02  0.40659996159E+02  0.20194955989E+03  0.17200000000E+03 0. -1.
</event>
<event>
 4    1 -0.3305908E-004  0.2733119E+03  0.7818608E-02  0.1099399E+00
         -5   -1    0    0    0  501 -0.00000000000E+00  0.00000000000E+00  0.99057967788E+03  0.99059082785E+03  0.47000000000E+01 0.  1.
          5   -1    0    0  501    0  0.00000000000E+00 -0.00000000000E+00 -0.18174993359E+03  0.18181069375E+03  0.47000000000E+01 0. -1.
          6    1    1    2  502    0  0.17299532452E+03 -0.12323965317E+03 -0.44014378133E+02  0.27683327095E+03  0.17200000000E+03 0. -1.
         -6    1    1    2    0  502 -0.17299532452E+03  0.12323965317E+03  0.85284412242E+03  0.89556825065E+03  0.17200000000E+03 0.  1.
</event>
<event>
 4    1 -0.3305908E-004  0.3416130E+03  0.7818608E-02  0.1066111E+00
          5   -1    0    0  501    0  0.00000000000E+00  0.00000000000E+00  0.75398241661E+02  0.75544588460E+02  0.47000000000E+01 0. -1.
         -5   -1    0    0    0  501 -0.00000000000E+00 -0.00000000000E+00 -0.16246411911E+04  0.16246479895E+04  0.47000000000E+01 0.  1.
          6    1    1    2  502    0  0.27638345909E+03  0.10357426460E+03 -0.58774587350E+03  0.67981222154E+03  0.17200000000E+03 0. -1.
         -6    1    1    2    0  502 -0.27638345909E+03 -0.10357426460E+03 -0.96149707596E+03  0.10203803564E+04  0.17200000000E+03 0.  1.
</event>
<event>
 4    1 -0.3305908E-004  0.2074055E+03  0.7818608E-02  0.1143637E+00
          5   -1    0    0  501    0  0.00000000000E+00  0.00000000000E+00  0.70103465441E+03  0.70105040951E+03  0.47000000000E+01 0. -1.
         -5   -1    0    0    0  501 -0.00000000000E+00 -0.00000000000E+00 -0.73350231234E+02  0.73500655929E+02  0.47000000000E+01 0.  1.
          6    1    1    2  502    0 -0.10619250686E+03 -0.46434850646E+02  0.47090657813E+03  0.51455811061E+03  0.17200000000E+03 0. -1.
         -6    1    1    2    0  502  0.10619250686E+03  0.46434850646E+02  0.15677784504E+03  0.25999295483E+03  0.17200000000E+03 0. -1.
</event>
<event>
 4    1 -0.3305908E-004  0.1893730E+03  0.7818608E-02  0.1159028E+00
         -5   -1    0    0    0  501 -0.00000000000E+00  0.00000000000E+00  0.22644747422E+03  0.22649624407E+03  0.47000000000E+01 0.  1.
          5   -1    0    0  501    0  0.00000000000E+00 -0.00000000000E+00 -0.21801791774E+03  0.21806857283E+03  0.47000000000E+01 0. -1.
          6    1    1    2  502    0  0.27093815432E+02 -0.74458556388E+02 -0.11212274526E+03  0.22007649002E+03  0.17200000000E+03 0. -1.
         -6    1    1    2    0  502 -0.27093815432E+02  0.74458556388E+02  0.12055230174E+03  0.22448832689E+03  0.17200000000E+03 0.  1.
</event>
<event>
 4    1 -0.3305908E-004  0.4284367E+03  0.7818608E-02  0.1034355E+00
         -5   -1    0    0    0  501 -0.00000000000E+00  0.00000000000E+00  0.74878543045E+03  0.74880018086E+03  0.47000000000E+01 0.  1.
          5   -1    0    0  501    0  0.00000000000E+00 -0.00000000000E+00 -0.40657863455E+03  0.40660579936E+03  0.47000000000E+01 0. -1.
          6    1    1    2  502    0  0.38116885499E+03  0.93189657205E+02 -0.19294653527E+03  0.46987910540E+03  0.17200000000E+03 0. -1.
         -6    1    1    2    0  502 -0.38116885499E+03 -0.93189657205E+02  0.53515333118E+03  0.68552687481E+03  0.17200000000E+03 0.  1.
</event>
<event>
 4    1 -0.3305908E-004  0.1856668E+03  0.7818608E-02  0.1162429E+00
          5   -1    0    0  501    0  0.00000000000E+00  0.00000000000E+00  0.62410514407E+03  0.62412284116E+03  0.47000000000E+01 0. -1.
         -5   -1    0    0    0  501 -0.00000000000E+00 -0.00000000000E+00 -0.63854449028E+02  0.64027186888E+02  0.47000000000E+01 0.  1.
          6    1    1    2  502    0 -0.17826990138E+01  0.69892733097E+02  0.15304446794E+03  0.24061334403E+03  0.17200000000E+03 0. -1.
         -6    1    1    2    0  502  0.17826990138E+01 -0.69892733097E+02  0.40720622710E+03  0.44753668402E+03  0.17200000000E+03 0. -1.
</event>
<event>
 4    1 -0.3305908E-004  0.1949505E+03  0.7818608E-02  0.1154071E+00
         -5   -1    0    0    0  501 -0.00000000000E+00  0.00000000000E+00  0.23236558104E+03  0.23241310903E+03  0.47000000000E+01 0.  1.
          5   -1    0    0  501    0  0.00000000000E+00 -0.00000000000E+00 -0.29190622315E+03  0.29194405819E+03  0.47000000000E+01 0. -1.
          6    1    1    2  502    0 -0.38389901717E+02 -0.83354119258E+02 -0.20365386482E+03  0.28192302213E+03  0.17200000000E+03 0. -1.
         -6    1    1    2    0  502  0.38389901717E+02  0.83354119258E+02  0.14411322270E+03  0.24243414510E+03  0.17200000000E+03 0.  1.
</event>
<event>
 4    1 -0.3305908E-004  0.2273496E+03  0.7818608E-02  0.1128519E+00
          5   -1    0    0  501    0  0.00000000000E+00  0.00000000000E+00  0.22234130617E+03  0.22239097651E+03  0.47000000000E+01 0. -1.
         -5   -1    0    0    0  501 -0.00000000000E+00 -0.00000000000E+00 -0.37162950779E+03  0.37165922706E+03  0.47000000000E+01 0.  1.
          6    1    1    2  502    0  0.37012975620E+02 -0.14399262764E+03  0.10715715700E+03  0.25133740962E+03  0.17200000000E+03 0.  1.
         -6    1    1    2    0  502 -0.37012975620E+02  0.14399262764E+03 -0.25644535861E+03  0.34271279394E+03  0.17200000000E+03 0. -1.
</event>
<event>
 4    1 -0.3305908E-004  0.1771938E+03  0.7818608E-02  0.1170547E+00
          5   -1    0    0  501    0  0.00000000000E+00  0.00000000000E+00  0.77250661985E+02  0.77393506039E+02  0.47000000000E+01 0. -1.
         -5   -1    0    0    0  501 -0.00000000000E+00 -0.00000000000E+00 -0.40816864458E+03  0.40819570358E+03  0.47000000000E+01 0.  1.
          6    1    1    2  502    0  0.16965496710E+02 -0.39061633694E+02 -0.14738796134E+03  0.23047960963E+03  0.17200000000E+03 0. -1.
         -6    1    1    2    0  502 -0.16965496710E+02  0.39061633694E+02 -0.18353002126E+03  0.25510959999E+03  0.17200000000E+03 0.  1.
</event>
<event>
 4    1 -0.3305908E-004  0.2057071E+03  0.7818608E-02  0.1145011E+00
         -5   -1    0    0    0  501 -0.00000000000E+00  0.00000000000E+00  0.86497558795E+02  0.86625156147E+02  0.47000000000E+01 0.  1.
          5   -1    0    0  501    0  0.00000000000E+00 -0.00000000000E+00 -0.71556319123E+03  0.71557862645E+03  0.47000000000E+01 0. -1.
          6    1    1    2  502    0  0.10245654638E+03 -0.47265722472E+02 -0.54035106049E+03  0.57818220397E+03  0.17200000000E+03 0. -1.
         -6    1    1    2    0  502 -0.10245654638E+03  0.47265722472E+02 -0.88714571945E+02  0.22402157863E+03  0.17200000000E+03 0.  1.
</event>
<event>
 4    1 -0.3305908E-004  0.2053586E+03  0.7818608E-02  0.1145295E+00
         -5   -1    0    0    0  501 -0.00000000000E+00  0.00000000000E+00  0.37008666819E+03  0.37011651135E+03  0.47000000000E+01 0.  1.
          5   -1    0    0  501    0  0.00000000000E+00 -0.00000000000E+00 -0.12064148381E+03  0.12073300135E+03  0.47000000000E+01 0. -1.
          6    1    1    2  502    0  0.48571235028E+02 -0.10113850618E+03  0.66604130418E+02  0.21588949139E+03  0.17200000000E+03 0. -1.
         -6    1    1    2    0  502 -0.48571235028E+02  0.10113850618E+03  0.18284105396E+03  0.27496002131E+03  0.17200000000E+03 0.  1.
</event>
<event>
 4    1 -0.3305908E-004  0.1850266E+03  0.7818608E-02  0.1163025E+00
          5   -1    0    0  501    0  0.00000000000E+00  0.00000000000E+00  0.64622894979E+02  0.64793584216E+02  0.47000000000E+01 0. -1.
         -5   -1    0    0    0  501 -0.00000000000E+00 -0.00000000000E+00 -0.53899071006E+03  0.53901120167E+03  0.47000000000E+01 0.  1.
          6    1    1    2  502    0  0.51788145263E+01  0.68000270320E+02 -0.19584971591E+03  0.26942896672E+03  0.17200000000E+03 0. -1.
         -6    1    1    2    0  502 -0.51788145263E+01 -0.68000270320E+02 -0.27851809916E+03  0.33437581917E+03  0.17200000000E+03 0.  1.
</event>
<event>
 4    1 -0.3305908E-004  0.2700716E+03  0.7818608E-02  0.1101239E+00
         -5   -1    0    0    0  501 -0.00000000000E+00  0.00000000000E+00  0.51793607918E+03  0.51795740376E+03  0.47000000000E+01 0.  1.
          5   -1    0    0  501    0  0.00000000000E+00 -0.00000000000E+00 -0.14122519174E+03  0.14130337853E+03  0.47000000000E+01 0. -1.
          6    1    1    2  502    0 -0.53089201822E+02 -0.20133611376E+03  0.16948879839E+03  0.31884972453E+03  0.17200000000E+03 0.  1.
         -6    1    1    2    0  502  0.53089201822E+02  0.20133611376E+03  0.20722208904E+03  0.34041105775E+03  0.17200000000E+03 0.  1.
</event>
<event>
 4    1 -0.3305908E-004  0.1848072E+03  0.7818608E-02  0.1163230E+00
         -5   -1    0    0    0  501 -0.00000000000E+00  0.00000000000E+00  0.23787330771E+03  0.23791973546E+03  0.47000000000E+01 0.  1.
          5   -1    0    0  501    0  0.00000000000E+00 -0.00000000000E+00 -0.14673817474E+03  0.14681342557E+03  0.47000000000E+01 0. -1.
          6    1    1    2  502    0 -0.61425070298E+02 -0.28225519614E+02  0.16917305711E+02  0.18557994086E+03  0.17200000000E+03 0. -1.
         -6    1    1    2    0  502  0.61425070298E+02  0.28225519614E+02  0.74217827257E+02  0.19915322016E+03  0.17200000000E+03 0.  1.
</event>
<event>
 4    1 -0.3305908E-004  0.2448454E+03  0.7818608E-02  0.1116606E+00
         -5   -1    0    0    0  501 -0.00000000000E+00  0.00000000000E+00  0.51532574544E+02  0.51746461126E+02  0.47000000000E+01 0.  1.
          5   -1    0    0  501    0  0.00000000000E+00 -0.00000000000E+00 -0.11892980466E+04  0.11893073336E+04  0.47000000000E+01 0. -1.
          6    1    1    2  502    0 -0.13788938786E+03  0.10654476904E+03 -0.47266748465E+03  0.53231928590E+03  0.17200000000E+03 0. -1.
         -6    1    1    2    0  502  0.13788938786E+03 -0.10654476904E+03 -0.66509798744E+03  0.70873450881E+03  0.17200000000E+03 0. -1.
</event>
<event>
 4    1 -0.3305908E-004  0.3291133E+03  0.7818608E-02  0.1071530E+00
         -5   -1    0    0    0  501 -0.00000000000E+00  0.00000000000E+00  0.26800087845E+03  0.26804208783E+03  0.47000000000E+01 0.  1.
          5   -1    0    0  501    0  0.00000000000E+00 -0.00000000000E+00 -0.46996747372E+03  0.46999097476E+03  0.47000000000E+01 0. -1.
          6    1    1    2  502    0 -0.26964537551E+03  0.77607473219E+02 -0.23914838403E+03  0.40682612750E+03  0.17200000000E+03 0. -1.
         -6    1    1    2    0  502  0.26964537551E+03 -0.77607473219E+02  0.37181788756E+02  0.33120693509E+03  0.17200000000E+03 0.  1.
</event>
<event>
 4    1 -0.3305908E-004  0.1815328E+03  0.7818608E-02  0.1166328E+00
          5   -1    0    0  501    0  0.00000000000E+00  0.00000000000E+00  0.36284966741E+02  0.36588096581E+02  0.47000000000E+01 0. -1.
         -5   -1    0    0    0  501 -0.00000000000E+00 -0.00000000000E+00 -0.99225352672E+03  0.99226465789E+03  0.47000000000E+01 0.  1.
          6    1    1    2  502    0  0.20285940886E+02  0.54393367511E+02 -0.32469179466E+03  0.37199317110E+03  0.17200000000E+03 0. -1.
         -6    1    1    2    0  502 -0.20285940886E+02 -0.54393367511E+02 -0.63127676532E+03  0.65685958337E+03  0.17200000000E+03 0.  1.
</event>
<event>
 4    1 -0.3305908E-004  0.5252342E+03  0.7818608E-02  0.1007395E+00
         -5   -1    0    0    0  501 -0.00000000000E+00  0.00000000000E+00  0.11680383272E+04  0.11680477832E+04  0.47000000000E+01 0.  1.
          5   -1    0    0  501    0  0.00000000000E+00 -0.00000000000E+00 -0.24653764764E+03  0.24658244403E+03  0.47000000000E+01 0. -1.
          6    1    1    2  502    0 -0.36620816213E+03 -0.33493060729E+03  0.31557411150E+03  0.61274623586E+03  0.17200000000E+03 0. -1.
         -6    1    1    2    0  502  0.36620816213E+03  0.33493060729E+03  0.60592656806E+03  0.80188399135E+03  0.17200000000E+03 0.  1.
</event>
<event>
 4    1 -0.3305908E-004  0.1980721E+03  0.7818608E-02  0.1151376E+00
          5   -1    0    0  501    0  0.00000000000E+00  0.00000000000E+00  0.31022477084E+03  0.31026037201E+03  0.47000000000E+01 0. -1.
         -5   -1    0    0    0  501 -0.00000000000E+00 -0.00000000000E+00 -0.15810753430E+03  0.15817737640E+03  0.47000000000E+01 0.  1.
          6    1    1    2  502    0 -0.96855457405E+02 -0.16357915875E+02  0.18094469338E+03  0.26827885326E+03  0.17200000000E+03 0. -1.
         -6    1    1    2    0  502  0.96855457405E+02  0.16357915875E+02 -0.28827456850E+02  0.20015889515E+03  0.17200000000E+03 0.  1.
</event>
<event>
 4    1 -0.3305908E-004  0.1730538E+03  0.7818608E-02  0.1174700E+00
         -5   -1    0    0    0  501 -0.00000000000E+00  0.00000000000E+00  0.10859577502E+04  0.10859679209E+04  0.47000000000E+01 0.  1.
          5   -1    0    0  501    0  0.00000000000E+00 -0.00000000000E+00 -0.27475914368E+02  0.27875004401E+02  0.47000000000E+01 0. -1.
          6    1    1    2  502    0 -0.92699980829E+01  0.16664286566E+02  0.56412125792E+03  0.59006815280E+03  0.17200000000E+03 0.  1.
         -6    1    1    2    0  502  0.92699980829E+01 -0.16664286566E+02  0.49436057788E+03  0.52377477246E+03  0.17200000000E+03 0. -1.
</event>
<event>
 4    1 -0.3305908E-004  0.4135129E+03  0.7818608E-02  0.1039199E+00
          5   -1    0    0  501    0  0.00000000000E+00  0.00000000000E+00  0.28431301433E+03  0.28435185971E+03  0.47000000000E+01 0. -1.
         -5   -1    0    0    0  501 -0.00000000000E+00 -0.00000000000E+00 -0.67412643884E+03  0.67414282281E+03  0.47000000000E+01 0.  1.
          6    1    1    2  502    0 -0.35403391041E+03  0.12676324238E+03 -0.37432772350E+02  0.41520373527E+03  0.17200000000E+03 0. -1.
         -6    1    1    2    0  502  0.35403391041E+03 -0.12676324238E+03 -0.35238065216E+03  0.54329094724E+03  0.17200000000E+03 0.  1.
</event>
<event>
 4    1 -0.3305908E-004  0.2156103E+03  0.7818608E-02  0.1137199E+00
         -5   -1    0    0    0  501 -0.00000000000E+00  0.00000000000E+00  0.56256412123E+03  0.56258375421E+03  0.47000000000E+01 0.  1.
          5   -1    0    0  501    0  0.00000000000E+00 -0.00000000000E+00 -0.14550989211E+03  0.14558577781E+03  0.47000000000E+01 0. -1.
          6    1    1    2  502    0 -0.11811155198E+03  0.54345574535E+02 -0.24290391730E+02  0.21697419965E+03  0.17200000000E+03 0. -1.
         -6    1    1    2    0  502  0.11811155198E+03 -0.54345574535E+02  0.44134462085E+03  0.49119533237E+03  0.17200000000E+03 0.  1.
</event>
<event>
 4    1 -0.3305908E-004  0.2069159E+03  0.7818608E-02  0.1144032E+00
          5   -1    0    0  501    0  0.00000000000E+00  0.00000000000E+00  0.10679578498E+03  0.10689915663E+03  0.47000000000E+01 0. -1.
         -5   -1    0    0    0  501 -0.00000000000E+00 -0.00000000000E+00 -0.42247565942E+03  0.42250180213E+03  0.47000000000E+01 0.  1.
          6    1    1    2  502    0  0.10469041844E+03 -0.47645515314E+02 -0.97597719715E+02  0.22877826325E+03  0.17200000000E+03 0. -1.
         -6    1    1    2    0  502 -0.10469041844E+03  0.47645515314E+02 -0.21808215473E+03  0.30062269551E+03  0.17200000000E+03 0.  1.
</event>
<event>
 4    1 -0.3305908E-004  0.2921879E+03  0.7818608E-02  0.1089212E+00
          5   -1    0    0  501    0  0.00000000000E+00  0.00000000000E+00  0.79174914157E+03  0.79176309157E+03  0.47000000000E+01 0. -1.
         -5   -1    0    0    0  501 -0.00000000000E+00 -0.00000000000E+00 -0.10817819718E+03  0.10828024910E+03  0.47000000000E+01 0.  1.
          6    1    1    2  502    0  0.17271089815E+03 -0.16112330738E+03  0.31392731274E+03  0.42886376882E+03  0.17200000000E+03 0. -1.
         -6    1    1    2    0  502 -0.17271089815E+03  0.16112330738E+03  0.36964363165E+03  0.47117957186E+03  0.17200000000E+03 0.  1.
</event>
<event>
 4    1 -0.3305908E-004  0.3095730E+03  0.7818608E-02  0.1080551E+00
         -5   -1    0    0    0  501 -0.00000000000E+00  0.00000000000E+00  0.21306430182E+03  0.21311613433E+03  0.47000000000E+01 0.  1.
          5   -1    0    0  501    0  0.00000000000E+00 -0.00000000000E+00 -0.45764863619E+03  0.45767276979E+03  0.47000000000E+01 0. -1.
          6    1    1    2  502    0 -0.25529319284E+03  0.32815419271E+02 -0.16655335366E+03  0.35153305060E+03  0.17200000000E+03 0. -1.
         -6    1    1    2    0  502  0.25529319284E+03 -0.32815419271E+02 -0.78030980711E+02  0.31925585351E+03  0.17200000000E+03 0.  1.
</event>
<event>
 4    1 -0.3305908E-004  0.2306348E+03  0.7818608E-02  0.1126194E+00
          5   -1    0    0  501    0  0.00000000000E+00  0.00000000000E+00  0.18354014886E+03  0.18360031657E+03  0.47000000000E+01 0. -1.
         -5   -1    0    0    0  501 -0.00000000000E+00 -0.00000000000E+00 -0.46491574864E+03  0.46493950502E+03  0.47000000000E+01 0.  1.
          6    1    1    2  502    0 -0.77879662113E+02 -0.13245058893E+03  0.58370375264E+02  0.23790649631E+03  0.17200000000E+03 0. -1.
         -6    1    1    2    0  502  0.77879662113E+02  0.13245058893E+03 -0.33974597504E+03  0.41063332528E+03  0.17200000000E+03 0.  1.
</event>
<event>
 4    1 -0.3305908E-004  0.1738529E+03  0.7818608E-02  0.1173888E+00
          5   -1    0    0  501    0  0.00000000000E+00  0.00000000000E+00  0.70148415205E+03  0.70149989706E+03  0.47000000000E+01 0. -1.
         -5   -1    0    0    0  501 -0.00000000000E+00 -0.00000000000E+00 -0.58909339668E+02  0.59096533740E+02  0.47000000000E+01 0.  1.
          6    1    1    2  502    0  0.21390230809E+02  0.13538088735E+02  0.51887853802E+03  0.54722916501E+03  0.17200000000E+03 0. -1.
         -6    1    1    2    0  502 -0.21390230809E+02 -0.13538088735E+02  0.12369627436E+03  0.21336726579E+03  0.17200000000E+03 0.  1.
</event>
<event>
 4    1 -0.3305908E-004  0.3583594E+03  0.7818608E-02  0.1059235E+00
         -5   -1    0    0    0  501 -0.00000000000E+00  0.00000000000E+00  0.12950335419E+03  0.12958861349E+03  0.47000000000E+01 0.  1.
          5   -1    0    0  501    0  0.00000000000E+00 -0.00000000000E+00 -0.10805246033E+04  0.10805348251E+04  0.47000000000E+01 0. -1.
          6    1    1    2  502    0  0.10053175737E+03  0.29787718783E+03 -0.64944244302E+03  0.74175261380E+03  0.17200000000E+03 0. -1.
         -6    1    1    2    0  502 -0.10053175737E+03 -0.29787718783E+03 -0.30157880610E+03  0.46837082484E+03  0.17200000000E+03 0.  1.
</event>
<event>
 4    1 -0.3305908E-004  0.2687043E+03  0.7818608E-02  0.1102023E+00
          5   -1    0    0  501    0  0.00000000000E+00  0.00000000000E+00  0.44754076918E+03  0.44756544781E+03  0.47000000000E+01 0. -1.
         -5   -1    0    0    0  501 -0.00000000000E+00 -0.00000000000E+00 -0.17217407303E+03  0.17223821127E+03  0.47000000000E+01 0.  1.
          6    1    1    2  502    0 -0.10016471776E+02  0.20619811883E+03  0.21566207796E+03  0.34454626074E+03  0.17200000000E+03 0. -1.
         -6    1    1    2    0  502  0.10016471776E+02 -0.20619811883E+03  0.59704618187E+02  0.27525739835E+03  0.17200000000E+03 0.  1.
</event>
<event>
 4    1 -0.3305908E-004  0.3334166E+03  0.7818608E-02  0.1069635E+00
          5   -1    0    0  501    0  0.00000000000E+00  0.00000000000E+00  0.16319301331E+03  0.16326067988E+03  0.47000000000E+01 0. -1.
         -5   -1    0    0    0  501 -0.00000000000E+00 -0.00000000000E+00 -0.70158438735E+03  0.70160013012E+03  0.47000000000E+01 0.  1.
          6    1    1    2  502    0 -0.21756031622E+03  0.18506790372E+03 -0.19509400206E+03  0.38630077636E+03  0.17200000000E+03 0. -1.
         -6    1    1    2    0  502  0.21756031622E+03 -0.18506790372E+03 -0.34329737198E+03  0.47856003363E+03  0.17200000000E+03 0.  1.
</event>
<event>
 4    1 -0.3305908E-004  0.2265976E+03  0.7818608E-02  0.1129058E+00
         -5   -1    0    0    0  501 -0.00000000000E+00  0.00000000000E+00  0.39965981749E+02  0.40241392833E+02  0.47000000000E+01 0.  1.
          5   -1    0    0  501    0  0.00000000000E+00 -0.00000000000E+00 -0.13039387282E+04  0.13039471987E+04  0.47000000000E+01 0. -1.
          6    1    1    2  502    0 -0.74856846125E+02  0.12711783192E+03 -0.72292048046E+03  0.75760181604E+03  0.17200000000E+03 0. -1.
         -6    1    1    2    0  502  0.74856846125E+02 -0.12711783192E+03 -0.54105226599E+03  0.58658677545E+03  0.17200000000E+03 0. -1.
</event>
<event>
 4    1 -0.3305908E-004  0.1954853E+03  0.7818608E-02  0.1153605E+00
         -5   -1    0    0    0  501 -0.00000000000E+00  0.00000000000E+00  0.15860350565E+03  0.15867312944E+03  0.47000000000E+01 0.  1.
          5   -1    0    0  501    0  0.00000000000E+00 -0.00000000000E+00 -0.24080474769E+03  0.24085061036E+03  0.47000000000E+01 0. -1.
          6    1    1    2  502    0 -0.54661293713E+02  0.75117487620E+02 -0.40053702657E+02  0.19954646846E+03  0.17200000000E+03 0. -1.
         -6    1    1    2    0  502  0.54661293713E+02 -0.75117487620E+02 -0.42147539383E+02  0.19997727134E+03  0.17200000000E+03 0.  1.
</event>
<event>
 4    1 -0.3305908E-004  0.1911262E+03  0.7818608E-02  0.1157449E+00
         -5   -1    0    0    0  501 -0.00000000000E+00  0.00000000000E+00  0.11333109011E+04  0.11333206468E+04  0.47000000000E+01 0.  1.
          5   -1    0    0  501    0  0.00000000000E+00 -0.00000000000E+00 -0.74961745680E+02  0.75108942979E+02  0.47000000000E+01 0. -1.
          6    1    1    2  502    0 -0.82941563391E+02 -0.81202189173E+01  0.72804064916E+02  0.20452303724E+03  0.17200000000E+03 0. -1.
         -6    1    1    2    0  502  0.82941563391E+02  0.81202189173E+01  0.98554509046E+03  0.10039065525E+04  0.17200000000E+03 0.  1.
</event>
<event>
 4    1 -0.3305908E-004  0.3377139E+03  0.7818608E-02  0.1067774E+00
         -5   -1    0    0    0  501 -0.00000000000E+00  0.00000000000E+00  0.51168231826E+03  0.51170390346E+03  0.47000000000E+01 0.  1.
          5   -1    0    0  501    0  0.00000000000E+00 -0.00000000000E+00 -0.25209690239E+03  0.25214071110E+03  0.47000000000E+01 0. -1.
          6    1    1    2  502    0  0.26402007488E+03  0.12149105278E+03 -0.29264210885E+00  0.33771402323E+03  0.17200000000E+03 0. -1.
         -6    1    1    2    0  502 -0.26402007488E+03 -0.12149105278E+03  0.25987805797E+03  0.42613059133E+03  0.17200000000E+03 0.  1.
</event>
<event>
 4    1 -0.3305908E-004  0.1753722E+03  0.7818608E-02  0.1172359E+00
         -5   -1    0    0    0  501 -0.00000000000E+00  0.00000000000E+00  0.27807017632E+03  0.27810989367E+03  0.47000000000E+01 0.  1.
          5   -1    0    0  501    0  0.00000000000E+00 -0.00000000000E+00 -0.14560223280E+03  0.14567807040E+03  0.47000000000E+01 0. -1.
          6    1    1    2  502    0  0.93506771164E+01 -0.32923610434E+02 -0.37752797241E+02  0.17938972375E+03  0.17200000000E+03 0. -1.
         -6    1    1    2    0  502 -0.93506771164E+01  0.32923610434E+02  0.17022074076E+03  0.24439824032E+03  0.17200000000E+03 0.  1.
</event>
<event>
 4    1 -0.3305908E-004  0.4821400E+03  0.7818608E-02  0.1018549E+00
         -5   -1    0    0    0  501 -0.00000000000E+00  0.00000000000E+00  0.62229948100E+03  0.62231722944E+03  0.47000000000E+01 0.  1.
          5   -1    0    0  501    0  0.00000000000E+00 -0.00000000000E+00 -0.39841356786E+03  0.39844128934E+03  0.47000000000E+01 0. -1.
          6    1    1    2  502    0 -0.16243131171E+03  0.42010835741E+03 -0.15650066334E+02  0.48239391328E+03  0.17200000000E+03 0. -1.
         -6    1    1    2    0  502  0.16243131171E+03 -0.42010835741E+03  0.23953597948E+03  0.53836460550E+03  0.17200000000E+03 0.  1.
</event>
<event>
 4    1 -0.3305908E-004  0.1867199E+03  0.7818608E-02  0.1161453E+00
         -5   -1    0    0    0  501 -0.00000000000E+00  0.00000000000E+00  0.22275225489E+03  0.22280183361E+03  0.47000000000E+01 0.  1.
          5   -1    0    0  501    0  0.00000000000E+00 -0.00000000000E+00 -0.16105486699E+03  0.16112343151E+03  0.47000000000E+01 0. -1.
          6    1    1    2  502    0 -0.69206670096E+02 -0.22153453532E+02 -0.17254355745E+01  0.18672791922E+03  0.17200000000E+03 0. -1.
         -6    1    1    2    0  502  0.69206670096E+02  0.22153453532E+02  0.63422823473E+02  0.19719734589E+03  0.17200000000E+03 0.  1.
</event>
<event>
 4    1 -0.3305908E-004  0.4865174E+03  0.7818608E-02  0.1017359E+00
         -5   -1    0    0    0  501 -0.00000000000E+00  0.00000000000E+00  0.16111467403E+03  0.16118321311E+03  0.47000000000E+01 0.  1.
          5   -1    0    0  501    0  0.00000000000E+00 -0.00000000000E+00 -0.14695634083E+04  0.14695709241E+04  0.47000000000E+01 0. -1.
          6    1    1    2  502    0  0.77770693087E+02 -0.44840486228E+03 -0.67340408712E+03  0.83076607163E+03  0.17200000000E+03 0. -1.
         -6    1    1    2    0  502 -0.77770693087E+02  0.44840486228E+03 -0.63504464709E+03  0.79998806555E+03  0.17200000000E+03 0.  1.
</event>
<event>
 4    1 -0.3305908E-004  0.1961805E+03  0.7818608E-02  0.1153002E+00
         -5   -1    0    0    0  501 -0.00000000000E+00  0.00000000000E+00  0.66359467459E+03  0.66361131858E+03  0.47000000000E+01 0.  1.
          5   -1    0    0  501    0  0.00000000000E+00 -0.00000000000E+00 -0.17282685777E+03  0.17289075385E+03  0.47000000000E+01 0. -1.
          6    1    1    2  502    0 -0.44663687400E+02 -0.83114119796E+02 -0.95565674426E+02  0.21821915592E+03  0.17200000000E+03 0. -1.
         -6    1    1    2    0  502  0.44663687400E+02  0.83114119796E+02  0.58633349125E+03  0.61828291650E+03  0.17200000000E+03 0.  1.
</event>
<event>
 4    1 -0.3305908E-004  0.2345239E+03  0.7818608E-02  0.1123496E+00
          5   -1    0    0  501    0  0.00000000000E+00  0.00000000000E+00  0.14204665730E+03  0.14212439217E+03  0.47000000000E+01 0. -1.
         -5   -1    0    0    0  501 -0.00000000000E+00 -0.00000000000E+00 -0.41926040042E+03  0.41928674360E+03  0.47000000000E+01 0.  1.
          6    1    1    2  502    0 -0.13043948439E+03  0.91667900268E+02 -0.60762306512E+02  0.24226745741E+03  0.17200000000E+03 0. -1.
         -6    1    1    2    0  502  0.13043948439E+03 -0.91667900268E+02 -0.21645143661E+03  0.31914367836E+03  0.17200000000E+03 0.  1.
</event>
<event>
 4    1 -0.3305908E-004  0.2285456E+03  0.7818608E-02  0.1127668E+00
          5   -1    0    0  501    0  0.00000000000E+00  0.00000000000E+00  0.33424397570E+03  0.33427701879E+03  0.47000000000E+01 0. -1.
         -5   -1    0    0    0  501 -0.00000000000E+00 -0.00000000000E+00 -0.40884761886E+03  0.40887463292E+03  0.47000000000E+01 0.  1.
          6    1    1    2  502    0  0.34292314866E+02 -0.14653717607E+03  0.25476620904E+03  0.34225564728E+03  0.17200000000E+03 0. -1.
         -6    1    1    2    0  502 -0.34292314866E+02  0.14653717607E+03 -0.32936985219E+03  0.40089600443E+03  0.17200000000E+03 0.  1.
</event>
<event>
 4    1 -0.3305908E-004  0.2076986E+03  0.7818608E-02  0.1143401E+00
         -5   -1    0    0    0  501 -0.00000000000E+00  0.00000000000E+00  0.11893440566E+04  0.11893533432E+04  0.47000000000E+01 0.  1.
          5   -1    0    0  501    0  0.00000000000E+00 -0.00000000000E+00 -0.49898860206E+02  0.50119719171E+02  0.47000000000E+01 0. -1.
          6    1    1    2  502    0  0.91035997156E+02 -0.72575256846E+02  0.24481755904E+03  0.32105195514E+03  0.17200000000E+03 0. -1.
         -6    1    1    2    0  502 -0.91035997156E+02  0.72575256846E+02  0.89462763737E+03  0.91842110725E+03  0.17200000000E+03 0.  1.
</event>
<event>
 4    1 -0.3305908E-004  0.2433271E+03  0.7818608E-02  0.1117596E+00
          5   -1    0    0  501    0  0.00000000000E+00  0.00000000000E+00  0.45306662640E+02  0.45549793409E+02  0.47000000000E+01 0. -1.
         -5   -1    0    0    0  501 -0.00000000000E+00 -0.00000000000E+00 -0.14440701973E+04  0.14440778458E+04  0.47000000000E+01 0.  1.
          6    1    1    2  502    0 -0.77904584649E+02 -0.15347619511E+03 -0.46667820772E+03  0.52630468014E+03  0.17200000000E+03 0. -1.
         -6    1    1    2    0  502  0.77904584649E+02  0.15347619511E+03 -0.93208532696E+03  0.96332295909E+03  0.17200000000E+03 0.  1.
</event>
<event>
 4    1 -0.3305908E-004  0.1861931E+03  0.7818608E-02  0.1161940E+00
          5   -1    0    0  501    0  0.00000000000E+00  0.00000000000E+00  0.12763663350E+03  0.12772313891E+03  0.47000000000E+01 0. -1.
         -5   -1    0    0    0  501 -0.00000000000E+00 -0.00000000000E+00 -0.29866384980E+03  0.29870082889E+03  0.47000000000E+01 0.  1.
          6    1    1    2  502    0 -0.46924691577E+02 -0.53683862168E+02 -0.21125894286E+02  0.18738779882E+03  0.17200000000E+03 0. -1.
         -6    1    1    2    0  502  0.46924691577E+02  0.53683862168E+02 -0.14990132201E+03  0.23903616897E+03  0.17200000000E+03 0.  1.
</event>
<event>
 4    1 -0.3305908E-004  0.2447849E+03  0.7818608E-02  0.1116646E+00
         -5   -1    0    0    0  501 -0.00000000000E+00  0.00000000000E+00  0.12205877059E+03  0.12214922626E+03  0.47000000000E+01 0.  1.
          5   -1    0    0  501    0  0.00000000000E+00 -0.00000000000E+00 -0.83919528551E+03  0.83920844682E+03  0.47000000000E+01 0. -1.
          6    1    1    2  502    0 -0.17412159187E+03 -0.41637012473E+01 -0.66833928111E+03  0.71175632054E+03  0.17200000000E+03 0. -1.
         -6    1    1    2    0  502  0.17412159187E+03  0.41637012473E+01 -0.48797233817E+02  0.24960135254E+03  0.17200000000E+03 0.  1.
</event>
<event>
 4    1 -0.3305908E-004  0.2171908E+03  0.7818608E-02  0.1135995E+00
          5   -1    0    0  501    0  0.00000000000E+00  0.00000000000E+00  0.10492463147E+03  0.10502984475E+03  0.47000000000E+01 0. -1.
         -5   -1    0    0    0  501 -0.00000000000E+00 -0.00000000000E+00 -0.66557774077E+03  0.66559433517E+03  0.47000000000E+01 0.  1.
          6    1    1    2  502    0  0.10690289259E+02 -0.13218762153E+03 -0.60670716712E+02  0.22550562174E+03  0.17200000000E+03 0. -1.
         -6    1    1    2    0  502 -0.10690289259E+02  0.13218762153E+03 -0.49998239259E+03  0.54511855818E+03  0.17200000000E+03 0.  1.
</event>
<event>
 4    1 -0.3305908E-004  0.1726962E+03  0.7818608E-02  0.1175065E+00
          5   -1    0    0  501    0  0.00000000000E+00  0.00000000000E+00  0.18069456733E+03  0.18075568225E+03  0.47000000000E+01 0. -1.
         -5   -1    0    0    0  501 -0.00000000000E+00 -0.00000000000E+00 -0.29309202208E+03  0.29312970407E+03  0.47000000000E+01 0.  1.
          6    1    1    2  502    0  0.83388358311E+01  0.13054976275E+02  0.10045405356E+03  0.19978735061E+03  0.17200000000E+03 0. -1.
         -6    1    1    2    0  502 -0.83388358311E+01 -0.13054976275E+02 -0.21285150831E+03  0.27409803571E+03  0.17200000000E+03 0.  1.
</event>
<event>
 4    1 -0.3305908E-004  0.2230328E+03  0.7818608E-02  0.1131642E+00
          5   -1    0    0  501    0  0.00000000000E+00  0.00000000000E+00  0.35292518584E+03  0.35295648003E+03  0.47000000000E+01 0. -1.
         -5   -1    0    0    0  501 -0.00000000000E+00 -0.00000000000E+00 -0.17896732471E+03  0.17902902925E+03  0.47000000000E+01 0.  1.
          6    1    1    2  502    0  0.13563211203E+03 -0.41994688513E+02  0.20966852069E+03  0.30611192764E+03  0.17200000000E+03 0. -1.
         -6    1    1    2    0  502 -0.13563211203E+03  0.41994688513E+02 -0.35710659565E+02  0.22587358164E+03  0.17200000000E+03 0.  1.
</event>
<event>
 4    1 -0.3305908E-004  0.2385018E+03  0.7818608E-02  0.1120795E+00
          5   -1    0    0  501    0  0.00000000000E+00  0.00000000000E+00  0.13746600620E+03  0.13754632987E+03  0.47000000000E+01 0. -1.
         -5   -1    0    0    0  501 -0.00000000000E+00 -0.00000000000E+00 -0.77441846206E+03  0.77443272425E+03  0.47000000000E+01 0.  1.
          6    1    1    2  502    0  0.55669332080E+02 -0.15556365778E+03 -0.72377930739E+01  0.23861163384E+03  0.17200000000E+03 0. -1.
         -6    1    1    2    0  502 -0.55669332080E+02  0.15556365778E+03 -0.62971466279E+03  0.67336742028E+03  0.17200000000E+03 0.  1.
</event>
<event>
 4    1 -0.3305908E-004  0.1725833E+03  0.7818608E-02  0.1175180E+00
          5   -1    0    0  501    0  0.00000000000E+00  0.00000000000E+00  0.29185070064E+02  0.29561094611E+02  0.47000000000E+01 0. -1.
         -5   -1    0    0    0  501 -0.00000000000E+00 -0.00000000000E+00 -0.10483873354E+04  0.10483978706E+04  0.47000000000E+01 0.  1.
          6    1    1    2  502    0  0.32288846864E+01 -0.13805306764E+02 -0.41149954145E+03  0.44622515035E+03  0.17200000000E+03 0. -1.
         -6    1    1    2    0  502 -0.32288846864E+01  0.13805306764E+02 -0.60770272393E+03  0.63173381488E+03  0.17200000000E+03 0.  1.
</event>
<event>
 4    1 -0.3305908E-004  0.1990729E+03  0.7818608E-02  0.1150524E+00
          5   -1    0    0  501    0  0.00000000000E+00  0.00000000000E+00  0.40719609675E+03  0.40722322037E+03  0.47000000000E+01 0. -1.
         -5   -1    0    0    0  501 -0.00000000000E+00 -0.00000000000E+00 -0.10302549182E+03  0.10313264258E+03  0.47000000000E+01 0.  1.
          6    1    1    2  502    0  0.88856622433E+01 -0.99835231473E+02  0.21253049222E+03  0.29120308817E+03  0.17200000000E+03 0. -1.
         -6    1    1    2    0  502 -0.88856622433E+01  0.99835231473E+02  0.91640112706E+02  0.21915277478E+03  0.17200000000E+03 0. -1.
</event>
<event>
 4    1 -0.3305908E-004  0.2170782E+03  0.7818608E-02  0.1136080E+00
         -5   -1    0    0    0  501 -0.00000000000E+00  0.00000000000E+00  0.13758686795E+04  0.13758767071E+04  0.47000000000E+01 0.  1.
          5   -1    0    0  501    0  0.00000000000E+00 -0.00000000000E+00 -0.41155393219E+02  0.41422896941E+02  0.47000000000E+01 0. -1.
          6    1    1    2  502    0 -0.43765916603E+02 -0.12499391126E+03  0.37460806242E+03  0.43295973686E+03  0.17200000000E+03 0. -1.
         -6    1    1    2    0  502  0.43765916603E+02  0.12499391126E+03  0.96010522386E+03  0.98433986722E+03  0.17200000000E+03 0.  1.
</event>
<event>
 4    1 -0.3305908E-004  0.2291074E+03  0.7818608E-02  0.1127270E+00
          5   -1    0    0  501    0  0.00000000000E+00  0.00000000000E+00  0.65911564292E+02  0.66078924835E+02  0.47000000000E+01 0. -1.
         -5   -1    0    0    0  501 -0.00000000000E+00 -0.00000000000E+00 -0.80277116454E+03  0.80278492301E+03  0.47000000000E+01 0.  1.
          6    1    1    2  502    0 -0.15125275275E+03  0.53681665656E+01 -0.32621482844E+03  0.39863056421E+03  0.17200000000E+03 0. -1.
         -6    1    1    2    0  502  0.15125275275E+03 -0.53681665656E+01 -0.41064477181E+03  0.47023328364E+03  0.17200000000E+03 0.  1.
</event>
<event>
 4    1 -0.3305908E-004  0.1868861E+03  0.7818608E-02  0.1161300E+00
         -5   -1    0    0    0  501 -0.00000000000E+00  0.00000000000E+00  0.17488252455E+03  0.17494566983E+03  0.47000000000E+01 0.  1.
          5   -1    0    0  501    0  0.00000000000E+00 -0.00000000000E+00 -0.20160219107E+03  0.20165696974E+03  0.47000000000E+01 0. -1.
          6    1    1    2  502    0  0.99058976912E+01 -0.72417578816E+02  0.54617657899E+01  0.18696594186E+03  0.17200000000E+03 0.  1.
         -6    1    1    2    0  502 -0.99058976912E+01  0.72417578816E+02 -0.32181432314E+02  0.18963669770E+03  0.17200000000E+03 0.  1.
</event>
<event>
 4    1 -0.3305908E-004  0.1973457E+03  0.7818608E-02  0.1151998E+00
          5   -1    0    0  501    0  0.00000000000E+00  0.00000000000E+00  0.89674353535E+03  0.89675585206E+03  0.47000000000E+01 0. -1.
         -5   -1    0    0    0  501 -0.00000000000E+00 -0.00000000000E+00 -0.44841101282E+02  0.45086742666E+02  0.47000000000E+01 0.  1.
          6    1    1    2  502    0 -0.88751448699E+02  0.38529253378E+02  0.51328373226E+03  0.54991409585E+03  0.17200000000E+03 0. -1.
         -6    1    1    2    0  502  0.88751448699E+02 -0.38529253378E+02  0.33861870181E+03  0.39192849888E+03  0.17200000000E+03 0.  1.
</event>
<event>
 4    1 -0.3305908E-004  0.1839675E+03  0.7818608E-02  0.1164018E+00
          5   -1    0    0  501    0  0.00000000000E+00  0.00000000000E+00  0.13481390690E+03  0.13489580977E+03  0.47000000000E+01 0. -1.
         -5   -1    0    0    0  501 -0.00000000000E+00 -0.00000000000E+00 -0.25936109170E+03  0.25940367362E+03  0.47000000000E+01 0.  1.
          6    1    1    2  502    0 -0.61758347934E+02 -0.21117865749E+02 -0.97952317466E+02  0.20841956312E+03  0.17200000000E+03 0.  1.
         -6    1    1    2    0  502  0.61758347934E+02  0.21117865749E+02 -0.26594867333E+02  0.18587992028E+03  0.17200000000E+03 0.  1.
</event>
<event>
 4    1 -0.3305908E-004  0.3233664E+03  0.7818608E-02  0.1074110E+00
         -5   -1    0    0    0  501 -0.00000000000E+00  0.00000000000E+00  0.73162692966E+03  0.73164202600E+03  0.47000000000E+01 0.  1.
          5   -1    0    0  501    0  0.00000000000E+00 -0.00000000000E+00 -0.14954221902E+03  0.14961605953E+03  0.47000000000E+01 0. -1.
          6    1    1    2  502    0 -0.25126764682E+03  0.10884115644E+03  0.19797689382E+03  0.37915785389E+03  0.17200000000E+03 0. -1.
         -6    1    1    2    0  502  0.25126764682E+03 -0.10884115644E+03  0.38410781682E+03  0.50210023165E+03  0.17200000000E+03 0.  1.
</event>
<event>
 4    1 -0.3305908E-004  0.6066134E+03  0.7818608E-02  0.9891780E-01
          5   -1    0    0  501    0  0.00000000000E+00  0.00000000000E+00  0.88646308629E+03  0.88647554583E+03  0.47000000000E+01 0. -1.
         -5   -1    0    0    0  501 -0.00000000000E+00 -0.00000000000E+00 -0.56848743193E+03  0.56850686035E+03  0.47000000000E+01 0.  1.
          6    1    1    2  502    0 -0.27485429666E+03 -0.51268987618E+03  0.53688612117E+03  0.81007808304E+03  0.17200000000E+03 0. -1.
         -6    1    1    2    0  502  0.27485429666E+03  0.51268987618E+03 -0.21891046681E+03  0.64490432314E+03  0.17200000000E+03 0.  1.
</event>
<event>
 4    1 -0.3305908E-004  0.1820269E+03  0.7818608E-02  0.1165856E+00
          5   -1    0    0  501    0  0.00000000000E+00  0.00000000000E+00  0.41196735758E+02  0.41463972761E+02  0.47000000000E+01 0. -1.
         -5   -1    0    0    0  501 -0.00000000000E+00 -0.00000000000E+00 -0.81167107897E+03  0.81168468659E+03  0.47000000000E+01 0.  1.
          6    1    1    2  502    0 -0.38030432152E+02 -0.45863557738E+02 -0.33727680717E+03  0.38326156128E+03  0.17200000000E+03 0. -1.
         -6    1    1    2    0  502  0.38030432152E+02  0.45863557738E+02 -0.43319753605E+03  0.46988709807E+03  0.17200000000E+03 0. -1.
</event>
<event>
 4    1 -0.3305908E-004  0.2730287E+03  0.7818608E-02  0.1099559E+00
          5   -1    0    0  501    0  0.00000000000E+00  0.00000000000E+00  0.16472376073E+04  0.16472443124E+04  0.47000000000E+01 0. -1.
         -5   -1    0    0    0  501 -0.00000000000E+00 -0.00000000000E+00 -0.13948052283E+03  0.13955968705E+03  0.47000000000E+01 0.  1.
          6    1    1    2  502    0 -0.13966042851E+01  0.21203477389E+03  0.14882413606E+04  0.15130786639E+04  0.17200000000E+03 0. -1.
         -6    1    1    2    0  502  0.13966042851E+01 -0.21203477389E+03  0.19515723833E+02  0.27372533554E+03  0.17200000000E+03 0.  1.
</event>
<event>
 4    1 -0.3305908E-004  0.2301552E+03  0.7818608E-02  0.1126531E+00
          5   -1    0    0  501    0  0.00000000000E+00  0.00000000000E+00  0.16748934727E+03  0.16755527879E+03  0.47000000000E+01 0. -1.
         -5   -1    0    0    0  501 -0.00000000000E+00 -0.00000000000E+00 -0.43090023515E+03  0.43092586677E+03  0.47000000000E+01 0.  1.
          6    1    1    2  502    0 -0.15168444803E+03 -0.19473657253E+02  0.22718321117E+02  0.23127368466E+03  0.17200000000E+03 0. -1.
         -6    1    1    2    0  502  0.15168444803E+03  0.19473657253E+02 -0.28612920900E+03  0.36720746090E+03  0.17200000000E+03 0.  1.
</event>
<event>
 4    1 -0.3305908E-004  0.2169863E+03  0.7818608E-02  0.1136150E+00
          5   -1    0    0  501    0  0.00000000000E+00  0.00000000000E+00  0.11548096050E+04  0.11548191693E+04  0.47000000000E+01 0. -1.
         -5   -1    0    0    0  501 -0.00000000000E+00 -0.00000000000E+00 -0.44114530315E+02  0.44364194852E+02  0.47000000000E+01 0.  1.
          6    1    1    2  502    0  0.12665451539E+03 -0.38179431602E+02  0.72344423804E+03  0.75528445027E+03  0.17200000000E+03 0. -1.
         -6    1    1    2    0  502 -0.12665451539E+03  0.38179431602E+02  0.38725083661E+03  0.44389891386E+03  0.17200000000E+03 0.  1.
</event>
<event>
 4    1 -0.3305908E-004  0.2198153E+03  0.7818608E-02  0.1134021E+00
          5   -1    0    0  501    0  0.00000000000E+00  0.00000000000E+00  0.46703841243E+03  0.46706206085E+03  0.47000000000E+01 0. -1.
         -5   -1    0    0    0  501 -0.00000000000E+00 -0.00000000000E+00 -0.24899299348E+03  0.24903734821E+03  0.47000000000E+01 0.  1.
          6    1    1    2  502    0  0.13234285428E+03 -0.34930327896E+02  0.38278025928E+03  0.44140625933E+03  0.17200000000E+03 0. -1.
         -6    1    1    2    0  502 -0.13234285428E+03  0.34930327896E+02 -0.16473484033E+03  0.27469314972E+03  0.17200000000E+03 0.  1.
</event>
<event>
 4    1 -0.3305908E-004  0.1832069E+03  0.7818608E-02  0.1164735E+00
         -5   -1    0    0    0  501 -0.00000000000E+00  0.00000000000E+00  0.29314515293E+03  0.29318282809E+03  0.47000000000E+01 0.  1.
          5   -1    0    0  501    0  0.00000000000E+00 -0.00000000000E+00 -0.14494582239E+03  0.14502200326E+03  0.47000000000E+01 0. -1.
          6    1    1    2  502    0 -0.62911437291E+02  0.47866771052E+01 -0.26430282466E+02  0.18510354143E+03  0.17200000000E+03 0. -1.
         -6    1    1    2    0  502  0.62911437291E+02 -0.47866771052E+01  0.17462961300E+03  0.25310128991E+03  0.17200000000E+03 0.  1.
</event>
<event>
 4    1 -0.3305908E-004  0.5803710E+03  0.7818608E-02  0.9946988E-01
         -5   -1    0    0    0  501 -0.00000000000E+00  0.00000000000E+00  0.19090945611E+03  0.19096730199E+03  0.47000000000E+01 0.  1.
          5   -1    0    0  501    0  0.00000000000E+00 -0.00000000000E+00 -0.17811667048E+04  0.17811729057E+04  0.47000000000E+01 0. -1.
          6    1    1    2  502    0 -0.52552699894E+03  0.17626081258E+03 -0.69837764259E+03  0.90805387083E+03  0.17200000000E+03 0. -1.
         -6    1    1    2    0  502  0.52552699894E+03 -0.17626081258E+03 -0.89187960606E+03  0.10640863369E+04  0.17200000000E+03 0.  1.
</event>
<event>
 4    1 -0.3305908E-004  0.1735661E+03  0.7818608E-02  0.1174179E+00
         -5   -1    0    0    0  501 -0.00000000000E+00  0.00000000000E+00  0.40045312403E+03  0.40048070434E+03  0.47000000000E+01 0.  1.
          5   -1    0    0  501    0  0.00000000000E+00 -0.00000000000E+00 -0.86584086698E+02  0.86711556723E+02  0.47000000000E+01 0. -1.
          6    1    1    2  502    0 -0.22155663421E+02  0.70946838882E+01  0.24547234642E+03  0.30063579430E+03  0.17200000000E+03 0.  1.
         -6    1    1    2    0  502  0.22155663421E+02 -0.70946838882E+01  0.68396690919E+02  0.18655646676E+03  0.17200000000E+03 0. -1.
</event>
<event>
 4    1 -0.3305908E-004  0.2010359E+03  0.7818608E-02  0.1148868E+00
         -5   -1    0    0    0  501 -0.00000000000E+00  0.00000000000E+00  0.30528237891E+02  0.30887915254E+02  0.47000000000E+01 0.  1.
          5   -1    0    0  501    0  0.00000000000E+00 -0.00000000000E+00 -0.21578495008E+04  0.21578546193E+04  0.47000000000E+01 0. -1.
          6    1    1    2  502    0  0.10397019331E+03 -0.46494715887E+01 -0.17472545031E+04  0.17587818845E+04  0.17200000000E+03 0. -1.
         -6    1    1    2    0  502 -0.10397019331E+03  0.46494715887E+01 -0.38006675976E+03  0.42996065001E+03  0.17200000000E+03 0.  1.
</event>
<event>
 4    1 -0.3305908E-004  0.2176153E+03  0.7818608E-02  0.1135673E+00
         -5   -1    0    0    0  501 -0.00000000000E+00  0.00000000000E+00  0.45634599352E+02  0.45875992175E+02  0.47000000000E+01 0.  1.
          5   -1    0    0  501    0  0.00000000000E+00 -0.00000000000E+00 -0.10738962970E+04  0.10739065819E+04  0.47000000000E+01 0. -1.
          6    1    1    2  502    0  0.11173890501E+03  0.72710714415E+02 -0.62102040804E+03  0.65804466269E+03  0.17200000000E+03 0. -1.
         -6    1    1    2    0  502 -0.11173890501E+03 -0.72710714415E+02 -0.40724128961E+03  0.46173791142E+03  0.17200000000E+03 0. -1.
</event>
<event>
 4    1 -0.3305908E-004  0.1958998E+03  0.7818608E-02  0.1153245E+00
         -5   -1    0    0    0  501 -0.00000000000E+00  0.00000000000E+00  0.64960378714E+03  0.64962078959E+03  0.47000000000E+01 0.  1.
          5   -1    0    0  501    0  0.00000000000E+00 -0.00000000000E+00 -0.64307057553E+02  0.64478582887E+02  0.47000000000E+01 0. -1.
          6    1    1    2  502    0 -0.93745433519E+02  0.21301527313E+01  0.18990438828E+03  0.27283771833E+03  0.17200000000E+03 0. -1.
         -6    1    1    2    0  502  0.93745433519E+02 -0.21301527313E+01  0.39539234131E+03  0.44126165415E+03  0.17200000000E+03 0.  1.
</event>
<event>
 4    1 -0.3305908E-004  0.2053546E+03  0.7818608E-02  0.1145298E+00
         -5   -1    0    0    0  501 -0.00000000000E+00  0.00000000000E+00  0.14346747750E+04  0.14346824735E+04  0.47000000000E+01 0.  1.
          5   -1    0    0  501    0  0.00000000000E+00 -0.00000000000E+00 -0.29495287367E+02  0.29867406598E+02  0.47000000000E+01 0. -1.
          6    1    1    2  502    0  0.76993091516E+02 -0.81600017215E+02  0.62955174122E+03  0.66219777546E+03  0.17200000000E+03 0. -1.
         -6    1    1    2    0  502 -0.76993091516E+02  0.81600017215E+02  0.77562774636E+03  0.80235210468E+03  0.17200000000E+03 0.  1.
</event>
<event>
 4    1 -0.3305908E-004  0.1747314E+03  0.7818608E-02  0.1173002E+00
          5   -1    0    0  501    0  0.00000000000E+00  0.00000000000E+00  0.55920418714E+02  0.56117583957E+02  0.47000000000E+01 0. -1.
         -5   -1    0    0    0  501 -0.00000000000E+00 -0.00000000000E+00 -0.55183706854E+03  0.55185708314E+03  0.47000000000E+01 0.  1.
          6    1    1    2  502    0  0.15336432752E+02  0.26680366829E+02 -0.28226706978E+03  0.33197250914E+03  0.17200000000E+03 0.  1.
         -6    1    1    2    0  502 -0.15336432752E+02 -0.26680366829E+02 -0.21364958005E+03  0.27600215796E+03  0.17200000000E+03 0. -1.
</event>
<event>
 4    1 -0.3305908E-004  0.4614109E+03  0.7818608E-02  0.1024373E+00
          5   -1    0    0  501    0  0.00000000000E+00  0.00000000000E+00  0.88100817719E+03  0.88102071387E+03  0.47000000000E+01 0. -1.
         -5   -1    0    0    0  501 -0.00000000000E+00 -0.00000000000E+00 -0.26408649420E+03  0.26412831430E+03  0.47000000000E+01 0.  1.
          6    1    1    2  502    0 -0.14282829065E+03 -0.40362869201E+03  0.14146695891E+03  0.48261054909E+03  0.17200000000E+03 0. -1.
         -6    1    1    2    0  502  0.14282829065E+03  0.40362869201E+03  0.47545472408E+03  0.66253847909E+03  0.17200000000E+03 0.  1.
</event>
<event>
 4    1 -0.3305908E-004  0.1813786E+03  0.7818608E-02  0.1166475E+00
         -5   -1    0    0    0  501 -0.00000000000E+00  0.00000000000E+00  0.15383955124E+04  0.15384026919E+04  0.47000000000E+01 0.  1.
          5   -1    0    0  501    0  0.00000000000E+00 -0.00000000000E+00 -0.29836981234E+02  0.30204891146E+02  0.47000000000E+01 0. -1.
          6    1    1    2  502    0 -0.60616432926E+01  0.57249095024E+02  0.33349160371E+03  0.37962462005E+03  0.17200000000E+03 0. -1.
         -6    1    1    2    0  502  0.60616432926E+01 -0.57249095024E+02  0.11750669274E+04  0.11889829630E+04  0.17200000000E+03 0.  1.
</event>
<event>
 4    1 -0.3305908E-004  0.3112756E+03  0.7818608E-02  0.1079736E+00
          5   -1    0    0  501    0  0.00000000000E+00  0.00000000000E+00  0.36360489911E+03  0.36363527422E+03  0.47000000000E+01 0. -1.
         -5   -1    0    0    0  501 -0.00000000000E+00 -0.00000000000E+00 -0.26876119288E+03  0.26880228570E+03  0.47000000000E+01 0.  1.
          6    1    1    2  502    0  0.12784194134E+03  0.22575408481E+03  0.17881351641E+02  0.31178872896E+03  0.17200000000E+03 0. -1.
         -6    1    1    2    0  502 -0.12784194134E+03 -0.22575408481E+03  0.76962354590E+02  0.32064883096E+03  0.17200000000E+03 0.  1.
</event>
<event>
 4    1 -0.3305908E-004  0.1806902E+03  0.7818608E-02  0.1167137E+00
          5   -1    0    0  501    0  0.00000000000E+00  0.00000000000E+00  0.79277471514E+02  0.79416670099E+02  0.47000000000E+01 0. -1.
         -5   -1    0    0    0  501 -0.00000000000E+00 -0.00000000000E+00 -0.10249896986E+04  0.10250004743E+04  0.47000000000E+01 0.  1.
          6    1    1    2  502    0 -0.37699848943E+02 -0.40542344149E+02 -0.45610024656E+02  0.18635781344E+03  0.17200000000E+03 0. -1.
         -6    1    1    2    0  502  0.37699848943E+02  0.40542344149E+02 -0.90010220243E+03  0.91805933093E+03  0.17200000000E+03 0.  1.
</event>
<event>
 4    1 -0.3305908E-004  0.2074263E+03  0.7818608E-02  0.1143620E+00
         -5   -1    0    0    0  501 -0.00000000000E+00  0.00000000000E+00  0.10226287898E+04  0.10226395903E+04  0.47000000000E+01 0.  1.
          5   -1    0    0  501    0  0.00000000000E+00 -0.00000000000E+00 -0.56081735395E+02  0.56278335485E+02  0.47000000000E+01 0. -1.
          6    1    1    2  502    0  0.27917433760E+02 -0.11252690646E+03  0.21287536875E+03  0.29722316600E+03  0.17200000000E+03 0. -1.
         -6    1    1    2    0  502 -0.27917433760E+02  0.11252690646E+03  0.75367168565E+03  0.78169475982E+03  0.17200000000E+03 0.  1.
</event>
<event>
 4    1 -0.3305908E-004  0.1792519E+03  0.7818608E-02  0.1168529E+00
         -5   -1    0    0    0  501 -0.00000000000E+00  0.00000000000E+00  0.42545976585E+03  0.42548572521E+03  0.47000000000E+01 0.  1.
          5   -1    0    0  501    0  0.00000000000E+00 -0.00000000000E+00 -0.80890137704E+02  0.81026565876E+02  0.47000000000E+01 0. -1.
          6    1    1    2  502    0 -0.46592912648E+02  0.19399972279E+02  0.23807615458E+03  0.29801260680E+03  0.17200000000E+03 0.  1.
         -6    1    1    2    0  502  0.46592912648E+02 -0.19399972279E+02  0.10649347356E+03  0.20849968428E+03  0.17200000000E+03 0. -1.
</event>
<event>
 4    1 -0.3305908E-004  0.1124978E+04  0.7818608E-02  0.9181183E-01
          5   -1    0    0  501    0  0.00000000000E+00  0.00000000000E+00  0.15076558443E+04  0.15076631703E+04  0.47000000000E+01 0. -1.
         -5   -1    0    0    0  501 -0.00000000000E+00 -0.00000000000E+00 -0.12864531154E+04  0.12864617009E+04  0.47000000000E+01 0.  1.
          6    1    1    2  502    0 -0.39099329912E+03 -0.10407283664E+04  0.93414628033E+03  0.14622600883E+04  0.17200000000E+03 0. -1.
         -6    1    1    2    0  502  0.39099329912E+03  0.10407283664E+04 -0.71294355135E+03  0.13318647829E+04  0.17200000000E+03 0.  1.
</event>
<event>
 4    1 -0.3305908E-004  0.1778920E+03  0.7818608E-02  0.1169859E+00
          5   -1    0    0  501    0  0.00000000000E+00  0.00000000000E+00  0.18482749694E+03  0.18488724571E+03  0.47000000000E+01 0. -1.
         -5   -1    0    0    0  501 -0.00000000000E+00 -0.00000000000E+00 -0.23307741814E+03  0.23312480102E+03  0.47000000000E+01 0.  1.
          6    1    1    2  502    0  0.44748061247E+02 -0.76934497493E+01  0.83627621936E+02  0.19656845450E+03  0.17200000000E+03 0. -1.
         -6    1    1    2    0  502 -0.44748061247E+02  0.76934497493E+01 -0.13187754313E+03  0.22144359223E+03  0.17200000000E+03 0.  1.
</event>
<event>
 4    1 -0.3305908E-004  0.3498214E+03  0.7818608E-02  0.1062688E+00
          5   -1    0    0  501    0  0.00000000000E+00  0.00000000000E+00  0.21208556224E+03  0.21213763388E+03  0.47000000000E+01 0. -1.
         -5   -1    0    0    0  501 -0.00000000000E+00 -0.00000000000E+00 -0.12073580841E+04  0.12073672322E+04  0.47000000000E+01 0.  1.
          6    1    1    2  502    0 -0.26414075253E+03  0.15172573141E+03  0.15241090748E+02  0.35015328867E+03  0.17200000000E+03 0. -1.
         -6    1    1    2    0  502  0.26414075253E+03 -0.15172573141E+03 -0.10105136126E+04  0.10693515774E+04  0.17200000000E+03 0.  1.
</event>
<event>
 4    1 -0.3305908E-004  0.1895481E+03  0.7818608E-02  0.1158870E+00
         -5   -1    0    0    0  501 -0.00000000000E+00  0.00000000000E+00  0.17644290653E+03  0.17650549358E+03  0.47000000000E+01 0.  1.
          5   -1    0    0  501    0  0.00000000000E+00 -0.00000000000E+00 -0.23159284390E+03  0.23164053045E+03  0.47000000000E+01 0. -1.
          6    1    1    2  502    0 -0.45060895894E+02 -0.65681160726E+02 -0.98632015280E+02  0.21367445718E+03  0.17200000000E+03 0. -1.
         -6    1    1    2    0  502  0.45060895894E+02  0.65681160726E+02  0.43482077909E+02  0.19447156685E+03  0.17200000000E+03 0.  1.
</event>
<event>
 4    1 -0.3305908E-004  0.2590536E+03  0.7818608E-02  0.1107713E+00
          5   -1    0    0  501    0  0.00000000000E+00  0.00000000000E+00  0.19713439129E+03  0.19719041110E+03  0.47000000000E+01 0. -1.
         -5   -1    0    0    0  501 -0.00000000000E+00 -0.00000000000E+00 -0.34153862321E+03  0.34157096062E+03  0.47000000000E+01 0.  1.
          6    1    1    2  502    0  0.18275453873E+03 -0.64230578411E+02 -0.55987708656E+02  0.26503473763E+03  0.17200000000E+03 0. -1.
         -6    1    1    2    0  502 -0.18275453873E+03  0.64230578411E+02 -0.88416523260E+02  0.27372663410E+03  0.17200000000E+03 0. -1.
</event>
<event>
 4    1 -0.3305908E-004  0.1957670E+03  0.7818608E-02  0.1153360E+00
          5   -1    0    0  501    0  0.00000000000E+00  0.00000000000E+00  0.15823117136E+03  0.15830095891E+03  0.47000000000E+01 0. -1.
         -5   -1    0    0    0  501 -0.00000000000E+00 -0.00000000000E+00 -0.24552976156E+03  0.24557474180E+03  0.47000000000E+01 0.  1.
          6    1    1    2  502    0 -0.64832428866E+02  0.67360855807E+02 -0.67645304962E+02  0.20712463883E+03  0.17200000000E+03 0. -1.
         -6    1    1    2    0  502  0.64832428866E+02 -0.67360855807E+02 -0.19653285233E+02  0.19675106187E+03  0.17200000000E+03 0.  1.
</event>
<event>
 4    1 -0.3305908E-004  0.1836110E+03  0.7818608E-02  0.1164353E+00
          5   -1    0    0  501    0  0.00000000000E+00  0.00000000000E+00  0.37396251995E+03  0.37399205383E+03  0.47000000000E+01 0. -1.
         -5   -1    0    0    0  501 -0.00000000000E+00 -0.00000000000E+00 -0.16012291139E+03  0.16019187480E+03  0.47000000000E+01 0.  1.
          6    1    1    2  502    0  0.44348282859E+02 -0.46499968692E+02  0.28353148041E+03  0.33779152989E+03  0.17200000000E+03 0. -1.
         -6    1    1    2    0  502 -0.44348282859E+02  0.46499968692E+02 -0.69691871851E+02  0.19639239874E+03  0.17200000000E+03 0.  1.
</event>
<event>
 4    1 -0.3305908E-004  0.2522237E+03  0.7818608E-02  0.1111908E+00
         -5   -1    0    0    0  501 -0.00000000000E+00  0.00000000000E+00  0.33669118656E+03  0.33672398950E+03  0.47000000000E+01 0.  1.
          5   -1    0    0  501    0  0.00000000000E+00 -0.00000000000E+00 -0.23222856287E+03  0.23227611890E+03  0.47000000000E+01 0. -1.
          6    1    1    2  502    0 -0.64890217554E+02  0.17269064095E+03 -0.70668943091E+02  0.26193681934E+03  0.17200000000E+03 0. -1.
         -6    1    1    2    0  502  0.64890217554E+02 -0.17269064095E+03  0.17513156678E+03  0.30706328906E+03  0.17200000000E+03 0.  1.
</event>
<event>
 4    1 -0.3305908E-004  0.3038794E+03  0.7818608E-02  0.1083317E+00
          5   -1    0    0  501    0  0.00000000000E+00  0.00000000000E+00  0.78736290409E+03  0.78737693181E+03  0.47000000000E+01 0. -1.
         -5   -1    0    0    0  501 -0.00000000000E+00 -0.00000000000E+00 -0.20370093721E+03  0.20375515164E+03  0.47000000000E+01 0.  1.
          6    1    1    2  502    0  0.25010631873E+03  0.14335175380E+02  0.61466124825E+03  0.68567566533E+03  0.17200000000E+03 0. -1.
         -6    1    1    2    0  502 -0.25010631873E+03 -0.14335175380E+02 -0.30999281366E+02  0.30545641812E+03  0.17200000000E+03 0.  1.
</event>
<event>
 4    1 -0.3305908E-004  0.2429577E+03  0.7818608E-02  0.1117838E+00
          5   -1    0    0  501    0  0.00000000000E+00  0.00000000000E+00  0.50825334175E+02  0.51042184456E+02  0.47000000000E+01 0. -1.
         -5   -1    0    0    0  501 -0.00000000000E+00 -0.00000000000E+00 -0.11615592432E+04  0.11615687520E+04  0.47000000000E+01 0.  1.
          6    1    1    2  502    0  0.16761281937E+03  0.36747796968E+02 -0.52531160008E+03  0.57877520246E+03  0.17200000000E+03 0. -1.
         -6    1    1    2    0  502 -0.16761281937E+03 -0.36747796968E+02 -0.58542230898E+03  0.63383573397E+03  0.17200000000E+03 0.  1.
</event>
<event>
 4    1 -0.3305908E-004  0.2622928E+03  0.7818608E-02  0.1105773E+00
          5   -1    0    0  501    0  0.00000000000E+00  0.00000000000E+00  0.15958459163E+03  0.15965378757E+03  0.47000000000E+01 0. -1.
         -5   -1    0    0    0  501 -0.00000000000E+00 -0.00000000000E+00 -0.51063593032E+03  0.51065755975E+03  0.47000000000E+01 0.  1.
          6    1    1    2  502    0  0.26966759109E+02  0.19617926580E+03 -0.43121555761E+02  0.26581380513E+03  0.17200000000E+03 0. -1.
         -6    1    1    2    0  502 -0.26966759109E+02 -0.19617926580E+03 -0.30792978293E+03  0.40449754219E+03  0.17200000000E+03 0.  1.
</event>
<event>
 4    1 -0.3305908E-004  0.1896111E+03  0.7818608E-02  0.1158813E+00
          5   -1    0    0  501    0  0.00000000000E+00  0.00000000000E+00  0.26800038205E+03  0.26804159151E+03  0.47000000000E+01 0. -1.
         -5   -1    0    0    0  501 -0.00000000000E+00 -0.00000000000E+00 -0.17166968492E+03  0.17173401155E+03  0.47000000000E+01 0.  1.
          6    1    1    2  502    0 -0.34769387029E+02 -0.71829439873E+02  0.15105511831E+03  0.24242530287E+03  0.17200000000E+03 0. -1.
         -6    1    1    2    0  502  0.34769387029E+02  0.71829439873E+02 -0.54724421186E+02  0.19735030018E+03  0.17200000000E+03 0.  1.
</event>
<event>
 4    1 -0.3305908E-004  0.2034237E+03  0.7818608E-02  0.1146882E+00
         -5   -1    0    0    0  501 -0.00000000000E+00  0.00000000000E+00  0.10154634807E+03  0.10165505795E+03  0.47000000000E+01 0.  1.
          5   -1    0    0  501    0  0.00000000000E+00 -0.00000000000E+00 -0.45714913914E+03  0.45717329911E+03  0.47000000000E+01 0. -1.
          6    1    1    2  502    0  0.64137705890E+02 -0.87655975918E+02 -0.27017515620E+03  0.33819495924E+03  0.17200000000E+03 0. -1.
         -6    1    1    2    0  502 -0.64137705890E+02  0.87655975918E+02 -0.85427634872E+02  0.22063339781E+03  0.17200000000E+03 0.  1.
</event>
<event>
 4    1 -0.3305908E-004  0.1761009E+03  0.7818608E-02  0.1171631E+00
         -5   -1    0    0    0  501 -0.00000000000E+00  0.00000000000E+00  0.10588569313E+03  0.10598995240E+03  0.47000000000E+01 0.  1.
          5   -1    0    0  501    0  0.00000000000E+00 -0.00000000000E+00 -0.62761053752E+03  0.62762813577E+03  0.47000000000E+01 0. -1.
          6    1    1    2  502    0  0.37195950839E+02  0.66319835071E+01 -0.52882365206E+03  0.55737418037E+03  0.17200000000E+03 0. -1.
         -6    1    1    2    0  502 -0.37195950839E+02 -0.66319835071E+01  0.70988076733E+01  0.17624390779E+03  0.17200000000E+03 0.  1.
</event>
<event>
 4    1 -0.3305908E-004  0.2362476E+03  0.7818608E-02  0.1122318E+00
          5   -1    0    0  501    0  0.00000000000E+00  0.00000000000E+00  0.46048340135E+03  0.46050738639E+03  0.47000000000E+01 0. -1.
         -5   -1    0    0    0  501 -0.00000000000E+00 -0.00000000000E+00 -0.16028574624E+03  0.16035463962E+03  0.47000000000E+01 0.  1.
          6    1    1    2  502    0 -0.11414703184E+03  0.11488854990E+03 -0.32786075817E+01  0.23627033890E+03  0.17200000000E+03 0.  1.
         -6    1    1    2    0  502  0.11414703184E+03 -0.11488854990E+03  0.30347626269E+03  0.38459168711E+03  0.17200000000E+03 0. -1.
</event>
<event>
 4    1 -0.3305908E-004  0.1826702E+03  0.7818608E-02  0.1165244E+00
         -5   -1    0    0    0  501 -0.00000000000E+00  0.00000000000E+00  0.48505174954E+03  0.48507451978E+03  0.47000000000E+01 0.  1.
          5   -1    0    0  501    0  0.00000000000E+00 -0.00000000000E+00 -0.69045386589E+02  0.69205168949E+02  0.47000000000E+01 0. -1.
          6    1    1    2  502    0 -0.16387241831E+02 -0.59294666713E+02  0.18811272142E+03  0.26221135588E+03  0.17200000000E+03 0.  1.
         -6    1    1    2    0  502  0.16387241831E+02  0.59294666713E+02  0.22789364154E+03  0.29206833284E+03  0.17200000000E+03 0.  1.
</event>
<event>
 4    1 -0.3305908E-004  0.1763408E+03  0.7818608E-02  0.1171392E+00
          5   -1    0    0  501    0  0.00000000000E+00  0.00000000000E+00  0.34068825612E+02  0.34391494276E+02  0.47000000000E+01 0. -1.
         -5   -1    0    0    0  501 -0.00000000000E+00 -0.00000000000E+00 -0.15008509547E+04  0.15008583139E+04  0.47000000000E+01 0.  1.
          6    1    1    2  502    0  0.31207816037E+02 -0.23198439120E+02 -0.25103952153E+03  0.30678483784E+03  0.17200000000E+03 0. -1.
         -6    1    1    2    0  502 -0.31207816037E+02  0.23198439120E+02 -0.12157426076E+04  0.12284649703E+04  0.17200000000E+03 0.  1.
</event>
<event>
 4    1 -0.3305908E-004  0.1934532E+03  0.7818608E-02  0.1155383E+00
         -5   -1    0    0    0  501 -0.00000000000E+00  0.00000000000E+00  0.34022532640E+03  0.34025778863E+03  0.47000000000E+01 0.  1.
          5   -1    0    0  501    0  0.00000000000E+00 -0.00000000000E+00 -0.11175072308E+03  0.11184951546E+03  0.47000000000E+01 0. -1.
          6    1    1    2  502    0  0.87945907587E+02 -0.10279583451E+02  0.85243842924E+02  0.21140166805E+03  0.17200000000E+03 0. -1.
         -6    1    1    2    0  502 -0.87945907587E+02  0.10279583451E+02  0.14323076040E+03  0.24070563604E+03  0.17200000000E+03 0.  1.
</event>
<event>
 4    1 -0.3305908E-004  0.1850605E+03  0.7818608E-02  0.1162993E+00
          5   -1    0    0  501    0  0.00000000000E+00  0.00000000000E+00  0.55625662576E+02  0.55823868882E+02  0.47000000000E+01 0. -1.
         -5   -1    0    0    0  501 -0.00000000000E+00 -0.00000000000E+00 -0.12629725348E+04  0.12629812800E+04  0.47000000000E+01 0.  1.
          6    1    1    2  502    0  0.31796391080E+02 -0.60435029230E+02 -0.13116971341E+03  0.22683231022E+03  0.17200000000E+03 0. -1.
         -6    1    1    2    0  502 -0.31796391080E+02  0.60435029230E+02 -0.10761771588E+04  0.10919728387E+04  0.17200000000E+03 0.  1.
</event>
<event>
 4    1 -0.3305908E-004  0.2164901E+03  0.7818608E-02  0.1136527E+00
         -5   -1    0    0    0  501 -0.00000000000E+00  0.00000000000E+00  0.16097612253E+03  0.16104472057E+03  0.47000000000E+01 0.  1.
          5   -1    0    0  501    0  0.00000000000E+00 -0.00000000000E+00 -0.30221589722E+03  0.30225244174E+03  0.47000000000E+01 0. -1.
          6    1    1    2  502    0 -0.15240417065E+02  0.13058209309E+03 -0.11524030630E+03  0.24525146594E+03  0.17200000000E+03 0. -1.
         -6    1    1    2    0  502  0.15240417065E+02 -0.13058209309E+03 -0.25999468402E+02  0.21804569637E+03  0.17200000000E+03 0. -1.
</event>
<event>
 4    1 -0.3305908E-004  0.1928223E+03  0.7818608E-02  0.1155940E+00
          5   -1    0    0  501    0  0.00000000000E+00  0.00000000000E+00  0.23954733081E+03  0.23959343417E+03  0.47000000000E+01 0. -1.
         -5   -1    0    0    0  501 -0.00000000000E+00 -0.00000000000E+00 -0.15808251096E+03  0.15815236410E+03  0.47000000000E+01 0.  1.
          6    1    1    2  502    0 -0.81944407351E+02  0.29691046970E+02  0.67971767190E+02  0.20445196331E+03  0.17200000000E+03 0. -1.
         -6    1    1    2    0  502  0.81944407351E+02 -0.29691046970E+02  0.13493052662E+02  0.19329383497E+03  0.17200000000E+03 0.  1.
</event>
<event>
 4    1 -0.3305908E-004  0.2130987E+03  0.7818608E-02  0.1139135E+00
          5   -1    0    0  501    0  0.00000000000E+00  0.00000000000E+00  0.27043385319E+03  0.27047469188E+03  0.47000000000E+01 0. -1.
         -5   -1    0    0    0  501 -0.00000000000E+00 -0.00000000000E+00 -0.20504261521E+03  0.20509647498E+03  0.47000000000E+01 0.  1.
          6    1    1    2  502    0 -0.12473202943E+03  0.16400310768E+02 -0.68575459513E+02  0.22386076701E+03  0.17200000000E+03 0.  1.
         -6    1    1    2    0  502  0.12473202943E+03 -0.16400310768E+02  0.13396669749E+03  0.25171039986E+03  0.17200000000E+03 0. -1.
</event>
<event>
 4    1 -0.3305908E-004  0.6529758E+03  0.7818608E-02  0.9801211E-01
         -5   -1    0    0    0  501 -0.00000000000E+00  0.00000000000E+00  0.45762157574E+03  0.45764571077E+03  0.47000000000E+01 0.  1.
          5   -1    0    0  501    0  0.00000000000E+00 -0.00000000000E+00 -0.93672485868E+03  0.93673664969E+03  0.47000000000E+01 0. -1.
          6    1    1    2  502    0  0.48414731559E+03 -0.40298235212E+03 -0.29076487047E+03  0.71478780712E+03  0.17200000000E+03 0. -1.
         -6    1    1    2    0  502 -0.48414731559E+03  0.40298235212E+03 -0.18833841247E+03  0.67959455334E+03  0.17200000000E+03 0.  1.
</event>
<event>
 4    1 -0.3305908E-004  0.2428687E+03  0.7818608E-02  0.1117896E+00
         -5   -1    0    0    0  501 -0.00000000000E+00  0.00000000000E+00  0.21103588343E+04  0.21103640680E+04  0.47000000000E+01 0.  1.
          5   -1    0    0  501    0  0.00000000000E+00 -0.00000000000E+00 -0.27751263780E+02  0.28146449890E+02  0.47000000000E+01 0. -1.
          6    1    1    2  502    0  0.16510699634E+03  0.46269887761E+02  0.10288422005E+04  0.10571194333E+04  0.17200000000E+03 0. -1.
         -6    1    1    2    0  502 -0.16510699634E+03 -0.46269887761E+02  0.10537653701E+04  0.10813910846E+04  0.17200000000E+03 0.  1.
</event>
<event>
 4    1 -0.3305908E-004  0.2739165E+03  0.7818608E-02  0.1099059E+00
          5   -1    0    0  501    0  0.00000000000E+00  0.00000000000E+00  0.31070452614E+03  0.31074007235E+03  0.47000000000E+01 0. -1.
         -5   -1    0    0    0  501 -0.00000000000E+00 -0.00000000000E+00 -0.40878998163E+03  0.40881699950E+03  0.47000000000E+01 0.  1.
          6    1    1    2  502    0 -0.91864123701E+02 -0.19237258030E+03  0.18115241628E+03  0.32839979415E+03  0.17200000000E+03 0. -1.
         -6    1    1    2    0  502  0.91864123701E+02  0.19237258030E+03 -0.27923787176E+03  0.39115727770E+03  0.17200000000E+03 0.  1.
</event>
<event>
 4    1 -0.3305908E-004  0.1930057E+03  0.7818608E-02  0.1155778E+00
         -5   -1    0    0    0  501 -0.00000000000E+00  0.00000000000E+00  0.78157854019E+02  0.78299043065E+02  0.47000000000E+01 0.  1.
          5   -1    0    0  501    0  0.00000000000E+00 -0.00000000000E+00 -0.50027379733E+03  0.50029587475E+03  0.47000000000E+01 0. -1.
          6    1    1    2  502    0  0.57964078052E+02  0.65630531853E+02 -0.27473044297E+03  0.33574993276E+03  0.17200000000E+03 0. -1.
         -6    1    1    2    0  502 -0.57964078052E+02 -0.65630531853E+02 -0.14738550034E+03  0.24284498505E+03  0.17200000000E+03 0.  1.
</event>
<event>
 4    1 -0.3305908E-004  0.1820011E+03  0.7818608E-02  0.1165880E+00
          5   -1    0    0  501    0  0.00000000000E+00  0.00000000000E+00  0.84961977962E+02  0.85091877986E+02  0.47000000000E+01 0. -1.
         -5   -1    0    0    0  501 -0.00000000000E+00 -0.00000000000E+00 -0.41002768104E+03  0.41005461736E+03  0.47000000000E+01 0.  1.
          6    1    1    2  502    0  0.12003781198E+02 -0.58277857951E+02 -0.10705635119E+03  0.21115269788E+03  0.17200000000E+03 0. -1.
         -6    1    1    2    0  502 -0.12003781198E+02  0.58277857951E+02 -0.21800935189E+03  0.28399379747E+03  0.17200000000E+03 0.  1.
</event>
<event>
 4    1 -0.3305908E-004  0.2439351E+03  0.7818608E-02  0.1117199E+00
         -5   -1    0    0    0  501 -0.00000000000E+00  0.00000000000E+00  0.16368657139E+03  0.16375403401E+03  0.47000000000E+01 0.  1.
          5   -1    0    0  501    0  0.00000000000E+00 -0.00000000000E+00 -0.57648382055E+03  0.57650297948E+03  0.47000000000E+01 0. -1.
          6    1    1    2  502    0  0.14694026004E+03  0.91262812151E+02 -0.43142401564E+03  0.49561176557E+03  0.17200000000E+03 0. -1.
         -6    1    1    2    0  502 -0.14694026004E+03 -0.91262812151E+02  0.18626766480E+02  0.24464524792E+03  0.17200000000E+03 0.  1.
</event>
<event>
 4    1 -0.3305908E-004  0.1793253E+03  0.7818608E-02  0.1168458E+00
          5   -1    0    0  501    0  0.00000000000E+00  0.00000000000E+00  0.23729522542E+03  0.23734176625E+03  0.47000000000E+01 0. -1.
         -5   -1    0    0    0  501 -0.00000000000E+00 -0.00000000000E+00 -0.15332984363E+03  0.15340186096E+03  0.47000000000E+01 0.  1.
          6    1    1    2  502    0 -0.41312190861E+02 -0.29442835267E+02 -0.24768874291E+02  0.18102782879E+03  0.17200000000E+03 0.  1.
         -6    1    1    2    0  502  0.41312190861E+02  0.29442835267E+02  0.10873425608E+03  0.20971579842E+03  0.17200000000E+03 0. -1.
</event>
<event>
 4    1 -0.3305908E-004  0.2595078E+03  0.7818608E-02  0.1107439E+00
         -5   -1    0    0    0  501 -0.00000000000E+00  0.00000000000E+00  0.10702531779E+04  0.10702634978E+04  0.47000000000E+01 0.  1.
          5   -1    0    0  501    0  0.00000000000E+00 -0.00000000000E+00 -0.64225182612E+02  0.64396926025E+02  0.47000000000E+01 0. -1.
          6    1    1    2  502    0 -0.18464652723E+03 -0.60547200018E+02  0.41937545446E+03  0.49317347379E+03  0.17200000000E+03 0. -1.
         -6    1    1    2    0  502  0.18464652723E+03  0.60547200018E+02  0.58665254081E+03  0.64148695006E+03  0.17200000000E+03 0.  1.
</event>
<event>
 4    1 -0.3305908E-004  0.2784399E+03  0.7818608E-02  0.1096544E+00
          5   -1    0    0  501    0  0.00000000000E+00  0.00000000000E+00  0.22354880546E+03  0.22359820756E+03  0.47000000000E+01 0. -1.
         -5   -1    0    0    0  501 -0.00000000000E+00 -0.00000000000E+00 -0.34700376430E+03  0.34703559247E+03  0.47000000000E+01 0.  1.
          6    1    1    2  502    0 -0.21202599248E+03  0.54678787951E+02 -0.53364842273E+02  0.28350766785E+03  0.17200000000E+03 0. -1.
         -6    1    1    2    0  502  0.21202599248E+03 -0.54678787951E+02 -0.70090116565E+02  0.28712613218E+03  0.17200000000E+03 0. -1.
</event>
<event>
 4    1 -0.3305908E-004  0.3360766E+03  0.7818608E-02  0.1068479E+00
         -5   -1    0    0    0  501 -0.00000000000E+00  0.00000000000E+00  0.91584334068E+03  0.91585540053E+03  0.47000000000E+01 0.  1.
          5   -1    0    0  501    0  0.00000000000E+00 -0.00000000000E+00 -0.12493306864E+03  0.12502144472E+03  0.47000000000E+01 0. -1.
          6    1    1    2  502    0  0.16117594441E+03 -0.23955333446E+03  0.45550325440E+03  0.56606598545E+03  0.17200000000E+03 0. -1.
         -6    1    1    2    0  502 -0.16117594441E+03  0.23955333446E+03  0.33540701764E+03  0.47481085981E+03  0.17200000000E+03 0.  1.
</event>
<event>
 4    1 -0.3305908E-004  0.2444352E+03  0.7818608E-02  0.1116873E+00
         -5   -1    0    0    0  501 -0.00000000000E+00  0.00000000000E+00  0.25708818483E+03  0.25713114316E+03  0.47000000000E+01 0.  1.
          5   -1    0    0  501    0  0.00000000000E+00 -0.00000000000E+00 -0.33504526133E+03  0.33507822540E+03  0.47000000000E+01 0. -1.
          6    1    1    2  502    0  0.72187646820E+02  0.15796682855E+03 -0.20291693874E+03  0.31768515751E+03  0.17200000000E+03 0. -1.
         -6    1    1    2    0  502 -0.72187646820E+02 -0.15796682855E+03  0.12495986225E+03  0.27452421104E+03  0.17200000000E+03 0.  1.
</event>
<event>
 4    1 -0.3305908E-004  0.2098131E+03  0.7818608E-02  0.1141714E+00
          5   -1    0    0  501    0  0.00000000000E+00  0.00000000000E+00  0.13341043627E+03  0.13349320023E+03  0.47000000000E+01 0. -1.
         -5   -1    0    0    0  501 -0.00000000000E+00 -0.00000000000E+00 -0.34986159945E+03  0.34989316765E+03  0.47000000000E+01 0.  1.
          6    1    1    2  502    0  0.33091789217E+02 -0.11550959563E+03 -0.16613702411E+03  0.26762481943E+03  0.17200000000E+03 0. -1.
         -6    1    1    2    0  502 -0.33091789217E+02  0.11550959563E+03 -0.50314139069E+02  0.21576154844E+03  0.17200000000E+03 0. -1.
</event>
<event>
 4    1 -0.3305908E-004  0.1787416E+03  0.7818608E-02  0.1169027E+00
         -5   -1    0    0    0  501 -0.00000000000E+00  0.00000000000E+00  0.90095439622E+02  0.90217948551E+02  0.47000000000E+01 0.  1.
          5   -1    0    0  501    0  0.00000000000E+00 -0.00000000000E+00 -0.36765164510E+03  0.36768168590E+03  0.47000000000E+01 0. -1.
          6    1    1    2  502    0  0.17761261134E+02  0.45266941844E+02 -0.95040778353E+02  0.20243840538E+03  0.17200000000E+03 0.  1.
         -6    1    1    2    0  502 -0.17761261134E+02 -0.45266941844E+02 -0.18251542712E+03  0.25546122907E+03  0.17200000000E+03 0. -1.
</event>
<event>
 4    1 -0.3305908E-004  0.1980724E+03  0.7818608E-02  0.1151376E+00
         -5   -1    0    0    0  501 -0.00000000000E+00  0.00000000000E+00  0.14016467649E+03  0.14024345452E+03  0.47000000000E+01 0.  1.
          5   -1    0    0  501    0  0.00000000000E+00 -0.00000000000E+00 -0.50732085352E+03  0.50734262428E+03  0.47000000000E+01 0. -1.
          6    1    1    2  502    0 -0.95496029225E+02 -0.23004025948E+02 -0.40042816693E+03  0.44673861897E+03  0.17200000000E+03 0. -1.
         -6    1    1    2    0  502  0.95496029225E+02  0.23004025948E+02  0.33271989903E+02  0.20084745983E+03  0.17200000000E+03 0.  1.
</event>
<event>
 4    1 -0.3305908E-004  0.1805348E+03  0.7818608E-02  0.1167286E+00
          5   -1    0    0  501    0  0.00000000000E+00  0.00000000000E+00  0.19162466994E+03  0.19168229999E+03  0.47000000000E+01 0. -1.
         -5   -1    0    0    0  501 -0.00000000000E+00 -0.00000000000E+00 -0.20244026852E+03  0.20249482047E+03  0.47000000000E+01 0.  1.
          6    1    1    2  502    0  0.46118156807E+02  0.29697529118E+02  0.73500479093E+02  0.19492344151E+03  0.17200000000E+03 0. -1.
         -6    1    1    2    0  502 -0.46118156807E+02 -0.29697529118E+02 -0.84316077670E+02  0.19925367895E+03  0.17200000000E+03 0.  1.
</event>
<event>
 4    1 -0.3305908E-004  0.3729450E+03  0.7818608E-02  0.1053573E+00
          5   -1    0    0  501    0  0.00000000000E+00  0.00000000000E+00  0.31450034637E+03  0.31453546360E+03  0.47000000000E+01 0. -1.
         -5   -1    0    0    0  501 -0.00000000000E+00 -0.00000000000E+00 -0.45929675318E+03  0.45932080019E+03  0.47000000000E+01 0.  1.
          6    1    1    2  502    0 -0.11189626338E+03  0.31142130673E+03  0.22958698919E+01  0.37295210827E+03  0.17200000000E+03 0. -1.
         -6    1    1    2    0  502  0.11189626338E+03 -0.31142130673E+03 -0.14709227671E+03  0.40090415552E+03  0.17200000000E+03 0.  1.
</event>
<event>
 4    1 -0.3305908E-004  0.1844855E+03  0.7818608E-02  0.1163531E+00
          5   -1    0    0  501    0  0.00000000000E+00  0.00000000000E+00  0.14303210178E+03  0.14310930137E+03  0.47000000000E+01 0. -1.
         -5   -1    0    0    0  501 -0.00000000000E+00 -0.00000000000E+00 -0.32440178346E+03  0.32443582896E+03  0.47000000000E+01 0.  1.
          6    1    1    2  502    0  0.19898148421E+02  0.63678571978E+02  0.30087156554E+02  0.18692280179E+03  0.17200000000E+03 0. -1.
         -6    1    1    2    0  502 -0.19898148421E+02 -0.63678571978E+02 -0.21145683823E+03  0.28062232854E+03  0.17200000000E+03 0.  1.
</event>
<event>
 4    1 -0.3305908E-004  0.2526512E+03  0.7818608E-02  0.1111641E+00
         -5   -1    0    0    0  501 -0.00000000000E+00  0.00000000000E+00  0.57115088086E+03  0.57117021868E+03  0.47000000000E+01 0.  1.
          5   -1    0    0  501    0  0.00000000000E+00 -0.00000000000E+00 -0.11765545469E+03  0.11774929307E+03  0.47000000000E+01 0. -1.
          6    1    1    2  502    0 -0.72600296150E+02 -0.17022877765E+03  0.14922793717E+03  0.29343077032E+03  0.17200000000E+03 0. -1.
         -6    1    1    2    0  502  0.72600296150E+02  0.17022877765E+03  0.30426748900E+03  0.39548874143E+03  0.17200000000E+03 0.  1.
</event>
<event>
 4    1 -0.3305908E-004  0.2162579E+03  0.7818608E-02  0.1136704E+00
         -5   -1    0    0    0  501 -0.00000000000E+00  0.00000000000E+00  0.12667616778E+04  0.12667703969E+04  0.47000000000E+01 0.  1.
          5   -1    0    0  501    0  0.00000000000E+00 -0.00000000000E+00 -0.37684859178E+02  0.37976816760E+02  0.47000000000E+01 0. -1.
          6    1    1    2  502    0  0.11869140161E+03  0.55640379926E+02  0.71630202090E+03  0.74823531448E+03  0.17200000000E+03 0. -1.
         -6    1    1    2    0  502 -0.11869140161E+03 -0.55640379926E+02  0.51277479775E+03  0.55651189915E+03  0.17200000000E+03 0. -1.
</event>
<event>
 4    1 -0.3305908E-004  0.1960955E+03  0.7818608E-02  0.1153076E+00
          5   -1    0    0  501    0  0.00000000000E+00  0.00000000000E+00  0.63850929743E+02  0.64023677097E+02  0.47000000000E+01 0. -1.
         -5   -1    0    0    0  501 -0.00000000000E+00 -0.00000000000E+00 -0.74871030887E+03  0.74872506076E+03  0.47000000000E+01 0.  1.
          6    1    1    2  502    0  0.50244770095E+02 -0.79654910646E+02 -0.16210156446E+03  0.25442161644E+03  0.17200000000E+03 0. -1.
         -6    1    1    2    0  502 -0.50244770095E+02  0.79654910646E+02 -0.52275781467E+03  0.55832712142E+03  0.17200000000E+03 0.  1.
</event>
<event>
 4    1 -0.3305908E-004  0.2607048E+03  0.7818608E-02  0.1106721E+00
          5   -1    0    0  501    0  0.00000000000E+00  0.00000000000E+00  0.23512700707E+03  0.23517397699E+03  0.47000000000E+01 0. -1.
         -5   -1    0    0    0  501 -0.00000000000E+00 -0.00000000000E+00 -0.37529068839E+03  0.37532011775E+03  0.47000000000E+01 0.  1.
          6    1    1    2  502    0 -0.18891041894E+03 -0.51921438277E+02  0.76296972239E+02  0.27163985369E+03  0.17200000000E+03 0. -1.
         -6    1    1    2    0  502  0.18891041894E+03  0.51921438277E+02 -0.21646065356E+03  0.33885424105E+03  0.17200000000E+03 0.  1.
</event>
<event>
 4    1 -0.3305908E-004  0.1946282E+03  0.7818608E-02  0.1154352E+00
         -5   -1    0    0    0  501 -0.00000000000E+00  0.00000000000E+00  0.22418444857E+03  0.22423371063E+03  0.47000000000E+01 0.  1.
          5   -1    0    0  501    0  0.00000000000E+00 -0.00000000000E+00 -0.19429866661E+03  0.19435550378E+03  0.47000000000E+01 0. -1.
          6    1    1    2  502    0  0.69946520603E+02 -0.58340445271E+02 -0.60754056503E+02  0.20389011423E+03  0.17200000000E+03 0.  1.
         -6    1    1    2    0  502 -0.69946520603E+02  0.58340445271E+02  0.90639838460E+02  0.21469910017E+03  0.17200000000E+03 0. -1.
</event>
<event>
 4    1 -0.3305908E-004  0.2064966E+03  0.7818608E-02  0.1144371E+00
          5   -1    0    0  501    0  0.00000000000E+00  0.00000000000E+00  0.40879907958E+03  0.40882609685E+03  0.47000000000E+01 0. -1.
         -5   -1    0    0    0  501 -0.00000000000E+00 -0.00000000000E+00 -0.15074205825E+03  0.15081531131E+03  0.47000000000E+01 0.  1.
          6    1    1    2  502    0 -0.90132592640E+02  0.70235073035E+02  0.28441193536E+03  0.35146976928E+03  0.17200000000E+03 0. -1.
         -6    1    1    2    0  502  0.90132592640E+02 -0.70235073035E+02 -0.26354914025E+02  0.20817163888E+03  0.17200000000E+03 0.  1.
</event>
<event>
 4    1 -0.3305908E-004  0.1814029E+03  0.7818608E-02  0.1166452E+00
         -5   -1    0    0    0  501 -0.00000000000E+00  0.00000000000E+00  0.89204621369E+02  0.89328352014E+02  0.47000000000E+01 0.  1.
          5   -1    0    0  501    0  0.00000000000E+00 -0.00000000000E+00 -0.49680453623E+03  0.49682676782E+03  0.47000000000E+01 0. -1.
          6    1    1    2  502    0  0.28963288792E+02  0.49841173529E+02 -0.54882154133E+02  0.18952325852E+03  0.17200000000E+03 0.  1.
         -6    1    1    2    0  502 -0.28963288792E+02 -0.49841173529E+02 -0.35271776073E+03  0.39663186132E+03  0.17200000000E+03 0. -1.
</event>
<event>
 4    1 -0.3305908E-004  0.2491501E+03  0.7818608E-02  0.1113843E+00
         -5   -1    0    0    0  501 -0.00000000000E+00  0.00000000000E+00  0.49722961498E+02  0.49944598308E+02  0.47000000000E+01 0.  1.
          5   -1    0    0  501    0  0.00000000000E+00 -0.00000000000E+00 -0.12463833309E+04  0.12463921925E+04  0.47000000000E+01 0. -1.
          6    1    1    2  502    0 -0.15692859597E+03 -0.88685802964E+02 -0.61625361999E+03  0.66471368275E+03  0.17200000000E+03 0. -1.
         -6    1    1    2    0  502  0.15692859597E+03  0.88685802964E+02 -0.58040674938E+03  0.63162310803E+03  0.17200000000E+03 0.  1.
</event>
<event>
 4    1 -0.3305908E-004  0.1822609E+03  0.7818608E-02  0.1165633E+00
         -5   -1    0    0    0  501 -0.00000000000E+00  0.00000000000E+00  0.47619768990E+03  0.47622088349E+03  0.47000000000E+01 0.  1.
          5   -1    0    0  501    0  0.00000000000E+00 -0.00000000000E+00 -0.73793805424E+02  0.73943327751E+02  0.47000000000E+01 0. -1.
          6    1    1    2  502    0 -0.33835685397E+02 -0.49901765020E+02  0.26627146407E+03  0.32267558373E+03  0.17200000000E+03 0.  1.
         -6    1    1    2    0  502  0.33835685397E+02  0.49901765020E+02  0.13613242041E+03  0.22748862751E+03  0.17200000000E+03 0. -1.
</event>
<event>
 4    1 -0.3305908E-004  0.2942717E+03  0.7818608E-02  0.1088140E+00
         -5   -1    0    0    0  501 -0.00000000000E+00  0.00000000000E+00  0.78281864923E+03  0.78283275837E+03  0.47000000000E+01 0.  1.
          5   -1    0    0  501    0  0.00000000000E+00 -0.00000000000E+00 -0.11890459812E+03  0.11899745146E+03  0.47000000000E+01 0. -1.
          6    1    1    2  502    0 -0.10435447263E+03 -0.21476029551E+03  0.21252718179E+03  0.36299262180E+03  0.17200000000E+03 0. -1.
         -6    1    1    2    0  502  0.10435447263E+03  0.21476029551E+03  0.45138686932E+03  0.53883758803E+03  0.17200000000E+03 0.  1.
</event>
<event>
 4    1 -0.3305908E-004  0.2512209E+03  0.7818608E-02  0.1112536E+00
          5   -1    0    0  501    0  0.00000000000E+00  0.00000000000E+00  0.23251052304E+03  0.23255802142E+03  0.47000000000E+01 0. -1.
         -5   -1    0    0    0  501 -0.00000000000E+00 -0.00000000000E+00 -0.63434078317E+03  0.63435819471E+03  0.47000000000E+01 0.  1.
          6    1    1    2  502    0  0.46107527861E+02  0.17720614539E+03  0.12696313639E+03  0.28148101195E+03  0.17200000000E+03 0. -1.
         -6    1    1    2    0  502 -0.46107527861E+02 -0.17720614539E+03 -0.52879339652E+03  0.58543520418E+03  0.17200000000E+03 0.  1.
</event>
<event>
 4    1 -0.3305908E-004  0.2518926E+03  0.7818608E-02  0.1112115E+00
         -5   -1    0    0    0  501 -0.00000000000E+00  0.00000000000E+00  0.11080898491E+04  0.11080998166E+04  0.47000000000E+01 0.  1.
          5   -1    0    0  501    0  0.00000000000E+00 -0.00000000000E+00 -0.57220198536E+02  0.57412900296E+02  0.47000000000E+01 0. -1.
          6    1    1    2  502    0 -0.14916251114E+03 -0.10777944945E+03  0.54523780406E+03  0.60061146128E+03  0.17200000000E+03 0. -1.
         -6    1    1    2    0  502  0.14916251114E+03  0.10777944945E+03  0.50563184649E+03  0.56490125565E+03  0.17200000000E+03 0.  1.
</event>
<event>
 4    1 -0.3305908E-004  0.1739556E+03  0.7818608E-02  0.1173784E+00
          5   -1    0    0  501    0  0.00000000000E+00  0.00000000000E+00  0.10104440492E+03  0.10115365424E+03  0.47000000000E+01 0. -1.
         -5   -1    0    0    0  501 -0.00000000000E+00 -0.00000000000E+00 -0.30244766531E+03  0.30248418182E+03  0.47000000000E+01 0.  1.
          6    1    1    2  502    0 -0.19590615097E+02 -0.17110131885E+02 -0.12164782138E+03  0.21227044368E+03  0.17200000000E+03 0. -1.
         -6    1    1    2    0  502  0.19590615097E+02  0.17110131885E+02 -0.79755439008E+02  0.19136739237E+03  0.17200000000E+03 0. -1.
</event>
<event>
 4    1 -0.3305908E-004  0.1739877E+03  0.7818608E-02  0.1173752E+00
          5   -1    0    0  501    0  0.00000000000E+00  0.00000000000E+00  0.47769847878E+02  0.48000503813E+02  0.47000000000E+01 0. -1.
         -5   -1    0    0    0  501 -0.00000000000E+00 -0.00000000000E+00 -0.64501350356E+03  0.64503062700E+03  0.47000000000E+01 0.  1.
          6    1    1    2  502    0 -0.23404554390E+02  0.11830488685E+02 -0.24928729281E+03  0.30399981577E+03  0.17200000000E+03 0. -1.
         -6    1    1    2    0  502  0.23404554390E+02 -0.11830488685E+02 -0.34795636287E+03  0.38903131505E+03  0.17200000000E+03 0.  1.
</event>
<event>
 4    1 -0.3305908E-004  0.1850577E+03  0.7818608E-02  0.1162996E+00
         -5   -1    0    0    0  501 -0.00000000000E+00  0.00000000000E+00  0.19932540761E+04  0.19932596173E+04  0.47000000000E+01 0.  1.
          5   -1    0    0  501    0  0.00000000000E+00 -0.00000000000E+00 -0.16867163856E+02  0.17509746330E+02  0.47000000000E+01 0. -1.
          6    1    1    2  502    0 -0.64653980813E+02 -0.21959134776E+02  0.96065621297E+03  0.97831830217E+03  0.17200000000E+03 0. -1.
         -6    1    1    2    0  502  0.64653980813E+02  0.21959134776E+02  0.10157306993E+04  0.10324510615E+04  0.17200000000E+03 0.  1.
</event>
<event>
 4    1 -0.3305908E-004  0.3344522E+03  0.7818608E-02  0.1069184E+00
          5   -1    0    0  501    0  0.00000000000E+00  0.00000000000E+00  0.19727845347E+03  0.19733443238E+03  0.47000000000E+01 0. -1.
         -5   -1    0    0    0  501 -0.00000000000E+00 -0.00000000000E+00 -0.60026031267E+03  0.60027871274E+03  0.47000000000E+01 0.  1.
          6    1    1    2  502    0  0.21673642304E+03 -0.18788179769E+03 -0.29555759229E+03  0.44633231715E+03  0.17200000000E+03 0. -1.
         -6    1    1    2    0  502 -0.21673642304E+03  0.18788179769E+03 -0.10742426691E+03  0.35128082796E+03  0.17200000000E+03 0. -1.
</event>
<event>
 4    1 -0.3305908E-004  0.1854277E+03  0.7818608E-02  0.1162651E+00
          5   -1    0    0  501    0  0.00000000000E+00  0.00000000000E+00  0.75277687616E+03  0.75279154836E+03  0.47000000000E+01 0. -1.
         -5   -1    0    0    0  501 -0.00000000000E+00 -0.00000000000E+00 -0.45681419123E+02  0.45922565838E+02  0.47000000000E+01 0.  1.
          6    1    1    2  502    0 -0.19224170216E+02 -0.66557155205E+02  0.37575384303E+03  0.41901595934E+03  0.17200000000E+03 0.  1.
         -6    1    1    2    0  502  0.19224170216E+02  0.66557155205E+02  0.33134161400E+03  0.37969815485E+03  0.17200000000E+03 0.  1.
</event>
<event>
 4    1 -0.3305908E-004  0.2939568E+03  0.7818608E-02  0.1088301E+00
          5   -1    0    0  501    0  0.00000000000E+00  0.00000000000E+00  0.23184494620E+03  0.23189258090E+03  0.47000000000E+01 0. -1.
         -5   -1    0    0    0  501 -0.00000000000E+00 -0.00000000000E+00 -0.47476760424E+03  0.47479086768E+03  0.47000000000E+01 0.  1.
          6    1    1    2  502    0  0.22061267882E+03  0.90314001701E+02  0.42431781610E+02  0.29700341589E+03  0.17200000000E+03 0. -1.
         -6    1    1    2    0  502 -0.22061267882E+03 -0.90314001701E+02 -0.28535443965E+03  0.40968003270E+03  0.17200000000E+03 0.  1.
</event>
<event>
 4    1 -0.3305908E-004  0.1812332E+03  0.7818608E-02  0.1166615E+00
         -5   -1    0    0    0  501 -0.00000000000E+00  0.00000000000E+00  0.26637129494E+04  0.26637170958E+04  0.47000000000E+01 0.  1.
          5   -1    0    0  501    0  0.00000000000E+00 -0.00000000000E+00 -0.14244949038E+02  0.15000285767E+02  0.47000000000E+01 0. -1.
          6    1    1    2  502    0 -0.30062094700E+02  0.48556610100E+02  0.79407605537E+03  0.81449509245E+03  0.17200000000E+03 0. -1.
         -6    1    1    2    0  502  0.30062094700E+02 -0.48556610100E+02  0.18553919450E+04  0.18642222892E+04  0.17200000000E+03 0.  1.
</event>
<event>
 4    1 -0.3305908E-004  0.1750992E+03  0.7818608E-02  0.1172632E+00
          5   -1    0    0  501    0  0.00000000000E+00  0.00000000000E+00  0.25328743064E+02  0.25761118478E+02  0.47000000000E+01 0. -1.
         -5   -1    0    0    0  501 -0.00000000000E+00 -0.00000000000E+00 -0.12082641582E+04  0.12082732994E+04  0.47000000000E+01 0.  1.
          6    1    1    2  502    0  0.13918727258E+01 -0.32768864733E+02 -0.53980639251E+03  0.56749509002E+03  0.17200000000E+03 0.  1.
         -6    1    1    2    0  502 -0.13918727258E+01  0.32768864733E+02 -0.64312902264E+03  0.66653932785E+03  0.17200000000E+03 0. -1.
</event>
<event>
 4    1 -0.3305908E-004  0.2750147E+03  0.7818608E-02  0.1098443E+00
         -5   -1    0    0    0  501 -0.00000000000E+00  0.00000000000E+00  0.35441109878E+03  0.35444226178E+03  0.47000000000E+01 0.  1.
          5   -1    0    0  501    0  0.00000000000E+00 -0.00000000000E+00 -0.30032485497E+03  0.30036162956E+03  0.47000000000E+01 0. -1.
          6    1    1    2  502    0  0.21433350514E+03 -0.10500404696E+02 -0.14913679586E+03  0.31284963449E+03  0.17200000000E+03 0. -1.
         -6    1    1    2    0  502 -0.21433350514E+03  0.10500404696E+02  0.20322303967E+03  0.34195425685E+03  0.17200000000E+03 0.  1.
</event>
<event>
 4    1 -0.3305908E-004  0.1932553E+03  0.7818608E-02  0.1155558E+00
         -5   -1    0    0    0  501 -0.00000000000E+00  0.00000000000E+00  0.41917329700E+02  0.42180001532E+02  0.47000000000E+01 0.  1.
          5   -1    0    0  501    0  0.00000000000E+00 -0.00000000000E+00 -0.89216196278E+03  0.89217434273E+03  0.47000000000E+01 0. -1.
          6    1    1    2  502    0 -0.19310079451E+01  0.88090099015E+02 -0.39295276468E+03  0.43790349349E+03  0.17200000000E+03 0. -1.
         -6    1    1    2    0  502  0.19310079451E+01 -0.88090099015E+02 -0.45729186840E+03  0.49645085078E+03  0.17200000000E+03 0.  1.
</event>
<event>
 4    1 -0.3305908E-004  0.1736401E+03  0.7818608E-02  0.1174104E+00
          5   -1    0    0  501    0  0.00000000000E+00  0.00000000000E+00  0.15520651073E+04  0.15520722236E+04  0.47000000000E+01 0. -1.
         -5   -1    0    0    0  501 -0.00000000000E+00 -0.00000000000E+00 -0.19183177717E+02  0.19750552076E+02  0.47000000000E+01 0.  1.
          6    1    1    2  502    0 -0.35810693799E+01  0.23538137265E+02  0.72753037674E+03  0.74796478329E+03  0.17200000000E+03 0.  1.
         -6    1    1    2    0  502  0.35810693799E+01 -0.23538137265E+02  0.80535155280E+03  0.82385799235E+03  0.17200000000E+03 0.  1.
</event>
<event>
 4    1 -0.3305908E-004  0.2758826E+03  0.7818608E-02  0.1097959E+00
         -5   -1    0    0    0  501 -0.00000000000E+00  0.00000000000E+00  0.29158095626E+03  0.29161883350E+03  0.47000000000E+01 0.  1.
          5   -1    0    0  501    0  0.00000000000E+00 -0.00000000000E+00 -0.29337993578E+03  0.29341758079E+03  0.47000000000E+01 0. -1.
          6    1    1    2  502    0  0.90485120040E+02 -0.19580520417E+03 -0.98136041031E+02  0.29281720831E+03  0.17200000000E+03 0. -1.
         -6    1    1    2    0  502 -0.90485120040E+02  0.19580520417E+03  0.96337061511E+02  0.29221920599E+03  0.17200000000E+03 0.  1.
</event>
<event>
 4    1 -0.3305908E-004  0.1733820E+03  0.7818608E-02  0.1174366E+00
          5   -1    0    0  501    0  0.00000000000E+00  0.00000000000E+00  0.32216854691E+03  0.32220282838E+03  0.47000000000E+01 0. -1.
         -5   -1    0    0    0  501 -0.00000000000E+00 -0.00000000000E+00 -0.16489509495E+03  0.16496206333E+03  0.47000000000E+01 0.  1.
          6    1    1    2  502    0  0.16692636915E+02 -0.14095385997E+02  0.23917803848E+03  0.29541066014E+03  0.17200000000E+03 0. -1.
         -6    1    1    2    0  502 -0.16692636915E+02  0.14095385997E+02 -0.81904586517E+02  0.19175423157E+03  0.17200000000E+03 0.  1.
</event>
<event>
 4    1 -0.3305908E-004  0.2482451E+03  0.7818608E-02  0.1114419E+00
         -5   -1    0    0    0  501 -0.00000000000E+00  0.00000000000E+00  0.22480303040E+03  0.22485215694E+03  0.47000000000E+01 0.  1.
          5   -1    0    0  501    0  0.00000000000E+00 -0.00000000000E+00 -0.73516259526E+03  0.73517761899E+03  0.47000000000E+01 0. -1.
          6    1    1    2  502    0  0.14254183103E+03  0.10827490576E+03 -0.63532723906E+03  0.68210433916E+03  0.17200000000E+03 0. -1.
         -6    1    1    2    0  502 -0.14254183103E+03 -0.10827490576E+03  0.12496767420E+03  0.27792543677E+03  0.17200000000E+03 0.  1.
</event>
<event>
 4    1 -0.3305908E-004  0.2348823E+03  0.7818608E-02  0.1123250E+00
         -5   -1    0    0    0  501 -0.00000000000E+00  0.00000000000E+00  0.13978624184E+03  0.13986523302E+03  0.47000000000E+01 0.  1.
          5   -1    0    0  501    0  0.00000000000E+00 -0.00000000000E+00 -0.39450936159E+03  0.39453735740E+03  0.47000000000E+01 0. -1.
          6    1    1    2  502    0 -0.63206594707E+02 -0.14693744405E+03 -0.12460338132E+03  0.26588660876E+03  0.17200000000E+03 0. -1.
         -6    1    1    2    0  502  0.63206594707E+02  0.14693744405E+03 -0.13011973843E+03  0.26851598166E+03  0.17200000000E+03 0. -1.
</event>
<event>
 4    1 -0.3305908E-004  0.2579849E+03  0.7818608E-02  0.1108360E+00
         -5   -1    0    0    0  501 -0.00000000000E+00  0.00000000000E+00  0.22411951162E+03  0.22416878794E+03  0.47000000000E+01 0.  1.
          5   -1    0    0  501    0  0.00000000000E+00 -0.00000000000E+00 -0.30693421985E+03  0.30697020265E+03  0.47000000000E+01 0. -1.
          6    1    1    2  502    0 -0.19189491386E+03 -0.12187695566E+02 -0.89496971621E+02  0.27306758471E+03  0.17200000000E+03 0. -1.
         -6    1    1    2    0  502  0.19189491386E+03  0.12187695566E+02  0.66822633929E+01  0.25807140588E+03  0.17200000000E+03 0.  1.
</event>
<event>
 4    1 -0.3305908E-004  0.1735198E+03  0.7818608E-02  0.1174226E+00
          5   -1    0    0  501    0  0.00000000000E+00  0.00000000000E+00  0.73155368698E+02  0.73306193253E+02  0.47000000000E+01 0. -1.
         -5   -1    0    0    0  501 -0.00000000000E+00 -0.00000000000E+00 -0.41412481388E+03  0.41415148373E+03  0.47000000000E+01 0.  1.
          6    1    1    2  502    0 -0.16414112502E+02  0.15990905623E+02 -0.19168637299E+03  0.25855907979E+03  0.17200000000E+03 0.  1.
         -6    1    1    2    0  502  0.16414112502E+02 -0.15990905623E+02 -0.14928307220E+03  0.22889859719E+03  0.17200000000E+03 0. -1.
</event>
<event>
 4    1 -0.3305908E-004  0.1726491E+03  0.7818608E-02  0.1175113E+00
          5   -1    0    0  501    0  0.00000000000E+00  0.00000000000E+00  0.59829612403E+02  0.60013936051E+02  0.47000000000E+01 0. -1.
         -5   -1    0    0    0  501 -0.00000000000E+00 -0.00000000000E+00 -0.53484790733E+03  0.53486855766E+03  0.47000000000E+01 0.  1.
          6    1    1    2  502    0 -0.13592933653E+02  0.62411269513E+01 -0.15866064918E+03  0.23448010813E+03  0.17200000000E+03 0. -1.
         -6    1    1    2    0  502  0.13592933653E+02 -0.62411269513E+01 -0.31635764574E+03  0.36040238558E+03  0.17200000000E+03 0.  1.
</event>
<event>
 4    1 -0.3305908E-004  0.2636065E+03  0.7818608E-02  0.1104996E+00
          5   -1    0    0  501    0  0.00000000000E+00  0.00000000000E+00  0.11368060952E+03  0.11377772620E+03  0.47000000000E+01 0. -1.
         -5   -1    0    0    0  501 -0.00000000000E+00 -0.00000000000E+00 -0.66266359383E+03  0.66268026121E+03  0.47000000000E+01 0.  1.
          6    1    1    2  502    0  0.19967444837E+03  0.58746613729E+01 -0.16598729436E+03  0.31151272665E+03  0.17200000000E+03 0. -1.
         -6    1    1    2    0  502 -0.19967444837E+03 -0.58746613729E+01 -0.38299568996E+03  0.46494526076E+03  0.17200000000E+03 0.  1.
</event>
<event>
 4    1 -0.3305908E-004  0.2322141E+03  0.7818608E-02  0.1125091E+00
          5   -1    0    0  501    0  0.00000000000E+00  0.00000000000E+00  0.14878197570E+03  0.14885619333E+03  0.47000000000E+01 0. -1.
         -5   -1    0    0    0  501 -0.00000000000E+00 -0.00000000000E+00 -0.96769213982E+03  0.96770355350E+03  0.47000000000E+01 0.  1.
          6    1    1    2  502    0  0.66722898884E+02  0.14102289496E+03  0.32112750811E+02  0.23442404079E+03  0.17200000000E+03 0. -1.
         -6    1    1    2    0  502 -0.66722898884E+02 -0.14102289496E+03 -0.85102291493E+03  0.88213570604E+03  0.17200000000E+03 0.  1.
</event>
<event>
 4    1 -0.3305908E-004  0.2128909E+03  0.7818608E-02  0.1139297E+00
          5   -1    0    0  501    0  0.00000000000E+00  0.00000000000E+00  0.39265672126E+03  0.39268484915E+03  0.47000000000E+01 0. -1.
         -5   -1    0    0    0  501 -0.00000000000E+00 -0.00000000000E+00 -0.23822540349E+03  0.23827176263E+03  0.47000000000E+01 0.  1.
          6    1    1    2  502    0 -0.12528720103E+03  0.64529971439E+01  0.30374583653E+03  0.37092324964E+03  0.17200000000E+03 0. -1.
         -6    1    1    2    0  502  0.12528720103E+03 -0.64529971439E+01 -0.14931451876E+03  0.26003336214E+03  0.17200000000E+03 0.  1.
</event>
<event>
 4    1 -0.3305908E-004  0.1847478E+03  0.7818608E-02  0.1163286E+00
          5   -1    0    0  501    0  0.00000000000E+00  0.00000000000E+00  0.18209364534E+04  0.18209425190E+04  0.47000000000E+01 0. -1.
         -5   -1    0    0    0  501 -0.00000000000E+00 -0.00000000000E+00 -0.18678004863E+02  0.19260266500E+02  0.47000000000E+01 0.  1.
          6    1    1    2  502    0 -0.47359144002E+02 -0.48009156400E+02  0.10026834119E+04  0.10195615686E+04  0.17200000000E+03 0. -1.
         -6    1    1    2    0  502  0.47359144002E+02  0.48009156400E+02  0.79957503661E+03  0.82064121685E+03  0.17200000000E+03 0.  1.
</event>
<event>
 4    1 -0.3305908E-004  0.1953829E+03  0.7818608E-02  0.1153694E+00
         -5   -1    0    0    0  501 -0.00000000000E+00  0.00000000000E+00  0.39308766755E+03  0.39311576460E+03  0.47000000000E+01 0.  1.
          5   -1    0    0  501    0  0.00000000000E+00 -0.00000000000E+00 -0.97032411637E+02  0.97146172895E+02  0.47000000000E+01 0. -1.
          6    1    1    2  502    0 -0.90380572757E+02  0.20538456660E+02  0.15002593962E+03  0.24633769239E+03  0.17200000000E+03 0.  1.
         -6    1    1    2    0  502  0.90380572757E+02 -0.20538456660E+02  0.14602931629E+03  0.24392424511E+03  0.17200000000E+03 0. -1.
</event>
<event>
 4    1 -0.3305908E-004  0.1852562E+03  0.7818608E-02  0.1162811E+00
         -5   -1    0    0    0  501 -0.00000000000E+00  0.00000000000E+00  0.40967372369E+03  0.40970068328E+03  0.47000000000E+01 0.  1.
          5   -1    0    0  501    0  0.00000000000E+00 -0.00000000000E+00 -0.83968456402E+02  0.84099891026E+02  0.47000000000E+01 0. -1.
          6    1    1    2  502    0 -0.14198479123E+02 -0.67337043395E+02  0.17735983855E+03  0.25646907524E+03  0.17200000000E+03 0. -1.
         -6    1    1    2    0  502  0.14198479123E+02  0.67337043395E+02  0.14834542873E+03  0.23733149906E+03  0.17200000000E+03 0. -1.
</event>
<event>
 4    1 -0.3305908E-004  0.2297917E+03  0.7818608E-02  0.1126786E+00
          5   -1    0    0  501    0  0.00000000000E+00  0.00000000000E+00  0.59900150716E+02  0.60084257970E+02  0.47000000000E+01 0. -1.
         -5   -1    0    0    0  501 -0.00000000000E+00 -0.00000000000E+00 -0.91725001956E+03  0.91726206091E+03  0.47000000000E+01 0.  1.
          6    1    1    2  502    0  0.20079932740E+02  0.15105303287E+03 -0.33020030407E+03  0.40228902949E+03  0.17200000000E+03 0. -1.
         -6    1    1    2    0  502 -0.20079932740E+02 -0.15105303287E+03 -0.52714956477E+03  0.57505728939E+03  0.17200000000E+03 0. -1.
</event>
<event>
 4    1 -0.3305908E-004  0.2464421E+03  0.7818608E-02  0.1115574E+00
          5   -1    0    0  501    0  0.00000000000E+00  0.00000000000E+00  0.26073291105E+03  0.26077526896E+03  0.47000000000E+01 0. -1.
         -5   -1    0    0    0  501 -0.00000000000E+00 -0.00000000000E+00 -0.23324739784E+03  0.23329474619E+03  0.47000000000E+01 0.  1.
          6    1    1    2  502    0 -0.17649254788E+03  0.27988430246E+00  0.35419797160E+01  0.24646753014E+03  0.17200000000E+03 0. -1.
         -6    1    1    2    0  502  0.17649254788E+03 -0.27988430246E+00  0.23943533485E+02  0.24760248502E+03  0.17200000000E+03 0.  1.
</event>
<event>
 4    1 -0.3305908E-004  0.2217077E+03  0.7818608E-02  0.1132616E+00
          5   -1    0    0  501    0  0.00000000000E+00  0.00000000000E+00  0.35826889877E+03  0.35829972625E+03  0.47000000000E+01 0. -1.
         -5   -1    0    0    0  501 -0.00000000000E+00 -0.00000000000E+00 -0.14090158753E+03  0.14097995378E+03  0.47000000000E+01 0.  1.
          6    1    1    2  502    0  0.13986875618E+03 -0.26506689136E+01  0.14955154422E+03  0.26743215846E+03  0.17200000000E+03 0.  1.
         -6    1    1    2    0  502 -0.13986875618E+03  0.26506689136E+01  0.67815767017E+02  0.23184752157E+03  0.17200000000E+03 0.  1.
</event>
<event>
 4    1 -0.3305908E-004  0.4052931E+03  0.7818608E-02  0.1041962E+00
         -5   -1    0    0    0  501 -0.00000000000E+00  0.00000000000E+00  0.40151104712E+03  0.40153855476E+03  0.47000000000E+01 0.  1.
          5   -1    0    0  501    0  0.00000000000E+00 -0.00000000000E+00 -0.50679959854E+03  0.50682139170E+03  0.47000000000E+01 0. -1.
          6    1    1    2  502    0  0.33797653785E+03 -0.14300480417E+03  0.14680488756E+03  0.43106169995E+03  0.17200000000E+03 0.  1.
         -6    1    1    2    0  502 -0.33797653785E+03  0.14300480417E+03 -0.25209343898E+03  0.47729824651E+03  0.17200000000E+03 0. -1.
</event>
<event>
 4    1 -0.3305908E-004  0.2062030E+03  0.7818608E-02  0.1144609E+00
         -5   -1    0    0    0  501 -0.00000000000E+00  0.00000000000E+00  0.10180518896E+04  0.10180627387E+04  0.47000000000E+01 0.  1.
          5   -1    0    0  501    0  0.00000000000E+00 -0.00000000000E+00 -0.44511078518E+02  0.44758531152E+02  0.47000000000E+01 0. -1.
          6    1    1    2  502    0  0.96973364361E+02  0.59429490326E+02  0.35179746961E+03  0.40777586655E+03  0.17200000000E+03 0. -1.
         -6    1    1    2    0  502 -0.96973364361E+02 -0.59429490326E+02  0.62174334148E+03  0.65504540330E+03  0.17200000000E+03 0.  1.
</event>
<event>
 4    1 -0.3305908E-004  0.2570474E+03  0.7818608E-02  0.1108930E+00
         -5   -1    0    0    0  501 -0.00000000000E+00  0.00000000000E+00  0.13003354807E+04  0.13003439747E+04  0.47000000000E+01 0.  1.
          5   -1    0    0  501    0  0.00000000000E+00 -0.00000000000E+00 -0.52230695282E+02  0.52441734617E+02  0.47000000000E+01 0. -1.
          6    1    1    2  502    0 -0.17164314722E+02  0.19024918670E+03  0.50832463771E+03  0.56962031569E+03  0.17200000000E+03 0. -1.
         -6    1    1    2    0  502  0.17164314722E+02 -0.19024918670E+03  0.73978014772E+03  0.78316539358E+03  0.17200000000E+03 0. -1.
</event>
<event>
 4    1 -0.3305908E-004  0.2676387E+03  0.7818608E-02  0.1102639E+00
          5   -1    0    0  501    0  0.00000000000E+00  0.00000000000E+00  0.39901573550E+03  0.39904341516E+03  0.47000000000E+01 0. -1.
         -5   -1    0    0    0  501 -0.00000000000E+00 -0.00000000000E+00 -0.22880477205E+03  0.22885303955E+03  0.47000000000E+01 0.  1.
          6    1    1    2  502    0 -0.18233048548E+03 -0.93819240194E+02  0.23088537989E+03  0.35346642615E+03  0.17200000000E+03 0. -1.
         -6    1    1    2    0  502  0.18233048548E+03  0.93819240194E+02 -0.60674416439E+02  0.27443002856E+03  0.17200000000E+03 0. -1.
</event>
<event>
 4    1 -0.3305908E-004  0.2869021E+03  0.7818608E-02  0.1091978E+00
         -5   -1    0    0    0  501 -0.00000000000E+00  0.00000000000E+00  0.37923833223E+03  0.37926745528E+03  0.47000000000E+01 0.  1.
          5   -1    0    0  501    0  0.00000000000E+00 -0.00000000000E+00 -0.25251341920E+03  0.25255715566E+03  0.47000000000E+01 0. -1.
          6    1    1    2  502    0  0.22956176093E+03  0.54986443050E+01 -0.55118161191E+02  0.29214867595E+03  0.17200000000E+03 0. -1.
         -6    1    1    2    0  502 -0.22956176093E+03 -0.54986443050E+01  0.18184307422E+03  0.33967593499E+03  0.17200000000E+03 0.  1.
</event>
<event>
 4    1 -0.3305908E-004  0.2680937E+03  0.7818608E-02  0.1102376E+00
          5   -1    0    0  501    0  0.00000000000E+00  0.00000000000E+00  0.45133250705E+03  0.45135697837E+03  0.47000000000E+01 0. -1.
         -5   -1    0    0    0  501 -0.00000000000E+00 -0.00000000000E+00 -0.30626284691E+03  0.30629890858E+03  0.47000000000E+01 0.  1.
          6    1    1    2  502    0 -0.20417446815E+03 -0.24556442691E+02  0.33502499752E+03  0.42908738188E+03  0.17200000000E+03 0. -1.
         -6    1    1    2    0  502  0.20417446815E+03  0.24556442691E+02 -0.18995533738E+03  0.32856850507E+03  0.17200000000E+03 0.  1.
</event>
<event>
 4    1 -0.3305908E-004  0.2386961E+03  0.7818608E-02  0.1120664E+00
         -5   -1    0    0    0  501 -0.00000000000E+00  0.00000000000E+00  0.42093242194E+02  0.42354823083E+02  0.47000000000E+01 0.  1.
          5   -1    0    0  501    0  0.00000000000E+00 -0.00000000000E+00 -0.16302718893E+04  0.16302786642E+04  0.47000000000E+01 0. -1.
          6    1    1    2  502    0  0.13911012823E+03  0.89667235569E+02 -0.11413755735E+04  0.11660677685E+04  0.17200000000E+03 0. -1.
         -6    1    1    2    0  502 -0.13911012823E+03 -0.89667235569E+02 -0.44680307362E+03  0.50656571884E+03  0.17200000000E+03 0.  1.
</event>
<event>
 4    1 -0.3305908E-004  0.6989722E+03  0.7818608E-02  0.9718991E-01
         -5   -1    0    0    0  501 -0.00000000000E+00  0.00000000000E+00  0.10352856381E+04  0.10352963066E+04  0.47000000000E+01 0.  1.
          5   -1    0    0  501    0  0.00000000000E+00 -0.00000000000E+00 -0.53406305221E+03  0.53408373289E+03  0.47000000000E+01 0. -1.
          6    1    1    2  502    0 -0.67738667498E+03  0.11201326811E+02 -0.17123391355E+02  0.69918194177E+03  0.17200000000E+03 0. -1.
         -6    1    1    2    0  502  0.67738667498E+03 -0.11201326811E+02  0.51834597726E+03  0.87019809773E+03  0.17200000000E+03 0.  1.
</event>
<event>
 4    1 -0.3305908E-004  0.3188355E+03  0.7818608E-02  0.1076187E+00
          5   -1    0    0  501    0  0.00000000000E+00  0.00000000000E+00  0.77484178432E+02  0.77626592784E+02  0.47000000000E+01 0. -1.
         -5   -1    0    0    0  501 -0.00000000000E+00 -0.00000000000E+00 -0.14265833730E+04  0.14265911152E+04  0.47000000000E+01 0.  1.
          6    1    1    2  502    0 -0.11135889363E+03 -0.24427698280E+03 -0.46011596139E+03  0.55978812549E+03  0.17200000000E+03 0. -1.
         -6    1    1    2    0  502  0.11135889363E+03  0.24427698280E+03 -0.88898323316E+03  0.94442958253E+03  0.17200000000E+03 0.  1.
</event>
<event>
 4    1 -0.3305908E-004  0.2463914E+03  0.7818608E-02  0.1115607E+00
         -5   -1    0    0    0  501 -0.00000000000E+00  0.00000000000E+00  0.37770420196E+03  0.37773344328E+03  0.47000000000E+01 0.  1.
          5   -1    0    0  501    0  0.00000000000E+00 -0.00000000000E+00 -0.20004502688E+03  0.20010023183E+03  0.47000000000E+01 0. -1.
          6    1    1    2  502    0 -0.15685025141E+03  0.80763511675E+02 -0.39335433029E+02  0.24951156782E+03  0.17200000000E+03 0. -1.
         -6    1    1    2    0  502  0.15685025141E+03 -0.80763511675E+02  0.21699460811E+03  0.32832210729E+03  0.17200000000E+03 0.  1.
</event>
<event>
 4    1 -0.3305908E-004  0.2021230E+03  0.7818608E-02  0.1147960E+00
         -5   -1    0    0    0  501 -0.00000000000E+00  0.00000000000E+00  0.94631411468E+02  0.94748055581E+02  0.47000000000E+01 0.  1.
          5   -1    0    0  501    0  0.00000000000E+00 -0.00000000000E+00 -0.43211803949E+03  0.43214359888E+03  0.47000000000E+01 0. -1.
          6    1    1    2  502    0  0.52752701279E+02 -0.92124101556E+02 -0.15741351009E+03  0.25618881853E+03  0.17200000000E+03 0.  1.
         -6    1    1    2    0  502 -0.52752701279E+02  0.92124101556E+02 -0.18007311793E+03  0.27070283593E+03  0.17200000000E+03 0.  1.
</event>
<event>
 4    1 -0.3305908E-004  0.5261122E+03  0.7818608E-02  0.1007179E+00
         -5   -1    0    0    0  501 -0.00000000000E+00  0.00000000000E+00  0.29577639337E+03  0.29581373341E+03  0.47000000000E+01 0.  1.
          5   -1    0    0  501    0  0.00000000000E+00 -0.00000000000E+00 -0.94216858110E+03  0.94218030398E+03  0.47000000000E+01 0. -1.
          6    1    1    2  502    0  0.37807104955E+03  0.32291230180E+03 -0.27198624619E+03  0.59225888873E+03  0.17200000000E+03 0. -1.
         -6    1    1    2    0  502 -0.37807104955E+03 -0.32291230180E+03 -0.37440594154E+03  0.64573514866E+03  0.17200000000E+03 0.  1.
</event>
<event>
 4    1 -0.3305908E-004  0.1804145E+03  0.7818608E-02  0.1167402E+00
         -5   -1    0    0    0  501 -0.00000000000E+00  0.00000000000E+00  0.37155347333E+03  0.37158319869E+03  0.47000000000E+01 0.  1.
          5   -1    0    0  501    0  0.00000000000E+00 -0.00000000000E+00 -0.18871260133E+03  0.18877112041E+03  0.47000000000E+01 0. -1.
          6    1    1    2  502    0 -0.31568256107E+02  0.44371703564E+02 -0.11369275926E+03  0.21324972774E+03  0.17200000000E+03 0. -1.
         -6    1    1    2    0  502  0.31568256107E+02 -0.44371703564E+02  0.29653363127E+03  0.34710459136E+03  0.17200000000E+03 0.  1.
</event>
<event>
 4    1 -0.3305908E-004  0.1802962E+03  0.7818608E-02  0.1167517E+00
          5   -1    0    0  501    0  0.00000000000E+00  0.00000000000E+00  0.18797052837E+03  0.18802927840E+03  0.47000000000E+01 0. -1.
         -5   -1    0    0    0  501 -0.00000000000E+00 -0.00000000000E+00 -0.20694877759E+03  0.20700214140E+03  0.47000000000E+01 0.  1.
          6    1    1    2  502    0 -0.33700347000E+01 -0.53957155971E+02  0.70701413826E+02  0.19366316565E+03  0.17200000000E+03 0. -1.
         -6    1    1    2    0  502  0.33700347000E+01  0.53957155971E+02 -0.89679663048E+02  0.20136825415E+03  0.17200000000E+03 0. -1.
</event>
<event>
 4    1 -0.3305908E-004  0.3099680E+03  0.7818608E-02  0.1080361E+00
         -5   -1    0    0    0  501 -0.00000000000E+00  0.00000000000E+00  0.45355556793E+03  0.45357991931E+03  0.47000000000E+01 0.  1.
          5   -1    0    0  501    0  0.00000000000E+00 -0.00000000000E+00 -0.21665832197E+03  0.21670929486E+03  0.47000000000E+01 0. -1.
          6    1    1    2  502    0  0.38199570630E+00 -0.25786817488E+03  0.68175526774E+02  0.31737681703E+03  0.17200000000E+03 0. -1.
         -6    1    1    2    0  502 -0.38199570630E+00  0.25786817488E+03  0.16872171919E+03  0.35291239715E+03  0.17200000000E+03 0. -1.
</event>
<event>
 4    1 -0.3305908E-004  0.2514357E+03  0.7818608E-02  0.1112401E+00
          5   -1    0    0  501    0  0.00000000000E+00  0.00000000000E+00  0.49167981779E+03  0.49170228108E+03  0.47000000000E+01 0. -1.
         -5   -1    0    0    0  501 -0.00000000000E+00 -0.00000000000E+00 -0.12858745281E+03  0.12867331899E+03  0.47000000000E+01 0.  1.
          6    1    1    2  502    0 -0.17309461440E+03  0.60614729138E+02  0.18910501528E+03  0.31461182070E+03  0.17200000000E+03 0. -1.
         -6    1    1    2    0  502  0.17309461440E+03 -0.60614729138E+02  0.17398734970E+03  0.30576377938E+03  0.17200000000E+03 0. -1.
</event>
<event>
 4    1 -0.3305908E-004  0.1832219E+03  0.7818608E-02  0.1164721E+00
         -5   -1    0    0    0  501 -0.00000000000E+00  0.00000000000E+00  0.67077531608E+03  0.67079178189E+03  0.47000000000E+01 0.  1.
          5   -1    0    0  501    0  0.00000000000E+00 -0.00000000000E+00 -0.56928351558E+02  0.57122037876E+02  0.47000000000E+01 0. -1.
          6    1    1    2  502    0 -0.39564407297E+02  0.49202870437E+02  0.17946827546E+03  0.25647441721E+03  0.17200000000E+03 0. -1.
         -6    1    1    2    0  502  0.39564407297E+02 -0.49202870437E+02  0.43437868905E+03  0.47143940256E+03  0.17200000000E+03 0.  1.
</event>
<event>
 4    1 -0.3305908E-004  0.2016370E+03  0.7818608E-02  0.1148365E+00
         -5   -1    0    0    0  501 -0.00000000000E+00  0.00000000000E+00  0.20822199143E+03  0.20827502902E+03  0.47000000000E+01 0.  1.
          5   -1    0    0  501    0  0.00000000000E+00 -0.00000000000E+00 -0.25025244175E+03  0.25029657329E+03  0.47000000000E+01 0. -1.
          6    1    1    2  502    0 -0.10368747526E+03 -0.17955507639E+02 -0.12857935587E+03  0.23914460800E+03  0.17200000000E+03 0. -1.
         -6    1    1    2    0  502  0.10368747526E+03  0.17955507639E+02  0.86548905547E+02  0.21942699431E+03  0.17200000000E+03 0.  1.
</event>
<event>
 4    1 -0.3305908E-004  0.2105104E+03  0.7818608E-02  0.1141162E+00
         -5   -1    0    0    0  501 -0.00000000000E+00  0.00000000000E+00  0.35620384208E+02  0.35929121492E+02  0.47000000000E+01 0.  1.
          5   -1    0    0  501    0  0.00000000000E+00 -0.00000000000E+00 -0.15424068148E+04  0.15424139756E+04  0.47000000000E+01 0. -1.
          6    1    1    2  502    0  0.73777853028E+01 -0.12114536649E+03 -0.11037169523E+04  0.11236128080E+04  0.17200000000E+03 0. -1.
         -6    1    1    2    0  502 -0.73777853028E+01  0.12114536649E+03 -0.40306947830E+03  0.45473028916E+03  0.17200000000E+03 0.  1.
</event>
<event>
 4    1 -0.3305908E-004  0.2295381E+03  0.7818608E-02  0.1126965E+00
         -5   -1    0    0    0  501 -0.00000000000E+00  0.00000000000E+00  0.74481482955E+03  0.74482965860E+03  0.47000000000E+01 0.  1.
          5   -1    0    0  501    0  0.00000000000E+00 -0.00000000000E+00 -0.74209063033E+02  0.74357750344E+02  0.47000000000E+01 0. -1.
          6    1    1    2  502    0 -0.14601479191E+03 -0.42230641079E+02  0.24565054397E+03  0.33620222523E+03  0.17200000000E+03 0. -1.
         -6    1    1    2    0  502  0.14601479191E+03  0.42230641079E+02  0.42495522255E+03  0.48298518370E+03  0.17200000000E+03 0.  1.
</event>
<event>
 4    1 -0.3305908E-004  0.3936318E+03  0.7818608E-02  0.1046007E+00
          5   -1    0    0  501    0  0.00000000000E+00  0.00000000000E+00  0.21922351580E+04  0.21922401962E+04  0.47000000000E+01 0. -1.
         -5   -1    0    0    0  501 -0.00000000000E+00 -0.00000000000E+00 -0.11815995650E+03  0.11825339454E+03  0.47000000000E+01 0.  1.
          6    1    1    2  502    0 -0.22996105320E+03 -0.26922099261E+03  0.17695905553E+04  0.18128421780E+04  0.17200000000E+03 0. -1.
         -6    1    1    2    0  502  0.22996105320E+03  0.26922099261E+03  0.30448464613E+03  0.49765141272E+03  0.17200000000E+03 0.  1.
</event>
<event>
 4    1 -0.3305908E-004  0.2557535E+03  0.7818608E-02  0.1109722E+00
          5   -1    0    0  501    0  0.00000000000E+00  0.00000000000E+00  0.29188434788E+03  0.29192218576E+03  0.47000000000E+01 0. -1.
         -5   -1    0    0    0  501 -0.00000000000E+00 -0.00000000000E+00 -0.23958741332E+03  0.23963350897E+03  0.47000000000E+01 0.  1.
          6    1    1    2  502    0 -0.56460848867E+02 -0.18066001384E+03 -0.41591255094E+02  0.25911329676E+03  0.17200000000E+03 0.  1.
         -6    1    1    2    0  502  0.56460848867E+02  0.18066001384E+03  0.93888189658E+02  0.27244239797E+03  0.17200000000E+03 0. -1.
</event>
<event>
 4    1 -0.3305908E-004  0.3428626E+03  0.7818608E-02  0.1065583E+00
         -5   -1    0    0    0  501 -0.00000000000E+00  0.00000000000E+00  0.13848937751E+04  0.13849017504E+04  0.47000000000E+01 0.  1.
          5   -1    0    0  501    0  0.00000000000E+00 -0.00000000000E+00 -0.18473426500E+03  0.18479404391E+03  0.47000000000E+01 0. -1.
          6    1    1    2  502    0 -0.25156562258E+03  0.15711616018E+03  0.23013553933E+02  0.34363406979E+03  0.17200000000E+03 0. -1.
         -6    1    1    2    0  502  0.25156562258E+03 -0.15711616018E+03  0.11771459562E+04  0.12260617245E+04  0.17200000000E+03 0.  1.
</event>
<event>
 4    1 -0.3305908E-004  0.1922829E+03  0.7818608E-02  0.1156418E+00
         -5   -1    0    0    0  501 -0.00000000000E+00  0.00000000000E+00  0.28034697621E+03  0.28038637104E+03  0.47000000000E+01 0.  1.
          5   -1    0    0  501    0  0.00000000000E+00 -0.00000000000E+00 -0.23575132259E+03  0.23579816815E+03  0.47000000000E+01 0. -1.
          6    1    1    2  502    0  0.85957158275E+02  0.27913345119E+00 -0.14905230253E+03  0.24328851158E+03  0.17200000000E+03 0. -1.
         -6    1    1    2    0  502 -0.85957158275E+02 -0.27913345119E+00  0.19364795614E+03  0.27289602762E+03  0.17200000000E+03 0.  1.
</event>
<event>
 4    1 -0.3305908E-004  0.2605002E+03  0.7818608E-02  0.1106843E+00
          5   -1    0    0  501    0  0.00000000000E+00  0.00000000000E+00  0.33682108584E+03  0.33685387613E+03  0.47000000000E+01 0. -1.
         -5   -1    0    0    0  501 -0.00000000000E+00 -0.00000000000E+00 -0.23218583828E+03  0.23223340306E+03  0.47000000000E+01 0.  1.
          6    1    1    2  502    0  0.52317828856E+02 -0.18851848113E+03  0.15590492696E+03  0.30358972182E+03  0.17200000000E+03 0. -1.
         -6    1    1    2    0  502 -0.52317828856E+02  0.18851848113E+03 -0.51269679401E+02  0.26549755737E+03  0.17200000000E+03 0.  1.
</event>
<event>
 4    1 -0.3305908E-004  0.2239128E+03  0.7818608E-02  0.1130999E+00
         -5   -1    0    0    0  501 -0.00000000000E+00  0.00000000000E+00  0.16265497199E+03  0.16272286229E+03  0.47000000000E+01 0.  1.
          5   -1    0    0  501    0  0.00000000000E+00 -0.00000000000E+00 -0.52845237829E+03  0.52847327853E+03  0.47000000000E+01 0. -1.
          6    1    1    2  502    0 -0.11714484222E+03  0.82643903261E+02 -0.40604861008E+03  0.46369429860E+03  0.17200000000E+03 0. -1.
         -6    1    1    2    0  502  0.11714484222E+03 -0.82643903261E+02  0.40251203782E+02  0.22750184222E+03  0.17200000000E+03 0.  1.
</event>
<event>
 4    1 -0.3305908E-004  0.1868631E+03  0.7818608E-02  0.1161321E+00
          5   -1    0    0  501    0  0.00000000000E+00  0.00000000000E+00  0.48313953224E+02  0.48542023816E+02  0.47000000000E+01 0. -1.
         -5   -1    0    0    0  501 -0.00000000000E+00 -0.00000000000E+00 -0.75334391058E+03  0.75335857173E+03  0.47000000000E+01 0.  1.
          6    1    1    2  502    0 -0.26224933100E+01 -0.72985853023E+02 -0.26917998156E+03  0.32768227704E+03  0.17200000000E+03 0. -1.
         -6    1    1    2    0  502  0.26224933100E+01  0.72985853023E+02 -0.43584997579E+03  0.47421831851E+03  0.17200000000E+03 0.  1.
</event>
<event>
 4    1 -0.3305908E-004  0.1746114E+03  0.7818608E-02  0.1173122E+00
          5   -1    0    0  501    0  0.00000000000E+00  0.00000000000E+00  0.89871819501E+03  0.89873048465E+03  0.47000000000E+01 0. -1.
         -5   -1    0    0    0  501 -0.00000000000E+00 -0.00000000000E+00 -0.56778545414E+02  0.56972741020E+02  0.47000000000E+01 0.  1.
          6    1    1    2  502    0 -0.55570912536E+01 -0.29567830154E+02  0.72456688355E+03  0.74530953743E+03  0.17200000000E+03 0. -1.
         -6    1    1    2    0  502  0.55570912536E+01  0.29567830154E+02  0.11737276604E+03  0.21039368824E+03  0.17200000000E+03 0.  1.
</event>
<event>
 4    1 -0.3305908E-004  0.1765813E+03  0.7818608E-02  0.1171153E+00
          5   -1    0    0  501    0  0.00000000000E+00  0.00000000000E+00  0.34966952253E+03  0.34970110807E+03  0.47000000000E+01 0. -1.
         -5   -1    0    0    0  501 -0.00000000000E+00 -0.00000000000E+00 -0.11825922538E+03  0.11835258505E+03  0.47000000000E+01 0.  1.
          6    1    1    2  502    0 -0.31832393450E+02  0.24158988065E+02  0.23189395804E+03  0.29147172376E+03  0.17200000000E+03 0. -1.
         -6    1    1    2    0  502  0.31832393450E+02 -0.24158988065E+02 -0.48366088850E+00  0.17658196937E+03  0.17200000000E+03 0. -1.
</event>
<event>
 4    1 -0.3305908E-004  0.2985777E+03  0.7818608E-02  0.1085954E+00
          5   -1    0    0  501    0  0.00000000000E+00  0.00000000000E+00  0.22980230174E+03  0.22985035977E+03  0.47000000000E+01 0. -1.
         -5   -1    0    0    0  501 -0.00000000000E+00 -0.00000000000E+00 -0.40503180107E+03  0.40505906962E+03  0.47000000000E+01 0.  1.
          6    1    1    2  502    0  0.55519017497E+02 -0.23766005034E+03 -0.22205422325E+02  0.29940230729E+03  0.17200000000E+03 0. -1.
         -6    1    1    2    0  502 -0.55519017497E+02  0.23766005034E+03 -0.15302407700E+03  0.33550712209E+03  0.17200000000E+03 0.  1.
</event>
<event>
 4    1 -0.3305908E-004  0.2684282E+03  0.7818608E-02  0.1102183E+00
         -5   -1    0    0    0  501 -0.00000000000E+00  0.00000000000E+00  0.80354330596E+03  0.80355705121E+03  0.47000000000E+01 0.  1.
          5   -1    0    0  501    0  0.00000000000E+00 -0.00000000000E+00 -0.91647752169E+02  0.91768188811E+02  0.47000000000E+01 0. -1.
          6    1    1    2  502    0 -0.63149961060E+02  0.19616770603E+03  0.28898089924E+03  0.39441557600E+03  0.17200000000E+03 0. -1.
         -6    1    1    2    0  502  0.63149961060E+02 -0.19616770603E+03  0.42291465455E+03  0.50090966402E+03  0.17200000000E+03 0.  1.
</event>
<event>
 4    1 -0.3305908E-004  0.2122794E+03  0.7818608E-02  0.1139774E+00
          5   -1    0    0  501    0  0.00000000000E+00  0.00000000000E+00  0.40057430277E+03  0.40060187473E+03  0.47000000000E+01 0. -1.
         -5   -1    0    0    0  501 -0.00000000000E+00 -0.00000000000E+00 -0.23883185799E+03  0.23887809944E+03  0.47000000000E+01 0.  1.
          6    1    1    2  502    0 -0.10029006656E+02  0.12400788601E+03  0.31344665523E+03  0.37856484576E+03  0.17200000000E+03 0. -1.
         -6    1    1    2    0  502  0.10029006656E+02 -0.12400788601E+03 -0.15170421045E+03  0.26091512841E+03  0.17200000000E+03 0.  1.
</event>
<event>
 4    1 -0.3305908E-004  0.1956144E+03  0.7818608E-02  0.1153493E+00
          5   -1    0    0  501    0  0.00000000000E+00  0.00000000000E+00  0.54570615855E+02  0.54772640203E+02  0.47000000000E+01 0. -1.
         -5   -1    0    0    0  501 -0.00000000000E+00 -0.00000000000E+00 -0.84118465603E+03  0.84119778622E+03  0.47000000000E+01 0.  1.
          6    1    1    2  502    0 -0.78034056974E+02 -0.50908708957E+02 -0.57701268275E+03  0.60926894451E+03  0.17200000000E+03 0.  1.
         -6    1    1    2    0  502  0.78034056974E+02  0.50908708957E+02 -0.20960135743E+03  0.28670148192E+03  0.17200000000E+03 0. -1.
</event>
<event>
 4    1 -0.3305908E-004  0.1949667E+03  0.7818608E-02  0.1154056E+00
          5   -1    0    0  501    0  0.00000000000E+00  0.00000000000E+00  0.21608654292E+03  0.21613765065E+03  0.47000000000E+01 0. -1.
         -5   -1    0    0    0  501 -0.00000000000E+00 -0.00000000000E+00 -0.21383142668E+03  0.21388307328E+03  0.47000000000E+01 0.  1.
          6    1    1    2  502    0 -0.85073006852E+02  0.34505260853E+02  0.91771812258E+02  0.21548571889E+03  0.17200000000E+03 0. -1.
         -6    1    1    2    0  502  0.85073006852E+02 -0.34505260853E+02 -0.89516696017E+02  0.21453500504E+03  0.17200000000E+03 0.  1.
</event>
<event>
 4    1 -0.3305908E-004  0.2649627E+03  0.7818608E-02  0.1104198E+00
          5   -1    0    0  501    0  0.00000000000E+00  0.00000000000E+00  0.14197604448E+03  0.14205381799E+03  0.47000000000E+01 0. -1.
         -5   -1    0    0    0  501 -0.00000000000E+00 -0.00000000000E+00 -0.76271752832E+03  0.76273200929E+03  0.47000000000E+01 0.  1.
          6    1    1    2  502    0 -0.17465689759E+03  0.10057944306E+03 -0.41995473070E+02  0.26827015488E+03  0.17200000000E+03 0. -1.
         -6    1    1    2    0  502  0.17465689759E+03 -0.10057944306E+03 -0.57874601077E+03  0.63651567241E+03  0.17200000000E+03 0.  1.
</event>
<event>
 4    1 -0.3305908E-004  0.2065916E+03  0.7818608E-02  0.1144294E+00
         -5   -1    0    0    0  501 -0.00000000000E+00  0.00000000000E+00  0.16423698571E+03  0.16430422233E+03  0.47000000000E+01 0.  1.
          5   -1    0    0  501    0  0.00000000000E+00 -0.00000000000E+00 -0.45149931552E+03  0.45152377780E+03  0.47000000000E+01 0. -1.
          6    1    1    2  502    0  0.11417988443E+03  0.76842733911E+01  0.57021573577E+02  0.21431648075E+03  0.17200000000E+03 0.  1.
         -6    1    1    2    0  502 -0.11417988443E+03 -0.76842733911E+01 -0.34428390339E+03  0.40151151938E+03  0.17200000000E+03 0. -1.
</event>
<event>
 4    1 -0.3305908E-004  0.1847223E+03  0.7818608E-02  0.1163309E+00
         -5   -1    0    0    0  501 -0.00000000000E+00  0.00000000000E+00  0.33357225293E+03  0.33360536255E+03  0.47000000000E+01 0.  1.
          5   -1    0    0  501    0  0.00000000000E+00 -0.00000000000E+00 -0.18371270383E+03  0.18377281504E+03  0.47000000000E+01 0. -1.
          6    1    1    2  502    0 -0.61597221688E+02 -0.27278547935E+02 -0.97327953203E+02  0.20879431834E+03  0.17200000000E+03 0. -1.
         -6    1    1    2    0  502  0.61597221688E+02  0.27278547935E+02  0.24718750230E+03  0.30858385925E+03  0.17200000000E+03 0.  1.
</event>
<event>
 4    1 -0.3305908E-004  0.1960988E+03  0.7818608E-02  0.1153073E+00
         -5   -1    0    0    0  501 -0.00000000000E+00  0.00000000000E+00  0.48598045103E+03  0.48600317775E+03  0.47000000000E+01 0.  1.
          5   -1    0    0  501    0  0.00000000000E+00 -0.00000000000E+00 -0.81584722281E+02  0.81719990881E+02  0.47000000000E+01 0. -1.
          6    1    1    2  502    0  0.65268169554E+02 -0.67902838577E+02  0.15205267992E+03  0.24814259391E+03  0.17200000000E+03 0. -1.
         -6    1    1    2    0  502 -0.65268169554E+02  0.67902838577E+02  0.25234304883E+03  0.31958057472E+03  0.17200000000E+03 0.  1.
</event>
<event>
 4    1 -0.3305908E-004  0.2217332E+03  0.7818608E-02  0.1132597E+00
          5   -1    0    0  501    0  0.00000000000E+00  0.00000000000E+00  0.53953431800E+03  0.53955478897E+03  0.47000000000E+01 0. -1.
         -5   -1    0    0    0  501 -0.00000000000E+00 -0.00000000000E+00 -0.15120405966E+03  0.15127708901E+03  0.47000000000E+01 0.  1.
          6    1    1    2  502    0  0.13835657600E+03  0.20953552262E+02  0.41196065935E+03  0.46784311295E+03  0.17200000000E+03 0. -1.
         -6    1    1    2    0  502 -0.13835657600E+03 -0.20953552262E+02 -0.23630401018E+02  0.22298876503E+03  0.17200000000E+03 0.  1.
</event>
<event>
 4    1 -0.3305908E-004  0.2139093E+03  0.7818608E-02  0.1138507E+00
          5   -1    0    0  501    0  0.00000000000E+00  0.00000000000E+00  0.14428495377E+03  0.14436148338E+03  0.47000000000E+01 0. -1.
         -5   -1    0    0    0  501 -0.00000000000E+00 -0.00000000000E+00 -0.34277471485E+03  0.34280693567E+03  0.47000000000E+01 0.  1.
          6    1    1    2  502    0  0.87075215450E+02  0.92688190007E+02 -0.16609006094E+03  0.27081931625E+03  0.17200000000E+03 0.  1.
         -6    1    1    2    0  502 -0.87075215450E+02 -0.92688190007E+02 -0.32399700142E+02  0.21634910280E+03  0.17200000000E+03 0.  1.
</event>
<event>
 4    1 -0.3305908E-004  0.2158444E+03  0.7818608E-02  0.1137020E+00
         -5   -1    0    0    0  501 -0.00000000000E+00  0.00000000000E+00  0.82676492113E+02  0.82809977346E+02  0.47000000000E+01 0.  1.
          5   -1    0    0  501    0  0.00000000000E+00 -0.00000000000E+00 -0.79447276570E+03  0.79448666788E+03  0.47000000000E+01 0. -1.
          6    1    1    2  502    0  0.20785308863E+02  0.12873524698E+03 -0.11910400805E+03  0.24652496347E+03  0.17200000000E+03 0.  1.
         -6    1    1    2    0  502 -0.20785308863E+02 -0.12873524698E+03 -0.59269226555E+03  0.63077168177E+03  0.17200000000E+03 0. -1.
</event>
<event>
 4    1 -0.3305908E-004  0.1846835E+03  0.7818608E-02  0.1163346E+00
          5   -1    0    0  501    0  0.00000000000E+00  0.00000000000E+00  0.19350843791E+03  0.19356550711E+03  0.47000000000E+01 0. -1.
         -5   -1    0    0    0  501 -0.00000000000E+00 -0.00000000000E+00 -0.60014730824E+03  0.60016571177E+03  0.47000000000E+01 0.  1.
          6    1    1    2  502    0  0.21142886069E+02  0.63851255419E+02  0.13023173871E+03  0.22598298657E+03  0.17200000000E+03 0. -1.
         -6    1    1    2    0  502 -0.21142886069E+02 -0.63851255419E+02 -0.53687060904E+03  0.56774823232E+03  0.17200000000E+03 0.  1.
</event>
<event>
 4    1 -0.3305908E-004  0.2216659E+03  0.7818608E-02  0.1132647E+00
          5   -1    0    0  501    0  0.00000000000E+00  0.00000000000E+00  0.15090896206E+03  0.15098213414E+03  0.47000000000E+01 0. -1.
         -5   -1    0    0    0  501 -0.00000000000E+00 -0.00000000000E+00 -0.54980687078E+03  0.54982695928E+03  0.47000000000E+01 0.  1.
          6    1    1    2  502    0 -0.53309081591E+02 -0.12926686120E+03  0.24379020189E+02  0.22300250270E+03  0.17200000000E+03 0. -1.
         -6    1    1    2    0  502  0.53309081591E+02  0.12926686120E+03 -0.42327692891E+03  0.47780659072E+03  0.17200000000E+03 0.  1.
</event>
<event>
 4    1 -0.3305908E-004  0.1995897E+03  0.7818608E-02  0.1150086E+00
          5   -1    0    0  501    0  0.00000000000E+00  0.00000000000E+00  0.23914761773E+03  0.23919379813E+03  0.47000000000E+01 0. -1.
         -5   -1    0    0    0  501 -0.00000000000E+00 -0.00000000000E+00 -0.24887830957E+03  0.24892268473E+03  0.47000000000E+01 0.  1.
          6    1    1    2  502    0 -0.10117425894E+03  0.39782081379E+01  0.13553597457E+03  0.24125931529E+03  0.17200000000E+03 0. -1.
         -6    1    1    2    0  502  0.10117425894E+03 -0.39782081379E+01 -0.14526666641E+03  0.24685716757E+03  0.17200000000E+03 0.  1.
</event>
<event>
 4    1 -0.3305908E-004  0.3548542E+03  0.7818608E-02  0.1060640E+00
          5   -1    0    0  501    0  0.00000000000E+00  0.00000000000E+00  0.85465172851E+03  0.85466465181E+03  0.47000000000E+01 0. -1.
         -5   -1    0    0    0  501 -0.00000000000E+00 -0.00000000000E+00 -0.20943350470E+03  0.20948623556E+03  0.47000000000E+01 0.  1.
          6    1    1    2  502    0 -0.10694856334E+03 -0.29137525738E+03  0.61240044340E+03  0.70778233864E+03  0.17200000000E+03 0. -1.
         -6    1    1    2    0  502  0.10694856334E+03  0.29137525738E+03  0.32817780410E+02  0.35636854873E+03  0.17200000000E+03 0.  1.
</event>
<event>
 4    1 -0.3305908E-004  0.3768378E+03  0.7818608E-02  0.1052109E+00
         -5   -1    0    0    0  501 -0.00000000000E+00  0.00000000000E+00  0.10377184714E+04  0.10377291149E+04  0.47000000000E+01 0.  1.
          5   -1    0    0  501    0  0.00000000000E+00 -0.00000000000E+00 -0.25394640784E+03  0.25398989754E+03  0.47000000000E+01 0. -1.
          6    1    1    2  502    0  0.17958041835E+03  0.28314946812E+03 -0.46726912009E+02  0.37972378416E+03  0.17200000000E+03 0. -1.
         -6    1    1    2    0  502 -0.17958041835E+03 -0.28314946812E+03  0.83049897554E+03  0.91199522824E+03  0.17200000000E+03 0.  1.
</event>
<event>
 4    1 -0.3305908E-004  0.1805532E+03  0.7818608E-02  0.1167269E+00
         -5   -1    0    0    0  501 -0.00000000000E+00  0.00000000000E+00  0.66039804347E+03  0.66041476802E+03  0.47000000000E+01 0.  1.
          5   -1    0    0  501    0  0.00000000000E+00 -0.00000000000E+00 -0.51112712665E+02  0.51328348853E+02  0.47000000000E+01 0. -1.
          6    1    1    2  502    0  0.50010535361E+01  0.54684969585E+02  0.23657398573E+03  0.29760159132E+03  0.17200000000E+03 0. -1.
         -6    1    1    2    0  502 -0.50010535361E+01 -0.54684969585E+02  0.37271134508E+03  0.41414152555E+03  0.17200000000E+03 0.  1.
</event>
<event>
 4    1 -0.3305908E-004  0.1929244E+03  0.7818608E-02  0.1155850E+00
         -5   -1    0    0    0  501 -0.00000000000E+00  0.00000000000E+00  0.12515942665E+04  0.12516030912E+04  0.47000000000E+01 0.  1.
          5   -1    0    0  501    0  0.00000000000E+00 -0.00000000000E+00 -0.36832829003E+02  0.37131486536E+02  0.47000000000E+01 0. -1.
          6    1    1    2  502    0 -0.77746703442E+02  0.39890961629E+02  0.32204986872E+03  0.37541437993E+03  0.17200000000E+03 0. -1.
         -6    1    1    2    0  502  0.77746703442E+02 -0.39890961629E+02  0.89271156878E+03  0.91332019782E+03  0.17200000000E+03 0.  1.
</event>
<event>
 4    1 -0.3305908E-004  0.1821123E+03  0.7818608E-02  0.1165774E+00
          5   -1    0    0  501    0  0.00000000000E+00  0.00000000000E+00  0.71185196246E+03  0.71186747815E+03  0.47000000000E+01 0. -1.
         -5   -1    0    0    0  501 -0.00000000000E+00 -0.00000000000E+00 -0.51354529014E+02  0.51569154058E+02  0.47000000000E+01 0.  1.
          6    1    1    2  502    0 -0.56343719454E+02  0.20156411489E+02  0.44787718805E+03  0.48348616445E+03  0.17200000000E+03 0. -1.
         -6    1    1    2    0  502  0.56343719454E+02 -0.20156411489E+02  0.21262024540E+03  0.27995046776E+03  0.17200000000E+03 0.  1.
</event>
<event>
 4    1 -0.3305908E-004  0.3428277E+03  0.7818608E-02  0.1065598E+00
          5   -1    0    0  501    0  0.00000000000E+00  0.00000000000E+00  0.63354603177E+03  0.63356346515E+03  0.47000000000E+01 0. -1.
         -5   -1    0    0    0  501 -0.00000000000E+00 -0.00000000000E+00 -0.30625147619E+03  0.30628753920E+03  0.47000000000E+01 0.  1.
          6    1    1    2  502    0 -0.28701154609E+03 -0.74640440378E+02  0.45873867982E+03  0.57268839633E+03  0.17200000000E+03 0. -1.
         -6    1    1    2    0  502  0.28701154609E+03  0.74640440378E+02 -0.13144412424E+03  0.36716260802E+03  0.17200000000E+03 0. -1.
</event>
<event>
 4    1 -0.3305908E-004  0.2286558E+03  0.7818608E-02  0.1127589E+00
          5   -1    0    0  501    0  0.00000000000E+00  0.00000000000E+00  0.74814895726E+03  0.74816372022E+03  0.47000000000E+01 0. -1.
         -5   -1    0    0    0  501 -0.00000000000E+00 -0.00000000000E+00 -0.86250690588E+02  0.86378652611E+02  0.47000000000E+01 0.  1.
          6    1    1    2  502    0 -0.89366435912E+02  0.12129760032E+03  0.51307591242E+03  0.56172089121E+03  0.17200000000E+03 0. -1.
         -6    1    1    2    0  502  0.89366435912E+02 -0.12129760032E+03  0.14882235425E+03  0.27282148163E+03  0.17200000000E+03 0.  1.
</event>
<event>
 4    1 -0.3305908E-004  0.3087061E+03  0.7818608E-02  0.1080968E+00
          5   -1    0    0  501    0  0.00000000000E+00  0.00000000000E+00  0.43704641825E+03  0.43707168944E+03  0.47000000000E+01 0. -1.
         -5   -1    0    0    0  501 -0.00000000000E+00 -0.00000000000E+00 -0.22602079839E+03  0.22606966029E+03  0.47000000000E+01 0.  1.
          6    1    1    2  502    0  0.21899435712E+03 -0.13325503162E+03  0.16797757509E+03  0.35144828586E+03  0.17200000000E+03 0. -1.
         -6    1    1    2    0  502 -0.21899435712E+03  0.13325503162E+03  0.43048044772E+02  0.31169306387E+03  0.17200000000E+03 0.  1.
</event>
<event>
 4    1 -0.3305908E-004  0.2089151E+03  0.7818608E-02  0.1142428E+00
         -5   -1    0    0    0  501 -0.00000000000E+00  0.00000000000E+00  0.11770268903E+03  0.11779648978E+03  0.47000000000E+01 0.  1.
          5   -1    0    0  501    0  0.00000000000E+00 -0.00000000000E+00 -0.43772173840E+03  0.43774697060E+03  0.47000000000E+01 0. -1.
          6    1    1    2  502    0 -0.87850555287E+02 -0.79648085489E+02 -0.51215538558E+02  0.21510129934E+03  0.17200000000E+03 0.  1.
         -6    1    1    2    0  502  0.87850555287E+02  0.79648085489E+02 -0.26880351082E+03  0.34044216104E+03  0.17200000000E+03 0. -1.
</event>
<event>
 4    1 -0.3305908E-004  0.1961782E+03  0.7818608E-02  0.1153004E+00
          5   -1    0    0  501    0  0.00000000000E+00  0.00000000000E+00  0.52422217727E+02  0.52632489125E+02  0.47000000000E+01 0. -1.
         -5   -1    0    0    0  501 -0.00000000000E+00 -0.00000000000E+00 -0.97138510664E+03  0.97139647694E+03  0.47000000000E+01 0.  1.
          6    1    1    2  502    0  0.88057608047E+02 -0.33878419207E+02 -0.20558131872E+03  0.28416468505E+03  0.17200000000E+03 0. -1.
         -6    1    1    2    0  502 -0.88057608047E+02  0.33878419207E+02 -0.71338157019E+03  0.73986428101E+03  0.17200000000E+03 0.  1.
</event>
<event>
 4    1 -0.3305908E-004  0.2354872E+03  0.7818608E-02  0.1122836E+00
         -5   -1    0    0    0  501 -0.00000000000E+00  0.00000000000E+00  0.83764599591E+03  0.83765918156E+03  0.47000000000E+01 0.  1.
          5   -1    0    0  501    0  0.00000000000E+00 -0.00000000000E+00 -0.18005258915E+03  0.18011392189E+03  0.47000000000E+01 0. -1.
          6    1    1    2  502    0  0.79284509486E+02  0.13994354335E+03 -0.75890788850E+02  0.24741390544E+03  0.17200000000E+03 0. -1.
         -6    1    1    2    0  502 -0.79284509486E+02 -0.13994354335E+03  0.73348419561E+03  0.77035919802E+03  0.17200000000E+03 0.  1.
</event>
<event>
 4    1 -0.3305908E-004  0.2540503E+03  0.7818608E-02  0.1110772E+00
         -5   -1    0    0    0  501 -0.00000000000E+00  0.00000000000E+00  0.40499417647E+03  0.40502144755E+03  0.47000000000E+01 0.  1.
          5   -1    0    0  501    0  0.00000000000E+00 -0.00000000000E+00 -0.15980957460E+03  0.15987867316E+03  0.47000000000E+01 0. -1.
          6    1    1    2  502    0 -0.12186112135E+03  0.14180066322E+03  0.10659886491E+03  0.27550840093E+03  0.17200000000E+03 0. -1.
         -6    1    1    2    0  502  0.12186112135E+03 -0.14180066322E+03  0.13858573696E+03  0.28939171978E+03  0.17200000000E+03 0.  1.
</event>
<event>
 4    1 -0.3305908E-004  0.1770650E+03  0.7818608E-02  0.1170674E+00
         -5   -1    0    0    0  501 -0.00000000000E+00  0.00000000000E+00  0.67710942944E+02  0.67873866800E+02  0.47000000000E+01 0.  1.
          5   -1    0    0  501    0  0.00000000000E+00 -0.00000000000E+00 -0.65232017430E+03  0.65233710595E+03  0.47000000000E+01 0. -1.
          6    1    1    2  502    0  0.24837867416E+02  0.33927830128E+02 -0.48663587450E+03  0.51784794261E+03  0.17200000000E+03 0. -1.
         -6    1    1    2    0  502 -0.24837867416E+02 -0.33927830128E+02 -0.97973356863E+02  0.20236303015E+03  0.17200000000E+03 0.  1.
</event>
<event>
 4    1 -0.3305908E-004  0.2195050E+03  0.7818608E-02  0.1134253E+00
         -5   -1    0    0    0  501 -0.00000000000E+00  0.00000000000E+00  0.17727370692E+03  0.17733600076E+03  0.47000000000E+01 0.  1.
          5   -1    0    0  501    0  0.00000000000E+00 -0.00000000000E+00 -0.27656581109E+03  0.27660574445E+03  0.47000000000E+01 0. -1.
          6    1    1    2  502    0  0.10722527842E+03 -0.84268518795E+02 -0.79849507671E+02  0.23357736934E+03  0.17200000000E+03 0. -1.
         -6    1    1    2    0  502 -0.10722527842E+03  0.84268518795E+02 -0.19442596498E+02  0.22036437587E+03  0.17200000000E+03 0.  1.
</event>
<event>
 4    1 -0.3305908E-004  0.1840211E+03  0.7818608E-02  0.1163967E+00
          5   -1    0    0  501    0  0.00000000000E+00  0.00000000000E+00  0.39544189538E+03  0.39546982517E+03  0.47000000000E+01 0. -1.
         -5   -1    0    0    0  501 -0.00000000000E+00 -0.00000000000E+00 -0.95943473335E+02  0.96058524221E+02  0.47000000000E+01 0.  1.
          6    1    1    2  502    0 -0.82326040440E+01  0.64899902259E+02  0.23061502949E+03  0.29503739578E+03  0.17200000000E+03 0. -1.
         -6    1    1    2    0  502  0.82326040440E+01 -0.64899902259E+02  0.68883392559E+02  0.19649095362E+03  0.17200000000E+03 0.  1.
</event>
<event>
 4    1 -0.3305908E-004  0.3246123E+03  0.7818608E-02  0.1073546E+00
         -5   -1    0    0    0  501 -0.00000000000E+00  0.00000000000E+00  0.84087596012E+03  0.84088909513E+03  0.47000000000E+01 0.  1.
          5   -1    0    0  501    0  0.00000000000E+00 -0.00000000000E+00 -0.32936265663E+03  0.32939618939E+03  0.47000000000E+01 0. -1.
          6    1    1    2  502    0  0.24710622395E+03  0.12135751972E+03 -0.20482336237E+03  0.38383035742E+03  0.17200000000E+03 0. -1.
         -6    1    1    2    0  502 -0.24710622395E+03 -0.12135751972E+03  0.71633666585E+03  0.78645492710E+03  0.17200000000E+03 0.  1.
</event>
<event>
 4    1 -0.3305908E-004  0.1728995E+03  0.7818608E-02  0.1174857E+00
         -5   -1    0    0    0  501 -0.00000000000E+00  0.00000000000E+00  0.25725019001E+03  0.25729312128E+03  0.47000000000E+01 0.  1.
          5   -1    0    0  501    0  0.00000000000E+00 -0.00000000000E+00 -0.11903559880E+03  0.11912835004E+03  0.47000000000E+01 0. -1.
          6    1    1    2  502    0  0.11697960679E+02 -0.13168210384E+02  0.98613114042E+02  0.19904469425E+03  0.17200000000E+03 0.  1.
         -6    1    1    2    0  502 -0.11697960679E+02  0.13168210384E+02  0.39601477163E+02  0.17737677707E+03  0.17200000000E+03 0. -1.
</event>
<event>
 4    1 -0.3305908E-004  0.1765274E+03  0.7818608E-02  0.1171207E+00
         -5   -1    0    0    0  501 -0.00000000000E+00  0.00000000000E+00  0.52629939037E+03  0.52632037611E+03  0.47000000000E+01 0.  1.
          5   -1    0    0  501    0  0.00000000000E+00 -0.00000000000E+00 -0.67796980543E+02  0.67959698136E+02  0.47000000000E+01 0. -1.
          6    1    1    2  502    0 -0.10879289566E+02  0.38204239923E+02  0.12294379582E+03  0.21512112825E+03  0.17200000000E+03 0.  1.
         -6    1    1    2    0  502  0.10879289566E+02 -0.38204239923E+02  0.33555861401E+03  0.37915894599E+03  0.17200000000E+03 0.  1.
</event>
<event>
 4    1 -0.3305908E-004  0.2100026E+03  0.7818608E-02  0.1141564E+00
          5   -1    0    0  501    0  0.00000000000E+00  0.00000000000E+00  0.73506984675E+03  0.73508487238E+03  0.47000000000E+01 0. -1.
         -5   -1    0    0    0  501 -0.00000000000E+00 -0.00000000000E+00 -0.60279865414E+02  0.60462816461E+02  0.47000000000E+01 0.  1.
          6    1    1    2  502    0 -0.57409270071E+02  0.10593042732E+03  0.36941145984E+03  0.42493047241E+03  0.17200000000E+03 0. -1.
         -6    1    1    2    0  502  0.57409270071E+02 -0.10593042732E+03  0.30537852150E+03  0.37061721643E+03  0.17200000000E+03 0.  1.
</event>
<event>
 4    1 -0.3305908E-004  0.3827321E+03  0.7818608E-02  0.1049929E+00
          5   -1    0    0  501    0  0.00000000000E+00  0.00000000000E+00  0.43837101713E+03  0.43839621196E+03  0.47000000000E+01 0. -1.
         -5   -1    0    0    0  501 -0.00000000000E+00 -0.00000000000E+00 -0.37345237962E+03  0.37348195384E+03  0.47000000000E+01 0.  1.
          6    1    1    2  502    0 -0.29107440810E+03  0.17937552052E+03  0.16421682083E+03  0.41647455223E+03  0.17200000000E+03 0. -1.
         -6    1    1    2    0  502  0.29107440810E+03 -0.17937552052E+03 -0.99298183322E+02  0.39540361357E+03  0.17200000000E+03 0.  1.
</event>
<event>
 4    1 -0.3305908E-004  0.1801022E+03  0.7818608E-02  0.1167704E+00
         -5   -1    0    0    0  501 -0.00000000000E+00  0.00000000000E+00  0.32588466350E+02  0.32925645614E+02  0.47000000000E+01 0.  1.
          5   -1    0    0  501    0  0.00000000000E+00 -0.00000000000E+00 -0.10819504695E+04  0.10819606779E+04  0.47000000000E+01 0. -1.
          6    1    1    2  502    0 -0.53409409704E+02  0.49676921703E+00 -0.36209422946E+03  0.40441197167E+03  0.17200000000E+03 0.  1.
         -6    1    1    2    0  502  0.53409409704E+02 -0.49676921703E+00 -0.68726777371E+03  0.71047435183E+03  0.17200000000E+03 0.  1.
</event>
<event>
 4    1 -0.3305908E-004  0.1948664E+03  0.7818608E-02  0.1154144E+00
         -5   -1    0    0    0  501 -0.00000000000E+00  0.00000000000E+00  0.24577427889E+03  0.24581921439E+03  0.47000000000E+01 0.  1.
          5   -1    0    0  501    0  0.00000000000E+00 -0.00000000000E+00 -0.16133266684E+03  0.16140111334E+03  0.47000000000E+01 0. -1.
          6    1    1    2  502    0 -0.61062470761E+01 -0.91387255801E+02  0.54009412797E-01  0.19486641500E+03  0.17200000000E+03 0. -1.
         -6    1    1    2    0  502  0.61062470761E+01  0.91387255801E+02  0.84387602644E+02  0.21235391274E+03  0.17200000000E+03 0.  1.
</event>
<event>
 4    1 -0.3305908E-004  0.2516837E+03  0.7818608E-02  0.1112245E+00
          5   -1    0    0  501    0  0.00000000000E+00  0.00000000000E+00  0.20110653159E+03  0.20116144523E+03  0.47000000000E+01 0. -1.
         -5   -1    0    0    0  501 -0.00000000000E+00 -0.00000000000E+00 -0.40074622668E+03  0.40077378682E+03  0.47000000000E+01 0.  1.
          6    1    1    2  502    0 -0.79938256849E+02 -0.16544046894E+03  0.39491613536E+02  0.25476314728E+03  0.17200000000E+03 0. -1.
         -6    1    1    2    0  502  0.79938256849E+02  0.16544046894E+03 -0.23913130863E+03  0.34717208477E+03  0.17200000000E+03 0.  1.
</event>
<event>
 4    1 -0.3305908E-004  0.2295556E+03  0.7818608E-02  0.1126953E+00
         -5   -1    0    0    0  501 -0.00000000000E+00  0.00000000000E+00  0.66105759215E+03  0.66107430001E+03  0.47000000000E+01 0.  1.
          5   -1    0    0  501    0  0.00000000000E+00 -0.00000000000E+00 -0.85116021540E+02  0.85245686828E+02  0.47000000000E+01 0. -1.
          6    1    1    2  502    0  0.24679878880E+02  0.15000899356E+03  0.19329523510E+03  0.30009805478E+03  0.17200000000E+03 0. -1.
         -6    1    1    2    0  502 -0.24679878880E+02 -0.15000899356E+03  0.38264633551E+03  0.44622193206E+03  0.17200000000E+03 0.  1.
</event>
<event>
 4    1 -0.3305908E-004  0.1723258E+03  0.7818608E-02  0.1175444E+00
          5   -1    0    0  501    0  0.00000000000E+00  0.00000000000E+00  0.25083950043E+03  0.25088352870E+03  0.47000000000E+01 0. -1.
         -5   -1    0    0    0  501 -0.00000000000E+00 -0.00000000000E+00 -0.12742042227E+03  0.12750707436E+03  0.47000000000E+01 0.  1.
          6    1    1    2  502    0  0.60799568746E+01  0.86728749676E+01  0.11233868324E+03  0.20570893123E+03  0.17200000000E+03 0. -1.
         -6    1    1    2    0  502 -0.60799568746E+01 -0.86728749676E+01  0.11080394909E+02  0.17268167183E+03  0.17200000000E+03 0.  1.
</event>
<event>
 4    1 -0.3305908E-004  0.1803284E+03  0.7818608E-02  0.1167486E+00
         -5   -1    0    0    0  501 -0.00000000000E+00  0.00000000000E+00  0.34221209417E+03  0.34224436796E+03  0.47000000000E+01 0.  1.
          5   -1    0    0  501    0  0.00000000000E+00 -0.00000000000E+00 -0.10959675968E+03  0.10969749192E+03  0.47000000000E+01 0. -1.
          6    1    1    2  502    0  0.29264886039E+02 -0.45583844176E+02  0.33693014137E+02  0.18344901092E+03  0.17200000000E+03 0. -1.
         -6    1    1    2    0  502 -0.29264886039E+02  0.45583844176E+02  0.19892232036E+03  0.26849284896E+03  0.17200000000E+03 0.  1.
</event>
<event>
 4    1 -0.3305908E-004  0.1750956E+03  0.7818608E-02  0.1172636E+00
         -5   -1    0    0    0  501 -0.00000000000E+00  0.00000000000E+00  0.15904421347E+03  0.15911364441E+03  0.47000000000E+01 0.  1.
          5   -1    0    0  501    0  0.00000000000E+00 -0.00000000000E+00 -0.27985629719E+03  0.27989576109E+03  0.47000000000E+01 0. -1.
          6    1    1    2  502    0 -0.26396743636E+02 -0.19434167256E+02 -0.18292872278E+03  0.25322202224E+03  0.17200000000E+03 0. -1.
         -6    1    1    2    0  502  0.26396743636E+02  0.19434167256E+02  0.62116639053E+02  0.18578738326E+03  0.17200000000E+03 0.  1.
</event>
<event>
 4    1 -0.3305908E-004  0.1969545E+03  0.7818608E-02  0.1152334E+00
         -5   -1    0    0    0  501 -0.00000000000E+00  0.00000000000E+00  0.91833483322E+02  0.91953676703E+02  0.47000000000E+01 0.  1.
          5   -1    0    0  501    0  0.00000000000E+00 -0.00000000000E+00 -0.66483297415E+03  0.66484958714E+03  0.47000000000E+01 0. -1.
          6    1    1    2  502    0 -0.47897518843E+02 -0.83143800502E+02 -0.51516858482E+03  0.55153398323E+03  0.17200000000E+03 0. -1.
         -6    1    1    2    0  502  0.47897518843E+02  0.83143800502E+02 -0.57830906012E+02  0.20526928061E+03  0.17200000000E+03 0.  1.
</event>
<event>
 4    1 -0.3305908E-004  0.1847519E+03  0.7818608E-02  0.1163282E+00
         -5   -1    0    0    0  501 -0.00000000000E+00  0.00000000000E+00  0.67066767606E+02  0.67231252533E+02  0.47000000000E+01 0.  1.
          5   -1    0    0  501    0  0.00000000000E+00 -0.00000000000E+00 -0.82381028825E+03  0.82382369536E+03  0.47000000000E+01 0. -1.
          6    1    1    2  502    0  0.59783123466E+02 -0.31228707579E+02 -0.65412832004E+03  0.67971840722E+03  0.17200000000E+03 0. -1.
         -6    1    1    2    0  502 -0.59783123466E+02  0.31228707579E+02 -0.10261520061E+03  0.21133654067E+03  0.17200000000E+03 0.  1.
</event>
<event>
 4    1 -0.3305908E-004  0.2325665E+03  0.7818608E-02  0.1124846E+00
         -5   -1    0    0    0  501 -0.00000000000E+00  0.00000000000E+00  0.89500295642E+02  0.89623618093E+02  0.47000000000E+01 0.  1.
          5   -1    0    0  501    0  0.00000000000E+00 -0.00000000000E+00 -0.10489468312E+04  0.10489573607E+04  0.47000000000E+01 0. -1.
          6    1    1    2  502    0  0.52156835479E+02  0.14759010340E+03 -0.10887837364E+03  0.25679111035E+03  0.17200000000E+03 0.  1.
         -6    1    1    2    0  502 -0.52156835479E+02 -0.14759010340E+03 -0.85056816189E+03  0.88178986847E+03  0.17200000000E+03 0.  1.
</event>
<event>
 4    1 -0.3305908E-004  0.1867587E+03  0.7818608E-02  0.1161418E+00
         -5   -1    0    0    0  501 -0.00000000000E+00  0.00000000000E+00  0.65248880246E+03  0.65250572974E+03  0.47000000000E+01 0.  1.
          5   -1    0    0  501    0  0.00000000000E+00 -0.00000000000E+00 -0.55029682073E+02  0.55230027242E+02  0.47000000000E+01 0. -1.
          6    1    1    2  502    0  0.72094879982E+02  0.98567533644E+01  0.23673767524E+03  0.30153532825E+03  0.17200000000E+03 0. -1.
         -6    1    1    2    0  502 -0.72094879982E+02 -0.98567533644E+01  0.36072144515E+03  0.40620042872E+03  0.17200000000E+03 0.  1.
</event>
<event>
 4    1 -0.3305908E-004  0.1974361E+03  0.7818608E-02  0.1151920E+00
          5   -1    0    0  501    0  0.00000000000E+00  0.00000000000E+00  0.60959421050E+03  0.60961232884E+03  0.47000000000E+01 0. -1.
         -5   -1    0    0    0  501 -0.00000000000E+00 -0.00000000000E+00 -0.18555776779E+03  0.18561728149E+03  0.47000000000E+01 0.  1.
          6    1    1    2  502    0 -0.96841977112E+02  0.43195972308E+01  0.53393393024E+03  0.56926836317E+03  0.17200000000E+03 0. -1.
         -6    1    1    2    0  502  0.96841977112E+02 -0.43195972308E+01 -0.10989748753E+03  0.22596124716E+03  0.17200000000E+03 0.  1.
</event>
<event>
 4    1 -0.3305908E-004  0.3058426E+03  0.7818608E-02  0.1082356E+00
         -5   -1    0    0    0  501 -0.00000000000E+00  0.00000000000E+00  0.43234772399E+03  0.43237326980E+03  0.47000000000E+01 0.  1.
          5   -1    0    0  501    0  0.00000000000E+00 -0.00000000000E+00 -0.23484974685E+03  0.23489677221E+03  0.47000000000E+01 0. -1.
          6    1    1    2  502    0  0.21143809016E+03 -0.13874294591E+03  0.49862190963E+01  0.30588320220E+03  0.17200000000E+03 0. -1.
         -6    1    1    2    0  502 -0.21143809016E+03  0.13874294591E+03  0.19251175804E+03  0.36138683982E+03  0.17200000000E+03 0.  1.
</event>
<event>
 4    1 -0.3305908E-004  0.2136984E+03  0.7818608E-02  0.1138670E+00
         -5   -1    0    0    0  501 -0.00000000000E+00  0.00000000000E+00  0.78697415990E+03  0.78698819454E+03  0.47000000000E+01 0.  1.
          5   -1    0    0  501    0  0.00000000000E+00 -0.00000000000E+00 -0.58157441684E+02  0.58347048110E+02  0.47000000000E+01 0. -1.
          6    1    1    2  502    0 -0.10546481780E+03 -0.70428677550E+02  0.33738503713E+03  0.39936911459E+03  0.17200000000E+03 0.  1.
         -6    1    1    2    0  502  0.10546481780E+03  0.70428677550E+02  0.39143168109E+03  0.44596612806E+03  0.17200000000E+03 0.  1.
</event>
<event>
 4    1 -0.3305908E-004  0.2836227E+03  0.7818608E-02  0.1093727E+00
          5   -1    0    0  501    0  0.00000000000E+00  0.00000000000E+00  0.15662917393E+03  0.15669967494E+03  0.47000000000E+01 0. -1.
         -5   -1    0    0    0  501 -0.00000000000E+00 -0.00000000000E+00 -0.52002219224E+03  0.52004343129E+03  0.47000000000E+01 0.  1.
          6    1    1    2  502    0 -0.21260778660E+03  0.75204846638E+02 -0.14347142184E+03  0.31784569962E+03  0.17200000000E+03 0.  1.
         -6    1    1    2    0  502  0.21260778660E+03 -0.75204846638E+02 -0.21992159647E+03  0.35889740661E+03  0.17200000000E+03 0.  1.
</event>
<event>
 4    1 -0.3305908E-004  0.2620285E+03  0.7818608E-02  0.1105931E+00
          5   -1    0    0  501    0  0.00000000000E+00  0.00000000000E+00  0.78820851778E+03  0.78822253044E+03  0.47000000000E+01 0. -1.
         -5   -1    0    0    0  501 -0.00000000000E+00 -0.00000000000E+00 -0.93213160645E+02  0.93331577279E+02  0.47000000000E+01 0.  1.
          6    1    1    2  502    0 -0.96652246412E+02 -0.17243335156E+03  0.46094390547E+03  0.53021524069E+03  0.17200000000E+03 0.  1.
         -6    1    1    2    0  502  0.96652246412E+02  0.17243335156E+03  0.23405145166E+03  0.35133886704E+03  0.17200000000E+03 0.  1.
</event>
<event>
 4    1 -0.3305908E-004  0.2377423E+03  0.7818608E-02  0.1121306E+00
         -5   -1    0    0    0  501 -0.00000000000E+00  0.00000000000E+00  0.58305489746E+03  0.58307384048E+03  0.47000000000E+01 0.  1.
          5   -1    0    0  501    0  0.00000000000E+00 -0.00000000000E+00 -0.19308874911E+03  0.19314594232E+03  0.47000000000E+01 0. -1.
          6    1    1    2  502    0 -0.76852467886E+02 -0.14502099883E+03 -0.78925287337E+02  0.25050068444E+03  0.17200000000E+03 0. -1.
         -6    1    1    2    0  502  0.76852467886E+02  0.14502099883E+03  0.46889143568E+03  0.52571909836E+03  0.17200000000E+03 0.  1.
</event>
<event>
 4    1 -0.3305908E-004  0.3140747E+03  0.7818608E-02  0.1078409E+00
          5   -1    0    0  501    0  0.00000000000E+00  0.00000000000E+00  0.23254769637E+03  0.23259518715E+03  0.47000000000E+01 0. -1.
         -5   -1    0    0    0  501 -0.00000000000E+00 -0.00000000000E+00 -0.46228477158E+03  0.46230866316E+03  0.47000000000E+01 0.  1.
          6    1    1    2  502    0 -0.26261842715E+03  0.95133386940E+01 -0.14991556809E+02  0.31443232764E+03  0.17200000000E+03 0. -1.
         -6    1    1    2    0  502  0.26261842715E+03 -0.95133386940E+01 -0.21474551840E+03  0.38047152267E+03  0.17200000000E+03 0.  1.
</event>
<event>
 4    1 -0.3305908E-004  0.1892821E+03  0.7818608E-02  0.1159110E+00
         -5   -1    0    0    0  501 -0.00000000000E+00  0.00000000000E+00  0.12652039434E+04  0.12652126731E+04  0.47000000000E+01 0.  1.
          5   -1    0    0  501    0  0.00000000000E+00 -0.00000000000E+00 -0.36747152105E+02  0.37046500345E+02  0.47000000000E+01 0. -1.
          6    1    1    2  502    0  0.20832181688E+01 -0.78989765251E+02  0.30013032442E+03  0.35483226241E+03  0.17200000000E+03 0. -1.
         -6    1    1    2    0  502 -0.20832181688E+01  0.78989765251E+02  0.92832646683E+03  0.94742691108E+03  0.17200000000E+03 0. -1.
</event>
<event>
 4    1 -0.3305908E-004  0.1933086E+03  0.7818608E-02  0.1155511E+00
          5   -1    0    0  501    0  0.00000000000E+00  0.00000000000E+00  0.23072845172E+03  0.23077631688E+03  0.47000000000E+01 0. -1.
         -5   -1    0    0    0  501 -0.00000000000E+00 -0.00000000000E+00 -0.16445186418E+03  0.16451901298E+03  0.47000000000E+01 0.  1.
          6    1    1    2  502    0 -0.85795373641E+02  0.20576185887E+02  0.57948182497E+02  0.20180737702E+03  0.17200000000E+03 0.  1.
         -6    1    1    2    0  502  0.85795373641E+02 -0.20576185887E+02  0.83284050380E+01  0.19348795284E+03  0.17200000000E+03 0.  1.
</event>
<event>
 4    1 -0.3305908E-004  0.4331866E+03  0.7818608E-02  0.1032858E+00
          5   -1    0    0  501    0  0.00000000000E+00  0.00000000000E+00  0.27705845996E+03  0.27709832232E+03  0.47000000000E+01 0. -1.
         -5   -1    0    0    0  501 -0.00000000000E+00 -0.00000000000E+00 -0.67818603083E+03  0.67820231672E+03  0.47000000000E+01 0.  1.
          6    1    1    2  502    0  0.28721457206E+02  0.39653710889E+03 -0.21878234940E+03  0.48530023413E+03  0.17200000000E+03 0.  1.
         -6    1    1    2    0  502 -0.28721457206E+02 -0.39653710889E+03 -0.18234522147E+03  0.47000040492E+03  0.17200000000E+03 0.  1.
</event>
<event>
 4    1 -0.3305908E-004  0.2911524E+03  0.7818608E-02  0.1089749E+00
          5   -1    0    0  501    0  0.00000000000E+00  0.00000000000E+00  0.20144774961E+03  0.20150257027E+03  0.47000000000E+01 0. -1.
         -5   -1    0    0    0  501 -0.00000000000E+00 -0.00000000000E+00 -0.42174386971E+03  0.42177005778E+03  0.47000000000E+01 0.  1.
          6    1    1    2  502    0 -0.15255585959E+03 -0.17864054462E+03 -0.94478443473E+02  0.30609787774E+03  0.17200000000E+03 0. -1.
         -6    1    1    2    0  502  0.15255585959E+03  0.17864054462E+03 -0.12581767662E+03  0.31717475030E+03  0.17200000000E+03 0.  1.
</event>
<event>
 4    1 -0.3305908E-004  0.2498281E+03  0.7818608E-02  0.1113414E+00
         -5   -1    0    0    0  501 -0.00000000000E+00  0.00000000000E+00  0.25952567823E+03  0.25956823315E+03  0.47000000000E+01 0.  1.
          5   -1    0    0  501    0  0.00000000000E+00 -0.00000000000E+00 -0.24447050249E+03  0.24451567759E+03  0.47000000000E+01 0. -1.
          6    1    1    2  502    0 -0.73793406505E+02  0.16548290206E+03 -0.24958814789E+02  0.25107170321E+03  0.17200000000E+03 0. -1.
         -6    1    1    2    0  502  0.73793406505E+02 -0.16548290206E+03  0.40013990528E+02  0.25301220753E+03  0.17200000000E+03 0.  1.
</event>
<event>
 4    1 -0.3305908E-004  0.1921436E+03  0.7818608E-02  0.1156542E+00
         -5   -1    0    0    0  501 -0.00000000000E+00  0.00000000000E+00  0.26052130182E+02  0.26472693233E+02  0.47000000000E+01 0.  1.
          5   -1    0    0  501    0  0.00000000000E+00 -0.00000000000E+00 -0.16985096346E+04  0.16985161374E+04  0.47000000000E+01 0. -1.
          6    1    1    2  502    0 -0.24431524307E+02 -0.82086844348E+02 -0.11945035815E+04  0.12098586511E+04  0.17200000000E+03 0. -1.
         -6    1    1    2    0  502  0.24431524307E+02  0.82086844348E+02 -0.47795392297E+03  0.51513017954E+03  0.17200000000E+03 0.  1.
</event>
<event>
 4    1 -0.3305908E-004  0.2570215E+03  0.7818608E-02  0.1108946E+00
         -5   -1    0    0    0  501 -0.00000000000E+00  0.00000000000E+00  0.16786403390E+04  0.16786469187E+04  0.47000000000E+01 0.  1.
          5   -1    0    0  501    0  0.00000000000E+00 -0.00000000000E+00 -0.28919088467E+03  0.28922907492E+03  0.47000000000E+01 0. -1.
          6    1    1    2  502    0  0.16375631321E+03 -0.98284774396E+02 -0.21982521589E+03  0.33820578430E+03  0.17200000000E+03 0. -1.
         -6    1    1    2    0  502 -0.16375631321E+03  0.98284774396E+02  0.16092746702E+04  0.16296702093E+04  0.17200000000E+03 0.  1.
</event>
<event>
 4    1 -0.3305908E-004  0.1984740E+03  0.7818608E-02  0.1151033E+00
          5   -1    0    0  501    0  0.00000000000E+00  0.00000000000E+00  0.50923359670E+02  0.51139794290E+02  0.47000000000E+01 0. -1.
         -5   -1    0    0    0  501 -0.00000000000E+00 -0.00000000000E+00 -0.79610522248E+03  0.79611909615E+03  0.47000000000E+01 0.  1.
          6    1    1    2  502    0 -0.34671091864E+02 -0.92767717106E+02 -0.29841305295E+03  0.35838845422E+03  0.17200000000E+03 0. -1.
         -6    1    1    2    0  502  0.34671091864E+02  0.92767717106E+02 -0.44676880986E+03  0.48887043622E+03  0.17200000000E+03 0.  1.
</event>
<event>
 4    1 -0.3305908E-004  0.2383274E+03  0.7818608E-02  0.1120912E+00
          5   -1    0    0  501    0  0.00000000000E+00  0.00000000000E+00  0.31327878138E+03  0.31331403554E+03  0.47000000000E+01 0. -1.
         -5   -1    0    0    0  501 -0.00000000000E+00 -0.00000000000E+00 -0.20490618015E+03  0.20496007578E+03  0.47000000000E+01 0.  1.
          6    1    1    2  502    0  0.35717542079E+02  0.16105963856E+03 -0.33876106779E+02  0.24072295403E+03  0.17200000000E+03 0.  1.
         -6    1    1    2    0  502 -0.35717542079E+02 -0.16105963856E+03  0.14224870801E+03  0.27755115729E+03  0.17200000000E+03 0. -1.
</event>
<event>
 4    1 -0.3305908E-004  0.3218953E+03  0.7818608E-02  0.1074780E+00
          5   -1    0    0  501    0  0.00000000000E+00  0.00000000000E+00  0.14012976256E+04  0.14013055075E+04  0.47000000000E+01 0. -1.
         -5   -1    0    0    0  501 -0.00000000000E+00 -0.00000000000E+00 -0.75279414931E+02  0.75425992286E+02  0.47000000000E+01 0.  1.
          6    1    1    2  502    0 -0.96028038619E+02 -0.25458037834E+03  0.76427469463E+03  0.82929630536E+03  0.17200000000E+03 0. -1.
         -6    1    1    2    0  502  0.96028038619E+02  0.25458037834E+03  0.56174351599E+03  0.64743519443E+03  0.17200000000E+03 0.  1.
</event>
<event>
 4    1 -0.3305908E-004  0.2033912E+03  0.7818608E-02  0.1146909E+00
          5   -1    0    0  501    0  0.00000000000E+00  0.00000000000E+00  0.15846347250E+04  0.15846416950E+04  0.47000000000E+01 0. -1.
         -5   -1    0    0    0  501 -0.00000000000E+00 -0.00000000000E+00 -0.33854864043E+02  0.34179552651E+02  0.47000000000E+01 0.  1.
          6    1    1    2  502    0  0.49871764106E+02 -0.96419773343E+02  0.38491055383E+03  0.43534365735E+03  0.17200000000E+03 0.  1.
         -6    1    1    2    0  502 -0.49871764106E+02  0.96419773343E+02  0.11658693071E+04  0.11834775903E+04  0.17200000000E+03 0. -1.
</event>
<event>
 4    1 -0.3305908E-004  0.1733803E+03  0.7818608E-02  0.1174368E+00
          5   -1    0    0  501    0  0.00000000000E+00  0.00000000000E+00  0.77011385839E+02  0.77154672890E+02  0.47000000000E+01 0. -1.
         -5   -1    0    0    0  501 -0.00000000000E+00 -0.00000000000E+00 -0.46733309026E+03  0.46735672377E+03  0.47000000000E+01 0.  1.
          6    1    1    2  502    0 -0.40051203555E+01  0.21463785924E+02 -0.30601942787E+03  0.35172236967E+03  0.17200000000E+03 0.  1.
         -6    1    1    2    0  502  0.40051203555E+01 -0.21463785924E+02 -0.84302276558E+02  0.19278902699E+03  0.17200000000E+03 0. -1.
</event>
<event>
 4    1 -0.3305908E-004  0.1810573E+03  0.7818608E-02  0.1166784E+00
          5   -1    0    0  501    0  0.00000000000E+00  0.00000000000E+00  0.24200764197E+03  0.24205327672E+03  0.47000000000E+01 0. -1.
         -5   -1    0    0    0  501 -0.00000000000E+00 -0.00000000000E+00 -0.13914361220E+03  0.13922296799E+03  0.47000000000E+01 0.  1.
          6    1    1    2  502    0  0.46099308688E+02 -0.32750724024E+02  0.82861014383E+02  0.19911731188E+03  0.17200000000E+03 0.  1.
         -6    1    1    2    0  502 -0.46099308688E+02  0.32750724024E+02  0.20003015384E+02  0.18215893283E+03  0.17200000000E+03 0.  1.
</event>
<event>
 4    1 -0.3305908E-004  0.2284897E+03  0.7818608E-02  0.1127707E+00
          5   -1    0    0  501    0  0.00000000000E+00  0.00000000000E+00  0.24543548251E+03  0.24548048003E+03  0.47000000000E+01 0. -1.
         -5   -1    0    0    0  501 -0.00000000000E+00 -0.00000000000E+00 -0.21385772687E+03  0.21390936712E+03  0.47000000000E+01 0.  1.
          6    1    1    2  502    0 -0.74134276760E+02  0.13087270682E+03  0.33234534060E+02  0.23089411131E+03  0.17200000000E+03 0.  1.
         -6    1    1    2    0  502  0.74134276760E+02 -0.13087270682E+03 -0.16567784180E+01  0.22849573584E+03  0.17200000000E+03 0.  1.
</event>
<event>
 4    1 -0.3305908E-004  0.1838162E+03  0.7818608E-02  0.1164160E+00
          5   -1    0    0  501    0  0.00000000000E+00  0.00000000000E+00  0.14036312291E+04  0.14036390980E+04  0.47000000000E+01 0. -1.
         -5   -1    0    0    0  501 -0.00000000000E+00 -0.00000000000E+00 -0.28319831741E+02  0.28707191953E+02  0.47000000000E+01 0.  1.
          6    1    1    2  502    0 -0.21632341675E+02 -0.61126347296E+02  0.97052100420E+03  0.98777497849E+03  0.17200000000E+03 0. -1.
         -6    1    1    2    0  502  0.21632341675E+02  0.61126347296E+02  0.40479039316E+03  0.44457131142E+03  0.17200000000E+03 0.  1.
</event>
<event>
 4    1 -0.3305908E-004  0.2150849E+03  0.7818608E-02  0.1137601E+00
          5   -1    0    0  501    0  0.00000000000E+00  0.00000000000E+00  0.16972457268E+03  0.16978963623E+03  0.47000000000E+01 0. -1.
         -5   -1    0    0    0  501 -0.00000000000E+00 -0.00000000000E+00 -0.38247530773E+03  0.38250418432E+03  0.47000000000E+01 0.  1.
          6    1    1    2  502    0  0.18144074069E+02 -0.12786048763E+03  0.41728527171E+02  0.21909537125E+03  0.17200000000E+03 0. -1.
         -6    1    1    2    0  502 -0.18144074069E+02  0.12786048763E+03 -0.25447926222E+03  0.33319844931E+03  0.17200000000E+03 0.  1.
</event>
<event>
 4    1 -0.3305908E-004  0.2687673E+03  0.7818608E-02  0.1101987E+00
          5   -1    0    0  501    0  0.00000000000E+00  0.00000000000E+00  0.14403655198E+03  0.14411321351E+03  0.47000000000E+01 0. -1.
         -5   -1    0    0    0  501 -0.00000000000E+00 -0.00000000000E+00 -0.74515304171E+03  0.74516786402E+03  0.47000000000E+01 0.  1.
          6    1    1    2  502    0 -0.32706210290E+02 -0.20391700310E+03 -0.46208001744E+02  0.27271050543E+03  0.17200000000E+03 0. -1.
         -6    1    1    2    0  502  0.32706210290E+02  0.20391700310E+03 -0.55490848798E+03  0.61657057210E+03  0.17200000000E+03 0.  1.
</event>
<event>
 4    1 -0.3305908E-004  0.2177802E+03  0.7818608E-02  0.1135549E+00
          5   -1    0    0  501    0  0.00000000000E+00  0.00000000000E+00  0.18077785463E+03  0.18083894139E+03  0.47000000000E+01 0. -1.
         -5   -1    0    0    0  501 -0.00000000000E+00 -0.00000000000E+00 -0.27753182114E+03  0.27757161552E+03  0.47000000000E+01 0.  1.
          6    1    1    2  502    0  0.37967736456E+01  0.13352820908E+03 -0.10218700700E+03  0.24056263739E+03  0.17200000000E+03 0. -1.
         -6    1    1    2    0  502 -0.37967736456E+01 -0.13352820908E+03  0.54330404893E+01  0.21784791952E+03  0.17200000000E+03 0.  1.
</event>
<event>
 4    1 -0.3305908E-004  0.2090946E+03  0.7818608E-02  0.1142285E+00
         -5   -1    0    0    0  501 -0.00000000000E+00  0.00000000000E+00  0.54893023193E+02  0.55093865314E+02  0.47000000000E+01 0.  1.
          5   -1    0    0  501    0  0.00000000000E+00 -0.00000000000E+00 -0.79967708385E+03  0.79969089555E+03  0.47000000000E+01 0. -1.
          6    1    1    2  502    0 -0.28040463931E+02 -0.11554346424E+03 -0.40574341177E+03  0.45645183310E+03  0.17200000000E+03 0. -1.
         -6    1    1    2    0  502  0.28040463931E+02  0.11554346424E+03 -0.33904064888E+03  0.39833292776E+03  0.17200000000E+03 0.  1.
</event>
<event>
 4    1 -0.3305908E-004  0.2804483E+03  0.7818608E-02  0.1095444E+00
          5   -1    0    0  501    0  0.00000000000E+00  0.00000000000E+00  0.28674327055E+03  0.28678178674E+03  0.47000000000E+01 0. -1.
         -5   -1    0    0    0  501 -0.00000000000E+00 -0.00000000000E+00 -0.37270898098E+03  0.37273861418E+03  0.47000000000E+01 0.  1.
          6    1    1    2  502    0  0.15924381041E+03 -0.15397611061E+03  0.12651986913E+03  0.30766623324E+03  0.17200000000E+03 0. -1.
         -6    1    1    2    0  502 -0.15924381041E+03  0.15397611061E+03 -0.21248557956E+03  0.35185416768E+03  0.17200000000E+03 0.  1.
</event>
<event>
 4    1 -0.3305908E-004  0.1950137E+03  0.7818608E-02  0.1154015E+00
          5   -1    0    0  501    0  0.00000000000E+00  0.00000000000E+00  0.10699054248E+04  0.10699157481E+04  0.47000000000E+01 0. -1.
         -5   -1    0    0    0  501 -0.00000000000E+00 -0.00000000000E+00 -0.66381595592E+02  0.66547774067E+02  0.47000000000E+01 0.  1.
          6    1    1    2  502    0  0.28526966265E+02  0.87364512750E+02  0.88936200436E+03  0.91049169172E+03  0.17200000000E+03 0. -1.
         -6    1    1    2    0  502 -0.28526966265E+02 -0.87364512750E+02  0.11416182482E+03  0.22597183041E+03  0.17200000000E+03 0.  1.
</event>
<event>
 4    1 -0.3305908E-004  0.2154576E+03  0.7818608E-02  0.1137316E+00
          5   -1    0    0  501    0  0.00000000000E+00  0.00000000000E+00  0.15307924782E+03  0.15315138300E+03  0.47000000000E+01 0. -1.
         -5   -1    0    0    0  501 -0.00000000000E+00 -0.00000000000E+00 -0.39592737809E+03  0.39595527364E+03  0.47000000000E+01 0.  1.
          6    1    1    2  502    0  0.10595473239E+03  0.74910429397E+02 -0.25435214680E+03  0.33334215505E+03  0.17200000000E+03 0. -1.
         -6    1    1    2    0  502 -0.10595473239E+03 -0.74910429397E+02  0.11504016532E+02  0.21576450159E+03  0.17200000000E+03 0. -1.
</event>
<event>
 4    1 -0.3305908E-004  0.2408425E+03  0.7818608E-02  0.1119233E+00
          5   -1    0    0  501    0  0.00000000000E+00  0.00000000000E+00  0.26774426407E+03  0.26778551294E+03  0.47000000000E+01 0. -1.
         -5   -1    0    0    0  501 -0.00000000000E+00 -0.00000000000E+00 -0.21692919902E+03  0.21698010828E+03  0.47000000000E+01 0.  1.
          6    1    1    2  502    0 -0.45579840291E+02 -0.16230700952E+03  0.15412801853E+02  0.24133512310E+03  0.17200000000E+03 0. -1.
         -6    1    1    2    0  502  0.45579840291E+02  0.16230700952E+03  0.35402263194E+02  0.24343049813E+03  0.17200000000E+03 0.  1.
</event>
<event>
 4    1 -0.3305908E-004  0.1888300E+03  0.7818608E-02  0.1159521E+00
         -5   -1    0    0    0  501 -0.00000000000E+00  0.00000000000E+00  0.80741917967E+02  0.80878596161E+02  0.47000000000E+01 0.  1.
          5   -1    0    0  501    0  0.00000000000E+00 -0.00000000000E+00 -0.47284514218E+03  0.47286850020E+03  0.47000000000E+01 0. -1.
          6    1    1    2  502    0  0.51634720639E+02  0.58366412093E+02 -0.26778878748E+03  0.32766998205E+03  0.17200000000E+03 0. -1.
         -6    1    1    2    0  502 -0.51634720639E+02 -0.58366412093E+02 -0.12431443673E+03  0.22607711431E+03  0.17200000000E+03 0.  1.
</event>
<event>
 4    1 -0.3305908E-004  0.1770626E+03  0.7818608E-02  0.1170677E+00
          5   -1    0    0  501    0  0.00000000000E+00  0.00000000000E+00  0.62931594048E+03  0.62933349103E+03  0.47000000000E+01 0. -1.
         -5   -1    0    0    0  501 -0.00000000000E+00 -0.00000000000E+00 -0.70286144104E+02  0.70443112175E+02  0.47000000000E+01 0.  1.
          6    1    1    2  502    0 -0.31112824764E+02 -0.28269107835E+02  0.46864600438E+03  0.50097926878E+03  0.17200000000E+03 0. -1.
         -6    1    1    2    0  502  0.31112824764E+02  0.28269107835E+02  0.90383791992E+02  0.19879733443E+03  0.17200000000E+03 0.  1.
</event>
<event>
 4    1 -0.3305908E-004  0.3100330E+03  0.7818608E-02  0.1080330E+00
         -5   -1    0    0    0  501 -0.00000000000E+00  0.00000000000E+00  0.24895767823E+03  0.24900203925E+03  0.47000000000E+01 0.  1.
          5   -1    0    0  501    0  0.00000000000E+00 -0.00000000000E+00 -0.38723779843E+03  0.38726631991E+03  0.47000000000E+01 0. -1.
          6    1    1    2  502    0 -0.10315372207E+03 -0.23642291907E+03 -0.51145176850E+02  0.31422335393E+03  0.17200000000E+03 0. -1.
         -6    1    1    2    0  502  0.10315372207E+03  0.23642291907E+03 -0.87134943355E+02  0.32204500523E+03  0.17200000000E+03 0.  1.
</event>
<event>
 4    1 -0.3305908E-004  0.1889561E+03  0.7818608E-02  0.1159406E+00
         -5   -1    0    0    0  501 -0.00000000000E+00  0.00000000000E+00  0.32327533452E+03  0.32330949864E+03  0.47000000000E+01 0.  1.
          5   -1    0    0  501    0  0.00000000000E+00 -0.00000000000E+00 -0.13621832830E+03  0.13629938725E+03  0.47000000000E+01 0. -1.
          6    1    1    2  502    0  0.60910497743E+02 -0.49095137357E+02  0.19361537278E+03  0.27053896914E+03  0.17200000000E+03 0.  1.
         -6    1    1    2    0  502 -0.60910497743E+02  0.49095137357E+02 -0.65583665520E+01  0.18906991675E+03  0.17200000000E+03 0. -1.
</event>
<event>
 4    1 -0.3305908E-004  0.1730614E+03  0.7818608E-02  0.1174692E+00
          5   -1    0    0  501    0  0.00000000000E+00  0.00000000000E+00  0.31816022791E+03  0.31819494123E+03  0.47000000000E+01 0. -1.
         -5   -1    0    0    0  501 -0.00000000000E+00 -0.00000000000E+00 -0.97731304610E+02  0.97844253284E+02  0.47000000000E+01 0.  1.
          6    1    1    2  502    0 -0.15259180035E+02  0.11550341618E+02  0.15062628629E+03  0.22943088521E+03  0.17200000000E+03 0. -1.
         -6    1    1    2    0  502  0.15259180035E+02 -0.11550341618E+02  0.69802637007E+02  0.18660830930E+03  0.17200000000E+03 0.  1.
</event>
<event>
 4    1 -0.3305908E-004  0.1897314E+03  0.7818608E-02  0.1158704E+00
          5   -1    0    0  501    0  0.00000000000E+00  0.00000000000E+00  0.26994674647E+03  0.26998765884E+03  0.47000000000E+01 0. -1.
         -5   -1    0    0    0  501 -0.00000000000E+00 -0.00000000000E+00 -0.15891899691E+03  0.15898848254E+03  0.47000000000E+01 0.  1.
          6    1    1    2  502    0  0.55771270460E+02  0.57476544662E+02  0.14166825816E+03  0.23678657725E+03  0.17200000000E+03 0. -1.
         -6    1    1    2    0  502 -0.55771270460E+02 -0.57476544662E+02 -0.30640508600E+02  0.19218956413E+03  0.17200000000E+03 0.  1.
</event>
<event>
 4    1 -0.3305908E-004  0.1773431E+03  0.7818608E-02  0.1170399E+00
         -5   -1    0    0    0  501 -0.00000000000E+00  0.00000000000E+00  0.56750184002E+02  0.56944476328E+02  0.47000000000E+01 0.  1.
          5   -1    0    0  501    0  0.00000000000E+00 -0.00000000000E+00 -0.74821037114E+03  0.74822513288E+03  0.47000000000E+01 0. -1.
          6    1    1    2  502    0  0.25491044634E+02 -0.34882281627E+02 -0.55131392733E+03  0.57913522894E+03  0.17200000000E+03 0. -1.
         -6    1    1    2    0  502 -0.25491044634E+02  0.34882281627E+02 -0.14014625981E+03  0.22603438027E+03  0.17200000000E+03 0.  1.
</event>
<event>
 4    1 -0.3305908E-004  0.2970193E+03  0.7818608E-02  0.1086740E+00
          5   -1    0    0  501    0  0.00000000000E+00  0.00000000000E+00  0.28277251612E+03  0.28281157309E+03  0.47000000000E+01 0. -1.
         -5   -1    0    0    0  501 -0.00000000000E+00 -0.00000000000E+00 -0.31635642890E+03  0.31639134012E+03  0.47000000000E+01 0.  1.
          6    1    1    2  502    0 -0.22606203488E+03 -0.86789545805E+02  0.18740567560E+02  0.29760994228E+03  0.17200000000E+03 0. -1.
         -6    1    1    2    0  502  0.22606203488E+03  0.86789545805E+02 -0.52324480332E+02  0.30159297093E+03  0.17200000000E+03 0.  1.
</event>
<event>
 4    1 -0.3305908E-004  0.1885870E+03  0.7818608E-02  0.1159742E+00
          5   -1    0    0  501    0  0.00000000000E+00  0.00000000000E+00  0.25093327492E+03  0.25097728674E+03  0.47000000000E+01 0. -1.
         -5   -1    0    0    0  501 -0.00000000000E+00 -0.00000000000E+00 -0.23644907744E+03  0.23649578479E+03  0.47000000000E+01 0.  1.
          6    1    1    2  502    0 -0.75772868855E+02  0.15476318521E+02  0.16155032400E+03  0.24832146760E+03  0.17200000000E+03 0. -1.
         -6    1    1    2    0  502  0.75772868855E+02 -0.15476318521E+02 -0.14706612653E+03  0.23915160393E+03  0.17200000000E+03 0.  1.
</event>
<event>
 4    1 -0.3305908E-004  0.2487142E+03  0.7818608E-02  0.1114120E+00
         -5   -1    0    0    0  501 -0.00000000000E+00  0.00000000000E+00  0.16793191432E+04  0.16793257202E+04  0.47000000000E+01 0.  1.
          5   -1    0    0  501    0  0.00000000000E+00 -0.00000000000E+00 -0.38303850612E+02  0.38591125557E+02  0.47000000000E+01 0. -1.
          6    1    1    2  502    0  0.17408227880E+03  0.44386070597E+02  0.64428585124E+03  0.69062509450E+03  0.17200000000E+03 0. -1.
         -6    1    1    2    0  502 -0.17408227880E+03 -0.44386070597E+02  0.99672944131E+03  0.10272917513E+04  0.17200000000E+03 0.  1.
</event>
<event>
 4    1 -0.3305908E-004  0.3540766E+03  0.7818608E-02  0.1060954E+00
          5   -1    0    0  501    0  0.00000000000E+00  0.00000000000E+00  0.13536422467E+03  0.13544579477E+03  0.47000000000E+01 0. -1.
         -5   -1    0    0    0  501 -0.00000000000E+00 -0.00000000000E+00 -0.98293842718E+03  0.98294966383E+03  0.47000000000E+01 0.  1.
          6    1    1    2  502    0 -0.26743958296E+03  0.15576356178E+03 -0.28897328986E+03  0.45702929880E+03  0.17200000000E+03 0. -1.
         -6    1    1    2    0  502  0.26743958296E+03 -0.15576356178E+03 -0.55860091265E+03  0.66136615980E+03  0.17200000000E+03 0.  1.
</event>
<event>
 4    1 -0.3305908E-004  0.2868223E+03  0.7818608E-02  0.1092020E+00
          5   -1    0    0  501    0  0.00000000000E+00  0.00000000000E+00  0.67644952348E+03  0.67646585118E+03  0.47000000000E+01 0. -1.
         -5   -1    0    0    0  501 -0.00000000000E+00 -0.00000000000E+00 -0.23365064397E+03  0.23369791061E+03  0.47000000000E+01 0.  1.
          6    1    1    2  502    0  0.11512392741E+03  0.19856860779E+03  0.53655544288E+03  0.60840673398E+03  0.17200000000E+03 0. -1.
         -6    1    1    2    0  502 -0.11512392741E+03 -0.19856860779E+03 -0.93756563369E+02  0.30175702782E+03  0.17200000000E+03 0.  1.
</event>
<event>
 4    1 -0.3305908E-004  0.2420586E+03  0.7818608E-02  0.1118429E+00
          5   -1    0    0  501    0  0.00000000000E+00  0.00000000000E+00  0.14402775749E+03  0.14410442369E+03  0.47000000000E+01 0. -1.
         -5   -1    0    0    0  501 -0.00000000000E+00 -0.00000000000E+00 -0.67679284687E+03  0.67680916629E+03  0.47000000000E+01 0.  1.
          6    1    1    2  502    0  0.61544261714E+02 -0.15881013247E+03 -0.70641543126E+01  0.24216163322E+03  0.17200000000E+03 0. -1.
         -6    1    1    2    0  502 -0.61544261714E+02  0.15881013247E+03 -0.52570093507E+03  0.57875195677E+03  0.17200000000E+03 0.  1.
</event>
<event>
 4    1 -0.3305908E-004  0.2971989E+03  0.7818608E-02  0.1086649E+00
          5   -1    0    0  501    0  0.00000000000E+00  0.00000000000E+00  0.20430573101E+03  0.20435978499E+03  0.47000000000E+01 0. -1.
         -5   -1    0    0    0  501 -0.00000000000E+00 -0.00000000000E+00 -0.61420998047E+03  0.61422796266E+03  0.47000000000E+01 0.  1.
          6    1    1    2  502    0  0.19193102464E+03  0.14800558706E+03  0.17836166674E+02  0.29773360721E+03  0.17200000000E+03 0. -1.
         -6    1    1    2    0  502 -0.19193102464E+03 -0.14800558706E+03 -0.42774041613E+03  0.52085414044E+03  0.17200000000E+03 0.  1.
</event>
<event>
 4    1 -0.3305908E-004  0.2650098E+03  0.7818608E-02  0.1104170E+00
          5   -1    0    0  501    0  0.00000000000E+00  0.00000000000E+00  0.56398726419E+03  0.56400684762E+03  0.47000000000E+01 0. -1.
         -5   -1    0    0    0  501 -0.00000000000E+00 -0.00000000000E+00 -0.18263009013E+03  0.18269055756E+03  0.47000000000E+01 0.  1.
          6    1    1    2  502    0 -0.19763777421E+03  0.39818206689E+02  0.40133405107E+03  0.48093575447E+03  0.17200000000E+03 0. -1.
         -6    1    1    2    0  502  0.19763777421E+03 -0.39818206689E+02 -0.19976877015E+02  0.26576165072E+03  0.17200000000E+03 0. -1.
</event>
<event>
 4    1 -0.3305908E-004  0.2583840E+03  0.7818608E-02  0.1108118E+00
         -5   -1    0    0    0  501 -0.00000000000E+00  0.00000000000E+00  0.13216133855E+03  0.13224488423E+03  0.47000000000E+01 0.  1.
          5   -1    0    0  501    0  0.00000000000E+00 -0.00000000000E+00 -0.51880317508E+03  0.51882446403E+03  0.47000000000E+01 0. -1.
          6    1    1    2  502    0  0.32488249673E+02  0.19006004458E+03 -0.14004216571E+03  0.29389473471E+03  0.17200000000E+03 0. -1.
         -6    1    1    2    0  502 -0.32488249673E+02 -0.19006004458E+03 -0.24659967083E+03  0.35717461356E+03  0.17200000000E+03 0.  1.
</event>
<event>
 4    1 -0.3305908E-004  0.2185981E+03  0.7818608E-02  0.1134933E+00
         -5   -1    0    0    0  501 -0.00000000000E+00  0.00000000000E+00  0.26009320862E+03  0.26013567070E+03  0.47000000000E+01 0.  1.
          5   -1    0    0  501    0  0.00000000000E+00 -0.00000000000E+00 -0.18443350949E+03  0.18449338585E+03  0.47000000000E+01 0. -1.
          6    1    1    2  502    0  0.13489941840E+03 -0.18090577842E+01  0.52448824610E+02  0.22480214630E+03  0.17200000000E+03 0. -1.
         -6    1    1    2    0  502 -0.13489941840E+03  0.18090577842E+01  0.23210874520E+02  0.21982691025E+03  0.17200000000E+03 0.  1.
</event>
<event>
 4    1 -0.3305908E-004  0.2415841E+03  0.7818608E-02  0.1118742E+00
         -5   -1    0    0    0  501 -0.00000000000E+00  0.00000000000E+00  0.70117958744E+02  0.70275302478E+02  0.47000000000E+01 0.  1.
          5   -1    0    0  501    0  0.00000000000E+00 -0.00000000000E+00 -0.10765344157E+04  0.10765446755E+04  0.47000000000E+01 0. -1.
          6    1    1    2  502    0 -0.16960469634E+03  0.36242453072E+01 -0.77689056812E+03  0.81358579327E+03  0.17200000000E+03 0. -1.
         -6    1    1    2    0  502  0.16960469634E+03 -0.36242453072E+01 -0.22952588888E+03  0.33323418468E+03  0.17200000000E+03 0.  1.
</event>
<event>
 4    1 -0.3305908E-004  0.1752052E+03  0.7818608E-02  0.1172526E+00
          5   -1    0    0  501    0  0.00000000000E+00  0.00000000000E+00  0.14550050710E+03  0.14557639769E+03  0.47000000000E+01 0. -1.
         -5   -1    0    0    0  501 -0.00000000000E+00 -0.00000000000E+00 -0.22035503630E+03  0.22040515426E+03  0.47000000000E+01 0.  1.
          6    1    1    2  502    0 -0.32872998706E+02  0.56771505716E+01 -0.75487180466E+02  0.19077520409E+03  0.17200000000E+03 0. -1.
         -6    1    1    2    0  502  0.32872998706E+02 -0.56771505716E+01  0.63265126032E+00  0.17520634786E+03  0.17200000000E+03 0.  1.
</event>
<event>
 4    1 -0.3305908E-004  0.2512713E+03  0.7818608E-02  0.1112504E+00
          5   -1    0    0  501    0  0.00000000000E+00  0.00000000000E+00  0.46136409558E+03  0.46138803484E+03  0.47000000000E+01 0. -1.
         -5   -1    0    0    0  501 -0.00000000000E+00 -0.00000000000E+00 -0.13805913572E+03  0.13813911450E+03  0.47000000000E+01 0.  1.
          6    1    1    2  502    0  0.17639738634E+03 -0.49368273941E+02  0.19048135723E+03  0.31531002495E+03  0.17200000000E+03 0. -1.
         -6    1    1    2    0  502 -0.17639738634E+03  0.49368273941E+02  0.13282360264E+03  0.28421712439E+03  0.17200000000E+03 0.  1.
</event>
<event>
 4    1 -0.3305908E-004  0.2577414E+03  0.7818608E-02  0.1108508E+00
         -5   -1    0    0    0  501 -0.00000000000E+00  0.00000000000E+00  0.46108056015E+03  0.46110451413E+03  0.47000000000E+01 0.  1.
          5   -1    0    0  501    0  0.00000000000E+00 -0.00000000000E+00 -0.21694719709E+03  0.21699810212E+03  0.47000000000E+01 0. -1.
          6    1    1    2  502    0 -0.79225449220E+02  0.17484273292E+03 -0.74484275387E+02  0.26828820388E+03  0.17200000000E+03 0. -1.
         -6    1    1    2    0  502  0.79225449220E+02 -0.17484273292E+03  0.31861763845E+03  0.40981441237E+03  0.17200000000E+03 0.  1.
</event>
<event>
 4    1 -0.3305908E-004  0.2553525E+03  0.7818608E-02  0.1109968E+00
         -5   -1    0    0    0  501 -0.00000000000E+00  0.00000000000E+00  0.39871013058E+03  0.39873783145E+03  0.47000000000E+01 0.  1.
          5   -1    0    0  501    0  0.00000000000E+00 -0.00000000000E+00 -0.16403938584E+03  0.16410670341E+03  0.47000000000E+01 0. -1.
          6    1    1    2  502    0 -0.33490627363E+02  0.18573987455E+03  0.10079665280E+03  0.27452666234E+03  0.17200000000E+03 0. -1.
         -6    1    1    2    0  502  0.33490627363E+02 -0.18573987455E+03  0.13387409194E+03  0.28831787252E+03  0.17200000000E+03 0. -1.
</event>
<event>
 4    1 -0.3305908E-004  0.2025098E+03  0.7818608E-02  0.1147639E+00
          5   -1    0    0  501    0  0.00000000000E+00  0.00000000000E+00  0.41106299106E+03  0.41108985954E+03  0.47000000000E+01 0. -1.
         -5   -1    0    0    0  501 -0.00000000000E+00 -0.00000000000E+00 -0.10616089364E+03  0.10626488291E+03  0.47000000000E+01 0.  1.
          6    1    1    2  502    0 -0.10076904000E+03 -0.35662790555E+02  0.21632038382E+03  0.29631865029E+03  0.17200000000E+03 0. -1.
         -6    1    1    2    0  502  0.10076904000E+03  0.35662790555E+02  0.88581713595E+02  0.22103609216E+03  0.17200000000E+03 0.  1.
</event>
<event>
 4    1 -0.3305908E-004  0.2729034E+03  0.7818608E-02  0.1099629E+00
          5   -1    0    0  501    0  0.00000000000E+00  0.00000000000E+00  0.26523907774E+03  0.26528071615E+03  0.47000000000E+01 0. -1.
         -5   -1    0    0    0  501 -0.00000000000E+00 -0.00000000000E+00 -0.62284274222E+03  0.62286047518E+03  0.47000000000E+01 0.  1.
          6    1    1    2  502    0 -0.21023116610E+03  0.26365139019E+02  0.15030607066E+03  0.31155766502E+03  0.17200000000E+03 0. -1.
         -6    1    1    2    0  502  0.21023116610E+03 -0.26365139019E+02 -0.50790973514E+03  0.57658352630E+03  0.17200000000E+03 0.  1.
</event>
<event>
 4    1 -0.3305908E-004  0.1964306E+03  0.7818608E-02  0.1152786E+00
          5   -1    0    0  501    0  0.00000000000E+00  0.00000000000E+00  0.99700270011E+03  0.99701377826E+03  0.47000000000E+01 0. -1.
         -5   -1    0    0    0  501 -0.00000000000E+00 -0.00000000000E+00 -0.57982038701E+02  0.58172216839E+02  0.47000000000E+01 0.  1.
          6    1    1    2  502    0 -0.23359227446E+02 -0.91952755236E+02  0.77431070826E+03  0.79883792826E+03  0.17200000000E+03 0. -1.
         -6    1    1    2    0  502  0.23359227446E+02  0.91952755236E+02  0.16470995315E+03  0.25634806683E+03  0.17200000000E+03 0.  1.
</event>
<event>
 4    1 -0.3305908E-004  0.1839292E+03  0.7818608E-02  0.1164054E+00
          5   -1    0    0  501    0  0.00000000000E+00  0.00000000000E+00  0.95242762045E+02  0.95358658349E+02  0.47000000000E+01 0. -1.
         -5   -1    0    0    0  501 -0.00000000000E+00 -0.00000000000E+00 -0.43385583543E+03  0.43388129245E+03  0.47000000000E+01 0.  1.
          6    1    1    2  502    0  0.89212648462E+01  0.64547424495E+02 -0.56402855408E+02  0.19238305818E+03  0.17200000000E+03 0. -1.
         -6    1    1    2    0  502 -0.89212648462E+01 -0.64547424495E+02 -0.28221021798E+03  0.33685689262E+03  0.17200000000E+03 0. -1.
</event>
<event>
 4    1 -0.3305908E-004  0.2119858E+03  0.7818608E-02  0.1140003E+00
          5   -1    0    0  501    0  0.00000000000E+00  0.00000000000E+00  0.31719685369E+03  0.31723167242E+03  0.47000000000E+01 0. -1.
         -5   -1    0    0    0  501 -0.00000000000E+00 -0.00000000000E+00 -0.14201198055E+03  0.14208973439E+03  0.47000000000E+01 0.  1.
          6    1    1    2  502    0  0.60343586409E+02 -0.10822489640E+03  0.75087471057E+02  0.22489131804E+03  0.17200000000E+03 0.  1.
         -6    1    1    2    0  502 -0.60343586409E+02  0.10822489640E+03  0.10009740208E+03  0.23443008878E+03  0.17200000000E+03 0.  1.
</event>
<event>
 4    1 -0.3305908E-004  0.4434241E+03  0.7818608E-02  0.1029701E+00
          5   -1    0    0  501    0  0.00000000000E+00  0.00000000000E+00  0.16940706290E+03  0.16947224834E+03  0.47000000000E+01 0. -1.
         -5   -1    0    0    0  501 -0.00000000000E+00 -0.00000000000E+00 -0.14226312980E+04  0.14226390617E+04  0.47000000000E+01 0.  1.
          6    1    1    2  502    0  0.20521879917E+03 -0.35344899516E+03 -0.28482859799E+03  0.52702208488E+03  0.17200000000E+03 0. -1.
         -6    1    1    2    0  502 -0.20521879917E+03  0.35344899516E+03 -0.96839563710E+03  0.10650892252E+04  0.17200000000E+03 0.  1.
</event>
<event>
 4    1 -0.3305908E-004  0.2614396E+03  0.7818608E-02  0.1106281E+00
         -5   -1    0    0    0  501 -0.00000000000E+00  0.00000000000E+00  0.93149504710E+03  0.93150690430E+03  0.47000000000E+01 0.  1.
          5   -1    0    0  501    0  0.00000000000E+00 -0.00000000000E+00 -0.73293817923E+02  0.73444358162E+02  0.47000000000E+01 0. -1.
          6    1    1    2  502    0  0.18975141285E+03  0.52545662675E+02  0.42536539099E+03  0.49928585119E+03  0.17200000000E+03 0. -1.
         -6    1    1    2    0  502 -0.18975141285E+03 -0.52545662675E+02  0.43283583818E+03  0.50566541127E+03  0.17200000000E+03 0.  1.
</event>
<event>
 4    1 -0.3305908E-004  0.1859777E+03  0.7818608E-02  0.1162140E+00
         -5   -1    0    0    0  501 -0.00000000000E+00  0.00000000000E+00  0.30052298451E+02  0.30417604149E+02  0.47000000000E+01 0.  1.
          5   -1    0    0  501    0  0.00000000000E+00 -0.00000000000E+00 -0.18439146635E+04  0.18439206535E+04  0.47000000000E+01 0. -1.
          6    1    1    2  502    0 -0.10112640129E+02  0.70010225624E+02 -0.14844313704E+04  0.14960361595E+04  0.17200000000E+03 0. -1.
         -6    1    1    2    0  502  0.10112640129E+02 -0.70010225624E+02 -0.32943099466E+03  0.37830209810E+03  0.17200000000E+03 0.  1.
</event>
<event>
 4    1 -0.3305908E-004  0.1731103E+03  0.7818608E-02  0.1174643E+00
          5   -1    0    0  501    0  0.00000000000E+00  0.00000000000E+00  0.62007127369E+03  0.62008908591E+03  0.47000000000E+01 0. -1.
         -5   -1    0    0    0  501 -0.00000000000E+00 -0.00000000000E+00 -0.68138041206E+02  0.68299946262E+02  0.47000000000E+01 0.  1.
          6    1    1    2  502    0 -0.98075013301E+01 -0.16941046235E+02  0.46188317651E+03  0.49325779758E+03  0.17200000000E+03 0. -1.
         -6    1    1    2    0  502  0.98075013301E+01  0.16941046235E+02  0.90050055974E+02  0.19513123459E+03  0.17200000000E+03 0.  1.
</event>
<event>
 4    1 -0.3305908E-004  0.1741989E+03  0.7818608E-02  0.1173538E+00
          5   -1    0    0  501    0  0.00000000000E+00  0.00000000000E+00  0.51830615455E+02  0.52043277168E+02  0.47000000000E+01 0. -1.
         -5   -1    0    0    0  501 -0.00000000000E+00 -0.00000000000E+00 -0.58545481481E+03  0.58547368018E+03  0.47000000000E+01 0.  1.
          6    1    1    2  502    0 -0.18215470248E+02 -0.20723180746E+02 -0.25119471506E+03  0.30568617642E+03  0.17200000000E+03 0.  1.
         -6    1    1    2    0  502  0.18215470248E+02  0.20723180746E+02 -0.28242948429E+03  0.33183078093E+03  0.17200000000E+03 0.  1.
</event>
<event>
 4    1 -0.3305908E-004  0.1739629E+03  0.7818608E-02  0.1173777E+00
         -5   -1    0    0    0  501 -0.00000000000E+00  0.00000000000E+00  0.17674631340E+03  0.17680879305E+03  0.47000000000E+01 0.  1.
          5   -1    0    0  501    0  0.00000000000E+00 -0.00000000000E+00 -0.17575757850E+03  0.17582040951E+03  0.47000000000E+01 0. -1.
          6    1    1    2  502    0  0.11617008821E+02  0.23326370426E+02 -0.28202779620E+02  0.17623413753E+03  0.17200000000E+03 0. -1.
         -6    1    1    2    0  502 -0.11617008821E+02 -0.23326370426E+02  0.29191514518E+02  0.17639506504E+03  0.17200000000E+03 0.  1.
</event>
<event>
 4    1 -0.3305908E-004  0.2428333E+03  0.7818608E-02  0.1117920E+00
         -5   -1    0    0    0  501 -0.00000000000E+00  0.00000000000E+00  0.88920001207E+02  0.89044127346E+02  0.47000000000E+01 0.  1.
          5   -1    0    0  501    0  0.00000000000E+00 -0.00000000000E+00 -0.69502253722E+03  0.69503842861E+03  0.47000000000E+01 0. -1.
          6    1    1    2  502    0 -0.15110193421E+03 -0.80945700558E+02 -0.21833625648E+03  0.32655584799E+03  0.17200000000E+03 0.  1.
         -6    1    1    2    0  502  0.15110193421E+03  0.80945700558E+02 -0.38776627953E+03  0.45752670796E+03  0.17200000000E+03 0.  1.
</event>
<event>
 4    1 -0.3305908E-004  0.3370730E+03  0.7818608E-02  0.1068049E+00
         -5   -1    0    0    0  501 -0.00000000000E+00  0.00000000000E+00  0.16472232087E+03  0.16478935947E+03  0.47000000000E+01 0.  1.
          5   -1    0    0  501    0  0.00000000000E+00 -0.00000000000E+00 -0.88994519420E+03  0.88995760499E+03  0.47000000000E+01 0. -1.
          6    1    1    2  502    0 -0.10176508185E+03  0.27143711701E+03 -0.61285933573E+03  0.69943892211E+03  0.17200000000E+03 0. -1.
         -6    1    1    2    0  502  0.10176508185E+03 -0.27143711701E+03 -0.11236353760E+03  0.35530804235E+03  0.17200000000E+03 0.  1.
</event>
<event>
 4    1 -0.3305908E-004  0.3540377E+03  0.7818608E-02  0.1060970E+00
         -5   -1    0    0    0  501 -0.00000000000E+00  0.00000000000E+00  0.10407415041E+03  0.10418022261E+03  0.47000000000E+01 0.  1.
          5   -1    0    0  501    0  0.00000000000E+00 -0.00000000000E+00 -0.13360679847E+04  0.13360762515E+04  0.47000000000E+01 0. -1.
          6    1    1    2  502    0 -0.30797293767E+03 -0.30188821592E+02 -0.84270878838E+03  0.91405732714E+03  0.17200000000E+03 0. -1.
         -6    1    1    2    0  502  0.30797293767E+03  0.30188821592E+02 -0.38928504593E+03  0.52619914697E+03  0.17200000000E+03 0.  1.
</event>
<event>
 4    1 -0.3305908E-004  0.1917517E+03  0.7818608E-02  0.1156891E+00
         -5   -1    0    0    0  501 -0.00000000000E+00  0.00000000000E+00  0.64326795731E+03  0.64328512722E+03  0.47000000000E+01 0.  1.
          5   -1    0    0  501    0  0.00000000000E+00 -0.00000000000E+00 -0.60506970152E+02  0.60689236583E+02  0.47000000000E+01 0. -1.
          6    1    1    2  502    0  0.63872780588E+02  0.55722357881E+02  0.20732381778E+03  0.28240375119E+03  0.17200000000E+03 0. -1.
         -6    1    1    2    0  502 -0.63872780588E+02 -0.55722357881E+02  0.37543716938E+03  0.42157061261E+03  0.17200000000E+03 0.  1.
</event>
<event>
 4    1 -0.3305908E-004  0.1989702E+03  0.7818608E-02  0.1150611E+00
          5   -1    0    0  501    0  0.00000000000E+00  0.00000000000E+00  0.17057172610E+03  0.17063646663E+03  0.47000000000E+01 0. -1.
         -5   -1    0    0    0  501 -0.00000000000E+00 -0.00000000000E+00 -0.23864526487E+03  0.23869154246E+03  0.47000000000E+01 0.  1.
          6    1    1    2  502    0  0.99524835886E+02  0.99965366268E+01  0.19987957566E+00  0.19897025822E+03  0.17200000000E+03 0. -1.
         -6    1    1    2    0  502 -0.99524835886E+02 -0.99965366268E+01 -0.68273418340E+02  0.21035775088E+03  0.17200000000E+03 0.  1.
</event>
<event>
 4    1 -0.3305908E-004  0.2542265E+03  0.7818608E-02  0.1110663E+00
         -5   -1    0    0    0  501 -0.00000000000E+00  0.00000000000E+00  0.13126913155E+03  0.13135324472E+03  0.47000000000E+01 0.  1.
          5   -1    0    0  501    0  0.00000000000E+00 -0.00000000000E+00 -0.51225912632E+03  0.51228068722E+03  0.47000000000E+01 0. -1.
          6    1    1    2  502    0  0.18436210868E+03 -0.32522673541E+02 -0.12666487250E+03  0.28403362712E+03  0.17200000000E+03 0. -1.
         -6    1    1    2    0  502 -0.18436210868E+03  0.32522673541E+02 -0.25432512227E+03  0.35960030482E+03  0.17200000000E+03 0. -1.
</event>
<event>
 4    1 -0.3305908E-004  0.1741561E+03  0.7818608E-02  0.1173582E+00
          5   -1    0    0  501    0  0.00000000000E+00  0.00000000000E+00  0.33039357218E+03  0.33042700032E+03  0.47000000000E+01 0. -1.
         -5   -1    0    0    0  501 -0.00000000000E+00 -0.00000000000E+00 -0.97711050184E+02  0.97824022245E+02  0.47000000000E+01 0.  1.
          6    1    1    2  502    0  0.58898608983E+01  0.26676626307E+02  0.16939954853E+03  0.24295378140E+03  0.17200000000E+03 0. -1.
         -6    1    1    2    0  502 -0.58898608983E+01 -0.26676626307E+02  0.63282973465E+02  0.18529724116E+03  0.17200000000E+03 0.  1.
</event>
<event>
 4    1 -0.3305908E-004  0.1808973E+03  0.7818608E-02  0.1166937E+00
          5   -1    0    0  501    0  0.00000000000E+00  0.00000000000E+00  0.50386800131E+02  0.50605529614E+02  0.47000000000E+01 0. -1.
         -5   -1    0    0    0  501 -0.00000000000E+00 -0.00000000000E+00 -0.71097901944E+03  0.71099455419E+03  0.47000000000E+01 0.  1.
          6    1    1    2  502    0  0.16377330080E+02 -0.53587402026E+02 -0.44377618957E+03  0.47922972887E+03  0.17200000000E+03 0. -1.
         -6    1    1    2    0  502 -0.16377330080E+02  0.53587402026E+02 -0.21681602974E+03  0.28237035494E+03  0.17200000000E+03 0. -1.
</event>
<event>
 4    1 -0.3305908E-004  0.2162088E+03  0.7818608E-02  0.1136741E+00
         -5   -1    0    0    0  501 -0.00000000000E+00  0.00000000000E+00  0.69011037646E+03  0.69012638097E+03  0.47000000000E+01 0.  1.
          5   -1    0    0  501    0  0.00000000000E+00 -0.00000000000E+00 -0.68634566729E+02  0.68795303256E+02  0.47000000000E+01 0. -1.
          6    1    1    2  502    0  0.83785049130E+02 -0.10070911695E+03  0.26509617153E+03  0.34208513685E+03  0.17200000000E+03 0. -1.
         -6    1    1    2    0  502 -0.83785049130E+02  0.10070911695E+03  0.35637963821E+03  0.41683654737E+03  0.17200000000E+03 0.  1.
</event>
<event>
 4    1 -0.3305908E-004  0.3186330E+03  0.7818608E-02  0.1076280E+00
         -5   -1    0    0    0  501 -0.00000000000E+00  0.00000000000E+00  0.30568623176E+03  0.30572236144E+03  0.47000000000E+01 0.  1.
          5   -1    0    0  501    0  0.00000000000E+00 -0.00000000000E+00 -0.33831606974E+03  0.33834871516E+03  0.47000000000E+01 0. -1.
          6    1    1    2  502    0  0.25553213246E+03  0.81524922510E+02 -0.60117340092E+02  0.32425465037E+03  0.17200000000E+03 0. -1.
         -6    1    1    2    0  502 -0.25553213246E+03 -0.81524922510E+02  0.27487502104E+02  0.31981642622E+03  0.17200000000E+03 0.  1.
</event>
<event>
 4    1 -0.3305908E-004  0.2136724E+03  0.7818608E-02  0.1138690E+00
          5   -1    0    0  501    0  0.00000000000E+00  0.00000000000E+00  0.35616898750E+03  0.35619999671E+03  0.47000000000E+01 0. -1.
         -5   -1    0    0    0  501 -0.00000000000E+00 -0.00000000000E+00 -0.18224415402E+03  0.18230474945E+03  0.47000000000E+01 0.  1.
          6    1    1    2  502    0  0.77335586852E+02 -0.10045440831E+03  0.23367210207E+03  0.31663627782E+03  0.17200000000E+03 0. -1.
         -6    1    1    2    0  502 -0.77335586852E+02  0.10045440831E+03 -0.59747268589E+02  0.22186846835E+03  0.17200000000E+03 0.  1.
</event>
<event>
 4    1 -0.3305908E-004  0.2109404E+03  0.7818608E-02  0.1140823E+00
         -5   -1    0    0    0  501 -0.00000000000E+00  0.00000000000E+00  0.36460630666E+04  0.36460660959E+04  0.47000000000E+01 0.  1.
          5   -1    0    0  501    0  0.00000000000E+00 -0.00000000000E+00 -0.11770810399E+02  0.12674461624E+02  0.47000000000E+01 0. -1.
          6    1    1    2  502    0 -0.11397392550E+03  0.43838391155E+02  0.18945028187E+04  0.19062100593E+04  0.17200000000E+03 0.  1.
         -6    1    1    2    0  502  0.11397392550E+03 -0.43838391155E+02  0.17397894375E+04  0.17525304982E+04  0.17200000000E+03 0. -1.
</event>
<event>
 4    1 -0.3305908E-004  0.1759383E+03  0.7818608E-02  0.1171793E+00
          5   -1    0    0  501    0  0.00000000000E+00  0.00000000000E+00  0.23942792728E+03  0.23947405363E+03  0.47000000000E+01 0. -1.
         -5   -1    0    0    0  501 -0.00000000000E+00 -0.00000000000E+00 -0.15326575844E+03  0.15333780587E+03  0.47000000000E+01 0.  1.
          6    1    1    2  502    0  0.22615926844E+02  0.29305522467E+02  0.12090401610E+03  0.21347616940E+03  0.17200000000E+03 0. -1.
         -6    1    1    2    0  502 -0.22615926844E+02 -0.29305522467E+02 -0.34741847247E+02  0.17933569010E+03  0.17200000000E+03 0.  1.
</event>
<event>
 4    1 -0.3305908E-004  0.1913274E+03  0.7818608E-02  0.1157270E+00
          5   -1    0    0  501    0  0.00000000000E+00  0.00000000000E+00  0.56253258857E+02  0.56449261572E+02  0.47000000000E+01 0. -1.
         -5   -1    0    0    0  501 -0.00000000000E+00 -0.00000000000E+00 -0.66329093380E+03  0.66330758541E+03  0.47000000000E+01 0.  1.
          6    1    1    2  502    0  0.15559889092E+02 -0.82341118778E+02 -0.35558576307E+03  0.40379128877E+03  0.17200000000E+03 0.  1.
         -6    1    1    2    0  502 -0.15559889092E+02  0.82341118778E+02 -0.25145191188E+03  0.31596555821E+03  0.17200000000E+03 0.  1.
</event>
<event>
 4    1 -0.3305908E-004  0.1816239E+03  0.7818608E-02  0.1166241E+00
          5   -1    0    0  501    0  0.00000000000E+00  0.00000000000E+00  0.28120266577E+03  0.28124194075E+03  0.47000000000E+01 0. -1.
         -5   -1    0    0    0  501 -0.00000000000E+00 -0.00000000000E+00 -0.12567040764E+03  0.12575826556E+03  0.47000000000E+01 0.  1.
          6    1    1    2  502    0  0.50822121438E+02  0.28641853633E+02  0.13053012869E+03  0.22366349345E+03  0.17200000000E+03 0. -1.
         -6    1    1    2    0  502 -0.50822121438E+02 -0.28641853633E+02  0.25002129443E+02  0.18333671286E+03  0.17200000000E+03 0. -1.
</event>
<event>
 4    1 -0.3305908E-004  0.1905546E+03  0.7818608E-02  0.1157962E+00
         -5   -1    0    0    0  501 -0.00000000000E+00  0.00000000000E+00  0.29177557327E+03  0.29181342525E+03  0.47000000000E+01 0.  1.
          5   -1    0    0  501    0  0.00000000000E+00 -0.00000000000E+00 -0.25869186964E+03  0.25873456170E+03  0.47000000000E+01 0. -1.
          6    1    1    2  502    0  0.26520215505E+02  0.77612597118E+02 -0.18178398341E+03  0.26335613471E+03  0.17200000000E+03 0. -1.
         -6    1    1    2    0  502 -0.26520215505E+02 -0.77612597118E+02  0.21486768704E+03  0.28719185225E+03  0.17200000000E+03 0.  1.
</event>
<event>
 4    1 -0.3305908E-004  0.2352568E+03  0.7818608E-02  0.1122994E+00
         -5   -1    0    0    0  501 -0.00000000000E+00  0.00000000000E+00  0.76387903477E+03  0.76389349373E+03  0.47000000000E+01 0.  1.
          5   -1    0    0  501    0  0.00000000000E+00 -0.00000000000E+00 -0.72413432907E+02  0.72565799557E+02  0.47000000000E+01 0. -1.
          6    1    1    2  502    0  0.85956667182E+02  0.13554786306E+03  0.33462099248E+03  0.40904398348E+03  0.17200000000E+03 0. -1.
         -6    1    1    2    0  502 -0.85956667182E+02 -0.13554786306E+03  0.35684460938E+03  0.42741530981E+03  0.17200000000E+03 0.  1.
</event>
<event>
 4    1 -0.3305908E-004  0.2169391E+03  0.7818608E-02  0.1136186E+00
          5   -1    0    0  501    0  0.00000000000E+00  0.00000000000E+00  0.92065615914E+02  0.92185506635E+02  0.47000000000E+01 0. -1.
         -5   -1    0    0    0  501 -0.00000000000E+00 -0.00000000000E+00 -0.57795048587E+03  0.57796959619E+03  0.47000000000E+01 0.  1.
          6    1    1    2  502    0  0.12978041671E+03 -0.25211673389E+02 -0.12867453318E+03  0.25222949971E+03  0.17200000000E+03 0. -1.
         -6    1    1    2    0  502 -0.12978041671E+03  0.25211673389E+02 -0.35721033678E+03  0.41792560311E+03  0.17200000000E+03 0.  1.
</event>
<event>
 4    1 -0.3305908E-004  0.2521897E+03  0.7818608E-02  0.1111929E+00
          5   -1    0    0  501    0  0.00000000000E+00  0.00000000000E+00  0.10666282037E+04  0.10666385587E+04  0.47000000000E+01 0. -1.
         -5   -1    0    0    0  501 -0.00000000000E+00 -0.00000000000E+00 -0.71107070421E+02  0.71262230275E+02  0.47000000000E+01 0.  1.
          6    1    1    2  502    0 -0.12887069284E+03  0.13193934181E+03  0.26841637702E+03  0.36830286022E+03  0.17200000000E+03 0.  1.
         -6    1    1    2    0  502  0.12887069284E+03 -0.13193934181E+03  0.72710475624E+03  0.76959792876E+03  0.17200000000E+03 0.  1.
</event>
<event>
 4    1 -0.3305908E-004  0.2425296E+03  0.7818608E-02  0.1118119E+00
         -5   -1    0    0    0  501 -0.00000000000E+00  0.00000000000E+00  0.52304397464E+03  0.52306509098E+03  0.47000000000E+01 0.  1.
          5   -1    0    0  501    0  0.00000000000E+00 -0.00000000000E+00 -0.16496949539E+03  0.16503643358E+03  0.47000000000E+01 0. -1.
          6    1    1    2  502    0 -0.27212339201E+02  0.16880786238E+03 -0.15145239968E+02  0.24300202489E+03  0.17200000000E+03 0. -1.
         -6    1    1    2    0  502  0.27212339201E+02 -0.16880786238E+03  0.37321971921E+03  0.44509949968E+03  0.17200000000E+03 0.  1.
</event>
<event>
 4    1 -0.3305908E-004  0.2187778E+03  0.7818608E-02  0.1134798E+00
          5   -1    0    0  501    0  0.00000000000E+00  0.00000000000E+00  0.85748365128E+02  0.85877075650E+02  0.47000000000E+01 0. -1.
         -5   -1    0    0    0  501 -0.00000000000E+00 -0.00000000000E+00 -0.58181343812E+03  0.58183242156E+03  0.47000000000E+01 0.  1.
          6    1    1    2  502    0 -0.64252967449E+02 -0.11895919945E+03 -0.17997757697E+03  0.28329430487E+03  0.17200000000E+03 0. -1.
         -6    1    1    2    0  502  0.64252967449E+02  0.11895919945E+03 -0.31608749602E+03  0.38441519233E+03  0.17200000000E+03 0.  1.
</event>
<event>
 4    1 -0.3305908E-004  0.2070969E+03  0.7818608E-02  0.1143886E+00
         -5   -1    0    0    0  501 -0.00000000000E+00  0.00000000000E+00  0.10545760167E+03  0.10556228375E+03  0.47000000000E+01 0.  1.
          5   -1    0    0  501    0  0.00000000000E+00 -0.00000000000E+00 -0.96965865891E+03  0.96967004945E+03  0.47000000000E+01 0. -1.
          6    1    1    2  502    0  0.10905374552E+03  0.37581908145E+02 -0.84183127963E+03  0.86693080612E+03  0.17200000000E+03 0. -1.
         -6    1    1    2    0  502 -0.10905374552E+03 -0.37581908145E+02 -0.22369777605E+02  0.20830152708E+03  0.17200000000E+03 0.  1.
</event>
<event>
 4    1 -0.3305908E-004  0.1775987E+03  0.7818608E-02  0.1170147E+00
         -5   -1    0    0    0  501 -0.00000000000E+00  0.00000000000E+00  0.24069760545E+02  0.24524342452E+02  0.47000000000E+01 0.  1.
          5   -1    0    0  501    0  0.00000000000E+00 -0.00000000000E+00 -0.13773191733E+04  0.13773271924E+04  0.47000000000E+01 0. -1.
          6    1    1    2  502    0  0.23073302883E+02  0.37748268702E+02 -0.50812292085E+03  0.53826593036E+03  0.17200000000E+03 0.  1.
         -6    1    1    2    0  502 -0.23073302883E+02 -0.37748268702E+02 -0.84512649186E+03  0.86358560453E+03  0.17200000000E+03 0. -1.
</event>
<event>
 4    1 -0.3305908E-004  0.1958078E+03  0.7818608E-02  0.1153325E+00
          5   -1    0    0  501    0  0.00000000000E+00  0.00000000000E+00  0.30774021192E+03  0.30777610049E+03  0.47000000000E+01 0. -1.
         -5   -1    0    0    0  501 -0.00000000000E+00 -0.00000000000E+00 -0.12597546764E+03  0.12606311295E+03  0.47000000000E+01 0.  1.
          6    1    1    2  502    0 -0.79555728107E+02 -0.49270639378E+02  0.67421393410E+02  0.20709020756E+03  0.17200000000E+03 0. -1.
         -6    1    1    2    0  502  0.79555728107E+02  0.49270639378E+02  0.11434335087E+03  0.22674900588E+03  0.17200000000E+03 0.  1.
</event>
<event>
 4    1 -0.3305908E-004  0.1741655E+03  0.7818608E-02  0.1173572E+00
         -5   -1    0    0    0  501 -0.00000000000E+00  0.00000000000E+00  0.30203982009E+03  0.30207638591E+03  0.47000000000E+01 0.  1.
          5   -1    0    0  501    0  0.00000000000E+00 -0.00000000000E+00 -0.12691962375E+03  0.12700661751E+03  0.47000000000E+01 0. -1.
          6    1    1    2  502    0  0.17611903767E+02  0.20962627385E+02 -0.10582965953E+02  0.17448670456E+03  0.17200000000E+03 0. -1.
         -6    1    1    2    0  502 -0.17611903767E+02 -0.20962627385E+02  0.18570316230E+03  0.25459629885E+03  0.17200000000E+03 0.  1.
</event>
<event>
 4    1 -0.3305908E-004  0.2734202E+03  0.7818608E-02  0.1099338E+00
          5   -1    0    0  501    0  0.00000000000E+00  0.00000000000E+00  0.26375755621E+03  0.26379942846E+03  0.47000000000E+01 0. -1.
         -5   -1    0    0    0  501 -0.00000000000E+00 -0.00000000000E+00 -0.29154171284E+03  0.29157959518E+03  0.47000000000E+01 0.  1.
          6    1    1    2  502    0  0.53166350780E+02  0.20578613008E+03  0.32640728751E+02  0.27536159747E+03  0.17200000000E+03 0. -1.
         -6    1    1    2    0  502 -0.53166350780E+02 -0.20578613008E+03 -0.60424885384E+02  0.28001742617E+03  0.17200000000E+03 0.  1.
</event>
<event>
 4    1 -0.3305908E-004  0.1970992E+03  0.7818608E-02  0.1152210E+00
          5   -1    0    0  501    0  0.00000000000E+00  0.00000000000E+00  0.43126991595E+03  0.43129552561E+03  0.47000000000E+01 0. -1.
         -5   -1    0    0    0  501 -0.00000000000E+00 -0.00000000000E+00 -0.14355992319E+03  0.14363683909E+03  0.47000000000E+01 0.  1.
          6    1    1    2  502    0  0.89211192042E+02  0.36130922450E+02  0.31938291160E+03  0.37530457573E+03  0.17200000000E+03 0. -1.
         -6    1    1    2    0  502 -0.89211192042E+02 -0.36130922450E+02 -0.31672918828E+02  0.19962778897E+03  0.17200000000E+03 0.  1.
</event>
<event>
 4    1 -0.3305908E-004  0.2152073E+03  0.7818608E-02  0.1137507E+00
          5   -1    0    0  501    0  0.00000000000E+00  0.00000000000E+00  0.41033098219E+03  0.41035789860E+03  0.47000000000E+01 0. -1.
         -5   -1    0    0    0  501 -0.00000000000E+00 -0.00000000000E+00 -0.15062363701E+03  0.15069694764E+03  0.47000000000E+01 0.  1.
          6    1    1    2  502    0 -0.72753008691E+02 -0.10694485127E+03  0.27039405002E+03  0.34558232561E+03  0.17200000000E+03 0. -1.
         -6    1    1    2    0  502  0.72753008691E+02  0.10694485127E+03 -0.10686704839E+02  0.21547252063E+03  0.17200000000E+03 0.  1.
</event>
<event>
 4    1 -0.3305908E-004  0.1841533E+03  0.7818608E-02  0.1163843E+00
         -5   -1    0    0    0  501 -0.00000000000E+00  0.00000000000E+00  0.16964246151E+03  0.16970755654E+03  0.47000000000E+01 0.  1.
          5   -1    0    0  501    0  0.00000000000E+00 -0.00000000000E+00 -0.20613421896E+03  0.20618779359E+03  0.47000000000E+01 0. -1.
          6    1    1    2  502    0 -0.34678198759E+02  0.55909322389E+02 -0.51249700739E+02  0.19115167178E+03  0.17200000000E+03 0. -1.
         -6    1    1    2    0  502  0.34678198759E+02 -0.55909322389E+02  0.14757943294E+02  0.18474367835E+03  0.17200000000E+03 0.  1.
</event>
<event>
 4    1 -0.3305908E-004  0.1828360E+03  0.7818608E-02  0.1165086E+00
         -5   -1    0    0    0  501 -0.00000000000E+00  0.00000000000E+00  0.74979819818E+02  0.75126981704E+02  0.47000000000E+01 0.  1.
          5   -1    0    0  501    0  0.00000000000E+00 -0.00000000000E+00 -0.49072315166E+03  0.49074565874E+03  0.47000000000E+01 0. -1.
          6    1    1    2  502    0 -0.57496255797E+02 -0.23220689566E+02 -0.12175184124E+03  0.21966458681E+03  0.17200000000E+03 0. -1.
         -6    1    1    2    0  502  0.57496255797E+02  0.23220689566E+02 -0.29399149060E+03  0.34620805364E+03  0.17200000000E+03 0. -1.
</event>
<event>
 4    1 -0.3305908E-004  0.1960313E+03  0.7818608E-02  0.1153131E+00
         -5   -1    0    0    0  501 -0.00000000000E+00  0.00000000000E+00  0.15932704056E+03  0.15939634831E+03  0.47000000000E+01 0.  1.
          5   -1    0    0  501    0  0.00000000000E+00 -0.00000000000E+00 -0.24105004562E+03  0.24109586162E+03  0.47000000000E+01 0. -1.
          6    1    1    2  502    0 -0.93917002773E+02  0.48835941806E+01 -0.41644304720E+02  0.20040584078E+03  0.17200000000E+03 0. -1.
         -6    1    1    2    0  502  0.93917002773E+02 -0.48835941806E+01 -0.40078700334E+02  0.20008636916E+03  0.17200000000E+03 0.  1.
</event>
<event>
 4    1 -0.3305908E-004  0.2026170E+03  0.7818608E-02  0.1147550E+00
          5   -1    0    0  501    0  0.00000000000E+00  0.00000000000E+00  0.47573457113E+03  0.47575778729E+03  0.47000000000E+01 0. -1.
         -5   -1    0    0    0  501 -0.00000000000E+00 -0.00000000000E+00 -0.86466725202E+02  0.86594367987E+02  0.47000000000E+01 0.  1.
          6    1    1    2  502    0  0.10709630832E+03 -0.12264897381E+00  0.21006293817E+03  0.29185625279E+03  0.17200000000E+03 0.  1.
         -6    1    1    2    0  502 -0.10709630832E+03  0.12264897381E+00  0.17920490775E+03  0.27049590249E+03  0.17200000000E+03 0.  1.
</event>
<event>
 4    1 -0.3305908E-004  0.7382404E+03  0.7818608E-02  0.9653982E-01
          5   -1    0    0  501    0  0.00000000000E+00  0.00000000000E+00  0.69301984444E+03  0.69303578175E+03  0.47000000000E+01 0. -1.
         -5   -1    0    0    0  501 -0.00000000000E+00 -0.00000000000E+00 -0.81898522040E+03  0.81899870650E+03  0.47000000000E+01 0.  1.
          6    1    1    2  502    0 -0.43264740312E+03  0.57291461231E+03  0.87862423218E+02  0.74345055911E+03  0.17200000000E+03 0.  1.
         -6    1    1    2    0  502  0.43264740312E+03 -0.57291461231E+03 -0.21382779918E+03  0.76858392914E+03  0.17200000000E+03 0.  1.
</event>
<event>
 4    1 -0.3305908E-004  0.1974460E+03  0.7818608E-02  0.1151912E+00
         -5   -1    0    0    0  501 -0.00000000000E+00  0.00000000000E+00  0.38209782940E+03  0.38212673451E+03  0.47000000000E+01 0.  1.
          5   -1    0    0  501    0  0.00000000000E+00 -0.00000000000E+00 -0.10593743128E+03  0.10604163968E+03  0.47000000000E+01 0. -1.
          6    1    1    2  502    0  0.90919459042E+02  0.33683184201E+02  0.90706534943E+02  0.21728456091E+03  0.17200000000E+03 0. -1.
         -6    1    1    2    0  502 -0.90919459042E+02 -0.33683184201E+02  0.18545386317E+03  0.27088381328E+03  0.17200000000E+03 0. -1.
</event>
<event>
 4    1 -0.3305908E-004  0.3180311E+03  0.7818608E-02  0.1076559E+00
         -5   -1    0    0    0  501 -0.00000000000E+00  0.00000000000E+00  0.21294898259E+04  0.21294950126E+04  0.47000000000E+01 0.  1.
          5   -1    0    0  501    0  0.00000000000E+00 -0.00000000000E+00 -0.51519584648E+02  0.51733524936E+02  0.47000000000E+01 0. -1.
          6    1    1    2  502    0  0.13988391418E+02  0.26714065319E+03  0.73034371902E+03  0.79658380074E+03  0.17200000000E+03 0. -1.
         -6    1    1    2    0  502 -0.13988391418E+02 -0.26714065319E+03  0.13476265222E+04  0.13846447367E+04  0.17200000000E+03 0.  1.
</event>
<event>
 4    1 -0.3305908E-004  0.1764000E+03  0.7818608E-02  0.1171333E+00
          5   -1    0    0  501    0  0.00000000000E+00  0.00000000000E+00  0.28193641514E+02  0.28582711939E+02  0.47000000000E+01 0. -1.
         -5   -1    0    0    0  501 -0.00000000000E+00 -0.00000000000E+00 -0.10987857297E+04  0.10987957817E+04  0.47000000000E+01 0.  1.
          6    1    1    2  502    0 -0.31673780316E+02  0.23016024556E+02 -0.50557511887E+03  0.53546537382E+03  0.17200000000E+03 0. -1.
         -6    1    1    2    0  502  0.31673780316E+02 -0.23016024556E+02 -0.56501696935E+03  0.59191311981E+03  0.17200000000E+03 0.  1.
</event>
<event>
 4    1 -0.3305908E-004  0.1783181E+03  0.7818608E-02  0.1169441E+00
          5   -1    0    0  501    0  0.00000000000E+00  0.00000000000E+00  0.11739374056E+03  0.11748778797E+03  0.47000000000E+01 0. -1.
         -5   -1    0    0    0  501 -0.00000000000E+00 -0.00000000000E+00 -0.30246498928E+03  0.30250150370E+03  0.47000000000E+01 0.  1.
          6    1    1    2  502    0 -0.36147712853E+02  0.30111511619E+02 -0.24431396162E+02  0.17998403650E+03  0.17200000000E+03 0. -1.
         -6    1    1    2    0  502  0.36147712853E+02 -0.30111511619E+02 -0.16063985256E+03  0.24000525517E+03  0.17200000000E+03 0.  1.
</event>
<event>
 4    1 -0.3305908E-004  0.1826032E+03  0.7818608E-02  0.1165307E+00
         -5   -1    0    0    0  501 -0.00000000000E+00  0.00000000000E+00  0.33503873156E+03  0.33507169628E+03  0.47000000000E+01 0.  1.
          5   -1    0    0  501    0  0.00000000000E+00 -0.00000000000E+00 -0.12822982587E+03  0.12831593137E+03  0.47000000000E+01 0. -1.
          6    1    1    2  502    0  0.41502283821E+02 -0.45138730731E+02 -0.63437971477E+01  0.18271340492E+03  0.17200000000E+03 0. -1.
         -6    1    1    2    0  502 -0.41502283821E+02  0.45138730731E+02  0.21315270284E+03  0.28067422272E+03  0.17200000000E+03 0.  1.
</event>
<event>
 4    1 -0.3305908E-004  0.2211307E+03  0.7818608E-02  0.1133043E+00
          5   -1    0    0  501    0  0.00000000000E+00  0.00000000000E+00  0.25897166228E+03  0.25901430822E+03  0.47000000000E+01 0. -1.
         -5   -1    0    0    0  501 -0.00000000000E+00 -0.00000000000E+00 -0.20271077779E+03  0.20276525696E+03  0.47000000000E+01 0.  1.
          6    1    1    2  502    0  0.10953279009E+03 -0.85541408364E+02  0.88748503692E+02  0.23827518032E+03  0.17200000000E+03 0. -1.
         -6    1    1    2    0  502 -0.10953279009E+03  0.85541408364E+02 -0.32487619203E+02  0.22350438486E+03  0.17200000000E+03 0. -1.
</event>
<event>
 4    1 -0.3305908E-004  0.2741926E+03  0.7818608E-02  0.1098904E+00
         -5   -1    0    0    0  501 -0.00000000000E+00  0.00000000000E+00  0.20472569095E+03  0.20477963409E+03  0.47000000000E+01 0.  1.
          5   -1    0    0  501    0  0.00000000000E+00 -0.00000000000E+00 -0.69367977291E+03  0.69369569506E+03  0.47000000000E+01 0. -1.
          6    1    1    2  502    0 -0.21345606373E+03 -0.58377838134E+01 -0.55269524930E+03  0.61697131980E+03  0.17200000000E+03 0. -1.
         -6    1    1    2    0  502  0.21345606373E+03  0.58377838134E+01  0.63741167342E+02  0.28150400934E+03  0.17200000000E+03 0.  1.
</event>
<event>
 4    1 -0.3305908E-004  0.2315283E+03  0.7818608E-02  0.1125569E+00
         -5   -1    0    0    0  501 -0.00000000000E+00  0.00000000000E+00  0.63699200960E+02  0.63872358677E+02  0.47000000000E+01 0.  1.
          5   -1    0    0  501    0  0.00000000000E+00 -0.00000000000E+00 -0.91178636090E+03  0.91179847440E+03  0.47000000000E+01 0. -1.
          6    1    1    2  502    0  0.11059175391E+03  0.10858549323E+03 -0.56070529459E+03  0.60662655131E+03  0.17200000000E+03 0. -1.
         -6    1    1    2    0  502 -0.11059175391E+03 -0.10858549323E+03 -0.28738186535E+03  0.36904428177E+03  0.17200000000E+03 0.  1.
</event>
<event>
 4    1 -0.3305908E-004  0.1724945E+03  0.7818608E-02  0.1175271E+00
         -5   -1    0    0    0  501 -0.00000000000E+00  0.00000000000E+00  0.11801139822E+03  0.11810495379E+03  0.47000000000E+01 0.  1.
          5   -1    0    0  501    0  0.00000000000E+00 -0.00000000000E+00 -0.31134006843E+03  0.31137554209E+03  0.47000000000E+01 0. -1.
          6    1    1    2  502    0  0.11679690490E+02 -0.58262516819E+01 -0.19046042883E+03  0.25696212820E+03  0.17200000000E+03 0. -1.
         -6    1    1    2    0  502 -0.11679690490E+02  0.58262516819E+01 -0.28682413806E+01  0.17251836768E+03  0.17200000000E+03 0.  1.
</event>
<event>
 4    1 -0.3305908E-004  0.2242877E+03  0.7818608E-02  0.1130726E+00
         -5   -1    0    0    0  501 -0.00000000000E+00  0.00000000000E+00  0.13631597816E+03  0.13639697908E+03  0.47000000000E+01 0.  1.
          5   -1    0    0  501    0  0.00000000000E+00 -0.00000000000E+00 -0.55397758004E+03  0.55399751731E+03  0.47000000000E+01 0. -1.
          6    1    1    2  502    0  0.27924493071E+02 -0.14121335954E+03 -0.40837662998E+03  0.46591465114E+03  0.17200000000E+03 0. -1.
         -6    1    1    2    0  502 -0.27924493071E+02  0.14121335954E+03 -0.92849718942E+01  0.22447984526E+03  0.17200000000E+03 0.  1.
</event>
<event>
 4    1 -0.3305908E-004  0.2326490E+03  0.7818608E-02  0.1124789E+00
          5   -1    0    0  501    0  0.00000000000E+00  0.00000000000E+00  0.90836345783E+02  0.90957856809E+02  0.47000000000E+01 0. -1.
         -5   -1    0    0    0  501 -0.00000000000E+00 -0.00000000000E+00 -0.60279555393E+03  0.60281387661E+03  0.47000000000E+01 0.  1.
          6    1    1    2  502    0 -0.13566838854E+03 -0.78330257801E+02 -0.21737667079E+03  0.31839936863E+03  0.17200000000E+03 0. -1.
         -6    1    1    2    0  502  0.13566838854E+03  0.78330257801E+02 -0.29458253735E+03  0.37537236479E+03  0.17200000000E+03 0.  1.
</event>
<event>
 4    1 -0.3305908E-004  0.2079054E+03  0.7818608E-02  0.1143235E+00
         -5   -1    0    0    0  501 -0.00000000000E+00  0.00000000000E+00  0.48084169085E+02  0.48313324421E+02  0.47000000000E+01 0.  1.
          5   -1    0    0  501    0  0.00000000000E+00 -0.00000000000E+00 -0.15069801168E+04  0.15069874460E+04  0.47000000000E+01 0. -1.
          6    1    1    2  502    0 -0.96898144864E+02 -0.65202870801E+02 -0.12243380432E+04  0.12418648513E+04  0.17200000000E+03 0. -1.
         -6    1    1    2    0  502  0.96898144864E+02  0.65202870801E+02 -0.23455790452E+03  0.31343591915E+03  0.17200000000E+03 0.  1.
</event>
<event>
 4    1 -0.3305908E-004  0.1925882E+03  0.7818608E-02  0.1156147E+00
         -5   -1    0    0    0  501 -0.00000000000E+00  0.00000000000E+00  0.70089155936E+02  0.70246564185E+02  0.47000000000E+01 0.  1.
          5   -1    0    0  501    0  0.00000000000E+00 -0.00000000000E+00 -0.66233268417E+03  0.66234935987E+03  0.47000000000E+01 0. -1.
          6    1    1    2  502    0 -0.15268780258E+02  0.85282322376E+02 -0.46080214544E+03  0.49942850079E+03  0.17200000000E+03 0. -1.
         -6    1    1    2    0  502  0.15268780258E+02 -0.85282322376E+02 -0.13144138279E+03  0.23316742326E+03  0.17200000000E+03 0.  1.
</event>
<event>
 4    1 -0.3305908E-004  0.1915553E+03  0.7818608E-02  0.1157066E+00
          5   -1    0    0  501    0  0.00000000000E+00  0.00000000000E+00  0.62164230045E+03  0.62166006764E+03  0.47000000000E+01 0. -1.
         -5   -1    0    0    0  501 -0.00000000000E+00 -0.00000000000E+00 -0.61412974105E+02  0.61592559522E+02  0.47000000000E+01 0.  1.
          6    1    1    2  502    0 -0.63406358813E+02 -0.55579349093E+02  0.21131957548E+03  0.28521815048E+03  0.17200000000E+03 0.  1.
         -6    1    1    2    0  502  0.63406358813E+02  0.55579349093E+02  0.34890975086E+03  0.39803447668E+03  0.17200000000E+03 0. -1.
</event>
<event>
 4    1 -0.3305908E-004  0.3151702E+03  0.7818608E-02  0.1077894E+00
          5   -1    0    0  501    0  0.00000000000E+00  0.00000000000E+00  0.53637345847E+03  0.53639405007E+03  0.47000000000E+01 0. -1.
         -5   -1    0    0    0  501 -0.00000000000E+00 -0.00000000000E+00 -0.20149047537E+03  0.20154528440E+03  0.47000000000E+01 0.  1.
          6    1    1    2  502    0 -0.14217698479E+02 -0.26371593232E+03  0.27253282354E+03  0.41666098428E+03  0.17200000000E+03 0. -1.
         -6    1    1    2    0  502  0.14217698479E+02  0.26371593232E+03  0.62350159556E+02  0.32127835020E+03  0.17200000000E+03 0.  1.
</event>
<event>
 4    1 -0.3305908E-004  0.2647466E+03  0.7818608E-02  0.1104324E+00
          5   -1    0    0  501    0  0.00000000000E+00  0.00000000000E+00  0.22384247190E+03  0.22389180920E+03  0.47000000000E+01 0. -1.
         -5   -1    0    0    0  501 -0.00000000000E+00 -0.00000000000E+00 -0.33322335537E+03  0.33325649966E+03  0.47000000000E+01 0.  1.
          6    1    1    2  502    0 -0.11570222268E+02 -0.20093003414E+03 -0.12326910949E+03  0.29203770650E+03  0.17200000000E+03 0. -1.
         -6    1    1    2    0  502  0.11570222268E+02  0.20093003414E+03  0.13888226026E+02  0.26511060236E+03  0.17200000000E+03 0.  1.
</event>
<event>
 4    1 -0.3305908E-004  0.7354491E+03  0.7818608E-02  0.9658459E-01
         -5   -1    0    0    0  501 -0.00000000000E+00  0.00000000000E+00  0.40588722105E+03  0.40591443213E+03  0.47000000000E+01 0.  1.
          5   -1    0    0  501    0  0.00000000000E+00 -0.00000000000E+00 -0.13331163298E+04  0.13331246149E+04  0.47000000000E+01 0. -1.
          6    1    1    2  502    0 -0.26393828833E+03 -0.66455849637E+03 -0.48193920354E+03  0.87928994708E+03  0.17200000000E+03 0. -1.
         -6    1    1    2    0  502  0.26393828833E+03  0.66455849637E+03 -0.44528990522E+03  0.85974909993E+03  0.17200000000E+03 0.  1.
</event>
<event>
 4    1 -0.3305908E-004  0.2333646E+03  0.7818608E-02  0.1124294E+00
         -5   -1    0    0    0  501 -0.00000000000E+00  0.00000000000E+00  0.94528242538E+02  0.94645013801E+02  0.47000000000E+01 0.  1.
          5   -1    0    0  501    0  0.00000000000E+00 -0.00000000000E+00 -0.65091004712E+03  0.65092701545E+03  0.47000000000E+01 0. -1.
          6    1    1    2  502    0  0.65237569846E+02 -0.14359349460E+03 -0.40495277209E+03  0.46738183516E+03  0.17200000000E+03 0. -1.
         -6    1    1    2    0  502 -0.65237569846E+02  0.14359349460E+03 -0.15142903249E+03  0.27819019410E+03  0.17200000000E+03 0.  1.
</event>
<event>
 4    1 -0.3305908E-004  0.1949594E+03  0.7818608E-02  0.1154063E+00
         -5   -1    0    0    0  501 -0.00000000000E+00  0.00000000000E+00  0.19024988094E+03  0.19030792731E+03  0.47000000000E+01 0.  1.
          5   -1    0    0  501    0  0.00000000000E+00 -0.00000000000E+00 -0.20962905694E+03  0.20968173863E+03  0.47000000000E+01 0. -1.
          6    1    1    2  502    0  0.58518084953E+02  0.70716293895E+02 -0.53271040283E+02  0.20210631910E+03  0.17200000000E+03 0. -1.
         -6    1    1    2    0  502 -0.58518084953E+02 -0.70716293895E+02  0.33891864282E+02  0.19788334683E+03  0.17200000000E+03 0.  1.
</event>
<event>
 4    1 -0.3305908E-004  0.2395665E+03  0.7818608E-02  0.1120082E+00
          5   -1    0    0  501    0  0.00000000000E+00  0.00000000000E+00  0.77392092049E+03  0.77393519184E+03  0.47000000000E+01 0. -1.
         -5   -1    0    0    0  501 -0.00000000000E+00 -0.00000000000E+00 -0.82850833579E+02  0.82984038374E+02  0.47000000000E+01 0.  1.
          6    1    1    2  502    0 -0.95277562937E+02  0.13685873672E+03  0.48490452478E+03  0.54085536511E+03  0.17200000000E+03 0. -1.
         -6    1    1    2    0  502  0.95277562937E+02 -0.13685873672E+03  0.20616556213E+03  0.31606386510E+03  0.17200000000E+03 0.  1.
</event>
<event>
 4    1 -0.3305908E-004  0.2637674E+03  0.7818608E-02  0.1104901E+00
         -5   -1    0    0    0  501 -0.00000000000E+00  0.00000000000E+00  0.14789954106E+03  0.14797420128E+03  0.47000000000E+01 0.  1.
          5   -1    0    0  501    0  0.00000000000E+00 -0.00000000000E+00 -0.59140584579E+03  0.59142452134E+03  0.47000000000E+01 0. -1.
          6    1    1    2  502    0  0.19989495945E+03 -0.55885019573E+01 -0.38910331855E+03  0.47007937487E+03  0.17200000000E+03 0. -1.
         -6    1    1    2    0  502 -0.19989495945E+03  0.55885019573E+01 -0.54402986184E+02  0.26931934775E+03  0.17200000000E+03 0.  1.
</event>
<event>
 4    1 -0.3305908E-004  0.1720797E+03  0.7818608E-02  0.1175696E+00
         -5   -1    0    0    0  501 -0.00000000000E+00  0.00000000000E+00  0.54811347999E+03  0.54813363055E+03  0.47000000000E+01 0.  1.
          5   -1    0    0  501    0  0.00000000000E+00 -0.00000000000E+00 -0.67461335114E+02  0.67624860336E+02  0.47000000000E+01 0. -1.
          6    1    1    2  502    0  0.24527667302E+01  0.46284011624E+01  0.10249922443E+03  0.20029360741E+03  0.17200000000E+03 0. -1.
         -6    1    1    2    0  502 -0.24527667302E+01 -0.46284011624E+01  0.37815292044E+03  0.41546488347E+03  0.17200000000E+03 0.  1.
</event>
<event>
 4    1 -0.3305908E-004  0.1762722E+03  0.7818608E-02  0.1171460E+00
          5   -1    0    0  501    0  0.00000000000E+00  0.00000000000E+00  0.30934581324E+03  0.30938151556E+03  0.47000000000E+01 0. -1.
         -5   -1    0    0    0  501 -0.00000000000E+00 -0.00000000000E+00 -0.10468521234E+03  0.10479066601E+03  0.47000000000E+01 0.  1.
          6    1    1    2  502    0  0.37864300101E+02 -0.73617105034E+01  0.14445594053E+03  0.22790221315E+03  0.17200000000E+03 0. -1.
         -6    1    1    2    0  502 -0.37864300101E+02  0.73617105034E+01  0.60204660374E+02  0.18626996842E+03  0.17200000000E+03 0.  1.
</event>
<event>
 4    1 -0.3305908E-004  0.1753896E+03  0.7818608E-02  0.1172341E+00
         -5   -1    0    0    0  501 -0.00000000000E+00  0.00000000000E+00  0.12139718919E+03  0.12148813746E+03  0.47000000000E+01 0.  1.
          5   -1    0    0  501    0  0.00000000000E+00 -0.00000000000E+00 -0.29150019907E+03  0.29153808680E+03  0.47000000000E+01 0. -1.
          6    1    1    2  502    0  0.31158769700E+02 -0.14375582048E+02 -0.15990263012E+03  0.23734021447E+03  0.17200000000E+03 0. -1.
         -6    1    1    2    0  502 -0.31158769700E+02  0.14375582048E+02 -0.10200379759E+02  0.17568600979E+03  0.17200000000E+03 0.  1.
</event>
<event>
 4    1 -0.3305908E-004  0.2020367E+03  0.7818608E-02  0.1148032E+00
          5   -1    0    0  501    0  0.00000000000E+00  0.00000000000E+00  0.46537655905E+02  0.46774388474E+02  0.47000000000E+01 0. -1.
         -5   -1    0    0    0  501 -0.00000000000E+00 -0.00000000000E+00 -0.10987527722E+04  0.10987628245E+04  0.47000000000E+01 0.  1.
          6    1    1    2  502    0  0.28026019113E+02  0.10222212336E+03 -0.26746013229E+03  0.33519209808E+03  0.17200000000E+03 0. -1.
         -6    1    1    2    0  502 -0.28026019113E+02 -0.10222212336E+03 -0.78475498403E+03  0.81034511488E+03  0.17200000000E+03 0.  1.
</event>
<event>
 4    1 -0.3305908E-004  0.3384465E+03  0.7818608E-02  0.1067459E+00
         -5   -1    0    0    0  501 -0.00000000000E+00  0.00000000000E+00  0.62799795144E+03  0.62801553883E+03  0.47000000000E+01 0.  1.
          5   -1    0    0  501    0  0.00000000000E+00 -0.00000000000E+00 -0.18505258485E+03  0.18511226097E+03  0.47000000000E+01 0. -1.
          6    1    1    2  502    0  0.29115815203E+03 -0.13747414402E+02  0.17233535272E+03  0.37979670179E+03  0.17200000000E+03 0. -1.
         -6    1    1    2    0  502 -0.29115815203E+03  0.13747414402E+02  0.27061001387E+03  0.43333109801E+03  0.17200000000E+03 0.  1.
</event>
<event>
 4    1 -0.3305908E-004  0.5186277E+03  0.7818608E-02  0.1009028E+00
         -5   -1    0    0    0  501 -0.00000000000E+00  0.00000000000E+00  0.64105779143E+03  0.64107502053E+03  0.47000000000E+01 0.  1.
          5   -1    0    0  501    0  0.00000000000E+00 -0.00000000000E+00 -0.42435900617E+03  0.42438503287E+03  0.47000000000E+01 0. -1.
          6    1    1    2  502    0 -0.17988586472E+03 -0.45500739496E+03  0.51602200974E+02  0.52118848888E+03  0.17200000000E+03 0. -1.
         -6    1    1    2    0  502  0.17988586472E+03  0.45500739496E+03  0.16509658428E+03  0.54427156452E+03  0.17200000000E+03 0.  1.
</event>
<event>
 4    1 -0.3305908E-004  0.1879499E+03  0.7818608E-02  0.1160323E+00
          5   -1    0    0  501    0  0.00000000000E+00  0.00000000000E+00  0.43015340205E+03  0.43017907817E+03  0.47000000000E+01 0. -1.
         -5   -1    0    0    0  501 -0.00000000000E+00 -0.00000000000E+00 -0.85904300320E+02  0.86032777553E+02  0.47000000000E+01 0.  1.
          6    1    1    2  502    0  0.10538151028E+02 -0.75034165470E+02  0.11733915046E+03  0.22157087996E+03  0.17200000000E+03 0. -1.
         -6    1    1    2    0  502 -0.10538151028E+02  0.75034165470E+02  0.22690995126E+03  0.29464097576E+03  0.17200000000E+03 0. -1.
</event>
<event>
 4    1 -0.3305908E-004  0.1802341E+03  0.7818608E-02  0.1167577E+00
          5   -1    0    0  501    0  0.00000000000E+00  0.00000000000E+00  0.38138260886E+02  0.38426773784E+02  0.47000000000E+01 0. -1.
         -5   -1    0    0    0  501 -0.00000000000E+00 -0.00000000000E+00 -0.15057954417E+04  0.15058027767E+04  0.47000000000E+01 0.  1.
          6    1    1    2  502    0  0.51104809033E+02 -0.16989183645E+02 -0.22365308331E+03  0.28723689794E+03  0.17200000000E+03 0. -1.
         -6    1    1    2    0  502 -0.51104809033E+02  0.16989183645E+02 -0.12440040975E+04  0.12569926525E+04  0.17200000000E+03 0.  1.
</event>
<event>
 4    1 -0.3305908E-004  0.2320674E+03  0.7818608E-02  0.1125193E+00
         -5   -1    0    0    0  501 -0.00000000000E+00  0.00000000000E+00  0.11173157795E+04  0.11173256647E+04  0.47000000000E+01 0.  1.
          5   -1    0    0  501    0  0.00000000000E+00 -0.00000000000E+00 -0.59880993477E+02  0.60065159450E+02  0.47000000000E+01 0. -1.
          6    1    1    2  502    0 -0.15536837689E+03  0.11487442084E+02  0.78963101989E+03  0.82302639170E+03  0.17200000000E+03 0.  1.
         -6    1    1    2    0  502  0.15536837689E+03 -0.11487442084E+02  0.26780376610E+03  0.35436443247E+03  0.17200000000E+03 0. -1.
</event>
<event>
 4    1 -0.3305908E-004  0.1855317E+03  0.7818608E-02  0.1162554E+00
          5   -1    0    0  501    0  0.00000000000E+00  0.00000000000E+00  0.49595729971E+03  0.49597956928E+03  0.47000000000E+01 0. -1.
         -5   -1    0    0    0  501 -0.00000000000E+00 -0.00000000000E+00 -0.69419746181E+02  0.69578668857E+02  0.47000000000E+01 0.  1.
          6    1    1    2  502    0  0.34426056904E+01 -0.69470583231E+02  0.20162653509E+03  0.27399867358E+03  0.17200000000E+03 0. -1.
         -6    1    1    2    0  502 -0.34426056904E+01  0.69470583231E+02  0.22491101844E+03  0.29155956455E+03  0.17200000000E+03 0.  1.
</event>
<event>
 4    1 -0.3305908E-004  0.2790079E+03  0.7818608E-02  0.1096232E+00
         -5   -1    0    0    0  501 -0.00000000000E+00  0.00000000000E+00  0.93410950988E+02  0.93529117201E+02  0.47000000000E+01 0.  1.
          5   -1    0    0  501    0  0.00000000000E+00 -0.00000000000E+00 -0.10821659836E+04  0.10821761900E+04  0.47000000000E+01 0. -1.
          6    1    1    2  502    0  0.18261122584E+03 -0.12212513299E+03 -0.77659866063E+03  0.82519748400E+03  0.17200000000E+03 0. -1.
         -6    1    1    2    0  502 -0.18261122584E+03  0.12212513299E+03 -0.21215637200E+03  0.35050782315E+03  0.17200000000E+03 0.  1.
</event>
<event>
 4    1 -0.3305908E-004  0.1744433E+03  0.7818608E-02  0.1173292E+00
         -5   -1    0    0    0  501 -0.00000000000E+00  0.00000000000E+00  0.43815492221E+02  0.44066851017E+02  0.47000000000E+01 0.  1.
          5   -1    0    0  501    0  0.00000000000E+00 -0.00000000000E+00 -0.80419178221E+03  0.80420551638E+03  0.47000000000E+01 0. -1.
          6    1    1    2  502    0 -0.23898377552E+02 -0.16593567003E+02 -0.22198535502E+03  0.28232601148E+03  0.17200000000E+03 0.  1.
         -6    1    1    2    0  502  0.23898377552E+02  0.16593567003E+02 -0.53839093497E+03  0.56594635591E+03  0.17200000000E+03 0. -1.
</event>
<event>
 4    1 -0.3305908E-004  0.2128392E+03  0.7818608E-02  0.1139337E+00
         -5   -1    0    0    0  501 -0.00000000000E+00  0.00000000000E+00  0.15779389403E+03  0.15786387488E+03  0.47000000000E+01 0.  1.
          5   -1    0    0  501    0  0.00000000000E+00 -0.00000000000E+00 -0.29980152480E+03  0.29983836357E+03  0.47000000000E+01 0. -1.
          6    1    1    2  502    0  0.12086453707E+03  0.33291278285E+02 -0.11840692302E+03  0.24355850416E+03  0.17200000000E+03 0. -1.
         -6    1    1    2    0  502 -0.12086453707E+03 -0.33291278285E+02 -0.23600707749E+02  0.21414373429E+03  0.17200000000E+03 0.  1.
</event>
<event>
 4    1 -0.3305908E-004  0.2063315E+03  0.7818608E-02  0.1144504E+00
          5   -1    0    0  501    0  0.00000000000E+00  0.00000000000E+00  0.57118970578E+03  0.57120904229E+03  0.47000000000E+01 0. -1.
         -5   -1    0    0    0  501 -0.00000000000E+00 -0.00000000000E+00 -0.81641241307E+02  0.81776416418E+02  0.47000000000E+01 0.  1.
          6    1    1    2  502    0  0.96386710757E+02  0.60813521449E+02  0.34165455171E+03  0.39912468617E+03  0.17200000000E+03 0. -1.
         -6    1    1    2    0  502 -0.96386710757E+02 -0.60813521449E+02  0.14789391276E+03  0.25386077254E+03  0.17200000000E+03 0. -1.
</event>
<event>
 4    1 -0.3305908E-004  0.1790742E+03  0.7818608E-02  0.1168702E+00
         -5   -1    0    0    0  501 -0.00000000000E+00  0.00000000000E+00  0.46335581070E+03  0.46337964706E+03  0.47000000000E+01 0.  1.
          5   -1    0    0  501    0  0.00000000000E+00 -0.00000000000E+00 -0.94468033126E+02  0.94584878721E+02  0.47000000000E+01 0. -1.
          6    1    1    2  502    0 -0.44144387006E+02  0.23126377170E+02  0.40002965468E+02  0.18348785647E+03  0.17200000000E+03 0. -1.
         -6    1    1    2    0  502  0.44144387006E+02 -0.23126377170E+02  0.32888481210E+03  0.37447666931E+03  0.17200000000E+03 0.  1.
</event>
<event>
 4    1 -0.3305908E-004  0.3501163E+03  0.7818608E-02  0.1062567E+00
          5   -1    0    0  501    0  0.00000000000E+00  0.00000000000E+00  0.10902805870E+04  0.10902907173E+04  0.47000000000E+01 0. -1.
         -5   -1    0    0    0  501 -0.00000000000E+00 -0.00000000000E+00 -0.11302691774E+03  0.11312459562E+03  0.47000000000E+01 0.  1.
          6    1    1    2  502    0  0.29514068449E+03  0.76742581768E+02  0.53443090308E+03  0.63890362158E+03  0.17200000000E+03 0. -1.
         -6    1    1    2    0  502 -0.29514068449E+03 -0.76742581768E+02  0.44282276614E+03  0.56451169138E+03  0.17200000000E+03 0.  1.
</event>
<event>
 4    1 -0.3305908E-004  0.1988115E+03  0.7818608E-02  0.1150746E+00
          5   -1    0    0  501    0  0.00000000000E+00  0.00000000000E+00  0.17725151090E+03  0.17731381254E+03  0.47000000000E+01 0. -1.
         -5   -1    0    0    0  501 -0.00000000000E+00 -0.00000000000E+00 -0.22301090973E+03  0.22306043096E+03  0.47000000000E+01 0.  1.
          6    1    1    2  502    0  0.31809577854E+01  0.99658802243E+02 -0.27953553408E+02  0.20076702046E+03  0.17200000000E+03 0.  1.
         -6    1    1    2    0  502 -0.31809577854E+01 -0.99658802243E+02 -0.17805845417E+02  0.19960722304E+03  0.17200000000E+03 0. -1.
</event>
<event>
 4    1 -0.3305908E-004  0.1870566E+03  0.7818608E-02  0.1161143E+00
          5   -1    0    0  501    0  0.00000000000E+00  0.00000000000E+00  0.45958530894E+03  0.45960934084E+03  0.47000000000E+01 0. -1.
         -5   -1    0    0    0  501 -0.00000000000E+00 -0.00000000000E+00 -0.76522445254E+02  0.76666646122E+02  0.47000000000E+01 0.  1.
          6    1    1    2  502    0 -0.39015138954E+02  0.62321584449E+02  0.21289499006E+03  0.28339802002E+03  0.17200000000E+03 0. -1.
         -6    1    1    2    0  502  0.39015138954E+02 -0.62321584449E+02  0.17016787362E+03  0.25287796695E+03  0.17200000000E+03 0. -1.
</event>
<event>
 4    1 -0.3305908E-004  0.1745028E+03  0.7818608E-02  0.1173232E+00
         -5   -1    0    0    0  501 -0.00000000000E+00  0.00000000000E+00  0.56599657122E+02  0.56794464399E+02  0.47000000000E+01 0.  1.
          5   -1    0    0  501    0  0.00000000000E+00 -0.00000000000E+00 -0.10556550420E+04  0.10556655047E+04  0.47000000000E+01 0. -1.
          6    1    1    2  502    0  0.22583970752E+02  0.18899565270E+02 -0.88941495665E+03  0.90637199561E+03  0.17200000000E+03 0. -1.
         -6    1    1    2    0  502 -0.22583970752E+02 -0.18899565270E+02 -0.10964042827E+03  0.20608797348E+03  0.17200000000E+03 0.  1.
</event>
<event>
 4    1 -0.3305908E-004  0.1866133E+03  0.7818608E-02  0.1161552E+00
          5   -1    0    0  501    0  0.00000000000E+00  0.00000000000E+00  0.45591393634E+02  0.45833014012E+02  0.47000000000E+01 0. -1.
         -5   -1    0    0    0  501 -0.00000000000E+00 -0.00000000000E+00 -0.14869503499E+04  0.14869577778E+04  0.47000000000E+01 0.  1.
          6    1    1    2  502    0  0.22212133719E+02 -0.68899619387E+02 -0.18543783014E+03  0.26308121424E+03  0.17200000000E+03 0. -1.
         -6    1    1    2    0  502 -0.22212133719E+02  0.68899619387E+02 -0.12559211261E+04  0.12697095776E+04  0.17200000000E+03 0.  1.
</event>
<event>
 4    1 -0.3305908E-004  0.4527886E+03  0.7818608E-02  0.1026894E+00
          5   -1    0    0  501    0  0.00000000000E+00  0.00000000000E+00  0.24571208949E+03  0.24575703636E+03  0.47000000000E+01 0. -1.
         -5   -1    0    0    0  501 -0.00000000000E+00 -0.00000000000E+00 -0.83537128373E+03  0.83538450529E+03  0.47000000000E+01 0.  1.
          6    1    1    2  502    0 -0.28810262777E+02 -0.41785584117E+03 -0.27505440817E+03  0.52978529868E+03  0.17200000000E+03 0. -1.
         -6    1    1    2    0  502  0.28810262777E+02  0.41785584117E+03 -0.31460478607E+03  0.55135624297E+03  0.17200000000E+03 0.  1.
</event>
<event>
 4    1 -0.3305908E-004  0.3740350E+03  0.7818608E-02  0.1053161E+00
          5   -1    0    0  501    0  0.00000000000E+00  0.00000000000E+00  0.30124913389E+03  0.30128579567E+03  0.47000000000E+01 0. -1.
         -5   -1    0    0    0  501 -0.00000000000E+00 -0.00000000000E+00 -0.11335595220E+04  0.11335692656E+04  0.47000000000E+01 0.  1.
          6    1    1    2  502    0  0.21747180761E+03 -0.25104618064E+03  0.13507520652E+03  0.39767761231E+03  0.17200000000E+03 0. -1.
         -6    1    1    2    0  502 -0.21747180761E+03  0.25104618064E+03 -0.96738559462E+03  0.10371774489E+04  0.17200000000E+03 0.  1.
</event>
<event>
 4    1 -0.3305908E-004  0.1805505E+03  0.7818608E-02  0.1167271E+00
         -5   -1    0    0    0  501 -0.00000000000E+00  0.00000000000E+00  0.89546894848E+02  0.89670153211E+02  0.47000000000E+01 0.  1.
          5   -1    0    0  501    0  0.00000000000E+00 -0.00000000000E+00 -0.38691649340E+03  0.38694503856E+03  0.47000000000E+01 0. -1.
          6    1    1    2  502    0 -0.53668683018E+02  0.11582056678E+02 -0.20711223489E+03  0.27476162289E+03  0.17200000000E+03 0. -1.
         -6    1    1    2    0  502  0.53668683018E+02 -0.11582056678E+02 -0.90257363667E+02  0.20185356888E+03  0.17200000000E+03 0.  1.
</event>
<event>
 4    1 -0.3305908E-004  0.2529892E+03  0.7818608E-02  0.1111430E+00
          5   -1    0    0  501    0  0.00000000000E+00  0.00000000000E+00  0.10609176864E+03  0.10619582559E+03  0.47000000000E+01 0. -1.
         -5   -1    0    0    0  501 -0.00000000000E+00 -0.00000000000E+00 -0.66823105126E+03  0.66824757977E+03  0.47000000000E+01 0.  1.
          6    1    1    2  502    0  0.17982813420E+03  0.45622204860E+02 -0.15998274104E+03  0.29932928499E+03  0.17200000000E+03 0. -1.
         -6    1    1    2    0  502 -0.17982813420E+03 -0.45622204860E+02 -0.40215654159E+03  0.47511412036E+03  0.17200000000E+03 0.  1.
</event>
<event>
 4    1 -0.3305908E-004  0.2223865E+03  0.7818608E-02  0.1132116E+00
         -5   -1    0    0    0  501 -0.00000000000E+00  0.00000000000E+00  0.38744282258E+03  0.38747132897E+03  0.47000000000E+01 0.  1.
          5   -1    0    0  501    0  0.00000000000E+00 -0.00000000000E+00 -0.27281258212E+03  0.27285306479E+03  0.47000000000E+01 0. -1.
          6    1    1    2  502    0 -0.13662380142E+03 -0.34723099303E+02 -0.18354711722E+03  0.28834926908E+03  0.17200000000E+03 0. -1.
         -6    1    1    2    0  502  0.13662380142E+03  0.34723099303E+02  0.29817735768E+03  0.37197512467E+03  0.17200000000E+03 0.  1.
</event>
<event>
 4    1 -0.3305908E-004  0.2036412E+03  0.7818608E-02  0.1146703E+00
         -5   -1    0    0    0  501 -0.00000000000E+00  0.00000000000E+00  0.24153399535E+03  0.24157971957E+03  0.47000000000E+01 0.  1.
          5   -1    0    0  501    0  0.00000000000E+00 -0.00000000000E+00 -0.25581076750E+03  0.25585394030E+03  0.47000000000E+01 0. -1.
          6    1    1    2  502    0 -0.53230681983E+02  0.95143159088E+02 -0.14981335539E+03  0.25281172377E+03  0.17200000000E+03 0. -1.
         -6    1    1    2    0  502  0.53230681983E+02 -0.95143159088E+02  0.13553658324E+03  0.24462193610E+03  0.17200000000E+03 0.  1.
</event>
<event>
 4    1 -0.3305908E-004  0.2700620E+03  0.7818608E-02  0.1101244E+00
          5   -1    0    0  501    0  0.00000000000E+00  0.00000000000E+00  0.23232532598E+03  0.23237286221E+03  0.47000000000E+01 0. -1.
         -5   -1    0    0    0  501 -0.00000000000E+00 -0.00000000000E+00 -0.71819440137E+03  0.71820978005E+03  0.47000000000E+01 0.  1.
          6    1    1    2  502    0  0.20628621313E+03  0.28204744274E+02  0.11368301635E+03  0.29301422753E+03  0.17200000000E+03 0. -1.
         -6    1    1    2    0  502 -0.20628621313E+03 -0.28204744274E+02 -0.59955209175E+03  0.65756841472E+03  0.17200000000E+03 0.  1.
</event>
<event>
 4    1 -0.3305908E-004  0.1863636E+03  0.7818608E-02  0.1161783E+00
          5   -1    0    0  501    0  0.00000000000E+00  0.00000000000E+00  0.13265899074E+03  0.13274222322E+03  0.47000000000E+01 0. -1.
         -5   -1    0    0    0  501 -0.00000000000E+00 -0.00000000000E+00 -0.33534439617E+03  0.33537733084E+03  0.47000000000E+01 0.  1.
          6    1    1    2  502    0 -0.71583346873E+02 -0.48182996863E+01  0.83807598700E+01  0.18655194638E+03  0.17200000000E+03 0.  1.
         -6    1    1    2    0  502  0.71583346873E+02  0.48182996863E+01 -0.21106616530E+03  0.28156760768E+03  0.17200000000E+03 0.  1.
</event>
<event>
 4    1 -0.3305908E-004  0.1912165E+03  0.7818608E-02  0.1157369E+00
          5   -1    0    0  501    0  0.00000000000E+00  0.00000000000E+00  0.72785804437E+03  0.72787321887E+03  0.47000000000E+01 0. -1.
         -5   -1    0    0    0  501 -0.00000000000E+00 -0.00000000000E+00 -0.58116625081E+02  0.58306364239E+02  0.47000000000E+01 0.  1.
          6    1    1    2  502    0 -0.99561314338E+01  0.82949532788E+02  0.48050754437E+03  0.51715689083E+03  0.17200000000E+03 0. -1.
         -6    1    1    2    0  502  0.99561314338E+01 -0.82949532788E+02  0.18923387492E+03  0.26902269228E+03  0.17200000000E+03 0.  1.
</event>
<event>
 4    1 -0.3305908E-004  0.2172507E+03  0.7818608E-02  0.1135950E+00
          5   -1    0    0  501    0  0.00000000000E+00  0.00000000000E+00  0.13023384132E+04  0.13023468940E+04  0.47000000000E+01 0. -1.
         -5   -1    0    0    0  501 -0.00000000000E+00 -0.00000000000E+00 -0.36117724637E+02  0.36422246402E+02  0.47000000000E+01 0.  1.
          6    1    1    2  502    0 -0.13264301127E+03  0.44380818485E+01  0.65469579929E+03  0.68980030053E+03  0.17200000000E+03 0. -1.
         -6    1    1    2    0  502  0.13264301127E+03 -0.44380818485E+01  0.61152488923E+03  0.64896883990E+03  0.17200000000E+03 0.  1.
</event>
<event>
 4    1 -0.3305908E-004  0.2560186E+03  0.7818608E-02  0.1109559E+00
          5   -1    0    0  501    0  0.00000000000E+00  0.00000000000E+00  0.17903451554E+04  0.17903513246E+04  0.47000000000E+01 0. -1.
         -5   -1    0    0    0  501 -0.00000000000E+00 -0.00000000000E+00 -0.77140608889E+02  0.77283656356E+02  0.47000000000E+01 0.  1.
          6    1    1    2  502    0  0.36325160517E+02 -0.18612367607E+03  0.15337861885E+04  0.15550066276E+04  0.17200000000E+03 0. -1.
         -6    1    1    2    0  502 -0.36325160517E+02  0.18612367607E+03  0.17941835802E+03  0.31262835328E+03  0.17200000000E+03 0.  1.
</event>
<event>
 4    1 -0.3305908E-004  0.2279317E+03  0.7818608E-02  0.1128104E+00
         -5   -1    0    0    0  501 -0.00000000000E+00  0.00000000000E+00  0.16488114994E+04  0.16488181981E+04  0.47000000000E+01 0.  1.
          5   -1    0    0  501    0  0.00000000000E+00 -0.00000000000E+00 -0.35853774753E+02  0.36160519410E+02  0.47000000000E+01 0. -1.
          6    1    1    2  502    0  0.13977094788E+03 -0.53225224743E+02  0.50851757019E+03  0.55726381689E+03  0.17200000000E+03 0. -1.
         -6    1    1    2    0  502 -0.13977094788E+03  0.53225224743E+02  0.11044401545E+04  0.11277149007E+04  0.17200000000E+03 0.  1.
</event>
<event>
 4    1 -0.3305908E-004  0.1744993E+03  0.7818608E-02  0.1173235E+00
         -5   -1    0    0    0  501 -0.00000000000E+00  0.00000000000E+00  0.26610774868E+03  0.26614925119E+03  0.47000000000E+01 0.  1.
          5   -1    0    0  501    0  0.00000000000E+00 -0.00000000000E+00 -0.13332991820E+03  0.13341273210E+03  0.47000000000E+01 0. -1.
          6    1    1    2  502    0  0.25559611934E+02 -0.14584287419E+02 -0.89932471768E+01  0.17473086074E+03  0.17200000000E+03 0. -1.
         -6    1    1    2    0  502 -0.25559611934E+02  0.14584287419E+02  0.14177107766E+03  0.22483112254E+03  0.17200000000E+03 0.  1.
</event>
<event>
 4    1 -0.3305908E-004  0.8431573E+03  0.7818608E-02  0.9499567E-01
          5   -1    0    0  501    0  0.00000000000E+00  0.00000000000E+00  0.47964540866E+03  0.47966843554E+03  0.47000000000E+01 0. -1.
         -5   -1    0    0    0  501 -0.00000000000E+00 -0.00000000000E+00 -0.17618176150E+04  0.17618238840E+04  0.47000000000E+01 0.  1.
          6    1    1    2  502    0 -0.53595764410E+03  0.62775758778E+03 -0.19452586544E+03  0.86530601385E+03  0.17200000000E+03 0. -1.
         -6    1    1    2    0  502  0.53595764410E+03 -0.62775758778E+03 -0.10876463409E+04  0.13761863057E+04  0.17200000000E+03 0.  1.
</event>
<event>
 4    1 -0.3305908E-004  0.2460174E+03  0.7818608E-02  0.1115848E+00
         -5   -1    0    0    0  501 -0.00000000000E+00  0.00000000000E+00  0.50929174614E+03  0.50931343266E+03  0.47000000000E+01 0.  1.
          5   -1    0    0  501    0  0.00000000000E+00 -0.00000000000E+00 -0.16528632759E+03  0.16535313753E+03  0.47000000000E+01 0. -1.
          6    1    1    2  502    0  0.90626090449E+02 -0.15075637721E+03 -0.68972106172E+01  0.24611408951E+03  0.17200000000E+03 0. -1.
         -6    1    1    2    0  502 -0.90626090449E+02  0.15075637721E+03  0.35090262916E+03  0.42855248068E+03  0.17200000000E+03 0.  1.
</event>
<event>
 4    1 -0.3305908E-004  0.1747005E+03  0.7818608E-02  0.1173033E+00
          5   -1    0    0  501    0  0.00000000000E+00  0.00000000000E+00  0.10776120941E+04  0.10776223435E+04  0.47000000000E+01 0. -1.
         -5   -1    0    0    0  501 -0.00000000000E+00 -0.00000000000E+00 -0.31960822155E+02  0.32304553129E+02  0.47000000000E+01 0.  1.
          6    1    1    2  502    0  0.30142920944E+02 -0.52614258374E+01  0.71416591647E+03  0.73522325489E+03  0.17200000000E+03 0. -1.
         -6    1    1    2    0  502 -0.30142920944E+02  0.52614258374E+01  0.33148535546E+03  0.37470364179E+03  0.17200000000E+03 0.  1.
</event>
<event>
 4    1 -0.3305908E-004  0.2210324E+03  0.7818608E-02  0.1133116E+00
          5   -1    0    0  501    0  0.00000000000E+00  0.00000000000E+00  0.54991577256E+03  0.54993585709E+03  0.47000000000E+01 0. -1.
         -5   -1    0    0    0  501 -0.00000000000E+00 -0.00000000000E+00 -0.19007078722E+03  0.19012888827E+03  0.47000000000E+01 0.  1.
          6    1    1    2  502    0 -0.36131628563E+01 -0.13877410399E+03  0.44999973235E+03  0.50135323475E+03  0.17200000000E+03 0. -1.
         -6    1    1    2    0  502  0.36131628563E+01  0.13877410399E+03 -0.90154747008E+02  0.23871151060E+03  0.17200000000E+03 0.  1.
</event>
<event>
 4    1 -0.3305908E-004  0.3165869E+03  0.7818608E-02  0.1077231E+00
          5   -1    0    0  501    0  0.00000000000E+00  0.00000000000E+00  0.11100356999E+04  0.11100456500E+04  0.47000000000E+01 0. -1.
         -5   -1    0    0    0  501 -0.00000000000E+00 -0.00000000000E+00 -0.10339896638E+03  0.10350573051E+03  0.47000000000E+01 0.  1.
          6    1    1    2  502    0  0.32506228842E+02  0.26379270256E+03  0.71981096916E+03  0.78635556599E+03  0.17200000000E+03 0. -1.
         -6    1    1    2    0  502 -0.32506228842E+02 -0.26379270256E+03  0.28682576437E+03  0.42719581452E+03  0.17200000000E+03 0.  1.
</event>
<event>
 4    1 -0.3305908E-004  0.2271256E+03  0.7818608E-02  0.1128679E+00
          5   -1    0    0  501    0  0.00000000000E+00  0.00000000000E+00  0.18386271636E+03  0.18392277854E+03  0.47000000000E+01 0. -1.
         -5   -1    0    0    0  501 -0.00000000000E+00 -0.00000000000E+00 -0.10251493473E+04  0.10251601213E+04  0.47000000000E+01 0.  1.
          6    1    1    2  502    0  0.98372293254E+02 -0.11101763320E+03  0.94593787007E+02  0.24603659789E+03  0.17200000000E+03 0. -1.
         -6    1    1    2    0  502 -0.98372293254E+02  0.11101763320E+03 -0.93588041792E+03  0.96304630190E+03  0.17200000000E+03 0.  1.
</event>
<event>
 4    1 -0.3305908E-004  0.2239579E+03  0.7818608E-02  0.1130966E+00
         -5   -1    0    0    0  501 -0.00000000000E+00  0.00000000000E+00  0.15274244643E+03  0.15281474059E+03  0.47000000000E+01 0.  1.
          5   -1    0    0  501    0  0.00000000000E+00 -0.00000000000E+00 -0.33040696052E+03  0.33044038730E+03  0.47000000000E+01 0. -1.
          6    1    1    2  502    0  0.14286302633E+03 -0.12778399527E+02 -0.10853056241E+03  0.24886947334E+03  0.17200000000E+03 0. -1.
         -6    1    1    2    0  502 -0.14286302633E+03  0.12778399527E+02 -0.69133951680E+02  0.23438565455E+03  0.17200000000E+03 0.  1.
</event>
<event>
 4    1 -0.3305908E-004  0.1728754E+03  0.7818608E-02  0.1174882E+00
          5   -1    0    0  501    0  0.00000000000E+00  0.00000000000E+00  0.23950246812E+02  0.24407054766E+02  0.47000000000E+01 0. -1.
         -5   -1    0    0    0  501 -0.00000000000E+00 -0.00000000000E+00 -0.13763669838E+04  0.13763750085E+04  0.47000000000E+01 0.  1.
          6    1    1    2  502    0  0.81618769463E+01  0.15339348759E+02 -0.45224608300E+03  0.48416157577E+03  0.17200000000E+03 0. -1.
         -6    1    1    2    0  502 -0.81618769463E+01 -0.15339348759E+02 -0.90017065393E+03  0.91662048748E+03  0.17200000000E+03 0.  1.
</event>
<event>
 4    1 -0.3305908E-004  0.2858722E+03  0.7818608E-02  0.1092524E+00
         -5   -1    0    0    0  501 -0.00000000000E+00  0.00000000000E+00  0.11393262476E+04  0.11393359419E+04  0.47000000000E+01 0.  1.
          5   -1    0    0  501    0  0.00000000000E+00 -0.00000000000E+00 -0.82380488219E+02  0.82514452305E+02  0.47000000000E+01 0. -1.
          6    1    1    2  502    0 -0.88297434859E+02  0.21057653066E+03  0.30810944198E+03  0.42030267725E+03  0.17200000000E+03 0. -1.
         -6    1    1    2    0  502  0.88297434859E+02 -0.21057653066E+03  0.74883631737E+03  0.80154771691E+03  0.17200000000E+03 0. -1.
</event>
<event>
 4    1 -0.3305908E-004  0.1871064E+03  0.7818608E-02  0.1161097E+00
          5   -1    0    0  501    0  0.00000000000E+00  0.00000000000E+00  0.73760668572E+02  0.73910257936E+02  0.47000000000E+01 0. -1.
         -5   -1    0    0    0  501 -0.00000000000E+00 -0.00000000000E+00 -0.61940954896E+03  0.61942738020E+03  0.47000000000E+01 0.  1.
          6    1    1    2  502    0  0.44362612922E+02  0.58794330660E+02 -0.10487254420E+03  0.21449257626E+03  0.17200000000E+03 0. -1.
         -6    1    1    2    0  502 -0.44362612922E+02 -0.58794330660E+02 -0.44077633618E+03  0.47884506188E+03  0.17200000000E+03 0.  1.
</event>
<event>
 4    1 -0.3305908E-004  0.1785052E+03  0.7818608E-02  0.1169258E+00
          5   -1    0    0  501    0  0.00000000000E+00  0.00000000000E+00  0.99289057199E+02  0.99400235812E+02  0.47000000000E+01 0. -1.
         -5   -1    0    0    0  501 -0.00000000000E+00 -0.00000000000E+00 -0.43332507046E+03  0.43335055865E+03  0.47000000000E+01 0.  1.
          6    1    1    2  502    0 -0.38532482646E+02  0.28201999399E+02 -0.31187122097E+02  0.18120911007E+03  0.17200000000E+03 0. -1.
         -6    1    1    2    0  502  0.38532482646E+02 -0.28201999399E+02 -0.30284889116E+03  0.35154168439E+03  0.17200000000E+03 0.  1.
</event>
<event>
 4    1 -0.3305908E-004  0.1857472E+03  0.7818608E-02  0.1162354E+00
          5   -1    0    0  501    0  0.00000000000E+00  0.00000000000E+00  0.25446901703E+03  0.25451241744E+03  0.47000000000E+01 0. -1.
         -5   -1    0    0    0  501 -0.00000000000E+00 -0.00000000000E+00 -0.14445103536E+03  0.14452747703E+03  0.47000000000E+01 0.  1.
          6    1    1    2  502    0  0.11753658712E+02 -0.69136625037E+02  0.10468580231E+03  0.21321617814E+03  0.17200000000E+03 0. -1.
         -6    1    1    2    0  502 -0.11753658712E+02  0.69136625037E+02  0.53321793568E+01  0.18582371633E+03  0.17200000000E+03 0.  1.
</event>
<event>
 4    1 -0.3305908E-004  0.2722564E+03  0.7818608E-02  0.1099995E+00
         -5   -1    0    0    0  501 -0.00000000000E+00  0.00000000000E+00  0.34159588441E+04  0.34159620774E+04  0.47000000000E+01 0.  1.
          5   -1    0    0  501    0  0.00000000000E+00 -0.00000000000E+00 -0.21472657365E+02  0.21981014861E+02  0.47000000000E+01 0. -1.
          6    1    1    2  502    0  0.14593652142E+03  0.15245352432E+03  0.17620520465E+04  0.17829612895E+04  0.17200000000E+03 0. -1.
         -6    1    1    2    0  502 -0.14593652142E+03 -0.15245352432E+03  0.16324341402E+04  0.16549818028E+04  0.17200000000E+03 0. -1.
</event>
<event>
 4    1 -0.3305908E-004  0.2188971E+03  0.7818608E-02  0.1134708E+00
         -5   -1    0    0    0  501 -0.00000000000E+00  0.00000000000E+00  0.27060434206E+03  0.27064515503E+03  0.47000000000E+01 0.  1.
          5   -1    0    0  501    0  0.00000000000E+00 -0.00000000000E+00 -0.24023157612E+03  0.24027754820E+03  0.47000000000E+01 0. -1.
          6    1    1    2  502    0 -0.10608525840E+03 -0.84129916122E+02 -0.11586568739E+03  0.24767071355E+03  0.17200000000E+03 0. -1.
         -6    1    1    2    0  502  0.10608525840E+03  0.84129916122E+02  0.14623845333E+03  0.26325198968E+03  0.17200000000E+03 0.  1.
</event>
<event>
 4    1 -0.3305908E-004  0.1779653E+03  0.7818608E-02  0.1169787E+00
         -5   -1    0    0    0  501 -0.00000000000E+00  0.00000000000E+00  0.14647769661E+03  0.14655308118E+03  0.47000000000E+01 0.  1.
          5   -1    0    0  501    0  0.00000000000E+00 -0.00000000000E+00 -0.22707108136E+03  0.22711971731E+03  0.47000000000E+01 0. -1.
          6    1    1    2  502    0 -0.42956129982E+02  0.15570180570E+02 -0.81418692758E+02  0.19570555219E+03  0.17200000000E+03 0. -1.
         -6    1    1    2    0  502  0.42956129982E+02 -0.15570180570E+02  0.82530800448E+00  0.17796724631E+03  0.17200000000E+03 0.  1.
</event>
<event>
 4    1 -0.3305908E-004  0.2276860E+03  0.7818608E-02  0.1128279E+00
          5   -1    0    0  501    0  0.00000000000E+00  0.00000000000E+00  0.38312223974E+03  0.38315106757E+03  0.47000000000E+01 0. -1.
         -5   -1    0    0    0  501 -0.00000000000E+00 -0.00000000000E+00 -0.14353765565E+03  0.14361458348E+03  0.47000000000E+01 0.  1.
          6    1    1    2  502    0  0.73940349427E+02  0.12957515412E+03  0.18310634316E+03  0.29217944614E+03  0.17200000000E+03 0. -1.
         -6    1    1    2    0  502 -0.73940349427E+02 -0.12957515412E+03  0.56478240927E+02  0.23458620491E+03  0.17200000000E+03 0. -1.
</event>
<event>
 4    1 -0.3305908E-004  0.1806692E+03  0.7818608E-02  0.1167157E+00
         -5   -1    0    0    0  501 -0.00000000000E+00  0.00000000000E+00  0.38721718473E+03  0.38724570773E+03  0.47000000000E+01 0.  1.
          5   -1    0    0  501    0  0.00000000000E+00 -0.00000000000E+00 -0.89112002690E+02  0.89235861757E+02  0.47000000000E+01 0. -1.
          6    1    1    2  502    0 -0.54401113858E+02 -0.98933908544E+01  0.20493715883E+03  0.27320431812E+03  0.17200000000E+03 0. -1.
         -6    1    1    2    0  502  0.54401113858E+02  0.98933908544E+01  0.93168023215E+02  0.20327725136E+03  0.17200000000E+03 0. -1.
</event>
<event>
 4    1 -0.3305908E-004  0.2236240E+03  0.7818608E-02  0.1131210E+00
          5   -1    0    0  501    0  0.00000000000E+00  0.00000000000E+00  0.25908784246E+03  0.25913046928E+03  0.47000000000E+01 0. -1.
         -5   -1    0    0    0  501 -0.00000000000E+00 -0.00000000000E+00 -0.19589308161E+03  0.19594945629E+03  0.47000000000E+01 0.  1.
          6    1    1    2  502    0  0.62929846911E+02 -0.12831025147E+03  0.59587769278E+02  0.23142685348E+03  0.17200000000E+03 0. -1.
         -6    1    1    2    0  502 -0.62929846911E+02  0.12831025147E+03  0.36069915725E+01  0.22365307209E+03  0.17200000000E+03 0.  1.
</event>
<event>
 4    1 -0.3305908E-004  0.2341049E+03  0.7818608E-02  0.1123783E+00
         -5   -1    0    0    0  501 -0.00000000000E+00  0.00000000000E+00  0.47703614614E+03  0.47705929896E+03  0.47000000000E+01 0.  1.
          5   -1    0    0  501    0  0.00000000000E+00 -0.00000000000E+00 -0.13210384816E+03  0.13218743018E+03  0.47000000000E+01 0. -1.
          6    1    1    2  502    0  0.13549970828E+03 -0.82830727037E+02  0.62304059693E+02  0.24225378457E+03  0.17200000000E+03 0. -1.
         -6    1    1    2    0  502 -0.13549970828E+03  0.82830727037E+02  0.28262823829E+03  0.36699294457E+03  0.17200000000E+03 0.  1.
</event>
<event>
 4    1 -0.3305908E-004  0.1930100E+03  0.7818608E-02  0.1155774E+00
          5   -1    0    0  501    0  0.00000000000E+00  0.00000000000E+00  0.67214354675E+02  0.67378479312E+02  0.47000000000E+01 0. -1.
         -5   -1    0    0    0  501 -0.00000000000E+00 -0.00000000000E+00 -0.60310203623E+03  0.60312034961E+03  0.47000000000E+01 0.  1.
          6    1    1    2  502    0 -0.23352185850E+02  0.84401029241E+02 -0.36418014457E+03  0.41216505920E+03  0.17200000000E+03 0. -1.
         -6    1    1    2    0  502  0.23352185850E+02 -0.84401029241E+02 -0.17170753698E+03  0.25833376972E+03  0.17200000000E+03 0. -1.
</event>
<event>
 4    1 -0.3305908E-004  0.3176909E+03  0.7818608E-02  0.1076717E+00
         -5   -1    0    0    0  501 -0.00000000000E+00  0.00000000000E+00  0.25460505152E+03  0.25464842874E+03  0.47000000000E+01 0.  1.
          5   -1    0    0  501    0  0.00000000000E+00 -0.00000000000E+00 -0.78160654919E+03  0.78162068022E+03  0.47000000000E+01 0. -1.
          6    1    1    2  502    0  0.25563594511E+03  0.77419371451E+02 -0.62726850291E+03  0.70313104771E+03  0.17200000000E+03 0. -1.
         -6    1    1    2    0  502 -0.25563594511E+03 -0.77419371451E+02  0.10026700524E+03  0.33313806124E+03  0.17200000000E+03 0.  1.
</event>
<event>
 4    1 -0.3305908E-004  0.2023229E+03  0.7818608E-02  0.1147794E+00
          5   -1    0    0  501    0  0.00000000000E+00  0.00000000000E+00  0.61360785325E+02  0.61540523037E+02  0.47000000000E+01 0. -1.
         -5   -1    0    0    0  501 -0.00000000000E+00 -0.00000000000E+00 -0.66721173807E+03  0.66722829183E+03  0.47000000000E+01 0.  1.
          6    1    1    2  502    0  0.52548994960E+02 -0.92677821883E+02 -0.28707767973E+03  0.35120958094E+03  0.17200000000E+03 0.  1.
         -6    1    1    2    0  502 -0.52548994960E+02  0.92677821883E+02 -0.31877327301E+03  0.37755923393E+03  0.17200000000E+03 0.  1.
</event>
<event>
 4    1 -0.3305908E-004  0.1929657E+03  0.7818608E-02  0.1155813E+00
          5   -1    0    0  501    0  0.00000000000E+00  0.00000000000E+00  0.27126595003E+02  0.27530749290E+02  0.47000000000E+01 0. -1.
         -5   -1    0    0    0  501 -0.00000000000E+00 -0.00000000000E+00 -0.15637021286E+04  0.15637091920E+04  0.47000000000E+01 0.  1.
          6    1    1    2  502    0  0.71130533963E+02  0.50913783570E+02 -0.48265359549E+03  0.51979828728E+03  0.17200000000E+03 0. -1.
         -6    1    1    2    0  502 -0.71130533963E+02 -0.50913783570E+02 -0.10539219381E+04  0.10714416540E+04  0.17200000000E+03 0.  1.
</event>
<event>
 4    1 -0.3305908E-004  0.3070425E+03  0.7818608E-02  0.1081772E+00
          5   -1    0    0  501    0  0.00000000000E+00  0.00000000000E+00  0.24750839421E+03  0.24755301493E+03  0.47000000000E+01 0. -1.
         -5   -1    0    0    0  501 -0.00000000000E+00 -0.00000000000E+00 -0.38400638539E+03  0.38403514685E+03  0.47000000000E+01 0.  1.
          6    1    1    2  502    0  0.13861853872E+03  0.21325104850E+03 -0.97088452486E+02  0.32202682586E+03  0.17200000000E+03 0. -1.
         -6    1    1    2    0  502 -0.13861853872E+03 -0.21325104850E+03 -0.39409538697E+02  0.30956133593E+03  0.17200000000E+03 0.  1.
</event>
<event>
 4    1 -0.3305908E-004  0.2576761E+03  0.7818608E-02  0.1108548E+00
         -5   -1    0    0    0  501 -0.00000000000E+00  0.00000000000E+00  0.40983350184E+03  0.40986045092E+03  0.47000000000E+01 0.  1.
          5   -1    0    0  501    0  0.00000000000E+00 -0.00000000000E+00 -0.30380867292E+03  0.30384502587E+03  0.47000000000E+01 0. -1.
          6    1    1    2  502    0  0.19170400333E+03 -0.79098349380E+01 -0.19080826373E+03  0.32063185102E+03  0.17200000000E+03 0. -1.
         -6    1    1    2    0  502 -0.19170400333E+03  0.79098349380E+01  0.29683309265E+03  0.39307362577E+03  0.17200000000E+03 0.  1.
</event>
<event>
 4    1 -0.3305908E-004  0.2559103E+03  0.7818608E-02  0.1109626E+00
          5   -1    0    0  501    0  0.00000000000E+00  0.00000000000E+00  0.30230803633E+03  0.30234456970E+03  0.47000000000E+01 0. -1.
         -5   -1    0    0    0  501 -0.00000000000E+00 -0.00000000000E+00 -0.25791054056E+03  0.25795336193E+03  0.47000000000E+01 0.  1.
          6    1    1    2  502    0  0.12707791202E+03 -0.14056062175E+03  0.13435738320E+03  0.28903631352E+03  0.17200000000E+03 0. -1.
         -6    1    1    2    0  502 -0.12707791202E+03  0.14056062175E+03 -0.89959887438E+02  0.27126161811E+03  0.17200000000E+03 0.  1.
</event>
<event>
 4    1 -0.3305908E-004  0.1883586E+03  0.7818608E-02  0.1159950E+00
         -5   -1    0    0    0  501 -0.00000000000E+00  0.00000000000E+00  0.27149241159E+04  0.27149281841E+04  0.47000000000E+01 0.  1.
          5   -1    0    0  501    0  0.00000000000E+00 -0.00000000000E+00 -0.13107830188E+02  0.13924985180E+02  0.47000000000E+01 0. -1.
          6    1    1    2  502    0 -0.63467947856E+02 -0.43206168580E+02  0.16004821201E+04  0.16115278372E+04  0.17200000000E+03 0.  1.
         -6    1    1    2    0  502  0.63467947856E+02  0.43206168580E+02  0.11013341656E+04  0.11173253321E+04  0.17200000000E+03 0.  1.
</event>
<event>
 4    1 -0.3305908E-004  0.2213162E+03  0.7818608E-02  0.1132906E+00
         -5   -1    0    0    0  501 -0.00000000000E+00  0.00000000000E+00  0.13073932321E+03  0.13082377702E+03  0.47000000000E+01 0.  1.
          5   -1    0    0  501    0  0.00000000000E+00 -0.00000000000E+00 -0.37684556270E+03  0.37687487065E+03  0.47000000000E+01 0. -1.
          6    1    1    2  502    0 -0.20248368543E+02 -0.13779282120E+03 -0.14339475021E+03  0.26370990196E+03  0.17200000000E+03 0. -1.
         -6    1    1    2    0  502  0.20248368543E+02  0.13779282120E+03 -0.10271148928E+03  0.24398874571E+03  0.17200000000E+03 0.  1.
</event>
<event>
 4    1 -0.3305908E-004  0.2203195E+03  0.7818608E-02  0.1133645E+00
         -5   -1    0    0    0  501 -0.00000000000E+00  0.00000000000E+00  0.61692071641E+03  0.61693861958E+03  0.47000000000E+01 0.  1.
          5   -1    0    0  501    0  0.00000000000E+00 -0.00000000000E+00 -0.95434010822E+02  0.95549675152E+02  0.47000000000E+01 0. -1.
          6    1    1    2  502    0  0.48719058168E+02 -0.12877559007E+03  0.11120637130E+03  0.24679456283E+03  0.17200000000E+03 0. -1.
         -6    1    1    2    0  502 -0.48719058168E+02  0.12877559007E+03  0.41028033429E+03  0.46569373190E+03  0.17200000000E+03 0.  1.
</event>
<event>
 4    1 -0.3305908E-004  0.1938177E+03  0.7818608E-02  0.1155062E+00
          5   -1    0    0  501    0  0.00000000000E+00  0.00000000000E+00  0.10586454580E+03  0.10596882588E+03  0.47000000000E+01 0. -1.
         -5   -1    0    0    0  501 -0.00000000000E+00 -0.00000000000E+00 -0.40896672870E+03  0.40899373489E+03  0.47000000000E+01 0.  1.
          6    1    1    2  502    0  0.74750681096E+02 -0.48924728985E+02 -0.57642955026E+02  0.20220782303E+03  0.17200000000E+03 0. -1.
         -6    1    1    2    0  502 -0.74750681096E+02  0.48924728985E+02 -0.24545922787E+03  0.31275473774E+03  0.17200000000E+03 0.  1.
</event>
<event>
 4    1 -0.3305908E-004  0.2550881E+03  0.7818608E-02  0.1110131E+00
         -5   -1    0    0    0  501 -0.00000000000E+00  0.00000000000E+00  0.73030264691E+02  0.73181347083E+02  0.47000000000E+01 0.  1.
          5   -1    0    0  501    0  0.00000000000E+00 -0.00000000000E+00 -0.12708419082E+04  0.12708505993E+04  0.47000000000E+01 0. -1.
          6    1    1    2  502    0 -0.18086035056E+03  0.52682563965E+02 -0.96680041164E+03  0.99988647100E+03  0.17200000000E+03 0. -1.
         -6    1    1    2    0  502  0.18086035056E+03 -0.52682563965E+02 -0.23101123188E+03  0.34414547535E+03  0.17200000000E+03 0.  1.
</event>
<event>
 4    1 -0.3305908E-004  0.2014362E+03  0.7818608E-02  0.1148533E+00
         -5   -1    0    0    0  501 -0.00000000000E+00  0.00000000000E+00  0.29296456533E+02  0.29671069502E+02  0.47000000000E+01 0.  1.
          5   -1    0    0  501    0  0.00000000000E+00 -0.00000000000E+00 -0.13808133733E+04  0.13808213722E+04  0.47000000000E+01 0. -1.
          6    1    1    2  502    0 -0.10283074155E+03 -0.20454606619E+02 -0.71801311499E+03  0.74573412530E+03  0.17200000000E+03 0.  1.
         -6    1    1    2    0  502  0.10283074155E+03  0.20454606619E+02 -0.63350380180E+03  0.66475831641E+03  0.17200000000E+03 0.  1.
</event>
<event>
 4    1 -0.3305908E-004  0.2309389E+03  0.7818608E-02  0.1125981E+00
          5   -1    0    0  501    0  0.00000000000E+00  0.00000000000E+00  0.53884008980E+02  0.54088597909E+02  0.47000000000E+01 0. -1.
         -5   -1    0    0    0  501 -0.00000000000E+00 -0.00000000000E+00 -0.13982404367E+04  0.13982483359E+04  0.47000000000E+01 0.  1.
          6    1    1    2  502    0  0.14384091651E+03 -0.55304337127E+02 -0.10656371433E+04  0.10903739267E+04  0.17200000000E+03 0. -1.
         -6    1    1    2    0  502 -0.14384091651E+03  0.55304337127E+02 -0.27871928446E+03  0.36196300708E+03  0.17200000000E+03 0. -1.
</event>
<event>
 4    1 -0.3305908E-004  0.2008981E+03  0.7818608E-02  0.1148984E+00
         -5   -1    0    0    0  501 -0.00000000000E+00  0.00000000000E+00  0.26126364596E+03  0.26130591784E+03  0.47000000000E+01 0.  1.
          5   -1    0    0  501    0  0.00000000000E+00 -0.00000000000E+00 -0.20944105683E+03  0.20949378579E+03  0.47000000000E+01 0. -1.
          6    1    1    2  502    0  0.94402238215E+02 -0.43177006951E+02 -0.94745435487E+02  0.22211873864E+03  0.17200000000E+03 0. -1.
         -6    1    1    2    0  502 -0.94402238215E+02  0.43177006951E+02  0.14656802462E+03  0.24868096499E+03  0.17200000000E+03 0.  1.
</event>
<event>
 4    1 -0.3305908E-004  0.3337698E+03  0.7818608E-02  0.1069481E+00
          5   -1    0    0  501    0  0.00000000000E+00  0.00000000000E+00  0.10083961441E+04  0.10084070971E+04  0.47000000000E+01 0. -1.
         -5   -1    0    0    0  501 -0.00000000000E+00 -0.00000000000E+00 -0.11044594947E+03  0.11054590790E+03  0.47000000000E+01 0.  1.
          6    1    1    2  502    0  0.19574961802E+03 -0.20856741443E+03  0.45860866623E+03  0.56720735896E+03  0.17200000000E+03 0. -1.
         -6    1    1    2    0  502 -0.19574961802E+03  0.20856741443E+03  0.43934152840E+03  0.55174564602E+03  0.17200000000E+03 0.  1.
</event>
<event>
 4    1 -0.3305908E-004  0.3876600E+03  0.7818608E-02  0.1048138E+00
          5   -1    0    0  501    0  0.00000000000E+00  0.00000000000E+00  0.49157907325E+03  0.49160154115E+03  0.47000000000E+01 0. -1.
         -5   -1    0    0    0  501 -0.00000000000E+00 -0.00000000000E+00 -0.66258956675E+03  0.66260623598E+03  0.47000000000E+01 0.  1.
          6    1    1    2  502    0  0.25830560279E+03 -0.23232412741E+03  0.33804591839E+03  0.51434942164E+03  0.17200000000E+03 0. -1.
         -6    1    1    2    0  502 -0.25830560279E+03  0.23232412741E+03 -0.50905641188E+03  0.63985835549E+03  0.17200000000E+03 0.  1.
</event>
<event>
 4    1 -0.3305908E-004  0.2232219E+03  0.7818608E-02  0.1131504E+00
          5   -1    0    0  501    0  0.00000000000E+00  0.00000000000E+00  0.87549274041E+02  0.87675340804E+02  0.47000000000E+01 0. -1.
         -5   -1    0    0    0  501 -0.00000000000E+00 -0.00000000000E+00 -0.86649463856E+03  0.86650738522E+03  0.47000000000E+01 0.  1.
          6    1    1    2  502    0  0.32341786057E+02  0.13855691258E+03 -0.10975728374E+03  0.24874619692E+03  0.17200000000E+03 0. -1.
         -6    1    1    2    0  502 -0.32341786057E+02 -0.13855691258E+03 -0.66918808078E+03  0.70543652911E+03  0.17200000000E+03 0.  1.
</event>
<event>
 4    1 -0.3305908E-004  0.2237545E+03  0.7818608E-02  0.1131115E+00
         -5   -1    0    0    0  501 -0.00000000000E+00  0.00000000000E+00  0.14840720180E+03  0.14848160676E+03  0.47000000000E+01 0.  1.
          5   -1    0    0  501    0  0.00000000000E+00 -0.00000000000E+00 -0.35070258267E+03  0.35073407518E+03  0.47000000000E+01 0. -1.
          6    1    1    2  502    0 -0.90105896946E+02  0.11118899609E+03 -0.15015279300E+03  0.26946600298E+03  0.17200000000E+03 0.  1.
         -6    1    1    2    0  502  0.90105896946E+02 -0.11118899609E+03 -0.52142587868E+02  0.22974967897E+03  0.17200000000E+03 0. -1.
</event>
<event>
 4    1 -0.3305908E-004  0.8674720E+03  0.7818608E-02  0.9467182E-01
          5   -1    0    0  501    0  0.00000000000E+00  0.00000000000E+00  0.75030719917E+03  0.75032191966E+03  0.47000000000E+01 0. -1.
         -5   -1    0    0    0  501 -0.00000000000E+00 -0.00000000000E+00 -0.10141130433E+04  0.10141239345E+04  0.47000000000E+01 0.  1.
          6    1    1    2  502    0 -0.72298939251E+03 -0.44744841003E+03 -0.22465793276E+03  0.89609091507E+03  0.17200000000E+03 0. -1.
         -6    1    1    2    0  502  0.72298939251E+03  0.44744841003E+03 -0.39147911360E+02  0.86835493912E+03  0.17200000000E+03 0.  1.
</event>
<event>
 4    1 -0.3305908E-004  0.1784914E+03  0.7818608E-02  0.1169271E+00
         -5   -1    0    0    0  501 -0.00000000000E+00  0.00000000000E+00  0.23089879028E+03  0.23094662014E+03  0.47000000000E+01 0.  1.
          5   -1    0    0  501    0  0.00000000000E+00 -0.00000000000E+00 -0.22523414338E+03  0.22528317590E+03  0.47000000000E+01 0. -1.
          6    1    1    2  502    0  0.38179301187E+02 -0.28592467372E+02  0.14486156771E+03  0.22987836355E+03  0.17200000000E+03 0.  1.
         -6    1    1    2    0  502 -0.38179301187E+02  0.28592467372E+02 -0.13919692080E+03  0.22635143249E+03  0.17200000000E+03 0. -1.
</event>
<event>
 4    1 -0.3305908E-004  0.2290993E+03  0.7818608E-02  0.1127275E+00
         -5   -1    0    0    0  501 -0.00000000000E+00  0.00000000000E+00  0.26122551443E+03  0.26126779248E+03  0.47000000000E+01 0.  1.
          5   -1    0    0  501    0  0.00000000000E+00 -0.00000000000E+00 -0.33373573196E+03  0.33376882537E+03  0.47000000000E+01 0. -1.
          6    1    1    2  502    0 -0.42557076880E+02  0.14522875805E+03 -0.22397698363E+03  0.32039379856E+03  0.17200000000E+03 0. -1.
         -6    1    1    2    0  502  0.42557076880E+02 -0.14522875805E+03  0.15146676609E+03  0.27464281929E+03  0.17200000000E+03 0.  1.
</event>
<event>
 4    1 -0.3305908E-004  0.1901372E+03  0.7818608E-02  0.1158338E+00
         -5   -1    0    0    0  501 -0.00000000000E+00  0.00000000000E+00  0.50370330977E+02  0.50589131666E+02  0.47000000000E+01 0.  1.
          5   -1    0    0  501    0  0.00000000000E+00 -0.00000000000E+00 -0.96799982890E+03  0.96801123896E+03  0.47000000000E+01 0. -1.
          6    1    1    2  502    0 -0.97604203572E+01  0.80454333914E+02 -0.71866987242E+03  0.74339663113E+03  0.17200000000E+03 0. -1.
         -6    1    1    2    0  502  0.97604203572E+01 -0.80454333914E+02 -0.19895962550E+03  0.27520373949E+03  0.17200000000E+03 0.  1.
</event>
<event>
 4    1 -0.3305908E-004  0.1825891E+03  0.7818608E-02  0.1165321E+00
          5   -1    0    0  501    0  0.00000000000E+00  0.00000000000E+00  0.35705058963E+02  0.36013070343E+02  0.47000000000E+01 0. -1.
         -5   -1    0    0    0  501 -0.00000000000E+00 -0.00000000000E+00 -0.20181297691E+04  0.20181352420E+04  0.47000000000E+01 0.  1.
          6    1    1    2  502    0 -0.66002338096E+01 -0.60919644384E+02 -0.23689740552E+03  0.29909721981E+03  0.17200000000E+03 0. -1.
         -6    1    1    2    0  502  0.66002338096E+01  0.60919644384E+02 -0.17455273046E+04  0.17550510925E+04  0.17200000000E+03 0.  1.
</event>
<event>
 4    1 -0.3305908E-004  0.2053428E+03  0.7818608E-02  0.1145308E+00
          5   -1    0    0  501    0  0.00000000000E+00  0.00000000000E+00  0.48280193397E+02  0.48508422716E+02  0.47000000000E+01 0. -1.
         -5   -1    0    0    0  501 -0.00000000000E+00 -0.00000000000E+00 -0.89169582688E+03  0.89170821331E+03  0.47000000000E+01 0.  1.
          6    1    1    2  502    0 -0.88392310158E+02  0.69054148108E+02 -0.35020110609E+03  0.40596365671E+03  0.17200000000E+03 0.  1.
         -6    1    1    2    0  502  0.88392310158E+02 -0.69054148108E+02 -0.49321452740E+03  0.53425297931E+03  0.17200000000E+03 0.  1.
</event>
<event>
 4    1 -0.3305908E-004  0.3391422E+03  0.7818608E-02  0.1067162E+00
         -5   -1    0    0    0  501 -0.00000000000E+00  0.00000000000E+00  0.85962989786E+03  0.85964274631E+03  0.47000000000E+01 0.  1.
          5   -1    0    0  501    0  0.00000000000E+00 -0.00000000000E+00 -0.19986916135E+03  0.19992441486E+03  0.47000000000E+01 0. -1.
          6    1    1    2  502    0 -0.29022049054E+03 -0.34720286555E+02  0.25216251062E+02  0.34007835971E+03  0.17200000000E+03 0. -1.
         -6    1    1    2    0  502  0.29022049054E+03  0.34720286555E+02  0.63454448544E+03  0.71948880146E+03  0.17200000000E+03 0.  1.
</event>
<event>
 4    1 -0.3305908E-004  0.1766371E+03  0.7818608E-02  0.1171098E+00
          5   -1    0    0  501    0  0.00000000000E+00  0.00000000000E+00  0.10414912718E+03  0.10425512310E+03  0.47000000000E+01 0. -1.
         -5   -1    0    0    0  501 -0.00000000000E+00 -0.00000000000E+00 -0.33841760143E+03  0.33845023705E+03  0.47000000000E+01 0.  1.
          6    1    1    2  502    0 -0.77413865541E+01  0.39455522655E+02 -0.41893341340E+02  0.18153710194E+03  0.17200000000E+03 0. -1.
         -6    1    1    2    0  502  0.77413865541E+01 -0.39455522655E+02 -0.19237513291E+03  0.26116825821E+03  0.17200000000E+03 0.  1.
</event>
<event>
 4    1 -0.3305908E-004  0.1947370E+03  0.7818608E-02  0.1154257E+00
         -5   -1    0    0    0  501 -0.00000000000E+00  0.00000000000E+00  0.41738460082E+03  0.41741106239E+03  0.47000000000E+01 0.  1.
          5   -1    0    0  501    0  0.00000000000E+00 -0.00000000000E+00 -0.16593640174E+03  0.16600295004E+03  0.47000000000E+01 0. -1.
          6    1    1    2  502    0 -0.85770963307E+02 -0.31334549756E+02 -0.70538666341E+02  0.20711884416E+03  0.17200000000E+03 0. -1.
         -6    1    1    2    0  502  0.85770963307E+02  0.31334549756E+02  0.32198686543E+03  0.37629516827E+03  0.17200000000E+03 0.  1.
</event>
<event>
 4    1 -0.3305908E-004  0.1940923E+03  0.7818608E-02  0.1154821E+00
          5   -1    0    0  501    0  0.00000000000E+00  0.00000000000E+00  0.21140224671E+03  0.21145448663E+03  0.47000000000E+01 0. -1.
         -5   -1    0    0    0  501 -0.00000000000E+00 -0.00000000000E+00 -0.20304699215E+03  0.20310138114E+03  0.47000000000E+01 0.  1.
          6    1    1    2  502    0  0.85990481379E+02 -0.26333742531E+02  0.76820617347E+02  0.20874203250E+03  0.17200000000E+03 0. -1.
         -6    1    1    2    0  502 -0.85990481379E+02  0.26333742531E+02 -0.68465362784E+02  0.20581383526E+03  0.17200000000E+03 0. -1.
</event>
<event>
 4    1 -0.3305908E-004  0.1969876E+03  0.7818608E-02  0.1152306E+00
         -5   -1    0    0    0  501 -0.00000000000E+00  0.00000000000E+00  0.19108412073E+03  0.19114191375E+03  0.47000000000E+01 0.  1.
          5   -1    0    0  501    0  0.00000000000E+00 -0.00000000000E+00 -0.23236150099E+03  0.23240902982E+03  0.47000000000E+01 0. -1.
          6    1    1    2  502    0 -0.96015977964E+02  0.10270120735E+01  0.54678297159E+02  0.20443541513E+03  0.17200000000E+03 0. -1.
         -6    1    1    2    0  502  0.96015977964E+02 -0.10270120735E+01 -0.95955677425E+02  0.21911552845E+03  0.17200000000E+03 0. -1.
</event>
<event>
 4    1 -0.3305908E-004  0.2283447E+03  0.7818608E-02  0.1127810E+00
          5   -1    0    0  501    0  0.00000000000E+00  0.00000000000E+00  0.16556887484E+04  0.16556954193E+04  0.47000000000E+01 0. -1.
         -5   -1    0    0    0  501 -0.00000000000E+00 -0.00000000000E+00 -0.33330588939E+02  0.33660335099E+02  0.47000000000E+01 0.  1.
          6    1    1    2  502    0  0.89623801284E+02 -0.12051911085E+03  0.10180752833E+04  0.10433688534E+04  0.17200000000E+03 0. -1.
         -6    1    1    2    0  502 -0.89623801284E+02  0.12051911085E+03  0.60428287613E+03  0.64598690097E+03  0.17200000000E+03 0.  1.
</event>
<event>
 4    1 -0.3305908E-004  0.3534939E+03  0.7818608E-02  0.1061190E+00
         -5   -1    0    0    0  501 -0.00000000000E+00  0.00000000000E+00  0.13234199904E+03  0.13242543075E+03  0.47000000000E+01 0.  1.
          5   -1    0    0  501    0  0.00000000000E+00 -0.00000000000E+00 -0.22002531200E+04  0.22002581398E+04  0.47000000000E+01 0. -1.
          6    1    1    2  502    0  0.49642768376E+01 -0.30878684813E+03 -0.19153097537E+04  0.19476574170E+04  0.17200000000E+03 0. -1.
         -6    1    1    2    0  502 -0.49642768376E+01  0.30878684813E+03 -0.15260136725E+03  0.38502615354E+03  0.17200000000E+03 0.  1.
</event>
<event>
 4    1 -0.3305908E-004  0.3604009E+03  0.7818608E-02  0.1058425E+00
          5   -1    0    0  501    0  0.00000000000E+00  0.00000000000E+00  0.89463156423E+03  0.89464391001E+03  0.47000000000E+01 0. -1.
         -5   -1    0    0    0  501 -0.00000000000E+00 -0.00000000000E+00 -0.16530132570E+03  0.16536812957E+03  0.47000000000E+01 0.  1.
          6    1    1    2  502    0 -0.70426769603E+02  0.30877965084E+03  0.54973691496E+03  0.65734274038E+03  0.17200000000E+03 0. -1.
         -6    1    1    2    0  502  0.70426769603E+02 -0.30877965084E+03  0.17959332357E+03  0.40266929921E+03  0.17200000000E+03 0.  1.
</event>
<event>
 4    1 -0.3305908E-004  0.3244325E+03  0.7818608E-02  0.1073627E+00
          5   -1    0    0  501    0  0.00000000000E+00  0.00000000000E+00  0.14904062228E+04  0.14904136336E+04  0.47000000000E+01 0. -1.
         -5   -1    0    0    0  501 -0.00000000000E+00 -0.00000000000E+00 -0.75617417345E+02  0.75763340778E+02  0.47000000000E+01 0.  1.
          6    1    1    2  502    0  0.18686364157E+03 -0.20187732715E+03  0.91016251182E+03  0.96625683629E+03  0.17200000000E+03 0.  1.
         -6    1    1    2    0  502 -0.18686364157E+03  0.20187732715E+03  0.50462629367E+03  0.59992013804E+03  0.17200000000E+03 0.  1.
</event>
<event>
 4    1 -0.3305908E-004  0.4219138E+03  0.7818608E-02  0.1036445E+00
         -5   -1    0    0    0  501 -0.00000000000E+00  0.00000000000E+00  0.73673131434E+03  0.73674630608E+03  0.47000000000E+01 0.  1.
          5   -1    0    0  501    0  0.00000000000E+00 -0.00000000000E+00 -0.25463806638E+03  0.25468143797E+03  0.47000000000E+01 0. -1.
          6    1    1    2  502    0 -0.35235646611E+03  0.15579534511E+03  0.12881572576E+03  0.44114029511E+03  0.17200000000E+03 0. -1.
         -6    1    1    2    0  502  0.35235646611E+03 -0.15579534511E+03  0.35327752220E+03  0.55028744894E+03  0.17200000000E+03 0.  1.
</event>
<event>
 4    1 -0.3305908E-004  0.1762688E+03  0.7818608E-02  0.1171464E+00
         -5   -1    0    0    0  501 -0.00000000000E+00  0.00000000000E+00  0.86818999845E+03  0.86820272022E+03  0.47000000000E+01 0.  1.
          5   -1    0    0  501    0  0.00000000000E+00 -0.00000000000E+00 -0.38928621347E+02  0.39211319284E+02  0.47000000000E+01 0. -1.
          6    1    1    2  502    0 -0.29202943340E+01  0.38446775238E+02  0.54637009156E+03  0.57410013029E+03  0.17200000000E+03 0.  1.
         -6    1    1    2    0  502  0.29202943340E+01 -0.38446775238E+02  0.28289128554E+03  0.33331390922E+03  0.17200000000E+03 0. -1.
</event>
<event>
 4    1 -0.3305908E-004  0.2300453E+03  0.7818608E-02  0.1126608E+00
         -5   -1    0    0    0  501 -0.00000000000E+00  0.00000000000E+00  0.11318895517E+03  0.11328649334E+03  0.47000000000E+01 0.  1.
          5   -1    0    0  501    0  0.00000000000E+00 -0.00000000000E+00 -0.49476441463E+03  0.49478673788E+03  0.47000000000E+01 0. -1.
          6    1    1    2  502    0  0.14301488503E+03  0.53698810579E+02 -0.26249871049E+03  0.34903637719E+03  0.17200000000E+03 0. -1.
         -6    1    1    2    0  502 -0.14301488503E+03 -0.53698810579E+02 -0.11907674897E+03  0.25903685403E+03  0.17200000000E+03 0.  1.
</event>
<event>
 4    1 -0.3305908E-004  0.2605002E+03  0.7818608E-02  0.1106843E+00
         -5   -1    0    0    0  501 -0.00000000000E+00  0.00000000000E+00  0.32727755478E+03  0.32731130116E+03  0.47000000000E+01 0.  1.
          5   -1    0    0  501    0  0.00000000000E+00 -0.00000000000E+00 -0.42029466942E+03  0.42032094778E+03  0.47000000000E+01 0. -1.
          6    1    1    2  502    0  0.14568427330E+03 -0.13058495580E+03 -0.31261232416E+03  0.40692358421E+03  0.17200000000E+03 0.  1.
         -6    1    1    2    0  502 -0.14568427330E+03  0.13058495580E+03  0.21959520953E+03  0.34070866472E+03  0.17200000000E+03 0.  1.
</event>
<event>
 4    1 -0.3305908E-004  0.4099805E+03  0.7818608E-02  0.1040378E+00
         -5   -1    0    0    0  501 -0.00000000000E+00  0.00000000000E+00  0.91094994280E+03  0.91096206743E+03  0.47000000000E+01 0.  1.
          5   -1    0    0  501    0  0.00000000000E+00 -0.00000000000E+00 -0.18911943956E+03  0.18917783279E+03  0.47000000000E+01 0. -1.
          6    1    1    2  502    0 -0.36715354585E+03 -0.60813237865E+02  0.44713083670E+03  0.60663824579E+03  0.17200000000E+03 0.  1.
         -6    1    1    2    0  502  0.36715354585E+03  0.60813237865E+02  0.27469966655E+03  0.49350165443E+03  0.17200000000E+03 0.  1.
</event>
<event>
 4    1 -0.3305908E-004  0.4006022E+03  0.7818608E-02  0.1043571E+00
          5   -1    0    0  501    0  0.00000000000E+00  0.00000000000E+00  0.38476806887E+03  0.38479677341E+03  0.47000000000E+01 0. -1.
         -5   -1    0    0    0  501 -0.00000000000E+00 -0.00000000000E+00 -0.44567880175E+03  0.44570358348E+03  0.47000000000E+01 0.  1.
          6    1    1    2  502    0 -0.20667357787E+03 -0.29695811762E+03  0.74819059216E+02  0.40752911924E+03  0.17200000000E+03 0. -1.
         -6    1    1    2    0  502  0.20667357787E+03  0.29695811762E+03 -0.13572979209E+03  0.42297123764E+03  0.17200000000E+03 0.  1.
</event>
<event>
 4    1 -0.3305908E-004  0.2245620E+03  0.7818608E-02  0.1130527E+00
         -5   -1    0    0    0  501 -0.00000000000E+00  0.00000000000E+00  0.44603757463E+03  0.44606233643E+03  0.47000000000E+01 0.  1.
          5   -1    0    0  501    0  0.00000000000E+00 -0.00000000000E+00 -0.12473966480E+03  0.12482817781E+03  0.47000000000E+01 0. -1.
          6    1    1    2  502    0  0.91036509798E+02  0.11205546506E+03  0.73051444699E+02  0.23614526660E+03  0.17200000000E+03 0. -1.
         -6    1    1    2    0  502 -0.91036509798E+02 -0.11205546506E+03  0.24824646513E+03  0.33474524764E+03  0.17200000000E+03 0.  1.
</event>
<event>
 4    1 -0.3305908E-004  0.1963474E+03  0.7818608E-02  0.1152858E+00
         -5   -1    0    0    0  501 -0.00000000000E+00  0.00000000000E+00  0.86482207764E+02  0.86609827731E+02  0.47000000000E+01 0.  1.
          5   -1    0    0  501    0  0.00000000000E+00 -0.00000000000E+00 -0.45287213157E+03  0.45289651970E+03  0.47000000000E+01 0. -1.
          6    1    1    2  502    0 -0.89182021093E+02  0.31856965282E+02 -0.14835287717E+03  0.24609119303E+03  0.17200000000E+03 0.  1.
         -6    1    1    2    0  502  0.89182021093E+02 -0.31856965282E+02 -0.21803704664E+03  0.29341515440E+03  0.17200000000E+03 0. -1.
</event>
<event>
 4    1 -0.3305908E-004  0.4185305E+03  0.7818608E-02  0.1037546E+00
         -5   -1    0    0    0  501 -0.00000000000E+00  0.00000000000E+00  0.39092721803E+03  0.39095547035E+03  0.47000000000E+01 0.  1.
          5   -1    0    0  501    0  0.00000000000E+00 -0.00000000000E+00 -0.73664377797E+03  0.73665877149E+03  0.47000000000E+01 0. -1.
          6    1    1    2  502    0 -0.17457824735E+03  0.33927311491E+03 -0.52575615725E+03  0.67200249095E+03  0.17200000000E+03 0. -1.
         -6    1    1    2    0  502  0.17457824735E+03 -0.33927311491E+03  0.18003959731E+03  0.45561175089E+03  0.17200000000E+03 0.  1.
</event>
<event>
 4    1 -0.3305908E-004  0.2019394E+03  0.7818608E-02  0.1148113E+00
         -5   -1    0    0    0  501 -0.00000000000E+00  0.00000000000E+00  0.49204943968E+02  0.49428903598E+02  0.47000000000E+01 0.  1.
          5   -1    0    0  501    0  0.00000000000E+00 -0.00000000000E+00 -0.85116734490E+03  0.85118032110E+03  0.47000000000E+01 0. -1.
          6    1    1    2  502    0 -0.53510179820E+02 -0.91280799802E+02 -0.47738568184E+03  0.51834024827E+03  0.17200000000E+03 0.  1.
         -6    1    1    2    0  502  0.53510179820E+02  0.91280799802E+02 -0.32457671909E+03  0.38226897642E+03  0.17200000000E+03 0. -1.
</event>
<event>
 4    1 -0.3305908E-004  0.1729659E+03  0.7818608E-02  0.1174790E+00
         -5   -1    0    0    0  501 -0.00000000000E+00  0.00000000000E+00  0.23176927965E+03  0.23181692990E+03  0.47000000000E+01 0.  1.
          5   -1    0    0  501    0  0.00000000000E+00 -0.00000000000E+00 -0.12929671112E+03  0.12938210659E+03  0.47000000000E+01 0. -1.
          6    1    1    2  502    0  0.17971147434E+02  0.31995385889E+01  0.60196888007E+02  0.18314165150E+03  0.17200000000E+03 0.  1.
         -6    1    1    2    0  502 -0.17971147434E+02 -0.31995385889E+01  0.42275680528E+02  0.17805738500E+03  0.17200000000E+03 0. -1.
</event>
<event>
 4    1 -0.3305908E-004  0.4001018E+03  0.7818608E-02  0.1043744E+00
          5   -1    0    0  501    0  0.00000000000E+00  0.00000000000E+00  0.18433774368E+04  0.18433834285E+04  0.47000000000E+01 0. -1.
         -5   -1    0    0    0  501 -0.00000000000E+00 -0.00000000000E+00 -0.16028131440E+03  0.16035020968E+03  0.47000000000E+01 0.  1.
          6    1    1    2  502    0  0.27927820113E+03 -0.22913135227E+03  0.15198136463E+04  0.15715963253E+04  0.17200000000E+03 0. -1.
         -6    1    1    2    0  502 -0.27927820113E+03  0.22913135227E+03  0.16328247614E+03  0.43213731294E+03  0.17200000000E+03 0.  1.
</event>
<event>
 4    1 -0.3305908E-004  0.2195240E+03  0.7818608E-02  0.1134238E+00
          5   -1    0    0  501    0  0.00000000000E+00  0.00000000000E+00  0.10017399633E+03  0.10028419388E+03  0.47000000000E+01 0. -1.
         -5   -1    0    0    0  501 -0.00000000000E+00 -0.00000000000E+00 -0.55127628913E+03  0.55129632409E+03  0.47000000000E+01 0.  1.
          6    1    1    2  502    0 -0.26324281606E+02 -0.13384259258E+03 -0.10898364295E+03  0.24508823272E+03  0.17200000000E+03 0. -1.
         -6    1    1    2    0  502  0.26324281606E+02  0.13384259258E+03 -0.34211864984E+03  0.40649228524E+03  0.17200000000E+03 0.  1.
</event>
<event>
 4    1 -0.3305908E-004  0.1956732E+03  0.7818608E-02  0.1153442E+00
         -5   -1    0    0    0  501 -0.00000000000E+00  0.00000000000E+00  0.13544679095E+04  0.13544760639E+04  0.47000000000E+01 0.  1.
          5   -1    0    0  501    0  0.00000000000E+00 -0.00000000000E+00 -0.37694662298E+02  0.37986544536E+02  0.47000000000E+01 0. -1.
          6    1    1    2  502    0 -0.91460411298E+02 -0.18411671227E+02  0.30809374146E+03  0.36497910899E+03  0.17200000000E+03 0. -1.
         -6    1    1    2    0  502  0.91460411298E+02  0.18411671227E+02  0.10086795057E+04  0.10274834995E+04  0.17200000000E+03 0.  1.
</event>
<event>
 4    1 -0.3305908E-004  0.1871762E+03  0.7818608E-02  0.1161033E+00
          5   -1    0    0  501    0  0.00000000000E+00  0.00000000000E+00  0.61957346629E+03  0.61959129282E+03  0.47000000000E+01 0. -1.
         -5   -1    0    0    0  501 -0.00000000000E+00 -0.00000000000E+00 -0.63098236721E+02  0.63273039102E+02  0.47000000000E+01 0.  1.
          6    1    1    2  502    0 -0.32041662485E+02  0.66515138577E+02  0.38904968204E+03  0.43173439392E+03  0.17200000000E+03 0. -1.
         -6    1    1    2    0  502  0.32041662485E+02 -0.66515138577E+02  0.16742554753E+03  0.25112993800E+03  0.17200000000E+03 0.  1.
</event>
<event>
 4    1 -0.3305908E-004  0.2705231E+03  0.7818608E-02  0.1100981E+00
         -5   -1    0    0    0  501 -0.00000000000E+00  0.00000000000E+00  0.82451748840E+02  0.82585597332E+02  0.47000000000E+01 0.  1.
          5   -1    0    0  501    0  0.00000000000E+00 -0.00000000000E+00 -0.90351518282E+03  0.90352740721E+03  0.47000000000E+01 0. -1.
          6    1    1    2  502    0 -0.10954899464E+03 -0.17775762839E+03 -0.47774400228E+03  0.54901920585E+03  0.17200000000E+03 0. -1.
         -6    1    1    2    0  502  0.10954899464E+03  0.17775762839E+03 -0.34331943170E+03  0.43709379870E+03  0.17200000000E+03 0.  1.
</event>
<event>
 4    1 -0.3305908E-004  0.1782272E+03  0.7818608E-02  0.1169530E+00
         -5   -1    0    0    0  501 -0.00000000000E+00  0.00000000000E+00  0.37020354962E+03  0.37023338336E+03  0.47000000000E+01 0.  1.
          5   -1    0    0  501    0  0.00000000000E+00 -0.00000000000E+00 -0.90518254682E+02  0.90640192137E+02  0.47000000000E+01 0. -1.
          6    1    1    2  502    0 -0.45989174278E+02 -0.81193087711E+01  0.86757409052E+02  0.19822153100E+03  0.17200000000E+03 0. -1.
         -6    1    1    2    0  502  0.45989174278E+02  0.81193087711E+01  0.19292788589E+03  0.26265204450E+03  0.17200000000E+03 0.  1.
</event>
<event>
 4    1 -0.3305908E-004  0.2461005E+03  0.7818608E-02  0.1115794E+00
         -5   -1    0    0    0  501 -0.00000000000E+00  0.00000000000E+00  0.97801729019E+03  0.97802858338E+03  0.47000000000E+01 0.  1.
          5   -1    0    0  501    0  0.00000000000E+00 -0.00000000000E+00 -0.12683049791E+03  0.12691755277E+03  0.47000000000E+01 0. -1.
          6    1    1    2  502    0 -0.16642831435E+03  0.57298116594E+02  0.82089152198E+03  0.85698795140E+03  0.17200000000E+03 0.  1.
         -6    1    1    2    0  502  0.16642831435E+03 -0.57298116594E+02  0.30295270296E+02  0.24795818475E+03  0.17200000000E+03 0. -1.
</event>
<event>
 4    1 -0.3305908E-004  0.1868732E+03  0.7818608E-02  0.1161312E+00
          5   -1    0    0  501    0  0.00000000000E+00  0.00000000000E+00  0.16626884734E+03  0.16633526263E+03  0.47000000000E+01 0. -1.
         -5   -1    0    0    0  501 -0.00000000000E+00 -0.00000000000E+00 -0.60735631725E+03  0.60737450235E+03  0.47000000000E+01 0.  1.
          6    1    1    2  502    0  0.17001511892E+01  0.73039007140E+02 -0.53346616352E+03  0.56525015232E+03  0.17200000000E+03 0. -1.
         -6    1    1    2    0  502 -0.17001511892E+01 -0.73039007140E+02  0.92378693604E+02  0.20845961266E+03  0.17200000000E+03 0. -1.
</event>
<event>
 4    1 -0.3305908E-004  0.1891853E+03  0.7818608E-02  0.1159198E+00
         -5   -1    0    0    0  501 -0.00000000000E+00  0.00000000000E+00  0.23414374804E+03  0.23419091517E+03  0.47000000000E+01 0.  1.
          5   -1    0    0  501    0  0.00000000000E+00 -0.00000000000E+00 -0.15347093816E+03  0.15354288931E+03  0.47000000000E+01 0. -1.
          6    1    1    2  502    0  0.77051707515E+02  0.16434737314E+02  0.27152773252E+02  0.19112388474E+03  0.17200000000E+03 0. -1.
         -6    1    1    2    0  502 -0.77051707515E+02 -0.16434737314E+02  0.53520036636E+02  0.19660991975E+03  0.17200000000E+03 0.  1.
</event>
<event>
 4    1 -0.3305908E-004  0.2953603E+03  0.7818608E-02  0.1087583E+00
         -5   -1    0    0    0  501 -0.00000000000E+00  0.00000000000E+00  0.12985710173E+04  0.12985795227E+04  0.47000000000E+01 0.  1.
          5   -1    0    0  501    0  0.00000000000E+00 -0.00000000000E+00 -0.84562661042E+02  0.84693173530E+02  0.47000000000E+01 0. -1.
          6    1    1    2  502    0 -0.14068204810E+03 -0.19458232752E+03  0.92111449937E+03  0.96731051984E+03  0.17200000000E+03 0.  1.
         -6    1    1    2    0  502  0.14068204810E+03  0.19458232752E+03  0.29289385685E+03  0.41596217643E+03  0.17200000000E+03 0. -1.
</event>
<event>
 4    1 -0.3305908E-004  0.3270871E+03  0.7818608E-02  0.1072433E+00
         -5   -1    0    0    0  501 -0.00000000000E+00  0.00000000000E+00  0.86610828632E+02  0.86738259357E+02  0.47000000000E+01 0.  1.
          5   -1    0    0  501    0  0.00000000000E+00 -0.00000000000E+00 -0.14173925510E+04  0.14174003434E+04  0.47000000000E+01 0. -1.
          6    1    1    2  502    0  0.27801562082E+03  0.10455466202E+02 -0.93574579927E+03  0.99126495098E+03  0.17200000000E+03 0. -1.
         -6    1    1    2    0  502 -0.27801562082E+03 -0.10455466202E+02 -0.39503592306E+03  0.51287365179E+03  0.17200000000E+03 0.  1.
</event>
<event>
 4    1 -0.3305908E-004  0.2058905E+03  0.7818608E-02  0.1144862E+00
          5   -1    0    0  501    0  0.00000000000E+00  0.00000000000E+00  0.99016512646E+03  0.99017628111E+03  0.47000000000E+01 0. -1.
         -5   -1    0    0    0  501 -0.00000000000E+00 -0.00000000000E+00 -0.43089876493E+02  0.43345443316E+02  0.47000000000E+01 0.  1.
          6    1    1    2  502    0  0.33144614538E+02 -0.10820503658E+03  0.52429845700E+03  0.56327592477E+03  0.17200000000E+03 0. -1.
         -6    1    1    2    0  502 -0.33144614538E+02  0.10820503658E+03  0.42277679298E+03  0.47024579965E+03  0.17200000000E+03 0. -1.
</event>
<event>
 4    1 -0.3305908E-004  0.1739413E+03  0.7818608E-02  0.1173799E+00
          5   -1    0    0  501    0  0.00000000000E+00  0.00000000000E+00  0.15584534414E+03  0.15591619958E+03  0.47000000000E+01 0. -1.
         -5   -1    0    0    0  501 -0.00000000000E+00 -0.00000000000E+00 -0.21042663245E+03  0.21047911451E+03  0.47000000000E+01 0.  1.
          6    1    1    2  502    0 -0.15666618119E+02  0.20642602711E+02 -0.78468429170E+02  0.19082152485E+03  0.17200000000E+03 0.  1.
         -6    1    1    2    0  502  0.15666618119E+02 -0.20642602711E+02  0.23887140859E+02  0.17557378924E+03  0.17200000000E+03 0. -1.
</event>
<event>
 4    1 -0.3305908E-004  0.4081479E+03  0.7818608E-02  0.1040994E+00
          5   -1    0    0  501    0  0.00000000000E+00  0.00000000000E+00  0.13284470209E+03  0.13292781829E+03  0.47000000000E+01 0. -1.
         -5   -1    0    0    0  501 -0.00000000000E+00 -0.00000000000E+00 -0.12751604108E+04  0.12751690724E+04  0.47000000000E+01 0.  1.
          6    1    1    2  502    0  0.32134707779E+03 -0.18367578304E+03 -0.47940401121E+03  0.62961332868E+03  0.17200000000E+03 0. -1.
         -6    1    1    2    0  502 -0.32134707779E+03  0.18367578304E+03 -0.66291169748E+03  0.77848356202E+03  0.17200000000E+03 0.  1.
</event>
<event>
 4    1 -0.3305908E-004  0.5667048E+03  0.7818608E-02  0.9976997E-01
         -5   -1    0    0    0  501 -0.00000000000E+00  0.00000000000E+00  0.21187357849E+03  0.21192570222E+03  0.47000000000E+01 0.  1.
          5   -1    0    0  501    0  0.00000000000E+00 -0.00000000000E+00 -0.17041300666E+04  0.17041365479E+04  0.47000000000E+01 0. -1.
          6    1    1    2  502    0  0.22016795393E+03  0.49304804802E+03 -0.10648264023E+04  0.12062377762E+04  0.17200000000E+03 0. -1.
         -6    1    1    2    0  502 -0.22016795393E+03 -0.49304804802E+03 -0.42743008581E+03  0.70982447397E+03  0.17200000000E+03 0.  1.
</event>
<event>
 4    1 -0.3305908E-004  0.1790880E+03  0.7818608E-02  0.1168689E+00
          5   -1    0    0  501    0  0.00000000000E+00  0.00000000000E+00  0.10457846194E+03  0.10468402314E+03  0.47000000000E+01 0. -1.
         -5   -1    0    0    0  501 -0.00000000000E+00 -0.00000000000E+00 -0.45583406567E+03  0.45585829533E+03  0.47000000000E+01 0.  1.
          6    1    1    2  502    0 -0.12411029517E+02  0.48316541498E+02 -0.15182441021E+02  0.17973043246E+03  0.17200000000E+03 0. -1.
         -6    1    1    2    0  502  0.12411029517E+02 -0.48316541498E+02 -0.33607316271E+03  0.38081188601E+03  0.17200000000E+03 0.  1.
</event>
<event>
 4    1 -0.3305908E-004  0.2287400E+03  0.7818608E-02  0.1127530E+00
          5   -1    0    0  501    0  0.00000000000E+00  0.00000000000E+00  0.26605273890E+03  0.26609424999E+03  0.47000000000E+01 0. -1.
         -5   -1    0    0    0  501 -0.00000000000E+00 -0.00000000000E+00 -0.22000399703E+03  0.22005419494E+03  0.47000000000E+01 0.  1.
          6    1    1    2  502    0  0.12356025025E+03 -0.86434206745E+02  0.10232996866E+03  0.25058617285E+03  0.17200000000E+03 0. -1.
         -6    1    1    2    0  502 -0.12356025025E+03  0.86434206745E+02 -0.56281226792E+02  0.23556227208E+03  0.17200000000E+03 0.  1.
</event>
<event>
 4    1 -0.3305908E-004  0.2772288E+03  0.7818608E-02  0.1097212E+00
         -5   -1    0    0    0  501 -0.00000000000E+00  0.00000000000E+00  0.11916302612E+04  0.11916395300E+04  0.47000000000E+01 0.  1.
          5   -1    0    0  501    0  0.00000000000E+00 -0.00000000000E+00 -0.64466884895E+02  0.64637986107E+02  0.47000000000E+01 0. -1.
          6    1    1    2  502    0  0.19357939032E+03  0.98989129879E+02  0.58360179480E+03  0.64610129476E+03  0.17200000000E+03 0. -1.
         -6    1    1    2    0  502 -0.19357939032E+03 -0.98989129879E+02  0.54356158154E+03  0.61017622136E+03  0.17200000000E+03 0.  1.
</event>
<event>
 4    1 -0.3305908E-004  0.4432389E+03  0.7818608E-02  0.1029758E+00
          5   -1    0    0  501    0  0.00000000000E+00  0.00000000000E+00  0.67909694558E+03  0.67911320963E+03  0.47000000000E+01 0. -1.
         -5   -1    0    0    0  501 -0.00000000000E+00 -0.00000000000E+00 -0.51648260834E+03  0.51650399294E+03  0.47000000000E+01 0.  1.
          6    1    1    2  502    0 -0.40388201422E+03  0.61286846988E+02  0.47780643466E+03  0.65173594962E+03  0.17200000000E+03 0. -1.
         -6    1    1    2    0  502  0.40388201422E+03 -0.61286846988E+02 -0.31519209743E+03  0.54388125295E+03  0.17200000000E+03 0.  1.
</event>
<event>
 4    1 -0.3305908E-004  0.1982178E+03  0.7818608E-02  0.1151251E+00
         -5   -1    0    0    0  501 -0.00000000000E+00  0.00000000000E+00  0.78007840302E+02  0.78149300372E+02  0.47000000000E+01 0.  1.
          5   -1    0    0  501    0  0.00000000000E+00 -0.00000000000E+00 -0.50324300514E+03  0.50326495231E+03  0.47000000000E+01 0. -1.
          6    1    1    2  502    0 -0.50883907282E+02 -0.84363024266E+02 -0.21812467903E+03  0.29473491053E+03  0.17200000000E+03 0.  1.
         -6    1    1    2    0  502  0.50883907282E+02  0.84363024266E+02 -0.20711048581E+03  0.28667934215E+03  0.17200000000E+03 0. -1.
</event>
<event>
 4    1 -0.3305908E-004  0.2266315E+03  0.7818608E-02  0.1129033E+00
         -5   -1    0    0    0  501 -0.00000000000E+00  0.00000000000E+00  0.11132954708E+04  0.11133053918E+04  0.47000000000E+01 0.  1.
          5   -1    0    0  501    0  0.00000000000E+00 -0.00000000000E+00 -0.46213341735E+02  0.46451727141E+02  0.47000000000E+01 0. -1.
          6    1    1    2  502    0  0.84611276647E+02 -0.12090800905E+03  0.57236440442E+03  0.61559956647E+03  0.17200000000E+03 0.  1.
         -6    1    1    2    0  502 -0.84611276647E+02  0.12090800905E+03  0.49471772468E+03  0.54415755246E+03  0.17200000000E+03 0. -1.
</event>
<event>
 4    1 -0.3305908E-004  0.2035307E+03  0.7818608E-02  0.1146794E+00
          5   -1    0    0  501    0  0.00000000000E+00  0.00000000000E+00  0.19606032497E+03  0.19611665158E+03  0.47000000000E+01 0. -1.
         -5   -1    0    0    0  501 -0.00000000000E+00 -0.00000000000E+00 -0.21517516680E+03  0.21522649095E+03  0.47000000000E+01 0.  1.
          6    1    1    2  502    0  0.63175215132E+02 -0.88598120322E+02 -0.37600501762E+02  0.20697471455E+03  0.17200000000E+03 0.  1.
         -6    1    1    2    0  502 -0.63175215132E+02  0.88598120322E+02  0.18485659930E+02  0.20436842798E+03  0.17200000000E+03 0.  1.
</event>
<event>
 4    1 -0.3305908E-004  0.2921848E+03  0.7818608E-02  0.1089214E+00
         -5   -1    0    0    0  501 -0.00000000000E+00  0.00000000000E+00  0.15524380952E+04  0.15524452098E+04  0.47000000000E+01 0.  1.
          5   -1    0    0  501    0  0.00000000000E+00 -0.00000000000E+00 -0.10451084595E+03  0.10461647538E+03  0.47000000000E+01 0. -1.
          6    1    1    2  502    0  0.23611936627E+03  0.59680792222E+01  0.15346956527E+03  0.33003769567E+03  0.17200000000E+03 0. -1.
         -6    1    1    2    0  502 -0.23611936627E+03 -0.59680792222E+01  0.12944576839E+04  0.13270239895E+04  0.17200000000E+03 0.  1.
</event>
<event>
 4    1 -0.3305908E-004  0.2413769E+03  0.7818608E-02  0.1118879E+00
         -5   -1    0    0    0  501 -0.00000000000E+00  0.00000000000E+00  0.10429490492E+03  0.10440075284E+03  0.47000000000E+01 0.  1.
          5   -1    0    0  501    0  0.00000000000E+00 -0.00000000000E+00 -0.15978635739E+04  0.15978704862E+04  0.47000000000E+01 0. -1.
          6    1    1    2  502    0  0.30190237016E+02 -0.16663540498E+03 -0.14333017851E+04  0.14534843707E+04  0.17200000000E+03 0. -1.
         -6    1    1    2    0  502 -0.30190237016E+02  0.16663540498E+03 -0.60266883879E+02  0.24878686841E+03  0.17200000000E+03 0.  1.
</event>
<event>
 4    1 -0.3305908E-004  0.1735148E+03  0.7818608E-02  0.1174231E+00
         -5   -1    0    0    0  501 -0.00000000000E+00  0.00000000000E+00  0.28321154158E+02  0.28708496527E+02  0.47000000000E+01 0.  1.
          5   -1    0    0  501    0  0.00000000000E+00 -0.00000000000E+00 -0.11511780766E+04  0.11511876711E+04  0.47000000000E+01 0. -1.
          6    1    1    2  502    0  0.15223917866E+02  0.17076463352E+02 -0.73151537020E+03  0.75181254986E+03  0.17200000000E+03 0. -1.
         -6    1    1    2    0  502 -0.15223917866E+02 -0.17076463352E+02 -0.39134155221E+03  0.42808361772E+03  0.17200000000E+03 0.  1.
</event>
<event>
 4    1 -0.3305908E-004  0.2043966E+03  0.7818608E-02  0.1146082E+00
         -5   -1    0    0    0  501 -0.00000000000E+00  0.00000000000E+00  0.96493967475E+02  0.96608362780E+02  0.47000000000E+01 0.  1.
          5   -1    0    0  501    0  0.00000000000E+00 -0.00000000000E+00 -0.46389308131E+03  0.46391689006E+03  0.47000000000E+01 0. -1.
          6    1    1    2  502    0  0.46703260649E+02 -0.10006378258E+03 -0.25650848824E+03  0.32798560895E+03  0.17200000000E+03 0. -1.
         -6    1    1    2    0  502 -0.46703260649E+02  0.10006378258E+03 -0.11089062560E+03  0.23253964390E+03  0.17200000000E+03 0.  1.
</event>
<event>
 4    1 -0.3305908E-004  0.2462004E+03  0.7818608E-02  0.1115730E+00
         -5   -1    0    0    0  501 -0.00000000000E+00  0.00000000000E+00  0.15508498208E+04  0.15508569427E+04  0.47000000000E+01 0.  1.
          5   -1    0    0  501    0  0.00000000000E+00 -0.00000000000E+00 -0.39408134446E+02  0.39687416904E+02  0.47000000000E+01 0. -1.
          6    1    1    2  502    0 -0.17546466250E+03 -0.15582052506E+02  0.66901401155E+03  0.71287754614E+03  0.17200000000E+03 0. -1.
         -6    1    1    2    0  502  0.17546466250E+03  0.15582052506E+02  0.84242767480E+03  0.87766681344E+03  0.17200000000E+03 0.  1.
</event>
<event>
 4    1 -0.3305908E-004  0.1729867E+03  0.7818608E-02  0.1174768E+00
         -5   -1    0    0    0  501 -0.00000000000E+00  0.00000000000E+00  0.90030782710E+02  0.90153379500E+02  0.47000000000E+01 0.  1.
          5   -1    0    0  501    0  0.00000000000E+00 -0.00000000000E+00 -0.61486960472E+03  0.61488756762E+03  0.47000000000E+01 0. -1.
          6    1    1    2  502    0 -0.68378635100E+01  0.17136176504E+02 -0.50148806870E+03  0.53048533248E+03  0.17200000000E+03 0. -1.
         -6    1    1    2    0  502  0.68378635100E+01 -0.17136176504E+02 -0.23350753310E+02  0.17455561464E+03  0.17200000000E+03 0.  1.
</event>
<event>
 4    1 -0.3305908E-004  0.2531305E+03  0.7818608E-02  0.1111342E+00
          5   -1    0    0  501    0  0.00000000000E+00  0.00000000000E+00  0.64795188980E+03  0.64796893560E+03  0.47000000000E+01 0. -1.
         -5   -1    0    0    0  501 -0.00000000000E+00 -0.00000000000E+00 -0.10202017747E+03  0.10212838298E+03  0.47000000000E+01 0.  1.
          6    1    1    2  502    0  0.76212676060E+02  0.16935964000E+03  0.33940757321E+03  0.42340590502E+03  0.17200000000E+03 0.  1.
         -6    1    1    2    0  502 -0.76212676060E+02 -0.16935964000E+03  0.20652413913E+03  0.32669141356E+03  0.17200000000E+03 0.  1.
</event>
<event>
 4    1 -0.3305908E-004  0.2018317E+03  0.7818608E-02  0.1148203E+00
         -5   -1    0    0    0  501 -0.00000000000E+00  0.00000000000E+00  0.17254711658E+03  0.17261111621E+03  0.47000000000E+01 0.  1.
          5   -1    0    0  501    0  0.00000000000E+00 -0.00000000000E+00 -0.48550120591E+03  0.48552395506E+03  0.47000000000E+01 0. -1.
          6    1    1    2  502    0 -0.27915457186E+02 -0.10184681155E+03 -0.39237322425E+03  0.44124006265E+03  0.17200000000E+03 0. -1.
         -6    1    1    2    0  502  0.27915457186E+02  0.10184681155E+03  0.79419134927E+02  0.21689500862E+03  0.17200000000E+03 0.  1.
</event>
<event>
 4    1 -0.3305908E-004  0.3344664E+03  0.7818608E-02  0.1069178E+00
         -5   -1    0    0    0  501 -0.00000000000E+00  0.00000000000E+00  0.21164793130E+03  0.21170011059E+03  0.47000000000E+01 0.  1.
          5   -1    0    0  501    0  0.00000000000E+00 -0.00000000000E+00 -0.63818548407E+03  0.63820279071E+03  0.47000000000E+01 0. -1.
          6    1    1    2  502    0 -0.26556572442E+03 -0.10843726927E+03 -0.38948996511E+03  0.51339091176E+03  0.17200000000E+03 0. -1.
         -6    1    1    2    0  502  0.26556572442E+03  0.10843726927E+03 -0.37047587664E+02  0.33651198955E+03  0.17200000000E+03 0.  1.
</event>
<event>
 4    1 -0.3305908E-004  0.2297405E+03  0.7818608E-02  0.1126823E+00
         -5   -1    0    0    0  501 -0.00000000000E+00  0.00000000000E+00  0.14550768882E+04  0.14550844788E+04  0.47000000000E+01 0.  1.
          5   -1    0    0  501    0  0.00000000000E+00 -0.00000000000E+00 -0.36774716559E+02  0.37073842234E+02  0.47000000000E+01 0. -1.
          6    1    1    2  502    0 -0.27831877933E+01  0.15227915634E+03  0.80877430519E+03  0.84077141027E+03  0.17200000000E+03 0.  1.
         -6    1    1    2    0  502  0.27831877933E+01 -0.15227915634E+03  0.60952786642E+03  0.65138691078E+03  0.17200000000E+03 0. -1.
</event>
<event>
 4    1 -0.3305908E-004  0.2301098E+03  0.7818608E-02  0.1126563E+00
          5   -1    0    0  501    0  0.00000000000E+00  0.00000000000E+00  0.53970993705E+02  0.54175254143E+02  0.47000000000E+01 0. -1.
         -5   -1    0    0    0  501 -0.00000000000E+00 -0.00000000000E+00 -0.12213032066E+04  0.12213122502E+04  0.47000000000E+01 0.  1.
          6    1    1    2  502    0  0.32421191742E+02  0.14938333386E+03 -0.29964552506E+03  0.37780676912E+03  0.17200000000E+03 0. -1.
         -6    1    1    2    0  502 -0.32421191742E+02 -0.14938333386E+03 -0.86768668786E+03  0.89768073523E+03  0.17200000000E+03 0.  1.
</event>
<event>
 4    1 -0.3305908E-004  0.2374670E+03  0.7818608E-02  0.1121492E+00
         -5   -1    0    0    0  501 -0.00000000000E+00  0.00000000000E+00  0.17499453931E+03  0.17505764419E+03  0.47000000000E+01 0.  1.
          5   -1    0    0  501    0  0.00000000000E+00 -0.00000000000E+00 -0.55588861294E+03  0.55590848167E+03  0.47000000000E+01 0. -1.
          6    1    1    2  502    0  0.14999351666E+03  0.65639362805E+02 -0.42744601267E+03  0.48897921708E+03  0.17200000000E+03 0. -1.
         -6    1    1    2    0  502 -0.14999351666E+03 -0.65639362805E+02  0.46551939050E+02  0.24198690878E+03  0.17200000000E+03 0.  1.
</event>
<event>
 4    1 -0.3305908E-004  0.1738981E+03  0.7818608E-02  0.1173843E+00
         -5   -1    0    0    0  501 -0.00000000000E+00  0.00000000000E+00  0.67771506122E+03  0.67773135844E+03  0.47000000000E+01 0.  1.
          5   -1    0    0  501    0  0.00000000000E+00 -0.00000000000E+00 -0.14858329606E+03  0.14865761289E+03  0.47000000000E+01 0. -1.
          6    1    1    2  502    0  0.25597598782E+02 -0.11422355777E+01 -0.81087983539E+02  0.19187444551E+03  0.17200000000E+03 0. -1.
         -6    1    1    2    0  502 -0.25597598782E+02  0.11422355777E+01  0.61021974870E+03  0.63451452581E+03  0.17200000000E+03 0.  1.
</event>
<event>
 4    1 -0.3305908E-004  0.2126815E+03  0.7818608E-02  0.1139460E+00
          5   -1    0    0  501    0  0.00000000000E+00  0.00000000000E+00  0.46335099498E+03  0.46337483159E+03  0.47000000000E+01 0. -1.
         -5   -1    0    0    0  501 -0.00000000000E+00 -0.00000000000E+00 -0.11524386908E+03  0.11533966950E+03  0.47000000000E+01 0.  1.
          6    1    1    2  502    0 -0.11709029119E+02  0.12454847334E+03  0.60702720160E+02  0.22117469071E+03  0.17200000000E+03 0. -1.
         -6    1    1    2    0  502  0.11709029119E+02 -0.12454847334E+03  0.28740440574E+03  0.35753981039E+03  0.17200000000E+03 0. -1.
</event>
<event>
 4    1 -0.3305908E-004  0.2781543E+03  0.7818608E-02  0.1096701E+00
          5   -1    0    0  501    0  0.00000000000E+00  0.00000000000E+00  0.12748650749E+03  0.12757311470E+03  0.47000000000E+01 0. -1.
         -5   -1    0    0    0  501 -0.00000000000E+00 -0.00000000000E+00 -0.61087209615E+03  0.61089017659E+03  0.47000000000E+01 0.  1.
          6    1    1    2  502    0  0.15053314457E+03  0.15851059310E+03 -0.27262312036E+03  0.38947811427E+03  0.17200000000E+03 0. -1.
         -6    1    1    2    0  502 -0.15053314457E+03 -0.15851059310E+03 -0.21076246829E+03  0.34898517702E+03  0.17200000000E+03 0.  1.
</event>
<event>
 4    1 -0.3305908E-004  0.2337851E+03  0.7818608E-02  0.1124004E+00
         -5   -1    0    0    0  501 -0.00000000000E+00  0.00000000000E+00  0.24423672884E+02  0.24871787172E+02  0.47000000000E+01 0.  1.
          5   -1    0    0  501    0  0.00000000000E+00 -0.00000000000E+00 -0.23807985015E+04  0.23808031407E+04  0.47000000000E+01 0. -1.
          6    1    1    2  502    0  0.37959959831E+02 -0.15372215434E+03 -0.14936452115E+04  0.15118305055E+04  0.17200000000E+03 0. -1.
         -6    1    1    2    0  502 -0.37959959831E+02  0.15372215434E+03 -0.86272961704E+03  0.89384442237E+03  0.17200000000E+03 0.  1.
</event>
<event>
 4    1 -0.3305908E-004  0.2674388E+03  0.7818608E-02  0.1102754E+00
          5   -1    0    0  501    0  0.00000000000E+00  0.00000000000E+00  0.11599040063E+04  0.11599135286E+04  0.47000000000E+01 0. -1.
         -5   -1    0    0    0  501 -0.00000000000E+00 -0.00000000000E+00 -0.14514962551E+03  0.14522569947E+03  0.47000000000E+01 0.  1.
          6    1    1    2  502    0 -0.83480099610E+02  0.18700426986E+03  0.10023481429E+04  0.10374128029E+04  0.17200000000E+03 0. -1.
         -6    1    1    2    0  502  0.83480099610E+02 -0.18700426986E+03  0.12406237819E+02  0.26772642513E+03  0.17200000000E+03 0.  1.
</event>
<event>
 4    1 -0.3305908E-004  0.2403832E+03  0.7818608E-02  0.1119538E+00
         -5   -1    0    0    0  501 -0.00000000000E+00  0.00000000000E+00  0.16283505293E+04  0.16283573122E+04  0.47000000000E+01 0.  1.
          5   -1    0    0  501    0  0.00000000000E+00 -0.00000000000E+00 -0.37717041648E+02  0.38008752028E+02  0.47000000000E+01 0. -1.
          6    1    1    2  502    0 -0.14018372033E+03 -0.92458748650E+02  0.58629079318E+03  0.63365683916E+03  0.17200000000E+03 0.  1.
         -6    1    1    2    0  502  0.14018372033E+03  0.92458748650E+02  0.10043426945E+04  0.10327092251E+04  0.17200000000E+03 0.  1.
</event>
<event>
 4    1 -0.3305908E-004  0.1805028E+03  0.7818608E-02  0.1167317E+00
         -5   -1    0    0    0  501 -0.00000000000E+00  0.00000000000E+00  0.24878156440E+03  0.24882595682E+03  0.47000000000E+01 0.  1.
          5   -1    0    0  501    0  0.00000000000E+00 -0.00000000000E+00 -0.17808816217E+03  0.17815017121E+03  0.47000000000E+01 0. -1.
          6    1    1    2  502    0 -0.17901465391E+02  0.51737713412E+02 -0.74551384082E+02  0.19529250452E+03  0.17200000000E+03 0. -1.
         -6    1    1    2    0  502  0.17901465391E+02 -0.51737713412E+02  0.14524478632E+03  0.23168362351E+03  0.17200000000E+03 0.  1.
</event>
<event>
 4    1 -0.3305908E-004  0.2802870E+03  0.7818608E-02  0.1095532E+00
         -5   -1    0    0    0  501 -0.00000000000E+00  0.00000000000E+00  0.33037531261E+03  0.33040874260E+03  0.47000000000E+01 0.  1.
          5   -1    0    0  501    0  0.00000000000E+00 -0.00000000000E+00 -0.26044520611E+03  0.26048761081E+03  0.47000000000E+01 0. -1.
          6    1    1    2  502    0  0.14783744487E+03  0.16468425556E+03 -0.52286766092E+02  0.28512228963E+03  0.17200000000E+03 0. -1.
         -6    1    1    2    0  502 -0.14783744487E+03 -0.16468425556E+03  0.12221687259E+03  0.30577406378E+03  0.17200000000E+03 0.  1.
</event>
<event>
 4    1 -0.3305908E-004  0.2413055E+03  0.7818608E-02  0.1118926E+00
         -5   -1    0    0    0  501 -0.00000000000E+00  0.00000000000E+00  0.33011104682E+03  0.33014450356E+03  0.47000000000E+01 0.  1.
          5   -1    0    0  501    0  0.00000000000E+00 -0.00000000000E+00 -0.20212279013E+03  0.20217742775E+03  0.47000000000E+01 0. -1.
          6    1    1    2  502    0 -0.16523817045E+03 -0.36615150644E+02 -0.31088568050E+02  0.24329985880E+03  0.17200000000E+03 0. -1.
         -6    1    1    2    0  502  0.16523817045E+03  0.36615150644E+02  0.15907682474E+03  0.28902207251E+03  0.17200000000E+03 0.  1.
</event>
<event>
 4    1 -0.3305908E-004  0.1940038E+03  0.7818608E-02  0.1154899E+00
          5   -1    0    0  501    0  0.00000000000E+00  0.00000000000E+00  0.26395377122E+03  0.26399561235E+03  0.47000000000E+01 0. -1.
         -5   -1    0    0    0  501 -0.00000000000E+00 -0.00000000000E+00 -0.18742842948E+03  0.18748734938E+03  0.47000000000E+01 0.  1.
          6    1    1    2  502    0  0.49787325577E+02  0.74663904952E+02  0.14875452660E+03  0.24446960072E+03  0.17200000000E+03 0. -1.
         -6    1    1    2    0  502 -0.49787325577E+02 -0.74663904952E+02 -0.72229184865E+02  0.20701336101E+03  0.17200000000E+03 0.  1.
</event>
<event>
 4    1 -0.3305908E-004  0.2680875E+03  0.7818608E-02  0.1102379E+00
         -5   -1    0    0    0  501 -0.00000000000E+00  0.00000000000E+00  0.12757946440E+03  0.12766600854E+03  0.47000000000E+01 0.  1.
          5   -1    0    0  501    0  0.00000000000E+00 -0.00000000000E+00 -0.68442046411E+03  0.68443660166E+03  0.47000000000E+01 0. -1.
          6    1    1    2  502    0 -0.13889942783E+03  0.15163721929E+03 -0.44939609517E+03  0.52328553169E+03  0.17200000000E+03 0.  1.
         -6    1    1    2    0  502  0.13889942783E+03 -0.15163721929E+03 -0.10744490454E+03  0.28881707851E+03  0.17200000000E+03 0.  1.
</event>
<event>
 4    1 -0.3305908E-004  0.1842178E+03  0.7818608E-02  0.1163782E+00
         -5   -1    0    0    0  501 -0.00000000000E+00  0.00000000000E+00  0.41518570688E+03  0.41521230858E+03  0.47000000000E+01 0.  1.
          5   -1    0    0  501    0  0.00000000000E+00 -0.00000000000E+00 -0.10519853703E+03  0.10530347664E+03  0.47000000000E+01 0. -1.
          6    1    1    2  502    0  0.65320128952E+02 -0.92460212816E+01  0.31919945295E+02  0.18696280663E+03  0.17200000000E+03 0. -1.
         -6    1    1    2    0  502 -0.65320128952E+02  0.92460212816E+01  0.27806722455E+03  0.33355297859E+03  0.17200000000E+03 0.  1.
</event>
<event>
 4    1 -0.3305908E-004  0.1962170E+03  0.7818608E-02  0.1152971E+00
         -5   -1    0    0    0  501 -0.00000000000E+00  0.00000000000E+00  0.29171709188E+03  0.29175495144E+03  0.47000000000E+01 0.  1.
          5   -1    0    0  501    0  0.00000000000E+00 -0.00000000000E+00 -0.14571868693E+03  0.14579446396E+03  0.47000000000E+01 0. -1.
          6    1    1    2  502    0 -0.78810309227E+02  0.52019814898E+02  0.14036065252E+03  0.24125140157E+03  0.17200000000E+03 0.  1.
         -6    1    1    2    0  502  0.78810309227E+02 -0.52019814898E+02  0.56377524291E+01  0.19629801383E+03  0.17200000000E+03 0. -1.
</event>
<event>
 4    1 -0.3305908E-004  0.2219164E+03  0.7818608E-02  0.1132462E+00
         -5   -1    0    0    0  501 -0.00000000000E+00  0.00000000000E+00  0.11883362795E+03  0.11892653670E+03  0.47000000000E+01 0.  1.
          5   -1    0    0  501    0  0.00000000000E+00 -0.00000000000E+00 -0.42156289255E+03  0.42158909186E+03  0.47000000000E+01 0. -1.
          6    1    1    2  502    0  0.32441847423E+01  0.14018687902E+03 -0.11553334002E+03  0.25018960498E+03  0.17200000000E+03 0. -1.
         -6    1    1    2    0  502 -0.32441847423E+01 -0.14018687902E+03 -0.18719592459E+03  0.29032602358E+03  0.17200000000E+03 0.  1.
</event>
<event>
 4    1 -0.3305908E-004  0.2312377E+03  0.7818608E-02  0.1125772E+00
          5   -1    0    0  501    0  0.00000000000E+00  0.00000000000E+00  0.67175961837E+03  0.67177606006E+03  0.47000000000E+01 0. -1.
         -5   -1    0    0    0  501 -0.00000000000E+00 -0.00000000000E+00 -0.25974694193E+03  0.25978946061E+03  0.47000000000E+01 0.  1.
          6    1    1    2  502    0  0.11417136336E+03 -0.10417188262E+03  0.59392337930E+03  0.63735065844E+03  0.17200000000E+03 0. -1.
         -6    1    1    2    0  502 -0.11417136336E+03  0.10417188262E+03 -0.18191070286E+03  0.29421486223E+03  0.17200000000E+03 0.  1.
</event>
<event>
 4    1 -0.3305908E-004  0.2030901E+03  0.7818608E-02  0.1147158E+00
         -5   -1    0    0    0  501 -0.00000000000E+00  0.00000000000E+00  0.72885759442E+02  0.73037140754E+02  0.47000000000E+01 0.  1.
          5   -1    0    0  501    0  0.00000000000E+00 -0.00000000000E+00 -0.57375950070E+03  0.57377875060E+03  0.47000000000E+01 0. -1.
          6    1    1    2  502    0  0.78487645009E+01  0.10770329291E+03 -0.29005743125E+03  0.35408885302E+03  0.17200000000E+03 0. -1.
         -6    1    1    2    0  502 -0.78487645009E+01 -0.10770329291E+03 -0.21081631001E+03  0.29272703834E+03  0.17200000000E+03 0.  1.
</event>
<event>
 4    1 -0.3305908E-004  0.1949869E+03  0.7818608E-02  0.1154039E+00
          5   -1    0    0  501    0  0.00000000000E+00  0.00000000000E+00  0.79601300424E+02  0.79739933717E+02  0.47000000000E+01 0. -1.
         -5   -1    0    0    0  501 -0.00000000000E+00 -0.00000000000E+00 -0.88794863005E+03  0.88796106874E+03  0.47000000000E+01 0.  1.
          6    1    1    2  502    0  0.85646313296E+02 -0.33175514628E+02 -0.75065035790E+02  0.20893698895E+03  0.17200000000E+03 0. -1.
         -6    1    1    2    0  502 -0.85646313296E+02  0.33175514628E+02 -0.73328229383E+03  0.75876401351E+03  0.17200000000E+03 0.  1.
</event>
<event>
 4    1 -0.3305908E-004  0.2192016E+03  0.7818608E-02  0.1134480E+00
         -5   -1    0    0    0  501 -0.00000000000E+00  0.00000000000E+00  0.16576450922E+04  0.16576517553E+04  0.47000000000E+01 0.  1.
          5   -1    0    0  501    0  0.00000000000E+00 -0.00000000000E+00 -0.37915735505E+02  0.38205928844E+02  0.47000000000E+01 0. -1.
          6    1    1    2  502    0 -0.11893093265E+03 -0.65732523260E+02  0.12240077037E+04  0.12434806754E+04  0.17200000000E+03 0. -1.
         -6    1    1    2    0  502  0.11893093265E+03  0.65732523260E+02  0.39572165298E+03  0.45237700870E+03  0.17200000000E+03 0. -1.
</event>
<event>
 4    1 -0.3305908E-004  0.2595011E+03  0.7818608E-02  0.1107443E+00
          5   -1    0    0  501    0  0.00000000000E+00  0.00000000000E+00  0.38267146480E+03  0.38270032659E+03  0.47000000000E+01 0. -1.
         -5   -1    0    0    0  501 -0.00000000000E+00 -0.00000000000E+00 -0.23797437863E+03  0.23802078666E+03  0.47000000000E+01 0.  1.
          6    1    1    2  502    0 -0.19189373713E+03 -0.30554688908E+02  0.23082012853E+03  0.34730206895E+03  0.17200000000E+03 0. -1.
         -6    1    1    2    0  502  0.19189373713E+03  0.30554688908E+02 -0.86123042355E+02  0.27341904431E+03  0.17200000000E+03 0. -1.
</event>
<event>
 4    1 -0.3305908E-004  0.2648584E+03  0.7818608E-02  0.1104259E+00
          5   -1    0    0  501    0  0.00000000000E+00  0.00000000000E+00  0.77959910954E+03  0.77961327695E+03  0.47000000000E+01 0. -1.
         -5   -1    0    0    0  501 -0.00000000000E+00 -0.00000000000E+00 -0.92411628576E+02  0.92531070977E+02  0.47000000000E+01 0.  1.
          6    1    1    2  502    0 -0.18380266661E+03 -0.82356389874E+02  0.41534932759E+03  0.49261045374E+03  0.17200000000E+03 0. -1.
         -6    1    1    2    0  502  0.18380266661E+03  0.82356389874E+02  0.27183815337E+03  0.37953389418E+03  0.17200000000E+03 0.  1.
</event>
<event>
 4    1 -0.3305908E-004  0.2504472E+03  0.7818608E-02  0.1113023E+00
         -5   -1    0    0    0  501 -0.00000000000E+00  0.00000000000E+00  0.10634165824E+04  0.10634269687E+04  0.47000000000E+01 0.  1.
          5   -1    0    0  501    0  0.00000000000E+00 -0.00000000000E+00 -0.14192039729E+03  0.14199820128E+03  0.47000000000E+01 0. -1.
          6    1    1    2  502    0 -0.59817372154E+02  0.17193503948E+03 -0.56432664610E-01  0.25044715809E+03  0.17200000000E+03 0. -1.
         -6    1    1    2    0  502  0.59817372154E+02 -0.17193503948E+03  0.92155261778E+03  0.95497801187E+03  0.17200000000E+03 0.  1.
</event>
<event>
 4    1 -0.3305908E-004  0.1843299E+03  0.7818608E-02  0.1163677E+00
         -5   -1    0    0    0  501 -0.00000000000E+00  0.00000000000E+00  0.28090133537E+03  0.28094065247E+03  0.47000000000E+01 0.  1.
          5   -1    0    0  501    0  0.00000000000E+00 -0.00000000000E+00 -0.15051692329E+03  0.15059028586E+03  0.47000000000E+01 0. -1.
          6    1    1    2  502    0  0.66055553275E+02  0.54941170124E+01 -0.30535326143E+02  0.18684198560E+03  0.17200000000E+03 0. -1.
         -6    1    1    2    0  502 -0.66055553275E+02 -0.54941170124E+01  0.16091973823E+03  0.24468895274E+03  0.17200000000E+03 0.  1.
</event>
<event>
 4    1 -0.3305908E-004  0.1880600E+03  0.7818608E-02  0.1160223E+00
         -5   -1    0    0    0  501 -0.00000000000E+00  0.00000000000E+00  0.94597838511E+02  0.94714523970E+02  0.47000000000E+01 0.  1.
          5   -1    0    0  501    0  0.00000000000E+00 -0.00000000000E+00 -0.37355578778E+03  0.37358535381E+03  0.47000000000E+01 0. -1.
          6    1    1    2  502    0 -0.75206399553E+02 -0.11250602422E+02 -0.14232641617E+03  0.23584610942E+03  0.17200000000E+03 0.  1.
         -6    1    1    2    0  502  0.75206399553E+02  0.11250602422E+02 -0.13663153309E+03  0.23245376836E+03  0.17200000000E+03 0.  1.
</event>
<event>
 4    1 -0.3305908E-004  0.2229241E+03  0.7818608E-02  0.1131722E+00
         -5   -1    0    0    0  501 -0.00000000000E+00  0.00000000000E+00  0.89052714634E+02  0.89176656047E+02  0.47000000000E+01 0.  1.
          5   -1    0    0  501    0  0.00000000000E+00 -0.00000000000E+00 -0.56763071070E+03  0.56765016844E+03  0.47000000000E+01 0. -1.
          6    1    1    2  502    0 -0.13132083723E+03  0.53534942498E+02 -0.28311407996E+03  0.36034529917E+03  0.17200000000E+03 0. -1.
         -6    1    1    2    0  502  0.13132083723E+03 -0.53534942498E+02 -0.19546391611E+03  0.29648152532E+03  0.17200000000E+03 0.  1.
</event>
<event>
 4    1 -0.3305908E-004  0.2379470E+03  0.7818608E-02  0.1121168E+00
         -5   -1    0    0    0  501 -0.00000000000E+00  0.00000000000E+00  0.85239532368E+02  0.85369010058E+02  0.47000000000E+01 0.  1.
          5   -1    0    0  501    0  0.00000000000E+00 -0.00000000000E+00 -0.84498043629E+03  0.84499350750E+03  0.47000000000E+01 0. -1.
          6    1    1    2  502    0  0.16148884400E+03 -0.30921534459E+02 -0.59538142447E+03  0.64116911079E+03  0.17200000000E+03 0. -1.
         -6    1    1    2    0  502 -0.16148884400E+03  0.30921534459E+02 -0.16435947946E+03  0.28919340677E+03  0.17200000000E+03 0. -1.
</event>
<event>
 4    1 -0.3305908E-004  0.1737006E+03  0.7818608E-02  0.1174043E+00
         -5   -1    0    0    0  501 -0.00000000000E+00  0.00000000000E+00  0.10829781194E+04  0.10829883181E+04  0.47000000000E+01 0.  1.
          5   -1    0    0  501    0  0.00000000000E+00 -0.00000000000E+00 -0.27658244014E+02  0.28054740454E+02  0.47000000000E+01 0. -1.
          6    1    1    2  502    0 -0.24133244440E+02 -0.23431631772E+01  0.51904627211E+03  0.54733987292E+03  0.17200000000E+03 0. -1.
         -6    1    1    2    0  502  0.24133244440E+02  0.23431631772E+01  0.53627360332E+03  0.56370318566E+03  0.17200000000E+03 0.  1.
</event>
<event>
 4    1 -0.3305908E-004  0.1878671E+03  0.7818608E-02  0.1160399E+00
         -5   -1    0    0    0  501 -0.00000000000E+00  0.00000000000E+00  0.80669699551E+02  0.80806499897E+02  0.47000000000E+01 0.  1.
          5   -1    0    0  501    0  0.00000000000E+00 -0.00000000000E+00 -0.44177006841E+03  0.44179506940E+03  0.47000000000E+01 0. -1.
          6    1    1    2  502    0  0.75513666845E+02 -0.27827287305E+01 -0.20771706839E+03  0.28007220134E+03  0.17200000000E+03 0. -1.
         -6    1    1    2    0  502 -0.75513666845E+02  0.27827287305E+01 -0.15338330047E+03  0.24252936796E+03  0.17200000000E+03 0.  1.
</event>
<event>
 4    1 -0.3305908E-004  0.1794989E+03  0.7818608E-02  0.1168289E+00
         -5   -1    0    0    0  501 -0.00000000000E+00  0.00000000000E+00  0.14421656765E+04  0.14421733351E+04  0.47000000000E+01 0.  1.
          5   -1    0    0  501    0  0.00000000000E+00 -0.00000000000E+00 -0.27423188946E+02  0.27823035276E+02  0.47000000000E+01 0. -1.
          6    1    1    2  502    0  0.34445498774E+02 -0.38070274565E+02  0.10289585045E+04  0.10444976985E+04  0.17200000000E+03 0.  1.
         -6    1    1    2    0  502 -0.34445498774E+02  0.38070274565E+02  0.38578398311E+03  0.42549867193E+03  0.17200000000E+03 0. -1.
</event>
<event>
 4    1 -0.3305908E-004  0.1814598E+03  0.7818608E-02  0.1166398E+00
         -5   -1    0    0    0  501 -0.00000000000E+00  0.00000000000E+00  0.13897258927E+02  0.14670508024E+02  0.47000000000E+01 0.  1.
          5   -1    0    0  501    0  0.00000000000E+00 -0.00000000000E+00 -0.23763276742E+04  0.23763323221E+04  0.47000000000E+01 0. -1.
          6    1    1    2  502    0 -0.24992901049E+02  0.52144030640E+02 -0.13890930153E+04  0.14008950889E+04  0.17200000000E+03 0. -1.
         -6    1    1    2    0  502  0.24992901049E+02 -0.52144030640E+02 -0.97333740001E+03  0.99010774125E+03  0.17200000000E+03 0.  1.
</event>
<event>
 4    1 -0.3305908E-004  0.1801913E+03  0.7818608E-02  0.1167618E+00
          5   -1    0    0  501    0  0.00000000000E+00  0.00000000000E+00  0.39129781630E+03  0.39132604186E+03  0.47000000000E+01 0. -1.
         -5   -1    0    0    0  501 -0.00000000000E+00 -0.00000000000E+00 -0.16832848762E+03  0.16839409059E+03  0.47000000000E+01 0.  1.
          6    1    1    2  502    0  0.37141846928E+02  0.38799491337E+02  0.31080448354E+03  0.35926083047E+03  0.17200000000E+03 0. -1.
         -6    1    1    2    0  502 -0.37141846928E+02 -0.38799491337E+02 -0.87835154859E+02  0.20045930198E+03  0.17200000000E+03 0.  1.
</event>
<event>
 4    1 -0.3305908E-004  0.1805447E+03  0.7818608E-02  0.1167277E+00
          5   -1    0    0  501    0  0.00000000000E+00  0.00000000000E+00  0.11466290361E+03  0.11475918902E+03  0.47000000000E+01 0. -1.
         -5   -1    0    0    0  501 -0.00000000000E+00 -0.00000000000E+00 -0.35548527960E+03  0.35551634845E+03  0.47000000000E+01 0.  1.
          6    1    1    2  502    0  0.50279536562E+02  0.22007890647E+02 -0.15020345881E+02  0.18116840188E+03  0.17200000000E+03 0. -1.
         -6    1    1    2    0  502 -0.50279536562E+02 -0.22007890647E+02 -0.22580203011E+03  0.28910713559E+03  0.17200000000E+03 0.  1.
</event>
<event>
 4    1 -0.3305908E-004  0.2509335E+03  0.7818608E-02  0.1112716E+00
          5   -1    0    0  501    0  0.00000000000E+00  0.00000000000E+00  0.22299257510E+03  0.22304210040E+03  0.47000000000E+01 0. -1.
         -5   -1    0    0    0  501 -0.00000000000E+00 -0.00000000000E+00 -0.41096496189E+03  0.41099183678E+03  0.47000000000E+01 0.  1.
          6    1    1    2  502    0  0.10853828710E+03  0.14697977990E+03  0.83395555609E+02  0.26442850482E+03  0.17200000000E+03 0. -1.
         -6    1    1    2    0  502 -0.10853828710E+03 -0.14697977990E+03 -0.27136794239E+03  0.36960543236E+03  0.17200000000E+03 0.  1.
</event>
<event>
 4    1 -0.3305908E-004  0.2249857E+03  0.7818608E-02  0.1130220E+00
          5   -1    0    0  501    0  0.00000000000E+00  0.00000000000E+00  0.10435848947E+03  0.10446427296E+03  0.47000000000E+01 0. -1.
         -5   -1    0    0    0  501 -0.00000000000E+00 -0.00000000000E+00 -0.50555862511E+03  0.50558047175E+03  0.47000000000E+01 0.  1.
          6    1    1    2  502    0 -0.13305406710E+03  0.57716215927E+02 -0.13862433768E+03  0.26426360580E+03  0.17200000000E+03 0.  1.
         -6    1    1    2    0  502  0.13305406710E+03 -0.57716215927E+02 -0.26257579795E+03  0.34578113891E+03  0.17200000000E+03 0.  1.
</event>
<event>
 4    1 -0.3305908E-004  0.2457699E+03  0.7818608E-02  0.1116008E+00
         -5   -1    0    0    0  501 -0.00000000000E+00  0.00000000000E+00  0.10673824846E+03  0.10684167578E+03  0.47000000000E+01 0.  1.
          5   -1    0    0  501    0  0.00000000000E+00 -0.00000000000E+00 -0.65651265900E+03  0.65652948253E+03  0.47000000000E+01 0. -1.
          6    1    1    2  502    0 -0.64432828556E+02  0.16330104093E+03 -0.41698010268E+03  0.48401986054E+03  0.17200000000E+03 0. -1.
         -6    1    1    2    0  502  0.64432828556E+02 -0.16330104093E+03 -0.13279430787E+03  0.27935129777E+03  0.17200000000E+03 0.  1.
</event>
<event>
 4    1 -0.3305908E-004  0.2498428E+03  0.7818608E-02  0.1113404E+00
         -5   -1    0    0    0  501 -0.00000000000E+00  0.00000000000E+00  0.16128540364E+03  0.16135387020E+03  0.47000000000E+01 0.  1.
          5   -1    0    0  501    0  0.00000000000E+00 -0.00000000000E+00 -0.39084662652E+03  0.39087488467E+03  0.47000000000E+01 0. -1.
          6    1    1    2  502    0 -0.17183196495E+03 -0.57542979040E+02 -0.14266427186E+03  0.28770560141E+03  0.17200000000E+03 0. -1.
         -6    1    1    2    0  502  0.17183196495E+03  0.57542979040E+02 -0.86896951021E+02  0.26452315345E+03  0.17200000000E+03 0.  1.
</event>
<event>
 4    1 -0.3305908E-004  0.2269979E+03  0.7818608E-02  0.1128771E+00
          5   -1    0    0  501    0  0.00000000000E+00  0.00000000000E+00  0.79248751379E+03  0.79250145080E+03  0.47000000000E+01 0. -1.
         -5   -1    0    0    0  501 -0.00000000000E+00 -0.00000000000E+00 -0.10756843126E+03  0.10767106112E+03  0.47000000000E+01 0.  1.
          6    1    1    2  502    0 -0.77103782058E+02 -0.12648734187E+03  0.62566124981E+03  0.66556745742E+03  0.17200000000E+03 0. -1.
         -6    1    1    2    0  502  0.77103782058E+02  0.12648734187E+03  0.59257832724E+02  0.23460505451E+03  0.17200000000E+03 0.  1.
</event>
<event>
 4    1 -0.3305908E-004  0.1723064E+03  0.7818608E-02  0.1175464E+00
          5   -1    0    0  501    0  0.00000000000E+00  0.00000000000E+00  0.83779698151E+02  0.83911428436E+02  0.47000000000E+01 0. -1.
         -5   -1    0    0    0  501 -0.00000000000E+00 -0.00000000000E+00 -0.39926151794E+03  0.39928918055E+03  0.47000000000E+01 0.  1.
          6    1    1    2  502    0 -0.87857607019E+01  0.53217342733E+01 -0.23911465639E+03  0.29472924753E+03  0.17200000000E+03 0.  1.
         -6    1    1    2    0  502  0.87857607019E+01 -0.53217342733E+01 -0.76367163401E+02  0.18847136147E+03  0.17200000000E+03 0. -1.
</event>
<event>
 4    1 -0.3305908E-004  0.2322652E+03  0.7818608E-02  0.1125055E+00
          5   -1    0    0  501    0  0.00000000000E+00  0.00000000000E+00  0.10102783552E+03  0.10113710273E+03  0.47000000000E+01 0. -1.
         -5   -1    0    0    0  501 -0.00000000000E+00 -0.00000000000E+00 -0.68654747181E+03  0.68656355937E+03  0.47000000000E+01 0.  1.
          6    1    1    2  502    0  0.77079206762E+01  0.15589651857E+03 -0.10686697657E+03  0.25567105277E+03  0.17200000000E+03 0. -1.
         -6    1    1    2    0  502 -0.77079206762E+01 -0.15589651857E+03 -0.47865265972E+03  0.53202960933E+03  0.17200000000E+03 0.  1.
</event>
<event>
 4    1 -0.3305908E-004  0.2174596E+03  0.7818608E-02  0.1135791E+00
          5   -1    0    0  501    0  0.00000000000E+00  0.00000000000E+00  0.22306393832E+03  0.22311344778E+03  0.47000000000E+01 0. -1.
         -5   -1    0    0    0  501 -0.00000000000E+00 -0.00000000000E+00 -0.32309367067E+03  0.32312785399E+03  0.47000000000E+01 0.  1.
          6    1    1    2  502    0 -0.11459876234E+03 -0.67615229342E+02  0.11018930921E+03  0.24378346834E+03  0.17200000000E+03 0. -1.
         -6    1    1    2    0  502  0.11459876234E+03  0.67615229342E+02 -0.21021904156E+03  0.30245783343E+03  0.17200000000E+03 0.  1.
</event>
<event>
 4    1 -0.3305908E-004  0.2295024E+03  0.7818608E-02  0.1126990E+00
         -5   -1    0    0    0  501 -0.00000000000E+00  0.00000000000E+00  0.10526497707E+03  0.10536985051E+03  0.47000000000E+01 0.  1.
          5   -1    0    0  501    0  0.00000000000E+00 -0.00000000000E+00 -0.50378382865E+03  0.50380575226E+03  0.47000000000E+01 0. -1.
          6    1    1    2  502    0  0.14464765047E+03  0.46523359416E+02 -0.22563828704E+03  0.32184468667E+03  0.17200000000E+03 0. -1.
         -6    1    1    2    0  502 -0.14464765047E+03 -0.46523359416E+02 -0.17288056454E+03  0.28733091611E+03  0.17200000000E+03 0.  1.
</event>
<event>
 4    1 -0.3305908E-004  0.1745009E+03  0.7818608E-02  0.1173234E+00
          5   -1    0    0  501    0  0.00000000000E+00  0.00000000000E+00  0.27506909041E+03  0.27510924103E+03  0.47000000000E+01 0. -1.
         -5   -1    0    0    0  501 -0.00000000000E+00 -0.00000000000E+00 -0.12531337325E+03  0.12540148131E+03  0.47000000000E+01 0.  1.
          6    1    1    2  502    0  0.81235476136E+01  0.28294653624E+02  0.14345173246E+03  0.22589594727E+03  0.17200000000E+03 0. -1.
         -6    1    1    2    0  502 -0.81235476136E+01 -0.28294653624E+02  0.63039847021E+01  0.17461477507E+03  0.17200000000E+03 0.  1.
</event>
<event>
 4    1 -0.3305908E-004  0.2291158E+03  0.7818608E-02  0.1127264E+00
          5   -1    0    0  501    0  0.00000000000E+00  0.00000000000E+00  0.16085765743E+03  0.16092630597E+03  0.47000000000E+01 0. -1.
         -5   -1    0    0    0  501 -0.00000000000E+00 -0.00000000000E+00 -0.39143673496E+03  0.39146495051E+03  0.47000000000E+01 0.  1.
          6    1    1    2  502    0  0.15090956955E+03  0.11676211894E+02 -0.25353439146E+01  0.22912978871E+03  0.17200000000E+03 0. -1.
         -6    1    1    2    0  502 -0.15090956955E+03 -0.11676211894E+02 -0.22804373362E+03  0.32326146778E+03  0.17200000000E+03 0.  1.
</event>
<event>
 4    1 -0.3305908E-004  0.3316667E+03  0.7818608E-02  0.1070402E+00
          5   -1    0    0  501    0  0.00000000000E+00  0.00000000000E+00  0.69874882035E+03  0.69876462700E+03  0.47000000000E+01 0. -1.
         -5   -1    0    0    0  501 -0.00000000000E+00 -0.00000000000E+00 -0.16249301258E+03  0.16256097052E+03  0.47000000000E+01 0.  1.
          6    1    1    2  502    0  0.91210442292E+00 -0.28358060243E+03  0.34453497984E+03  0.47823335553E+03  0.17200000000E+03 0. -1.
         -6    1    1    2    0  502 -0.91210442292E+00  0.28358060243E+03  0.19172082793E+03  0.38309224199E+03  0.17200000000E+03 0.  1.
</event>
<event>
 4    1 -0.3305908E-004  0.1743194E+03  0.7818608E-02  0.1173417E+00
          5   -1    0    0  501    0  0.00000000000E+00  0.00000000000E+00  0.12711320402E+03  0.12720006539E+03  0.47000000000E+01 0. -1.
         -5   -1    0    0    0  501 -0.00000000000E+00 -0.00000000000E+00 -0.33745230028E+03  0.33748502925E+03  0.47000000000E+01 0.  1.
          6    1    1    2  502    0 -0.20565905008E+02 -0.19501046829E+02  0.20390615943E+02  0.17550790437E+03  0.17200000000E+03 0. -1.
         -6    1    1    2    0  502  0.20565905008E+02  0.19501046829E+02 -0.23072971221E+03  0.28917719027E+03  0.17200000000E+03 0.  1.
</event>
<event>
 4    1 -0.3305908E-004  0.2256199E+03  0.7818608E-02  0.1129761E+00
          5   -1    0    0  501    0  0.00000000000E+00  0.00000000000E+00  0.33812685988E+03  0.33815952356E+03  0.47000000000E+01 0. -1.
         -5   -1    0    0    0  501 -0.00000000000E+00 -0.00000000000E+00 -0.25099731968E+03  0.25104132028E+03  0.47000000000E+01 0.  1.
          6    1    1    2  502    0 -0.81075073367E+02 -0.12143790305E+03 -0.14284077413E+03  0.26703523845E+03  0.17200000000E+03 0.  1.
         -6    1    1    2    0  502  0.81075073367E+02  0.12143790305E+03  0.22997031433E+03  0.32216560539E+03  0.17200000000E+03 0. -1.
</event>
<event>
 4    1 -0.3305908E-004  0.3580356E+03  0.7818608E-02  0.1059364E+00
          5   -1    0    0  501    0  0.00000000000E+00  0.00000000000E+00  0.24362946577E+03  0.24367479679E+03  0.47000000000E+01 0. -1.
         -5   -1    0    0    0  501 -0.00000000000E+00 -0.00000000000E+00 -0.14552054616E+04  0.14552130516E+04  0.47000000000E+01 0.  1.
          6    1    1    2  502    0  0.24161703123E+03  0.20056603785E+03  0.72954814268E+02  0.36539284372E+03  0.17200000000E+03 0. -1.
         -6    1    1    2    0  502 -0.24161703123E+03 -0.20056603785E+03 -0.12845308101E+04  0.13334950047E+04  0.17200000000E+03 0.  1.
</event>
<event>
 4    1 -0.3305908E-004  0.3530275E+03  0.7818608E-02  0.1061379E+00
         -5   -1    0    0    0  501 -0.00000000000E+00  0.00000000000E+00  0.13404899751E+03  0.13413136744E+03  0.47000000000E+01 0.  1.
          5   -1    0    0  501    0  0.00000000000E+00 -0.00000000000E+00 -0.22956271874E+04  0.22956319987E+04  0.47000000000E+01 0. -1.
          6    1    1    2  502    0  0.23256704916E+02  0.30741423988E+03 -0.20180150905E+04  0.20486613421E+04  0.17200000000E+03 0. -1.
         -6    1    1    2    0  502 -0.23256704916E+02 -0.30741423988E+03 -0.14356309936E+03  0.38110202401E+03  0.17200000000E+03 0.  1.
</event>
<event>
 4    1 -0.3305908E-004  0.2457822E+03  0.7818608E-02  0.1116000E+00
         -5   -1    0    0    0  501 -0.00000000000E+00  0.00000000000E+00  0.52805878428E+03  0.52807970010E+03  0.47000000000E+01 0.  1.
          5   -1    0    0  501    0  0.00000000000E+00 -0.00000000000E+00 -0.11501974610E+03  0.11511573304E+03  0.47000000000E+01 0. -1.
          6    1    1    2  502    0 -0.39387421276E+02 -0.17109499951E+03  0.23147347617E+03  0.33762233040E+03  0.17200000000E+03 0. -1.
         -6    1    1    2    0  502  0.39387421276E+02  0.17109499951E+03  0.18156556201E+03  0.30557310274E+03  0.17200000000E+03 0.  1.
</event>
<event>
 4    1 -0.3305908E-004  0.2508606E+03  0.7818608E-02  0.1112762E+00
          5   -1    0    0  501    0  0.00000000000E+00  0.00000000000E+00  0.29643684567E+03  0.29647410253E+03  0.47000000000E+01 0. -1.
         -5   -1    0    0    0  501 -0.00000000000E+00 -0.00000000000E+00 -0.28709571183E+03  0.28713418074E+03  0.47000000000E+01 0.  1.
          6    1    1    2  502    0  0.72545746373E+02 -0.16758333159E+03  0.15367550815E+03  0.29418908911E+03  0.17200000000E+03 0. -1.
         -6    1    1    2    0  502 -0.72545746373E+02  0.16758333159E+03 -0.14433437431E+03  0.28941919417E+03  0.17200000000E+03 0.  1.
</event>
<event>
 4    1 -0.3305908E-004  0.3849575E+03  0.7818608E-02  0.1049117E+00
         -5   -1    0    0    0  501 -0.00000000000E+00  0.00000000000E+00  0.26527960365E+03  0.26532123570E+03  0.47000000000E+01 0.  1.
          5   -1    0    0  501    0  0.00000000000E+00 -0.00000000000E+00 -0.57870418212E+03  0.57872326755E+03  0.47000000000E+01 0. -1.
          6    1    1    2  502    0 -0.19989850486E+02  0.34381489864E+03 -0.23550158329E+03  0.45127959669E+03  0.17200000000E+03 0. -1.
         -6    1    1    2    0  502  0.19989850486E+02 -0.34381489864E+03 -0.77922995181E+02  0.39276490657E+03  0.17200000000E+03 0.  1.
</event>
<event>
 4    1 -0.3305908E-004  0.1854393E+03  0.7818608E-02  0.1162640E+00
          5   -1    0    0  501    0  0.00000000000E+00  0.00000000000E+00  0.58403315312E+03  0.58405206441E+03  0.47000000000E+01 0. -1.
         -5   -1    0    0    0  501 -0.00000000000E+00 -0.00000000000E+00 -0.66949851819E+02  0.67114623284E+02  0.47000000000E+01 0.  1.
          6    1    1    2  502    0 -0.69306642923E+02 -0.55428262063E+00  0.37220828493E+03  0.41584459279E+03  0.17200000000E+03 0. -1.
         -6    1    1    2    0  502  0.69306642923E+02  0.55428262063E+00  0.14487501638E+03  0.23532209491E+03  0.17200000000E+03 0.  1.
</event>
<event>
 4    1 -0.3305908E-004  0.1813974E+03  0.7818608E-02  0.1166457E+00
          5   -1    0    0  501    0  0.00000000000E+00  0.00000000000E+00  0.24637422242E+04  0.24637467072E+04  0.47000000000E+01 0. -1.
         -5   -1    0    0    0  501 -0.00000000000E+00 -0.00000000000E+00 -0.13073471589E+02  0.13892647674E+02  0.47000000000E+01 0.  1.
          6    1    1    2  502    0  0.55503702474E+02  0.15503931884E+02  0.11028531238E+04  0.11176717074E+04  0.17200000000E+03 0.  1.
         -6    1    1    2    0  502 -0.55503702474E+02 -0.15503931884E+02  0.13478156289E+04  0.13599676475E+04  0.17200000000E+03 0. -1.
</event>
<event>
 4    1 -0.3305908E-004  0.2250798E+03  0.7818608E-02  0.1130152E+00
         -5   -1    0    0    0  501 -0.00000000000E+00  0.00000000000E+00  0.26429987126E+03  0.26434165761E+03  0.47000000000E+01 0.  1.
          5   -1    0    0  501    0  0.00000000000E+00 -0.00000000000E+00 -0.26648376722E+03  0.26652521117E+03  0.47000000000E+01 0. -1.
          6    1    1    2  502    0 -0.10995371093E+03  0.94800283335E+02  0.13959614124E+03  0.26485466754E+03  0.17200000000E+03 0. -1.
         -6    1    1    2    0  502  0.10995371093E+03 -0.94800283335E+02 -0.14178003719E+03  0.26601220125E+03  0.17200000000E+03 0. -1.
</event>
<event>
 4    1 -0.3305908E-004  0.1850848E+03  0.7818608E-02  0.1162971E+00
         -5   -1    0    0    0  501 -0.00000000000E+00  0.00000000000E+00  0.92895070524E+03  0.92896259492E+03  0.47000000000E+01 0.  1.
          5   -1    0    0  501    0  0.00000000000E+00 -0.00000000000E+00 -0.61750254770E+02  0.61928862125E+02  0.47000000000E+01 0. -1.
          6    1    1    2  502    0 -0.58475392357E+02  0.35398139879E+02  0.74843013196E+03  0.77097604518E+03  0.17200000000E+03 0.  1.
         -6    1    1    2    0  502  0.58475392357E+02 -0.35398139879E+02  0.11877031852E+03  0.21991541187E+03  0.17200000000E+03 0. -1.
</event>
<event>
 4    1 -0.3305908E-004  0.2898844E+03  0.7818608E-02  0.1090410E+00
         -5   -1    0    0    0  501 -0.00000000000E+00  0.00000000000E+00  0.11348669400E+03  0.11358397649E+03  0.47000000000E+01 0.  1.
          5   -1    0    0  501    0  0.00000000000E+00 -0.00000000000E+00 -0.75342016830E+03  0.75343482798E+03  0.47000000000E+01 0. -1.
          6    1    1    2  502    0 -0.65434589731E+02  0.22398053991E+03 -0.37772621363E+03  0.47614079877E+03  0.17200000000E+03 0. -1.
         -6    1    1    2    0  502  0.65434589731E+02 -0.22398053991E+03 -0.26220726067E+03  0.39087800570E+03  0.17200000000E+03 0.  1.
</event>
<event>
 4    1 -0.3305908E-004  0.2319960E+03  0.7818608E-02  0.1125243E+00
          5   -1    0    0  501    0  0.00000000000E+00  0.00000000000E+00  0.77696488312E+03  0.77697909856E+03  0.47000000000E+01 0. -1.
         -5   -1    0    0    0  501 -0.00000000000E+00 -0.00000000000E+00 -0.89997229262E+02  0.90119871698E+02  0.47000000000E+01 0.  1.
          6    1    1    2  502    0 -0.57061301502E+01 -0.15558137428E+03  0.55182991599E+03  0.59861371528E+03  0.17200000000E+03 0.  1.
         -6    1    1    2    0  502  0.57061301502E+01  0.15558137428E+03  0.13513773787E+03  0.26848525498E+03  0.17200000000E+03 0.  1.
</event>
<event>
 4    1 -0.3305908E-004  0.2682650E+03  0.7818608E-02  0.1102277E+00
          5   -1    0    0  501    0  0.00000000000E+00  0.00000000000E+00  0.49437135235E+02  0.49660047727E+02  0.47000000000E+01 0. -1.
         -5   -1    0    0    0  501 -0.00000000000E+00 -0.00000000000E+00 -0.14603399225E+04  0.14603474857E+04  0.47000000000E+01 0.  1.
          6    1    1    2  502    0  0.19198155417E+03  0.74331597694E+02 -0.76178658234E+03  0.80764156690E+03  0.17200000000E+03 0. -1.
         -6    1    1    2    0  502 -0.19198155417E+03 -0.74331597694E+02 -0.64911620489E+03  0.70236596657E+03  0.17200000000E+03 0. -1.
</event>
<event>
 4    1 -0.3305908E-004  0.2893364E+03  0.7818608E-02  0.1090696E+00
          5   -1    0    0  501    0  0.00000000000E+00  0.00000000000E+00  0.60335018847E+03  0.60336849431E+03  0.47000000000E+01 0. -1.
         -5   -1    0    0    0  501 -0.00000000000E+00 -0.00000000000E+00 -0.19951060839E+03  0.19956596118E+03  0.47000000000E+01 0.  1.
          6    1    1    2  502    0  0.23260655742E+03 -0.50749679015E+01  0.42353297818E+03  0.51292860075E+03  0.17200000000E+03 0. -1.
         -6    1    1    2    0  502 -0.23260655742E+03  0.50749679015E+01 -0.19693398108E+02  0.29000585474E+03  0.17200000000E+03 0.  1.
</event>
<event>
 4    1 -0.3305908E-004  0.2363080E+03  0.7818608E-02  0.1122277E+00
         -5   -1    0    0    0  501 -0.00000000000E+00  0.00000000000E+00  0.46132309247E+03  0.46134703386E+03  0.47000000000E+01 0.  1.
          5   -1    0    0  501    0  0.00000000000E+00 -0.00000000000E+00 -0.13193896027E+03  0.13202264668E+03  0.47000000000E+01 0. -1.
          6    1    1    2  502    0  0.11020271914E+03  0.11879736953E+03  0.79197746518E+02  0.24922627744E+03  0.17200000000E+03 0. -1.
         -6    1    1    2    0  502 -0.11020271914E+03 -0.11879736953E+03  0.25018638569E+03  0.34414340310E+03  0.17200000000E+03 0.  1.
</event>
<event>
 4    1 -0.3305908E-004  0.4120207E+03  0.7818608E-02  0.1039695E+00
         -5   -1    0    0    0  501 -0.00000000000E+00  0.00000000000E+00  0.10851128866E+04  0.10851230652E+04  0.47000000000E+01 0.  1.
          5   -1    0    0  501    0  0.00000000000E+00 -0.00000000000E+00 -0.21204910692E+03  0.21210118751E+03  0.47000000000E+01 0. -1.
          6    1    1    2  502    0  0.14442351667E+03  0.34542568358E+03  0.10431217471E+03  0.42502009933E+03  0.17200000000E+03 0. -1.
         -6    1    1    2    0  502 -0.14442351667E+03 -0.34542568358E+03  0.76875160498E+03  0.87220415340E+03  0.17200000000E+03 0.  1.
</event>
<event>
 4    1 -0.3305908E-004  0.2673928E+03  0.7818608E-02  0.1102781E+00
         -5   -1    0    0    0  501 -0.00000000000E+00  0.00000000000E+00  0.44583540708E+02  0.44830593372E+02  0.47000000000E+01 0.  1.
          5   -1    0    0  501    0  0.00000000000E+00 -0.00000000000E+00 -0.16206770185E+04  0.16206838336E+04  0.47000000000E+01 0. -1.
          6    1    1    2  502    0  0.58794409184E+02 -0.19610743752E+03 -0.69179974854E+03  0.74167769394E+03  0.17200000000E+03 0. -1.
         -6    1    1    2    0  502 -0.58794409184E+02  0.19610743752E+03 -0.88429372929E+03  0.92383673301E+03  0.17200000000E+03 0.  1.
</event>
<event>
 4    1 -0.3305908E-004  0.3410105E+03  0.7818608E-02  0.1066366E+00
         -5   -1    0    0    0  501 -0.00000000000E+00  0.00000000000E+00  0.41166764125E+03  0.41169447028E+03  0.47000000000E+01 0.  1.
          5   -1    0    0  501    0  0.00000000000E+00 -0.00000000000E+00 -0.61820958798E+03  0.61822745383E+03  0.47000000000E+01 0. -1.
          6    1    1    2  502    0  0.82532989811E+02 -0.28265260868E+03 -0.48277577242E+03  0.59106737183E+03  0.17200000000E+03 0. -1.
         -6    1    1    2    0  502 -0.82532989811E+02  0.28265260868E+03  0.27623382569E+03  0.43885455228E+03  0.17200000000E+03 0.  1.
</event>
<event>
 4    1 -0.3305908E-004  0.1886081E+03  0.7818608E-02  0.1159723E+00
          5   -1    0    0  501    0  0.00000000000E+00  0.00000000000E+00  0.38527726379E+02  0.38813344354E+02  0.47000000000E+01 0. -1.
         -5   -1    0    0    0  501 -0.00000000000E+00 -0.00000000000E+00 -0.14265162560E+04  0.14265239986E+04  0.47000000000E+01 0.  1.
          6    1    1    2  502    0  0.24650338766E+02  0.73357966195E+02 -0.25728867267E+03  0.31901487659E+03  0.17200000000E+03 0. -1.
         -6    1    1    2    0  502 -0.24650338766E+02 -0.73357966195E+02 -0.11306998570E+04  0.11463224664E+04  0.17200000000E+03 0.  1.
</event>
<event>
 4    1 -0.3305908E-004  0.2569515E+03  0.7818608E-02  0.1108989E+00
          5   -1    0    0  501    0  0.00000000000E+00  0.00000000000E+00  0.69916692515E+02  0.70074488170E+02  0.47000000000E+01 0. -1.
         -5   -1    0    0    0  501 -0.00000000000E+00 -0.00000000000E+00 -0.96833502075E+03  0.96834642686E+03  0.47000000000E+01 0.  1.
          6    1    1    2  502    0 -0.77607292131E+01  0.19073501871E+03 -0.36539420273E+03  0.44669564546E+03  0.17200000000E+03 0. -1.
         -6    1    1    2    0  502  0.77607292131E+01 -0.19073501871E+03 -0.53302412550E+03  0.59172526957E+03  0.17200000000E+03 0. -1.
</event>
<event>
 4    1 -0.3305908E-004  0.4276174E+03  0.7818608E-02  0.1034615E+00
         -5   -1    0    0    0  501 -0.00000000000E+00  0.00000000000E+00  0.47237055828E+03  0.47239393977E+03  0.47000000000E+01 0.  1.
          5   -1    0    0  501    0  0.00000000000E+00 -0.00000000000E+00 -0.41127956194E+03  0.41130641628E+03  0.47000000000E+01 0. -1.
          6    1    1    2  502    0  0.15046549720E+03  0.36143156930E+03  0.13776887064E+03  0.44926262571E+03  0.17200000000E+03 0. -1.
         -6    1    1    2    0  502 -0.15046549720E+03 -0.36143156930E+03 -0.76677874303E+02  0.43443773034E+03  0.17200000000E+03 0.  1.
</event>
<event>
 4    1 -0.3305908E-004  0.1968654E+03  0.7818608E-02  0.1152411E+00
          5   -1    0    0  501    0  0.00000000000E+00  0.00000000000E+00  0.13900116356E+03  0.13908060063E+03  0.47000000000E+01 0. -1.
         -5   -1    0    0    0  501 -0.00000000000E+00 -0.00000000000E+00 -0.29157439241E+03  0.29161227050E+03  0.47000000000E+01 0.  1.
          6    1    1    2  502    0 -0.15269386640E+02 -0.94545356147E+02 -0.12163575122E+03  0.23141139668E+03  0.17200000000E+03 0.  1.
         -6    1    1    2    0  502  0.15269386640E+02  0.94545356147E+02 -0.30937477630E+02  0.19928147445E+03  0.17200000000E+03 0. -1.
</event>
<event>
 4    1 -0.3305908E-004  0.2538182E+03  0.7818608E-02  0.1110915E+00
          5   -1    0    0  501    0  0.00000000000E+00  0.00000000000E+00  0.50499988194E+03  0.50502175275E+03  0.47000000000E+01 0. -1.
         -5   -1    0    0    0  501 -0.00000000000E+00 -0.00000000000E+00 -0.12756512172E+03  0.12765167558E+03  0.47000000000E+01 0.  1.
          6    1    1    2  502    0 -0.16395969972E+03 -0.89201419900E+02  0.19565384699E+03  0.32047481069E+03  0.17200000000E+03 0. -1.
         -6    1    1    2    0  502  0.16395969972E+03  0.89201419900E+02  0.18178091323E+03  0.31219861764E+03  0.17200000000E+03 0.  1.
</event>
<event>
 4    1 -0.3305908E-004  0.1883717E+03  0.7818608E-02  0.1159938E+00
          5   -1    0    0  501    0  0.00000000000E+00  0.00000000000E+00  0.17510980376E+03  0.17517286712E+03  0.47000000000E+01 0. -1.
         -5   -1    0    0    0  501 -0.00000000000E+00 -0.00000000000E+00 -0.29958888562E+03  0.29962575054E+03  0.47000000000E+01 0.  1.
          6    1    1    2  502    0 -0.76773977937E+02 -0.23759203230E+01  0.72873623996E+02  0.20197636931E+03  0.17200000000E+03 0. -1.
         -6    1    1    2    0  502  0.76773977937E+02  0.23759203230E+01 -0.19735270586E+03  0.27282224835E+03  0.17200000000E+03 0.  1.
</event>
<event>
 4    1 -0.3305908E-004  0.1760606E+03  0.7818608E-02  0.1171671E+00
         -5   -1    0    0    0  501 -0.00000000000E+00  0.00000000000E+00  0.11170084645E+03  0.11179968290E+03  0.47000000000E+01 0.  1.
          5   -1    0    0  501    0  0.00000000000E+00 -0.00000000000E+00 -0.28877070751E+03  0.28880895331E+03  0.47000000000E+01 0. -1.
          6    1    1    2  502    0 -0.35443072740E+02  0.12534546805E+02 -0.12851387566E+03  0.21797509607E+03  0.17200000000E+03 0. -1.
         -6    1    1    2    0  502  0.35443072740E+02 -0.12534546805E+02 -0.48555985403E+02  0.18263354015E+03  0.17200000000E+03 0.  1.
</event>
<event>
 4    1 -0.3305908E-004  0.1826894E+03  0.7818608E-02  0.1165225E+00
          5   -1    0    0  501    0  0.00000000000E+00  0.00000000000E+00  0.61283820282E+03  0.61285622526E+03  0.47000000000E+01 0. -1.
         -5   -1    0    0    0  501 -0.00000000000E+00 -0.00000000000E+00 -0.24532300005E+03  0.24536801820E+03  0.47000000000E+01 0.  1.
          6    1    1    2  502    0  0.49197431962E+02  0.37027393804E+02  0.56226398662E+03  0.59119895624E+03  0.17200000000E+03 0. -1.
         -6    1    1    2    0  502 -0.49197431962E+02 -0.37027393804E+02 -0.19474878385E+03  0.26702528722E+03  0.17200000000E+03 0.  1.
</event>
<event>
 4    1 -0.3305908E-004  0.2667221E+03  0.7818608E-02  0.1103170E+00
          5   -1    0    0  501    0  0.00000000000E+00  0.00000000000E+00  0.78533733426E+03  0.78535139816E+03  0.47000000000E+01 0. -1.
         -5   -1    0    0    0  501 -0.00000000000E+00 -0.00000000000E+00 -0.22485981958E+03  0.22490893371E+03  0.47000000000E+01 0.  1.
          6    1    1    2  502    0 -0.49900691811E+02 -0.19765278977E+03  0.67060228459E+03  0.72169808677E+03  0.17200000000E+03 0. -1.
         -6    1    1    2    0  502  0.49900691811E+02  0.19765278977E+03 -0.11012476992E+03  0.28856224510E+03  0.17200000000E+03 0.  1.
</event>
<event>
 4    1 -0.3305908E-004  0.2343589E+03  0.7818608E-02  0.1123609E+00
          5   -1    0    0  501    0  0.00000000000E+00  0.00000000000E+00  0.64052348492E+02  0.64224554084E+02  0.47000000000E+01 0. -1.
         -5   -1    0    0    0  501 -0.00000000000E+00 -0.00000000000E+00 -0.11097208500E+04  0.11097308029E+04  0.47000000000E+01 0.  1.
          6    1    1    2  502    0 -0.72578592476E+01  0.15902021413E+03 -0.24227691740E+03  0.33707893694E+03  0.17200000000E+03 0. -1.
         -6    1    1    2    0  502  0.72578592476E+01 -0.15902021413E+03 -0.80339158409E+03  0.83687642003E+03  0.17200000000E+03 0.  1.
</event>
<event>
 4    1 -0.3305908E-004  0.2669265E+03  0.7818608E-02  0.1103052E+00
         -5   -1    0    0    0  501 -0.00000000000E+00  0.00000000000E+00  0.64585891047E+03  0.64587601150E+03  0.47000000000E+01 0.  1.
          5   -1    0    0  501    0  0.00000000000E+00 -0.00000000000E+00 -0.13907724455E+03  0.13915663818E+03  0.47000000000E+01 0. -1.
          6    1    1    2  502    0 -0.18997450106E+03  0.74668991861E+02  0.74754295028E+02  0.27719663422E+03  0.17200000000E+03 0. -1.
         -6    1    1    2    0  502  0.18997450106E+03 -0.74668991861E+02  0.43202737089E+03  0.50783601546E+03  0.17200000000E+03 0.  1.
</event>
<event>
 4    1 -0.3305908E-004  0.1821591E+03  0.7818608E-02  0.1165730E+00
         -5   -1    0    0    0  501 -0.00000000000E+00  0.00000000000E+00  0.63209083265E+02  0.63383579949E+02  0.47000000000E+01 0.  1.
          5   -1    0    0  501    0  0.00000000000E+00 -0.00000000000E+00 -0.11567226139E+04  0.11567321624E+04  0.47000000000E+01 0. -1.
          6    1    1    2  502    0  0.20629462738E+01  0.59947388127E+02 -0.99789688179E+03  0.10143865791E+04  0.17200000000E+03 0. -1.
         -6    1    1    2    0  502 -0.20629462738E+01 -0.59947388127E+02 -0.95616648859E+02  0.20572916329E+03  0.17200000000E+03 0.  1.
</event>
<event>
 4    1 -0.3305908E-004  0.2023835E+03  0.7818608E-02  0.1147743E+00
         -5   -1    0    0    0  501 -0.00000000000E+00  0.00000000000E+00  0.20810913405E+03  0.20816220040E+03  0.47000000000E+01 0.  1.
          5   -1    0    0  501    0  0.00000000000E+00 -0.00000000000E+00 -0.21858693634E+03  0.21863745959E+03  0.47000000000E+01 0. -1.
          6    1    1    2  502    0  0.29173662259E+02  0.10258643767E+03 -0.72734880755E+02  0.21505683584E+03  0.17200000000E+03 0. -1.
         -6    1    1    2    0  502 -0.29173662259E+02 -0.10258643767E+03  0.62257078471E+02  0.21174282416E+03  0.17200000000E+03 0.  1.
</event>
<event>
 4    1 -0.3305908E-004  0.3232442E+03  0.7818608E-02  0.1074166E+00
         -5   -1    0    0    0  501 -0.00000000000E+00  0.00000000000E+00  0.92237983201E+03  0.92239180639E+03  0.47000000000E+01 0.  1.
          5   -1    0    0  501    0  0.00000000000E+00 -0.00000000000E+00 -0.12963679810E+03  0.12972196970E+03  0.47000000000E+01 0. -1.
          6    1    1    2  502    0 -0.27214520188E+03 -0.28979237550E+02  0.20923237148E+03  0.38505193467E+03  0.17200000000E+03 0. -1.
         -6    1    1    2    0  502  0.27214520188E+03  0.28979237550E+02  0.58351066243E+03  0.66706184142E+03  0.17200000000E+03 0.  1.
</event>
<event>
 4    1 -0.3305908E-004  0.2224609E+03  0.7818608E-02  0.1132062E+00
          5   -1    0    0  501    0  0.00000000000E+00  0.00000000000E+00  0.39073059384E+03  0.39075886038E+03  0.47000000000E+01 0. -1.
         -5   -1    0    0    0  501 -0.00000000000E+00 -0.00000000000E+00 -0.13800897024E+03  0.13808897808E+03  0.47000000000E+01 0.  1.
          6    1    1    2  502    0  0.10443659078E+03 -0.94857019296E+02  0.20242145905E+03  0.30077117995E+03  0.17200000000E+03 0. -1.
         -6    1    1    2    0  502 -0.10443659078E+03  0.94857019296E+02  0.50300164547E+02  0.22807665851E+03  0.17200000000E+03 0.  1.
</event>
<event>
 4    1 -0.3305908E-004  0.1770094E+03  0.7818608E-02  0.1170729E+00
         -5   -1    0    0    0  501 -0.00000000000E+00  0.00000000000E+00  0.43161729314E+02  0.43416873187E+02  0.47000000000E+01 0.  1.
          5   -1    0    0  501    0  0.00000000000E+00 -0.00000000000E+00 -0.81205820952E+03  0.81207181064E+03  0.47000000000E+01 0. -1.
          6    1    1    2  502    0  0.28714673639E+02  0.30393940937E+02 -0.52565924231E+03  0.55466202606E+03  0.17200000000E+03 0. -1.
         -6    1    1    2    0  502 -0.28714673639E+02 -0.30393940937E+02 -0.24323723790E+03  0.30082665777E+03  0.17200000000E+03 0.  1.
</event>
<event>
 4    1 -0.3305908E-004  0.2165366E+03  0.7818608E-02  0.1136492E+00
         -5   -1    0    0    0  501 -0.00000000000E+00  0.00000000000E+00  0.76802058143E+02  0.76945735002E+02  0.47000000000E+01 0.  1.
          5   -1    0    0  501    0  0.00000000000E+00 -0.00000000000E+00 -0.61068170653E+03  0.61069979261E+03  0.47000000000E+01 0. -1.
          6    1    1    2  502    0 -0.24522234954E+02 -0.12923922077E+03 -0.28012981136E+03  0.35406330988E+03  0.17200000000E+03 0. -1.
         -6    1    1    2    0  502  0.24522234954E+02  0.12923922077E+03 -0.25374983703E+03  0.33358221773E+03  0.17200000000E+03 0. -1.
</event>
<event>
 4    1 -0.3305908E-004  0.3796602E+03  0.7818608E-02  0.1051059E+00
         -5   -1    0    0    0  501 -0.00000000000E+00  0.00000000000E+00  0.14010420955E+04  0.14010499789E+04  0.47000000000E+01 0.  1.
          5   -1    0    0  501    0  0.00000000000E+00 -0.00000000000E+00 -0.11158154690E+03  0.11168048893E+03  0.47000000000E+01 0. -1.
          6    1    1    2  502    0 -0.33426410749E+03 -0.53153894614E+02  0.85657098514E+03  0.93693952987E+03  0.17200000000E+03 0. -1.
         -6    1    1    2    0  502  0.33426410749E+03  0.53153894614E+02  0.43288956344E+03  0.57579093793E+03  0.17200000000E+03 0.  1.
</event>
<event>
 4    1 -0.3305908E-004  0.4466939E+03  0.7818608E-02  0.1028713E+00
          5   -1    0    0  501    0  0.00000000000E+00  0.00000000000E+00  0.11371035385E+03  0.11380744516E+03  0.47000000000E+01 0. -1.
         -5   -1    0    0    0  501 -0.00000000000E+00 -0.00000000000E+00 -0.18137789260E+04  0.18137850155E+04  0.47000000000E+01 0.  1.
          6    1    1    2  502    0 -0.65043073193E+02  0.40708826016E+03 -0.10251172334E+04  0.11182132154E+04  0.17200000000E+03 0. -1.
         -6    1    1    2    0  502  0.65043073193E+02 -0.40708826016E+03 -0.67495133875E+03  0.80937924523E+03  0.17200000000E+03 0.  1.
</event>
<event>
 4    1 -0.3305908E-004  0.2191972E+03  0.7818608E-02  0.1134483E+00
         -5   -1    0    0    0  501 -0.00000000000E+00  0.00000000000E+00  0.88542045964E+02  0.88666701211E+02  0.47000000000E+01 0.  1.
          5   -1    0    0  501    0  0.00000000000E+00 -0.00000000000E+00 -0.68974193778E+03  0.68975795083E+03  0.47000000000E+01 0. -1.
          6    1    1    2  502    0 -0.12321137952E+03  0.57292118148E+02 -0.48063310534E+03  0.52825714646E+03  0.17200000000E+03 0. -1.
         -6    1    1    2    0  502  0.12321137952E+03 -0.57292118148E+02 -0.12056678648E+03  0.25016750558E+03  0.17200000000E+03 0. -1.
</event>
<event>
 4    1 -0.3305908E-004  0.1809873E+03  0.7818608E-02  0.1166851E+00
         -5   -1    0    0    0  501 -0.00000000000E+00  0.00000000000E+00  0.36584835991E+02  0.36885501549E+02  0.47000000000E+01 0.  1.
          5   -1    0    0  501    0  0.00000000000E+00 -0.00000000000E+00 -0.12353780535E+04  0.12353869941E+04  0.47000000000E+01 0. -1.
          6    1    1    2  502    0 -0.98990274045E+01  0.55447271302E+02 -0.93503479587E+03  0.95238986772E+03  0.17200000000E+03 0. -1.
         -6    1    1    2    0  502  0.98990274045E+01 -0.55447271302E+02 -0.26375842165E+03  0.31988262790E+03  0.17200000000E+03 0.  1.
</event>
<event>
 4    1 -0.3305908E-004  0.2097309E+03  0.7818608E-02  0.1141779E+00
         -5   -1    0    0    0  501 -0.00000000000E+00  0.00000000000E+00  0.13098246278E+03  0.13106675992E+03  0.47000000000E+01 0.  1.
          5   -1    0    0  501    0  0.00000000000E+00 -0.00000000000E+00 -0.66294088318E+03  0.66295754358E+03  0.47000000000E+01 0. -1.
          6    1    1    2  502    0 -0.97759858318E+02  0.69613676810E+02 -0.54492557366E+03  0.58389291375E+03  0.17200000000E+03 0. -1.
         -6    1    1    2    0  502  0.97759858318E+02 -0.69613676810E+02  0.12967153266E+02  0.21013138976E+03  0.17200000000E+03 0.  1.
</event>
<event>
 4    1 -0.3305908E-004  0.1897151E+03  0.7818608E-02  0.1158719E+00
          5   -1    0    0  501    0  0.00000000000E+00  0.00000000000E+00  0.45668128578E+03  0.45670547050E+03  0.47000000000E+01 0. -1.
         -5   -1    0    0    0  501 -0.00000000000E+00 -0.00000000000E+00 -0.79223137010E+02  0.79362430896E+02  0.47000000000E+01 0.  1.
          6    1    1    2  502    0 -0.76485843232E+02  0.23616040493E+02  0.21016730402E+03  0.28312911765E+03  0.17200000000E+03 0. -1.
         -6    1    1    2    0  502  0.76485843232E+02 -0.23616040493E+02  0.16729084476E+03  0.25293878375E+03  0.17200000000E+03 0.  1.
</event>
<event>
 4    1 -0.3305908E-004  0.2374364E+03  0.7818608E-02  0.1121513E+00
         -5   -1    0    0    0  501 -0.00000000000E+00  0.00000000000E+00  0.33263941587E+03  0.33267261833E+03  0.47000000000E+01 0.  1.
          5   -1    0    0  501    0  0.00000000000E+00 -0.00000000000E+00 -0.18927672975E+03  0.18933507447E+03  0.47000000000E+01 0. -1.
          6    1    1    2  502    0  0.13777218118E+03 -0.88379053342E+02 -0.12863886580E+02  0.23778458855E+03  0.17200000000E+03 0. -1.
         -6    1    1    2    0  502 -0.13777218118E+03  0.88379053342E+02  0.15622657270E+03  0.28422310425E+03  0.17200000000E+03 0.  1.
</event>
<event>
 4    1 -0.3305908E-004  0.3216793E+03  0.7818608E-02  0.1074879E+00
          5   -1    0    0  501    0  0.00000000000E+00  0.00000000000E+00  0.14196559125E+03  0.14204337049E+03  0.47000000000E+01 0. -1.
         -5   -1    0    0    0  501 -0.00000000000E+00 -0.00000000000E+00 -0.10464748319E+04  0.10464853864E+04  0.47000000000E+01 0.  1.
          6    1    1    2  502    0 -0.59928526793E+02 -0.26514547186E+03 -0.12474811163E+03  0.34502121808E+03  0.17200000000E+03 0. -1.
         -6    1    1    2    0  502  0.59928526793E+02  0.26514547186E+03 -0.77976112906E+03  0.84350753877E+03  0.17200000000E+03 0.  1.
</event>
<event>
 4    1 -0.3305908E-004  0.1770777E+03  0.7818608E-02  0.1170662E+00
         -5   -1    0    0    0  501 -0.00000000000E+00  0.00000000000E+00  0.14461639527E+04  0.14461715902E+04  0.47000000000E+01 0.  1.
          5   -1    0    0  501    0  0.00000000000E+00 -0.00000000000E+00 -0.21503265608E+02  0.22010916196E+02  0.47000000000E+01 0. -1.
          6    1    1    2  502    0 -0.17329116618E+02 -0.38369418624E+02  0.75745629129E+03  0.77787951753E+03  0.17200000000E+03 0.  1.
         -6    1    1    2    0  502  0.17329116618E+02  0.38369418624E+02  0.66720439584E+03  0.69030298884E+03  0.17200000000E+03 0. -1.
</event>
<event>
 4    1 -0.3305908E-004  0.1909319E+03  0.7818608E-02  0.1157623E+00
         -5   -1    0    0    0  501 -0.00000000000E+00  0.00000000000E+00  0.74115491978E+03  0.74116982205E+03  0.47000000000E+01 0.  1.
          5   -1    0    0  501    0  0.00000000000E+00 -0.00000000000E+00 -0.71047784779E+02  0.71203073824E+02  0.47000000000E+01 0. -1.
          6    1    1    2  502    0  0.82836433525E+02 -0.30205871922E+01  0.10940887866E+03  0.22005749566E+03  0.17200000000E+03 0. -1.
         -6    1    1    2    0  502 -0.82836433525E+02  0.30205871922E+01  0.56069825634E+03  0.59231540022E+03  0.17200000000E+03 0.  1.
</event>
<event>
 4    1 -0.3305908E-004  0.1726171E+03  0.7818608E-02  0.1175146E+00
          5   -1    0    0  501    0  0.00000000000E+00  0.00000000000E+00  0.27820776699E+03  0.27824746471E+03  0.47000000000E+01 0. -1.
         -5   -1    0    0    0  501 -0.00000000000E+00 -0.00000000000E+00 -0.12554372619E+03  0.12563167270E+03  0.47000000000E+01 0.  1.
          6    1    1    2  502    0  0.13431945731E+02 -0.56775861092E+01  0.15389433002E+03  0.23125768520E+03  0.17200000000E+03 0. -1.
         -6    1    1    2    0  502 -0.13431945731E+02  0.56775861092E+01 -0.12302892138E+01  0.17262145221E+03  0.17200000000E+03 0.  1.
</event>
<event>
 4    1 -0.3305908E-004  0.3059483E+03  0.7818608E-02  0.1082304E+00
          5   -1    0    0  501    0  0.00000000000E+00  0.00000000000E+00  0.64909207907E+03  0.64910909493E+03  0.47000000000E+01 0. -1.
         -5   -1    0    0    0  501 -0.00000000000E+00 -0.00000000000E+00 -0.27623529553E+03  0.27627527667E+03  0.47000000000E+01 0.  1.
          6    1    1    2  502    0  0.19350841219E+03  0.16301788161E+03  0.50633201278E+03  0.59158806824E+03  0.17200000000E+03 0. -1.
         -6    1    1    2    0  502 -0.19350841219E+03 -0.16301788161E+03 -0.13347522924E+03  0.33379630335E+03  0.17200000000E+03 0.  1.
</event>
<event>
 4    1 -0.3305908E-004  0.2229066E+03  0.7818608E-02  0.1131734E+00
         -5   -1    0    0    0  501 -0.00000000000E+00  0.00000000000E+00  0.15382693412E+03  0.15389871884E+03  0.47000000000E+01 0.  1.
          5   -1    0    0  501    0  0.00000000000E+00 -0.00000000000E+00 -0.33762438761E+03  0.33765709990E+03  0.47000000000E+01 0. -1.
          6    1    1    2  502    0 -0.91580601848E+02 -0.10824197263E+03 -0.14331548018E+03  0.26500312853E+03  0.17200000000E+03 0. -1.
         -6    1    1    2    0  502  0.91580601848E+02  0.10824197263E+03 -0.40481973321E+02  0.22655269020E+03  0.17200000000E+03 0.  1.
</event>
<event>
 4    1 -0.3305908E-004  0.2382253E+03  0.7818608E-02  0.1120981E+00
         -5   -1    0    0    0  501 -0.00000000000E+00  0.00000000000E+00  0.92717811781E+02  0.92836860252E+02  0.47000000000E+01 0.  1.
          5   -1    0    0  501    0  0.00000000000E+00 -0.00000000000E+00 -0.61390855519E+03  0.61392654621E+03  0.47000000000E+01 0. -1.
          6    1    1    2  502    0 -0.15650196284E+03 -0.51714713857E+02 -0.23876504852E+03  0.33728329991E+03  0.17200000000E+03 0. -1.
         -6    1    1    2    0  502  0.15650196284E+03  0.51714713857E+02 -0.28242569489E+03  0.36948010655E+03  0.17200000000E+03 0.  1.
</event>
<event>
 4    1 -0.3305908E-004  0.1789249E+03  0.7818608E-02  0.1168848E+00
          5   -1    0    0  501    0  0.00000000000E+00  0.00000000000E+00  0.40055789344E+03  0.40058546653E+03  0.47000000000E+01 0. -1.
         -5   -1    0    0    0  501 -0.00000000000E+00 -0.00000000000E+00 -0.80771686508E+02  0.80908314414E+02  0.47000000000E+01 0.  1.
          6    1    1    2  502    0 -0.27321762724E+02 -0.41032306572E+02  0.13384785651E+03  0.22344882545E+03  0.17200000000E+03 0.  1.
         -6    1    1    2    0  502  0.27321762724E+02  0.41032306572E+02  0.18593835042E+03  0.25804495550E+03  0.17200000000E+03 0.  1.
</event>
<event>
 4    1 -0.3305908E-004  0.1915208E+03  0.7818608E-02  0.1157097E+00
         -5   -1    0    0    0  501 -0.00000000000E+00  0.00000000000E+00  0.33026465975E+02  0.33359218438E+02  0.47000000000E+01 0.  1.
          5   -1    0    0  501    0  0.00000000000E+00 -0.00000000000E+00 -0.13521962916E+04  0.13522044598E+04  0.47000000000E+01 0. -1.
          6    1    1    2  502    0 -0.35281771756E+02  0.76494587113E+02 -0.95591980812E+03  0.97491687072E+03  0.17200000000E+03 0. -1.
         -6    1    1    2    0  502  0.35281771756E+02 -0.76494587113E+02 -0.36325001753E+03  0.41064680750E+03  0.17200000000E+03 0.  1.
</event>
<event>
 4    1 -0.3305908E-004  0.1668063E+04  0.7818608E-02  0.8779792E-01
         -5   -1    0    0    0  501 -0.00000000000E+00  0.00000000000E+00  0.16024152309E+04  0.16024221236E+04  0.47000000000E+01 0.  1.
          5   -1    0    0  501    0  0.00000000000E+00 -0.00000000000E+00 -0.18191270569E+04  0.18191331285E+04  0.47000000000E+01 0. -1.
          6    1    1    2  502    0  0.13425974066E+04  0.97482477241E+03 -0.47320926098E+03  0.17338864259E+04  0.17200000000E+03 0. -1.
         -6    1    1    2    0  502 -0.13425974066E+04 -0.97482477241E+03  0.25649743497E+03  0.16876688263E+04  0.17200000000E+03 0.  1.
</event>
<event>
 4    1 -0.3305908E-004  0.1876579E+03  0.7818608E-02  0.1160591E+00
          5   -1    0    0  501    0  0.00000000000E+00  0.00000000000E+00  0.94144112073E+02  0.94261359199E+02  0.47000000000E+01 0. -1.
         -5   -1    0    0    0  501 -0.00000000000E+00 -0.00000000000E+00 -0.38021426269E+03  0.38024331099E+03  0.47000000000E+01 0.  1.
          6    1    1    2  502    0  0.60373839344E+02  0.44570068171E+02 -0.11197337668E+03  0.21852580749E+03  0.17200000000E+03 0. -1.
         -6    1    1    2    0  502 -0.60373839344E+02 -0.44570068171E+02 -0.17409677394E+03  0.25597886270E+03  0.17200000000E+03 0.  1.
</event>
<event>
 4    1 -0.3305908E-004  0.1839153E+03  0.7818608E-02  0.1164067E+00
          5   -1    0    0  501    0  0.00000000000E+00  0.00000000000E+00  0.14304147508E+03  0.14311866962E+03  0.47000000000E+01 0. -1.
         -5   -1    0    0    0  501 -0.00000000000E+00 -0.00000000000E+00 -0.23904601671E+03  0.23909221674E+03  0.47000000000E+01 0.  1.
          6    1    1    2  502    0 -0.65077985806E+02 -0.23848349507E+01 -0.68463323772E+02  0.19624489389E+03  0.17200000000E+03 0.  1.
         -6    1    1    2    0  502  0.65077985806E+02  0.23848349507E+01 -0.27541217858E+02  0.18596599247E+03  0.17200000000E+03 0. -1.
</event>
<event>
 4    1 -0.3305908E-004  0.1934738E+03  0.7818608E-02  0.1155365E+00
         -5   -1    0    0    0  501 -0.00000000000E+00  0.00000000000E+00  0.52474427158E+02  0.52684490180E+02  0.47000000000E+01 0.  1.
          5   -1    0    0  501    0  0.00000000000E+00 -0.00000000000E+00 -0.71270640781E+03  0.71272190491E+03  0.47000000000E+01 0. -1.
          6    1    1    2  502    0  0.37447056542E+02  0.80285839415E+02 -0.31571586581E+03  0.37028179267E+03  0.17200000000E+03 0.  1.
         -6    1    1    2    0  502 -0.37447056542E+02 -0.80285839415E+02 -0.34451611484E+03  0.39512460242E+03  0.17200000000E+03 0. -1.
</event>
<event>
 4    1 -0.3305908E-004  0.1928882E+03  0.7818608E-02  0.1155882E+00
         -5   -1    0    0    0  501 -0.00000000000E+00  0.00000000000E+00  0.66605496235E+03  0.66607154486E+03  0.47000000000E+01 0.  1.
          5   -1    0    0  501    0  0.00000000000E+00 -0.00000000000E+00 -0.58128540639E+02  0.58318241030E+02  0.47000000000E+01 0. -1.
          6    1    1    2  502    0  0.69105119615E+02  0.53351104189E+02  0.23073515025E+03  0.30074003298E+03  0.17200000000E+03 0. -1.
         -6    1    1    2    0  502 -0.69105119615E+02 -0.53351104189E+02  0.37719127146E+03  0.42364975291E+03  0.17200000000E+03 0. -1.
</event>
<event>
 4    1 -0.3305908E-004  0.3140109E+03  0.7818608E-02  0.1078439E+00
          5   -1    0    0  501    0  0.00000000000E+00  0.00000000000E+00  0.15246068893E+03  0.15253311663E+03  0.47000000000E+01 0. -1.
         -5   -1    0    0    0  501 -0.00000000000E+00 -0.00000000000E+00 -0.68686767922E+03  0.68688375928E+03  0.47000000000E+01 0.  1.
          6    1    1    2  502    0  0.31661463279E+02 -0.26079959220E+03 -0.36893483319E+03  0.48447475341E+03  0.17200000000E+03 0. -1.
         -6    1    1    2    0  502 -0.31661463279E+02  0.26079959220E+03 -0.16547215710E+03  0.35494212250E+03  0.17200000000E+03 0. -1.
</event>
<event>
 4    1 -0.3305908E-004  0.2414509E+03  0.7818608E-02  0.1118830E+00
          5   -1    0    0  501    0  0.00000000000E+00  0.00000000000E+00  0.13692119314E+03  0.13700183623E+03  0.47000000000E+01 0. -1.
         -5   -1    0    0    0  501 -0.00000000000E+00 -0.00000000000E+00 -0.43485931190E+03  0.43488471018E+03  0.47000000000E+01 0.  1.
          6    1    1    2  502    0  0.11352355742E+03  0.12580510171E+03 -0.10716514100E+03  0.26416451153E+03  0.17200000000E+03 0. -1.
         -6    1    1    2    0  502 -0.11352355742E+03 -0.12580510171E+03 -0.19077297776E+03  0.30772203488E+03  0.17200000000E+03 0.  1.
</event>
<event>
 4    1 -0.3305908E-004  0.1866363E+03  0.7818608E-02  0.1161531E+00
         -5   -1    0    0    0  501 -0.00000000000E+00  0.00000000000E+00  0.52078331408E+02  0.52289985678E+02  0.47000000000E+01 0.  1.
          5   -1    0    0  501    0  0.00000000000E+00 -0.00000000000E+00 -0.67887986749E+03  0.67889613674E+03  0.47000000000E+01 0. -1.
          6    1    1    2  502    0 -0.48047731306E+02 -0.54226530115E+02 -0.36117472205E+03  0.40654677578E+03  0.17200000000E+03 0.  1.
         -6    1    1    2    0  502  0.48047731306E+02  0.54226530115E+02 -0.26562681403E+03  0.32463934664E+03  0.17200000000E+03 0.  1.
</event>
<event>
 4    1 -0.3305908E-004  0.2564112E+03  0.7818608E-02  0.1109319E+00
          5   -1    0    0  501    0  0.00000000000E+00  0.00000000000E+00  0.31648189590E+03  0.31651679328E+03  0.47000000000E+01 0. -1.
         -5   -1    0    0    0  501 -0.00000000000E+00 -0.00000000000E+00 -0.79949781757E+03  0.79951163237E+03  0.47000000000E+01 0.  1.
          6    1    1    2  502    0 -0.41530061106E+02 -0.18557472653E+03  0.23857457733E+03  0.35023499832E+03  0.17200000000E+03 0. -1.
         -6    1    1    2    0  502  0.41530061106E+02  0.18557472653E+03 -0.72159049900E+03  0.76579342734E+03  0.17200000000E+03 0.  1.
</event>
<event>
 4    1 -0.3305908E-004  0.1745056E+03  0.7818608E-02  0.1173229E+00
          5   -1    0    0  501    0  0.00000000000E+00  0.00000000000E+00  0.11586217098E+03  0.11595746058E+03  0.47000000000E+01 0. -1.
         -5   -1    0    0    0  501 -0.00000000000E+00 -0.00000000000E+00 -0.55762760483E+03  0.55764741160E+03  0.47000000000E+01 0.  1.
          6    1    1    2  502    0  0.54793025353E+01 -0.28951167616E+02  0.24068858481E+02  0.17615760787E+03  0.17200000000E+03 0. -1.
         -6    1    1    2    0  502 -0.54793025353E+01  0.28951167616E+02 -0.46583429233E+03  0.49744726431E+03  0.17200000000E+03 0.  1.
</event>
<event>
 4    1 -0.3305908E-004  0.1999617E+03  0.7818608E-02  0.1149771E+00
         -5   -1    0    0    0  501 -0.00000000000E+00  0.00000000000E+00  0.57226064261E+02  0.57418746336E+02  0.47000000000E+01 0.  1.
          5   -1    0    0  501    0  0.00000000000E+00 -0.00000000000E+00 -0.76668699011E+03  0.76670139612E+03  0.47000000000E+01 0. -1.
          6    1    1    2  502    0 -0.89508280654E+02  0.48877060066E+02 -0.47864058782E+03  0.51873067349E+03  0.17200000000E+03 0.  1.
         -6    1    1    2    0  502  0.89508280654E+02 -0.48877060066E+02 -0.23082033803E+03  0.30538946896E+03  0.17200000000E+03 0.  1.
</event>
<event>
 4    1 -0.3305908E-004  0.2445500E+03  0.7818608E-02  0.1116798E+00
          5   -1    0    0  501    0  0.00000000000E+00  0.00000000000E+00  0.40964161841E+03  0.40966858012E+03  0.47000000000E+01 0. -1.
         -5   -1    0    0    0  501 -0.00000000000E+00 -0.00000000000E+00 -0.52783041459E+03  0.52785133946E+03  0.47000000000E+01 0.  1.
          6    1    1    2  502    0 -0.10924965346E+03 -0.13522274720E+03  0.33961029012E+03  0.41849710548E+03  0.17200000000E+03 0. -1.
         -6    1    1    2    0  502  0.10924965346E+03  0.13522274720E+03 -0.45779908630E+03  0.51902281410E+03  0.17200000000E+03 0.  1.
</event>
<event>
 4    1 -0.3305908E-004  0.2668185E+03  0.7818608E-02  0.1103114E+00
         -5   -1    0    0    0  501 -0.00000000000E+00  0.00000000000E+00  0.20306038535E+04  0.20306092928E+04  0.47000000000E+01 0.  1.
          5   -1    0    0  501    0  0.00000000000E+00 -0.00000000000E+00 -0.38462695895E+02  0.38748793213E+02  0.47000000000E+01 0. -1.
          6    1    1    2  502    0 -0.45737251862E+02  0.19878680966E+03  0.68226184548E+03  0.73257990534E+03  0.17200000000E+03 0. -1.
         -6    1    1    2    0  502  0.45737251862E+02 -0.19878680966E+03  0.13098793122E+04  0.13367781807E+04  0.17200000000E+03 0. -1.
</event>
<event>
 4    1 -0.3305908E-004  0.1807907E+03  0.7818608E-02  0.1167040E+00
          5   -1    0    0  501    0  0.00000000000E+00  0.00000000000E+00  0.42012449213E+03  0.42015078114E+03  0.47000000000E+01 0. -1.
         -5   -1    0    0    0  501 -0.00000000000E+00 -0.00000000000E+00 -0.78467036357E+02  0.78607670075E+02  0.47000000000E+01 0.  1.
          6    1    1    2  502    0  0.54111185283E+02 -0.13162493197E+02  0.19547011499E+03  0.26625896690E+03  0.17200000000E+03 0. -1.
         -6    1    1    2    0  502 -0.54111185283E+02  0.13162493197E+02  0.14618734079E+03  0.23249948431E+03  0.17200000000E+03 0. -1.
</event>
<event>
 4    1 -0.3305908E-004  0.2464813E+03  0.7818608E-02  0.1115549E+00
         -5   -1    0    0    0  501 -0.00000000000E+00  0.00000000000E+00  0.11336251302E+03  0.11345990199E+03  0.47000000000E+01 0.  1.
          5   -1    0    0  501    0  0.00000000000E+00 -0.00000000000E+00 -0.71559104091E+03  0.71560647554E+03  0.47000000000E+01 0. -1.
          6    1    1    2  502    0  0.46532458900E+02  0.17030495520E+03 -0.50900770610E+03  0.56554565896E+03  0.17200000000E+03 0. -1.
         -6    1    1    2    0  502 -0.46532458900E+02 -0.17030495520E+03 -0.93220821790E+02  0.26352071857E+03  0.17200000000E+03 0.  1.
</event>
<event>
 4    1 -0.3305908E-004  0.2314128E+03  0.7818608E-02  0.1125649E+00
         -5   -1    0    0    0  501 -0.00000000000E+00  0.00000000000E+00  0.19747590281E+03  0.19753182576E+03  0.47000000000E+01 0.  1.
          5   -1    0    0  501    0  0.00000000000E+00 -0.00000000000E+00 -0.33483652194E+03  0.33486950657E+03  0.47000000000E+01 0. -1.
          6    1    1    2  502    0  0.14222843769E+03  0.61147179252E+02  0.47474755863E+02  0.23623242466E+03  0.17200000000E+03 0.  1.
         -6    1    1    2    0  502 -0.14222843769E+03 -0.61147179252E+02 -0.18483537500E+03  0.29616890767E+03  0.17200000000E+03 0. -1.
</event>
<event>
 4    1 -0.3305908E-004  0.2447312E+03  0.7818608E-02  0.1116681E+00
         -5   -1    0    0    0  501 -0.00000000000E+00  0.00000000000E+00  0.87646866283E+03  0.87648126444E+03  0.47000000000E+01 0.  1.
          5   -1    0    0  501    0  0.00000000000E+00 -0.00000000000E+00 -0.69971292321E+02  0.70128965122E+02  0.47000000000E+01 0. -1.
          6    1    1    2  502    0 -0.15073598934E+02 -0.17344209315E+03  0.47758716082E+03  0.53664035373E+03  0.17200000000E+03 0. -1.
         -6    1    1    2    0  502  0.15073598934E+02  0.17344209315E+03  0.32891020968E+03  0.40996987584E+03  0.17200000000E+03 0.  1.
</event>
<event>
 4    1 -0.3305908E-004  0.2264176E+03  0.7818608E-02  0.1129187E+00
         -5   -1    0    0    0  501 -0.00000000000E+00  0.00000000000E+00  0.57390449153E+03  0.57392373657E+03  0.47000000000E+01 0.  1.
          5   -1    0    0  501    0  0.00000000000E+00 -0.00000000000E+00 -0.96403146218E+02  0.96517649167E+02  0.47000000000E+01 0. -1.
          6    1    1    2  502    0 -0.96516080156E+02 -0.11120066217E+03  0.14746478138E+03  0.27020511236E+03  0.17200000000E+03 0. -1.
         -6    1    1    2    0  502  0.96516080156E+02  0.11120066217E+03  0.33003656393E+03  0.40023627338E+03  0.17200000000E+03 0.  1.
</event>
<event>
 4    1 -0.3305908E-004  0.1927381E+03  0.7818608E-02  0.1156015E+00
          5   -1    0    0  501    0  0.00000000000E+00  0.00000000000E+00  0.68783574549E+03  0.68785180292E+03  0.47000000000E+01 0. -1.
         -5   -1    0    0    0  501 -0.00000000000E+00 -0.00000000000E+00 -0.67216436510E+02  0.67380556076E+02  0.47000000000E+01 0.  1.
          6    1    1    2  502    0  0.57686142027E+02  0.65086885999E+02  0.47821107414E+03  0.51559075354E+03  0.17200000000E+03 0.  1.
         -6    1    1    2    0  502 -0.57686142027E+02 -0.65086885999E+02  0.14240823484E+03  0.23964160545E+03  0.17200000000E+03 0.  1.
</event>
<event>
 4    1 -0.3305908E-004  0.2684921E+03  0.7818608E-02  0.1102146E+00
         -5   -1    0    0    0  501 -0.00000000000E+00  0.00000000000E+00  0.30410196641E+02  0.30771253789E+02  0.47000000000E+01 0.  1.
          5   -1    0    0  501    0  0.00000000000E+00 -0.00000000000E+00 -0.27941621440E+04  0.27941660969E+04  0.47000000000E+01 0. -1.
          6    1    1    2  502    0 -0.11623683403E+03  0.17027336488E+03 -0.19410648583E+04  0.19595460710E+04  0.17200000000E+03 0. -1.
         -6    1    1    2    0  502  0.11623683403E+03 -0.17027336488E+03 -0.82268708910E+03  0.86539127968E+03  0.17200000000E+03 0.  1.
</event>
<event>
 4    1 -0.3305908E-004  0.2006782E+03  0.7818608E-02  0.1149168E+00
          5   -1    0    0  501    0  0.00000000000E+00  0.00000000000E+00  0.95970599727E+03  0.95971750593E+03  0.47000000000E+01 0. -1.
         -5   -1    0    0    0  501 -0.00000000000E+00 -0.00000000000E+00 -0.51521096313E+02  0.51735030350E+02  0.47000000000E+01 0.  1.
          6    1    1    2  502    0  0.62226077520E+01 -0.10319415897E+03  0.67301962826E+03  0.70230134224E+03  0.17200000000E+03 0.  1.
         -6    1    1    2    0  502 -0.62226077520E+01  0.10319415897E+03  0.23516527269E+03  0.30915119404E+03  0.17200000000E+03 0.  1.
</event>
<event>
 4    1 -0.3305908E-004  0.2244130E+03  0.7818608E-02  0.1130635E+00
         -5   -1    0    0    0  501 -0.00000000000E+00  0.00000000000E+00  0.23500702348E+03  0.23505401738E+03  0.47000000000E+01 0.  1.
          5   -1    0    0  501    0  0.00000000000E+00 -0.00000000000E+00 -0.27287936472E+03  0.27291983748E+03  0.47000000000E+01 0. -1.
          6    1    1    2  502    0  0.13724765903E+03 -0.44048700821E+02 -0.13669291685E+03  0.26276636290E+03  0.17200000000E+03 0. -1.
         -6    1    1    2    0  502 -0.13724765903E+03  0.44048700821E+02  0.98820575602E+02  0.24520749196E+03  0.17200000000E+03 0. -1.
</event>
<event>
 4    1 -0.3305908E-004  0.1732357E+03  0.7818608E-02  0.1174515E+00
          5   -1    0    0  501    0  0.00000000000E+00  0.00000000000E+00  0.26714845670E+02  0.27125135560E+02  0.47000000000E+01 0. -1.
         -5   -1    0    0    0  501 -0.00000000000E+00 -0.00000000000E+00 -0.12974343586E+04  0.12974428715E+04  0.47000000000E+01 0.  1.
          6    1    1    2  502    0 -0.18406809731E+02  0.93692128204E+01 -0.38664156755E+03  0.42367711120E+03  0.17200000000E+03 0. -1.
         -6    1    1    2    0  502  0.18406809731E+02 -0.93692128204E+01 -0.88407794539E+03  0.90089089590E+03  0.17200000000E+03 0.  1.
</event>
<event>
 4    1 -0.3305908E-004  0.2153378E+03  0.7818608E-02  0.1137407E+00
          5   -1    0    0  501    0  0.00000000000E+00  0.00000000000E+00  0.72460616593E+03  0.72462140853E+03  0.47000000000E+01 0. -1.
         -5   -1    0    0    0  501 -0.00000000000E+00 -0.00000000000E+00 -0.63941508584E+02  0.64114011885E+02  0.47000000000E+01 0.  1.
          6    1    1    2  502    0 -0.59970656562E+02  0.11484720072E+03  0.31933539739E+03  0.38515640354E+03  0.17200000000E+03 0.  1.
         -6    1    1    2    0  502  0.59970656562E+02 -0.11484720072E+03  0.34132925995E+03  0.40357901688E+03  0.17200000000E+03 0.  1.
</event>
<event>
 4    1 -0.3305908E-004  0.1769258E+03  0.7818608E-02  0.1170812E+00
         -5   -1    0    0    0  501 -0.00000000000E+00  0.00000000000E+00  0.45546549724E+02  0.45788406740E+02  0.47000000000E+01 0.  1.
          5   -1    0    0  501    0  0.00000000000E+00 -0.00000000000E+00 -0.12428344709E+04  0.12428433578E+04  0.47000000000E+01 0. -1.
          6    1    1    2  502    0  0.35636926054E+02 -0.21183725451E+02 -0.10301856976E+04  0.10452680576E+04  0.17200000000E+03 0. -1.
         -6    1    1    2    0  502 -0.35636926054E+02  0.21183725451E+02 -0.16710222351E+03  0.24336370688E+03  0.17200000000E+03 0.  1.
</event>
<event>
 4    1 -0.3305908E-004  0.3015121E+03  0.7818608E-02  0.1084487E+00
         -5   -1    0    0    0  501 -0.00000000000E+00  0.00000000000E+00  0.13688312907E+04  0.13688393596E+04  0.47000000000E+01 0.  1.
          5   -1    0    0  501    0  0.00000000000E+00 -0.00000000000E+00 -0.78008870806E+02  0.78150329011E+02  0.47000000000E+01 0. -1.
          6    1    1    2  502    0  0.26527188455E+02 -0.24621511764E+03  0.36567328918E+03  0.47394781390E+03  0.17200000000E+03 0. -1.
         -6    1    1    2    0  502 -0.26527188455E+02  0.24621511764E+03  0.92514913076E+03  0.97304187476E+03  0.17200000000E+03 0.  1.
</event>
<event>
 4    1 -0.3305908E-004  0.1834597E+03  0.7818608E-02  0.1164496E+00
          5   -1    0    0  501    0  0.00000000000E+00  0.00000000000E+00  0.17262988623E+03  0.17269385519E+03  0.47000000000E+01 0. -1.
         -5   -1    0    0    0  501 -0.00000000000E+00 -0.00000000000E+00 -0.19623217523E+03  0.19628845252E+03  0.47000000000E+01 0.  1.
          6    1    1    2  502    0 -0.26647965471E+02 -0.57994352629E+02  0.37309813487E+01  0.18349762729E+03  0.17200000000E+03 0. -1.
         -6    1    1    2    0  502  0.26647965471E+02  0.57994352629E+02 -0.27333270348E+02  0.18548468041E+03  0.17200000000E+03 0.  1.
</event>
<event>
 4    1 -0.3305908E-004  0.1838901E+03  0.7818608E-02  0.1164090E+00
         -5   -1    0    0    0  501 -0.00000000000E+00  0.00000000000E+00  0.29270369665E+03  0.29274142862E+03  0.47000000000E+01 0.  1.
          5   -1    0    0  501    0  0.00000000000E+00 -0.00000000000E+00 -0.15021725469E+03  0.15029076355E+03  0.47000000000E+01 0. -1.
          6    1    1    2  502    0  0.42284967381E+02 -0.49432453761E+02 -0.35304725333E+02  0.18724852358E+03  0.17200000000E+03 0. -1.
         -6    1    1    2    0  502 -0.42284967381E+02  0.49432453761E+02  0.17779116729E+03  0.25578366859E+03  0.17200000000E+03 0.  1.
</event>
<event>
 4    1 -0.3305908E-004  0.1915849E+03  0.7818608E-02  0.1157040E+00
          5   -1    0    0  501    0  0.00000000000E+00  0.00000000000E+00  0.16014354569E+03  0.16021250021E+03  0.47000000000E+01 0. -1.
         -5   -1    0    0    0  501 -0.00000000000E+00 -0.00000000000E+00 -0.23005742241E+03  0.23010542716E+03  0.47000000000E+01 0.  1.
          6    1    1    2  502    0 -0.67311977269E+02  0.50890825253E+02 -0.22089643999E+02  0.19285416965E+03  0.17200000000E+03 0. -1.
         -6    1    1    2    0  502  0.67311977269E+02 -0.50890825253E+02 -0.47824232729E+02  0.19746375773E+03  0.17200000000E+03 0.  1.
</event>
<event>
 4    1 -0.3305908E-004  0.1721098E+03  0.7818608E-02  0.1175665E+00
          5   -1    0    0  501    0  0.00000000000E+00  0.00000000000E+00  0.75993809753E+03  0.75995263147E+03  0.47000000000E+01 0. -1.
         -5   -1    0    0    0  501 -0.00000000000E+00 -0.00000000000E+00 -0.45212389927E+02  0.45456024935E+02  0.47000000000E+01 0.  1.
          6    1    1    2  502    0  0.61400985177E+01  0.27857725304E+00  0.50829110191E+03  0.53663919229E+03  0.17200000000E+03 0. -1.
         -6    1    1    2    0  502 -0.61400985177E+01 -0.27857725304E+00  0.20643460569E+03  0.26876946412E+03  0.17200000000E+03 0.  1.
</event>
<event>
 4    1 -0.3305908E-004  0.1915434E+03  0.7818608E-02  0.1157077E+00
          5   -1    0    0  501    0  0.00000000000E+00  0.00000000000E+00  0.35503981967E+03  0.35507092750E+03  0.47000000000E+01 0. -1.
         -5   -1    0    0    0  501 -0.00000000000E+00 -0.00000000000E+00 -0.10875068260E+03  0.10885219780E+03  0.47000000000E+01 0.  1.
          6    1    1    2  502    0 -0.83322735929E+02  0.12736145866E+02  0.17528872898E+03  0.25964403756E+03  0.17200000000E+03 0. -1.
         -6    1    1    2    0  502  0.83322735929E+02 -0.12736145866E+02  0.71000408100E+02  0.20427908773E+03  0.17200000000E+03 0.  1.
</event>
<event>
 4    1 -0.3305908E-004  0.2324447E+03  0.7818608E-02  0.1124931E+00
         -5   -1    0    0    0  501 -0.00000000000E+00  0.00000000000E+00  0.34729354319E+03  0.34732534481E+03  0.47000000000E+01 0.  1.
          5   -1    0    0  501    0  0.00000000000E+00 -0.00000000000E+00 -0.23166039860E+03  0.23170807124E+03  0.47000000000E+01 0. -1.
          6    1    1    2  502    0 -0.11501522002E+03  0.10591524202E+03 -0.10815069726E+03  0.25637299516E+03  0.17200000000E+03 0. -1.
         -6    1    1    2    0  502  0.11501522002E+03 -0.10591524202E+03  0.22378384186E+03  0.32266042089E+03  0.17200000000E+03 0.  1.
</event>
<event>
 4    1 -0.3305908E-004  0.1904880E+03  0.7818608E-02  0.1158022E+00
         -5   -1    0    0    0  501 -0.00000000000E+00  0.00000000000E+00  0.86787393292E+02  0.86914565145E+02  0.47000000000E+01 0.  1.
          5   -1    0    0  501    0  0.00000000000E+00 -0.00000000000E+00 -0.43178394941E+03  0.43180952858E+03  0.47000000000E+01 0. -1.
          6    1    1    2  502    0 -0.71827429300E+02  0.39274567210E+02 -0.12558469297E+03  0.22816043991E+03  0.17200000000E+03 0.  1.
         -6    1    1    2    0  502  0.71827429300E+02 -0.39274567210E+02 -0.21941186315E+03  0.29056365382E+03  0.17200000000E+03 0. -1.
</event>
<event>
 4    1 -0.3305908E-004  0.3459306E+03  0.7818608E-02  0.1064298E+00
         -5   -1    0    0    0  501 -0.00000000000E+00  0.00000000000E+00  0.21431255551E+03  0.21436408619E+03  0.47000000000E+01 0.  1.
          5   -1    0    0  501    0  0.00000000000E+00 -0.00000000000E+00 -0.56048375301E+03  0.56050345885E+03  0.47000000000E+01 0. -1.
          6    1    1    2  502    0 -0.23851679835E+03 -0.18219146495E+03 -0.14864019183E+03  0.37651281469E+03  0.17200000000E+03 0. -1.
         -6    1    1    2    0  502  0.23851679835E+03  0.18219146495E+03 -0.19753100567E+03  0.39835473036E+03  0.17200000000E+03 0.  1.
</event>
<event>
 4    1 -0.3305908E-004  0.2762342E+03  0.7818608E-02  0.1097764E+00
         -5   -1    0    0    0  501 -0.00000000000E+00  0.00000000000E+00  0.74699357927E+02  0.74847071251E+02  0.47000000000E+01 0.  1.
          5   -1    0    0  501    0  0.00000000000E+00 -0.00000000000E+00 -0.13076136840E+04  0.13076221307E+04  0.47000000000E+01 0. -1.
          6    1    1    2  502    0  0.20256805720E+03  0.75415549375E+02 -0.94043093156E+03  0.98016103775E+03  0.17200000000E+03 0. -1.
         -6    1    1    2    0  502 -0.20256805720E+03 -0.75415549375E+02 -0.29248339453E+03  0.40230816418E+03  0.17200000000E+03 0.  1.
</event>
<event>
 4    1 -0.3305908E-004  0.1917598E+03  0.7818608E-02  0.1156884E+00
         -5   -1    0    0    0  501 -0.00000000000E+00  0.00000000000E+00  0.30977079099E+03  0.30980644434E+03  0.47000000000E+01 0.  1.
          5   -1    0    0  501    0  0.00000000000E+00 -0.00000000000E+00 -0.11879707627E+03  0.11889001359E+03  0.47000000000E+01 0. -1.
          6    1    1    2  502    0 -0.30446094878E+02  0.79125601181E+02  0.87158423766E+02  0.21063811689E+03  0.17200000000E+03 0. -1.
         -6    1    1    2    0  502  0.30446094878E+02 -0.79125601181E+02  0.10381529096E+03  0.21805834103E+03  0.17200000000E+03 0.  1.
</event>
<event>
 4    1 -0.3305908E-004  0.2060625E+03  0.7818608E-02  0.1144723E+00
          5   -1    0    0  501    0  0.00000000000E+00  0.00000000000E+00  0.78423486456E+03  0.78424894822E+03  0.47000000000E+01 0. -1.
         -5   -1    0    0    0  501 -0.00000000000E+00 -0.00000000000E+00 -0.57899428039E+02  0.58089876633E+02  0.47000000000E+01 0.  1.
          6    1    1    2  502    0  0.11279470593E+03  0.12453625044E+02  0.25445299261E+03  0.32742642519E+03  0.17200000000E+03 0. -1.
         -6    1    1    2    0  502 -0.11279470593E+03 -0.12453625044E+02  0.47188244391E+03  0.51491239967E+03  0.17200000000E+03 0.  1.
</event>
<event>
 4    1 -0.3305908E-004  0.2781489E+03  0.7818608E-02  0.1096704E+00
         -5   -1    0    0    0  501 -0.00000000000E+00  0.00000000000E+00  0.29153619600E+03  0.29157407906E+03  0.47000000000E+01 0.  1.
          5   -1    0    0  501    0  0.00000000000E+00 -0.00000000000E+00 -0.28297392617E+03  0.28301295534E+03  0.47000000000E+01 0. -1.
          6    1    1    2  502    0  0.12059409997E+03  0.18231805979E+03 -0.67507230626E+02  0.28622375523E+03  0.17200000000E+03 0. -1.
         -6    1    1    2    0  502 -0.12059409997E+03 -0.18231805979E+03  0.76069500459E+02  0.28836327917E+03  0.17200000000E+03 0.  1.
</event>
<event>
 4    1 -0.3305908E-004  0.2630617E+03  0.7818608E-02  0.1105318E+00
          5   -1    0    0  501    0  0.00000000000E+00  0.00000000000E+00  0.20114450527E+04  0.20114505438E+04  0.47000000000E+01 0. -1.
         -5   -1    0    0    0  501 -0.00000000000E+00 -0.00000000000E+00 -0.48262843297E+02  0.48491154276E+02  0.47000000000E+01 0.  1.
          6    1    1    2  502    0 -0.17906597389E+03 -0.86907148434E+02  0.15352137532E+04  0.15575887594E+04  0.17200000000E+03 0. -1.
         -6    1    1    2    0  502  0.17906597389E+03  0.86907148434E+02  0.42796845630E+03  0.50235293872E+03  0.17200000000E+03 0.  1.
</event>
<event>
 4    1 -0.3305908E-004  0.2028574E+03  0.7818608E-02  0.1147350E+00
         -5   -1    0    0    0  501 -0.00000000000E+00  0.00000000000E+00  0.35975877626E+03  0.35978947607E+03  0.47000000000E+01 0.  1.
          5   -1    0    0  501    0  0.00000000000E+00 -0.00000000000E+00 -0.16547068762E+03  0.16553742314E+03  0.47000000000E+01 0. -1.
          6    1    1    2  502    0 -0.93973671214E+02  0.52307409388E+02 -0.48870551717E+02  0.20866108114E+03  0.17200000000E+03 0. -1.
         -6    1    1    2    0  502  0.93973671214E+02 -0.52307409388E+02  0.24315864035E+03  0.31666581808E+03  0.17200000000E+03 0.  1.
</event>
<event>
 4    1 -0.3305908E-004  0.3017036E+03  0.7818608E-02  0.1084392E+00
          5   -1    0    0  501    0  0.00000000000E+00  0.00000000000E+00  0.86979095218E+03  0.86980365054E+03  0.47000000000E+01 0. -1.
         -5   -1    0    0    0  501 -0.00000000000E+00 -0.00000000000E+00 -0.16275135221E+03  0.16281920233E+03  0.47000000000E+01 0.  1.
          6    1    1    2  502    0 -0.23273527643E+03 -0.85295641258E+02  0.66208805226E+03  0.72758892532E+03  0.17200000000E+03 0. -1.
         -6    1    1    2    0  502  0.23273527643E+03  0.85295641258E+02  0.44951547715E+02  0.30503392755E+03  0.17200000000E+03 0.  1.
</event>
<event>
 4    1 -0.3305908E-004  0.1986405E+03  0.7818608E-02  0.1150891E+00
          5   -1    0    0  501    0  0.00000000000E+00  0.00000000000E+00  0.17221144493E+03  0.17227556926E+03  0.47000000000E+01 0. -1.
         -5   -1    0    0    0  501 -0.00000000000E+00 -0.00000000000E+00 -0.23907271680E+03  0.23911891167E+03  0.47000000000E+01 0.  1.
          6    1    1    2  502    0  0.95687515820E+02 -0.26794676721E+02  0.87923689382E+01  0.19883500983E+03  0.17200000000E+03 0.  1.
         -6    1    1    2    0  502 -0.95687515820E+02  0.26794676721E+02 -0.75653640808E+02  0.21255947109E+03  0.17200000000E+03 0.  1.
</event>
<event>
 4    1 -0.3305908E-004  0.1729889E+03  0.7818608E-02  0.1174766E+00
         -5   -1    0    0    0  501 -0.00000000000E+00  0.00000000000E+00  0.44841887002E+02  0.45087524105E+02  0.47000000000E+01 0.  1.
          5   -1    0    0  501    0  0.00000000000E+00 -0.00000000000E+00 -0.71115173667E+03  0.71116726764E+03  0.47000000000E+01 0. -1.
          6    1    1    2  502    0 -0.49512118416E+01 -0.17794482190E+02 -0.42918112440E+03  0.46273274753E+03  0.17200000000E+03 0. -1.
         -6    1    1    2    0  502  0.49512118416E+01  0.17794482190E+02 -0.23712872527E+03  0.29352204422E+03  0.17200000000E+03 0.  1.
</event>
<event>
 4    1 -0.3305908E-004  0.2108250E+03  0.7818608E-02  0.1140914E+00
          5   -1    0    0  501    0  0.00000000000E+00  0.00000000000E+00  0.72007950263E+02  0.72161173086E+02  0.47000000000E+01 0. -1.
         -5   -1    0    0    0  501 -0.00000000000E+00 -0.00000000000E+00 -0.80460373390E+03  0.80461746103E+03  0.47000000000E+01 0.  1.
          6    1    1    2  502    0  0.63290826255E+02  0.10419917636E+03 -0.15431729604E+03  0.26126810923E+03  0.17200000000E+03 0. -1.
         -6    1    1    2    0  502 -0.63290826255E+02 -0.10419917636E+03 -0.57827848759E+03  0.61551052489E+03  0.17200000000E+03 0.  1.
</event>
<event>
 4    1 -0.3305908E-004  0.1829973E+03  0.7818608E-02  0.1164933E+00
         -5   -1    0    0    0  501 -0.00000000000E+00  0.00000000000E+00  0.15019598721E+03  0.15026950647E+03  0.47000000000E+01 0.  1.
          5   -1    0    0  501    0  0.00000000000E+00 -0.00000000000E+00 -0.27161957048E+03  0.27166023093E+03  0.47000000000E+01 0. -1.
          6    1    1    2  502    0  0.62482028456E+02  0.14313931711E+00 -0.15012266181E+03  0.23669566527E+03  0.17200000000E+03 0. -1.
         -6    1    1    2    0  502 -0.62482028456E+02 -0.14313931711E+00  0.28699078539E+02  0.18523407213E+03  0.17200000000E+03 0.  1.
</event>
<event>
 4    1 -0.3305908E-004  0.2341138E+03  0.7818608E-02  0.1123777E+00
          5   -1    0    0  501    0  0.00000000000E+00  0.00000000000E+00  0.20363826791E+03  0.20369249902E+03  0.47000000000E+01 0. -1.
         -5   -1    0    0    0  501 -0.00000000000E+00 -0.00000000000E+00 -0.27131615071E+03  0.27135685662E+03  0.47000000000E+01 0.  1.
          6    1    1    2  502    0 -0.15501942720E+03 -0.34558018022E+02 -0.12085231968E+02  0.23442553669E+03  0.17200000000E+03 0. -1.
         -6    1    1    2    0  502  0.15501942720E+03  0.34558018022E+02 -0.55592650828E+02  0.24062381895E+03  0.17200000000E+03 0. -1.
</event>
<event>
 4    1 -0.3305908E-004  0.3896725E+03  0.7818608E-02  0.1047416E+00
         -5   -1    0    0    0  501 -0.00000000000E+00  0.00000000000E+00  0.43882835521E+03  0.43885352378E+03  0.47000000000E+01 0.  1.
          5   -1    0    0  501    0  0.00000000000E+00 -0.00000000000E+00 -0.52694162400E+03  0.52696258416E+03  0.47000000000E+01 0. -1.
          6    1    1    2  502    0  0.23573484421E+03 -0.25824364344E+03 -0.32704257248E+03  0.50872540763E+03  0.17200000000E+03 0. -1.
         -6    1    1    2    0  502 -0.23573484421E+03  0.25824364344E+03  0.23892930369E+03  0.45709070031E+03  0.17200000000E+03 0. -1.
</event>
<event>
 4    1 -0.3305908E-004  0.2362702E+03  0.7818608E-02  0.1122303E+00
         -5   -1    0    0    0  501 -0.00000000000E+00  0.00000000000E+00  0.62503725105E+03  0.62505492174E+03  0.47000000000E+01 0.  1.
          5   -1    0    0  501    0  0.00000000000E+00 -0.00000000000E+00 -0.93638982822E+02  0.93756861637E+02  0.47000000000E+01 0. -1.
          6    1    1    2  502    0  0.14362735611E+03  0.74905185733E+02  0.18778374240E+03  0.30180513280E+03  0.17200000000E+03 0. -1.
         -6    1    1    2    0  502 -0.14362735611E+03 -0.74905185733E+02  0.34361452582E+03  0.41700665058E+03  0.17200000000E+03 0.  1.
</event>
<event>
 4    1 -0.3305908E-004  0.2162798E+03  0.7818608E-02  0.1136687E+00
          5   -1    0    0  501    0  0.00000000000E+00  0.00000000000E+00  0.24943366151E+03  0.24947793789E+03  0.47000000000E+01 0. -1.
         -5   -1    0    0    0  501 -0.00000000000E+00 -0.00000000000E+00 -0.47636142118E+03  0.47638460679E+03  0.47000000000E+01 0.  1.
          6    1    1    2  502    0  0.47081771253E+01 -0.13103733465E+03  0.16915774327E+03  0.27457474777E+03  0.17200000000E+03 0. -1.
         -6    1    1    2    0  502 -0.47081771253E+01  0.13103733465E+03 -0.39608550294E+03  0.45128779691E+03  0.17200000000E+03 0.  1.
</event>
<event>
 4    1 -0.3305908E-004  0.2067524E+03  0.7818608E-02  0.1144164E+00
          5   -1    0    0  501    0  0.00000000000E+00  0.00000000000E+00  0.69441914701E+03  0.69443505221E+03  0.47000000000E+01 0. -1.
         -5   -1    0    0    0  501 -0.00000000000E+00 -0.00000000000E+00 -0.82758274241E+02  0.82891627776E+02  0.47000000000E+01 0.  1.
          6    1    1    2  502    0 -0.27788924145E+02  0.11131183178E+03  0.50283707987E+03  0.54368343463E+03  0.17200000000E+03 0. -1.
         -6    1    1    2    0  502  0.27788924145E+02 -0.11131183178E+03  0.10882379290E+03  0.23364324536E+03  0.17200000000E+03 0.  1.
</event>
<event>
 4    1 -0.3305908E-004  0.2173239E+03  0.7818608E-02  0.1135894E+00
          5   -1    0    0  501    0  0.00000000000E+00  0.00000000000E+00  0.58752573923E+03  0.58754453810E+03  0.47000000000E+01 0. -1.
         -5   -1    0    0    0  501 -0.00000000000E+00 -0.00000000000E+00 -0.83099525003E+02  0.83232331793E+02  0.47000000000E+01 0.  1.
          6    1    1    2  502    0  0.68589976291E+02  0.11375898321E+03  0.19069618800E+03  0.28912752762E+03  0.17200000000E+03 0.  1.
         -6    1    1    2    0  502 -0.68589976291E+02 -0.11375898321E+03  0.31373002623E+03  0.38164934228E+03  0.17200000000E+03 0.  1.
</event>
<event>
 4    1 -0.3305908E-004  0.4100562E+03  0.7818608E-02  0.1040352E+00
          5   -1    0    0  501    0  0.00000000000E+00  0.00000000000E+00  0.43346438463E+03  0.43348986463E+03  0.47000000000E+01 0. -1.
         -5   -1    0    0    0  501 -0.00000000000E+00 -0.00000000000E+00 -0.43702646364E+03  0.43705173598E+03  0.47000000000E+01 0.  1.
          6    1    1    2  502    0  0.31744491566E+03  0.19439856823E+03 -0.14776657478E+03  0.43586814340E+03  0.17200000000E+03 0. -1.
         -6    1    1    2    0  502 -0.31744491566E+03 -0.19439856823E+03  0.14420449577E+03  0.43467345721E+03  0.17200000000E+03 0.  1.
</event>
<event>
 4    1 -0.3305908E-004  0.2622304E+03  0.7818608E-02  0.1105811E+00
          5   -1    0    0  501    0  0.00000000000E+00  0.00000000000E+00  0.13125167186E+03  0.13133579621E+03  0.47000000000E+01 0. -1.
         -5   -1    0    0    0  501 -0.00000000000E+00 -0.00000000000E+00 -0.57631468080E+03  0.57633384536E+03  0.47000000000E+01 0.  1.
          6    1    1    2  502    0 -0.17939985830E+03 -0.83644867397E+02 -0.32948113031E+03  0.42109688699E+03  0.17200000000E+03 0. -1.
         -6    1    1    2    0  502  0.17939985830E+03  0.83644867397E+02 -0.11558187863E+03  0.28657275458E+03  0.17200000000E+03 0.  1.
</event>
<event>
 4    1 -0.3305908E-004  0.2264370E+03  0.7818608E-02  0.1129173E+00
         -5   -1    0    0    0  501 -0.00000000000E+00  0.00000000000E+00  0.17523265625E+03  0.17529567541E+03  0.47000000000E+01 0.  1.
          5   -1    0    0  501    0  0.00000000000E+00 -0.00000000000E+00 -0.39261609939E+03  0.39264423019E+03  0.47000000000E+01 0. -1.
          6    1    1    2  502    0  0.11567110216E+03  0.91158697217E+02 -0.25209338181E+03  0.33885806041E+03  0.17200000000E+03 0. -1.
         -6    1    1    2    0  502 -0.11567110216E+03 -0.91158697217E+02  0.34709938669E+02  0.22908184519E+03  0.17200000000E+03 0.  1.
</event>
<event>
 4    1 -0.3305908E-004  0.1897102E+03  0.7818608E-02  0.1158723E+00
          5   -1    0    0  501    0  0.00000000000E+00  0.00000000000E+00  0.34708389736E+02  0.35025166925E+02  0.47000000000E+01 0. -1.
         -5   -1    0    0    0  501 -0.00000000000E+00 -0.00000000000E+00 -0.14108238199E+04  0.14108316486E+04  0.47000000000E+01 0.  1.
          6    1    1    2  502    0  0.73580856718E+02 -0.31493188729E+02 -0.31343892254E+03  0.36637947756E+03  0.17200000000E+03 0. -1.
         -6    1    1    2    0  502 -0.73580856718E+02  0.31493188729E+02 -0.10626765076E+04  0.10794773380E+04  0.17200000000E+03 0.  1.
</event>
<event>
 4    1 -0.3305908E-004  0.1764112E+03  0.7818608E-02  0.1171322E+00
          5   -1    0    0  501    0  0.00000000000E+00  0.00000000000E+00  0.23501399120E+03  0.23506098370E+03  0.47000000000E+01 0. -1.
         -5   -1    0    0    0  501 -0.00000000000E+00 -0.00000000000E+00 -0.13430086544E+03  0.13438308099E+03  0.47000000000E+01 0.  1.
          6    1    1    2  502    0  0.31417649038E+02 -0.23448927700E+02  0.27931184024E+02  0.17860871178E+03  0.17200000000E+03 0. -1.
         -6    1    1    2    0  502 -0.31417649038E+02  0.23448927700E+02  0.72781941734E+02  0.19083535292E+03  0.17200000000E+03 0. -1.
</event>
<event>
 4    1 -0.3305908E-004  0.4265251E+03  0.7818608E-02  0.1034963E+00
         -5   -1    0    0    0  501 -0.00000000000E+00  0.00000000000E+00  0.79787334623E+03  0.79788718916E+03  0.47000000000E+01 0.  1.
          5   -1    0    0  501    0  0.00000000000E+00 -0.00000000000E+00 -0.35207895053E+03  0.35211031994E+03  0.47000000000E+01 0. -1.
          6    1    1    2  502    0  0.38965334714E+03 -0.22581781790E+02 -0.11846396583E+03  0.44267073430E+03  0.17200000000E+03 0. -1.
         -6    1    1    2    0  502 -0.38965334714E+03  0.22581781790E+02  0.56425836153E+03  0.70732677481E+03  0.17200000000E+03 0.  1.
</event>
<event>
 4    1 -0.3305908E-004  0.2976041E+03  0.7818608E-02  0.1086444E+00
          5   -1    0    0  501    0  0.00000000000E+00  0.00000000000E+00  0.25281032863E+03  0.25285401373E+03  0.47000000000E+01 0. -1.
         -5   -1    0    0    0  501 -0.00000000000E+00 -0.00000000000E+00 -0.35565933839E+03  0.35569039203E+03  0.47000000000E+01 0.  1.
          6    1    1    2  502    0 -0.22751280167E+03  0.84983230150E+02 -0.13886268609E+02  0.29792793220E+03  0.17200000000E+03 0. -1.
         -6    1    1    2    0  502  0.22751280167E+03 -0.84983230150E+02 -0.88962741151E+02  0.31061647356E+03  0.17200000000E+03 0. -1.
</event>
<event>
 4    1 -0.3305908E-004  0.1970414E+03  0.7818608E-02  0.1152259E+00
         -5   -1    0    0    0  501 -0.00000000000E+00  0.00000000000E+00  0.34068083319E+03  0.34071325202E+03  0.47000000000E+01 0.  1.
          5   -1    0    0  501    0  0.00000000000E+00 -0.00000000000E+00 -0.13650782404E+03  0.13658871119E+03  0.47000000000E+01 0. -1.
          6    1    1    2  502    0  0.85247648490E+02 -0.44431241302E+02  0.49602484358E+01  0.19710378190E+03  0.17200000000E+03 0. -1.
         -6    1    1    2    0  502 -0.85247648490E+02  0.44431241302E+02  0.19921276072E+03  0.28019818131E+03  0.17200000000E+03 0.  1.
</event>
<event>
 4    1 -0.3305908E-004  0.1912612E+03  0.7818608E-02  0.1157329E+00
          5   -1    0    0  501    0  0.00000000000E+00  0.00000000000E+00  0.14193272190E+03  0.14201051914E+03  0.47000000000E+01 0. -1.
         -5   -1    0    0    0  501 -0.00000000000E+00 -0.00000000000E+00 -0.31213306963E+03  0.31216845317E+03  0.47000000000E+01 0.  1.
          6    1    1    2  502    0  0.80532281348E+02 -0.22614426364E+02  0.98332793488E+01  0.19151384807E+03  0.17200000000E+03 0. -1.
         -6    1    1    2    0  502 -0.80532281348E+02  0.22614426364E+02 -0.18003362707E+03  0.26266512425E+03  0.17200000000E+03 0.  1.
</event>
<event>
 4    1 -0.3305908E-004  0.1918048E+03  0.7818608E-02  0.1156844E+00
         -5   -1    0    0    0  501 -0.00000000000E+00  0.00000000000E+00  0.88282259926E+02  0.88407281474E+02  0.47000000000E+01 0.  1.
          5   -1    0    0  501    0  0.00000000000E+00 -0.00000000000E+00 -0.43922688615E+03  0.43925203188E+03  0.47000000000E+01 0. -1.
          6    1    1    2  502    0 -0.82196189117E+02 -0.21186708234E+02 -0.11518995098E+03  0.22373603849E+03  0.17200000000E+03 0.  1.
         -6    1    1    2    0  502  0.82196189117E+02  0.21186708234E+02 -0.23575467524E+03  0.30392327487E+03  0.17200000000E+03 0. -1.
</event>
<event>
 4    1 -0.3305908E-004  0.2863612E+03  0.7818608E-02  0.1092264E+00
         -5   -1    0    0    0  501 -0.00000000000E+00  0.00000000000E+00  0.97965190417E+02  0.98077869743E+02  0.47000000000E+01 0.  1.
          5   -1    0    0  501    0  0.00000000000E+00 -0.00000000000E+00 -0.19556379076E+04  0.19556435554E+04  0.47000000000E+01 0. -1.
          6    1    1    2  502    0 -0.70975928820E+02 -0.21767209309E+03 -0.17056260212E+04  0.17294978598E+04  0.17200000000E+03 0. -1.
         -6    1    1    2    0  502  0.70975928820E+02  0.21767209309E+03 -0.15204669594E+03  0.32422356535E+03  0.17200000000E+03 0.  1.
</event>
<event>
 4    1 -0.3305908E-004  0.3036336E+03  0.7818608E-02  0.1083438E+00
         -5   -1    0    0    0  501 -0.00000000000E+00  0.00000000000E+00  0.12400940606E+04  0.12401029672E+04  0.47000000000E+01 0.  1.
          5   -1    0    0  501    0  0.00000000000E+00 -0.00000000000E+00 -0.78823941639E+02  0.78963939716E+02  0.47000000000E+01 0. -1.
          6    1    1    2  502    0 -0.16062257373E+03 -0.19185860320E+03  0.73917515379E+03  0.79910777921E+03  0.17200000000E+03 0. -1.
         -6    1    1    2    0  502  0.16062257373E+03  0.19185860320E+03  0.42209496519E+03  0.51995912768E+03  0.17200000000E+03 0.  1.
</event>
<event>
 4    1 -0.3305908E-004  0.1885104E+03  0.7818608E-02  0.1159812E+00
         -5   -1    0    0    0  501 -0.00000000000E+00  0.00000000000E+00  0.69312535471E+03  0.69314128960E+03  0.47000000000E+01 0.  1.
          5   -1    0    0  501    0  0.00000000000E+00 -0.00000000000E+00 -0.59174579979E+02  0.59360937625E+02  0.47000000000E+01 0. -1.
          6    1    1    2  502    0  0.72584104126E+02 -0.26147980722E+02  0.17863247653E+03  0.25970315889E+03  0.17200000000E+03 0. -1.
         -6    1    1    2    0  502 -0.72584104126E+02  0.26147980722E+02  0.45531829820E+03  0.49279906833E+03  0.17200000000E+03 0.  1.
</event>
<event>
 4    1 -0.3305908E-004  0.1754765E+03  0.7818608E-02  0.1172254E+00
         -5   -1    0    0    0  501 -0.00000000000E+00  0.00000000000E+00  0.17232449055E+03  0.17238857283E+03  0.47000000000E+01 0.  1.
          5   -1    0    0  501    0  0.00000000000E+00 -0.00000000000E+00 -0.26520638593E+03  0.26524802947E+03  0.47000000000E+01 0. -1.
          6    1    1    2  502    0  0.34700234899E+02 -0.19706928422E+01 -0.17148913530E+03  0.24535792928E+03  0.17200000000E+03 0. -1.
         -6    1    1    2    0  502 -0.34700234899E+02  0.19706928422E+01  0.78607239916E+02  0.19227867302E+03  0.17200000000E+03 0.  1.
</event>
<event>
 4    1 -0.3305908E-004  0.1873888E+03  0.7818608E-02  0.1160838E+00
         -5   -1    0    0    0  501 -0.00000000000E+00  0.00000000000E+00  0.79614103055E+02  0.79752714093E+02  0.47000000000E+01 0.  1.
          5   -1    0    0  501    0  0.00000000000E+00 -0.00000000000E+00 -0.44654781008E+03  0.44657254359E+03  0.47000000000E+01 0. -1.
          6    1    1    2  502    0  0.38087781481E+02  0.63873961958E+02 -0.21402434107E+03  0.28446613276E+03  0.17200000000E+03 0.  1.
         -6    1    1    2    0  502 -0.38087781481E+02 -0.63873961958E+02 -0.15290936596E+03  0.24185912493E+03  0.17200000000E+03 0. -1.
</event>
<event>
 4    1 -0.3305908E-004  0.2363011E+03  0.7818608E-02  0.1122282E+00
         -5   -1    0    0    0  501 -0.00000000000E+00  0.00000000000E+00  0.13379447009E+03  0.13387699663E+03  0.47000000000E+01 0.  1.
          5   -1    0    0  501    0  0.00000000000E+00 -0.00000000000E+00 -0.49170018065E+03  0.49172264301E+03  0.47000000000E+01 0. -1.
          6    1    1    2  502    0  0.13234401174E+03 -0.93484109769E+02 -0.30076323720E+03  0.38248756983E+03  0.17200000000E+03 0. -1.
         -6    1    1    2    0  502 -0.13234401174E+03  0.93484109769E+02 -0.57142473358E+02  0.24311206981E+03  0.17200000000E+03 0.  1.
</event>
<event>
 4    1 -0.3305908E-004  0.2290386E+03  0.7818608E-02  0.1127318E+00
          5   -1    0    0  501    0  0.00000000000E+00  0.00000000000E+00  0.12952328742E+03  0.12960853361E+03  0.47000000000E+01 0. -1.
         -5   -1    0    0    0  501 -0.00000000000E+00 -0.00000000000E+00 -0.42366571464E+03  0.42369178392E+03  0.47000000000E+01 0.  1.
          6    1    1    2  502    0  0.44608098452E+01  0.15117804126E+03 -0.88671438905E+02  0.24560399643E+03  0.17200000000E+03 0. -1.
         -6    1    1    2    0  502 -0.44608098452E+01 -0.15117804126E+03 -0.20547098832E+03  0.30769632111E+03  0.17200000000E+03 0.  1.
</event>
<event>
 4    1 -0.3305908E-004  0.2445372E+03  0.7818608E-02  0.1116807E+00
         -5   -1    0    0    0  501 -0.00000000000E+00  0.00000000000E+00  0.21693436709E+03  0.21698527514E+03  0.47000000000E+01 0.  1.
          5   -1    0    0  501    0  0.00000000000E+00 -0.00000000000E+00 -0.27562392745E+03  0.27566399726E+03  0.47000000000E+01 0. -1.
          6    1    1    2  502    0  0.15156057807E+03  0.85110634631E+02 -0.25280827371E+02  0.24584049542E+03  0.17200000000E+03 0. -1.
         -6    1    1    2    0  502 -0.15156057807E+03 -0.85110634631E+02 -0.33408732986E+02  0.24680877698E+03  0.17200000000E+03 0.  1.
</event>
<event>
 4    1 -0.3305908E-004  0.3309985E+03  0.7818608E-02  0.1070696E+00
          5   -1    0    0  501    0  0.00000000000E+00  0.00000000000E+00  0.20946424523E+03  0.20951696836E+03  0.47000000000E+01 0. -1.
         -5   -1    0    0    0  501 -0.00000000000E+00 -0.00000000000E+00 -0.75189834831E+03  0.75191303765E+03  0.47000000000E+01 0.  1.
          6    1    1    2  502    0 -0.21639457261E+03 -0.18206966750E+03 -0.59487083312E+01  0.33105190229E+03  0.17200000000E+03 0. -1.
         -6    1    1    2    0  502  0.21639457261E+03  0.18206966750E+03 -0.53648539474E+03  0.63037810372E+03  0.17200000000E+03 0.  1.
</event>
<event>
 4    1 -0.3305908E-004  0.4472502E+03  0.7818608E-02  0.1028545E+00
         -5   -1    0    0    0  501 -0.00000000000E+00  0.00000000000E+00  0.55220355680E+03  0.55222355812E+03  0.47000000000E+01 0.  1.
          5   -1    0    0  501    0  0.00000000000E+00 -0.00000000000E+00 -0.57800076262E+03  0.57801987128E+03  0.47000000000E+01 0. -1.
          6    1    1    2  502    0 -0.40634304311E+03  0.73034905645E+02 -0.35818909458E+03  0.57300278673E+03  0.17200000000E+03 0. -1.
         -6    1    1    2    0  502  0.40634304311E+03 -0.73034905645E+02  0.33239188876E+03  0.55724064267E+03  0.17200000000E+03 0.  1.
</event>
<event>
 4    1 -0.3305908E-004  0.1828924E+03  0.7818608E-02  0.1165033E+00
          5   -1    0    0  501    0  0.00000000000E+00  0.00000000000E+00  0.48945651287E+02  0.49170791939E+02  0.47000000000E+01 0. -1.
         -5   -1    0    0    0  501 -0.00000000000E+00 -0.00000000000E+00 -0.70197106286E+03  0.70198679695E+03  0.47000000000E+01 0.  1.
          6    1    1    2  502    0 -0.42528784842E+02 -0.45353353910E+02 -0.26254619832E+03  0.31996895240E+03  0.17200000000E+03 0.  1.
         -6    1    1    2    0  502  0.42528784842E+02  0.45353353910E+02 -0.39047921326E+03  0.43118863649E+03  0.17200000000E+03 0.  1.
</event>
<event>
 4    1 -0.3305908E-004  0.2100252E+03  0.7818608E-02  0.1141546E+00
         -5   -1    0    0    0  501 -0.00000000000E+00  0.00000000000E+00  0.20120370716E+03  0.20125859429E+03  0.47000000000E+01 0.  1.
          5   -1    0    0  501    0  0.00000000000E+00 -0.00000000000E+00 -0.21917617247E+03  0.21922655993E+03  0.47000000000E+01 0. -1.
          6    1    1    2  502    0  0.90775871529E+02  0.79286280600E+02 -0.12247388643E+02  0.21038196613E+03  0.17200000000E+03 0.  1.
         -6    1    1    2    0  502 -0.90775871529E+02 -0.79286280600E+02 -0.57250766723E+01  0.21010318809E+03  0.17200000000E+03 0.  1.
</event>
<event>
 4    1 -0.3305908E-004  0.4473382E+03  0.7818608E-02  0.1028519E+00
         -5   -1    0    0    0  501 -0.00000000000E+00  0.00000000000E+00  0.18927326124E+03  0.18933160703E+03  0.47000000000E+01 0.  1.
          5   -1    0    0  501    0  0.00000000000E+00 -0.00000000000E+00 -0.13141775559E+04  0.13141859604E+04  0.47000000000E+01 0. -1.
          6    1    1    2  502    0  0.58181486512E+02  0.40883052090E+03 -0.89497891424E+03  0.10005492177E+04  0.17200000000E+03 0. -1.
         -6    1    1    2    0  502 -0.58181486512E+02 -0.40883052090E+03 -0.22992538042E+03  0.50296834965E+03  0.17200000000E+03 0.  1.
</event>
<event>
 4    1 -0.3305908E-004  0.1807512E+03  0.7818608E-02  0.1167078E+00
          5   -1    0    0  501    0  0.00000000000E+00  0.00000000000E+00  0.23507782061E+03  0.23512480036E+03  0.47000000000E+01 0. -1.
         -5   -1    0    0    0  501 -0.00000000000E+00 -0.00000000000E+00 -0.14598689425E+03  0.14606253213E+03  0.47000000000E+01 0.  1.
          6    1    1    2  502    0 -0.83264208704E+00  0.55554528267E+02  0.86583307171E+02  0.20041873162E+03  0.17200000000E+03 0. -1.
         -6    1    1    2    0  502  0.83264208704E+00 -0.55554528267E+02  0.25076191921E+01  0.18076860086E+03  0.17200000000E+03 0.  1.
</event>
<event>
 4    1 -0.3305908E-004  0.2386643E+03  0.7818608E-02  0.1120686E+00
         -5   -1    0    0    0  501 -0.00000000000E+00  0.00000000000E+00  0.87548816256E+02  0.87674883678E+02  0.47000000000E+01 0.  1.
          5   -1    0    0  501    0  0.00000000000E+00 -0.00000000000E+00 -0.66592751256E+03  0.66594409825E+03  0.47000000000E+01 0. -1.
          6    1    1    2  502    0 -0.93806932433E+02  0.13629714094E+03 -0.34743390485E+03  0.42151034322E+03  0.17200000000E+03 0. -1.
         -6    1    1    2    0  502  0.93806932433E+02 -0.13629714094E+03 -0.23094479146E+03  0.33210863871E+03  0.17200000000E+03 0.  1.
</event>
<event>
 4    1 -0.3305908E-004  0.2036049E+03  0.7818608E-02  0.1146733E+00
          5   -1    0    0  501    0  0.00000000000E+00  0.00000000000E+00  0.22944733213E+03  0.22949546449E+03  0.47000000000E+01 0. -1.
         -5   -1    0    0    0  501 -0.00000000000E+00 -0.00000000000E+00 -0.34385338490E+03  0.34388550465E+03  0.47000000000E+01 0.  1.
          6    1    1    2  502    0 -0.10532544879E+03  0.27883439608E+02  0.14032589275E+03  0.24727776395E+03  0.17200000000E+03 0. -1.
         -6    1    1    2    0  502  0.10532544879E+03 -0.27883439608E+02 -0.25473194552E+03  0.32610320519E+03  0.17200000000E+03 0.  1.
</event>
<event>
 4    1 -0.3305908E-004  0.2577043E+03  0.7818608E-02  0.1108530E+00
         -5   -1    0    0    0  501 -0.00000000000E+00  0.00000000000E+00  0.18159161416E+04  0.18159222239E+04  0.47000000000E+01 0.  1.
          5   -1    0    0  501    0  0.00000000000E+00 -0.00000000000E+00 -0.43725263339E+02  0.43977137856E+02  0.47000000000E+01 0. -1.
          6    1    1    2  502    0 -0.12923698880E+03 -0.14186373366E+03  0.50707173623E+03  0.56879984519E+03  0.17200000000E+03 0.  1.
         -6    1    1    2    0  502  0.12923698880E+03  0.14186373366E+03  0.12651191420E+04  0.12910995166E+04  0.17200000000E+03 0. -1.
</event>
<event>
 4    1 -0.3305908E-004  0.1780927E+03  0.7818608E-02  0.1169662E+00
         -5   -1    0    0    0  501 -0.00000000000E+00  0.00000000000E+00  0.48278886517E+03  0.48281174212E+03  0.47000000000E+01 0.  1.
          5   -1    0    0  501    0  0.00000000000E+00 -0.00000000000E+00 -0.66637539989E+02  0.66803081784E+02  0.47000000000E+01 0. -1.
          6    1    1    2  502    0  0.30236317286E+02  0.34911153804E+02  0.17361865627E+03  0.24871763377E+03  0.17200000000E+03 0. -1.
         -6    1    1    2    0  502 -0.30236317286E+02 -0.34911153804E+02  0.24253266891E+03  0.30089719013E+03  0.17200000000E+03 0.  1.
</event>
<event>
 4    1 -0.3305908E-004  0.1995230E+03  0.7818608E-02  0.1150142E+00
          5   -1    0    0  501    0  0.00000000000E+00  0.00000000000E+00  0.17048263681E+03  0.17054741116E+03  0.47000000000E+01 0. -1.
         -5   -1    0    0    0  501 -0.00000000000E+00 -0.00000000000E+00 -0.42980685975E+03  0.42983255657E+03  0.47000000000E+01 0.  1.
          6    1    1    2  502    0 -0.10106547731E+03 -0.33465410217E+01  0.73251737273E+02  0.21254469425E+03  0.17200000000E+03 0. -1.
         -6    1    1    2    0  502  0.10106547731E+03  0.33465410217E+01 -0.33257596022E+03  0.38783527348E+03  0.17200000000E+03 0.  1.
</event>
<event>
 4    1 -0.3305908E-004  0.3054538E+03  0.7818608E-02  0.1082546E+00
          5   -1    0    0  501    0  0.00000000000E+00  0.00000000000E+00  0.20479890040E+03  0.20485282426E+03  0.47000000000E+01 0. -1.
         -5   -1    0    0    0  501 -0.00000000000E+00 -0.00000000000E+00 -0.47037736458E+03  0.47040084514E+03  0.47000000000E+01 0.  1.
          6    1    1    2  502    0 -0.23518677532E+03  0.91679991304E+02 -0.19292443267E+03  0.36127811560E+03  0.17200000000E+03 0. -1.
         -6    1    1    2    0  502  0.23518677532E+03 -0.91679991304E+02 -0.72654031513E+02  0.31397555380E+03  0.17200000000E+03 0.  1.
</event>
<event>
 4    1 -0.3305908E-004  0.2530311E+03  0.7818608E-02  0.1111404E+00
         -5   -1    0    0    0  501 -0.00000000000E+00  0.00000000000E+00  0.60327703108E+02  0.60510509519E+02  0.47000000000E+01 0.  1.
          5   -1    0    0  501    0  0.00000000000E+00 -0.00000000000E+00 -0.12158914367E+04  0.12159005206E+04  0.47000000000E+01 0. -1.
          6    1    1    2  502    0 -0.17547465282E+03 -0.60409950032E+02 -0.80665828656E+03  0.84541250708E+03  0.17200000000E+03 0. -1.
         -6    1    1    2    0  502  0.17547465282E+03  0.60409950032E+02 -0.34890544707E+03  0.43099852301E+03  0.17200000000E+03 0.  1.
</event>
<event>
 4    1 -0.3305908E-004  0.2407836E+03  0.7818608E-02  0.1119272E+00
         -5   -1    0    0    0  501 -0.00000000000E+00  0.00000000000E+00  0.14476185159E+03  0.14483812922E+03  0.47000000000E+01 0.  1.
          5   -1    0    0  501    0  0.00000000000E+00 -0.00000000000E+00 -0.94328468613E+03  0.94329639514E+03  0.47000000000E+01 0. -1.
          6    1    1    2  502    0 -0.14672085577E+03 -0.82859785807E+02 -0.81202573994E+03  0.84697258276E+03  0.17200000000E+03 0. -1.
         -6    1    1    2    0  502  0.14672085577E+03  0.82859785807E+02  0.13502905408E+02  0.24116194160E+03  0.17200000000E+03 0.  1.
</event>
<event>
 4    1 -0.3305908E-004  0.1783567E+03  0.7818608E-02  0.1169403E+00
         -5   -1    0    0    0  501 -0.00000000000E+00  0.00000000000E+00  0.11220325992E+03  0.11230165420E+03  0.47000000000E+01 0.  1.
          5   -1    0    0  501    0  0.00000000000E+00 -0.00000000000E+00 -0.36951617121E+03  0.36954606044E+03  0.47000000000E+01 0. -1.
          6    1    1    2  502    0  0.37234186371E+02 -0.28995419771E+02 -0.24502939219E+03  0.30306851047E+03  0.17200000000E+03 0. -1.
         -6    1    1    2    0  502 -0.37234186371E+02  0.28995419771E+02 -0.12283519096E+02  0.17877920417E+03  0.17200000000E+03 0.  1.
</event>
<event>
 4    1 -0.3305908E-004  0.2581875E+03  0.7818608E-02  0.1108237E+00
         -5   -1    0    0    0  501 -0.00000000000E+00  0.00000000000E+00  0.96556967895E+03  0.96558111773E+03  0.47000000000E+01 0.  1.
          5   -1    0    0  501    0  0.00000000000E+00 -0.00000000000E+00 -0.11118934684E+03  0.11128863757E+03  0.47000000000E+01 0. -1.
          6    1    1    2  502    0  0.11407650100E+03 -0.15512358230E+03  0.95520448232E+02  0.27529062806E+03  0.17200000000E+03 0. -1.
         -6    1    1    2    0  502 -0.11407650100E+03  0.15512358230E+03  0.75885988388E+03  0.80157912724E+03  0.17200000000E+03 0. -1.
</event>
<event>
 4    1 -0.3305908E-004  0.1817555E+03  0.7818608E-02  0.1166115E+00
         -5   -1    0    0    0  501 -0.00000000000E+00  0.00000000000E+00  0.28185603053E+03  0.28189521448E+03  0.47000000000E+01 0.  1.
          5   -1    0    0  501    0  0.00000000000E+00 -0.00000000000E+00 -0.13060539201E+03  0.13068993236E+03  0.47000000000E+01 0. -1.
          6    1    1    2  502    0 -0.58709027301E+02 -0.20785941271E+01  0.93478559332E+01  0.18199574954E+03  0.17200000000E+03 0. -1.
         -6    1    1    2    0  502  0.58709027301E+02  0.20785941271E+01  0.14190278259E+03  0.23058939730E+03  0.17200000000E+03 0.  1.
</event>
<event>
 4    1 -0.3305908E-004  0.1795916E+03  0.7818608E-02  0.1168199E+00
         -5   -1    0    0    0  501 -0.00000000000E+00  0.00000000000E+00  0.78142405494E+03  0.78143818927E+03  0.47000000000E+01 0.  1.
          5   -1    0    0  501    0  0.00000000000E+00 -0.00000000000E+00 -0.48391276722E+02  0.48618984593E+02  0.47000000000E+01 0. -1.
          6    1    1    2  502    0 -0.51595749547E+02  0.26477164792E+01  0.20614204700E+03  0.27340021089E+03  0.17200000000E+03 0. -1.
         -6    1    1    2    0  502  0.51595749547E+02 -0.26477164792E+01  0.52689073122E+03  0.55665696297E+03  0.17200000000E+03 0.  1.
</event>
<event>
 4    1 -0.3305908E-004  0.4318666E+03  0.7818608E-02  0.1033272E+00
          5   -1    0    0  501    0  0.00000000000E+00  0.00000000000E+00  0.19797257739E+03  0.19802836009E+03  0.47000000000E+01 0. -1.
         -5   -1    0    0    0  501 -0.00000000000E+00 -0.00000000000E+00 -0.94195530964E+03  0.94196703518E+03  0.47000000000E+01 0.  1.
          6    1    1    2  502    0  0.39404480292E+03 -0.40662471640E+02 -0.36760302533E+03  0.56713378276E+03  0.17200000000E+03 0. -1.
         -6    1    1    2    0  502 -0.39404480292E+03  0.40662471640E+02 -0.37637970691E+03  0.57286161251E+03  0.17200000000E+03 0.  1.
</event>
<event>
 4    1 -0.3305908E-004  0.2272379E+03  0.7818608E-02  0.1128599E+00
         -5   -1    0    0    0  501 -0.00000000000E+00  0.00000000000E+00  0.56332900953E+02  0.56528627525E+02  0.47000000000E+01 0.  1.
          5   -1    0    0  501    0  0.00000000000E+00 -0.00000000000E+00 -0.91500272562E+03  0.91501479654E+03  0.47000000000E+01 0. -1.
          6    1    1    2  502    0 -0.14756421002E+03  0.16669775898E+02 -0.42306211810E+03  0.48022768899E+03  0.17200000000E+03 0. -1.
         -6    1    1    2    0  502  0.14756421002E+03 -0.16669775898E+02 -0.43560770657E+03  0.49131573507E+03  0.17200000000E+03 0.  1.
</event>
<event>
 4    1 -0.3305908E-004  0.1873580E+03  0.7818608E-02  0.1160866E+00
         -5   -1    0    0    0  501 -0.00000000000E+00  0.00000000000E+00  0.19992350208E+02  0.20537382181E+02  0.47000000000E+01 0.  1.
          5   -1    0    0  501    0  0.00000000000E+00 -0.00000000000E+00 -0.17319630110E+04  0.17319693882E+04  0.47000000000E+01 0. -1.
          6    1    1    2  502    0  0.44954507570E+02 -0.59144706142E+02 -0.84443039083E+03  0.86496571549E+03  0.17200000000E+03 0. -1.
         -6    1    1    2    0  502 -0.44954507570E+02  0.59144706142E+02 -0.86754026996E+03  0.88754105484E+03  0.17200000000E+03 0. -1.
</event>
<event>
 4    1 -0.3305908E-004  0.2650921E+03  0.7818608E-02  0.1104122E+00
          5   -1    0    0  501    0  0.00000000000E+00  0.00000000000E+00  0.10959822378E+03  0.10969895467E+03  0.47000000000E+01 0. -1.
         -5   -1    0    0    0  501 -0.00000000000E+00 -0.00000000000E+00 -0.72998559785E+03  0.73000072813E+03  0.47000000000E+01 0.  1.
          6    1    1    2  502    0 -0.18842786723E+03 -0.72005399554E+02 -0.16344611662E+03  0.31142972201E+03  0.17200000000E+03 0. -1.
         -6    1    1    2    0  502  0.18842786723E+03  0.72005399554E+02 -0.45694125745E+03  0.52826996079E+03  0.17200000000E+03 0. -1.
</event>
<event>
 4    1 -0.3305908E-004  0.1795061E+03  0.7818608E-02  0.1168282E+00
          5   -1    0    0  501    0  0.00000000000E+00  0.00000000000E+00  0.25589395013E+03  0.25593710891E+03  0.47000000000E+01 0. -1.
         -5   -1    0    0    0  501 -0.00000000000E+00 -0.00000000000E+00 -0.12622980981E+03  0.12631727865E+03  0.47000000000E+01 0.  1.
          6    1    1    2  502    0  0.34992305070E+02 -0.37602772233E+02  0.75671648257E+02  0.19480407656E+03  0.17200000000E+03 0.  1.
         -6    1    1    2    0  502 -0.34992305070E+02  0.37602772233E+02  0.53992492065E+02  0.18745031100E+03  0.17200000000E+03 0.  1.
</event>
<event>
 4    1 -0.3305908E-004  0.2374654E+03  0.7818608E-02  0.1121493E+00
          5   -1    0    0  501    0  0.00000000000E+00  0.00000000000E+00  0.75874352586E+03  0.75875808268E+03  0.47000000000E+01 0. -1.
         -5   -1    0    0    0  501 -0.00000000000E+00 -0.00000000000E+00 -0.11208960614E+03  0.11218810010E+03  0.47000000000E+01 0.  1.
          6    1    1    2  502    0 -0.16193685782E+03  0.24130220674E+02  0.57625498932E+03  0.62326529358E+03  0.17200000000E+03 0. -1.
         -6    1    1    2    0  502  0.16193685782E+03 -0.24130220674E+02  0.70398930406E+02  0.24768088920E+03  0.17200000000E+03 0.  1.
</event>
<event>
 4    1 -0.3305908E-004  0.1770459E+03  0.7818608E-02  0.1170693E+00
          5   -1    0    0  501    0  0.00000000000E+00  0.00000000000E+00  0.53328535813E+02  0.53535247566E+02  0.47000000000E+01 0. -1.
         -5   -1    0    0    0  501 -0.00000000000E+00 -0.00000000000E+00 -0.74074636194E+03  0.74076127243E+03  0.47000000000E+01 0.  1.
          6    1    1    2  502    0  0.29033609690E+02  0.30303655786E+02 -0.16246326062E+03  0.24029060135E+03  0.17200000000E+03 0. -1.
         -6    1    1    2    0  502 -0.29033609690E+02 -0.30303655786E+02 -0.52495456551E+03  0.55400591864E+03  0.17200000000E+03 0.  1.
</event>
<event>
 4    1 -0.3305908E-004  0.5141321E+03  0.7818608E-02  0.1010155E+00
          5   -1    0    0  501    0  0.00000000000E+00  0.00000000000E+00  0.66735885491E+03  0.66737540502E+03  0.47000000000E+01 0. -1.
         -5   -1    0    0    0  501 -0.00000000000E+00 -0.00000000000E+00 -0.24630548442E+04  0.24630593285E+04  0.47000000000E+01 0.  1.
          6    1    1    2  502    0  0.30970643044E+03 -0.37259857328E+03  0.53600746031E+03  0.74272186407E+03  0.17200000000E+03 0. -1.
         -6    1    1    2    0  502 -0.30970643044E+03  0.37259857328E+03 -0.23317034496E+04  0.23877128694E+04  0.17200000000E+03 0.  1.
</event>
<event>
 4    1 -0.3305908E-004  0.3644945E+03  0.7818608E-02  0.1056818E+00
          5   -1    0    0  501    0  0.00000000000E+00  0.00000000000E+00  0.20177049001E+04  0.20177103742E+04  0.47000000000E+01 0. -1.
         -5   -1    0    0    0  501 -0.00000000000E+00 -0.00000000000E+00 -0.12093103964E+03  0.12102233822E+03  0.47000000000E+01 0.  1.
          6    1    1    2  502    0 -0.17289227022E+03  0.27088839525E+03  0.16703042577E+04  0.17096118195E+04  0.17200000000E+03 0. -1.
         -6    1    1    2    0  502  0.17289227022E+03 -0.27088839525E+03  0.22646960275E+03  0.42912089293E+03  0.17200000000E+03 0.  1.
</event>
<event>
 4    1 -0.3305908E-004  0.3363698E+03  0.7818608E-02  0.1068353E+00
         -5   -1    0    0    0  501 -0.00000000000E+00  0.00000000000E+00  0.20212711527E+03  0.20218175172E+03  0.47000000000E+01 0.  1.
          5   -1    0    0  501    0  0.00000000000E+00 -0.00000000000E+00 -0.61897445980E+03  0.61899230357E+03  0.47000000000E+01 0. -1.
          6    1    1    2  502    0 -0.27239747677E+03  0.96748417590E+02 -0.33554976898E+03  0.47511923673E+03  0.17200000000E+03 0. -1.
         -6    1    1    2    0  502  0.27239747677E+03 -0.96748417590E+02 -0.81297575549E+02  0.34605481855E+03  0.17200000000E+03 0.  1.
</event>
<event>
 4    1 -0.3305908E-004  0.2765061E+03  0.7818608E-02  0.1097613E+00
         -5   -1    0    0    0  501 -0.00000000000E+00  0.00000000000E+00  0.27681280136E+03  0.27685269910E+03  0.47000000000E+01 0.  1.
          5   -1    0    0  501    0  0.00000000000E+00 -0.00000000000E+00 -0.28838183381E+03  0.28842013118E+03  0.47000000000E+01 0. -1.
          6    1    1    2  502    0 -0.21524497852E+03  0.23264719034E+02 -0.64056781853E+02  0.28382903169E+03  0.17200000000E+03 0. -1.
         -6    1    1    2    0  502  0.21524497852E+03 -0.23264719034E+02  0.52487749402E+02  0.28144379859E+03  0.17200000000E+03 0.  1.
</event>
<event>
 4    1 -0.3305908E-004  0.2592535E+03  0.7818608E-02  0.1107593E+00
          5   -1    0    0  501    0  0.00000000000E+00  0.00000000000E+00  0.56176545256E+03  0.56178511345E+03  0.47000000000E+01 0. -1.
         -5   -1    0    0    0  501 -0.00000000000E+00 -0.00000000000E+00 -0.44266410215E+03  0.44268905265E+03  0.47000000000E+01 0.  1.
          6    1    1    2  502    0  0.49125123934E+02 -0.18765687858E+03  0.48858597605E+03  0.55310816110E+03  0.17200000000E+03 0. -1.
         -6    1    1    2    0  502 -0.49125123934E+02  0.18765687858E+03 -0.36948462564E+03  0.45136600500E+03  0.17200000000E+03 0.  1.
</event>
<event>
 4    1 -0.3305908E-004  0.3344386E+03  0.7818608E-02  0.1069190E+00
          5   -1    0    0  501    0  0.00000000000E+00  0.00000000000E+00  0.28749650166E+03  0.28753491695E+03  0.47000000000E+01 0. -1.
         -5   -1    0    0    0  501 -0.00000000000E+00 -0.00000000000E+00 -0.42627936340E+03  0.42630527285E+03  0.47000000000E+01 0.  1.
          6    1    1    2  502    0 -0.27270247188E+03 -0.88873589160E+02 -0.17498045873E+03  0.37744842556E+03  0.17200000000E+03 0.  1.
         -6    1    1    2    0  502  0.27270247188E+03  0.88873589160E+02  0.36197596992E+02  0.33639176424E+03  0.17200000000E+03 0. -1.
</event>
<event>
 4    1 -0.3305908E-004  0.2055201E+03  0.7818608E-02  0.1145164E+00
          5   -1    0    0  501    0  0.00000000000E+00  0.00000000000E+00  0.10016378948E+04  0.10016489217E+04  0.47000000000E+01 0. -1.
         -5   -1    0    0    0  501 -0.00000000000E+00 -0.00000000000E+00 -0.42813718091E+02  0.43070923566E+02  0.47000000000E+01 0.  1.
          6    1    1    2  502    0 -0.87044517797E+02 -0.71258440952E+02  0.54998971938E+03  0.58713474169E+03  0.17200000000E+03 0.  1.
         -6    1    1    2    0  502  0.87044517797E+02  0.71258440952E+02  0.40883445731E+03  0.45758510353E+03  0.17200000000E+03 0.  1.
</event>
<event>
 4    1 -0.3305908E-004  0.1872459E+03  0.7818608E-02  0.1160969E+00
          5   -1    0    0  501    0  0.00000000000E+00  0.00000000000E+00  0.16856588277E+03  0.16863139338E+03  0.47000000000E+01 0. -1.
         -5   -1    0    0    0  501 -0.00000000000E+00 -0.00000000000E+00 -0.20928663059E+03  0.20933939845E+03  0.47000000000E+01 0.  1.
          6    1    1    2  502    0  0.33937060686E+02  0.65767121861E+02 -0.47810997269E+01  0.18730696015E+03  0.17200000000E+03 0. -1.
         -6    1    1    2    0  502 -0.33937060686E+02 -0.65767121861E+02 -0.35939648097E+02  0.19066383168E+03  0.17200000000E+03 0.  1.
</event>
<event>
 4    1 -0.3305908E-004  0.2430396E+03  0.7818608E-02  0.1117784E+00
          5   -1    0    0  501    0  0.00000000000E+00  0.00000000000E+00  0.70553775765E+03  0.70555341221E+03  0.47000000000E+01 0. -1.
         -5   -1    0    0    0  501 -0.00000000000E+00 -0.00000000000E+00 -0.88700817296E+02  0.88825249727E+02  0.47000000000E+01 0.  1.
          6    1    1    2  502    0  0.12866283725E+03 -0.11371068526E+03  0.40323063457E+03  0.47081120450E+03  0.17200000000E+03 0.  1.
         -6    1    1    2    0  502 -0.12866283725E+03  0.11371068526E+03  0.21360630579E+03  0.32356745743E+03  0.17200000000E+03 0.  1.
</event>
<event>
 4    1 -0.3305908E-004  0.3249506E+03  0.7818608E-02  0.1073393E+00
         -5   -1    0    0    0  501 -0.00000000000E+00  0.00000000000E+00  0.44427014134E+03  0.44429500165E+03  0.47000000000E+01 0.  1.
          5   -1    0    0  501    0  0.00000000000E+00 -0.00000000000E+00 -0.26857613224E+03  0.26861725337E+03  0.47000000000E+01 0. -1.
          6    1    1    2  502    0  0.90092579878E+02 -0.26056137413E+03 -0.33149470027E+02  0.32663709220E+03  0.17200000000E+03 0. -1.
         -6    1    1    2    0  502 -0.90092579878E+02  0.26056137413E+03  0.20884347913E+03  0.38627516282E+03  0.17200000000E+03 0.  1.
</event>
<event>
 4    1 -0.3305908E-004  0.1742899E+03  0.7818608E-02  0.1173447E+00
          5   -1    0    0  501    0  0.00000000000E+00  0.00000000000E+00  0.90855444884E+02  0.90976930401E+02  0.47000000000E+01 0. -1.
         -5   -1    0    0    0  501 -0.00000000000E+00 -0.00000000000E+00 -0.39527881037E+03  0.39530675168E+03  0.47000000000E+01 0.  1.
          6    1    1    2  502    0 -0.15580493511E+02  0.23456499932E+02 -0.56483055836E+02  0.18321379523E+03  0.17200000000E+03 0. -1.
         -6    1    1    2    0  502  0.15580493511E+02 -0.23456499932E+02 -0.24794030965E+03  0.30306988685E+03  0.17200000000E+03 0.  1.
</event>
<event>
 4    1 -0.3305908E-004  0.1859144E+03  0.7818608E-02  0.1162199E+00
          5   -1    0    0  501    0  0.00000000000E+00  0.00000000000E+00  0.11468708624E+03  0.11478335136E+03  0.47000000000E+01 0. -1.
         -5   -1    0    0    0  501 -0.00000000000E+00 -0.00000000000E+00 -0.60698799207E+03  0.60700618820E+03  0.47000000000E+01 0.  1.
          6    1    1    2  502    0  0.89533064081E+01 -0.70000044807E+02  0.10003604972E+02  0.18618335071E+03  0.17200000000E+03 0. -1.
         -6    1    1    2    0  502 -0.89533064081E+01  0.70000044807E+02 -0.50230451080E+03  0.53560618885E+03  0.17200000000E+03 0.  1.
</event>
<event>
 4    1 -0.3305908E-004  0.1901322E+03  0.7818608E-02  0.1158342E+00
         -5   -1    0    0    0  501 -0.00000000000E+00  0.00000000000E+00  0.39676260505E+02  0.39953668763E+02  0.47000000000E+01 0.  1.
          5   -1    0    0  501    0  0.00000000000E+00 -0.00000000000E+00 -0.13203626160E+04  0.13203709811E+04  0.47000000000E+01 0. -1.
          6    1    1    2  502    0  0.62641770929E+02 -0.51402968061E+02 -0.10205592049E+04  0.10381191393E+04  0.17200000000E+03 0.  1.
         -6    1    1    2    0  502 -0.62641770929E+02  0.51402968061E+02 -0.26012715063E+03  0.32220551064E+03  0.17200000000E+03 0. -1.
</event>
<event>
 4    1 -0.3305908E-004  0.4608743E+03  0.7818608E-02  0.1024528E+00
          5   -1    0    0  501    0  0.00000000000E+00  0.00000000000E+00  0.14185657493E+04  0.14185735353E+04  0.47000000000E+01 0. -1.
         -5   -1    0    0    0  501 -0.00000000000E+00 -0.00000000000E+00 -0.20388552165E+03  0.20393968702E+03  0.47000000000E+01 0.  1.
          6    1    1    2  502    0  0.41992965178E+03  0.80499800495E+02  0.10255376225E+04  0.11243364912E+04  0.17200000000E+03 0. -1.
         -6    1    1    2    0  502 -0.41992965178E+03 -0.80499800495E+02  0.18914260512E+03  0.49817673108E+03  0.17200000000E+03 0.  1.
</event>
<event>
 4    1 -0.3305908E-004  0.2787276E+03  0.7818608E-02  0.1096386E+00
         -5   -1    0    0    0  501 -0.00000000000E+00  0.00000000000E+00  0.80455473349E+03  0.80456846146E+03  0.47000000000E+01 0.  1.
          5   -1    0    0  501    0  0.00000000000E+00 -0.00000000000E+00 -0.13463675010E+03  0.13471876067E+03  0.47000000000E+01 0. -1.
          6    1    1    2  502    0  0.64625869680E+02  0.20959144608E+03  0.85076465110E+02  0.29142251495E+03  0.17200000000E+03 0. -1.
         -6    1    1    2    0  502 -0.64625869680E+02 -0.20959144608E+03  0.58484151828E+03  0.64786470718E+03  0.17200000000E+03 0.  1.
</event>
<event>
 4    1 -0.3305908E-004  0.2115768E+03  0.7818608E-02  0.1140323E+00
         -5   -1    0    0    0  501 -0.00000000000E+00  0.00000000000E+00  0.42179044399E+02  0.42440096447E+02  0.47000000000E+01 0.  1.
          5   -1    0    0  501    0  0.00000000000E+00 -0.00000000000E+00 -0.12207530478E+04  0.12207620955E+04  0.47000000000E+01 0. -1.
          6    1    1    2  502    0  0.51436261972E+02 -0.11196007462E+03 -0.82004772262E+03  0.84690201011E+03  0.17200000000E+03 0. -1.
         -6    1    1    2    0  502 -0.51436261972E+02  0.11196007462E+03 -0.35852628080E+03  0.41630018181E+03  0.17200000000E+03 0.  1.
</event>
<event>
 4    1 -0.3305908E-004  0.1844980E+03  0.7818608E-02  0.1163519E+00
          5   -1    0    0  501    0  0.00000000000E+00  0.00000000000E+00  0.23507019651E+03  0.23511717778E+03  0.47000000000E+01 0. -1.
         -5   -1    0    0    0  501 -0.00000000000E+00 -0.00000000000E+00 -0.14545337230E+03  0.14552928748E+03  0.47000000000E+01 0.  1.
          6    1    1    2  502    0 -0.33382709030E+02 -0.57802402861E+02  0.58443713640E+02  0.19353343562E+03  0.17200000000E+03 0.  1.
         -6    1    1    2    0  502  0.33382709030E+02  0.57802402861E+02  0.31173110570E+02  0.18711302964E+03  0.17200000000E+03 0.  1.
</event>
<event>
 4    1 -0.3305908E-004  0.2231109E+03  0.7818608E-02  0.1131585E+00
          5   -1    0    0  501    0  0.00000000000E+00  0.00000000000E+00  0.14651390044E+04  0.14651465429E+04  0.47000000000E+01 0. -1.
         -5   -1    0    0    0  501 -0.00000000000E+00 -0.00000000000E+00 -0.53407531363E+02  0.53613938545E+02  0.47000000000E+01 0.  1.
          6    1    1    2  502    0 -0.76119096975E+02  0.12000150750E+03  0.11647519214E+04  0.11859281248E+04  0.17200000000E+03 0. -1.
         -6    1    1    2    0  502  0.76119096975E+02 -0.12000150750E+03  0.24697955161E+03  0.33283235666E+03  0.17200000000E+03 0.  1.
</event>
<event>
 4    1 -0.3305908E-004  0.2171787E+03  0.7818608E-02  0.1136004E+00
          5   -1    0    0  501    0  0.00000000000E+00  0.00000000000E+00  0.11115016144E+04  0.11115115514E+04  0.47000000000E+01 0. -1.
         -5   -1    0    0    0  501 -0.00000000000E+00 -0.00000000000E+00 -0.44031727222E+02  0.44281858612E+02  0.47000000000E+01 0.  1.
          6    1    1    2  502    0 -0.12753401407E+03  0.36299641559E+02  0.64817143237E+03  0.68358817607E+03  0.17200000000E+03 0. -1.
         -6    1    1    2    0  502  0.12753401407E+03 -0.36299641559E+02  0.41929845482E+03  0.47220523391E+03  0.17200000000E+03 0. -1.
</event>
<event>
 4    1 -0.3305908E-004  0.1913339E+03  0.7818608E-02  0.1157264E+00
          5   -1    0    0  501    0  0.00000000000E+00  0.00000000000E+00  0.57035739733E+02  0.57229062607E+02  0.47000000000E+01 0. -1.
         -5   -1    0    0    0  501 -0.00000000000E+00 -0.00000000000E+00 -0.65306268370E+03  0.65307959610E+03  0.47000000000E+01 0.  1.
          6    1    1    2  502    0  0.78690193923E+02 -0.28853177782E+02 -0.34713307131E+03  0.39637106565E+03  0.17200000000E+03 0.  1.
         -6    1    1    2    0  502 -0.78690193923E+02  0.28853177782E+02 -0.24889387265E+03  0.31393759305E+03  0.17200000000E+03 0.  1.
</event>
<event>
 4    1 -0.3305908E-004  0.2031324E+03  0.7818608E-02  0.1147123E+00
         -5   -1    0    0    0  501 -0.00000000000E+00  0.00000000000E+00  0.73382559550E+03  0.73384064661E+03  0.47000000000E+01 0.  1.
          5   -1    0    0  501    0  0.00000000000E+00 -0.00000000000E+00 -0.56116888550E+02  0.56313365914E+02  0.47000000000E+01 0. -1.
          6    1    1    2  502    0  0.47460986061E+02  0.97088725675E+02  0.34059627112E+03  0.39657103494E+03  0.17200000000E+03 0. -1.
         -6    1    1    2    0  502 -0.47460986061E+02 -0.97088725675E+02  0.33711243583E+03  0.39358297758E+03  0.17200000000E+03 0. -1.
</event>
<event>
 4    1 -0.3305908E-004  0.1737019E+03  0.7818608E-02  0.1174041E+00
         -5   -1    0    0    0  501 -0.00000000000E+00  0.00000000000E+00  0.16669432960E+02  0.17319353198E+02  0.47000000000E+01 0.  1.
          5   -1    0    0  501    0  0.00000000000E+00 -0.00000000000E+00 -0.18030112143E+04  0.18030173401E+04  0.47000000000E+01 0. -1.
          6    1    1    2  502    0 -0.99203439681E+01 -0.22134664974E+02 -0.10070466952E+04  0.10219175128E+04  0.17200000000E+03 0. -1.
         -6    1    1    2    0  502  0.99203439681E+01  0.22134664974E+02 -0.77929508615E+03  0.79841918058E+03  0.17200000000E+03 0.  1.
</event>
<event>
 4    1 -0.3305908E-004  0.2351535E+03  0.7818608E-02  0.1123064E+00
          5   -1    0    0  501    0  0.00000000000E+00  0.00000000000E+00  0.19025693136E+04  0.19025751189E+04  0.47000000000E+01 0. -1.
         -5   -1    0    0    0  501 -0.00000000000E+00 -0.00000000000E+00 -0.57047987929E+02  0.57241269437E+02  0.47000000000E+01 0.  1.
          6    1    1    2  502    0  0.97345616837E+02  0.12742449521E+03  0.16097035390E+04  0.16267890627E+04  0.17200000000E+03 0. -1.
         -6    1    1    2    0  502 -0.97345616837E+02 -0.12742449521E+03  0.23581778665E+03  0.33302732560E+03  0.17200000000E+03 0.  1.
</event>
<event>
 4    1 -0.3305908E-004  0.1741508E+03  0.7818608E-02  0.1173587E+00
         -5   -1    0    0    0  501 -0.00000000000E+00  0.00000000000E+00  0.57028085494E+02  0.57221434228E+02  0.47000000000E+01 0.  1.
          5   -1    0    0  501    0  0.00000000000E+00 -0.00000000000E+00 -0.59346236280E+03  0.59348097362E+03  0.47000000000E+01 0. -1.
          6    1    1    2  502    0  0.26999024165E+02 -0.39449635131E+01 -0.16244251141E+03  0.23815137950E+03  0.17200000000E+03 0.  1.
         -6    1    1    2    0  502 -0.26999024165E+02  0.39449635131E+01 -0.37399176589E+03  0.41255102836E+03  0.17200000000E+03 0. -1.
</event>
<event>
 4    1 -0.3305908E-004  0.2003058E+03  0.7818608E-02  0.1149481E+00
          5   -1    0    0  501    0  0.00000000000E+00  0.00000000000E+00  0.35258237782E+02  0.35570118519E+02  0.47000000000E+01 0. -1.
         -5   -1    0    0    0  501 -0.00000000000E+00 -0.00000000000E+00 -0.11501869972E+04  0.11501965999E+04  0.47000000000E+01 0.  1.
          6    1    1    2  502    0 -0.10222593027E+03  0.93954457484E+01 -0.48422632384E+03  0.52402056059E+03  0.17200000000E+03 0. -1.
         -6    1    1    2    0  502  0.10222593027E+03 -0.93954457484E+01 -0.63070243556E+03  0.66174615786E+03  0.17200000000E+03 0.  1.
</event>
<event>
 4    1 -0.3305908E-004  0.1985536E+03  0.7818608E-02  0.1150965E+00
          5   -1    0    0  501    0  0.00000000000E+00  0.00000000000E+00  0.78676192126E+03  0.78677595969E+03  0.47000000000E+01 0. -1.
         -5   -1    0    0    0  501 -0.00000000000E+00 -0.00000000000E+00 -0.57342269606E+02  0.57534562513E+02  0.47000000000E+01 0.  1.
          6    1    1    2  502    0  0.57190800284E+02  0.81047671992E+02  0.21377337016E+03  0.29175771894E+03  0.17200000000E+03 0. -1.
         -6    1    1    2    0  502 -0.57190800284E+02 -0.81047671992E+02  0.51564628150E+03  0.55255280326E+03  0.17200000000E+03 0.  1.
</event>
<event>
 4    1 -0.3305908E-004  0.1932541E+03  0.7818608E-02  0.1155559E+00
         -5   -1    0    0    0  501 -0.00000000000E+00  0.00000000000E+00  0.63855699357E+02  0.64028433843E+02  0.47000000000E+01 0.  1.
          5   -1    0    0  501    0  0.00000000000E+00 -0.00000000000E+00 -0.65487351601E+03  0.65489038165E+03  0.47000000000E+01 0. -1.
          6    1    1    2  502    0  0.22816966758E+02  0.85102970944E+02 -0.41383217246E+03  0.45673208405E+03  0.17200000000E+03 0. -1.
         -6    1    1    2    0  502 -0.22816966758E+02 -0.85102970944E+02 -0.17718564419E+03  0.26218673144E+03  0.17200000000E+03 0.  1.
</event>
<event>
 4    1 -0.3305908E-004  0.2118673E+03  0.7818608E-02  0.1140096E+00
          5   -1    0    0  501    0  0.00000000000E+00  0.00000000000E+00  0.47661353652E+03  0.47663670987E+03  0.47000000000E+01 0. -1.
         -5   -1    0    0    0  501 -0.00000000000E+00 -0.00000000000E+00 -0.94136771618E+02  0.94254027875E+02  0.47000000000E+01 0.  1.
          6    1    1    2  502    0  0.88410351122E+02 -0.86529617189E+02  0.18534000887E+03  0.28149366551E+03  0.17200000000E+03 0.  1.
         -6    1    1    2    0  502 -0.88410351122E+02  0.86529617189E+02  0.19713675604E+03  0.28939707223E+03  0.17200000000E+03 0. -1.
</event>
<event>
 4    1 -0.3305908E-004  0.2106672E+03  0.7818608E-02  0.1141039E+00
         -5   -1    0    0    0  501 -0.00000000000E+00  0.00000000000E+00  0.56483367591E+03  0.56485323000E+03  0.47000000000E+01 0.  1.
          5   -1    0    0  501    0  0.00000000000E+00 -0.00000000000E+00 -0.87549136935E+02  0.87675203895E+02  0.47000000000E+01 0. -1.
          6    1    1    2  502    0 -0.11726808232E+03 -0.32324649862E+02  0.13373526098E+03  0.24953117270E+03  0.17200000000E+03 0.  1.
         -6    1    1    2    0  502  0.11726808232E+03  0.32324649862E+02  0.34354927800E+03  0.40299726119E+03  0.17200000000E+03 0.  1.
</event>
<event>
 4    1 -0.3305908E-004  0.2299686E+03  0.7818608E-02  0.1126662E+00
         -5   -1    0    0    0  501 -0.00000000000E+00  0.00000000000E+00  0.64873824296E+03  0.64875526809E+03  0.47000000000E+01 0.  1.
          5   -1    0    0  501    0  0.00000000000E+00 -0.00000000000E+00 -0.17022072371E+03  0.17028559769E+03  0.47000000000E+01 0. -1.
          6    1    1    2  502    0 -0.11951047992E+01  0.15264378744E+03 -0.56400828726E+02  0.23678388375E+03  0.17200000000E+03 0. -1.
         -6    1    1    2    0  502  0.11951047992E+01 -0.15264378744E+03  0.53491834797E+03  0.58225698203E+03  0.17200000000E+03 0.  1.
</event>
<event>
 4    1 -0.3305908E-004  0.2881998E+03  0.7818608E-02  0.1091293E+00
          5   -1    0    0  501    0  0.00000000000E+00  0.00000000000E+00  0.17044992302E+04  0.17045057101E+04  0.47000000000E+01 0. -1.
         -5   -1    0    0    0  501 -0.00000000000E+00 -0.00000000000E+00 -0.81514867761E+02  0.81650252088E+02  0.47000000000E+01 0.  1.
          6    1    1    2  502    0 -0.23074443188E+03  0.15235424973E+02  0.13782609670E+04  0.14080704542E+04  0.17200000000E+03 0. -1.
         -6    1    1    2    0  502  0.23074443188E+03 -0.15235424973E+02  0.24472339541E+03  0.37808550790E+03  0.17200000000E+03 0.  1.
</event>
<event>
 4    1 -0.3305908E-004  0.2059862E+03  0.7818608E-02  0.1144785E+00
          5   -1    0    0  501    0  0.00000000000E+00  0.00000000000E+00  0.17122625676E+03  0.17129074991E+03  0.47000000000E+01 0. -1.
         -5   -1    0    0    0  501 -0.00000000000E+00 -0.00000000000E+00 -0.31680058508E+03  0.31683544737E+03  0.47000000000E+01 0.  1.
          6    1    1    2  502    0  0.10586989780E+03  0.40470616737E+02 -0.18677948496E+03  0.27805913414E+03  0.17200000000E+03 0. -1.
         -6    1    1    2    0  502 -0.10586989780E+03 -0.40470616737E+02  0.41205156642E+02  0.21006706313E+03  0.17200000000E+03 0. -1.
</event>
<event>
 4    1 -0.3305908E-004  0.2063833E+03  0.7818608E-02  0.1144462E+00
          5   -1    0    0  501    0  0.00000000000E+00  0.00000000000E+00  0.22511874553E+03  0.22516780318E+03  0.47000000000E+01 0. -1.
         -5   -1    0    0    0  501 -0.00000000000E+00 -0.00000000000E+00 -0.19557711924E+03  0.19563358498E+03  0.47000000000E+01 0.  1.
          6    1    1    2  502    0  0.10801156870E+03 -0.36654526873E+02  0.53025673827E+02  0.21308630974E+03  0.17200000000E+03 0.  1.
         -6    1    1    2    0  502 -0.10801156870E+03  0.36654526873E+02 -0.23484047542E+02  0.20771507842E+03  0.17200000000E+03 0.  1.
</event>
<event>
 4    1 -0.3305908E-004  0.1912954E+03  0.7818608E-02  0.1157298E+00
          5   -1    0    0  501    0  0.00000000000E+00  0.00000000000E+00  0.24661821913E+03  0.24666300089E+03  0.47000000000E+01 0. -1.
         -5   -1    0    0    0  501 -0.00000000000E+00 -0.00000000000E+00 -0.20247397601E+03  0.20252851889E+03  0.47000000000E+01 0.  1.
          6    1    1    2  502    0  0.83685037936E+02 -0.25965725723E+01  0.13822916425E+03  0.23601107943E+03  0.17200000000E+03 0. -1.
         -6    1    1    2    0  502 -0.83685037936E+02  0.25965725723E+01 -0.94084921128E+02  0.21318044035E+03  0.17200000000E+03 0.  1.
</event>
<event>
 4    1 -0.3305908E-004  0.1881205E+03  0.7818608E-02  0.1160167E+00
         -5   -1    0    0    0  501 -0.00000000000E+00  0.00000000000E+00  0.72677330528E+02  0.72829145077E+02  0.47000000000E+01 0.  1.
          5   -1    0    0  501    0  0.00000000000E+00 -0.00000000000E+00 -0.55492393109E+03  0.55494383436E+03  0.47000000000E+01 0. -1.
          6    1    1    2  502    0  0.69714042116E+02 -0.30745500298E+02 -0.35151386836E+03  0.39868701146E+03  0.17200000000E+03 0. -1.
         -6    1    1    2    0  502 -0.69714042116E+02  0.30745500298E+02 -0.13073273220E+03  0.22908596798E+03  0.17200000000E+03 0.  1.
</event>
<event>
 4    1 -0.3305908E-004  0.1986159E+03  0.7818608E-02  0.1150912E+00
         -5   -1    0    0    0  501 -0.00000000000E+00  0.00000000000E+00  0.29353019484E+02  0.29726919666E+02  0.47000000000E+01 0.  1.
          5   -1    0    0  501    0  0.00000000000E+00 -0.00000000000E+00 -0.16794396582E+04  0.16794462348E+04  0.47000000000E+01 0. -1.
          6    1    1    2  502    0  0.89579241774E+02  0.42893423673E+02 -0.12119927962E+04  0.12281591202E+04  0.17200000000E+03 0.  1.
         -6    1    1    2    0  502 -0.89579241774E+02 -0.42893423673E+02 -0.43809384251E+03  0.48101403430E+03  0.17200000000E+03 0.  1.
</event>
<event>
 4    1 -0.3305908E-004  0.2792397E+03  0.7818608E-02  0.1096105E+00
         -5   -1    0    0    0  501 -0.00000000000E+00  0.00000000000E+00  0.69712029797E+03  0.69713614154E+03  0.47000000000E+01 0.  1.
          5   -1    0    0  501    0  0.00000000000E+00 -0.00000000000E+00 -0.11384711308E+03  0.11394408785E+03  0.47000000000E+01 0. -1.
          6    1    1    2  502    0  0.33520280922E+01  0.21995357413E+03  0.34617241541E+03  0.44475853230E+03  0.17200000000E+03 0. -1.
         -6    1    1    2    0  502 -0.33520280922E+01 -0.21995357413E+03  0.23710076949E+03  0.36632169709E+03  0.17200000000E+03 0.  1.
</event>
<event>
 4    1 -0.3305908E-004  0.1833563E+03  0.7818608E-02  0.1164594E+00
          5   -1    0    0  501    0  0.00000000000E+00  0.00000000000E+00  0.34793514575E+02  0.35109523729E+02  0.47000000000E+01 0. -1.
         -5   -1    0    0    0  501 -0.00000000000E+00 -0.00000000000E+00 -0.99510744687E+03  0.99511854611E+03  0.47000000000E+01 0.  1.
          6    1    1    2  502    0 -0.63133772177E+02 -0.70479021514E+01 -0.57470838435E+03  0.60324893134E+03  0.17200000000E+03 0.  1.
         -6    1    1    2    0  502  0.63133772177E+02  0.70479021514E+01 -0.38560554794E+03  0.42697913851E+03  0.17200000000E+03 0. -1.
</event>
<event>
 4    1 -0.3305908E-004  0.1910017E+03  0.7818608E-02  0.1157561E+00
          5   -1    0    0  501    0  0.00000000000E+00  0.00000000000E+00  0.12469096968E+03  0.12477951723E+03  0.47000000000E+01 0. -1.
         -5   -1    0    0    0  501 -0.00000000000E+00 -0.00000000000E+00 -0.29254500897E+03  0.29258276141E+03  0.47000000000E+01 0.  1.
          6    1    1    2  502    0  0.33296667998E+02 -0.76085252897E+02 -0.89100929585E+02  0.21076197347E+03  0.17200000000E+03 0. -1.
         -6    1    1    2    0  502 -0.33296667998E+02  0.76085252897E+02 -0.78753109707E+02  0.20660030517E+03  0.17200000000E+03 0. -1.
</event>
<event>
 4    1 -0.3305908E-004  0.1901317E+03  0.7818608E-02  0.1158343E+00
          5   -1    0    0  501    0  0.00000000000E+00  0.00000000000E+00  0.47993455886E+03  0.47995757186E+03  0.47000000000E+01 0. -1.
         -5   -1    0    0    0  501 -0.00000000000E+00 -0.00000000000E+00 -0.13551650939E+03  0.13559798788E+03  0.47000000000E+01 0.  1.
          6    1    1    2  502    0  0.72876139211E+02  0.35427814720E+02  0.37739638405E+03  0.42258501206E+03  0.17200000000E+03 0. -1.
         -6    1    1    2    0  502 -0.72876139211E+02 -0.35427814720E+02 -0.32978334583E+02  0.19297054769E+03  0.17200000000E+03 0.  1.
</event>
<event>
 4    1 -0.3305908E-004  0.2218723E+03  0.7818608E-02  0.1132495E+00
          5   -1    0    0  501    0  0.00000000000E+00  0.00000000000E+00  0.16169545265E+03  0.16176374565E+03  0.47000000000E+01 0. -1.
         -5   -1    0    0    0  501 -0.00000000000E+00 -0.00000000000E+00 -0.49611172440E+03  0.49613398703E+03  0.47000000000E+01 0.  1.
          6    1    1    2  502    0  0.89880728122E+02 -0.10753954652E+03  0.37314087157E+02  0.22498808958E+03  0.17200000000E+03 0. -1.
         -6    1    1    2    0  502 -0.89880728122E+02  0.10753954652E+03 -0.37173035891E+03  0.43290964310E+03  0.17200000000E+03 0.  1.
</event>
<event>
 4    1 -0.3305908E-004  0.3590692E+03  0.7818608E-02  0.1058953E+00
          5   -1    0    0  501    0  0.00000000000E+00  0.00000000000E+00  0.38889079548E+03  0.38891919573E+03  0.47000000000E+01 0. -1.
         -5   -1    0    0    0  501 -0.00000000000E+00 -0.00000000000E+00 -0.33150036787E+03  0.33153368441E+03  0.47000000000E+01 0.  1.
          6    1    1    2  502    0 -0.23754532750E+03  0.20716876423E+03  0.31703664843E+02  0.36046608974E+03  0.17200000000E+03 0. -1.
         -6    1    1    2    0  502  0.23754532750E+03 -0.20716876423E+03  0.25686762765E+02  0.35998679041E+03  0.17200000000E+03 0.  1.
</event>
<event>
 4    1 -0.3305908E-004  0.1740961E+03  0.7818608E-02  0.1173642E+00
         -5   -1    0    0    0  501 -0.00000000000E+00  0.00000000000E+00  0.58034865310E+03  0.58036768445E+03  0.47000000000E+01 0.  1.
          5   -1    0    0  501    0  0.00000000000E+00 -0.00000000000E+00 -0.52203476860E+02  0.52414625786E+02  0.47000000000E+01 0. -1.
          6    1    1    2  502    0  0.12189044099E+02 -0.24018025966E+02  0.27808800527E+03  0.32808897732E+03  0.17200000000E+03 0.  1.
         -6    1    1    2    0  502 -0.12189044099E+02  0.24018025966E+02  0.25005717098E+03  0.30469333292E+03  0.17200000000E+03 0. -1.
</event>
<event>
 4    1 -0.3305908E-004  0.3382630E+03  0.7818608E-02  0.1067538E+00
          5   -1    0    0  501    0  0.00000000000E+00  0.00000000000E+00  0.49447508013E+03  0.49449741644E+03  0.47000000000E+01 0. -1.
         -5   -1    0    0    0  501 -0.00000000000E+00 -0.00000000000E+00 -0.23185645471E+03  0.23190408705E+03  0.47000000000E+01 0.  1.
          6    1    1    2  502    0 -0.24228570224E+02  0.29025996224E+03  0.14829426277E+03  0.36934138364E+03  0.17200000000E+03 0. -1.
         -6    1    1    2    0  502  0.24228570224E+02 -0.29025996224E+03  0.11432436264E+03  0.35706011986E+03  0.17200000000E+03 0.  1.
</event>
<event>
 4    1 -0.3305908E-004  0.2167971E+03  0.7818608E-02  0.1136294E+00
         -5   -1    0    0    0  501 -0.00000000000E+00  0.00000000000E+00  0.23378993247E+03  0.23383717096E+03  0.47000000000E+01 0.  1.
          5   -1    0    0  501    0  0.00000000000E+00 -0.00000000000E+00 -0.25728965156E+03  0.25733257625E+03  0.47000000000E+01 0. -1.
          6    1    1    2  502    0  0.13076035565E+03  0.17852522807E+02 -0.12665464979E+03  0.25108242371E+03  0.17200000000E+03 0. -1.
         -6    1    1    2    0  502 -0.13076035565E+03 -0.17852522807E+02  0.10315493071E+03  0.24008732351E+03  0.17200000000E+03 0.  1.
</event>
<event>
 4    1 -0.3305908E-004  0.3602958E+03  0.7818608E-02  0.1058467E+00
         -5   -1    0    0    0  501 -0.00000000000E+00  0.00000000000E+00  0.10856262738E+04  0.10856364476E+04  0.47000000000E+01 0.  1.
          5   -1    0    0  501    0  0.00000000000E+00 -0.00000000000E+00 -0.14730242995E+03  0.14737739267E+03  0.47000000000E+01 0. -1.
          6    1    1    2  502    0  0.21967558293E+03 -0.22797301609E+03  0.20149179199E+03  0.41280988365E+03  0.17200000000E+03 0. -1.
         -6    1    1    2    0  502 -0.21967558293E+03  0.22797301609E+03  0.73683205186E+03  0.82020395662E+03  0.17200000000E+03 0.  1.
</event>
<event>
 4    1 -0.3305908E-004  0.1931211E+03  0.7818608E-02  0.1155676E+00
          5   -1    0    0  501    0  0.00000000000E+00  0.00000000000E+00  0.10162816216E+04  0.10162924896E+04  0.47000000000E+01 0. -1.
         -5   -1    0    0    0  501 -0.00000000000E+00 -0.00000000000E+00 -0.39950476003E+02  0.40225993249E+02  0.47000000000E+01 0.  1.
          6    1    1    2  502    0  0.68281477100E+02  0.55221431994E+02  0.64201137401E+03  0.67042849807E+03  0.17200000000E+03 0. -1.
         -6    1    1    2    0  502 -0.68281477100E+02 -0.55221431994E+02  0.33431977159E+03  0.38608998477E+03  0.17200000000E+03 0.  1.
</event>
<event>
 4    1 -0.3305908E-004  0.1834131E+03  0.7818608E-02  0.1164540E+00
         -5   -1    0    0    0  501 -0.00000000000E+00  0.00000000000E+00  0.13544663312E+03  0.13552815362E+03  0.47000000000E+01 0.  1.
          5   -1    0    0  501    0  0.00000000000E+00 -0.00000000000E+00 -0.28652380361E+03  0.28656234930E+03  0.47000000000E+01 0. -1.
          6    1    1    2  502    0  0.45902892914E+02  0.44150931754E+02 -0.15271868359E+03  0.23867001628E+03  0.17200000000E+03 0. -1.
         -6    1    1    2    0  502 -0.45902892914E+02 -0.44150931754E+02  0.16415131076E+01  0.18342048664E+03  0.17200000000E+03 0.  1.
</event>
<event>
 4    1 -0.3305908E-004  0.1749133E+03  0.7818608E-02  0.1172819E+00
         -5   -1    0    0    0  501 -0.00000000000E+00  0.00000000000E+00  0.83514941993E+02  0.83647089227E+02  0.47000000000E+01 0.  1.
          5   -1    0    0  501    0  0.00000000000E+00 -0.00000000000E+00 -0.39438256480E+03  0.39441056961E+03  0.47000000000E+01 0. -1.
          6    1    1    2  502    0 -0.23872167587E+02  0.20994436916E+02 -0.21965643300E+03  0.28079101717E+03  0.17200000000E+03 0. -1.
         -6    1    1    2    0  502  0.23872167587E+02 -0.20994436916E+02 -0.91211189806E+02  0.19726664166E+03  0.17200000000E+03 0.  1.
</event>
<event>
 4    1 -0.3305908E-004  0.2479012E+03  0.7818608E-02  0.1114638E+00
         -5   -1    0    0    0  501 -0.00000000000E+00  0.00000000000E+00  0.26548211600E+03  0.26552371629E+03  0.47000000000E+01 0.  1.
          5   -1    0    0  501    0  0.00000000000E+00 -0.00000000000E+00 -0.24986091215E+03  0.24990511283E+03  0.47000000000E+01 0. -1.
          6    1    1    2  502    0 -0.30530573791E+02  0.17589456059E+03 -0.62226582141E+02  0.25559178372E+03  0.17200000000E+03 0. -1.
         -6    1    1    2    0  502  0.30530573791E+02 -0.17589456059E+03  0.77847785992E+02  0.25983704540E+03  0.17200000000E+03 0.  1.
</event>
<event>
 4    1 -0.3305908E-004  0.2790445E+03  0.7818608E-02  0.1096212E+00
         -5   -1    0    0    0  501 -0.00000000000E+00  0.00000000000E+00  0.32293746322E+03  0.32297166308E+03  0.47000000000E+01 0.  1.
          5   -1    0    0  501    0  0.00000000000E+00 -0.00000000000E+00 -0.50884523812E+03  0.50886694367E+03  0.47000000000E+01 0. -1.
          6    1    1    2  502    0 -0.10300397962E+03  0.19409281702E+03 -0.39466454494E+03  0.48334867794E+03  0.17200000000E+03 0. -1.
         -6    1    1    2    0  502  0.10300397962E+03 -0.19409281702E+03  0.20875677004E+03  0.34848992880E+03  0.17200000000E+03 0.  1.
</event>
<event>
 4    1 -0.3305908E-004  0.3104556E+03  0.7818608E-02  0.1080128E+00
          5   -1    0    0  501    0  0.00000000000E+00  0.00000000000E+00  0.16722990325E+03  0.16729593702E+03  0.47000000000E+01 0. -1.
         -5   -1    0    0    0  501 -0.00000000000E+00 -0.00000000000E+00 -0.61557348145E+03  0.61559142381E+03  0.47000000000E+01 0.  1.
          6    1    1    2  502    0 -0.25782666471E+03  0.18001693671E+02 -0.32321587930E+03  0.44816420500E+03  0.17200000000E+03 0.  1.
         -6    1    1    2    0  502  0.25782666471E+03 -0.18001693671E+02 -0.12512769890E+03  0.33472315582E+03  0.17200000000E+03 0. -1.
</event>
<event>
 4    1 -0.3305908E-004  0.1893411E+03  0.7818608E-02  0.1159057E+00
         -5   -1    0    0    0  501 -0.00000000000E+00  0.00000000000E+00  0.11449914320E+04  0.11450010783E+04  0.47000000000E+01 0.  1.
          5   -1    0    0  501    0  0.00000000000E+00 -0.00000000000E+00 -0.31745066444E+02  0.32091108480E+02  0.47000000000E+01 0. -1.
          6    1    1    2  502    0 -0.76258281177E+02  0.21230588219E+02  0.47477169801E+03  0.51113425688E+03  0.17200000000E+03 0. -1.
         -6    1    1    2    0  502  0.76258281177E+02 -0.21230588219E+02  0.63847466752E+03  0.66595792989E+03  0.17200000000E+03 0.  1.
</event>
<event>
 4    1 -0.3305908E-004  0.1723219E+03  0.7818608E-02  0.1175448E+00
          5   -1    0    0  501    0  0.00000000000E+00  0.00000000000E+00  0.29806839085E+03  0.29810544380E+03  0.47000000000E+01 0. -1.
         -5   -1    0    0    0  501 -0.00000000000E+00 -0.00000000000E+00 -0.13565830001E+03  0.13573969339E+03  0.47000000000E+01 0.  1.
          6    1    1    2  502    0  0.68986713375E+01  0.79531546351E+01  0.19310215082E+03  0.25881129223E+03  0.17200000000E+03 0. -1.
         -6    1    1    2    0  502 -0.68986713375E+01 -0.79531546351E+01 -0.30692059988E+02  0.17503384496E+03  0.17200000000E+03 0.  1.
</event>
<event>
 4    1 -0.3305908E-004  0.2255066E+03  0.7818608E-02  0.1129843E+00
          5   -1    0    0  501    0  0.00000000000E+00  0.00000000000E+00  0.31440391124E+03  0.31443903924E+03  0.47000000000E+01 0. -1.
         -5   -1    0    0    0  501 -0.00000000000E+00 -0.00000000000E+00 -0.16436155003E+03  0.16442873571E+03  0.47000000000E+01 0.  1.
          6    1    1    2  502    0 -0.11453597446E+03 -0.90281312829E+02  0.10567133295E+03  0.24903741787E+03  0.17200000000E+03 0. -1.
         -6    1    1    2    0  502  0.11453597446E+03  0.90281312829E+02  0.44371028254E+02  0.22983035709E+03  0.17200000000E+03 0.  1.
</event>
<event>
 4    1 -0.3305908E-004  0.1993277E+03  0.7818608E-02  0.1150307E+00
          5   -1    0    0  501    0  0.00000000000E+00  0.00000000000E+00  0.17239942605E+03  0.17246348049E+03  0.47000000000E+01 0. -1.
         -5   -1    0    0    0  501 -0.00000000000E+00 -0.00000000000E+00 -0.24715539256E+03  0.24720007700E+03  0.47000000000E+01 0.  1.
          6    1    1    2  502    0  0.82532164306E+02  0.57758008862E+02  0.17355700830E+02  0.20008189844E+03  0.17200000000E+03 0. -1.
         -6    1    1    2    0  502 -0.82532164306E+02 -0.57758008862E+02 -0.92111667338E+02  0.21958165905E+03  0.17200000000E+03 0. -1.
</event>
<event>
 4    1 -0.3305908E-004  0.2627951E+03  0.7818608E-02  0.1105475E+00
         -5   -1    0    0    0  501 -0.00000000000E+00  0.00000000000E+00  0.12973469016E+04  0.12973554151E+04  0.47000000000E+01 0.  1.
          5   -1    0    0  501    0  0.00000000000E+00 -0.00000000000E+00 -0.10492714701E+03  0.10503235778E+03  0.47000000000E+01 0. -1.
          6    1    1    2  502    0  0.19341269076E+03  0.45483862879E+02  0.10389031460E+03  0.28258529367E+03  0.17200000000E+03 0. -1.
         -6    1    1    2    0  502 -0.19341269076E+03 -0.45483862879E+02  0.10885294400E+04  0.11198024792E+04  0.17200000000E+03 0.  1.
</event>
<event>
 4    1 -0.3305908E-004  0.5347335E+03  0.7818608E-02  0.1005091E+00
          5   -1    0    0  501    0  0.00000000000E+00  0.00000000000E+00  0.32532501236E+03  0.32535896126E+03  0.47000000000E+01 0. -1.
         -5   -1    0    0    0  501 -0.00000000000E+00 -0.00000000000E+00 -0.94516833335E+03  0.94518001903E+03  0.47000000000E+01 0.  1.
          6    1    1    2  502    0  0.45077152896E+03 -0.23056648513E+03 -0.14165044722E+03  0.55317693786E+03  0.17200000000E+03 0. -1.
         -6    1    1    2    0  502 -0.45077152896E+03  0.23056648513E+03 -0.47819287377E+03  0.71736204242E+03  0.17200000000E+03 0.  1.
</event>
<event>
 4    1 -0.3305908E-004  0.1756686E+03  0.7818608E-02  0.1172062E+00
         -5   -1    0    0    0  501 -0.00000000000E+00  0.00000000000E+00  0.44753944880E+02  0.45000062026E+02  0.47000000000E+01 0.  1.
          5   -1    0    0  501    0  0.00000000000E+00 -0.00000000000E+00 -0.68745764395E+03  0.68747371020E+03  0.47000000000E+01 0. -1.
          6    1    1    2  502    0  0.90763057491E+01 -0.34541026611E+02 -0.32495286506E+03  0.36939657058E+03  0.17200000000E+03 0.  1.
         -6    1    1    2    0  502 -0.90763057491E+01  0.34541026611E+02 -0.31775083400E+03  0.36307720165E+03  0.17200000000E+03 0.  1.
</event>
<event>
 4    1 -0.3305908E-004  0.2365770E+03  0.7818608E-02  0.1122094E+00
          5   -1    0    0  501    0  0.00000000000E+00  0.00000000000E+00  0.77566202063E+02  0.77708466093E+02  0.47000000000E+01 0. -1.
         -5   -1    0    0    0  501 -0.00000000000E+00 -0.00000000000E+00 -0.74766423094E+03  0.74767900346E+03  0.47000000000E+01 0.  1.
          6    1    1    2  502    0 -0.16154199254E+03 -0.16996234389E+02 -0.25675541224E+03  0.34913038976E+03  0.17200000000E+03 0.  1.
         -6    1    1    2    0  502  0.16154199254E+03  0.16996234389E+02 -0.41334261663E+03  0.47625707980E+03  0.17200000000E+03 0.  1.
</event>
<event>
 4    1 -0.3305908E-004  0.2719488E+03  0.7818608E-02  0.1100169E+00
         -5   -1    0    0    0  501 -0.00000000000E+00  0.00000000000E+00  0.41889607223E+03  0.41892243832E+03  0.47000000000E+01 0.  1.
          5   -1    0    0  501    0  0.00000000000E+00 -0.00000000000E+00 -0.35415981530E+03  0.35419100042E+03  0.47000000000E+01 0. -1.
          6    1    1    2  502    0  0.51559233780E+00 -0.21064636706E+03 -0.24139771516E+03  0.36363307699E+03  0.17200000000E+03 0. -1.
         -6    1    1    2    0  502 -0.51559233780E+00  0.21064636706E+03  0.30613397209E+03  0.40948036175E+03  0.17200000000E+03 0.  1.
</event>
<event>
 4    1 -0.3305908E-004  0.4367688E+03  0.7818608E-02  0.1031743E+00
          5   -1    0    0  501    0  0.00000000000E+00  0.00000000000E+00  0.50872311668E+03  0.50874482744E+03  0.47000000000E+01 0. -1.
         -5   -1    0    0    0  501 -0.00000000000E+00 -0.00000000000E+00 -0.38250079054E+03  0.38252966521E+03  0.47000000000E+01 0.  1.
          6    1    1    2  502    0 -0.26201139048E+03  0.30419246735E+03  0.49204409829E+00  0.43676912441E+03  0.17200000000E+03 0. -1.
         -6    1    1    2    0  502  0.26201139048E+03 -0.30419246735E+03  0.12573028204E+03  0.45450536824E+03  0.17200000000E+03 0.  1.
</event>
<event>
 4    1 -0.3305908E-004  0.1861850E+03  0.7818608E-02  0.1161948E+00
         -5   -1    0    0    0  501 -0.00000000000E+00  0.00000000000E+00  0.20084188580E+03  0.20089687178E+03  0.47000000000E+01 0.  1.
          5   -1    0    0  501    0  0.00000000000E+00 -0.00000000000E+00 -0.17278934600E+03  0.17285325595E+03  0.47000000000E+01 0. -1.
          6    1    1    2  502    0  0.69744022678E+02  0.14717917333E+02  0.21839809037E+02  0.18746152418E+03  0.17200000000E+03 0.  1.
         -6    1    1    2    0  502 -0.69744022678E+02 -0.14717917333E+02  0.62127307616E+01  0.18628860355E+03  0.17200000000E+03 0.  1.
</event>
<event>
 4    1 -0.3305908E-004  0.2161339E+03  0.7818608E-02  0.1136799E+00
         -5   -1    0    0    0  501 -0.00000000000E+00  0.00000000000E+00  0.93005454029E+03  0.93006641586E+03  0.47000000000E+01 0.  1.
          5   -1    0    0  501    0  0.00000000000E+00 -0.00000000000E+00 -0.67479699953E+02  0.67643180777E+02  0.47000000000E+01 0. -1.
          6    1    1    2  502    0 -0.10339259419E+03  0.80248450742E+02  0.17853560809E+03  0.28033695036E+03  0.17200000000E+03 0. -1.
         -6    1    1    2    0  502  0.10339259419E+03 -0.80248450742E+02  0.68403923225E+03  0.71737264628E+03  0.17200000000E+03 0.  1.
</event>
<event>
 4    1 -0.3305908E-004  0.2333892E+03  0.7818608E-02  0.1124277E+00
          5   -1    0    0  501    0  0.00000000000E+00  0.00000000000E+00  0.94257813127E+02  0.94374918996E+02  0.47000000000E+01 0. -1.
         -5   -1    0    0    0  501 -0.00000000000E+00 -0.00000000000E+00 -0.72604078987E+03  0.72605600236E+03  0.47000000000E+01 0.  1.
          6    1    1    2  502    0  0.33346733115E+02  0.15418983924E+03 -0.13030096066E+03  0.26729917973E+03  0.17200000000E+03 0. -1.
         -6    1    1    2    0  502 -0.33346733115E+02 -0.15418983924E+03 -0.50148201608E+03  0.55313174162E+03  0.17200000000E+03 0.  1.
</event>
<event>
 4    1 -0.3305908E-004  0.2464599E+03  0.7818608E-02  0.1115563E+00
          5   -1    0    0  501    0  0.00000000000E+00  0.00000000000E+00  0.23980223650E+03  0.23984829087E+03  0.47000000000E+01 0. -1.
         -5   -1    0    0    0  501 -0.00000000000E+00 -0.00000000000E+00 -0.25395164464E+03  0.25399513345E+03  0.47000000000E+01 0.  1.
          6    1    1    2  502    0 -0.13529057925E+03  0.11337953471E+03  0.62657182291E+01  0.24653948761E+03  0.17200000000E+03 0. -1.
         -6    1    1    2    0  502  0.13529057925E+03 -0.11337953471E+03 -0.20415126367E+02  0.24730393670E+03  0.17200000000E+03 0.  1.
</event>
<event>
 4    1 -0.3305908E-004  0.2106360E+03  0.7818608E-02  0.1141063E+00
         -5   -1    0    0    0  501 -0.00000000000E+00  0.00000000000E+00  0.14642468631E+03  0.14650009816E+03  0.47000000000E+01 0.  1.
          5   -1    0    0  501    0  0.00000000000E+00 -0.00000000000E+00 -0.30757177346E+03  0.30760768168E+03  0.47000000000E+01 0. -1.
          6    1    1    2  502    0  0.24177595022E+02 -0.11915938406E+03 -0.52398664193E+02  0.21705560329E+03  0.17200000000E+03 0. -1.
         -6    1    1    2    0  502 -0.24177595022E+02  0.11915938406E+03 -0.10874842296E+03  0.23705217655E+03  0.17200000000E+03 0. -1.
</event>
<event>
 4    1 -0.3305908E-004  0.1726380E+03  0.7818608E-02  0.1175124E+00
          5   -1    0    0  501    0  0.00000000000E+00  0.00000000000E+00  0.83172793624E+02  0.83305483609E+02  0.47000000000E+01 0. -1.
         -5   -1    0    0    0  501 -0.00000000000E+00 -0.00000000000E+00 -0.37342209282E+03  0.37345166944E+03  0.47000000000E+01 0.  1.
          6    1    1    2  502    0 -0.49445361715E+01  0.13979272189E+02 -0.19167186196E+03  0.25795730491E+03  0.17200000000E+03 0.  1.
         -6    1    1    2    0  502  0.49445361715E+01 -0.13979272189E+02 -0.98577437245E+02  0.19879984815E+03  0.17200000000E+03 0. -1.
</event>
<event>
 4    1 -0.3305908E-004  0.1906976E+03  0.7818608E-02  0.1157834E+00
          5   -1    0    0  501    0  0.00000000000E+00  0.00000000000E+00  0.12860537750E+03  0.12869123172E+03  0.47000000000E+01 0. -1.
         -5   -1    0    0    0  501 -0.00000000000E+00 -0.00000000000E+00 -0.51262466280E+03  0.51264620833E+03  0.47000000000E+01 0.  1.
          6    1    1    2  502    0  0.10035921372E+02  0.81736545535E+02  0.22785326657E+02  0.19205403850E+03  0.17200000000E+03 0. -1.
         -6    1    1    2    0  502 -0.10035921372E+02 -0.81736545535E+02 -0.40680461196E+03  0.44928340155E+03  0.17200000000E+03 0.  1.
</event>
<event>
 4    1 -0.3305908E-004  0.1857743E+03  0.7818608E-02  0.1162329E+00
         -5   -1    0    0    0  501 -0.00000000000E+00  0.00000000000E+00  0.10982948078E+03  0.10992999977E+03  0.47000000000E+01 0.  1.
          5   -1    0    0  501    0  0.00000000000E+00 -0.00000000000E+00 -0.38975628896E+03  0.38978462615E+03  0.47000000000E+01 0. -1.
          6    1    1    2  502    0 -0.48344590217E+02 -0.50900777772E+02 -0.25012056747E+03  0.31156441846E+03  0.17200000000E+03 0.  1.
         -6    1    1    2    0  502  0.48344590217E+02  0.50900777772E+02 -0.29806240708E+02  0.18815020746E+03  0.17200000000E+03 0.  1.
</event>
<event>
 4    1 -0.3305908E-004  0.2565556E+03  0.7818608E-02  0.1109231E+00
          5   -1    0    0  501    0  0.00000000000E+00  0.00000000000E+00  0.12178455498E+03  0.12187521418E+03  0.47000000000E+01 0. -1.
         -5   -1    0    0    0  501 -0.00000000000E+00 -0.00000000000E+00 -0.92934351465E+03  0.92935539930E+03  0.47000000000E+01 0.  1.
          6    1    1    2  502    0 -0.10945219221E+03  0.15574656908E+03 -0.63662580924E+02  0.26433633948E+03  0.17200000000E+03 0. -1.
         -6    1    1    2    0  502  0.10945219221E+03 -0.15574656908E+03 -0.74389637874E+03  0.78689427401E+03  0.17200000000E+03 0.  1.
</event>
<event>
 4    1 -0.3305908E-004  0.2972918E+03  0.7818608E-02  0.1086602E+00
          5   -1    0    0  501    0  0.00000000000E+00  0.00000000000E+00  0.14915264941E+03  0.14922668268E+03  0.47000000000E+01 0. -1.
         -5   -1    0    0    0  501 -0.00000000000E+00 -0.00000000000E+00 -0.69690986737E+03  0.69692571573E+03  0.47000000000E+01 0.  1.
          6    1    1    2  502    0 -0.79402615546E+02  0.22911492416E+03 -0.11000111635E+03  0.31699001471E+03  0.17200000000E+03 0. -1.
         -6    1    1    2    0  502  0.79402615546E+02 -0.22911492416E+03 -0.43775610161E+03  0.52916238370E+03  0.17200000000E+03 0.  1.
</event>
<event>
 4    1 -0.3305908E-004  0.2129771E+03  0.7818608E-02  0.1139230E+00
          5   -1    0    0  501    0  0.00000000000E+00  0.00000000000E+00  0.15867675445E+03  0.15874634610E+03  0.47000000000E+01 0. -1.
         -5   -1    0    0    0  501 -0.00000000000E+00 -0.00000000000E+00 -0.31362322416E+03  0.31365843960E+03  0.47000000000E+01 0.  1.
          6    1    1    2  502    0  0.20912470890E+02  0.12384624619E+03 -0.70153861895E+01  0.21309256153E+03  0.17200000000E+03 0. -1.
         -6    1    1    2    0  502 -0.20912470890E+02 -0.12384624619E+03 -0.14793108353E+03  0.25931222418E+03  0.17200000000E+03 0.  1.
</event>
<event>
 4    1 -0.3305908E-004  0.1774178E+03  0.7818608E-02  0.1170326E+00
          5   -1    0    0  501    0  0.00000000000E+00  0.00000000000E+00  0.17074383244E+03  0.17080850774E+03  0.47000000000E+01 0. -1.
         -5   -1    0    0    0  501 -0.00000000000E+00 -0.00000000000E+00 -0.21234396981E+03  0.21239597810E+03  0.47000000000E+01 0.  1.
          6    1    1    2  502    0  0.43506486152E+02  0.52472943647E+00 -0.90506234230E+02  0.19916944573E+03  0.17200000000E+03 0.  1.
         -6    1    1    2    0  502 -0.43506486152E+02 -0.52472943647E+00  0.48906096864E+02  0.18403504011E+03  0.17200000000E+03 0. -1.
</event>
<event>
 4    1 -0.3305908E-004  0.1881340E+03  0.7818608E-02  0.1160155E+00
         -5   -1    0    0    0  501 -0.00000000000E+00  0.00000000000E+00  0.79253708734E+03  0.79255102347E+03  0.47000000000E+01 0.  1.
          5   -1    0    0  501    0  0.00000000000E+00 -0.00000000000E+00 -0.45039273204E+02  0.45283839620E+02  0.47000000000E+01 0. -1.
          6    1    1    2  502    0  0.71783628396E+02  0.25642099755E+02  0.32896591610E+03  0.37896303321E+03  0.17200000000E+03 0. -1.
         -6    1    1    2    0  502 -0.71783628396E+02 -0.25642099755E+02  0.41853189804E+03  0.45887182988E+03  0.17200000000E+03 0.  1.
</event>
<event>
 4    1 -0.3305908E-004  0.3822723E+03  0.7818608E-02  0.1050097E+00
          5   -1    0    0  501    0  0.00000000000E+00  0.00000000000E+00  0.26316544962E+03  0.26320741607E+03  0.47000000000E+01 0. -1.
         -5   -1    0    0    0  501 -0.00000000000E+00 -0.00000000000E+00 -0.12115817881E+04  0.12115909042E+04  0.47000000000E+01 0.  1.
          6    1    1    2  502    0  0.16918791917E+03 -0.29651911748E+03  0.68539189117E+02  0.38836807215E+03  0.17200000000E+03 0. -1.
         -6    1    1    2    0  502 -0.16918791917E+03  0.29651911748E+03 -0.10169555276E+04  0.10864302481E+04  0.17200000000E+03 0.  1.
</event>
<event>
 4    1 -0.3305908E-004  0.2750361E+03  0.7818608E-02  0.1098431E+00
          5   -1    0    0  501    0  0.00000000000E+00  0.00000000000E+00  0.30592060460E+03  0.30595670661E+03  0.47000000000E+01 0. -1.
         -5   -1    0    0    0  501 -0.00000000000E+00 -0.00000000000E+00 -0.82868500779E+03  0.82869833603E+03  0.47000000000E+01 0.  1.
          6    1    1    2  502    0 -0.20925410705E+03  0.47681918829E+02  0.21383550748E+03  0.34838265020E+03  0.17200000000E+03 0. -1.
         -6    1    1    2    0  502  0.20925410705E+03 -0.47681918829E+02 -0.73659991068E+03  0.78627239244E+03  0.17200000000E+03 0.  1.
</event>
<event>
 4    1 -0.3305908E-004  0.3520628E+03  0.7818608E-02  0.1061772E+00
         -5   -1    0    0    0  501 -0.00000000000E+00  0.00000000000E+00  0.38710993422E+03  0.38713846512E+03  0.47000000000E+01 0.  1.
          5   -1    0    0  501    0  0.00000000000E+00 -0.00000000000E+00 -0.32091944812E+03  0.32095386301E+03  0.47000000000E+01 0. -1.
          6    1    1    2  502    0  0.14917667792E+03 -0.26853401911E+03  0.50641774788E+02  0.35568636467E+03  0.17200000000E+03 0. -1.
         -6    1    1    2    0  502 -0.14917667792E+03  0.26853401911E+03  0.15548711319E+02  0.35240596346E+03  0.17200000000E+03 0.  1.
</event>
<event>
 4    1 -0.3305908E-004  0.2015576E+03  0.7818608E-02  0.1148431E+00
          5   -1    0    0  501    0  0.00000000000E+00  0.00000000000E+00  0.77258907808E+03  0.77260337403E+03  0.47000000000E+01 0. -1.
         -5   -1    0    0    0  501 -0.00000000000E+00 -0.00000000000E+00 -0.54013791477E+02  0.54217890680E+02  0.47000000000E+01 0.  1.
          6    1    1    2  502    0 -0.51626460397E+02 -0.91521453455E+02  0.28939696742E+03  0.35266992019E+03  0.17200000000E+03 0.  1.
         -6    1    1    2    0  502  0.51626460397E+02  0.91521453455E+02  0.42917831918E+03  0.47415134452E+03  0.17200000000E+03 0. -1.
</event>
<event>
 4    1 -0.3305908E-004  0.1921294E+03  0.7818608E-02  0.1156555E+00
         -5   -1    0    0    0  501 -0.00000000000E+00  0.00000000000E+00  0.44619775531E+02  0.44866628672E+02  0.47000000000E+01 0.  1.
          5   -1    0    0  501    0  0.00000000000E+00 -0.00000000000E+00 -0.83106326522E+03  0.83107655532E+03  0.47000000000E+01 0. -1.
          6    1    1    2  502    0  0.21414200354E+02  0.82892287914E+02 -0.35508165199E+03  0.40372847181E+03  0.17200000000E+03 0.  1.
         -6    1    1    2    0  502 -0.21414200354E+02 -0.82892287914E+02 -0.43136183770E+03  0.47221471218E+03  0.17200000000E+03 0. -1.
</event>
<event>
 4    1 -0.3305908E-004  0.1771789E+03  0.7818608E-02  0.1170562E+00
          5   -1    0    0  501    0  0.00000000000E+00  0.00000000000E+00  0.12206572238E+03  0.12215617291E+03  0.47000000000E+01 0. -1.
         -5   -1    0    0    0  501 -0.00000000000E+00 -0.00000000000E+00 -0.39886699461E+03  0.39889468458E+03  0.47000000000E+01 0.  1.
          6    1    1    2  502    0 -0.26865466614E+02 -0.32963633642E+02  0.16965465214E+02  0.17798927341E+03  0.17200000000E+03 0. -1.
         -6    1    1    2    0  502  0.26865466614E+02  0.32963633642E+02 -0.29376673745E+03  0.34306158408E+03  0.17200000000E+03 0.  1.
</event>
<event>
 4    1 -0.3305908E-004  0.1735525E+03  0.7818608E-02  0.1174193E+00
         -5   -1    0    0    0  501 -0.00000000000E+00  0.00000000000E+00  0.27135976233E+02  0.27539992849E+02  0.47000000000E+01 0.  1.
          5   -1    0    0  501    0  0.00000000000E+00 -0.00000000000E+00 -0.11499140424E+04  0.11499236474E+04  0.47000000000E+01 0. -1.
          6    1    1    2  502    0  0.21548241323E+02 -0.84947124547E+01 -0.44045081605E+03  0.47341040145E+03  0.17200000000E+03 0.  1.
         -6    1    1    2    0  502 -0.21548241323E+02  0.84947124547E+01 -0.68232725012E+03  0.70405323883E+03  0.17200000000E+03 0. -1.
</event>
<event>
 4    1 -0.3305908E-004  0.2019859E+03  0.7818608E-02  0.1148074E+00
         -5   -1    0    0    0  501 -0.00000000000E+00  0.00000000000E+00  0.61925375835E+02  0.62103479551E+02  0.47000000000E+01 0.  1.
          5   -1    0    0  501    0  0.00000000000E+00 -0.00000000000E+00 -0.81493290407E+03  0.81494645722E+03  0.47000000000E+01 0. -1.
          6    1    1    2  502    0 -0.13241119454E+02 -0.10506655243E+03 -0.56910404196E+03  0.60388551752E+03  0.17200000000E+03 0. -1.
         -6    1    1    2    0  502  0.13241119454E+02  0.10506655243E+03 -0.18390348627E+03  0.27316441925E+03  0.17200000000E+03 0.  1.
</event>
<event>
 4    1 -0.3305908E-004  0.1734129E+03  0.7818608E-02  0.1174335E+00
          5   -1    0    0  501    0  0.00000000000E+00  0.00000000000E+00  0.35278647987E+02  0.35590349869E+02  0.47000000000E+01 0. -1.
         -5   -1    0    0    0  501 -0.00000000000E+00 -0.00000000000E+00 -0.87041426591E+03  0.87042695518E+03  0.47000000000E+01 0.  1.
          6    1    1    2  502    0 -0.29091189432E+01 -0.21898788262E+02 -0.48968501870E+03  0.51948381827E+03  0.17200000000E+03 0.  1.
         -6    1    1    2    0  502  0.29091189432E+01  0.21898788262E+02 -0.34545059922E+03  0.38653348678E+03  0.17200000000E+03 0. -1.
</event>
<event>
 4    1 -0.3305908E-004  0.1845645E+03  0.7818608E-02  0.1163457E+00
         -5   -1    0    0    0  501 -0.00000000000E+00  0.00000000000E+00  0.92879033200E+02  0.92997875289E+02  0.47000000000E+01 0.  1.
          5   -1    0    0  501    0  0.00000000000E+00 -0.00000000000E+00 -0.36911442430E+03  0.36914434606E+03  0.47000000000E+01 0. -1.
          6    1    1    2  502    0 -0.64045175145E+02  0.19448814539E+02 -0.15797055374E+03  0.24293772185E+03  0.17200000000E+03 0. -1.
         -6    1    1    2    0  502  0.64045175145E+02 -0.19448814539E+02 -0.11826483736E+03  0.21920449950E+03  0.17200000000E+03 0.  1.
</event>
<event>
 4    1 -0.3305908E-004  0.4566048E+03  0.7818608E-02  0.1025771E+00
         -5   -1    0    0    0  501 -0.00000000000E+00  0.00000000000E+00  0.20473212832E+03  0.20478606975E+03  0.47000000000E+01 0.  1.
          5   -1    0    0  501    0  0.00000000000E+00 -0.00000000000E+00 -0.16980894320E+04  0.16980959363E+04  0.47000000000E+01 0. -1.
          6    1    1    2  502    0 -0.25077657742E+03 -0.34060987022E+03 -0.13487225454E+04  0.14239173009E+04  0.17200000000E+03 0. -1.
         -6    1    1    2    0  502  0.25077657742E+03  0.34060987022E+03 -0.14463475827E+03  0.47896470514E+03  0.17200000000E+03 0.  1.
</event>
<event>
 4    1 -0.3305908E-004  0.1974348E+03  0.7818608E-02  0.1151921E+00
          5   -1    0    0  501    0  0.00000000000E+00  0.00000000000E+00  0.34633955342E+02  0.34951407162E+02  0.47000000000E+01 0. -1.
         -5   -1    0    0    0  501 -0.00000000000E+00 -0.00000000000E+00 -0.11239891191E+04  0.11239989457E+04  0.47000000000E+01 0.  1.
          6    1    1    2  502    0 -0.69495639295E+02  0.67578490355E+02 -0.51034491339E+03  0.54720419119E+03  0.17200000000E+03 0.  1.
         -6    1    1    2    0  502  0.69495639295E+02 -0.67578490355E+02 -0.57901025038E+03  0.61174616164E+03  0.17200000000E+03 0. -1.
</event>
<event>
 4    1 -0.3305908E-004  0.3144865E+03  0.7818608E-02  0.1078215E+00
         -5   -1    0    0    0  501 -0.00000000000E+00  0.00000000000E+00  0.66582915302E+03  0.66584574115E+03  0.47000000000E+01 0.  1.
          5   -1    0    0  501    0  0.00000000000E+00 -0.00000000000E+00 -0.20194643965E+03  0.20200112497E+03  0.47000000000E+01 0. -1.
          6    1    1    2  502    0  0.21088480534E+03 -0.15762411639E+03  0.87210531165E+01  0.31460740608E+03  0.17200000000E+03 0. -1.
         -6    1    1    2    0  502 -0.21088480534E+03  0.15762411639E+03  0.45516166025E+03  0.55323946005E+03  0.17200000000E+03 0.  1.
</event>
<event>
 4    1 -0.3305908E-004  0.2114500E+03  0.7818608E-02  0.1140423E+00
          5   -1    0    0  501    0  0.00000000000E+00  0.00000000000E+00  0.41620429789E+03  0.41623083449E+03  0.47000000000E+01 0. -1.
         -5   -1    0    0    0  501 -0.00000000000E+00 -0.00000000000E+00 -0.10774517032E+03  0.10784763200E+03  0.47000000000E+01 0.  1.
          6    1    1    2  502    0 -0.95532768889E+02 -0.77463420461E+02  0.17020053488E+03  0.27143933671E+03  0.17200000000E+03 0. -1.
         -6    1    1    2    0  502  0.95532768889E+02  0.77463420461E+02  0.13825859269E+03  0.25263912977E+03  0.17200000000E+03 0.  1.
</event>
<event>
 4    1 -0.3305908E-004  0.1827435E+03  0.7818608E-02  0.1165174E+00
         -5   -1    0    0    0  501 -0.00000000000E+00  0.00000000000E+00  0.67635739322E+03  0.67637372315E+03  0.47000000000E+01 0.  1.
          5   -1    0    0  501    0  0.00000000000E+00 -0.00000000000E+00 -0.15370861728E+03  0.15378045723E+03  0.47000000000E+01 0. -1.
          6    1    1    2  502    0 -0.19810937408E+02  0.58469628213E+02 -0.80677001640E+02  0.19975972882E+03  0.17200000000E+03 0. -1.
         -6    1    1    2    0  502  0.19810937408E+02 -0.58469628213E+02  0.60332577758E+03  0.63039445156E+03  0.17200000000E+03 0.  1.
</event>
<event>
 4    1 -0.3305908E-004  0.2851317E+03  0.7818608E-02  0.1092919E+00
          5   -1    0    0  501    0  0.00000000000E+00  0.00000000000E+00  0.25901088387E+03  0.25905352335E+03  0.47000000000E+01 0. -1.
         -5   -1    0    0    0  501 -0.00000000000E+00 -0.00000000000E+00 -0.34394950583E+03  0.34398161660E+03  0.47000000000E+01 0.  1.
          6    1    1    2  502    0 -0.21784485118E+03 -0.65266603181E+02  0.46789617626E+02  0.28894528373E+03  0.17200000000E+03 0. -1.
         -6    1    1    2    0  502  0.21784485118E+03  0.65266603181E+02 -0.13172823959E+03  0.31408985622E+03  0.17200000000E+03 0.  1.
</event>
<event>
 4    1 -0.3305908E-004  0.1864735E+03  0.7818608E-02  0.1161681E+00
          5   -1    0    0  501    0  0.00000000000E+00  0.00000000000E+00  0.89022829327E+03  0.89024070012E+03  0.47000000000E+01 0. -1.
         -5   -1    0    0    0  501 -0.00000000000E+00 -0.00000000000E+00 -0.40400234564E+02  0.40672705255E+02  0.47000000000E+01 0.  1.
          6    1    1    2  502    0 -0.14801184688E+02 -0.70493288104E+02  0.51411077000E+03  0.54688413999E+03  0.17200000000E+03 0.  1.
         -6    1    1    2    0  502  0.14801184688E+02  0.70493288104E+02  0.33571728871E+03  0.38402926539E+03  0.17200000000E+03 0.  1.
</event>
<event>
 4    1 -0.3305908E-004  0.1785901E+03  0.7818608E-02  0.1169175E+00
          5   -1    0    0  501    0  0.00000000000E+00  0.00000000000E+00  0.31272680671E+03  0.31276212308E+03  0.47000000000E+01 0. -1.
         -5   -1    0    0    0  501 -0.00000000000E+00 -0.00000000000E+00 -0.28868783648E+03  0.28872609327E+03  0.47000000000E+01 0.  1.
          6    1    1    2  502    0  0.38750326295E+02 -0.28440227202E+02  0.25389044010E+03  0.31041067940E+03  0.17200000000E+03 0. -1.
         -6    1    1    2    0  502 -0.38750326295E+02  0.28440227202E+02 -0.22985146988E+03  0.29107753695E+03  0.17200000000E+03 0.  1.
</event>
<event>
 4    1 -0.3305908E-004  0.1863552E+03  0.7818608E-02  0.1161790E+00
          5   -1    0    0  501    0  0.00000000000E+00  0.00000000000E+00  0.45050962269E+03  0.45053413870E+03  0.47000000000E+01 0. -1.
         -5   -1    0    0    0  501 -0.00000000000E+00 -0.00000000000E+00 -0.11010387193E+03  0.11020414064E+03  0.47000000000E+01 0.  1.
          6    1    1    2  502    0 -0.52349602184E+02 -0.49028342311E+02  0.32386132402E+03  0.37365012564E+03  0.17200000000E+03 0. -1.
         -6    1    1    2    0  502  0.52349602184E+02  0.49028342311E+02  0.16544426735E+02  0.18708815370E+03  0.17200000000E+03 0.  1.
</event>
<event>
 4    1 -0.3305908E-004  0.1984103E+03  0.7818608E-02  0.1151087E+00
          5   -1    0    0  501    0  0.00000000000E+00  0.00000000000E+00  0.21776149087E+03  0.21781220559E+03  0.47000000000E+01 0. -1.
         -5   -1    0    0    0  501 -0.00000000000E+00 -0.00000000000E+00 -0.18203252273E+03  0.18209318859E+03  0.47000000000E+01 0.  1.
          6    1    1    2  502    0 -0.11409265732E+02  0.98246956500E+02  0.61103069439E+00  0.19841121230E+03  0.17200000000E+03 0. -1.
         -6    1    1    2    0  502  0.11409265732E+02 -0.98246956500E+02  0.35117937444E+02  0.20149418189E+03  0.17200000000E+03 0.  1.
</event>
<event>
 4    1 -0.3305908E-004  0.1729157E+03  0.7818608E-02  0.1174841E+00
          5   -1    0    0  501    0  0.00000000000E+00  0.00000000000E+00  0.23436283544E+03  0.23440995848E+03  0.47000000000E+01 0. -1.
         -5   -1    0    0    0  501 -0.00000000000E+00 -0.00000000000E+00 -0.13654728855E+03  0.13662815234E+03  0.47000000000E+01 0.  1.
          6    1    1    2  502    0  0.10728716748E+02  0.14167994470E+02  0.11137728958E+01  0.17291928152E+03  0.17200000000E+03 0.  1.
         -6    1    1    2    0  502 -0.10728716748E+02 -0.14167994470E+02  0.96701773989E+02  0.19811882930E+03  0.17200000000E+03 0. -1.
</event>
<event>
 4    1 -0.3305908E-004  0.1823084E+03  0.7818608E-02  0.1165588E+00
         -5   -1    0    0    0  501 -0.00000000000E+00  0.00000000000E+00  0.43750312452E+02  0.44002043585E+02  0.47000000000E+01 0.  1.
          5   -1    0    0  501    0  0.00000000000E+00 -0.00000000000E+00 -0.75886779776E+03  0.75888235220E+03  0.47000000000E+01 0. -1.
          6    1    1    2  502    0 -0.50585156594E+02  0.33067770784E+02 -0.33899187638E+03  0.38490495942E+03  0.17200000000E+03 0.  1.
         -6    1    1    2    0  502  0.50585156594E+02 -0.33067770784E+02 -0.37612560892E+03  0.41797943636E+03  0.17200000000E+03 0. -1.
</event>
<event>
 4    1 -0.3305908E-004  0.6998757E+03  0.7818608E-02  0.9717445E-01
          5   -1    0    0  501    0  0.00000000000E+00  0.00000000000E+00  0.64156032326E+03  0.64157753887E+03  0.47000000000E+01 0. -1.
         -5   -1    0    0    0  501 -0.00000000000E+00 -0.00000000000E+00 -0.13537650665E+04  0.13537732252E+04  0.47000000000E+01 0.  1.
          6    1    1    2  502    0 -0.50526611474E+03 -0.45271199154E+03  0.30269578873E+03  0.76252916961E+03  0.17200000000E+03 0. -1.
         -6    1    1    2    0  502  0.50526611474E+03  0.45271199154E+03 -0.10149005320E+04  0.12328215945E+04  0.17200000000E+03 0.  1.
</event>
<event>
 4    1 -0.3305908E-004  0.2976196E+03  0.7818608E-02  0.1086437E+00
          5   -1    0    0  501    0  0.00000000000E+00  0.00000000000E+00  0.12416074454E+04  0.12416163411E+04  0.47000000000E+01 0. -1.
         -5   -1    0    0    0  501 -0.00000000000E+00 -0.00000000000E+00 -0.89339535969E+02  0.89463080023E+02  0.47000000000E+01 0.  1.
          6    1    1    2  502    0  0.17439941335E+03  0.16905104829E+03  0.87532874187E+03  0.92454195073E+03  0.17200000000E+03 0. -1.
         -6    1    1    2    0  502 -0.17439941335E+03 -0.16905104829E+03  0.27693916757E+03  0.40653747040E+03  0.17200000000E+03 0.  1.
</event>
<event>
 4    1 -0.3305908E-004  0.1900405E+03  0.7818608E-02  0.1158425E+00
          5   -1    0    0  501    0  0.00000000000E+00  0.00000000000E+00  0.80138049483E+02  0.80275755835E+02  0.47000000000E+01 0. -1.
         -5   -1    0    0    0  501 -0.00000000000E+00 -0.00000000000E+00 -0.64491945572E+03  0.64493658166E+03  0.47000000000E+01 0.  1.
          6    1    1    2  502    0  0.59726977224E+02 -0.54443351004E+02 -0.83133426593E+02  0.20742843801E+03  0.17200000000E+03 0. -1.
         -6    1    1    2    0  502 -0.59726977224E+02  0.54443351004E+02 -0.48164797965E+03  0.51778389949E+03  0.17200000000E+03 0.  1.
</event>
<event>
 4    1 -0.3305908E-004  0.1807754E+03  0.7818608E-02  0.1167055E+00
         -5   -1    0    0    0  501 -0.00000000000E+00  0.00000000000E+00  0.59901896717E+03  0.59903740536E+03  0.47000000000E+01 0.  1.
          5   -1    0    0  501    0  0.00000000000E+00 -0.00000000000E+00 -0.57549459363E+02  0.57741062278E+02  0.47000000000E+01 0. -1.
          6    1    1    2  502    0  0.55463468992E+02  0.44202451049E+01  0.19448192089E+03  0.26552392079E+03  0.17200000000E+03 0. -1.
         -6    1    1    2    0  502 -0.55463468992E+02 -0.44202451049E+01  0.34698758691E+03  0.39125454685E+03  0.17200000000E+03 0.  1.
</event>
<event>
 4    1 -0.3305908E-004  0.1822261E+03  0.7818608E-02  0.1165666E+00
          5   -1    0    0  501    0  0.00000000000E+00  0.00000000000E+00  0.48330212460E+03  0.48332497726E+03  0.47000000000E+01 0. -1.
         -5   -1    0    0    0  501 -0.00000000000E+00 -0.00000000000E+00 -0.69051588387E+02  0.69211356430E+02  0.47000000000E+01 0.  1.
          6    1    1    2  502    0  0.56328811590E+02  0.21199875288E+02  0.18487219498E+03  0.25958447220E+03  0.17200000000E+03 0.  1.
         -6    1    1    2    0  502 -0.56328811590E+02 -0.21199875288E+02  0.22937834123E+03  0.29295186150E+03  0.17200000000E+03 0.  1.
</event>
<event>
 4    1 -0.3305908E-004  0.1979188E+03  0.7818608E-02  0.1151507E+00
         -5   -1    0    0    0  501 -0.00000000000E+00  0.00000000000E+00  0.57613720668E+03  0.57615637714E+03  0.47000000000E+01 0.  1.
          5   -1    0    0  501    0  0.00000000000E+00 -0.00000000000E+00 -0.12311601269E+03  0.12320569216E+03  0.47000000000E+01 0. -1.
          6    1    1    2  502    0 -0.97916355927E+02  0.48700566800E+00 -0.75534753313E+01  0.19806288123E+03  0.17200000000E+03 0. -1.
         -6    1    1    2    0  502  0.97916355927E+02 -0.48700566800E+00  0.46057466933E+03  0.50129918807E+03  0.17200000000E+03 0.  1.
</event>
<event>
 4    1 -0.3305908E-004  0.1886177E+03  0.7818608E-02  0.1159714E+00
         -5   -1    0    0    0  501 -0.00000000000E+00  0.00000000000E+00  0.24686268832E+03  0.24690742574E+03  0.47000000000E+01 0.  1.
          5   -1    0    0  501    0  0.00000000000E+00 -0.00000000000E+00 -0.16983079242E+03  0.16989581530E+03  0.47000000000E+01 0. -1.
          6    1    1    2  502    0  0.64898589824E+02 -0.42199733688E+02 -0.42702439556E+02  0.19339116533E+03  0.17200000000E+03 0. -1.
         -6    1    1    2    0  502 -0.64898589824E+02  0.42199733688E+02  0.11973433545E+03  0.22341207571E+03  0.17200000000E+03 0.  1.
</event>
<event>
 4    1 -0.3305908E-004  0.1956453E+03  0.7818608E-02  0.1153466E+00
         -5   -1    0    0    0  501 -0.00000000000E+00  0.00000000000E+00  0.13256098649E+03  0.13264428046E+03  0.47000000000E+01 0.  1.
          5   -1    0    0  501    0  0.00000000000E+00 -0.00000000000E+00 -0.29898548793E+03  0.29902242724E+03  0.47000000000E+01 0. -1.
          6    1    1    2  502    0 -0.14756814215E+02  0.92061601738E+02 -0.42912664901E+02  0.20029627777E+03  0.17200000000E+03 0.  1.
         -6    1    1    2    0  502  0.14756814215E+02 -0.92061601738E+02 -0.12351183654E+03  0.23137042993E+03  0.17200000000E+03 0.  1.
</event>
<event>
 4    1 -0.3305908E-004  0.1776587E+03  0.7818608E-02  0.1170088E+00
          5   -1    0    0  501    0  0.00000000000E+00  0.00000000000E+00  0.96232238424E+02  0.96346944488E+02  0.47000000000E+01 0. -1.
         -5   -1    0    0    0  501 -0.00000000000E+00 -0.00000000000E+00 -0.55386173072E+03  0.55388167216E+03  0.47000000000E+01 0.  1.
          6    1    1    2  502    0  0.43786713991E+02 -0.78313943261E+01 -0.21069564317E+02  0.17890369923E+03  0.17200000000E+03 0. -1.
         -6    1    1    2    0  502 -0.43786713991E+02  0.78313943261E+01 -0.43655992798E+03  0.47132491742E+03  0.17200000000E+03 0.  1.
</event>
<event>
 4    1 -0.3305908E-004  0.6314882E+03  0.7818608E-02  0.9842149E-01
         -5   -1    0    0    0  501 -0.00000000000E+00  0.00000000000E+00  0.53735444600E+03  0.53737500001E+03  0.47000000000E+01 0.  1.
          5   -1    0    0  501    0  0.00000000000E+00 -0.00000000000E+00 -0.10121392008E+04  0.10121501133E+04  0.47000000000E+01 0. -1.
          6    1    1    2  502    0 -0.16783376636E+03  0.58397362634E+03 -0.63759389010E+03  0.89738695003E+03  0.17200000000E+03 0. -1.
         -6    1    1    2    0  502  0.16783376636E+03 -0.58397362634E+03  0.16280913531E+03  0.65213816323E+03  0.17200000000E+03 0.  1.
</event>
<event>
 4    1 -0.3305908E-004  0.1731424E+03  0.7818608E-02  0.1174610E+00
          5   -1    0    0  501    0  0.00000000000E+00  0.00000000000E+00  0.80159582192E+03  0.80160960056E+03  0.47000000000E+01 0. -1.
         -5   -1    0    0    0  501 -0.00000000000E+00 -0.00000000000E+00 -0.72806884505E+02  0.72958429474E+02  0.47000000000E+01 0.  1.
          6    1    1    2  502    0 -0.19014350521E+02 -0.57226634401E+01  0.66954589120E+03  0.69157067233E+03  0.17200000000E+03 0. -1.
         -6    1    1    2    0  502  0.19014350521E+02  0.57226634401E+01  0.59243046207E+02  0.18299735770E+03  0.17200000000E+03 0.  1.
</event>
<event>
 4    1 -0.3305908E-004  0.2001391E+03  0.7818608E-02  0.1149622E+00
          5   -1    0    0  501    0  0.00000000000E+00  0.00000000000E+00  0.96216301018E+02  0.96331026059E+02  0.47000000000E+01 0. -1.
         -5   -1    0    0    0  501 -0.00000000000E+00 -0.00000000000E+00 -0.48394319331E+03  0.48396601570E+03  0.47000000000E+01 0.  1.
          6    1    1    2  502    0 -0.78070969280E+02  0.66155657251E+02 -0.85108265312E+02  0.21748347996E+03  0.17200000000E+03 0. -1.
         -6    1    1    2    0  502  0.78070969280E+02 -0.66155657251E+02 -0.30261862698E+03  0.36281356180E+03  0.17200000000E+03 0.  1.
</event>
<event>
 4    1 -0.3305908E-004  0.1905906E+03  0.7818608E-02  0.1157930E+00
          5   -1    0    0  501    0  0.00000000000E+00  0.00000000000E+00  0.42700417074E+03  0.42703003621E+03  0.47000000000E+01 0. -1.
         -5   -1    0    0    0  501 -0.00000000000E+00 -0.00000000000E+00 -0.10976953794E+03  0.10987011176E+03  0.47000000000E+01 0.  1.
          6    1    1    2  502    0  0.59728783878E+02 -0.56331751234E+02  0.28611924224E+03  0.34378629205E+03  0.17200000000E+03 0. -1.
         -6    1    1    2    0  502 -0.59728783878E+02  0.56331751234E+02  0.31115390561E+02  0.19311385593E+03  0.17200000000E+03 0.  1.
</event>
<event>
 4    1 -0.3305908E-004  0.1721955E+03  0.7818608E-02  0.1175577E+00
         -5   -1    0    0    0  501 -0.00000000000E+00  0.00000000000E+00  0.19784839539E+03  0.19790421309E+03  0.47000000000E+01 0.  1.
          5   -1    0    0  501    0  0.00000000000E+00 -0.00000000000E+00 -0.16566818970E+03  0.16573484569E+03  0.47000000000E+01 0. -1.
          6    1    1    2  502    0  0.81448866583E+01 -0.96678436193E+00  0.72419713842E+02  0.18680441323E+03  0.17200000000E+03 0.  1.
         -6    1    1    2    0  502 -0.81448866583E+01  0.96678436193E+00 -0.40239508148E+02  0.17683464555E+03  0.17200000000E+03 0. -1.
</event>
<event>
 4    1 -0.3305908E-004  0.2866496E+03  0.7818608E-02  0.1092111E+00
          5   -1    0    0  501    0  0.00000000000E+00  0.00000000000E+00  0.35271445008E+02  0.35583209987E+02  0.47000000000E+01 0. -1.
         -5   -1    0    0    0  501 -0.00000000000E+00 -0.00000000000E+00 -0.24660703886E+04  0.24660748674E+04  0.47000000000E+01 0.  1.
          6    1    1    2  502    0  0.54197264940E+02 -0.22281534472E+03 -0.90998355198E+03  0.95406398435E+03  0.17200000000E+03 0. -1.
         -6    1    1    2    0  502 -0.54197264940E+02  0.22281534472E+03 -0.15208153917E+04  0.15475940931E+04  0.17200000000E+03 0.  1.
</event>
<event>
 4    1 -0.3305908E-004  0.1854956E+03  0.7818608E-02  0.1162588E+00
         -5   -1    0    0    0  501 -0.00000000000E+00  0.00000000000E+00  0.59724166615E+02  0.59908814692E+02  0.47000000000E+01 0.  1.
          5   -1    0    0  501    0  0.00000000000E+00 -0.00000000000E+00 -0.57534731042E+03  0.57536650720E+03  0.47000000000E+01 0. -1.
          6    1    1    2  502    0 -0.68537390480E+02  0.11280144978E+02 -0.25049595153E+03  0.31169991546E+03  0.17200000000E+03 0. -1.
         -6    1    1    2    0  502  0.68537390480E+02 -0.11280144978E+02 -0.26512719227E+03  0.32357540643E+03  0.17200000000E+03 0.  1.
</event>
<event>
 4    1 -0.3305908E-004  0.3766564E+03  0.7818608E-02  0.1052177E+00
          5   -1    0    0  501    0  0.00000000000E+00  0.00000000000E+00  0.45470579104E+03  0.45473008082E+03  0.47000000000E+01 0. -1.
         -5   -1    0    0    0  501 -0.00000000000E+00 -0.00000000000E+00 -0.31316375803E+03  0.31319902513E+03  0.47000000000E+01 0.  1.
          6    1    1    2  502    0 -0.17682369861E+03  0.28463907194E+03  0.94636666191E+02  0.38836338686E+03  0.17200000000E+03 0. -1.
         -6    1    1    2    0  502  0.17682369861E+03 -0.28463907194E+03  0.46905366824E+02  0.37956571909E+03  0.17200000000E+03 0.  1.
</event>
<event>
 4    1 -0.3305908E-004  0.2574832E+03  0.7818608E-02  0.1108665E+00
          5   -1    0    0  501    0  0.00000000000E+00  0.00000000000E+00  0.86449885640E+03  0.86451163250E+03  0.47000000000E+01 0. -1.
         -5   -1    0    0    0  501 -0.00000000000E+00 -0.00000000000E+00 -0.14597469826E+03  0.14605034246E+03  0.47000000000E+01 0.  1.
          6    1    1    2  502    0 -0.18457694981E+03 -0.51428970569E+02  0.70743971447E+03  0.75284031443E+03  0.17200000000E+03 0. -1.
         -6    1    1    2    0  502  0.18457694981E+03  0.51428970569E+02  0.11084443670E+02  0.25772166053E+03  0.17200000000E+03 0.  1.
</event>
<event>
 4    1 -0.3305908E-004  0.1891229E+03  0.7818608E-02  0.1159255E+00
         -5   -1    0    0    0  501 -0.00000000000E+00  0.00000000000E+00  0.27412936171E+03  0.27416964995E+03  0.47000000000E+01 0.  1.
          5   -1    0    0  501    0  0.00000000000E+00 -0.00000000000E+00 -0.22492444163E+03  0.22497354165E+03  0.47000000000E+01 0. -1.
          6    1    1    2  502    0 -0.48198331557E+02 -0.62132028067E+02 -0.13716132564E+03  0.23362512136E+03  0.17200000000E+03 0. -1.
         -6    1    1    2    0  502  0.48198331557E+02  0.62132028067E+02  0.18636624573E+03  0.26551807024E+03  0.17200000000E+03 0.  1.
</event>
<event>
 4    1 -0.3305908E-004  0.1912844E+03  0.7818608E-02  0.1157308E+00
          5   -1    0    0  501    0  0.00000000000E+00  0.00000000000E+00  0.90221511153E+02  0.90343849125E+02  0.47000000000E+01 0. -1.
         -5   -1    0    0    0  501 -0.00000000000E+00 -0.00000000000E+00 -0.41877039969E+03  0.41879677369E+03  0.47000000000E+01 0.  1.
          6    1    1    2  502    0  0.78975461308E+02 -0.27723441565E+02 -0.21018809159E+03  0.28419842812E+03  0.17200000000E+03 0.  1.
         -6    1    1    2    0  502 -0.78975461308E+02  0.27723441565E+02 -0.11836079695E+03  0.22494219470E+03  0.17200000000E+03 0.  1.
</event>
<event>
 4    1 -0.3305908E-004  0.3342795E+03  0.7818608E-02  0.1069259E+00
          5   -1    0    0  501    0  0.00000000000E+00  0.00000000000E+00  0.63192343021E+03  0.63194090835E+03  0.47000000000E+01 0. -1.
         -5   -1    0    0    0  501 -0.00000000000E+00 -0.00000000000E+00 -0.26205932947E+03  0.26210147303E+03  0.47000000000E+01 0.  1.
          6    1    1    2  502    0 -0.26112541568E+03  0.11820455765E+03  0.43990622999E+03  0.55250365731E+03  0.17200000000E+03 0. -1.
         -6    1    1    2    0  502  0.26112541568E+03 -0.11820455765E+03 -0.70042129247E+02  0.34153872407E+03  0.17200000000E+03 0.  1.
</event>
<event>
 4    1 -0.3305908E-004  0.2157352E+03  0.7818608E-02  0.1137103E+00
          5   -1    0    0  501    0  0.00000000000E+00  0.00000000000E+00  0.24894721717E+03  0.24899158005E+03  0.47000000000E+01 0. -1.
         -5   -1    0    0    0  501 -0.00000000000E+00 -0.00000000000E+00 -0.20391063413E+03  0.20396479282E+03  0.47000000000E+01 0.  1.
          6    1    1    2  502    0  0.12888491638E+03 -0.18610532326E+02  0.87985787104E+02  0.23298749391E+03  0.17200000000E+03 0. -1.
         -6    1    1    2    0  502 -0.12888491638E+03  0.18610532326E+02 -0.42949204059E+02  0.21996887897E+03  0.17200000000E+03 0. -1.
</event>
<event>
 4    1 -0.3305908E-004  0.1981728E+03  0.7818608E-02  0.1151290E+00
         -5   -1    0    0    0  501 -0.00000000000E+00  0.00000000000E+00  0.14218720986E+03  0.14226486793E+03  0.47000000000E+01 0.  1.
          5   -1    0    0  501    0  0.00000000000E+00 -0.00000000000E+00 -0.29980185506E+03  0.29983869380E+03  0.47000000000E+01 0. -1.
          6    1    1    2  502    0  0.25252952135E+01  0.98397669176E+02 -0.14104144548E+03  0.24323891086E+03  0.17200000000E+03 0.  1.
         -6    1    1    2    0  502 -0.25252952135E+01 -0.98397669176E+02 -0.16573199729E+02  0.19886465087E+03  0.17200000000E+03 0.  1.
</event>
<event>
 4    1 -0.3305908E-004  0.1908391E+03  0.7818608E-02  0.1157707E+00
          5   -1    0    0  501    0  0.00000000000E+00  0.00000000000E+00  0.80073588551E+02  0.80211405570E+02  0.47000000000E+01 0. -1.
         -5   -1    0    0    0  501 -0.00000000000E+00 -0.00000000000E+00 -0.58633106919E+03  0.58634990637E+03  0.47000000000E+01 0.  1.
          6    1    1    2  502    0 -0.47257878183E+01  0.82542326554E+02 -0.94988619536E+02  0.21317224628E+03  0.17200000000E+03 0. -1.
         -6    1    1    2    0  502  0.47257878183E+01 -0.82542326554E+02 -0.41126886110E+03  0.45338906565E+03  0.17200000000E+03 0.  1.
</event>
<event>
 4    1 -0.3305908E-004  0.2177216E+03  0.7818608E-02  0.1135593E+00
          5   -1    0    0  501    0  0.00000000000E+00  0.00000000000E+00  0.63055053102E+02  0.63229974867E+02  0.47000000000E+01 0. -1.
         -5   -1    0    0    0  501 -0.00000000000E+00 -0.00000000000E+00 -0.85091899227E+03  0.85093197225E+03  0.47000000000E+01 0.  1.
          6    1    1    2  502    0 -0.12461388170E+03  0.47854684941E+02 -0.23696238628E+03  0.32179786030E+03  0.17200000000E+03 0. -1.
         -6    1    1    2    0  502  0.12461388170E+03 -0.47854684941E+02 -0.55090155289E+03  0.59236408682E+03  0.17200000000E+03 0.  1.
</event>
<event>
 4    1 -0.3305908E-004  0.2021162E+03  0.7818608E-02  0.1147966E+00
         -5   -1    0    0    0  501 -0.00000000000E+00  0.00000000000E+00  0.41099601447E+03  0.41102288733E+03  0.47000000000E+01 0.  1.
          5   -1    0    0  501    0  0.00000000000E+00 -0.00000000000E+00 -0.11367760441E+03  0.11377472366E+03  0.47000000000E+01 0. -1.
          6    1    1    2  502    0  0.53179058711E+02 -0.91863626847E+02  0.55424535624E+02  0.20957771201E+03  0.17200000000E+03 0. -1.
         -6    1    1    2    0  502 -0.53179058711E+02  0.91863626847E+02  0.24189387443E+03  0.31521989898E+03  0.17200000000E+03 0.  1.
</event>
<event>
 4    1 -0.3305908E-004  0.3245403E+03  0.7818608E-02  0.1073578E+00
          5   -1    0    0  501    0  0.00000000000E+00  0.00000000000E+00  0.55684493723E+03  0.55686477184E+03  0.47000000000E+01 0. -1.
         -5   -1    0    0    0  501 -0.00000000000E+00 -0.00000000000E+00 -0.19613884945E+03  0.19619515352E+03  0.47000000000E+01 0.  1.
          6    1    1    2  502    0 -0.43227519291E+01  0.27517947470E+03  0.10901831007E+03  0.34236153611E+03  0.17200000000E+03 0.  1.
         -6    1    1    2    0  502  0.43227519291E+01 -0.27517947470E+03  0.25168777770E+03  0.41069838924E+03  0.17200000000E+03 0.  1.
</event>
<event>
 4    1 -0.3305908E-004  0.2382629E+03  0.7818608E-02  0.1120955E+00
         -5   -1    0    0    0  501 -0.00000000000E+00  0.00000000000E+00  0.24007080002E+03  0.24011680287E+03  0.47000000000E+01 0.  1.
          5   -1    0    0  501    0  0.00000000000E+00 -0.00000000000E+00 -0.31230790587E+03  0.31234326961E+03  0.47000000000E+01 0. -1.
          6    1    1    2  502    0  0.13733398280E+03 -0.91239263536E+02 -0.17230351205E+03  0.29403694718E+03  0.17200000000E+03 0. -1.
         -6    1    1    2    0  502 -0.13733398280E+03  0.91239263536E+02  0.10006640620E+03  0.25842312530E+03  0.17200000000E+03 0.  1.
</event>
<event>
 4    1 -0.3305908E-004  0.2394094E+03  0.7818608E-02  0.1120187E+00
          5   -1    0    0  501    0  0.00000000000E+00  0.00000000000E+00  0.64614350052E+02  0.64785061802E+02  0.47000000000E+01 0. -1.
         -5   -1    0    0    0  501 -0.00000000000E+00 -0.00000000000E+00 -0.91512557993E+03  0.91513764923E+03  0.47000000000E+01 0.  1.
          6    1    1    2  502    0  0.92054411672E+02  0.13877626769E+03 -0.51308486783E+03  0.56619161843E+03  0.17200000000E+03 0. -1.
         -6    1    1    2    0  502 -0.92054411672E+02 -0.13877626769E+03 -0.33742636205E+03  0.41373109260E+03  0.17200000000E+03 0.  1.
</event>
<event>
 4    1 -0.3305908E-004  0.2042282E+03  0.7818608E-02  0.1146220E+00
          5   -1    0    0  501    0  0.00000000000E+00  0.00000000000E+00  0.78773863436E+02  0.78913950355E+02  0.47000000000E+01 0. -1.
         -5   -1    0    0    0  501 -0.00000000000E+00 -0.00000000000E+00 -0.52917559542E+03  0.52919646710E+03  0.47000000000E+01 0.  1.
          6    1    1    2  502    0 -0.81036716942E+02 -0.74553262171E+02 -0.21775886204E+03  0.29854323036E+03  0.17200000000E+03 0. -1.
         -6    1    1    2    0  502  0.81036716942E+02  0.74553262171E+02 -0.23264286994E+03  0.30956718710E+03  0.17200000000E+03 0. -1.
</event>
<event>
 4    1 -0.3305908E-004  0.1805520E+03  0.7818608E-02  0.1167270E+00
         -5   -1    0    0    0  501 -0.00000000000E+00  0.00000000000E+00  0.54428212734E+03  0.54430241975E+03  0.47000000000E+01 0.  1.
          5   -1    0    0  501    0  0.00000000000E+00 -0.00000000000E+00 -0.69451208631E+02  0.69610059476E+02  0.47000000000E+01 0. -1.
          6    1    1    2  502    0  0.54008495504E+02 -0.99050509033E+01  0.12302807876E+03  0.21848326202E+03  0.17200000000E+03 0. -1.
         -6    1    1    2    0  502 -0.54008495504E+02  0.99050509033E+01  0.35180283995E+03  0.39542921720E+03  0.17200000000E+03 0.  1.
</event>
<event>
 4    1 -0.3305908E-004  0.2083626E+03  0.7818608E-02  0.1142869E+00
          5   -1    0    0  501    0  0.00000000000E+00  0.00000000000E+00  0.32336265041E+03  0.32339680530E+03  0.47000000000E+01 0. -1.
         -5   -1    0    0    0  501 -0.00000000000E+00 -0.00000000000E+00 -0.17526341648E+03  0.17532642458E+03  0.47000000000E+01 0.  1.
          6    1    1    2  502    0  0.11477753455E+03  0.25633512870E+02  0.19474560795E+03  0.28520310523E+03  0.17200000000E+03 0. -1.
         -6    1    1    2    0  502 -0.11477753455E+03 -0.25633512870E+02 -0.46646374022E+02  0.21352012464E+03  0.17200000000E+03 0. -1.
</event>
<event>
 4    1 -0.3305908E-004  0.2920614E+03  0.7818608E-02  0.1089278E+00
         -5   -1    0    0    0  501 -0.00000000000E+00  0.00000000000E+00  0.21449972455E+03  0.21455121028E+03  0.47000000000E+01 0.  1.
          5   -1    0    0  501    0  0.00000000000E+00 -0.00000000000E+00 -0.13471257884E+04  0.13471339873E+04  0.47000000000E+01 0. -1.
          6    1    1    2  502    0 -0.22745832304E+03  0.63076101868E+02 -0.12218719033E+04  0.12562924943E+04  0.17200000000E+03 0. -1.
         -6    1    1    2    0  502  0.22745832304E+03 -0.63076101868E+02  0.89245839413E+02  0.30539270325E+03  0.17200000000E+03 0.  1.
</event>
<event>
 4    1 -0.3305908E-004  0.3018095E+03  0.7818608E-02  0.1084340E+00
         -5   -1    0    0    0  501 -0.00000000000E+00  0.00000000000E+00  0.34604537655E+03  0.34607729286E+03  0.47000000000E+01 0.  1.
          5   -1    0    0  501    0  0.00000000000E+00 -0.00000000000E+00 -0.26362066882E+03  0.26366256281E+03  0.47000000000E+01 0. -1.
          6    1    1    2  502    0  0.12464249116E+03  0.21440430247E+03  0.28515697733E+02  0.30315359232E+03  0.17200000000E+03 0.  1.
         -6    1    1    2    0  502 -0.12464249116E+03 -0.21440430247E+03  0.53909009996E+02  0.30658626335E+03  0.17200000000E+03 0.  1.
</event>
<event>
 4    1 -0.3305908E-004  0.1775337E+03  0.7818608E-02  0.1170212E+00
         -5   -1    0    0    0  501 -0.00000000000E+00  0.00000000000E+00  0.18446023782E+02  0.19035382669E+02  0.47000000000E+01 0.  1.
          5   -1    0    0  501    0  0.00000000000E+00 -0.00000000000E+00 -0.23304754339E+04  0.23304801733E+04  0.47000000000E+01 0. -1.
          6    1    1    2  502    0 -0.33739884783E+02  0.28210299109E+02 -0.17759996265E+04  0.17848509389E+04  0.17200000000E+03 0. -1.
         -6    1    1    2    0  502  0.33739884783E+02 -0.28210299109E+02 -0.53602978362E+03  0.56466461703E+03  0.17200000000E+03 0. -1.
</event>
