<event>
 4    1  0.1249554E+000  0.2306639E+03  0.7818608E-02  0.1126173E+00
         21   -1    0    0  501  502  0.00000000000E+00  0.00000000000E+00  0.85606378199E+03  0.85606378199E+03  0.00000000000E+00 0.  1.
         21   -1    0    0  502  503 -0.00000000000E+00 -0.00000000000E+00 -0.66621586041E+02  0.66621586041E+02  0.00000000000E+00 0.  1.
          6    1    1    2  501    0 -0.13034449004E+03  0.81437917358E+02  0.51422011057E+03  0.56358508016E+03  0.17200000000E+03 0.  1.
         -6    1    1    2    0  503  0.13034449004E+03 -0.81437917358E+02  0.27522208538E+03  0.35910028787E+03  0.17200000000E+03 0.  1.
</event>
<event>
 4    1  0.1249554E+000  0.1776273E+03  0.7818608E-02  0.1170119E+00
         21   -1    0    0  503  502  0.00000000000E+00  0.00000000000E+00  0.31455462005E+03  0.31455462005E+03  0.00000000000E+00 0.  1.
         21   -1    0    0  501  503 -0.00000000000E+00 -0.00000000000E+00 -0.11788374893E+03  0.11788374893E+03  0.00000000000E+00 0.  1.
          6    1    1    2  501    0 -0.23291793978E+02 -0.37748374818E+02  0.18183023365E+03  0.25419221337E+03  0.17200000000E+03 0. -1.
         -6    1    1    2    0  502  0.23291793978E+02  0.37748374818E+02  0.14840637467E+02  0.17824615561E+03  0.17200000000E+03 0. -1.
</event>
<event>
 4    1  0.1249554E+000  0.2192735E+03  0.7818608E-02  0.1134426E+00
         21   -1    0    0  501  502  0.00000000000E+00  0.00000000000E+00  0.78498296618E+03  0.78498296618E+03  0.00000000000E+00 0.  1.
         21   -1    0    0  502  503 -0.00000000000E+00 -0.00000000000E+00 -0.61781775602E+02  0.61781775602E+02  0.00000000000E+00 0. -1.
          6    1    1    2  501    0 -0.13434994027E+03 -0.21141787606E+02  0.32235278879E+03  0.38986177304E+03  0.17200000000E+03 0.  1.
         -6    1    1    2    0  503  0.13434994027E+03  0.21141787606E+02  0.40084840178E+03  0.45690296874E+03  0.17200000000E+03 0.  1.
</event>
<event>
 4    1  0.1249554E+000  0.2817186E+03  0.7818608E-02  0.1094754E+00
         21   -1    0    0  503  502  0.00000000000E+00  0.00000000000E+00  0.36145441032E+03  0.36145441032E+03  0.00000000000E+00 0.  1.
         21   -1    0    0  501  503 -0.00000000000E+00 -0.00000000000E+00 -0.23746733614E+03  0.23746733614E+03  0.00000000000E+00 0. -1.
          6    1    1    2  501    0  0.68010341740E+02  0.21249933945E+03  0.14419971351E+03  0.31647896175E+03  0.17200000000E+03 0.  1.
         -6    1    1    2    0  502 -0.68010341740E+02 -0.21249933945E+03 -0.20212639336E+02  0.28244278472E+03  0.17200000000E+03 0.  1.
</event>
<event>
 4    1  0.1249554E+000  0.2481948E+03  0.7818608E-02  0.1114451E+00
         21   -1    0    0  503  502  0.00000000000E+00  0.00000000000E+00  0.96125948624E+03  0.96125948624E+03  0.00000000000E+00 0.  1.
         21   -1    0    0  501  503 -0.00000000000E+00 -0.00000000000E+00 -0.14288824380E+03  0.14288824380E+03  0.00000000000E+00 0. -1.
          6    1    1    2  501    0  0.12200356460E+03  0.13088841851E+03 -0.80673795290E+00  0.24819608922E+03  0.17200000000E+03 0. -1.
         -6    1    1    2    0  502 -0.12200356460E+03 -0.13088841851E+03  0.81917798040E+03  0.85595164083E+03  0.17200000000E+03 0.  1.
</event>
<event>
 4    1  0.1249554E+000  0.4096134E+03  0.7818608E-02  0.1040501E+00
         21   -1    0    0  501  502  0.00000000000E+00  0.00000000000E+00  0.24941293835E+03  0.24941293835E+03  0.00000000000E+00 0. -1.
         21   -1    0    0  502  503 -0.00000000000E+00 -0.00000000000E+00 -0.67271355822E+03  0.67271355822E+03  0.00000000000E+00 0. -1.
          6    1    1    2  501    0 -0.28474324856E+03  0.23899876298E+03 -0.21230559825E+03  0.46136405728E+03  0.17200000000E+03 0. -1.
         -6    1    1    2    0  503  0.28474324856E+03 -0.23899876298E+03 -0.21099502163E+03  0.46076243929E+03  0.17200000000E+03 0. -1.
</event>
<event>
 4    1  0.1249554E+000  0.2138351E+03  0.7818608E-02  0.1138565E+00
         21   -1    0    0  501  502  0.00000000000E+00  0.00000000000E+00  0.21879045931E+03  0.21879045931E+03  0.00000000000E+00 0. -1.
         21   -1    0    0  502  503 -0.00000000000E+00 -0.00000000000E+00 -0.52027450937E+03  0.52027450937E+03  0.00000000000E+00 0.  1.
          6    1    1    2  501    0 -0.10681164321E+03  0.68794749215E+02  0.13509187969E+03  0.25293331256E+03  0.17200000000E+03 0. -1.
         -6    1    1    2    0  503  0.10681164321E+03 -0.68794749215E+02 -0.43657592975E+03  0.48613165612E+03  0.17200000000E+03 0.  1.
</event>
<event>
 4    1  0.1249554E+000  0.2261995E+03  0.7818608E-02  0.1129344E+00
         21   -1    0    0  501  502  0.00000000000E+00  0.00000000000E+00  0.15134275839E+04  0.15134275839E+04  0.00000000000E+00 0. -1.
         21   -1    0    0  502  503 -0.00000000000E+00 -0.00000000000E+00 -0.36821661299E+02  0.36821661299E+02  0.00000000000E+00 0. -1.
          6    1    1    2  501    0 -0.10199896242E+03  0.10572807223E+03  0.96004854463E+03  0.98633636334E+03  0.17200000000E+03 0. -1.
         -6    1    1    2    0  503  0.10199896242E+03 -0.10572807223E+03  0.51655737795E+03  0.56391288184E+03  0.17200000000E+03 0. -1.
</event>
<event>
 4    1  0.1249554E+000  0.2314622E+03  0.7818608E-02  0.1125615E+00
         21   -1    0    0  503  502  0.00000000000E+00  0.00000000000E+00  0.27119535399E+03  0.27119535399E+03  0.00000000000E+00 0.  1.
         21   -1    0    0  501  503 -0.00000000000E+00 -0.00000000000E+00 -0.41031223155E+03  0.41031223155E+03  0.00000000000E+00 0.  1.
          6    1    1    2  501    0  0.10556759528E+03  0.11334128314E+03 -0.31493341919E+03  0.39084245184E+03  0.17200000000E+03 0.  1.
         -6    1    1    2    0  502 -0.10556759528E+03 -0.11334128314E+03  0.17581654163E+03  0.29066513370E+03  0.17200000000E+03 0.  1.
</event>
<event>
 4    1  0.1249554E+000  0.1972206E+03  0.7818608E-02  0.1152105E+00
         21   -1    0    0  501  502  0.00000000000E+00  0.00000000000E+00  0.34352978221E+03  0.34352978221E+03  0.00000000000E+00 0. -1.
         21   -1    0    0  502  503 -0.00000000000E+00 -0.00000000000E+00 -0.45260448603E+03  0.45260448603E+03  0.00000000000E+00 0.  1.
          6    1    1    2  501    0  0.95670854124E+02  0.12610982340E+02 -0.39923639731E+03  0.44529276902E+03  0.17200000000E+03 0.  1.
         -6    1    1    2    0  503 -0.95670854124E+02 -0.12610982340E+02  0.29016169349E+03  0.35084149922E+03  0.17200000000E+03 0. -1.
</event>
<event>
 4    1  0.1249554E+000  0.2013107E+03  0.7818608E-02  0.1148638E+00
         21   -1    0    0  501  502  0.00000000000E+00  0.00000000000E+00  0.14993523170E+03  0.14993523170E+03  0.00000000000E+00 0. -1.
         21   -1    0    0  502  503 -0.00000000000E+00 -0.00000000000E+00 -0.27244835571E+03  0.27244835571E+03  0.00000000000E+00 0. -1.
          6    1    1    2  501    0  0.25702464885E+02 -0.10139714335E+03 -0.42459324216E+02  0.20573962087E+03  0.17200000000E+03 0.  1.
         -6    1    1    2    0  503 -0.25702464885E+02  0.10139714335E+03 -0.80053799791E+02  0.21664396655E+03  0.17200000000E+03 0.  1.
</event>
<event>
 4    1  0.1249554E+000  0.3821462E+03  0.7818608E-02  0.1050143E+00
         21   -1    0    0  503  502  0.00000000000E+00  0.00000000000E+00  0.52339234104E+03  0.52339234104E+03  0.00000000000E+00 0.  1.
         21   -1    0    0  501  503 -0.00000000000E+00 -0.00000000000E+00 -0.36430827397E+03  0.36430827397E+03  0.00000000000E+00 0. -1.
          6    1    1    2  501    0 -0.11735840191E+03  0.32043518599E+03 -0.13521759509E+03  0.40536341836E+03  0.17200000000E+03 0. -1.
         -6    1    1    2    0  502  0.11735840191E+03 -0.32043518599E+03  0.29430166217E+03  0.48233719665E+03  0.17200000000E+03 0. -1.
</event>
<event>
 4    1  0.1249554E+000  0.2515642E+03  0.7818608E-02  0.1112320E+00
         21   -1    0    0  501  502  0.00000000000E+00  0.00000000000E+00  0.70254748364E+02  0.70254748364E+02  0.00000000000E+00 0.  1.
         21   -1    0    0  502  503 -0.00000000000E+00 -0.00000000000E+00 -0.90078739604E+03  0.90078739604E+03  0.00000000000E+00 0.  1.
          6    1    1    2  501    0  0.12595571398E+03 -0.13355047549E+03 -0.41554232065E+03  0.48575713236E+03  0.17200000000E+03 0.  1.
         -6    1    1    2    0  503 -0.12595571398E+03  0.13355047549E+03 -0.41499032702E+03  0.48528501204E+03  0.17200000000E+03 0.  1.
</event>
<event>
 4    1  0.1249554E+000  0.4481445E+03  0.7818608E-02  0.1028277E+00
         21   -1    0    0  503  502  0.00000000000E+00  0.00000000000E+00  0.53068269398E+03  0.53068269398E+03  0.00000000000E+00 0.  1.
         21   -1    0    0  501  503 -0.00000000000E+00 -0.00000000000E+00 -0.50362854464E+03  0.50362854464E+03  0.00000000000E+00 0. -1.
          6    1    1    2  501    0  0.28545722420E+03  0.29960577681E+03 -0.24430811988E+03  0.51041150633E+03  0.17200000000E+03 0. -1.
         -6    1    1    2    0  502 -0.28545722420E+03 -0.29960577681E+03  0.27136226922E+03  0.52389973230E+03  0.17200000000E+03 0.  1.
</event>
<event>
 4    1  0.1249554E+000  0.2446001E+03  0.7818608E-02  0.1116766E+00
         21   -1    0    0  503  502  0.00000000000E+00  0.00000000000E+00  0.11689374954E+04  0.11689374954E+04  0.00000000000E+00 0.  1.
         21   -1    0    0  501  503 -0.00000000000E+00 -0.00000000000E+00 -0.16059422711E+03  0.16059422711E+03  0.00000000000E+00 0.  1.
          6    1    1    2  501    0  0.13237115849E+03 -0.11279664772E+03 -0.44529138487E+02  0.24862029585E+03  0.17200000000E+03 0. -1.
         -6    1    1    2    0  502 -0.13237115849E+03  0.11279664772E+03  0.10528724068E+04  0.10809114267E+04  0.17200000000E+03 0. -1.
</event>
<event>
 4    1  0.1249554E+000  0.2388993E+03  0.7818608E-02  0.1120528E+00
         21   -1    0    0  503  502  0.00000000000E+00  0.00000000000E+00  0.10375818751E+03  0.10375818751E+03  0.00000000000E+00 0.  1.
         21   -1    0    0  501  503 -0.00000000000E+00 -0.00000000000E+00 -0.55833591553E+03  0.55833591553E+03  0.00000000000E+00 0.  1.
          6    1    1    2  501    0 -0.12907358313E+03  0.10406203864E+03 -0.18697693109E+03  0.30336985761E+03  0.17200000000E+03 0. -1.
         -6    1    1    2    0  502  0.12907358313E+03 -0.10406203864E+03 -0.26760079692E+03  0.35872424543E+03  0.17200000000E+03 0. -1.
</event>
<event>
 4    1  0.1249554E+000  0.2325496E+03  0.7818608E-02  0.1124858E+00
         21   -1    0    0  501  502  0.00000000000E+00  0.00000000000E+00  0.12796503331E+03  0.12796503331E+03  0.00000000000E+00 0.  1.
         21   -1    0    0  502  503 -0.00000000000E+00 -0.00000000000E+00 -0.45676008736E+03  0.45676008736E+03  0.00000000000E+00 0. -1.
          6    1    1    2  501    0 -0.41029338540E+02 -0.15103611860E+03 -0.84455906887E+02  0.24741082424E+03  0.17200000000E+03 0.  1.
         -6    1    1    2    0  503  0.41029338540E+02  0.15103611860E+03 -0.24433914715E+03  0.33731429643E+03  0.17200000000E+03 0.  1.
</event>
<event>
 4    1  0.1249554E+000  0.1898371E+03  0.7818608E-02  0.1158608E+00
         21   -1    0    0  503  502  0.00000000000E+00  0.00000000000E+00  0.10941963623E+03  0.10941963623E+03  0.00000000000E+00 0.  1.
         21   -1    0    0  501  503 -0.00000000000E+00 -0.00000000000E+00 -0.33701785053E+03  0.33701785053E+03  0.00000000000E+00 0. -1.
          6    1    1    2  501    0 -0.31881046206E+02  0.73740893181E+02 -0.80144587275E+02  0.20606133869E+03  0.17200000000E+03 0. -1.
         -6    1    1    2    0  502  0.31881046206E+02 -0.73740893181E+02 -0.14745362703E+03  0.24037614806E+03  0.17200000000E+03 0. -1.
</event>
<event>
 4    1  0.1249554E+000  0.2725796E+03  0.7818608E-02  0.1099812E+00
         21   -1    0    0  503  502  0.00000000000E+00  0.00000000000E+00  0.14780428116E+04  0.14780428116E+04  0.00000000000E+00 0.  1.
         21   -1    0    0  501  503 -0.00000000000E+00 -0.00000000000E+00 -0.61745578591E+02  0.61745578591E+02  0.00000000000E+00 0. -1.
          6    1    1    2  501    0  0.16174689722E+03  0.13621154809E+03  0.37622704645E+03  0.46459276261E+03  0.17200000000E+03 0. -1.
         -6    1    1    2    0  502 -0.16174689722E+03 -0.13621154809E+03  0.10400701866E+04  0.10751956276E+04  0.17200000000E+03 0. -1.
</event>
<event>
 4    1  0.1249554E+000  0.2740289E+03  0.7818608E-02  0.1098996E+00
         21   -1    0    0  503  502  0.00000000000E+00  0.00000000000E+00  0.30111188530E+03  0.30111188530E+03  0.00000000000E+00 0. -1.
         21   -1    0    0  501  503 -0.00000000000E+00 -0.00000000000E+00 -0.35301453153E+03  0.35301453153E+03  0.00000000000E+00 0. -1.
          6    1    1    2  501    0 -0.10917863425E+03  0.18326989968E+03 -0.20315952943E+03  0.34112406058E+03  0.17200000000E+03 0. -1.
         -6    1    1    2    0  502  0.10917863425E+03 -0.18326989968E+03  0.15125688320E+03  0.31300235626E+03  0.17200000000E+03 0. -1.
</event>
<event>
 4    1  0.1249554E+000  0.2196837E+03  0.7818608E-02  0.1134119E+00
         21   -1    0    0  503  502  0.00000000000E+00  0.00000000000E+00  0.36695572078E+03  0.36695572078E+03  0.00000000000E+00 0.  1.
         21   -1    0    0  501  503 -0.00000000000E+00 -0.00000000000E+00 -0.31144175036E+03  0.31144175036E+03  0.00000000000E+00 0.  1.
          6    1    1    2  501    0  0.63680338524E+02  0.12092040849E+03 -0.23005981462E+03  0.31810131878E+03  0.17200000000E+03 0.  1.
         -6    1    1    2    0  502 -0.63680338524E+02 -0.12092040849E+03  0.28557378504E+03  0.36029615236E+03  0.17200000000E+03 0.  1.
</event>
<event>
 4    1  0.1249554E+000  0.1735987E+03  0.7818608E-02  0.1174146E+00
         21   -1    0    0  501  502  0.00000000000E+00  0.00000000000E+00  0.33830363900E+03  0.33830363900E+03  0.00000000000E+00 0.  1.
         21   -1    0    0  502  503 -0.00000000000E+00 -0.00000000000E+00 -0.90603442471E+02  0.90603442471E+02  0.00000000000E+00 0.  1.
          6    1    1    2  501    0 -0.18176601407E+02  0.14903124123E+02  0.15164746827E+03  0.23050693391E+03  0.17200000000E+03 0. -1.
         -6    1    1    2    0  503  0.18176601407E+02 -0.14903124123E+02  0.96052728261E+02  0.19840014756E+03  0.17200000000E+03 0. -1.
</event>
<event>
 4    1  0.1249554E+000  0.1927245E+03  0.7818608E-02  0.1156027E+00
         21   -1    0    0  501  502  0.00000000000E+00  0.00000000000E+00  0.30676858855E+03  0.30676858855E+03  0.00000000000E+00 0. -1.
         21   -1    0    0  502  503 -0.00000000000E+00 -0.00000000000E+00 -0.13215607503E+03  0.13215607503E+03  0.00000000000E+00 0. -1.
          6    1    1    2  501    0  0.13731555484E+02 -0.85849833381E+02  0.15084811714E+03  0.24474048286E+03  0.17200000000E+03 0. -1.
         -6    1    1    2    0  503 -0.13731555484E+02  0.85849833381E+02  0.23764396379E+02  0.19418418072E+03  0.17200000000E+03 0. -1.
</event>
<event>
 4    1  0.1249554E+000  0.2228851E+03  0.7818608E-02  0.1131750E+00
         21   -1    0    0  501  502  0.00000000000E+00  0.00000000000E+00  0.39804079293E+02  0.39804079293E+02  0.00000000000E+00 0. -1.
         21   -1    0    0  502  503 -0.00000000000E+00 -0.00000000000E+00 -0.18425100084E+04  0.18425100084E+04  0.00000000000E+00 0.  1.
          6    1    1    2  501    0  0.17734954802E+02 -0.14063861122E+03 -0.36676885436E+03  0.42918194291E+03  0.17200000000E+03 0. -1.
         -6    1    1    2    0  503 -0.17734954802E+02  0.14063861122E+03 -0.14359370748E+04  0.14531321448E+04  0.17200000000E+03 0.  1.
</event>
<event>
 4    1  0.1249554E+000  0.1813394E+03  0.7818608E-02  0.1166513E+00
         21   -1    0    0  501  502  0.00000000000E+00  0.00000000000E+00  0.13336740854E+04  0.13336740854E+04  0.00000000000E+00 0.  1.
         21   -1    0    0  502  503 -0.00000000000E+00 -0.00000000000E+00 -0.53390819341E+02  0.53390819341E+02  0.00000000000E+00 0.  1.
          6    1    1    2  501    0 -0.89182289343E+01 -0.56748901636E+02  0.11489246495E+04  0.11631473780E+04  0.17200000000E+03 0.  1.
         -6    1    1    2    0  503  0.89182289343E+01  0.56748901636E+02  0.13135861652E+03  0.22391752673E+03  0.17200000000E+03 0.  1.
</event>
<event>
 4    1  0.1249554E+000  0.2536493E+03  0.7818608E-02  0.1111020E+00
         21   -1    0    0  501  502  0.00000000000E+00  0.00000000000E+00  0.90773208788E+02  0.90773208788E+02  0.00000000000E+00 0. -1.
         21   -1    0    0  502  503 -0.00000000000E+00 -0.00000000000E+00 -0.17552222614E+04  0.17552222614E+04  0.00000000000E+00 0.  1.
          6    1    1    2  501    0 -0.12050316328E+03  0.14224263240E+03 -0.11954743815E+03  0.28040964463E+03  0.17200000000E+03 0. -1.
         -6    1    1    2    0  503  0.12050316328E+03 -0.14224263240E+03 -0.15449016144E+04  0.15655858255E+04  0.17200000000E+03 0.  1.
</event>
<event>
 4    1  0.1249554E+000  0.1792763E+03  0.7818608E-02  0.1168505E+00
         21   -1    0    0  501  502  0.00000000000E+00  0.00000000000E+00  0.10035373471E+04  0.10035373471E+04  0.00000000000E+00 0. -1.
         21   -1    0    0  502  503 -0.00000000000E+00 -0.00000000000E+00 -0.34419356244E+02  0.34419356244E+02  0.00000000000E+00 0. -1.
          6    1    1    2  501    0 -0.49201662128E+02 -0.11627105692E+02  0.62139100335E+03  0.64673547311E+03  0.17200000000E+03 0. -1.
         -6    1    1    2    0  503  0.49201662128E+02  0.11627105692E+02  0.34772698754E+03  0.39122123026E+03  0.17200000000E+03 0. -1.
</event>
<event>
 4    1  0.1249554E+000  0.1875574E+03  0.7818608E-02  0.1160683E+00
         21   -1    0    0  501  502  0.00000000000E+00  0.00000000000E+00  0.26136179281E+02  0.26136179281E+02  0.00000000000E+00 0.  1.
         21   -1    0    0  502  503 -0.00000000000E+00 -0.00000000000E+00 -0.19235409779E+04  0.19235409779E+04  0.00000000000E+00 0.  1.
          6    1    1    2  501    0  0.73974763158E+02 -0.11023363123E+02 -0.41451306440E+03  0.45497127456E+03  0.17200000000E+03 0. -1.
         -6    1    1    2    0  503 -0.73974763158E+02  0.11023363123E+02 -0.14828917342E+04  0.14947058826E+04  0.17200000000E+03 0. -1.
</event>
<event>
 4    1  0.1249554E+000  0.1966330E+03  0.7818608E-02  0.1152611E+00
         21   -1    0    0  503  502  0.00000000000E+00  0.00000000000E+00  0.13517276128E+04  0.13517276128E+04  0.00000000000E+00 0. -1.
         21   -1    0    0  501  503 -0.00000000000E+00 -0.00000000000E+00 -0.33467658098E+02  0.33467658098E+02  0.00000000000E+00 0. -1.
          6    1    1    2  501    0 -0.82460680343E+02 -0.47757631672E+02  0.39509680308E+03  0.44132305513E+03  0.17200000000E+03 0. -1.
         -6    1    1    2    0  502  0.82460680343E+02  0.47757631672E+02  0.92316315160E+03  0.94387221575E+03  0.17200000000E+03 0. -1.
</event>
<event>
 4    1  0.1249554E+000  0.2168932E+03  0.7818608E-02  0.1136221E+00
         21   -1    0    0  503  502  0.00000000000E+00  0.00000000000E+00  0.48393006493E+02  0.48393006493E+02  0.00000000000E+00 0.  1.
         21   -1    0    0  501  503 -0.00000000000E+00 -0.00000000000E+00 -0.10962657617E+04  0.10962657617E+04  0.00000000000E+00 0.  1.
          6    1    1    2  501    0  0.12350120532E+03 -0.46969082649E+02 -0.71655410060E+03  0.74866041803E+03  0.17200000000E+03 0.  1.
         -6    1    1    2    0  502 -0.12350120532E+03  0.46969082649E+02 -0.33131865461E+03  0.39599835016E+03  0.17200000000E+03 0.  1.
</event>
<event>
 4    1  0.1249554E+000  0.1833986E+03  0.7818608E-02  0.1164554E+00
         21   -1    0    0  503  502  0.00000000000E+00  0.00000000000E+00  0.23239673864E+03  0.23239673864E+03  0.00000000000E+00 0.  1.
         21   -1    0    0  501  503 -0.00000000000E+00 -0.00000000000E+00 -0.14891932449E+03  0.14891932449E+03  0.00000000000E+00 0.  1.
          6    1    1    2  501    0  0.11602945099E+02 -0.62581335604E+02  0.97651525367E+01  0.18365840603E+03  0.17200000000E+03 0. -1.
         -6    1    1    2    0  502 -0.11602945099E+02  0.62581335604E+02  0.73712261613E+02  0.19765765711E+03  0.17200000000E+03 0. -1.
</event>
<event>
 4    1  0.1249554E+000  0.2102104E+03  0.7818608E-02  0.1141399E+00
         21   -1    0    0  503  502  0.00000000000E+00  0.00000000000E+00  0.68758246832E+02  0.68758246832E+02  0.00000000000E+00 0. -1.
         21   -1    0    0  501  503 -0.00000000000E+00 -0.00000000000E+00 -0.79798458273E+03  0.79798458273E+03  0.00000000000E+00 0. -1.
          6    1    1    2  501    0 -0.12026677035E+03  0.11845699965E+02 -0.55580890013E+03  0.59423223584E+03  0.17200000000E+03 0. -1.
         -6    1    1    2    0  502  0.12026677035E+03 -0.11845699965E+02 -0.17341743577E+03  0.27251059372E+03  0.17200000000E+03 0. -1.
</event>
<event>
 4    1  0.1249554E+000  0.1987346E+03  0.7818608E-02  0.1150811E+00
         21   -1    0    0  503  502  0.00000000000E+00  0.00000000000E+00  0.13535689579E+04  0.13535689579E+04  0.00000000000E+00 0.  1.
         21   -1    0    0  501  503 -0.00000000000E+00 -0.00000000000E+00 -0.31841228203E+02  0.31841228203E+02  0.00000000000E+00 0. -1.
          6    1    1    2  501    0 -0.99551653558E+02  0.94717087052E+00  0.46055609613E+03  0.50160477125E+03  0.17200000000E+03 0.  1.
         -6    1    1    2    0  502  0.99551653558E+02 -0.94717087052E+00  0.86117163352E+03  0.88380541481E+03  0.17200000000E+03 0.  1.
</event>
<event>
 4    1  0.1249554E+000  0.1731201E+03  0.7818608E-02  0.1174633E+00
         21   -1    0    0  503  502  0.00000000000E+00  0.00000000000E+00  0.75097137134E+02  0.75097137134E+02  0.00000000000E+00 0.  1.
         21   -1    0    0  501  503 -0.00000000000E+00 -0.00000000000E+00 -0.67220971148E+03  0.67220971148E+03  0.00000000000E+00 0.  1.
          6    1    1    2  501    0  0.19593398230E+02 -0.16296325873E+01 -0.53672936512E+03  0.56395830373E+03  0.17200000000E+03 0.  1.
         -6    1    1    2    0  502 -0.19593398230E+02  0.16296325873E+01 -0.60383209225E+02  0.18334854489E+03  0.17200000000E+03 0.  1.
</event>
<event>
 4    1  0.1249554E+000  0.2001684E+03  0.7818608E-02  0.1149597E+00
         21   -1    0    0  503  502  0.00000000000E+00  0.00000000000E+00  0.10675753813E+03  0.10675753813E+03  0.00000000000E+00 0. -1.
         21   -1    0    0  501  503 -0.00000000000E+00 -0.00000000000E+00 -0.78165455301E+03  0.78165455301E+03  0.00000000000E+00 0.  1.
          6    1    1    2  501    0  0.41610671752E+02 -0.93551759897E+02 -0.65772363533E+03  0.68750837104E+03  0.17200000000E+03 0.  1.
         -6    1    1    2    0  502 -0.41610671752E+02  0.93551759897E+02 -0.17173379547E+02  0.20090372010E+03  0.17200000000E+03 0. -1.
</event>
<event>
 4    1  0.1249554E+000  0.1743391E+03  0.7818608E-02  0.1173397E+00
         21   -1    0    0  501  502  0.00000000000E+00  0.00000000000E+00  0.12357524431E+03  0.12357524431E+03  0.00000000000E+00 0.  1.
         21   -1    0    0  502  503 -0.00000000000E+00 -0.00000000000E+00 -0.24803136048E+03  0.24803136048E+03  0.00000000000E+00 0.  1.
          6    1    1    2  501    0  0.52023422943E+01 -0.27983192293E+02 -0.45233728673E+02  0.18011166988E+03  0.17200000000E+03 0. -1.
         -6    1    1    2    0  503 -0.52023422943E+01  0.27983192293E+02 -0.79222387499E+02  0.19149493491E+03  0.17200000000E+03 0. -1.
</event>
<event>
 4    1  0.1249554E+000  0.1750213E+03  0.7818608E-02  0.1172710E+00
         21   -1    0    0  501  502  0.00000000000E+00  0.00000000000E+00  0.97363713743E+02  0.97363713743E+02  0.00000000000E+00 0.  1.
         21   -1    0    0  502  503 -0.00000000000E+00 -0.00000000000E+00 -0.33656624502E+03  0.33656624502E+03  0.00000000000E+00 0.  1.
          6    1    1    2  501    0 -0.82284835162E+01 -0.31316785902E+02 -0.64196524388E+02  0.18642328922E+03  0.17200000000E+03 0.  1.
         -6    1    1    2    0  503  0.82284835162E+01  0.31316785902E+02 -0.17500600688E+03  0.24750666954E+03  0.17200000000E+03 0.  1.
</event>
<event>
 4    1  0.1249554E+000  0.1965673E+03  0.7818608E-02  0.1152668E+00
         21   -1    0    0  503  502  0.00000000000E+00  0.00000000000E+00  0.98199545206E+02  0.98199545206E+02  0.00000000000E+00 0.  1.
         21   -1    0    0  501  503 -0.00000000000E+00 -0.00000000000E+00 -0.56501888889E+03  0.56501888889E+03  0.00000000000E+00 0. -1.
          6    1    1    2  501    0  0.22754245053E+02 -0.92395560283E+02 -0.41613027304E+03  0.46022070724E+03  0.17200000000E+03 0. -1.
         -6    1    1    2    0  502 -0.22754245053E+02  0.92395560283E+02 -0.50689070643E+02  0.20299772686E+03  0.17200000000E+03 0.  1.
</event>
<event>
 4    1  0.1249554E+000  0.2035036E+03  0.7818608E-02  0.1146816E+00
         21   -1    0    0  503  502  0.00000000000E+00  0.00000000000E+00  0.55348959919E+03  0.55348959919E+03  0.00000000000E+00 0. -1.
         21   -1    0    0  501  503 -0.00000000000E+00 -0.00000000000E+00 -0.75387773660E+02  0.75387773660E+02  0.00000000000E+00 0. -1.
          6    1    1    2  501    0 -0.85106768353E+02 -0.67723984458E+02  0.26626908654E+03  0.33513120794E+03  0.17200000000E+03 0.  1.
         -6    1    1    2    0  502  0.85106768353E+02  0.67723984458E+02  0.21183273899E+03  0.29374616491E+03  0.17200000000E+03 0.  1.
</event>
<event>
 4    1  0.1249554E+000  0.2122949E+03  0.7818608E-02  0.1139761E+00
         21   -1    0    0  501  502  0.00000000000E+00  0.00000000000E+00  0.20614576247E+03  0.20614576247E+03  0.00000000000E+00 0.  1.
         21   -1    0    0  502  503 -0.00000000000E+00 -0.00000000000E+00 -0.53030268986E+03  0.53030268986E+03  0.00000000000E+00 0.  1.
          6    1    1    2  501    0 -0.86415569577E+02 -0.89540326505E+02  0.12021550532E+03  0.24396903176E+03  0.17200000000E+03 0.  1.
         -6    1    1    2    0  503  0.86415569577E+02  0.89540326505E+02 -0.44437243271E+03  0.49247942057E+03  0.17200000000E+03 0.  1.
</event>
<event>
 4    1  0.1249554E+000  0.1817031E+03  0.7818608E-02  0.1166165E+00
         21   -1    0    0  501  502  0.00000000000E+00  0.00000000000E+00  0.20700681713E+03  0.20700681713E+03  0.00000000000E+00 0. -1.
         21   -1    0    0  502  503 -0.00000000000E+00 -0.00000000000E+00 -0.19827295871E+03  0.19827295871E+03  0.00000000000E+00 0. -1.
          6    1    1    2  501    0 -0.58414006720E+02 -0.44509913527E+01  0.93985992760E+02  0.20457119626E+03  0.17200000000E+03 0. -1.
         -6    1    1    2    0  503  0.58414006720E+02  0.44509913527E+01 -0.85252134345E+02  0.20070857958E+03  0.17200000000E+03 0. -1.
</event>
<event>
 4    1  0.1249554E+000  0.1903987E+03  0.7818608E-02  0.1158102E+00
         21   -1    0    0  503  502  0.00000000000E+00  0.00000000000E+00  0.17359472016E+03  0.17359472016E+03  0.00000000000E+00 0.  1.
         21   -1    0    0  501  503 -0.00000000000E+00 -0.00000000000E+00 -0.22712885838E+03  0.22712885838E+03  0.00000000000E+00 0.  1.
          6    1    1    2  501    0  0.72625029608E+01  0.81332275881E+02 -0.83638969117E+02  0.20795951578E+03  0.17200000000E+03 0.  1.
         -6    1    1    2    0  502 -0.72625029608E+01 -0.81332275881E+02  0.30104830894E+02  0.19276406276E+03  0.17200000000E+03 0.  1.
</event>
<event>
 4    1  0.1249554E+000  0.1789456E+03  0.7818608E-02  0.1168827E+00
         21   -1    0    0  503  502  0.00000000000E+00  0.00000000000E+00  0.84055155758E+03  0.84055155758E+03  0.00000000000E+00 0. -1.
         21   -1    0    0  501  503 -0.00000000000E+00 -0.00000000000E+00 -0.40810051179E+02  0.40810051179E+02  0.00000000000E+00 0. -1.
          6    1    1    2  501    0  0.12839747045E+02  0.47672666187E+02  0.28622321204E+03  0.33755780144E+03  0.17200000000E+03 0.  1.
         -6    1    1    2    0  502 -0.12839747045E+02 -0.47672666187E+02  0.51351829436E+03  0.54380380731E+03  0.17200000000E+03 0.  1.
</event>
<event>
 4    1  0.1249554E+000  0.1856796E+03  0.7818608E-02  0.1162417E+00
         21   -1    0    0  503  502  0.00000000000E+00  0.00000000000E+00  0.36410490786E+02  0.36410490786E+02  0.00000000000E+00 0.  1.
         21   -1    0    0  501  503 -0.00000000000E+00 -0.00000000000E+00 -0.17281577569E+04  0.17281577569E+04  0.00000000000E+00 0.  1.
          6    1    1    2  501    0  0.59229255494E+02  0.37212934894E+02 -0.14390930623E+04  0.14510223118E+04  0.17200000000E+03 0.  1.
         -6    1    1    2    0  502 -0.59229255494E+02 -0.37212934894E+02 -0.25265420374E+03  0.31354593587E+03  0.17200000000E+03 0.  1.
</event>
<event>
 4    1  0.1249554E+000  0.2742180E+03  0.7818608E-02  0.1098890E+00
         21   -1    0    0  503  502  0.00000000000E+00  0.00000000000E+00  0.10286216703E+04  0.10286216703E+04  0.00000000000E+00 0. -1.
         21   -1    0    0  501  503 -0.00000000000E+00 -0.00000000000E+00 -0.10154770294E+03  0.10154770294E+03  0.00000000000E+00 0. -1.
          6    1    1    2  501    0  0.13219163095E+02 -0.21315903364E+03  0.16446359046E+03  0.31975583261E+03  0.17200000000E+03 0. -1.
         -6    1    1    2    0  502 -0.13219163095E+02  0.21315903364E+03  0.76261037686E+03  0.81041354060E+03  0.17200000000E+03 0. -1.
</event>
<event>
 4    1  0.1249554E+000  0.2062015E+03  0.7818608E-02  0.1144610E+00
         21   -1    0    0  501  502  0.00000000000E+00  0.00000000000E+00  0.50897371452E+03  0.50897371452E+03  0.00000000000E+00 0.  1.
         21   -1    0    0  502  503 -0.00000000000E+00 -0.00000000000E+00 -0.96155252558E+02  0.96155252558E+02  0.00000000000E+00 0.  1.
          6    1    1    2  501    0  0.43676248375E+02  0.10501154429E+03  0.96811755237E+02  0.22779717965E+03  0.17200000000E+03 0.  1.
         -6    1    1    2    0  503 -0.43676248375E+02 -0.10501154429E+03  0.31600670673E+03  0.37733178742E+03  0.17200000000E+03 0.  1.
</event>
<event>
 4    1  0.1249554E+000  0.1868983E+03  0.7818608E-02  0.1161289E+00
         21   -1    0    0  503  502  0.00000000000E+00  0.00000000000E+00  0.32942793586E+03  0.32942793586E+03  0.00000000000E+00 0.  1.
         21   -1    0    0  501  503 -0.00000000000E+00 -0.00000000000E+00 -0.21837444878E+03  0.21837444878E+03  0.00000000000E+00 0.  1.
          6    1    1    2  501    0 -0.24967568355E+01 -0.73080389494E+02 -0.14092625043E+03  0.23407516995E+03  0.17200000000E+03 0.  1.
         -6    1    1    2    0  502  0.24967568355E+01  0.73080389494E+02  0.25197973751E+03  0.31372721469E+03  0.17200000000E+03 0.  1.
</event>
<event>
 4    1  0.1249554E+000  0.1812019E+03  0.7818608E-02  0.1166645E+00
         21   -1    0    0  501  502  0.00000000000E+00  0.00000000000E+00  0.29563429340E+03  0.29563429340E+03  0.00000000000E+00 0.  1.
         21   -1    0    0  502  503 -0.00000000000E+00 -0.00000000000E+00 -0.47310390928E+03  0.47310390928E+03  0.00000000000E+00 0.  1.
          6    1    1    2  501    0 -0.31451249486E+02 -0.47549432526E+02  0.24750476428E+03  0.30674539600E+03  0.17200000000E+03 0.  1.
         -6    1    1    2    0  503  0.31451249486E+02  0.47549432526E+02 -0.42497438016E+03  0.46199280667E+03  0.17200000000E+03 0.  1.
</event>
<event>
 4    1  0.1249554E+000  0.1776799E+03  0.7818608E-02  0.1170068E+00
         21   -1    0    0  501  502  0.00000000000E+00  0.00000000000E+00  0.85039051986E+02  0.85039051986E+02  0.00000000000E+00 0. -1.
         21   -1    0    0  502  503 -0.00000000000E+00 -0.00000000000E+00 -0.37196906287E+03  0.37196906287E+03  0.00000000000E+00 0. -1.
          6    1    1    2  501    0  0.41296222761E+02  0.16756037806E+02 -0.15356131463E+03  0.23484296917E+03  0.17200000000E+03 0.  1.
         -6    1    1    2    0  503 -0.41296222761E+02 -0.16756037806E+02 -0.13336869625E+03  0.22216514568E+03  0.17200000000E+03 0.  1.
</event>
<event>
 4    1  0.1249554E+000  0.1824868E+03  0.7818608E-02  0.1165418E+00
         21   -1    0    0  501  502  0.00000000000E+00  0.00000000000E+00  0.61063535182E+02  0.61063535182E+02  0.00000000000E+00 0. -1.
         21   -1    0    0  502  503 -0.00000000000E+00 -0.00000000000E+00 -0.10616735987E+04  0.10616735987E+04  0.00000000000E+00 0. -1.
          6    1    1    2  501    0 -0.60847308072E+02 -0.38764744057E+01 -0.10882406122E+03  0.21247140573E+03  0.17200000000E+03 0. -1.
         -6    1    1    2    0  503  0.60847308072E+02  0.38764744057E+01 -0.89178600229E+03  0.91026572815E+03  0.17200000000E+03 0. -1.
</event>
<event>
 4    1  0.1249554E+000  0.1830110E+03  0.7818608E-02  0.1164920E+00
         21   -1    0    0  501  502  0.00000000000E+00  0.00000000000E+00  0.20021878338E+03  0.20021878338E+03  0.00000000000E+00 0.  1.
         21   -1    0    0  502  503 -0.00000000000E+00 -0.00000000000E+00 -0.26034026940E+03  0.26034026940E+03  0.00000000000E+00 0.  1.
          6    1    1    2  501    0 -0.43920253619E+02 -0.44497725287E+02  0.10761635363E+03  0.21230712612E+03  0.17200000000E+03 0.  1.
         -6    1    1    2    0  503  0.43920253619E+02  0.44497725287E+02 -0.16773783965E+03  0.24825192665E+03  0.17200000000E+03 0.  1.
</event>
<event>
 4    1  0.1249554E+000  0.1760539E+03  0.7818608E-02  0.1171678E+00
         21   -1    0    0  501  502  0.00000000000E+00  0.00000000000E+00  0.53431212339E+02  0.53431212339E+02  0.00000000000E+00 0.  1.
         21   -1    0    0  502  503 -0.00000000000E+00 -0.00000000000E+00 -0.71967850760E+03  0.71967850760E+03  0.00000000000E+00 0.  1.
          6    1    1    2  501    0 -0.76635222123E+01  0.36772786907E+02 -0.16288228434E+03  0.23984496238E+03  0.17200000000E+03 0.  1.
         -6    1    1    2    0  503  0.76635222123E+01 -0.36772786907E+02 -0.50336501092E+03  0.53326475755E+03  0.17200000000E+03 0.  1.
</event>
<event>
 4    1  0.1249554E+000  0.1807701E+03  0.7818608E-02  0.1167060E+00
         21   -1    0    0  503  502  0.00000000000E+00  0.00000000000E+00  0.15123231740E+04  0.15123231740E+04  0.00000000000E+00 0. -1.
         21   -1    0    0  501  503 -0.00000000000E+00 -0.00000000000E+00 -0.27116649725E+02  0.27116649725E+02  0.00000000000E+00 0. -1.
          6    1    1    2  501    0  0.50784407666E+02  0.22688292631E+02  0.39566724307E+03  0.43500618607E+03  0.17200000000E+03 0. -1.
         -6    1    1    2    0  502 -0.50784407666E+02 -0.22688292631E+02  0.10895392813E+04  0.11044336377E+04  0.17200000000E+03 0. -1.
</event>
<event>
 4    1  0.1249554E+000  0.2105662E+03  0.7818608E-02  0.1141118E+00
         21   -1    0    0  501  502  0.00000000000E+00  0.00000000000E+00  0.32841074880E+03  0.32841074880E+03  0.00000000000E+00 0.  1.
         21   -1    0    0  502  503 -0.00000000000E+00 -0.00000000000E+00 -0.16799308219E+03  0.16799308219E+03  0.00000000000E+00 0.  1.
          6    1    1    2  501    0 -0.22593573528E+02  0.11934675591E+03  0.19018977311E+03  0.28374331271E+03  0.17200000000E+03 0.  1.
         -6    1    1    2    0  503  0.22593573528E+02 -0.11934675591E+03 -0.29772106506E+02  0.21266051828E+03  0.17200000000E+03 0.  1.
</event>
<event>
 4    1  0.1249554E+000  0.1870860E+03  0.7818608E-02  0.1161116E+00
         21   -1    0    0  503  502  0.00000000000E+00  0.00000000000E+00  0.12457217887E+04  0.12457217887E+04  0.00000000000E+00 0. -1.
         21   -1    0    0  501  503 -0.00000000000E+00 -0.00000000000E+00 -0.33397684954E+02  0.33397684954E+02  0.00000000000E+00 0. -1.
          6    1    1    2  501    0 -0.73589453480E+02  0.13303234033E+01  0.35137076164E+03  0.39807359817E+03  0.17200000000E+03 0.  1.
         -6    1    1    2    0  502  0.73589453480E+02 -0.13303234033E+01  0.86095334209E+03  0.88104587546E+03  0.17200000000E+03 0.  1.
</event>
<event>
 4    1  0.1249554E+000  0.2352154E+03  0.7818608E-02  0.1123022E+00
         21   -1    0    0  503  502  0.00000000000E+00  0.00000000000E+00  0.66404346440E+02  0.66404346440E+02  0.00000000000E+00 0.  1.
         21   -1    0    0  501  503 -0.00000000000E+00 -0.00000000000E+00 -0.83317658032E+03  0.83317658032E+03  0.00000000000E+00 0.  1.
          6    1    1    2  501    0 -0.11562703027E+03 -0.11123252994E+03 -0.38436200128E+03  0.45062227405E+03  0.17200000000E+03 0.  1.
         -6    1    1    2    0  502  0.11562703027E+03  0.11123252994E+03 -0.38241023259E+03  0.44895865270E+03  0.17200000000E+03 0.  1.
</event>
<event>
 4    1  0.1249554E+000  0.2116894E+03  0.7818608E-02  0.1140235E+00
         21   -1    0    0  501  502  0.00000000000E+00  0.00000000000E+00  0.96626701600E+03  0.96626701600E+03  0.00000000000E+00 0. -1.
         21   -1    0    0  502  503 -0.00000000000E+00 -0.00000000000E+00 -0.13009980269E+03  0.13009980269E+03  0.00000000000E+00 0. -1.
          6    1    1    2  501    0 -0.76764300688E+02 -0.96621043300E+02  0.85783774491E+03  0.88357115189E+03  0.17200000000E+03 0. -1.
         -6    1    1    2    0  503  0.76764300688E+02  0.96621043300E+02 -0.21670531589E+02  0.21279566680E+03  0.17200000000E+03 0. -1.
</event>
<event>
 4    1  0.1249554E+000  0.2069338E+03  0.7818608E-02  0.1144017E+00
         21   -1    0    0  503  502  0.00000000000E+00  0.00000000000E+00  0.15376253128E+03  0.15376253128E+03  0.00000000000E+00 0.  1.
         21   -1    0    0  501  503 -0.00000000000E+00 -0.00000000000E+00 -0.31302169470E+03  0.31302169470E+03  0.00000000000E+00 0.  1.
          6    1    1    2  501    0 -0.10632677372E+03  0.43956909652E+02 -0.15714659830E+03  0.25983965454E+03  0.17200000000E+03 0.  1.
         -6    1    1    2    0  502  0.10632677372E+03 -0.43956909652E+02 -0.21125651279E+01  0.20694457144E+03  0.17200000000E+03 0.  1.
</event>
<event>
 4    1  0.1249554E+000  0.2072324E+03  0.7818608E-02  0.1143777E+00
         21   -1    0    0  503  502  0.00000000000E+00  0.00000000000E+00  0.53948820073E+02  0.53948820073E+02  0.00000000000E+00 0.  1.
         21   -1    0    0  501  503 -0.00000000000E+00 -0.00000000000E+00 -0.80074054024E+03  0.80074054024E+03  0.00000000000E+00 0.  1.
          6    1    1    2  501    0  0.75997923641E+02  0.87095336241E+02 -0.40614676755E+03  0.45596104964E+03  0.17200000000E+03 0. -1.
         -6    1    1    2    0  502 -0.75997923641E+02 -0.87095336241E+02 -0.34064495261E+03  0.39872831068E+03  0.17200000000E+03 0. -1.
</event>
<event>
 4    1  0.1249554E+000  0.2375041E+03  0.7818608E-02  0.1121467E+00
         21   -1    0    0  503  502  0.00000000000E+00  0.00000000000E+00  0.43189208220E+03  0.43189208220E+03  0.00000000000E+00 0.  1.
         21   -1    0    0  501  503 -0.00000000000E+00 -0.00000000000E+00 -0.13145840876E+03  0.13145840876E+03  0.00000000000E+00 0. -1.
          6    1    1    2  501    0 -0.96066490408E+02  0.13264768742E+03  0.12754984951E+03  0.26958698720E+03  0.17200000000E+03 0. -1.
         -6    1    1    2    0  502  0.96066490408E+02 -0.13264768742E+03  0.17288382393E+03  0.29376350375E+03  0.17200000000E+03 0.  1.
</event>
<event>
 4    1  0.1249554E+000  0.2952934E+03  0.7818608E-02  0.1087617E+00
         21   -1    0    0  503  502  0.00000000000E+00  0.00000000000E+00  0.88391797928E+03  0.88391797928E+03  0.00000000000E+00 0.  1.
         21   -1    0    0  501  503 -0.00000000000E+00 -0.00000000000E+00 -0.10822786037E+03  0.10822786037E+03  0.00000000000E+00 0. -1.
          6    1    1    2  501    0 -0.22805307189E+03 -0.74873330701E+02  0.24026840615E+03  0.38069295533E+03  0.17200000000E+03 0. -1.
         -6    1    1    2    0  502  0.22805307189E+03  0.74873330701E+02  0.53542171276E+03  0.61145288432E+03  0.17200000000E+03 0.  1.
</event>
<event>
 4    1  0.1249554E+000  0.3251970E+03  0.7818608E-02  0.1073282E+00
         21   -1    0    0  503  502  0.00000000000E+00  0.00000000000E+00  0.53968317761E+03  0.53968317761E+03  0.00000000000E+00 0. -1.
         21   -1    0    0  501  503 -0.00000000000E+00 -0.00000000000E+00 -0.21092342734E+03  0.21092342734E+03  0.00000000000E+00 0. -1.
          6    1    1    2  501    0 -0.62481189325E+02 -0.26882191305E+03  0.64397965999E+02  0.33151201785E+03  0.17200000000E+03 0. -1.
         -6    1    1    2    0  502  0.62481189325E+02  0.26882191305E+03  0.26436178427E+03  0.41909458710E+03  0.17200000000E+03 0. -1.
</event>
<event>
 4    1  0.1249554E+000  0.2130793E+03  0.7818608E-02  0.1139150E+00
         21   -1    0    0  501  502  0.00000000000E+00  0.00000000000E+00  0.11945863980E+03  0.11945863980E+03  0.00000000000E+00 0.  1.
         21   -1    0    0  502  503 -0.00000000000E+00 -0.00000000000E+00 -0.38028181788E+03  0.38028181788E+03  0.00000000000E+00 0.  1.
          6    1    1    2  501    0  0.95264113919E+02 -0.82118920303E+02 -0.13629437196E+03  0.25294055488E+03  0.17200000000E+03 0.  1.
         -6    1    1    2    0  503 -0.95264113919E+02  0.82118920303E+02 -0.12452880612E+03  0.24679990281E+03  0.17200000000E+03 0.  1.
</event>
<event>
 4    1  0.1249554E+000  0.2182759E+03  0.7818608E-02  0.1135175E+00
         21   -1    0    0  501  502  0.00000000000E+00  0.00000000000E+00  0.13010886005E+03  0.13010886005E+03  0.00000000000E+00 0. -1.
         21   -1    0    0  502  503 -0.00000000000E+00 -0.00000000000E+00 -0.37600714399E+03  0.37600714399E+03  0.00000000000E+00 0. -1.
          6    1    1    2  501    0  0.20946668184E+02 -0.13274635853E+03 -0.82056098917E+02  0.23318996972E+03  0.17200000000E+03 0. -1.
         -6    1    1    2    0  503 -0.20946668184E+02  0.13274635853E+03 -0.16384218502E+03  0.27292603431E+03  0.17200000000E+03 0. -1.
</event>
<event>
 4    1  0.1249554E+000  0.2057417E+03  0.7818608E-02  0.1144983E+00
         21   -1    0    0  501  502  0.00000000000E+00  0.00000000000E+00  0.10264125457E+04  0.10264125457E+04  0.00000000000E+00 0.  1.
         21   -1    0    0  502  503 -0.00000000000E+00 -0.00000000000E+00 -0.42147511061E+02  0.42147511061E+02  0.00000000000E+00 0. -1.
          6    1    1    2  501    0 -0.86927044409E+02 -0.72036909158E+02  0.57051549278E+03  0.60647964091E+03  0.17200000000E+03 0. -1.
         -6    1    1    2    0  503  0.86927044409E+02  0.72036909158E+02  0.41374954188E+03  0.46208041588E+03  0.17200000000E+03 0.  1.
</event>
<event>
 4    1  0.1249554E+000  0.1747568E+03  0.7818608E-02  0.1172976E+00
         21   -1    0    0  503  502  0.00000000000E+00  0.00000000000E+00  0.52509603137E+02  0.52509603137E+02  0.00000000000E+00 0. -1.
         21   -1    0    0  501  503 -0.00000000000E+00 -0.00000000000E+00 -0.61977356498E+03  0.61977356498E+03  0.00000000000E+00 0. -1.
          6    1    1    2  501    0  0.19558718995E+02  0.23945455519E+02 -0.36704808488E+03  0.40652702855E+03  0.17200000000E+03 0. -1.
         -6    1    1    2    0  502 -0.19558718995E+02 -0.23945455519E+02 -0.20021587696E+03  0.26575613957E+03  0.17200000000E+03 0. -1.
</event>
<event>
 4    1  0.1249554E+000  0.1907484E+03  0.7818608E-02  0.1157788E+00
         21   -1    0    0  501  502  0.00000000000E+00  0.00000000000E+00  0.15263876931E+03  0.15263876931E+03  0.00000000000E+00 0.  1.
         21   -1    0    0  502  503 -0.00000000000E+00 -0.00000000000E+00 -0.24986186851E+03  0.24986186851E+03  0.00000000000E+00 0.  1.
          6    1    1    2  501    0  0.73176449471E+02  0.38028546540E+02 -0.54571580138E+01  0.19082647532E+03  0.17200000000E+03 0.  1.
         -6    1    1    2    0  503 -0.73176449471E+02 -0.38028546540E+02 -0.91765941187E+02  0.21167416250E+03  0.17200000000E+03 0.  1.
</event>
<event>
 4    1  0.1249554E+000  0.1829845E+03  0.7818608E-02  0.1164946E+00
         21   -1    0    0  503  502  0.00000000000E+00  0.00000000000E+00  0.65705475485E+03  0.65705475485E+03  0.00000000000E+00 0. -1.
         21   -1    0    0  501  503 -0.00000000000E+00 -0.00000000000E+00 -0.81068394919E+02  0.81068394919E+02  0.00000000000E+00 0. -1.
          6    1    1    2  501    0 -0.33982165734E+02 -0.52388327345E+02  0.63077938980E+02  0.19355141647E+03  0.17200000000E+03 0. -1.
         -6    1    1    2    0  502  0.33982165734E+02  0.52388327345E+02  0.51290842096E+03  0.54457173331E+03  0.17200000000E+03 0. -1.
</event>
<event>
 4    1  0.1249554E+000  0.1754284E+03  0.7818608E-02  0.1172302E+00
         21   -1    0    0  503  502  0.00000000000E+00  0.00000000000E+00  0.51465908603E+03  0.51465908603E+03  0.00000000000E+00 0. -1.
         21   -1    0    0  501  503 -0.00000000000E+00 -0.00000000000E+00 -0.11776361939E+03  0.11776361939E+03  0.00000000000E+00 0. -1.
          6    1    1    2  501    0 -0.68903499565E+01 -0.33817610608E+02 -0.23402859220E+02  0.17698248933E+03  0.17200000000E+03 0. -1.
         -6    1    1    2    0  502  0.68903499565E+01  0.33817610608E+02  0.42029832586E+03  0.45544021609E+03  0.17200000000E+03 0. -1.
</event>
<event>
 4    1  0.1249554E+000  0.2031620E+03  0.7818608E-02  0.1147098E+00
         21   -1    0    0  503  502  0.00000000000E+00  0.00000000000E+00  0.17395467114E+03  0.17395467114E+03  0.00000000000E+00 0. -1.
         21   -1    0    0  501  503 -0.00000000000E+00 -0.00000000000E+00 -0.24334603737E+03  0.24334603737E+03  0.00000000000E+00 0. -1.
          6    1    1    2  501    0  0.41001944220E+02  0.10004825033E+03 -0.67656394349E+02  0.21413126703E+03  0.17200000000E+03 0. -1.
         -6    1    1    2    0  502 -0.41001944220E+02 -0.10004825033E+03 -0.17349718823E+01  0.20316944148E+03  0.17200000000E+03 0. -1.
</event>
<event>
 4    1  0.1249554E+000  0.1879915E+03  0.7818608E-02  0.1160285E+00
         21   -1    0    0  501  502  0.00000000000E+00  0.00000000000E+00  0.20990000102E+02  0.20990000102E+02  0.00000000000E+00 0. -1.
         21   -1    0    0  502  503 -0.00000000000E+00 -0.00000000000E+00 -0.17522198908E+04  0.17522198908E+04  0.00000000000E+00 0. -1.
          6    1    1    2  501    0 -0.55454089018E+02 -0.51784527189E+02 -0.69028555006E+03  0.71542640004E+03  0.17200000000E+03 0. -1.
         -6    1    1    2    0  503  0.55454089018E+02  0.51784527189E+02 -0.10409443406E+04  0.10577834909E+04  0.17200000000E+03 0. -1.
</event>
<event>
 4    1  0.1249554E+000  0.2020163E+03  0.7818608E-02  0.1148049E+00
         21   -1    0    0  503  502  0.00000000000E+00  0.00000000000E+00  0.21519638543E+03  0.21519638543E+03  0.00000000000E+00 0.  1.
         21   -1    0    0  501  503 -0.00000000000E+00 -0.00000000000E+00 -0.44332655258E+03  0.44332655258E+03  0.00000000000E+00 0.  1.
          6    1    1    2  501    0 -0.58729028613E+01 -0.10579273409E+03 -0.36313700762E+03  0.41554672406E+03  0.17200000000E+03 0.  1.
         -6    1    1    2    0  502  0.58729028613E+01  0.10579273409E+03  0.13500684047E+03  0.24297621396E+03  0.17200000000E+03 0.  1.
</event>
<event>
 4    1  0.1249554E+000  0.3047585E+03  0.7818608E-02  0.1082886E+00
         21   -1    0    0  503  502  0.00000000000E+00  0.00000000000E+00  0.69681383334E+03  0.69681383334E+03  0.00000000000E+00 0.  1.
         21   -1    0    0  501  503 -0.00000000000E+00 -0.00000000000E+00 -0.25657722304E+03  0.25657722304E+03  0.00000000000E+00 0. -1.
          6    1    1    2  501    0  0.23538212403E+02 -0.25047891607E+03 -0.11032163249E+03  0.32411201372E+03  0.17200000000E+03 0. -1.
         -6    1    1    2    0  502 -0.23538212403E+02  0.25047891607E+03  0.55055824279E+03  0.62927904267E+03  0.17200000000E+03 0. -1.
</event>
<event>
 4    1  0.1249554E+000  0.1727145E+03  0.7818608E-02  0.1175046E+00
         21   -1    0    0  503  502  0.00000000000E+00  0.00000000000E+00  0.11794390596E+04  0.11794390596E+04  0.00000000000E+00 0. -1.
         21   -1    0    0  501  503 -0.00000000000E+00 -0.00000000000E+00 -0.28042358022E+02  0.28042358022E+02  0.00000000000E+00 0. -1.
          6    1    1    2  501    0  0.75265867437E+01 -0.13771380650E+02  0.38661963318E+03  0.42344425984E+03  0.17200000000E+03 0. -1.
         -6    1    1    2    0  502 -0.75265867437E+01  0.13771380650E+02  0.76477706842E+03  0.78403715780E+03  0.17200000000E+03 0. -1.
</event>
<event>
 4    1  0.1249554E+000  0.1778327E+03  0.7818608E-02  0.1169917E+00
         21   -1    0    0  501  502  0.00000000000E+00  0.00000000000E+00  0.80238165149E+03  0.80238165149E+03  0.00000000000E+00 0.  1.
         21   -1    0    0  502  503 -0.00000000000E+00 -0.00000000000E+00 -0.78841319970E+02  0.78841319970E+02  0.00000000000E+00 0.  1.
          6    1    1    2  501    0 -0.44713206113E+02 -0.64194798411E+01  0.67335875746E+03  0.69644561652E+03  0.17200000000E+03 0.  1.
         -6    1    1    2    0  503  0.44713206113E+02  0.64194798411E+01  0.50181574057E+02  0.18477735494E+03  0.17200000000E+03 0.  1.
</event>
<event>
 4    1  0.1249554E+000  0.1741304E+03  0.7818608E-02  0.1173608E+00
         21   -1    0    0  503  502  0.00000000000E+00  0.00000000000E+00  0.46624856218E+02  0.46624856218E+02  0.00000000000E+00 0.  1.
         21   -1    0    0  501  503 -0.00000000000E+00 -0.00000000000E+00 -0.72686910517E+03  0.72686910517E+03  0.00000000000E+00 0.  1.
          6    1    1    2  501    0 -0.27135939403E+02  0.10127845088E+01 -0.46562397200E+03  0.49711876674E+03  0.17200000000E+03 0.  1.
         -6    1    1    2    0  502  0.27135939403E+02 -0.10127845088E+01 -0.21462027695E+03  0.27637519465E+03  0.17200000000E+03 0.  1.
</event>
<event>
 4    1  0.1249554E+000  0.2098089E+03  0.7818608E-02  0.1141717E+00
         21   -1    0    0  503  502  0.00000000000E+00  0.00000000000E+00  0.75567215061E+02  0.75567215061E+02  0.00000000000E+00 0.  1.
         21   -1    0    0  501  503 -0.00000000000E+00 -0.00000000000E+00 -0.71334416263E+03  0.71334416263E+03  0.00000000000E+00 0.  1.
          6    1    1    2  501    0 -0.56380910810E+02 -0.10609892237E+03 -0.48780977874E+03  0.53101616610E+03  0.17200000000E+03 0.  1.
         -6    1    1    2    0  502  0.56380910810E+02  0.10609892237E+03 -0.14996716883E+03  0.25789521159E+03  0.17200000000E+03 0.  1.
</event>
<event>
 4    1  0.1249554E+000  0.1752948E+03  0.7818608E-02  0.1172436E+00
         21   -1    0    0  503  502  0.00000000000E+00  0.00000000000E+00  0.50186651600E+03  0.50186651600E+03  0.00000000000E+00 0. -1.
         21   -1    0    0  501  503 -0.00000000000E+00 -0.00000000000E+00 -0.85625674079E+02  0.85625674079E+02  0.00000000000E+00 0. -1.
          6    1    1    2  501    0 -0.84960103068E+01  0.32742734566E+02  0.51320960317E+02  0.18265297650E+03  0.17200000000E+03 0. -1.
         -6    1    1    2    0  502  0.84960103068E+01 -0.32742734566E+02  0.36491988161E+03  0.40483921358E+03  0.17200000000E+03 0. -1.
</event>
<event>
 4    1  0.1249554E+000  0.1738284E+03  0.7818608E-02  0.1173913E+00
         21   -1    0    0  501  502  0.00000000000E+00  0.00000000000E+00  0.17398086388E+03  0.17398086388E+03  0.00000000000E+00 0. -1.
         21   -1    0    0  502  503 -0.00000000000E+00 -0.00000000000E+00 -0.19360195844E+03  0.19360195844E+03  0.00000000000E+00 0. -1.
          6    1    1    2  501    0 -0.24521416765E+02 -0.55679833444E+01  0.49152488613E+02  0.18064404074E+03  0.17200000000E+03 0.  1.
         -6    1    1    2    0  503  0.24521416765E+02  0.55679833444E+01 -0.68773583174E+02  0.18693878159E+03  0.17200000000E+03 0.  1.
</event>
<event>
 4    1  0.1249554E+000  0.1756542E+03  0.7818608E-02  0.1172076E+00
         21   -1    0    0  501  502  0.00000000000E+00  0.00000000000E+00  0.14819966099E+04  0.14819966099E+04  0.00000000000E+00 0. -1.
         21   -1    0    0  502  503 -0.00000000000E+00 -0.00000000000E+00 -0.63356738616E+02  0.63356738616E+02  0.00000000000E+00 0. -1.
          6    1    1    2  501    0  0.35073681603E+02  0.63434483422E+01  0.13424400791E+04  0.13538832182E+04  0.17200000000E+03 0. -1.
         -6    1    1    2    0  503 -0.35073681603E+02 -0.63434483422E+01  0.76199792156E+02  0.19147013031E+03  0.17200000000E+03 0. -1.
</event>
<event>
 4    1  0.1249554E+000  0.1725592E+03  0.7818608E-02  0.1175205E+00
         21   -1    0    0  501  502  0.00000000000E+00  0.00000000000E+00  0.67206090807E+03  0.67206090807E+03  0.00000000000E+00 0. -1.
         21   -1    0    0  502  503 -0.00000000000E+00 -0.00000000000E+00 -0.50352116898E+02  0.50352116898E+02  0.00000000000E+00 0. -1.
          6    1    1    2  501    0  0.14515964803E+01 -0.13805002010E+02  0.43601453063E+03  0.46891934929E+03  0.17200000000E+03 0. -1.
         -6    1    1    2    0  503 -0.14515964803E+01  0.13805002010E+02  0.18569426054E+03  0.25349367568E+03  0.17200000000E+03 0. -1.
</event>
<event>
 4    1  0.1249554E+000  0.2521025E+03  0.7818608E-02  0.1111983E+00
         21   -1    0    0  503  502  0.00000000000E+00  0.00000000000E+00  0.11927844009E+04  0.11927844009E+04  0.00000000000E+00 0. -1.
         21   -1    0    0  501  503 -0.00000000000E+00 -0.00000000000E+00 -0.13135857052E+03  0.13135857052E+03  0.00000000000E+00 0.  1.
          6    1    1    2  501    0  0.37016424744E+02  0.18055871906E+03  0.20287827929E+02  0.25291750175E+03  0.17200000000E+03 0.  1.
         -6    1    1    2    0  502 -0.37016424744E+02 -0.18055871906E+03  0.10411380024E+04  0.10712254697E+04  0.17200000000E+03 0. -1.
</event>
<event>
 4    1  0.1249554E+000  0.1800168E+03  0.7818608E-02  0.1167787E+00
         21   -1    0    0  501  502  0.00000000000E+00  0.00000000000E+00  0.70313907028E+02  0.70313907028E+02  0.00000000000E+00 0. -1.
         21   -1    0    0  502  503 -0.00000000000E+00 -0.00000000000E+00 -0.46930476662E+03  0.46930476662E+03  0.00000000000E+00 0. -1.
          6    1    1    2  501    0 -0.34232566673E+02 -0.40622620370E+02 -0.23565177336E+03  0.29654312367E+03  0.17200000000E+03 0. -1.
         -6    1    1    2    0  503  0.34232566673E+02  0.40622620370E+02 -0.16333908623E+03  0.24307554998E+03  0.17200000000E+03 0. -1.
</event>
<event>
 4    1  0.1249554E+000  0.1791389E+03  0.7818608E-02  0.1168639E+00
         21   -1    0    0  501  502  0.00000000000E+00  0.00000000000E+00  0.12283994050E+03  0.12283994050E+03  0.00000000000E+00 0. -1.
         21   -1    0    0  502  503 -0.00000000000E+00 -0.00000000000E+00 -0.26366759697E+03  0.26366759697E+03  0.00000000000E+00 0. -1.
          6    1    1    2  501    0  0.17656804047E+02  0.46850658936E+02 -0.88955892804E+02  0.20000974435E+03  0.17200000000E+03 0.  1.
         -6    1    1    2    0  503 -0.17656804047E+02 -0.46850658936E+02 -0.51871763660E+02  0.18649779312E+03  0.17200000000E+03 0.  1.
</event>
<event>
 4    1  0.1249554E+000  0.2174834E+03  0.7818608E-02  0.1135773E+00
         21   -1    0    0  503  502  0.00000000000E+00  0.00000000000E+00  0.10744499528E+04  0.10744499528E+04  0.00000000000E+00 0.  1.
         21   -1    0    0  501  503 -0.00000000000E+00 -0.00000000000E+00 -0.55780712079E+02  0.55780712079E+02  0.00000000000E+00 0.  1.
          6    1    1    2  501    0 -0.23151138604E+02 -0.13106884601E+03  0.76880161978E+03  0.79897118108E+03  0.17200000000E+03 0.  1.
         -6    1    1    2    0  502  0.23151138604E+02  0.13106884601E+03  0.24986762093E+03  0.33125948379E+03  0.17200000000E+03 0.  1.
</event>
<event>
 4    1  0.1249554E+000  0.1898379E+03  0.7818608E-02  0.1158608E+00
         21   -1    0    0  501  502  0.00000000000E+00  0.00000000000E+00  0.20781420935E+03  0.20781420935E+03  0.00000000000E+00 0.  1.
         21   -1    0    0  502  503 -0.00000000000E+00 -0.00000000000E+00 -0.18040938157E+03  0.18040938157E+03  0.00000000000E+00 0.  1.
          6    1    1    2  501    0  0.35345666625E+02 -0.72146557049E+02  0.51918492339E+02  0.19680948069E+03  0.17200000000E+03 0.  1.
         -6    1    1    2    0  503 -0.35345666625E+02  0.72146557049E+02 -0.24513664554E+02  0.19141411022E+03  0.17200000000E+03 0.  1.
</event>
<event>
 4    1  0.1249554E+000  0.2154877E+03  0.7818608E-02  0.1137293E+00
         21   -1    0    0  503  502  0.00000000000E+00  0.00000000000E+00  0.44035068367E+03  0.44035068367E+03  0.00000000000E+00 0.  1.
         21   -1    0    0  501  503 -0.00000000000E+00 -0.00000000000E+00 -0.12986596055E+03  0.12986596055E+03  0.00000000000E+00 0. -1.
          6    1    1    2  501    0  0.41017282073E+02  0.12316062189E+03  0.31619267888E+02  0.21779516596E+03  0.17200000000E+03 0. -1.
         -6    1    1    2    0  502 -0.41017282073E+02 -0.12316062189E+03  0.27886545523E+03  0.35242147825E+03  0.17200000000E+03 0.  1.
</event>
<event>
 4    1  0.1249554E+000  0.2317870E+03  0.7818608E-02  0.1125388E+00
         21   -1    0    0  503  502  0.00000000000E+00  0.00000000000E+00  0.13530641355E+03  0.13530641355E+03  0.00000000000E+00 0.  1.
         21   -1    0    0  501  503 -0.00000000000E+00 -0.00000000000E+00 -0.42190831511E+03  0.42190831511E+03  0.00000000000E+00 0.  1.
          6    1    1    2  501    0 -0.97341374570E+02 -0.12110265257E+03 -0.21090989865E+03  0.31338184538E+03  0.17200000000E+03 0. -1.
         -6    1    1    2    0  502  0.97341374570E+02  0.12110265257E+03 -0.75692002908E+02  0.24383288328E+03  0.17200000000E+03 0. -1.
</event>
<event>
 4    1  0.1249554E+000  0.2007494E+03  0.7818608E-02  0.1149108E+00
         21   -1    0    0  503  502  0.00000000000E+00  0.00000000000E+00  0.18420316703E+02  0.18420316703E+02  0.00000000000E+00 0.  1.
         21   -1    0    0  501  503 -0.00000000000E+00 -0.00000000000E+00 -0.21923088832E+04  0.21923088832E+04  0.00000000000E+00 0.  1.
          6    1    1    2  501    0 -0.93886909709E+02  0.43606812287E+02 -0.11369714914E+04  0.11545581312E+04  0.17200000000E+03 0. -1.
         -6    1    1    2    0  502  0.93886909709E+02 -0.43606812287E+02 -0.10369170751E+04  0.10561710687E+04  0.17200000000E+03 0. -1.
</event>
<event>
 4    1  0.1249554E+000  0.1926410E+03  0.7818608E-02  0.1156101E+00
         21   -1    0    0  503  502  0.00000000000E+00  0.00000000000E+00  0.47823477811E+03  0.47823477811E+03  0.00000000000E+00 0. -1.
         21   -1    0    0  501  503 -0.00000000000E+00 -0.00000000000E+00 -0.78947153631E+02  0.78947153631E+02  0.00000000000E+00 0. -1.
          6    1    1    2  501    0  0.84486240841E+02 -0.19713813343E+02  0.23604890634E+03  0.30467957843E+03  0.17200000000E+03 0. -1.
         -6    1    1    2    0  502 -0.84486240841E+02  0.19713813343E+02  0.16323871814E+03  0.25250235331E+03  0.17200000000E+03 0. -1.
</event>
<event>
 4    1  0.1249554E+000  0.2052104E+03  0.7818608E-02  0.1145416E+00
         21   -1    0    0  501  502  0.00000000000E+00  0.00000000000E+00  0.18523285258E+03  0.18523285258E+03  0.00000000000E+00 0. -1.
         21   -1    0    0  502  503 -0.00000000000E+00 -0.00000000000E+00 -0.23004652414E+03  0.23004652414E+03  0.00000000000E+00 0. -1.
          6    1    1    2  501    0  0.11111554505E+03 -0.13440217504E+02  0.10474919183E+00  0.20521041584E+03  0.17200000000E+03 0. -1.
         -6    1    1    2    0  503 -0.11111554505E+03  0.13440217504E+02 -0.44918420753E+02  0.21006896087E+03  0.17200000000E+03 0. -1.
</event>
<event>
 4    1  0.1249554E+000  0.2051123E+03  0.7818608E-02  0.1145496E+00
         21   -1    0    0  503  502  0.00000000000E+00  0.00000000000E+00  0.60511225411E+02  0.60511225411E+02  0.00000000000E+00 0. -1.
         21   -1    0    0  501  503 -0.00000000000E+00 -0.00000000000E+00 -0.85524650962E+03  0.85524650962E+03  0.00000000000E+00 0.  1.
          6    1    1    2  501    0 -0.82518083915E+02 -0.75351347385E+02 -0.59540451617E+03  0.62974407310E+03  0.17200000000E+03 0.  1.
         -6    1    1    2    0  502  0.82518083915E+02  0.75351347385E+02 -0.19933076804E+03  0.28601366193E+03  0.17200000000E+03 0. -1.
</event>
<event>
 4    1  0.1249554E+000  0.2253219E+03  0.7818608E-02  0.1129976E+00
         21   -1    0    0  503  502  0.00000000000E+00  0.00000000000E+00  0.85422296498E+03  0.85422296498E+03  0.00000000000E+00 0.  1.
         21   -1    0    0  501  503 -0.00000000000E+00 -0.00000000000E+00 -0.97354107062E+02  0.97354107062E+02  0.00000000000E+00 0.  1.
          6    1    1    2  501    0 -0.25656098443E+02 -0.14327495492E+03  0.81492717496E+02  0.23960594963E+03  0.17200000000E+03 0.  1.
         -6    1    1    2    0  502  0.25656098443E+02  0.14327495492E+03  0.67537614042E+03  0.71197112241E+03  0.17200000000E+03 0.  1.
</event>
<event>
 4    1  0.1249554E+000  0.3970154E+03  0.7818608E-02  0.1044818E+00
         21   -1    0    0  503  502  0.00000000000E+00  0.00000000000E+00  0.74878639062E+03  0.74878639062E+03  0.00000000000E+00 0. -1.
         21   -1    0    0  501  503 -0.00000000000E+00 -0.00000000000E+00 -0.39217910449E+03  0.39217910449E+03  0.00000000000E+00 0.  1.
          6    1    1    2  501    0  0.26581790128E+03  0.23953716274E+03 -0.20998090541E+03  0.44912491538E+03  0.17200000000E+03 0.  1.
         -6    1    1    2    0  502 -0.26581790128E+03 -0.23953716274E+03  0.56658819154E+03  0.69184057973E+03  0.17200000000E+03 0. -1.
</event>
<event>
 4    1  0.1249554E+000  0.2369913E+03  0.7818608E-02  0.1121813E+00
         21   -1    0    0  501  502  0.00000000000E+00  0.00000000000E+00  0.17144407779E+03  0.17144407779E+03  0.00000000000E+00 0.  1.
         21   -1    0    0  502  503 -0.00000000000E+00 -0.00000000000E+00 -0.52939894961E+03  0.52939894961E+03  0.00000000000E+00 0. -1.
          6    1    1    2  501    0  0.12874663513E+03  0.10002596888E+03  0.37374040353E+02  0.23992021466E+03  0.17200000000E+03 0.  1.
         -6    1    1    2    0  503 -0.12874663513E+03 -0.10002596888E+03 -0.39532891218E+03  0.46092281275E+03  0.17200000000E+03 0. -1.
</event>
<event>
 4    1  0.1249554E+000  0.2028128E+03  0.7818608E-02  0.1147387E+00
         21   -1    0    0  503  502  0.00000000000E+00  0.00000000000E+00  0.24672162921E+03  0.24672162921E+03  0.00000000000E+00 0.  1.
         21   -1    0    0  501  503 -0.00000000000E+00 -0.00000000000E+00 -0.32885961668E+03  0.32885961668E+03  0.00000000000E+00 0.  1.
          6    1    1    2  501    0 -0.99023905040E+02 -0.41752586619E+02 -0.24314660747E+03  0.31662799147E+03  0.17200000000E+03 0.  1.
         -6    1    1    2    0  502  0.99023905040E+02  0.41752586619E+02  0.16100862000E+03  0.25895325441E+03  0.17200000000E+03 0.  1.
</event>
<event>
 4    1  0.1249554E+000  0.2004994E+03  0.7818608E-02  0.1149318E+00
         21   -1    0    0  501  502  0.00000000000E+00  0.00000000000E+00  0.19830652923E+03  0.19830652923E+03  0.00000000000E+00 0.  1.
         21   -1    0    0  502  503 -0.00000000000E+00 -0.00000000000E+00 -0.99128590027E+03  0.99128590027E+03  0.00000000000E+00 0.  1.
          6    1    1    2  501    0  0.24882978367E+02  0.99984298594E+02  0.13401432106E+03  0.24116355618E+03  0.17200000000E+03 0.  1.
         -6    1    1    2    0  503 -0.24882978367E+02 -0.99984298594E+02 -0.92699369209E+03  0.94842887332E+03  0.17200000000E+03 0.  1.
</event>
<event>
 4    1  0.1249554E+000  0.2339988E+03  0.7818608E-02  0.1123856E+00
         21   -1    0    0  503  502  0.00000000000E+00  0.00000000000E+00  0.52373899675E+03  0.52373899675E+03  0.00000000000E+00 0. -1.
         21   -1    0    0  501  503 -0.00000000000E+00 -0.00000000000E+00 -0.10484117546E+03  0.10484117546E+03  0.00000000000E+00 0.  1.
          6    1    1    2  501    0 -0.14400383865E+03 -0.66590734757E+02  0.22609224051E+03  0.32538151871E+03  0.17200000000E+03 0.  1.
         -6    1    1    2    0  502  0.14400383865E+03  0.66590734757E+02  0.19280558078E+03  0.30319865349E+03  0.17200000000E+03 0.  1.
</event>
<event>
 4    1  0.1249554E+000  0.2598728E+03  0.7818608E-02  0.1107220E+00
         21   -1    0    0  503  502  0.00000000000E+00  0.00000000000E+00  0.31882787159E+03  0.31882787159E+03  0.00000000000E+00 0. -1.
         21   -1    0    0  501  503 -0.00000000000E+00 -0.00000000000E+00 -0.25796003174E+03  0.25796003174E+03  0.00000000000E+00 0. -1.
          6    1    1    2  501    0 -0.12766655395E+03 -0.14714328713E+03 -0.91535844579E+02  0.27552260667E+03  0.17200000000E+03 0. -1.
         -6    1    1    2    0  502  0.12766655395E+03  0.14714328713E+03  0.15240368443E+03  0.30126529666E+03  0.17200000000E+03 0. -1.
</event>
<event>
 4    1  0.1249554E+000  0.2332764E+03  0.7818608E-02  0.1124355E+00
         21   -1    0    0  503  502  0.00000000000E+00  0.00000000000E+00  0.68879908707E+02  0.68879908707E+02  0.00000000000E+00 0. -1.
         21   -1    0    0  501  503 -0.00000000000E+00 -0.00000000000E+00 -0.98751933303E+03  0.98751933303E+03  0.00000000000E+00 0.  1.
          6    1    1    2  501    0 -0.72437432943E+02 -0.13995244177E+03 -0.69552322596E+03  0.73360099883E+03  0.17200000000E+03 0.  1.
         -6    1    1    2    0  502  0.72437432943E+02  0.13995244177E+03 -0.22311619837E+03  0.32279824290E+03  0.17200000000E+03 0. -1.
</event>
<event>
 4    1  0.1249554E+000  0.1032875E+04  0.7818608E-02  0.9273205E-01
         21   -1    0    0  501  502  0.00000000000E+00  0.00000000000E+00  0.79079668502E+03  0.79079668502E+03  0.00000000000E+00 0.  1.
         21   -1    0    0  502  503 -0.00000000000E+00 -0.00000000000E+00 -0.14338341407E+04  0.14338341407E+04  0.00000000000E+00 0. -1.
          6    1    1    2  501    0 -0.10184336971E+04  0.62785183510E+01 -0.59198632963E+03  0.11904950355E+04  0.17200000000E+03 0. -1.
         -6    1    1    2    0  503  0.10184336971E+04 -0.62785183510E+01 -0.51051126018E+02  0.10341357902E+04  0.17200000000E+03 0.  1.
</event>
<event>
 4    1  0.1249554E+000  0.1786924E+03  0.7818608E-02  0.1169075E+00
         21   -1    0    0  503  502  0.00000000000E+00  0.00000000000E+00  0.67921636133E+02  0.67921636133E+02  0.00000000000E+00 0.  1.
         21   -1    0    0  501  503 -0.00000000000E+00 -0.00000000000E+00 -0.13367926542E+04  0.13367926542E+04  0.00000000000E+00 0.  1.
          6    1    1    2  501    0 -0.19223276065E+02  0.44468538012E+02 -0.11999643525E+04  0.12131963701E+04  0.17200000000E+03 0. -1.
         -6    1    1    2    0  502  0.19223276065E+02 -0.44468538012E+02 -0.68906665628E+02  0.19151792027E+03  0.17200000000E+03 0. -1.
</event>
<event>
 4    1  0.1249554E+000  0.1766851E+03  0.7818608E-02  0.1171050E+00
         21   -1    0    0  503  502  0.00000000000E+00  0.00000000000E+00  0.42107717534E+02  0.42107717534E+02  0.00000000000E+00 0.  1.
         21   -1    0    0  501  503 -0.00000000000E+00 -0.00000000000E+00 -0.76442950268E+03  0.76442950268E+03  0.00000000000E+00 0.  1.
          6    1    1    2  501    0  0.34582780165E+02 -0.20920363234E+02 -0.43119326461E+03  0.46598847811E+03  0.17200000000E+03 0.  1.
         -6    1    1    2    0  502 -0.34582780165E+02  0.20920363234E+02 -0.29112852053E+03  0.34054874211E+03  0.17200000000E+03 0.  1.
</event>
<event>
 4    1  0.1249554E+000  0.1781541E+03  0.7818608E-02  0.1169602E+00
         21   -1    0    0  503  502  0.00000000000E+00  0.00000000000E+00  0.35065299586E+03  0.35065299586E+03  0.00000000000E+00 0.  1.
         21   -1    0    0  501  503 -0.00000000000E+00 -0.00000000000E+00 -0.15312983246E+03  0.15312983246E+03  0.00000000000E+00 0.  1.
          6    1    1    2  501    0  0.41167823381E+02  0.21449500452E+02 -0.62312947506E+02  0.18873731528E+03  0.17200000000E+03 0.  1.
         -6    1    1    2    0  502 -0.41167823381E+02 -0.21449500452E+02  0.25983611091E+03  0.31504551304E+03  0.17200000000E+03 0.  1.
</event>
<event>
 4    1  0.1249554E+000  0.2816754E+03  0.7818608E-02  0.1094777E+00
         21   -1    0    0  503  502  0.00000000000E+00  0.00000000000E+00  0.14960925356E+03  0.14960925356E+03  0.00000000000E+00 0.  1.
         21   -1    0    0  501  503 -0.00000000000E+00 -0.00000000000E+00 -0.58667669282E+03  0.58667669282E+03  0.00000000000E+00 0. -1.
          6    1    1    2  501    0 -0.50766476138E+01  0.22300500912E+03 -0.33263328729E+03  0.43587373202E+03  0.17200000000E+03 0.  1.
         -6    1    1    2    0  502  0.50766476138E+01 -0.22300500912E+03 -0.10443415196E+03  0.30041221437E+03  0.17200000000E+03 0.  1.
</event>
<event>
 4    1  0.1249554E+000  0.1733451E+03  0.7818608E-02  0.1174404E+00
         21   -1    0    0  503  502  0.00000000000E+00  0.00000000000E+00  0.23579390591E+02  0.23579390591E+02  0.00000000000E+00 0.  1.
         21   -1    0    0  501  503 -0.00000000000E+00 -0.00000000000E+00 -0.13467306594E+04  0.13467306594E+04  0.00000000000E+00 0.  1.
          6    1    1    2  501    0  0.81174283029E+01  0.19966020630E+02 -0.82040915207E+03  0.83852233806E+03  0.17200000000E+03 0.  1.
         -6    1    1    2    0  502 -0.81174283029E+01 -0.19966020630E+02 -0.50274211677E+03  0.53178771196E+03  0.17200000000E+03 0.  1.
</event>
<event>
 4    1  0.1249554E+000  0.1874955E+03  0.7818608E-02  0.1160740E+00
         21   -1    0    0  501  502  0.00000000000E+00  0.00000000000E+00  0.58193043173E+03  0.58193043173E+03  0.00000000000E+00 0. -1.
         21   -1    0    0  502  503 -0.00000000000E+00 -0.00000000000E+00 -0.90679238486E+02  0.90679238486E+02  0.00000000000E+00 0. -1.
          6    1    1    2  501    0 -0.61345214932E+02 -0.42512460495E+02  0.43992808263E+03  0.47821675272E+03  0.17200000000E+03 0.  1.
         -6    1    1    2    0  503  0.61345214932E+02  0.42512460495E+02  0.51323110618E+02  0.19439291750E+03  0.17200000000E+03 0.  1.
</event>
<event>
 4    1  0.1249554E+000  0.1745530E+03  0.7818608E-02  0.1173181E+00
         21   -1    0    0  503  502  0.00000000000E+00  0.00000000000E+00  0.15494069408E+03  0.15494069408E+03  0.00000000000E+00 0. -1.
         21   -1    0    0  501  503 -0.00000000000E+00 -0.00000000000E+00 -0.24050399389E+03  0.24050399389E+03  0.00000000000E+00 0. -1.
          6    1    1    2  501    0 -0.28348186727E+02  0.90073360260E+01 -0.12721420027E+03  0.21599121404E+03  0.17200000000E+03 0.  1.
         -6    1    1    2    0  502  0.28348186727E+02 -0.90073360260E+01  0.41650900464E+02  0.17945347392E+03  0.17200000000E+03 0.  1.
</event>
<event>
 4    1  0.1249554E+000  0.3183647E+03  0.7818608E-02  0.1076404E+00
         21   -1    0    0  503  502  0.00000000000E+00  0.00000000000E+00  0.73552519400E+03  0.73552519400E+03  0.00000000000E+00 0.  1.
         21   -1    0    0  501  503 -0.00000000000E+00 -0.00000000000E+00 -0.16160918342E+03  0.16160918342E+03  0.00000000000E+00 0. -1.
          6    1    1    2  501    0  0.25386516936E+03  0.85583813927E+02  0.11478798182E+03  0.33842634973E+03  0.17200000000E+03 0.  1.
         -6    1    1    2    0  502 -0.25386516936E+03 -0.85583813927E+02  0.45912802876E+03  0.55870802770E+03  0.17200000000E+03 0.  1.
</event>
<event>
 4    1  0.1249554E+000  0.1834789E+03  0.7818608E-02  0.1164478E+00
         21   -1    0    0  501  502  0.00000000000E+00  0.00000000000E+00  0.97766993844E+02  0.97766993844E+02  0.00000000000E+00 0.  1.
         21   -1    0    0  502  503 -0.00000000000E+00 -0.00000000000E+00 -0.44893905470E+03  0.44893905470E+03  0.00000000000E+00 0.  1.
          6    1    1    2  501    0  0.57257869848E+01  0.63621782831E+02 -0.43637004477E+02  0.18859667030E+03  0.17200000000E+03 0. -1.
         -6    1    1    2    0  503 -0.57257869848E+01 -0.63621782831E+02 -0.30753505638E+03  0.35810937825E+03  0.17200000000E+03 0. -1.
</event>
<event>
 4    1  0.1249554E+000  0.3254363E+03  0.7818608E-02  0.1073174E+00
         21   -1    0    0  503  502  0.00000000000E+00  0.00000000000E+00  0.23963327438E+03  0.23963327438E+03  0.00000000000E+00 0. -1.
         21   -1    0    0  501  503 -0.00000000000E+00 -0.00000000000E+00 -0.45074983843E+03  0.45074983843E+03  0.00000000000E+00 0. -1.
          6    1    1    2  501    0  0.25354718541E+03 -0.10972065946E+03 -0.15375680197E+03  0.35993048286E+03  0.17200000000E+03 0. -1.
         -6    1    1    2    0  502 -0.25354718541E+03  0.10972065946E+03 -0.57359762080E+02  0.33045262996E+03  0.17200000000E+03 0. -1.
</event>
<event>
 4    1  0.1249554E+000  0.1984660E+03  0.7818608E-02  0.1151040E+00
         21   -1    0    0  503  502  0.00000000000E+00  0.00000000000E+00  0.10502336896E+03  0.10502336896E+03  0.00000000000E+00 0.  1.
         21   -1    0    0  501  503 -0.00000000000E+00 -0.00000000000E+00 -0.51048790027E+03  0.51048790027E+03  0.00000000000E+00 0.  1.
          6    1    1    2  501    0 -0.75042284194E+02 -0.64601882563E+02 -0.36125350788E+03  0.41218059707E+03  0.17200000000E+03 0.  1.
         -6    1    1    2    0  502  0.75042284194E+02  0.64601882563E+02 -0.44211023435E+02  0.20333067216E+03  0.17200000000E+03 0.  1.
</event>
<event>
 4    1  0.1249554E+000  0.2048214E+03  0.7818608E-02  0.1145734E+00
         21   -1    0    0  501  502  0.00000000000E+00  0.00000000000E+00  0.30162107442E+02  0.30162107442E+02  0.00000000000E+00 0. -1.
         21   -1    0    0  502  503 -0.00000000000E+00 -0.00000000000E+00 -0.13936236060E+04  0.13936236060E+04  0.00000000000E+00 0. -1.
          6    1    1    2  501    0 -0.87170737777E+02 -0.69058585520E+02 -0.65013533431E+03  0.68163610430E+03  0.17200000000E+03 0.  1.
         -6    1    1    2    0  503  0.87170737777E+02  0.69058585520E+02 -0.71332616423E+03  0.74214960914E+03  0.17200000000E+03 0.  1.
</event>
<event>
 4    1  0.1249554E+000  0.2086617E+03  0.7818608E-02  0.1142630E+00
         21   -1    0    0  503  502  0.00000000000E+00  0.00000000000E+00  0.84884039968E+03  0.84884039968E+03  0.00000000000E+00 0.  1.
         21   -1    0    0  501  503 -0.00000000000E+00 -0.00000000000E+00 -0.53238578818E+02  0.53238578818E+02  0.00000000000E+00 0.  1.
          6    1    1    2  501    0  0.28258011898E+02  0.11470485115E+03  0.31158123960E+03  0.37499678263E+03  0.17200000000E+03 0.  1.
         -6    1    1    2    0  502 -0.28258011898E+02 -0.11470485115E+03  0.48402058127E+03  0.52708219587E+03  0.17200000000E+03 0.  1.
</event>
<event>
 4    1  0.1249554E+000  0.2246916E+03  0.7818608E-02  0.1130433E+00
         21   -1    0    0  501  502  0.00000000000E+00  0.00000000000E+00  0.49718871836E+03  0.49718871836E+03  0.00000000000E+00 0. -1.
         21   -1    0    0  502  503 -0.00000000000E+00 -0.00000000000E+00 -0.26849971991E+03  0.26849971991E+03  0.00000000000E+00 0. -1.
          6    1    1    2  501    0  0.13715472171E+03  0.45726244514E+02  0.41623636589E+03  0.47301059122E+03  0.17200000000E+03 0. -1.
         -6    1    1    2    0  503 -0.13715472171E+03 -0.45726244514E+02 -0.18754736743E+03  0.29267784705E+03  0.17200000000E+03 0. -1.
</event>
<event>
 4    1  0.1249554E+000  0.2769563E+03  0.7818608E-02  0.1097363E+00
         21   -1    0    0  501  502  0.00000000000E+00  0.00000000000E+00  0.14780759640E+03  0.14780759640E+03  0.00000000000E+00 0.  1.
         21   -1    0    0  502  503 -0.00000000000E+00 -0.00000000000E+00 -0.82140908973E+03  0.82140908973E+03  0.00000000000E+00 0. -1.
          6    1    1    2  501    0  0.51664342444E+02 -0.21083542099E+03 -0.63086641503E+03  0.68898273755E+03  0.17200000000E+03 0.  1.
         -6    1    1    2    0  503 -0.51664342444E+02  0.21083542099E+03 -0.42735078291E+02  0.28023394858E+03  0.17200000000E+03 0. -1.
</event>
<event>
 4    1  0.1249554E+000  0.2529720E+03  0.7818608E-02  0.1111441E+00
         21   -1    0    0  503  502  0.00000000000E+00  0.00000000000E+00  0.94890206505E+02  0.94890206505E+02  0.00000000000E+00 0. -1.
         21   -1    0    0  501  503 -0.00000000000E+00 -0.00000000000E+00 -0.78396885575E+03  0.78396885575E+03  0.00000000000E+00 0.  1.
          6    1    1    2  501    0 -0.57587018594E+02  0.17633647027E+03 -0.50881203829E+03  0.56822927218E+03  0.17200000000E+03 0.  1.
         -6    1    1    2    0  502  0.57587018594E+02 -0.17633647027E+03 -0.18026661096E+03  0.31062979008E+03  0.17200000000E+03 0.  1.
</event>
<event>
 4    1  0.1249554E+000  0.2681118E+03  0.7818608E-02  0.1102365E+00
         21   -1    0    0  501  502  0.00000000000E+00  0.00000000000E+00  0.17340783419E+04  0.17340783419E+04  0.00000000000E+00 0. -1.
         21   -1    0    0  502  503 -0.00000000000E+00 -0.00000000000E+00 -0.47479846187E+02  0.47479846187E+02  0.00000000000E+00 0. -1.
          6    1    1    2  501    0  0.15214286195E+03  0.13839254337E+03  0.11606470874E+04  0.11912118233E+04  0.17200000000E+03 0. -1.
         -6    1    1    2    0  503 -0.15214286195E+03 -0.13839254337E+03  0.52595140835E+03  0.59034636481E+03  0.17200000000E+03 0. -1.
</event>
<event>
 4    1  0.1249554E+000  0.1720177E+03  0.7818608E-02  0.1175760E+00
         21   -1    0    0  503  502  0.00000000000E+00  0.00000000000E+00  0.56919749543E+02  0.56919749543E+02  0.00000000000E+00 0. -1.
         21   -1    0    0  501  503 -0.00000000000E+00 -0.00000000000E+00 -0.61108547697E+03  0.61108547697E+03  0.00000000000E+00 0. -1.
          6    1    1    2  501    0  0.24459698014E+01  0.33367623423E+00 -0.40613512141E+03  0.44106216223E+03  0.17200000000E+03 0. -1.
         -6    1    1    2    0  502 -0.24459698014E+01 -0.33367623423E+00 -0.14803060601E+03  0.22694306428E+03  0.17200000000E+03 0. -1.
</event>
<event>
 4    1  0.1249554E+000  0.2137291E+03  0.7818608E-02  0.1138647E+00
         21   -1    0    0  501  502  0.00000000000E+00  0.00000000000E+00  0.27194699453E+03  0.27194699453E+03  0.00000000000E+00 0.  1.
         21   -1    0    0  502  503 -0.00000000000E+00 -0.00000000000E+00 -0.60220847366E+03  0.60220847366E+03  0.00000000000E+00 0.  1.
          6    1    1    2  501    0 -0.12063020195E+03  0.39299943766E+02  0.20601732915E+03  0.29685564019E+03  0.17200000000E+03 0.  1.
         -6    1    1    2    0  503  0.12063020195E+03 -0.39299943766E+02 -0.53627880828E+03  0.57729982800E+03  0.17200000000E+03 0.  1.
</event>
<event>
 4    1  0.1249554E+000  0.1865407E+03  0.7818608E-02  0.1161619E+00
         21   -1    0    0  503  502  0.00000000000E+00  0.00000000000E+00  0.12180800269E+03  0.12180800269E+03  0.00000000000E+00 0.  1.
         21   -1    0    0  501  503 -0.00000000000E+00 -0.00000000000E+00 -0.45976250023E+03  0.45976250023E+03  0.00000000000E+00 0.  1.
          6    1    1    2  501    0 -0.23911933930E+01 -0.72164604963E+02 -0.34791004195E+03  0.39476429082E+03  0.17200000000E+03 0.  1.
         -6    1    1    2    0  502  0.23911933930E+01  0.72164604963E+02  0.99555444146E+01  0.18680621210E+03  0.17200000000E+03 0.  1.
</event>
<event>
 4    1  0.1249554E+000  0.1797040E+03  0.7818608E-02  0.1168090E+00
         21   -1    0    0  503  502  0.00000000000E+00  0.00000000000E+00  0.32828007624E+03  0.32828007624E+03  0.00000000000E+00 0. -1.
         21   -1    0    0  501  503 -0.00000000000E+00 -0.00000000000E+00 -0.11141305275E+03  0.11141305275E+03  0.00000000000E+00 0. -1.
          6    1    1    2  501    0  0.41414081825E+02  0.31534360201E+02  0.33217678460E+02  0.18274834119E+03  0.17200000000E+03 0. -1.
         -6    1    1    2    0  502 -0.41414081825E+02 -0.31534360201E+02  0.18364934503E+03  0.25694478780E+03  0.17200000000E+03 0. -1.
</event>
<event>
 4    1  0.1249554E+000  0.2573530E+03  0.7818608E-02  0.1108744E+00
         21   -1    0    0  501  502  0.00000000000E+00  0.00000000000E+00  0.90754407327E+03  0.90754407327E+03  0.00000000000E+00 0. -1.
         21   -1    0    0  502  503 -0.00000000000E+00 -0.00000000000E+00 -0.92991456187E+02  0.92991456187E+02  0.00000000000E+00 0. -1.
          6    1    1    2  501    0  0.16026494957E+03  0.10469816401E+03  0.63935984597E+03  0.68921083295E+03  0.17200000000E+03 0. -1.
         -6    1    1    2    0  503 -0.16026494957E+03 -0.10469816401E+03  0.17519277111E+03  0.31132469651E+03  0.17200000000E+03 0. -1.
</event>
<event>
 4    1  0.1249554E+000  0.2122213E+03  0.7818608E-02  0.1139819E+00
         21   -1    0    0  503  502  0.00000000000E+00  0.00000000000E+00  0.19606745337E+03  0.19606745337E+03  0.00000000000E+00 0. -1.
         21   -1    0    0  501  503 -0.00000000000E+00 -0.00000000000E+00 -0.23602002770E+03  0.23602002770E+03  0.00000000000E+00 0. -1.
          6    1    1    2  501    0 -0.56852878029E+02  0.11055155194E+03 -0.55312184735E+02  0.21931104203E+03  0.17200000000E+03 0. -1.
         -6    1    1    2    0  502  0.56852878029E+02 -0.11055155194E+03  0.15359610397E+02  0.21277643904E+03  0.17200000000E+03 0. -1.
</event>
<event>
 4    1  0.1249554E+000  0.2216505E+03  0.7818608E-02  0.1132659E+00
         21   -1    0    0  503  502  0.00000000000E+00  0.00000000000E+00  0.14082342864E+03  0.14082342864E+03  0.00000000000E+00 0. -1.
         21   -1    0    0  501  503 -0.00000000000E+00 -0.00000000000E+00 -0.39444042948E+03  0.39444042948E+03  0.00000000000E+00 0. -1.
          6    1    1    2  501    0 -0.67820501643E+02  0.12225099084E+03 -0.21777755013E+03  0.31073459180E+03  0.17200000000E+03 0. -1.
         -6    1    1    2    0  502  0.67820501643E+02 -0.12225099084E+03 -0.35839450716E+02  0.22452926632E+03  0.17200000000E+03 0. -1.
</event>
<event>
 4    1  0.1249554E+000  0.1721175E+03  0.7818608E-02  0.1175657E+00
         21   -1    0    0  503  502  0.00000000000E+00  0.00000000000E+00  0.83025369299E+03  0.83025369299E+03  0.00000000000E+00 0. -1.
         21   -1    0    0  501  503 -0.00000000000E+00 -0.00000000000E+00 -0.47233327934E+02  0.47233327934E+02  0.00000000000E+00 0. -1.
          6    1    1    2  501    0 -0.26759575902E+01  0.57690617134E+01  0.17453126083E+03  0.24512365008E+03  0.17200000000E+03 0. -1.
         -6    1    1    2    0  502  0.26759575902E+01 -0.57690617134E+01  0.60848910422E+03  0.63236337084E+03  0.17200000000E+03 0. -1.
</event>
<event>
 4    1  0.1249554E+000  0.1831559E+03  0.7818608E-02  0.1164783E+00
         21   -1    0    0  503  502  0.00000000000E+00  0.00000000000E+00  0.71072292780E+02  0.71072292780E+02  0.00000000000E+00 0.  1.
         21   -1    0    0  501  503 -0.00000000000E+00 -0.00000000000E+00 -0.47240136102E+03  0.47240136102E+03  0.00000000000E+00 0.  1.
          6    1    1    2  501    0  0.57893888506E+02 -0.24706022054E+02 -0.19273940089E+03  0.26588449843E+03  0.17200000000E+03 0. -1.
         -6    1    1    2    0  502 -0.57893888506E+02  0.24706022054E+02 -0.20858966735E+03  0.27758915537E+03  0.17200000000E+03 0. -1.
</event>
<event>
 4    1  0.1249554E+000  0.1883066E+03  0.7818608E-02  0.1159998E+00
         21   -1    0    0  503  502  0.00000000000E+00  0.00000000000E+00  0.58000795187E+03  0.58000795187E+03  0.00000000000E+00 0.  1.
         21   -1    0    0  501  503 -0.00000000000E+00 -0.00000000000E+00 -0.61573453487E+02  0.61573453487E+02  0.00000000000E+00 0. -1.
          6    1    1    2  501    0 -0.85073696462E+01 -0.76177451077E+02  0.28625556408E+03  0.34263920873E+03  0.17200000000E+03 0. -1.
         -6    1    1    2    0  502  0.85073696462E+01  0.76177451077E+02  0.23217893430E+03  0.29894219663E+03  0.17200000000E+03 0. -1.
</event>
<event>
 4    1  0.1249554E+000  0.1761925E+03  0.7818608E-02  0.1171540E+00
         21   -1    0    0  503  502  0.00000000000E+00  0.00000000000E+00  0.30595832878E+03  0.30595832878E+03  0.00000000000E+00 0.  1.
         21   -1    0    0  501  503 -0.00000000000E+00 -0.00000000000E+00 -0.37203839098E+03  0.37203839098E+03  0.00000000000E+00 0.  1.
          6    1    1    2  501    0 -0.36640414316E+02  0.10829126111E+02 -0.32213928694E+03  0.36717504017E+03  0.17200000000E+03 0.  1.
         -6    1    1    2    0  502  0.36640414316E+02 -0.10829126111E+02  0.25605922473E+03  0.31082167959E+03  0.17200000000E+03 0.  1.
</event>
<event>
 4    1  0.1249554E+000  0.2112509E+03  0.7818608E-02  0.1140579E+00
         21   -1    0    0  503  502  0.00000000000E+00  0.00000000000E+00  0.14400857698E+03  0.14400857698E+03  0.00000000000E+00 0.  1.
         21   -1    0    0  501  503 -0.00000000000E+00 -0.00000000000E+00 -0.32449275801E+03  0.32449275801E+03  0.00000000000E+00 0.  1.
          6    1    1    2  501    0 -0.35468427170E+02  0.11740923762E+03 -0.13993373112E+03  0.25339374007E+03  0.17200000000E+03 0. -1.
         -6    1    1    2    0  502  0.35468427170E+02 -0.11740923762E+03 -0.40550449915E+02  0.21510759492E+03  0.17200000000E+03 0. -1.
</event>
<event>
 4    1  0.1249554E+000  0.1774487E+03  0.7818608E-02  0.1170295E+00
         21   -1    0    0  503  502  0.00000000000E+00  0.00000000000E+00  0.46716987694E+02  0.46716987694E+02  0.00000000000E+00 0. -1.
         21   -1    0    0  501  503 -0.00000000000E+00 -0.00000000000E+00 -0.75011173023E+03  0.75011173023E+03  0.00000000000E+00 0. -1.
          6    1    1    2  501    0 -0.36105423685E+02 -0.24503673054E+02 -0.47859398842E+03  0.51043142278E+03  0.17200000000E+03 0. -1.
         -6    1    1    2    0  502  0.36105423685E+02  0.24503673054E+02 -0.22480075411E+03  0.28639729514E+03  0.17200000000E+03 0. -1.
</event>
<event>
 4    1  0.1249554E+000  0.1789349E+03  0.7818608E-02  0.1168838E+00
         21   -1    0    0  503  502  0.00000000000E+00  0.00000000000E+00  0.29515450195E+02  0.29515450195E+02  0.00000000000E+00 0. -1.
         21   -1    0    0  501  503 -0.00000000000E+00 -0.00000000000E+00 -0.11429062194E+04  0.11429062194E+04  0.00000000000E+00 0.  1.
          6    1    1    2  501    0 -0.34128145355E+02 -0.35622735025E+02 -0.68889866739E+03  0.71175774213E+03  0.17200000000E+03 0.  1.
         -6    1    1    2    0  502  0.34128145355E+02  0.35622735025E+02 -0.42449210177E+03  0.46066392741E+03  0.17200000000E+03 0. -1.
</event>
<event>
 4    1  0.1249554E+000  0.1999983E+03  0.7818608E-02  0.1149740E+00
         21   -1    0    0  503  502  0.00000000000E+00  0.00000000000E+00  0.21210565016E+03  0.21210565016E+03  0.00000000000E+00 0. -1.
         21   -1    0    0  501  503 -0.00000000000E+00 -0.00000000000E+00 -0.23201209967E+03  0.23201209967E+03  0.00000000000E+00 0. -1.
          6    1    1    2  501    0  0.88875171842E+02 -0.50164813777E+02 -0.10602776212E+03  0.22636517190E+03  0.17200000000E+03 0. -1.
         -6    1    1    2    0  502 -0.88875171842E+02  0.50164813777E+02  0.86121312608E+02  0.21775257793E+03  0.17200000000E+03 0. -1.
</event>
<event>
 4    1  0.1249554E+000  0.1778580E+03  0.7818608E-02  0.1169892E+00
         21   -1    0    0  503  502  0.00000000000E+00  0.00000000000E+00  0.38346451869E+02  0.38346451869E+02  0.00000000000E+00 0.  1.
         21   -1    0    0  501  503 -0.00000000000E+00 -0.00000000000E+00 -0.88527472611E+03  0.88527472611E+03  0.00000000000E+00 0.  1.
          6    1    1    2  501    0  0.16766733736E+01 -0.45240023349E+02 -0.54402693523E+03  0.57236245265E+03  0.17200000000E+03 0.  1.
         -6    1    1    2    0  502 -0.16766733736E+01  0.45240023349E+02 -0.30290133901E+03  0.35125872533E+03  0.17200000000E+03 0.  1.
</event>
<event>
 4    1  0.1249554E+000  0.2430518E+03  0.7818608E-02  0.1117776E+00
         21   -1    0    0  501  502  0.00000000000E+00  0.00000000000E+00  0.12844661708E+04  0.12844661708E+04  0.00000000000E+00 0. -1.
         21   -1    0    0  502  503 -0.00000000000E+00 -0.00000000000E+00 -0.58691242289E+02  0.58691242289E+02  0.00000000000E+00 0. -1.
          6    1    1    2  501    0  0.12493570578E+03 -0.11781873568E+03  0.92528835090E+03  0.95667795907E+03  0.17200000000E+03 0. -1.
         -6    1    1    2    0  503 -0.12493570578E+03  0.11781873568E+03  0.30048657762E+03  0.38647945403E+03  0.17200000000E+03 0. -1.
</event>
<event>
 4    1  0.1249554E+000  0.1817191E+03  0.7818608E-02  0.1166150E+00
         21   -1    0    0  503  502  0.00000000000E+00  0.00000000000E+00  0.13834014118E+04  0.13834014118E+04  0.00000000000E+00 0. -1.
         21   -1    0    0  501  503 -0.00000000000E+00 -0.00000000000E+00 -0.26173416925E+02  0.26173416925E+02  0.00000000000E+00 0.  1.
          6    1    1    2  501    0 -0.34223163848E+02 -0.47609023714E+02  0.88769310404E+03  0.90610203126E+03  0.17200000000E+03 0.  1.
         -6    1    1    2    0  502  0.34223163848E+02  0.47609023714E+02  0.46953489086E+03  0.50347279750E+03  0.17200000000E+03 0.  1.
</event>
<event>
 4    1  0.1249554E+000  0.1892156E+03  0.7818608E-02  0.1159171E+00
         21   -1    0    0  501  502  0.00000000000E+00  0.00000000000E+00  0.34002566488E+02  0.34002566488E+02  0.00000000000E+00 0.  1.
         21   -1    0    0  502  503 -0.00000000000E+00 -0.00000000000E+00 -0.11322649784E+04  0.11322649784E+04  0.00000000000E+00 0.  1.
          6    1    1    2  501    0  0.63062239516E+02  0.47346647528E+02 -0.39478068606E+03  0.43778344095E+03  0.17200000000E+03 0. -1.
         -6    1    1    2    0  503 -0.63062239516E+02 -0.47346647528E+02 -0.70348172589E+03  0.72848410398E+03  0.17200000000E+03 0. -1.
</event>
<event>
 4    1  0.1249554E+000  0.1776848E+03  0.7818608E-02  0.1170063E+00
         21   -1    0    0  503  502  0.00000000000E+00  0.00000000000E+00  0.10666755947E+03  0.10666755947E+03  0.00000000000E+00 0. -1.
         21   -1    0    0  501  503 -0.00000000000E+00 -0.00000000000E+00 -0.40344600696E+03  0.40344600696E+03  0.00000000000E+00 0. -1.
          6    1    1    2  501    0 -0.34558458948E+02  0.28170895533E+02 -0.28002432923E+03  0.33164063593E+03  0.17200000000E+03 0. -1.
         -6    1    1    2    0  502  0.34558458948E+02 -0.28170895533E+02 -0.16754118260E+02  0.17847293049E+03  0.17200000000E+03 0. -1.
</event>
<event>
 4    1  0.1249554E+000  0.2366786E+03  0.7818608E-02  0.1122025E+00
         21   -1    0    0  503  502  0.00000000000E+00  0.00000000000E+00  0.38959021444E+03  0.38959021444E+03  0.00000000000E+00 0. -1.
         21   -1    0    0  501  503 -0.00000000000E+00 -0.00000000000E+00 -0.17360336599E+03  0.17360336599E+03  0.00000000000E+00 0.  1.
          6    1    1    2  501    0 -0.16131388392E+03 -0.20263556925E+02 -0.87141186825E+01  0.23683901020E+03  0.17200000000E+03 0.  1.
         -6    1    1    2    0  502  0.16131388392E+03  0.20263556925E+02  0.22470096713E+03  0.32635457023E+03  0.17200000000E+03 0.  1.
</event>
<event>
 4    1  0.1249554E+000  0.1815230E+03  0.7818608E-02  0.1166337E+00
         21   -1    0    0  503  502  0.00000000000E+00  0.00000000000E+00  0.68793485414E+03  0.68793485414E+03  0.00000000000E+00 0. -1.
         21   -1    0    0  501  503 -0.00000000000E+00 -0.00000000000E+00 -0.48470910438E+02  0.48470910438E+02  0.00000000000E+00 0. -1.
          6    1    1    2  501    0 -0.18208008480E+02 -0.55091488483E+02  0.35976745132E+03  0.40296801697E+03  0.17200000000E+03 0.  1.
         -6    1    1    2    0  502  0.18208008480E+02  0.55091488483E+02  0.27969649239E+03  0.33343774761E+03  0.17200000000E+03 0.  1.
</event>
<event>
 4    1  0.1249554E+000  0.2295083E+03  0.7818608E-02  0.1126986E+00
         21   -1    0    0  501  502  0.00000000000E+00  0.00000000000E+00  0.24512163250E+02  0.24512163250E+02  0.00000000000E+00 0.  1.
         21   -1    0    0  502  503 -0.00000000000E+00 -0.00000000000E+00 -0.25642941975E+04  0.25642941975E+04  0.00000000000E+00 0.  1.
          6    1    1    2  501    0  0.13652021690E+03  0.66725359085E+02 -0.74891355027E+03  0.78329148402E+03  0.17200000000E+03 0.  1.
         -6    1    1    2    0  503 -0.13652021690E+03 -0.66725359085E+02 -0.17908684840E+04  0.18055148767E+04  0.17200000000E+03 0.  1.
</event>
<event>
 4    1  0.1249554E+000  0.2206578E+03  0.7818608E-02  0.1133394E+00
         21   -1    0    0  501  502  0.00000000000E+00  0.00000000000E+00  0.16151189542E+03  0.16151189542E+03  0.00000000000E+00 0. -1.
         21   -1    0    0  502  503 -0.00000000000E+00 -0.00000000000E+00 -0.44569566376E+03  0.44569566376E+03  0.00000000000E+00 0.  1.
          6    1    1    2  501    0 -0.36078449370E+02  0.13343235876E+03  0.30619072670E+02  0.22277202806E+03  0.17200000000E+03 0. -1.
         -6    1    1    2    0  503  0.36078449370E+02 -0.13343235876E+03 -0.31480284101E+03  0.38443553111E+03  0.17200000000E+03 0.  1.
</event>
<event>
 4    1  0.1249554E+000  0.1984504E+03  0.7818608E-02  0.1151053E+00
         21   -1    0    0  503  502  0.00000000000E+00  0.00000000000E+00  0.72960443012E+03  0.72960443012E+03  0.00000000000E+00 0. -1.
         21   -1    0    0  501  503 -0.00000000000E+00 -0.00000000000E+00 -0.44034918534E+03  0.44034918534E+03  0.00000000000E+00 0.  1.
          6    1    1    2  501    0  0.14087274914E+02 -0.97980060092E+02 -0.40332429246E+03  0.44950309051E+03  0.17200000000E+03 0.  1.
         -6    1    1    2    0  502 -0.14087274914E+02  0.97980060092E+02  0.69257953724E+03  0.72045052495E+03  0.17200000000E+03 0. -1.
</event>
<event>
 4    1  0.1249554E+000  0.1808026E+03  0.7818608E-02  0.1167029E+00
         21   -1    0    0  503  502  0.00000000000E+00  0.00000000000E+00  0.19419912745E+04  0.19419912745E+04  0.00000000000E+00 0.  1.
         21   -1    0    0  501  503 -0.00000000000E+00 -0.00000000000E+00 -0.31819939068E+02  0.31819939068E+02  0.00000000000E+00 0.  1.
          6    1    1    2  501    0 -0.26974359575E+02 -0.48764435742E+02  0.27778412703E+03  0.33144171056E+03  0.17200000000E+03 0.  1.
         -6    1    1    2    0  502  0.26974359575E+02  0.48764435742E+02  0.16323872084E+04  0.16423695030E+04  0.17200000000E+03 0.  1.
</event>
<event>
 4    1  0.1249554E+000  0.2998643E+03  0.7818608E-02  0.1085308E+00
         21   -1    0    0  503  502  0.00000000000E+00  0.00000000000E+00  0.46103192472E+02  0.46103192472E+02  0.00000000000E+00 0. -1.
         21   -1    0    0  501  503 -0.00000000000E+00 -0.00000000000E+00 -0.19569031660E+04  0.19569031660E+04  0.00000000000E+00 0. -1.
          6    1    1    2  501    0 -0.23776843447E+03  0.61650422404E+02 -0.89756388139E+03  0.94632950086E+03  0.17200000000E+03 0. -1.
         -6    1    1    2    0  502  0.23776843447E+03 -0.61650422404E+02 -0.10132360922E+04  0.10566768576E+04  0.17200000000E+03 0. -1.
</event>
<event>
 4    1  0.1249554E+000  0.2144651E+03  0.7818608E-02  0.1138078E+00
         21   -1    0    0  501  502  0.00000000000E+00  0.00000000000E+00  0.14947485623E+03  0.14947485623E+03  0.00000000000E+00 0. -1.
         21   -1    0    0  502  503 -0.00000000000E+00 -0.00000000000E+00 -0.59689879622E+03  0.59689879622E+03  0.00000000000E+00 0. -1.
          6    1    1    2  501    0  0.12804961787E+03 -0.38190477076E+01 -0.48346747893E+03  0.52890083470E+03  0.17200000000E+03 0. -1.
         -6    1    1    2    0  503 -0.12804961787E+03  0.38190477076E+01  0.36043538933E+02  0.21747281775E+03  0.17200000000E+03 0. -1.
</event>
<event>
 4    1  0.1249554E+000  0.2214969E+03  0.7818608E-02  0.1132772E+00
         21   -1    0    0  501  502  0.00000000000E+00  0.00000000000E+00  0.10899973856E+04  0.10899973856E+04  0.00000000000E+00 0.  1.
         21   -1    0    0  502  503 -0.00000000000E+00 -0.00000000000E+00 -0.45989288653E+02  0.45989288653E+02  0.00000000000E+00 0. -1.
          6    1    1    2  501    0  0.87637278323E+02  0.10861217191E+03  0.60488353300E+03  0.64416223495E+03  0.17200000000E+03 0. -1.
         -6    1    1    2    0  503 -0.87637278323E+02 -0.10861217191E+03  0.43912456396E+03  0.49182443932E+03  0.17200000000E+03 0. -1.
</event>
<event>
 4    1  0.1249554E+000  0.2237635E+03  0.7818608E-02  0.1131108E+00
         21   -1    0    0  501  502  0.00000000000E+00  0.00000000000E+00  0.22717915349E+03  0.22717915349E+03  0.00000000000E+00 0. -1.
         21   -1    0    0  502  503 -0.00000000000E+00 -0.00000000000E+00 -0.99978586151E+03  0.99978586151E+03  0.00000000000E+00 0. -1.
          6    1    1    2  501    0  0.12175812112E+03 -0.75239951505E+02  0.15535468037E+03  0.27240625374E+03  0.17200000000E+03 0. -1.
         -6    1    1    2    0  503 -0.12175812112E+03  0.75239951505E+02 -0.92796138839E+03  0.95455876126E+03  0.17200000000E+03 0. -1.
</event>
<event>
 4    1  0.1249554E+000  0.2438055E+03  0.7818608E-02  0.1117283E+00
         21   -1    0    0  501  502  0.00000000000E+00  0.00000000000E+00  0.21461730090E+03  0.21461730090E+03  0.00000000000E+00 0. -1.
         21   -1    0    0  502  503 -0.00000000000E+00 -0.00000000000E+00 -0.33025465889E+03  0.33025465889E+03  0.00000000000E+00 0. -1.
          6    1    1    2  501    0  0.21847065990E+02 -0.17140540300E+03  0.51619425650E+02  0.24921009525E+03  0.17200000000E+03 0. -1.
         -6    1    1    2    0  503 -0.21847065990E+02  0.17140540300E+03 -0.16725678364E+03  0.29566186454E+03  0.17200000000E+03 0. -1.
</event>
<event>
 4    1  0.1249554E+000  0.2144964E+03  0.7818608E-02  0.1138054E+00
         21   -1    0    0  501  502  0.00000000000E+00  0.00000000000E+00  0.26333930848E+03  0.26333930848E+03  0.00000000000E+00 0.  1.
         21   -1    0    0  502  503 -0.00000000000E+00 -0.00000000000E+00 -0.20901053142E+03  0.20901053142E+03  0.00000000000E+00 0. -1.
          6    1    1    2  501    0 -0.85890263604E+02 -0.95118646494E+02  0.12283613001E+03  0.24717890106E+03  0.17200000000E+03 0.  1.
         -6    1    1    2    0  503  0.85890263604E+02  0.95118646494E+02 -0.68507352946E+02  0.22517093885E+03  0.17200000000E+03 0. -1.
</event>
<event>
 4    1  0.1249554E+000  0.2108550E+03  0.7818608E-02  0.1140891E+00
         21   -1    0    0  503  502  0.00000000000E+00  0.00000000000E+00  0.17843181470E+03  0.17843181470E+03  0.00000000000E+00 0.  1.
         21   -1    0    0  501  503 -0.00000000000E+00 -0.00000000000E+00 -0.33995787339E+03  0.33995787339E+03  0.00000000000E+00 0. -1.
          6    1    1    2  501    0 -0.11799970724E+03  0.30853066558E+02 -0.21470845832E+03  0.30093116272E+03  0.17200000000E+03 0. -1.
         -6    1    1    2    0  502  0.11799970724E+03 -0.30853066558E+02  0.53182399623E+02  0.21745852536E+03  0.17200000000E+03 0.  1.
</event>
<event>
 4    1  0.1249554E+000  0.2235804E+03  0.7818608E-02  0.1131242E+00
         21   -1    0    0  501  502  0.00000000000E+00  0.00000000000E+00  0.81563472690E+03  0.81563472690E+03  0.00000000000E+00 0. -1.
         21   -1    0    0  502  503 -0.00000000000E+00 -0.00000000000E+00 -0.62627321516E+02  0.62627321516E+02  0.00000000000E+00 0. -1.
          6    1    1    2  501    0  0.18970199617E+02  0.14157792143E+03  0.44073445823E+03  0.49420141540E+03  0.17200000000E+03 0. -1.
         -6    1    1    2    0  503 -0.18970199617E+02 -0.14157792143E+03  0.31227294715E+03  0.38406063301E+03  0.17200000000E+03 0. -1.
</event>
<event>
 4    1  0.1249554E+000  0.2849883E+03  0.7818608E-02  0.1092995E+00
         21   -1    0    0  503  502  0.00000000000E+00  0.00000000000E+00  0.35621516310E+03  0.35621516310E+03  0.00000000000E+00 0. -1.
         21   -1    0    0  501  503 -0.00000000000E+00 -0.00000000000E+00 -0.46023941662E+03  0.46023941662E+03  0.00000000000E+00 0. -1.
          6    1    1    2  501    0 -0.22712220971E+03 -0.70578819530E+01 -0.34199663755E+03  0.44517413665E+03  0.17200000000E+03 0. -1.
         -6    1    1    2    0  502  0.22712220971E+03  0.70578819530E+01  0.23797238404E+03  0.37128044307E+03  0.17200000000E+03 0. -1.
</event>
<event>
 4    1  0.1249554E+000  0.1775216E+03  0.7818608E-02  0.1170223E+00
         21   -1    0    0  503  502  0.00000000000E+00  0.00000000000E+00  0.16816076575E+04  0.16816076575E+04  0.00000000000E+00 0.  1.
         21   -1    0    0  501  503 -0.00000000000E+00 -0.00000000000E+00 -0.18966575632E+02  0.18966575632E+02  0.00000000000E+00 0.  1.
          6    1    1    2  501    0 -0.37788743698E+02 -0.22403811397E+02  0.92418292762E+03  0.94107810707E+03  0.17200000000E+03 0.  1.
         -6    1    1    2    0  502  0.37788743698E+02  0.22403811397E+02  0.73845815420E+03  0.75949612601E+03  0.17200000000E+03 0.  1.
</event>
<event>
 4    1  0.1249554E+000  0.1808734E+03  0.7818608E-02  0.1166960E+00
         21   -1    0    0  503  502  0.00000000000E+00  0.00000000000E+00  0.27100974429E+03  0.27100974429E+03  0.00000000000E+00 0.  1.
         21   -1    0    0  501  503 -0.00000000000E+00 -0.00000000000E+00 -0.32049298650E+03  0.32049298650E+03  0.00000000000E+00 0.  1.
          6    1    1    2  501    0  0.12222871115E+02  0.54605645473E+02 -0.25824349562E+03  0.31528539155E+03  0.17200000000E+03 0.  1.
         -6    1    1    2    0  502 -0.12222871115E+02 -0.54605645473E+02  0.20876025340E+03  0.27621733924E+03  0.17200000000E+03 0.  1.
</event>
<event>
 4    1  0.1249554E+000  0.1812984E+03  0.7818608E-02  0.1166552E+00
         21   -1    0    0  503  502  0.00000000000E+00  0.00000000000E+00  0.19905812405E+03  0.19905812405E+03  0.00000000000E+00 0. -1.
         21   -1    0    0  501  503 -0.00000000000E+00 -0.00000000000E+00 -0.17947585578E+03  0.17947585578E+03  0.00000000000E+00 0. -1.
          6    1    1    2  501    0  0.57183038484E+02 -0.38997539027E+01  0.63313892135E+02  0.19203582194E+03  0.17200000000E+03 0. -1.
         -6    1    1    2    0  502 -0.57183038484E+02  0.38997539027E+01 -0.43731623870E+02  0.18649815789E+03  0.17200000000E+03 0. -1.
</event>
<event>
 4    1  0.1249554E+000  0.1870454E+03  0.7818608E-02  0.1161154E+00
         21   -1    0    0  503  502  0.00000000000E+00  0.00000000000E+00  0.41737041072E+03  0.41737041072E+03  0.00000000000E+00 0. -1.
         21   -1    0    0  501  503 -0.00000000000E+00 -0.00000000000E+00 -0.83926771791E+02  0.83926771791E+02  0.00000000000E+00 0. -1.
          6    1    1    2  501    0 -0.62971772122E+02 -0.37901539393E+02  0.17546076947E+03  0.25646140527E+03  0.17200000000E+03 0. -1.
         -6    1    1    2    0  502  0.62971772122E+02  0.37901539393E+02  0.15798286946E+03  0.24483577724E+03  0.17200000000E+03 0. -1.
</event>
<event>
 4    1  0.1249554E+000  0.2002023E+03  0.7818608E-02  0.1149568E+00
         21   -1    0    0  501  502  0.00000000000E+00  0.00000000000E+00  0.98824121228E+03  0.98824121228E+03  0.00000000000E+00 0. -1.
         21   -1    0    0  502  503 -0.00000000000E+00 -0.00000000000E+00 -0.40901726392E+02  0.40901726392E+02  0.00000000000E+00 0.  1.
          6    1    1    2  501    0 -0.19944061049E+02  0.10049475132E+03  0.52085020149E+03  0.55800169624E+03  0.17200000000E+03 0. -1.
         -6    1    1    2    0  503  0.19944061049E+02 -0.10049475132E+03  0.42648928439E+03  0.47114124243E+03  0.17200000000E+03 0. -1.
</event>
<event>
 4    1  0.1249554E+000  0.1893213E+03  0.7818608E-02  0.1159075E+00
         21   -1    0    0  503  502  0.00000000000E+00  0.00000000000E+00  0.11181001017E+04  0.11181001017E+04  0.00000000000E+00 0.  1.
         21   -1    0    0  501  503 -0.00000000000E+00 -0.00000000000E+00 -0.67632577231E+02  0.67632577231E+02  0.00000000000E+00 0.  1.
          6    1    1    2  501    0 -0.45806432938E+02  0.64500448123E+02  0.95245129483E+02  0.21192963879E+03  0.17200000000E+03 0.  1.
         -6    1    1    2    0  502  0.45806432938E+02 -0.64500448123E+02  0.95522239496E+03  0.97380304011E+03  0.17200000000E+03 0.  1.
</event>
<event>
 4    1  0.1249554E+000  0.2052405E+03  0.7818608E-02  0.1145391E+00
         21   -1    0    0  503  502  0.00000000000E+00  0.00000000000E+00  0.84747541998E+02  0.84747541998E+02  0.00000000000E+00 0.  1.
         21   -1    0    0  501  503 -0.00000000000E+00 -0.00000000000E+00 -0.58468689338E+03  0.58468689338E+03  0.00000000000E+00 0.  1.
          6    1    1    2  501    0  0.62401685673E+02  0.92982238808E+02 -0.37955706618E+03  0.43149418721E+03  0.17200000000E+03 0.  1.
         -6    1    1    2    0  502 -0.62401685673E+02 -0.92982238808E+02 -0.12038228520E+03  0.23794024817E+03  0.17200000000E+03 0.  1.
</event>
<event>
 4    1  0.1249554E+000  0.2070156E+03  0.7818608E-02  0.1143951E+00
         21   -1    0    0  503  502  0.00000000000E+00  0.00000000000E+00  0.94954383474E+03  0.94954383474E+03  0.00000000000E+00 0. -1.
         21   -1    0    0  501  503 -0.00000000000E+00 -0.00000000000E+00 -0.83500636443E+02  0.83500636443E+02  0.00000000000E+00 0. -1.
          6    1    1    2  501    0  0.11173055833E+03  0.28066786514E+02  0.78315088565E+03  0.81004985765E+03  0.17200000000E+03 0. -1.
         -6    1    1    2    0  502 -0.11173055833E+03 -0.28066786514E+02  0.82892312638E+02  0.22299461353E+03  0.17200000000E+03 0. -1.
</event>
<event>
 4    1  0.1249554E+000  0.2202771E+03  0.7818608E-02  0.1133677E+00
         21   -1    0    0  501  502  0.00000000000E+00  0.00000000000E+00  0.35493008643E+03  0.35493008643E+03  0.00000000000E+00 0. -1.
         21   -1    0    0  502  503 -0.00000000000E+00 -0.00000000000E+00 -0.16003422171E+03  0.16003422171E+03  0.00000000000E+00 0. -1.
          6    1    1    2  501    0 -0.70792617504E+02  0.11801013253E+03 -0.85298177544E+00  0.22027871810E+03  0.17200000000E+03 0.  1.
         -6    1    1    2    0  503  0.70792617504E+02 -0.11801013253E+03  0.19574884649E+03  0.29468559003E+03  0.17200000000E+03 0.  1.
</event>
<event>
 4    1  0.1249554E+000  0.2516193E+03  0.7818608E-02  0.1112286E+00
         21   -1    0    0  503  502  0.00000000000E+00  0.00000000000E+00  0.64267669659E+02  0.64267669659E+02  0.00000000000E+00 0. -1.
         21   -1    0    0  501  503 -0.00000000000E+00 -0.00000000000E+00 -0.98765709051E+03  0.98765709051E+03  0.00000000000E+00 0. -1.
          6    1    1    2  501    0 -0.16336668045E+03 -0.83902194810E+02 -0.48827987212E+03  0.54929908437E+03  0.17200000000E+03 0.  1.
         -6    1    1    2    0  502  0.16336668045E+03  0.83902194810E+02 -0.43510954873E+03  0.50262567580E+03  0.17200000000E+03 0.  1.
</event>
<event>
 4    1  0.1249554E+000  0.3182505E+03  0.7818608E-02  0.1076457E+00
         21   -1    0    0  501  502  0.00000000000E+00  0.00000000000E+00  0.89967834432E+02  0.89967834432E+02  0.00000000000E+00 0.  1.
         21   -1    0    0  502  503 -0.00000000000E+00 -0.00000000000E+00 -0.13847769831E+04  0.13847769831E+04  0.00000000000E+00 0.  1.
          6    1    1    2  501    0  0.52306922294E+02  0.26260877964E+03 -0.32850793657E+03  0.45738479386E+03  0.17200000000E+03 0. -1.
         -6    1    1    2    0  503 -0.52306922294E+02 -0.26260877964E+03 -0.96630121209E+03  0.10173600237E+04  0.17200000000E+03 0. -1.
</event>
<event>
 4    1  0.1249554E+000  0.2087984E+03  0.7818608E-02  0.1142521E+00
         21   -1    0    0  501  502  0.00000000000E+00  0.00000000000E+00  0.58547630492E+03  0.58547630492E+03  0.00000000000E+00 0. -1.
         21   -1    0    0  502  503 -0.00000000000E+00 -0.00000000000E+00 -0.75045335318E+02  0.75045335318E+02  0.00000000000E+00 0. -1.
          6    1    1    2  501    0  0.11502653859E+03 -0.27958262974E+02  0.22614201163E+03  0.30779372715E+03  0.17200000000E+03 0. -1.
         -6    1    1    2    0  503 -0.11502653859E+03  0.27958262974E+02  0.28428895797E+03  0.35272791309E+03  0.17200000000E+03 0. -1.
</event>
<event>
 4    1  0.1249554E+000  0.1866568E+03  0.7818608E-02  0.1161512E+00
         21   -1    0    0  501  502  0.00000000000E+00  0.00000000000E+00  0.29652419661E+03  0.29652419661E+03  0.00000000000E+00 0. -1.
         21   -1    0    0  502  503 -0.00000000000E+00 -0.00000000000E+00 -0.12491526910E+03  0.12491526910E+03  0.00000000000E+00 0. -1.
          6    1    1    2  501    0  0.13336561995E+02  0.71266401258E+02  0.13715473968E+03  0.23162941620E+03  0.17200000000E+03 0.  1.
         -6    1    1    2    0  503 -0.13336561995E+02 -0.71266401258E+02  0.34454187842E+02  0.18981004951E+03  0.17200000000E+03 0.  1.
</event>
<event>
 4    1  0.1249554E+000  0.3736090E+03  0.7818608E-02  0.1053322E+00
         21   -1    0    0  503  502  0.00000000000E+00  0.00000000000E+00  0.28249768721E+03  0.28249768721E+03  0.00000000000E+00 0. -1.
         21   -1    0    0  501  503 -0.00000000000E+00 -0.00000000000E+00 -0.71535080472E+03  0.71535080472E+03  0.00000000000E+00 0.  1.
          6    1    1    2  501    0 -0.49922260777E+02  0.32788324641E+03 -0.49389406150E+03  0.61928587856E+03  0.17200000000E+03 0. -1.
         -6    1    1    2    0  502  0.49922260777E+02 -0.32788324641E+03  0.61040943987E+02  0.37856261337E+03  0.17200000000E+03 0. -1.
</event>
<event>
 4    1  0.1249554E+000  0.2021979E+03  0.7818608E-02  0.1147898E+00
         21   -1    0    0  503  502  0.00000000000E+00  0.00000000000E+00  0.14784441566E+04  0.14784441566E+04  0.00000000000E+00 0.  1.
         21   -1    0    0  501  503 -0.00000000000E+00 -0.00000000000E+00 -0.31923980232E+02  0.31923980232E+02  0.00000000000E+00 0. -1.
          6    1    1    2  501    0  0.81111095812E+02 -0.68709452239E+02  0.44705094335E+03  0.49065114353E+03  0.17200000000E+03 0. -1.
         -6    1    1    2    0  502 -0.81111095812E+02  0.68709452239E+02  0.99946923298E+03  0.10197169933E+04  0.17200000000E+03 0.  1.
</event>
<event>
 4    1  0.1249554E+000  0.3601466E+03  0.7818608E-02  0.1058526E+00
         21   -1    0    0  501  502  0.00000000000E+00  0.00000000000E+00  0.18953724429E+04  0.18953724429E+04  0.00000000000E+00 0. -1.
         21   -1    0    0  502  503 -0.00000000000E+00 -0.00000000000E+00 -0.99892767695E+02  0.99892767695E+02  0.00000000000E+00 0.  1.
          6    1    1    2  501    0  0.33976592989E+02  0.31459050372E+03  0.14576043338E+04  0.15014379734E+04  0.17200000000E+03 0. -1.
         -6    1    1    2    0  503 -0.33976592989E+02 -0.31459050372E+03  0.33787534136E+03  0.49382723720E+03  0.17200000000E+03 0.  1.
</event>
<event>
 4    1  0.1249554E+000  0.3027011E+03  0.7818608E-02  0.1083898E+00
         21   -1    0    0  501  502  0.00000000000E+00  0.00000000000E+00  0.32862872405E+03  0.32862872405E+03  0.00000000000E+00 0.  1.
         21   -1    0    0  502  503 -0.00000000000E+00 -0.00000000000E+00 -0.32409000723E+03  0.32409000723E+03  0.00000000000E+00 0. -1.
          6    1    1    2  501    0  0.20802079989E+03  0.13700832946E+03  0.12424505028E+03  0.32720753055E+03  0.17200000000E+03 0.  1.
         -6    1    1    2    0  503 -0.20802079989E+03 -0.13700832946E+03 -0.11970633347E+03  0.32551120073E+03  0.17200000000E+03 0.  1.
</event>
<event>
 4    1  0.1249554E+000  0.4146135E+03  0.7818608E-02  0.1038834E+00
         21   -1    0    0  501  502  0.00000000000E+00  0.00000000000E+00  0.15303371472E+03  0.15303371472E+03  0.00000000000E+00 0. -1.
         21   -1    0    0  502  503 -0.00000000000E+00 -0.00000000000E+00 -0.11233798845E+04  0.11233798845E+04  0.00000000000E+00 0.  1.
          6    1    1    2  501    0 -0.10427894497E+03  0.36255519993E+03 -0.48015570273E+03  0.63439252063E+03  0.17200000000E+03 0.  1.
         -6    1    1    2    0  503  0.10427894497E+03 -0.36255519993E+03 -0.49019046704E+03  0.64202107858E+03  0.17200000000E+03 0.  1.
</event>
<event>
 4    1  0.1249554E+000  0.2206381E+03  0.7818608E-02  0.1133408E+00
         21   -1    0    0  503  502  0.00000000000E+00  0.00000000000E+00  0.68254691638E+02  0.68254691638E+02  0.00000000000E+00 0.  1.
         21   -1    0    0  501  503 -0.00000000000E+00 -0.00000000000E+00 -0.72146210812E+03  0.72146210812E+03  0.00000000000E+00 0. -1.
          6    1    1    2  501    0 -0.91611968329E+02 -0.10346213842E+03 -0.36878687543E+03  0.42974984155E+03  0.17200000000E+03 0.  1.
         -6    1    1    2    0  502  0.91611968329E+02  0.10346213842E+03 -0.28442054106E+03  0.35996695821E+03  0.17200000000E+03 0.  1.
</event>
<event>
 4    1  0.1249554E+000  0.2048574E+03  0.7818608E-02  0.1145704E+00
         21   -1    0    0  501  502  0.00000000000E+00  0.00000000000E+00  0.67154037533E+03  0.67154037533E+03  0.00000000000E+00 0.  1.
         21   -1    0    0  502  503 -0.00000000000E+00 -0.00000000000E+00 -0.63370178196E+02  0.63370178196E+02  0.00000000000E+00 0.  1.
          6    1    1    2  501    0 -0.11033576192E+03  0.14441896271E+02  0.34731803817E+03  0.40323239995E+03  0.17200000000E+03 0.  1.
         -6    1    1    2    0  503  0.11033576192E+03 -0.14441896271E+02  0.26085215896E+03  0.33167815358E+03  0.17200000000E+03 0.  1.
</event>
<event>
 4    1  0.1249554E+000  0.2957246E+03  0.7818608E-02  0.1087398E+00
         21   -1    0    0  503  502  0.00000000000E+00  0.00000000000E+00  0.67251747906E+02  0.67251747906E+02  0.00000000000E+00 0.  1.
         21   -1    0    0  501  503 -0.00000000000E+00 -0.00000000000E+00 -0.13083164014E+04  0.13083164014E+04  0.00000000000E+00 0. -1.
          6    1    1    2  501    0  0.18143127541E+03 -0.15796108906E+03 -0.56697337247E+03  0.63946213214E+03  0.17200000000E+03 0. -1.
         -6    1    1    2    0  502 -0.18143127541E+03  0.15796108906E+03 -0.67409128107E+03  0.73610601720E+03  0.17200000000E+03 0. -1.
</event>
<event>
 4    1  0.1249554E+000  0.1897839E+03  0.7818608E-02  0.1158656E+00
         21   -1    0    0  501  502  0.00000000000E+00  0.00000000000E+00  0.23954533682E+03  0.23954533682E+03  0.00000000000E+00 0.  1.
         21   -1    0    0  502  503 -0.00000000000E+00 -0.00000000000E+00 -0.15165235967E+03  0.15165235967E+03  0.00000000000E+00 0.  1.
          6    1    1    2  501    0  0.22907703160E+02  0.76871220859E+02  0.62005588163E+02  0.19965630575E+03  0.17200000000E+03 0.  1.
         -6    1    1    2    0  503 -0.22907703160E+02 -0.76871220859E+02  0.25887388979E+02  0.19154139075E+03  0.17200000000E+03 0.  1.
</event>
<event>
 4    1  0.1249554E+000  0.2822187E+03  0.7818608E-02  0.1094483E+00
         21   -1    0    0  501  502  0.00000000000E+00  0.00000000000E+00  0.94874055241E+03  0.94874055241E+03  0.00000000000E+00 0. -1.
         21   -1    0    0  502  503 -0.00000000000E+00 -0.00000000000E+00 -0.91122772539E+02  0.91122772539E+02  0.00000000000E+00 0.  1.
          6    1    1    2  501    0 -0.10763153042E+03 -0.19616024133E+03  0.57467575039E+03  0.64023402339E+03  0.17200000000E+03 0.  1.
         -6    1    1    2    0  503  0.10763153042E+03  0.19616024133E+03  0.28294202948E+03  0.39962930156E+03  0.17200000000E+03 0.  1.
</event>
<event>
 4    1  0.1249554E+000  0.1739361E+03  0.7818608E-02  0.1173804E+00
         21   -1    0    0  501  502  0.00000000000E+00  0.00000000000E+00  0.25225374161E+03  0.25225374161E+03  0.00000000000E+00 0. -1.
         21   -1    0    0  502  503 -0.00000000000E+00 -0.00000000000E+00 -0.12238414261E+03  0.12238414261E+03  0.00000000000E+00 0. -1.
          6    1    1    2  501    0 -0.20423170502E+02 -0.15895586076E+02  0.38430063715E+02  0.17813097807E+03  0.17200000000E+03 0. -1.
         -6    1    1    2    0  503  0.20423170502E+02  0.15895586076E+02  0.91439535286E+02  0.19650690615E+03  0.17200000000E+03 0. -1.
</event>
<event>
 4    1  0.1249554E+000  0.1982877E+03  0.7818608E-02  0.1151192E+00
         21   -1    0    0  503  502  0.00000000000E+00  0.00000000000E+00  0.68857376132E+02  0.68857376132E+02  0.00000000000E+00 0.  1.
         21   -1    0    0  501  503 -0.00000000000E+00 -0.00000000000E+00 -0.65972560037E+03  0.65972560037E+03  0.00000000000E+00 0. -1.
          6    1    1    2  501    0  0.85522935776E-01  0.98660982094E+02 -0.42902485642E+03  0.47263127713E+03  0.17200000000E+03 0.  1.
         -6    1    1    2    0  502 -0.85522935776E-01 -0.98660982094E+02 -0.16184336782E+03  0.25595169937E+03  0.17200000000E+03 0.  1.
</event>
<event>
 4    1  0.1249554E+000  0.1784291E+03  0.7818608E-02  0.1169332E+00
         21   -1    0    0  503  502  0.00000000000E+00  0.00000000000E+00  0.11868918563E+03  0.11868918563E+03  0.00000000000E+00 0. -1.
         21   -1    0    0  501  503 -0.00000000000E+00 -0.00000000000E+00 -0.26884341653E+03  0.26884341653E+03  0.00000000000E+00 0. -1.
          6    1    1    2  501    0  0.45569797086E+02 -0.13279236973E+02 -0.65881696890E+02  0.19020342407E+03  0.17200000000E+03 0. -1.
         -6    1    1    2    0  502 -0.45569797086E+02  0.13279236973E+02 -0.84272534008E+02  0.19732917810E+03  0.17200000000E+03 0. -1.
</event>
<event>
 4    1  0.1249554E+000  0.1798774E+03  0.7818608E-02  0.1167922E+00
         21   -1    0    0  501  502  0.00000000000E+00  0.00000000000E+00  0.61284889129E+03  0.61284889129E+03  0.00000000000E+00 0. -1.
         21   -1    0    0  502  503 -0.00000000000E+00 -0.00000000000E+00 -0.57649289285E+02  0.57649289285E+02  0.00000000000E+00 0. -1.
          6    1    1    2  501    0 -0.35802410379E+02  0.38601351948E+02  0.18032608304E+03  0.25470251900E+03  0.17200000000E+03 0. -1.
         -6    1    1    2    0  503  0.35802410379E+02 -0.38601351948E+02  0.37487351896E+03  0.41579566157E+03  0.17200000000E+03 0. -1.
</event>
<event>
 4    1  0.1249554E+000  0.2341502E+03  0.7818608E-02  0.1123752E+00
         21   -1    0    0  503  502  0.00000000000E+00  0.00000000000E+00  0.58171375286E+02  0.58171375286E+02  0.00000000000E+00 0.  1.
         21   -1    0    0  501  503 -0.00000000000E+00 -0.00000000000E+00 -0.10038324936E+04  0.10038324936E+04  0.00000000000E+00 0.  1.
          6    1    1    2  501    0  0.44470147797E+02 -0.15252771197E+03 -0.34157296574E+03  0.41412363841E+03  0.17200000000E+03 0.  1.
         -6    1    1    2    0  502 -0.44470147797E+02  0.15252771197E+03 -0.60408815260E+03  0.64788023050E+03  0.17200000000E+03 0.  1.
</event>
<event>
 4    1  0.1249554E+000  0.1819817E+03  0.7818608E-02  0.1165899E+00
         21   -1    0    0  503  502  0.00000000000E+00  0.00000000000E+00  0.69932969878E+02  0.69932969878E+02  0.00000000000E+00 0.  1.
         21   -1    0    0  501  503 -0.00000000000E+00 -0.00000000000E+00 -0.47594314513E+03  0.47594314513E+03  0.00000000000E+00 0.  1.
          6    1    1    2  501    0  0.45150515902E+02  0.38662200408E+02 -0.18368446094E+03  0.25856781705E+03  0.17200000000E+03 0.  1.
         -6    1    1    2    0  502 -0.45150515902E+02 -0.38662200408E+02 -0.22232571431E+03  0.28730829795E+03  0.17200000000E+03 0.  1.
</event>
<event>
 4    1  0.1249554E+000  0.2115628E+03  0.7818608E-02  0.1140334E+00
         21   -1    0    0  501  502  0.00000000000E+00  0.00000000000E+00  0.11514187417E+04  0.11514187417E+04  0.00000000000E+00 0. -1.
         21   -1    0    0  502  503 -0.00000000000E+00 -0.00000000000E+00 -0.60126639769E+02  0.60126639769E+02  0.00000000000E+00 0.  1.
          6    1    1    2  501    0  0.82006895002E+02 -0.91922219859E+02  0.90580592478E+03  0.93018449713E+03  0.17200000000E+03 0. -1.
         -6    1    1    2    0  503 -0.82006895002E+02  0.91922219859E+02  0.18548617720E+03  0.28136088439E+03  0.17200000000E+03 0.  1.
</event>
<event>
 4    1  0.1249554E+000  0.1983852E+03  0.7818608E-02  0.1151109E+00
         21   -1    0    0  503  502  0.00000000000E+00  0.00000000000E+00  0.75050270054E+03  0.75050270054E+03  0.00000000000E+00 0. -1.
         21   -1    0    0  501  503 -0.00000000000E+00 -0.00000000000E+00 -0.34318110855E+03  0.34318110855E+03  0.00000000000E+00 0. -1.
          6    1    1    2  501    0 -0.72564282532E+02 -0.67134885688E+02 -0.29966943636E+03  0.35938619766E+03  0.17200000000E+03 0. -1.
         -6    1    1    2    0  502  0.72564282532E+02  0.67134885688E+02  0.70699102836E+03  0.73429761143E+03  0.17200000000E+03 0. -1.
</event>
<event>
 4    1  0.1249554E+000  0.1978064E+03  0.7818608E-02  0.1151603E+00
         21   -1    0    0  501  502  0.00000000000E+00  0.00000000000E+00  0.13561178127E+03  0.13561178127E+03  0.00000000000E+00 0. -1.
         21   -1    0    0  502  503 -0.00000000000E+00 -0.00000000000E+00 -0.31997310453E+03  0.31997310453E+03  0.00000000000E+00 0. -1.
          6    1    1    2  501    0  0.11507463154E+02  0.97010017679E+02 -0.16359427885E+03  0.25669135808E+03  0.17200000000E+03 0. -1.
         -6    1    1    2    0  503 -0.11507463154E+02 -0.97010017679E+02 -0.20767044403E+02  0.19889352773E+03  0.17200000000E+03 0. -1.
</event>
<event>
 4    1  0.1249554E+000  0.1885105E+03  0.7818608E-02  0.1159812E+00
         21   -1    0    0  501  502  0.00000000000E+00  0.00000000000E+00  0.13535933952E+03  0.13535933952E+03  0.00000000000E+00 0.  1.
         21   -1    0    0  502  503 -0.00000000000E+00 -0.00000000000E+00 -0.27218652470E+03  0.27218652470E+03  0.00000000000E+00 0.  1.
          6    1    1    2  501    0  0.58963025950E+02 -0.49755189809E+02 -0.30036789573E+02  0.19088851739E+03  0.17200000000E+03 0. -1.
         -6    1    1    2    0  503 -0.58963025950E+02  0.49755189809E+02 -0.10679039560E+03  0.21665734683E+03  0.17200000000E+03 0. -1.
</event>
<event>
 4    1  0.1249554E+000  0.1958214E+03  0.7818608E-02  0.1153313E+00
         21   -1    0    0  503  502  0.00000000000E+00  0.00000000000E+00  0.16052924622E+03  0.16052924622E+03  0.00000000000E+00 0. -1.
         21   -1    0    0  501  503 -0.00000000000E+00 -0.00000000000E+00 -0.49829823500E+03  0.49829823500E+03  0.00000000000E+00 0.  1.
          6    1    1    2  501    0 -0.70008805430E+02  0.62135358647E+02 -0.40657043581E+03  0.45127104373E+03  0.17200000000E+03 0.  1.
         -6    1    1    2    0  502  0.70008805430E+02 -0.62135358647E+02  0.68801447023E+02  0.20755643749E+03  0.17200000000E+03 0. -1.
</event>
<event>
 4    1  0.1249554E+000  0.2640812E+03  0.7818608E-02  0.1104716E+00
         21   -1    0    0  501  502  0.00000000000E+00  0.00000000000E+00  0.15808778657E+03  0.15808778657E+03  0.00000000000E+00 0. -1.
         21   -1    0    0  502  503 -0.00000000000E+00 -0.00000000000E+00 -0.45033043575E+03  0.45033043575E+03  0.00000000000E+00 0. -1.
          6    1    1    2  501    0  0.19361012974E+03 -0.51672124965E+02 -0.18957914517E+03  0.32508328643E+03  0.17200000000E+03 0. -1.
         -6    1    1    2    0  503 -0.19361012974E+03  0.51672124965E+02 -0.10266350402E+03  0.28333493588E+03  0.17200000000E+03 0. -1.
</event>
<event>
 4    1  0.1249554E+000  0.1752794E+03  0.7818608E-02  0.1172451E+00
         21   -1    0    0  503  502  0.00000000000E+00  0.00000000000E+00  0.94521525840E+03  0.94521525840E+03  0.00000000000E+00 0.  1.
         21   -1    0    0  501  503 -0.00000000000E+00 -0.00000000000E+00 -0.50829860282E+02  0.50829860282E+02  0.00000000000E+00 0.  1.
          6    1    1    2  501    0  0.26283017144E+02 -0.21167887329E+02  0.14815443585E+03  0.22950514876E+03  0.17200000000E+03 0.  1.
         -6    1    1    2    0  502 -0.26283017144E+02  0.21167887329E+02  0.74623096227E+03  0.76653996993E+03  0.17200000000E+03 0.  1.
</event>
<event>
 4    1  0.1249554E+000  0.2157077E+03  0.7818608E-02  0.1137124E+00
         21   -1    0    0  503  502  0.00000000000E+00  0.00000000000E+00  0.18626366414E+03  0.18626366414E+03  0.00000000000E+00 0.  1.
         21   -1    0    0  501  503 -0.00000000000E+00 -0.00000000000E+00 -0.46320528687E+03  0.46320528687E+03  0.00000000000E+00 0.  1.
          6    1    1    2  501    0 -0.46155233963E+02  0.12171902876E+03 -0.35888414900E+03  0.41872145872E+03  0.17200000000E+03 0.  1.
         -6    1    1    2    0  502  0.46155233963E+02 -0.12171902876E+03  0.81942526276E+02  0.23074749229E+03  0.17200000000E+03 0.  1.
</event>
<event>
 4    1  0.1249554E+000  0.2778510E+03  0.7818608E-02  0.1096869E+00
         21   -1    0    0  501  502  0.00000000000E+00  0.00000000000E+00  0.66691277031E+02  0.66691277031E+02  0.00000000000E+00 0.  1.
         21   -1    0    0  502  503 -0.00000000000E+00 -0.00000000000E+00 -0.11626458703E+04  0.11626458703E+04  0.00000000000E+00 0. -1.
          6    1    1    2  501    0 -0.20523953723E+03  0.74120880695E+02 -0.50744472513E+03  0.57853376881E+03  0.17200000000E+03 0. -1.
         -6    1    1    2    0  503  0.20523953723E+03 -0.74120880695E+02 -0.58850986818E+03  0.65080337855E+03  0.17200000000E+03 0. -1.
</event>
<event>
 4    1  0.1249554E+000  0.2058731E+03  0.7818608E-02  0.1144876E+00
         21   -1    0    0  503  502  0.00000000000E+00  0.00000000000E+00  0.48538194138E+03  0.48538194138E+03  0.00000000000E+00 0. -1.
         21   -1    0    0  501  503 -0.00000000000E+00 -0.00000000000E+00 -0.11049632604E+03  0.11049632604E+03  0.00000000000E+00 0. -1.
          6    1    1    2  501    0 -0.14673229907E+02  0.11218039150E+03  0.50993226787E+02  0.21209444380E+03  0.17200000000E+03 0. -1.
         -6    1    1    2    0  502  0.14673229907E+02 -0.11218039150E+03  0.32389238855E+03  0.38378382362E+03  0.17200000000E+03 0. -1.
</event>
<event>
 4    1  0.1249554E+000  0.1909638E+03  0.7818608E-02  0.1157595E+00
         21   -1    0    0  503  502  0.00000000000E+00  0.00000000000E+00  0.70256120587E+02  0.70256120587E+02  0.00000000000E+00 0. -1.
         21   -1    0    0  501  503 -0.00000000000E+00 -0.00000000000E+00 -0.69715249257E+03  0.69715249257E+03  0.00000000000E+00 0. -1.
          6    1    1    2  501    0  0.68820356557E+02 -0.46334810829E+02 -0.11951356724E+03  0.22527904679E+03  0.17200000000E+03 0. -1.
         -6    1    1    2    0  502 -0.68820356557E+02  0.46334810829E+02 -0.50738280475E+03  0.54212956636E+03  0.17200000000E+03 0. -1.
</event>
<event>
 4    1  0.1249554E+000  0.3398830E+03  0.7818608E-02  0.1066846E+00
         21   -1    0    0  501  502  0.00000000000E+00  0.00000000000E+00  0.60436511597E+02  0.60436511597E+02  0.00000000000E+00 0. -1.
         21   -1    0    0  502  503 -0.00000000000E+00 -0.00000000000E+00 -0.20354842522E+04  0.20354842522E+04  0.00000000000E+00 0.  1.
          6    1    1    2  501    0  0.68690478245E+02 -0.28498790258E+03 -0.12462304081E+04  0.12917471565E+04  0.17200000000E+03 0.  1.
         -6    1    1    2    0  503 -0.68690478245E+02  0.28498790258E+03 -0.72881733257E+03  0.80417360730E+03  0.17200000000E+03 0.  1.
</event>
<event>
 4    1  0.1249554E+000  0.2032152E+03  0.7818608E-02  0.1147054E+00
         21   -1    0    0  501  502  0.00000000000E+00  0.00000000000E+00  0.23230888759E+03  0.23230888759E+03  0.00000000000E+00 0.  1.
         21   -1    0    0  502  503 -0.00000000000E+00 -0.00000000000E+00 -0.23338790785E+03  0.23338790785E+03  0.00000000000E+00 0.  1.
          6    1    1    2  501    0  0.97753699194E+02  0.46439415211E+02 -0.11421338412E+03  0.23311178028E+03  0.17200000000E+03 0.  1.
         -6    1    1    2    0  503 -0.97753699194E+02 -0.46439415211E+02  0.11313436386E+03  0.23258501516E+03  0.17200000000E+03 0.  1.
</event>
<event>
 4    1  0.1249554E+000  0.2952529E+03  0.7818608E-02  0.1087638E+00
         21   -1    0    0  501  502  0.00000000000E+00  0.00000000000E+00  0.93076423037E+02  0.93076423037E+02  0.00000000000E+00 0. -1.
         21   -1    0    0  502  503 -0.00000000000E+00 -0.00000000000E+00 -0.15744538499E+04  0.15744538499E+04  0.00000000000E+00 0. -1.
          6    1    1    2  501    0 -0.61832442098E+02  0.23187718702E+03 -0.20999570407E+03  0.36231543782E+03  0.17200000000E+03 0.  1.
         -6    1    1    2    0  503  0.61832442098E+02 -0.23187718702E+03 -0.12713817228E+04  0.13052148351E+04  0.17200000000E+03 0.  1.
</event>
<event>
 4    1  0.1249554E+000  0.2402579E+03  0.7818608E-02  0.1119621E+00
         21   -1    0    0  503  502  0.00000000000E+00  0.00000000000E+00  0.50458510241E+03  0.50458510241E+03  0.00000000000E+00 0.  1.
         21   -1    0    0  501  503 -0.00000000000E+00 -0.00000000000E+00 -0.18492527016E+03  0.18492527016E+03  0.00000000000E+00 0.  1.
          6    1    1    2  501    0 -0.16119920506E+03  0.46418411593E+02 -0.53076732885E+02  0.24605079196E+03  0.17200000000E+03 0. -1.
         -6    1    1    2    0  502  0.16119920506E+03 -0.46418411593E+02  0.37273656514E+03  0.44345958062E+03  0.17200000000E+03 0. -1.
</event>
<event>
 4    1  0.1249554E+000  0.2256989E+03  0.7818608E-02  0.1129704E+00
         21   -1    0    0  501  502  0.00000000000E+00  0.00000000000E+00  0.81600937090E+03  0.81600937090E+03  0.00000000000E+00 0. -1.
         21   -1    0    0  502  503 -0.00000000000E+00 -0.00000000000E+00 -0.66344441077E+02  0.66344441077E+02  0.00000000000E+00 0. -1.
          6    1    1    2  501    0 -0.48859985934E+02  0.13772683340E+03  0.26761087434E+03  0.35007936090E+03  0.17200000000E+03 0. -1.
         -6    1    1    2    0  503  0.48859985934E+02 -0.13772683340E+03  0.48205405549E+03  0.53227445108E+03  0.17200000000E+03 0. -1.
</event>
<event>
 4    1  0.1249554E+000  0.2197409E+03  0.7818608E-02  0.1134076E+00
         21   -1    0    0  501  502  0.00000000000E+00  0.00000000000E+00  0.24881276304E+03  0.24881276304E+03  0.00000000000E+00 0. -1.
         21   -1    0    0  502  503 -0.00000000000E+00 -0.00000000000E+00 -0.20147594719E+03  0.20147594719E+03  0.00000000000E+00 0. -1.
          6    1    1    2  501    0  0.11143535761E+03 -0.79273041225E+02  0.66846371976E+02  0.22968345922E+03  0.17200000000E+03 0.  1.
         -6    1    1    2    0  503 -0.11143535761E+03  0.79273041225E+02 -0.19509556128E+02  0.22060525101E+03  0.17200000000E+03 0.  1.
</event>
<event>
 4    1  0.1249554E+000  0.2562391E+03  0.7818608E-02  0.1109424E+00
         21   -1    0    0  503  502  0.00000000000E+00  0.00000000000E+00  0.33334998052E+02  0.33334998052E+02  0.00000000000E+00 0.  1.
         21   -1    0    0  501  503 -0.00000000000E+00 -0.00000000000E+00 -0.21177872996E+04  0.21177872996E+04  0.00000000000E+00 0. -1.
          6    1    1    2  501    0  0.16361525472E+03  0.96459893688E+02 -0.13266840956E+04  0.13512028538E+04  0.17200000000E+03 0. -1.
         -6    1    1    2    0  502 -0.16361525472E+03 -0.96459893688E+02 -0.75776820594E+03  0.79991944382E+03  0.17200000000E+03 0.  1.
</event>
<event>
 4    1  0.1249554E+000  0.2575953E+03  0.7818608E-02  0.1108597E+00
         21   -1    0    0  503  502  0.00000000000E+00  0.00000000000E+00  0.17721093014E+04  0.17721093014E+04  0.00000000000E+00 0. -1.
         21   -1    0    0  501  503 -0.00000000000E+00 -0.00000000000E+00 -0.56467762467E+02  0.56467762467E+02  0.00000000000E+00 0.  1.
          6    1    1    2  501    0  0.15330506723E+03 -0.11519073500E+03  0.32714648341E+03  0.41638944592E+03  0.17200000000E+03 0.  1.
         -6    1    1    2    0  502 -0.15330506723E+03  0.11519073500E+03  0.13884950555E+04  0.14121876179E+04  0.17200000000E+03 0. -1.
</event>
<event>
 4    1  0.1249554E+000  0.1844110E+03  0.7818608E-02  0.1163601E+00
         21   -1    0    0  501  502  0.00000000000E+00  0.00000000000E+00  0.23545768003E+03  0.23545768003E+03  0.00000000000E+00 0.  1.
         21   -1    0    0  502  503 -0.00000000000E+00 -0.00000000000E+00 -0.15080406303E+03  0.15080406303E+03  0.00000000000E+00 0.  1.
          6    1    1    2  501    0 -0.47938801243E+01  0.66335884945E+02  0.82028874027E+02  0.20183202692E+03  0.17200000000E+03 0. -1.
         -6    1    1    2    0  503  0.47938801243E+01 -0.66335884945E+02  0.26247429654E+01  0.18442971614E+03  0.17200000000E+03 0. -1.
</event>
<event>
 4    1  0.1249554E+000  0.1968325E+03  0.7818608E-02  0.1152439E+00
         21   -1    0    0  503  502  0.00000000000E+00  0.00000000000E+00  0.26826699673E+03  0.26826699673E+03  0.00000000000E+00 0. -1.
         21   -1    0    0  501  503 -0.00000000000E+00 -0.00000000000E+00 -0.21597385862E+03  0.21597385862E+03  0.00000000000E+00 0. -1.
          6    1    1    2  501    0  0.64997654108E+02 -0.70244869891E+02 -0.11321669371E+03  0.22707059810E+03  0.17200000000E+03 0. -1.
         -6    1    1    2    0  502 -0.64997654108E+02  0.70244869891E+02  0.16550983182E+03  0.25717025725E+03  0.17200000000E+03 0. -1.
</event>
<event>
 4    1  0.1249554E+000  0.1746597E+03  0.7818608E-02  0.1173074E+00
         21   -1    0    0  501  502  0.00000000000E+00  0.00000000000E+00  0.10992081767E+03  0.10992081767E+03  0.00000000000E+00 0. -1.
         21   -1    0    0  502  503 -0.00000000000E+00 -0.00000000000E+00 -0.28855554311E+03  0.28855554311E+03  0.00000000000E+00 0. -1.
          6    1    1    2  501    0  0.55754044355E+01 -0.29848187530E+02 -0.50366588707E+02  0.18177676609E+03  0.17200000000E+03 0. -1.
         -6    1    1    2    0  503 -0.55754044355E+01  0.29848187530E+02 -0.12826813673E+03  0.21669959468E+03  0.17200000000E+03 0. -1.
</event>
<event>
 4    1  0.1249554E+000  0.1915805E+03  0.7818608E-02  0.1157043E+00
         21   -1    0    0  501  502  0.00000000000E+00  0.00000000000E+00  0.56816805033E+02  0.56816805033E+02  0.00000000000E+00 0.  1.
         21   -1    0    0  502  503 -0.00000000000E+00 -0.00000000000E+00 -0.11663024833E+04  0.11663024833E+04  0.00000000000E+00 0.  1.
          6    1    1    2  501    0  0.34625301102E+02  0.76942729970E+02 -0.14626802072E+03  0.24103408277E+03  0.17200000000E+03 0.  1.
         -6    1    1    2    0  503 -0.34625301102E+02 -0.76942729970E+02 -0.96321765756E+03  0.98208520557E+03  0.17200000000E+03 0.  1.
</event>
<event>
 4    1  0.1249554E+000  0.1768934E+03  0.7818608E-02  0.1170844E+00
         21   -1    0    0  503  502  0.00000000000E+00  0.00000000000E+00  0.26243907310E+03  0.26243907310E+03  0.00000000000E+00 0.  1.
         21   -1    0    0  501  503 -0.00000000000E+00 -0.00000000000E+00 -0.70010006206E+03  0.70010006206E+03  0.00000000000E+00 0.  1.
          6    1    1    2  501    0  0.41304029861E+02 -0.11191212684E+01 -0.65720661857E+03  0.68059666089E+03  0.17200000000E+03 0.  1.
         -6    1    1    2    0  502 -0.41304029861E+02  0.11191212684E+01  0.21954562962E+03  0.28194247427E+03  0.17200000000E+03 0.  1.
</event>
<event>
 4    1  0.1249554E+000  0.2773500E+03  0.7818608E-02  0.1097145E+00
         21   -1    0    0  501  502  0.00000000000E+00  0.00000000000E+00  0.14299296619E+03  0.14299296619E+03  0.00000000000E+00 0. -1.
         21   -1    0    0  502  503 -0.00000000000E+00 -0.00000000000E+00 -0.78505831817E+03  0.78505831817E+03  0.00000000000E+00 0.  1.
          6    1    1    2  501    0 -0.21545320263E+03  0.30314000796E+02 -0.60696225267E+02  0.28391381250E+03  0.17200000000E+03 0. -1.
         -6    1    1    2    0  503  0.21545320263E+03 -0.30314000796E+02 -0.58136912671E+03  0.64413747187E+03  0.17200000000E+03 0.  1.
</event>
<event>
 4    1  0.1249554E+000  0.1877723E+03  0.7818608E-02  0.1160486E+00
         21   -1    0    0  503  502  0.00000000000E+00  0.00000000000E+00  0.37351554179E+03  0.37351554179E+03  0.00000000000E+00 0.  1.
         21   -1    0    0  501  503 -0.00000000000E+00 -0.00000000000E+00 -0.24377654823E+03  0.24377654823E+03  0.00000000000E+00 0.  1.
          6    1    1    2  501    0  0.64494163749E+02 -0.38922230769E+02 -0.17673862519E+03  0.25786620337E+03  0.17200000000E+03 0.  1.
         -6    1    1    2    0  502 -0.64494163749E+02  0.38922230769E+02  0.30647761874E+03  0.35942588665E+03  0.17200000000E+03 0.  1.
</event>
<event>
 4    1  0.1249554E+000  0.1814118E+03  0.7818608E-02  0.1166444E+00
         21   -1    0    0  501  502  0.00000000000E+00  0.00000000000E+00  0.36018159763E+03  0.36018159763E+03  0.00000000000E+00 0. -1.
         21   -1    0    0  502  503 -0.00000000000E+00 -0.00000000000E+00 -0.18827513885E+03  0.18827513885E+03  0.00000000000E+00 0. -1.
          6    1    1    2  501    0 -0.12518889815E+02 -0.56298616224E+02  0.28269039362E+03  0.33589301189E+03  0.17200000000E+03 0.  1.
         -6    1    1    2    0  503  0.12518889815E+02  0.56298616224E+02 -0.11078393485E+03  0.21256372459E+03  0.17200000000E+03 0.  1.
</event>
<event>
 4    1  0.1249554E+000  0.1827297E+03  0.7818608E-02  0.1165187E+00
         21   -1    0    0  501  502  0.00000000000E+00  0.00000000000E+00  0.58178316127E+03  0.58178316127E+03  0.00000000000E+00 0.  1.
         21   -1    0    0  502  503 -0.00000000000E+00 -0.00000000000E+00 -0.59824987734E+02  0.59824987734E+02  0.00000000000E+00 0.  1.
          6    1    1    2  501    0 -0.50891815662E+02  0.34873586784E+02  0.32566359551E+03  0.37342592491E+03  0.17200000000E+03 0.  1.
         -6    1    1    2    0  503  0.50891815662E+02 -0.34873586784E+02  0.19629457803E+03  0.26818222409E+03  0.17200000000E+03 0.  1.
</event>
<event>
 4    1  0.1249554E+000  0.1876600E+03  0.7818608E-02  0.1160589E+00
         21   -1    0    0  501  502  0.00000000000E+00  0.00000000000E+00  0.10802678652E+04  0.10802678652E+04  0.00000000000E+00 0.  1.
         21   -1    0    0  502  503 -0.00000000000E+00 -0.00000000000E+00 -0.45309250728E+02  0.45309250728E+02  0.00000000000E+00 0.  1.
          6    1    1    2  501    0  0.15516581409E+02  0.73426798604E+02  0.81555000159E+03  0.83686203412E+03  0.17200000000E+03 0.  1.
         -6    1    1    2    0  503 -0.15516581409E+02 -0.73426798604E+02  0.21940861283E+03  0.28871508176E+03  0.17200000000E+03 0.  1.
</event>
<event>
 4    1  0.1249554E+000  0.1880949E+03  0.7818608E-02  0.1160191E+00
         21   -1    0    0  501  502  0.00000000000E+00  0.00000000000E+00  0.53942300245E+03  0.53942300245E+03  0.00000000000E+00 0. -1.
         21   -1    0    0  502  503 -0.00000000000E+00 -0.00000000000E+00 -0.16924015923E+03  0.16924015923E+03  0.00000000000E+00 0. -1.
          6    1    1    2  501    0  0.73789769993E+02  0.18729006160E+02  0.46238972325E+03  0.49918329498E+03  0.17200000000E+03 0. -1.
         -6    1    1    2    0  503 -0.73789769993E+02 -0.18729006160E+02 -0.92206880019E+02  0.20947986669E+03  0.17200000000E+03 0. -1.
</event>
<event>
 4    1  0.1249554E+000  0.2571191E+03  0.7818608E-02  0.1108887E+00
         21   -1    0    0  501  502  0.00000000000E+00  0.00000000000E+00  0.37829274309E+03  0.37829274309E+03  0.00000000000E+00 0. -1.
         21   -1    0    0  502  503 -0.00000000000E+00 -0.00000000000E+00 -0.18870743874E+03  0.18870743874E+03  0.00000000000E+00 0. -1.
          6    1    1    2  501    0  0.10775435398E+03 -0.15784562898E+03  0.17186773607E+03  0.30927134056E+03  0.17200000000E+03 0. -1.
         -6    1    1    2    0  503 -0.10775435398E+03  0.15784562898E+03  0.17717568281E+02  0.25772884126E+03  0.17200000000E+03 0. -1.
</event>
<event>
 4    1  0.1249554E+000  0.1744662E+03  0.7818608E-02  0.1173269E+00
         21   -1    0    0  503  502  0.00000000000E+00  0.00000000000E+00  0.38134796745E+03  0.38134796745E+03  0.00000000000E+00 0. -1.
         21   -1    0    0  501  503 -0.00000000000E+00 -0.00000000000E+00 -0.16998361452E+03  0.16998361452E+03  0.00000000000E+00 0. -1.
          6    1    1    2  501    0 -0.33089663659E+01 -0.29042881734E+02 -0.95088267724E+02  0.19869629311E+03  0.17200000000E+03 0. -1.
         -6    1    1    2    0  502  0.33089663659E+01  0.29042881734E+02  0.30645262065E+03  0.35263528885E+03  0.17200000000E+03 0. -1.
</event>
<event>
 4    1  0.1249554E+000  0.1782078E+03  0.7818608E-02  0.1169549E+00
         21   -1    0    0  503  502  0.00000000000E+00  0.00000000000E+00  0.84084705714E+02  0.84084705714E+02  0.00000000000E+00 0. -1.
         21   -1    0    0  501  503 -0.00000000000E+00 -0.00000000000E+00 -0.45320030568E+03  0.45320030568E+03  0.00000000000E+00 0. -1.
          6    1    1    2  501    0  0.18362495268E+02 -0.42858561638E+02 -0.29421315326E+03  0.34397589609E+03  0.17200000000E+03 0. -1.
         -6    1    1    2    0  502 -0.18362495268E+02  0.42858561638E+02 -0.74902446706E+02  0.19330911531E+03  0.17200000000E+03 0. -1.
</event>
<event>
 4    1  0.1249554E+000  0.5190610E+03  0.7818608E-02  0.1008920E+00
         21   -1    0    0  503  502  0.00000000000E+00  0.00000000000E+00  0.20767611279E+04  0.20767611279E+04  0.00000000000E+00 0. -1.
         21   -1    0    0  501  503 -0.00000000000E+00 -0.00000000000E+00 -0.13600986275E+03  0.13600986275E+03  0.00000000000E+00 0. -1.
          6    1    1    2  501    0  0.39192315186E+03 -0.29366063644E+03  0.73269451995E+03  0.89792292872E+03  0.17200000000E+03 0. -1.
         -6    1    1    2    0  502 -0.39192315186E+03  0.29366063644E+03  0.12080567452E+04  0.13148480619E+04  0.17200000000E+03 0. -1.
</event>
<event>
 4    1  0.1249554E+000  0.1979969E+03  0.7818608E-02  0.1151440E+00
         21   -1    0    0  501  502  0.00000000000E+00  0.00000000000E+00  0.55433914867E+03  0.55433914867E+03  0.00000000000E+00 0. -1.
         21   -1    0    0  502  503 -0.00000000000E+00 -0.00000000000E+00 -0.89211263515E+02  0.89211263515E+02  0.00000000000E+00 0. -1.
          6    1    1    2  501    0  0.78494179437E+02 -0.58799951279E+02  0.86067182621E+02  0.21589425745E+03  0.17200000000E+03 0. -1.
         -6    1    1    2    0  503 -0.78494179437E+02  0.58799951279E+02  0.37906070253E+03  0.42765615473E+03  0.17200000000E+03 0. -1.
</event>
<event>
 4    1  0.1249554E+000  0.1738596E+03  0.7818608E-02  0.1173882E+00
         21   -1    0    0  503  502  0.00000000000E+00  0.00000000000E+00  0.25327043944E+03  0.25327043944E+03  0.00000000000E+00 0. -1.
         21   -1    0    0  501  503 -0.00000000000E+00 -0.00000000000E+00 -0.12700414898E+03  0.12700414898E+03  0.00000000000E+00 0. -1.
          6    1    1    2  501    0  0.13177490551E+02 -0.21667901819E+02  0.16447510110E+02  0.17463580622E+03  0.17200000000E+03 0. -1.
         -6    1    1    2    0  502 -0.13177490551E+02  0.21667901819E+02  0.10981878034E+03  0.20563878219E+03  0.17200000000E+03 0. -1.
</event>
<event>
 4    1  0.1249554E+000  0.1800383E+03  0.7818608E-02  0.1167766E+00
         21   -1    0    0  503  502  0.00000000000E+00  0.00000000000E+00  0.42913641149E+02  0.42913641149E+02  0.00000000000E+00 0.  1.
         21   -1    0    0  501  503 -0.00000000000E+00 -0.00000000000E+00 -0.86358065187E+03  0.86358065187E+03  0.00000000000E+00 0.  1.
          6    1    1    2  501    0  0.52236722339E+02  0.10055970326E+02 -0.57080817860E+03  0.59852800641E+03  0.17200000000E+03 0.  1.
         -6    1    1    2    0  502 -0.52236722339E+02 -0.10055970326E+02 -0.24985883213E+03  0.30796628661E+03  0.17200000000E+03 0.  1.
</event>
<event>
 4    1  0.1249554E+000  0.2466764E+03  0.7818608E-02  0.1115423E+00
         21   -1    0    0  501  502  0.00000000000E+00  0.00000000000E+00  0.31109587912E+02  0.31109587912E+02  0.00000000000E+00 0.  1.
         21   -1    0    0  502  503 -0.00000000000E+00 -0.00000000000E+00 -0.21189770477E+04  0.21189770477E+04  0.00000000000E+00 0. -1.
          6    1    1    2  501    0 -0.69115380560E+02  0.16275226561E+03 -0.74575686430E+03  0.78549509001E+03  0.17200000000E+03 0.  1.
         -6    1    1    2    0  503  0.69115380560E+02 -0.16275226561E+03 -0.13421105955E+04  0.13645915456E+04  0.17200000000E+03 0.  1.
</event>
<event>
 4    1  0.1249554E+000  0.2506617E+03  0.7818608E-02  0.1112887E+00
         21   -1    0    0  501  502  0.00000000000E+00  0.00000000000E+00  0.13006313009E+03  0.13006313009E+03  0.00000000000E+00 0.  1.
         21   -1    0    0  502  503 -0.00000000000E+00 -0.00000000000E+00 -0.78573824468E+03  0.78573824468E+03  0.00000000000E+00 0.  1.
          6    1    1    2  501    0 -0.13483431624E+03  0.12274765273E+03 -0.43649060114E+02  0.25443372327E+03  0.17200000000E+03 0.  1.
         -6    1    1    2    0  503  0.13483431624E+03 -0.12274765273E+03 -0.61202605448E+03  0.66136765150E+03  0.17200000000E+03 0.  1.
</event>
<event>
 4    1  0.1249554E+000  0.2113452E+03  0.7818608E-02  0.1140505E+00
         21   -1    0    0  501  502  0.00000000000E+00  0.00000000000E+00  0.57631176347E+02  0.57631176347E+02  0.00000000000E+00 0.  1.
         21   -1    0    0  502  503 -0.00000000000E+00 -0.00000000000E+00 -0.79900565438E+03  0.79900565438E+03  0.00000000000E+00 0. -1.
          6    1    1    2  501    0  0.51515752620E+02 -0.11148509048E+03 -0.29651619687E+03  0.36412724860E+03  0.17200000000E+03 0.  1.
         -6    1    1    2    0  503 -0.51515752620E+02  0.11148509048E+03 -0.44485828116E+03  0.49250958213E+03  0.17200000000E+03 0. -1.
</event>
<event>
 4    1  0.1249554E+000  0.2031381E+03  0.7818608E-02  0.1147118E+00
         21   -1    0    0  503  502  0.00000000000E+00  0.00000000000E+00  0.44668555912E+03  0.44668555912E+03  0.00000000000E+00 0. -1.
         21   -1    0    0  501  503 -0.00000000000E+00 -0.00000000000E+00 -0.98452940768E+02  0.98452940768E+02  0.00000000000E+00 0.  1.
          6    1    1    2  501    0  0.92421400075E+02  0.56030259966E+02  0.10642412023E+03  0.22932771004E+03  0.17200000000E+03 0.  1.
         -6    1    1    2    0  502 -0.92421400075E+02 -0.56030259966E+02  0.24180849812E+03  0.31581078985E+03  0.17200000000E+03 0. -1.
</event>
<event>
 4    1  0.1249554E+000  0.1742525E+03  0.7818608E-02  0.1173484E+00
         21   -1    0    0  503  502  0.00000000000E+00  0.00000000000E+00  0.50757671369E+03  0.50757671369E+03  0.00000000000E+00 0.  1.
         21   -1    0    0  501  503 -0.00000000000E+00 -0.00000000000E+00 -0.32016086755E+03  0.32016086755E+03  0.00000000000E+00 0.  1.
          6    1    1    2  501    0  0.77592728572E+01  0.26827851864E+02 -0.27949804145E+03  0.32936772022E+03  0.17200000000E+03 0.  1.
         -6    1    1    2    0  502 -0.77592728572E+01 -0.26827851864E+02  0.46691388759E+03  0.49836986102E+03  0.17200000000E+03 0.  1.
</event>
<event>
 4    1  0.1249554E+000  0.3239783E+03  0.7818608E-02  0.1073833E+00
         21   -1    0    0  503  502  0.00000000000E+00  0.00000000000E+00  0.56919446933E+03  0.56919446933E+03  0.00000000000E+00 0.  1.
         21   -1    0    0  501  503 -0.00000000000E+00 -0.00000000000E+00 -0.18918878367E+03  0.18918878367E+03  0.00000000000E+00 0. -1.
          6    1    1    2  501    0 -0.22837273372E+03  0.15239363487E+03  0.25030421108E+03  0.40940703895E+03  0.17200000000E+03 0.  1.
         -6    1    1    2    0  502  0.22837273372E+03 -0.15239363487E+03  0.12970147458E+03  0.34897621404E+03  0.17200000000E+03 0.  1.
</event>
<event>
 4    1  0.1249554E+000  0.3334809E+03  0.7818608E-02  0.1069607E+00
         21   -1    0    0  501  502  0.00000000000E+00  0.00000000000E+00  0.44652857117E+03  0.44652857117E+03  0.00000000000E+00 0. -1.
         21   -1    0    0  502  503 -0.00000000000E+00 -0.00000000000E+00 -0.25436241500E+03  0.25436241500E+03  0.00000000000E+00 0.  1.
          6    1    1    2  501    0 -0.26383118050E+03 -0.10962931880E+03  0.14671204992E+03  0.36432664593E+03  0.17200000000E+03 0. -1.
         -6    1    1    2    0  503  0.26383118050E+03  0.10962931880E+03  0.45454106256E+02  0.33656434024E+03  0.17200000000E+03 0. -1.
</event>
<event>
 4    1  0.1249554E+000  0.1970525E+03  0.7818608E-02  0.1152250E+00
         21   -1    0    0  503  502  0.00000000000E+00  0.00000000000E+00  0.30469841375E+02  0.30469841375E+02  0.00000000000E+00 0.  1.
         21   -1    0    0  501  503 -0.00000000000E+00 -0.00000000000E+00 -0.12918133862E+04  0.12918133862E+04  0.00000000000E+00 0. -1.
          6    1    1    2  501    0  0.95769676159E+02 -0.85949246847E+01 -0.70750879386E+03  0.73443746976E+03  0.17200000000E+03 0. -1.
         -6    1    1    2    0  502 -0.95769676159E+02  0.85949246847E+01 -0.55383475096E+03  0.58784575781E+03  0.17200000000E+03 0. -1.
</event>
<event>
 4    1  0.1249554E+000  0.2081145E+03  0.7818608E-02  0.1143068E+00
         21   -1    0    0  503  502  0.00000000000E+00  0.00000000000E+00  0.20508536223E+03  0.20508536223E+03  0.00000000000E+00 0. -1.
         21   -1    0    0  501  503 -0.00000000000E+00 -0.00000000000E+00 -0.93229381057E+03  0.93229381057E+03  0.00000000000E+00 0.  1.
          6    1    1    2  501    0  0.11304615753E+03 -0.30792866583E+02 -0.86375192252E+03  0.88847004340E+03  0.17200000000E+03 0.  1.
         -6    1    1    2    0  502 -0.11304615753E+03  0.30792866583E+02  0.13654347418E+03  0.24890912941E+03  0.17200000000E+03 0. -1.
</event>
<event>
 4    1  0.1249554E+000  0.1736489E+03  0.7818608E-02  0.1174095E+00
         21   -1    0    0  503  502  0.00000000000E+00  0.00000000000E+00  0.47975742729E+03  0.47975742729E+03  0.00000000000E+00 0. -1.
         21   -1    0    0  501  503 -0.00000000000E+00 -0.00000000000E+00 -0.63880103795E+02  0.63880103795E+02  0.00000000000E+00 0. -1.
          6    1    1    2  501    0  0.21035249791E+02  0.11289714820E+02  0.17346274847E+03  0.24544503357E+03  0.17200000000E+03 0. -1.
         -6    1    1    2    0  502 -0.21035249791E+02 -0.11289714820E+02  0.24241457503E+03  0.29819249752E+03  0.17200000000E+03 0. -1.
</event>
<event>
 4    1  0.1249554E+000  0.1733678E+03  0.7818608E-02  0.1174381E+00
         21   -1    0    0  501  502  0.00000000000E+00  0.00000000000E+00  0.33671149018E+04  0.33671149018E+04  0.00000000000E+00 0.  1.
         21   -1    0    0  502  503 -0.00000000000E+00 -0.00000000000E+00 -0.20577340582E+02  0.20577340582E+02  0.00000000000E+00 0.  1.
          6    1    1    2  501    0  0.12791742369E+02 -0.17572012599E+02  0.29478243468E+04  0.29529180118E+04  0.17200000000E+03 0.  1.
         -6    1    1    2    0  503 -0.12791742369E+02  0.17572012599E+02  0.39871321435E+03  0.43477423060E+03  0.17200000000E+03 0.  1.
</event>
<event>
 4    1  0.1249554E+000  0.1929454E+03  0.7818608E-02  0.1155831E+00
         21   -1    0    0  501  502  0.00000000000E+00  0.00000000000E+00  0.82970498590E+02  0.82970498590E+02  0.00000000000E+00 0. -1.
         21   -1    0    0  502  503 -0.00000000000E+00 -0.00000000000E+00 -0.52992252661E+03  0.52992252661E+03  0.00000000000E+00 0. -1.
          6    1    1    2  501    0  0.53076384504E+02  0.69475477575E+02 -0.10349395167E+03  0.21894963487E+03  0.17200000000E+03 0.  1.
         -6    1    1    2    0  503 -0.53076384504E+02 -0.69475477575E+02 -0.34345807635E+03  0.39394339033E+03  0.17200000000E+03 0.  1.
</event>
<event>
 4    1  0.1249554E+000  0.2420810E+03  0.7818608E-02  0.1118414E+00
         21   -1    0    0  503  502  0.00000000000E+00  0.00000000000E+00  0.34857960783E+02  0.34857960783E+02  0.00000000000E+00 0. -1.
         21   -1    0    0  501  503 -0.00000000000E+00 -0.00000000000E+00 -0.16945486840E+04  0.16945486840E+04  0.00000000000E+00 0.  1.
          6    1    1    2  501    0 -0.15024620471E+03 -0.80282634222E+02 -0.90659036780E+03  0.93835458030E+03  0.17200000000E+03 0.  1.
         -6    1    1    2    0  502  0.15024620471E+03  0.80282634222E+02 -0.75310035537E+03  0.79105206444E+03  0.17200000000E+03 0. -1.
</event>
<event>
 4    1  0.1249554E+000  0.1822826E+03  0.7818608E-02  0.1165612E+00
         21   -1    0    0  501  502  0.00000000000E+00  0.00000000000E+00  0.19969810613E+03  0.19969810613E+03  0.00000000000E+00 0. -1.
         21   -1    0    0  502  503 -0.00000000000E+00 -0.00000000000E+00 -0.23792395093E+03  0.23792395093E+03  0.00000000000E+00 0. -1.
          6    1    1    2  501    0 -0.58207177100E+02 -0.15964139316E+02  0.10086987419E+03  0.20833065240E+03  0.17200000000E+03 0. -1.
         -6    1    1    2    0  503  0.58207177100E+02  0.15964139316E+02 -0.13909571899E+03  0.22929140466E+03  0.17200000000E+03 0. -1.
</event>
<event>
 4    1  0.1249554E+000  0.2652826E+03  0.7818608E-02  0.1104010E+00
         21   -1    0    0  501  502  0.00000000000E+00  0.00000000000E+00  0.60175333003E+03  0.60175333003E+03  0.00000000000E+00 0. -1.
         21   -1    0    0  502  503 -0.00000000000E+00 -0.00000000000E+00 -0.14017302095E+03  0.14017302095E+03  0.00000000000E+00 0.  1.
          6    1    1    2  501    0  0.19048990635E+03 -0.67115065415E+02  0.38178471068E+03  0.46490257230E+03  0.17200000000E+03 0. -1.
         -6    1    1    2    0  503 -0.19048990635E+03  0.67115065415E+02  0.79795598411E+02  0.27702377868E+03  0.17200000000E+03 0.  1.
</event>
<event>
 4    1  0.1249554E+000  0.1825148E+03  0.7818608E-02  0.1165391E+00
         21   -1    0    0  501  502  0.00000000000E+00  0.00000000000E+00  0.19418611282E+03  0.19418611282E+03  0.00000000000E+00 0.  1.
         21   -1    0    0  502  503 -0.00000000000E+00 -0.00000000000E+00 -0.26470018183E+03  0.26470018183E+03  0.00000000000E+00 0.  1.
          6    1    1    2  501    0  0.59043641958E+02 -0.15540304888E+02  0.10085656795E+03  0.20852745630E+03  0.17200000000E+03 0.  1.
         -6    1    1    2    0  503 -0.59043641958E+02  0.15540304888E+02 -0.17137063695E+03  0.25035883835E+03  0.17200000000E+03 0.  1.
</event>
<event>
 4    1  0.1249554E+000  0.2870185E+03  0.7818608E-02  0.1091916E+00
         21   -1    0    0  501  502  0.00000000000E+00  0.00000000000E+00  0.88472115915E+02  0.88472115915E+02  0.00000000000E+00 0. -1.
         21   -1    0    0  502  503 -0.00000000000E+00 -0.00000000000E+00 -0.97277705480E+03  0.97277705480E+03  0.00000000000E+00 0.  1.
          6    1    1    2  501    0  0.14486138053E+03  0.17835580083E+03 -0.33236841558E+03  0.43914505000E+03  0.17200000000E+03 0. -1.
         -6    1    1    2    0  503 -0.14486138053E+03 -0.17835580083E+03 -0.55193652330E+03  0.62210412072E+03  0.17200000000E+03 0.  1.
</event>
<event>
 4    1  0.1249554E+000  0.2294909E+03  0.7818608E-02  0.1126999E+00
         21   -1    0    0  501  502  0.00000000000E+00  0.00000000000E+00  0.20531428352E+03  0.20531428352E+03  0.00000000000E+00 0.  1.
         21   -1    0    0  502  503 -0.00000000000E+00 -0.00000000000E+00 -0.64155062742E+03  0.64155062742E+03  0.00000000000E+00 0.  1.
          6    1    1    2  501    0 -0.40540293139E+02  0.14641906025E+03  0.10991631944E+03  0.25445560291E+03  0.17200000000E+03 0.  1.
         -6    1    1    2    0  503  0.40540293139E+02 -0.14641906025E+03 -0.54615266334E+03  0.59240930803E+03  0.17200000000E+03 0.  1.
</event>
<event>
 4    1  0.1249554E+000  0.1928604E+03  0.7818608E-02  0.1155906E+00
         21   -1    0    0  503  502  0.00000000000E+00  0.00000000000E+00  0.24884690376E+03  0.24884690376E+03  0.00000000000E+00 0.  1.
         21   -1    0    0  501  503 -0.00000000000E+00 -0.00000000000E+00 -0.20830850882E+03  0.20830850882E+03  0.00000000000E+00 0.  1.
          6    1    1    2  501    0  0.10098537278E+02  0.86655329553E+02 -0.10121267922E+03  0.21780526401E+03  0.17200000000E+03 0.  1.
         -6    1    1    2    0  502 -0.10098537278E+02 -0.86655329553E+02  0.14175107416E+03  0.23935014857E+03  0.17200000000E+03 0.  1.
</event>
<event>
 4    1  0.1249554E+000  0.2136472E+03  0.7818608E-02  0.1138710E+00
         21   -1    0    0  501  502  0.00000000000E+00  0.00000000000E+00  0.18737412276E+03  0.18737412276E+03  0.00000000000E+00 0. -1.
         21   -1    0    0  502  503 -0.00000000000E+00 -0.00000000000E+00 -0.70261605755E+03  0.70261605755E+03  0.00000000000E+00 0. -1.
          6    1    1    2  501    0 -0.11487623770E+03  0.53521582305E+02  0.10205230831E+03  0.23676947310E+03  0.17200000000E+03 0. -1.
         -6    1    1    2    0  503  0.11487623770E+03 -0.53521582305E+02 -0.61729424310E+03  0.65322070720E+03  0.17200000000E+03 0. -1.
</event>
<event>
 4    1  0.1249554E+000  0.1828873E+03  0.7818608E-02  0.1165038E+00
         21   -1    0    0  501  502  0.00000000000E+00  0.00000000000E+00  0.32795109902E+02  0.32795109902E+02  0.00000000000E+00 0.  1.
         21   -1    0    0  502  503 -0.00000000000E+00 -0.00000000000E+00 -0.10864998476E+04  0.10864998476E+04  0.00000000000E+00 0.  1.
          6    1    1    2  501    0  0.25591317165E+02 -0.56646859826E+02 -0.38829443527E+03  0.42920898255E+03  0.17200000000E+03 0.  1.
         -6    1    1    2    0  503 -0.25591317165E+02  0.56646859826E+02 -0.66541030240E+03  0.69008597492E+03  0.17200000000E+03 0.  1.
</event>
<event>
 4    1  0.1249554E+000  0.2318229E+03  0.7818608E-02  0.1125363E+00
         21   -1    0    0  501  502  0.00000000000E+00  0.00000000000E+00  0.24748719133E+03  0.24748719133E+03  0.00000000000E+00 0.  1.
         21   -1    0    0  502  503 -0.00000000000E+00 -0.00000000000E+00 -0.22170088881E+03  0.22170088881E+03  0.00000000000E+00 0.  1.
          6    1    1    2  501    0  0.12645726270E+03 -0.90368339035E+02  0.46503662997E+02  0.23644125414E+03  0.17200000000E+03 0.  1.
         -6    1    1    2    0  503 -0.12645726270E+03  0.90368339035E+02 -0.20717360471E+02  0.23274682600E+03  0.17200000000E+03 0.  1.
</event>
<event>
 4    1  0.1249554E+000  0.1931419E+03  0.7818608E-02  0.1155658E+00
         21   -1    0    0  503  502  0.00000000000E+00  0.00000000000E+00  0.66934990162E+03  0.66934990162E+03  0.00000000000E+00 0.  1.
         21   -1    0    0  501  503 -0.00000000000E+00 -0.00000000000E+00 -0.57177645904E+02  0.57177645904E+02  0.00000000000E+00 0.  1.
          6    1    1    2  501    0  0.52462769711E+02 -0.70480060678E+02  0.24831167431E+03  0.31458300774E+03  0.17200000000E+03 0. -1.
         -6    1    1    2    0  502 -0.52462769711E+02  0.70480060678E+02  0.36386058140E+03  0.41194453978E+03  0.17200000000E+03 0. -1.
</event>
<event>
 4    1  0.1249554E+000  0.2271422E+03  0.7818608E-02  0.1128668E+00
         21   -1    0    0  501  502  0.00000000000E+00  0.00000000000E+00  0.57017926468E+03  0.57017926468E+03  0.00000000000E+00 0. -1.
         21   -1    0    0  502  503 -0.00000000000E+00 -0.00000000000E+00 -0.14078835339E+03  0.14078835339E+03  0.00000000000E+00 0. -1.
          6    1    1    2  501    0  0.14344194097E+03 -0.37868107978E+02  0.42718032719E+03  0.48381465043E+03  0.17200000000E+03 0. -1.
         -6    1    1    2    0  503 -0.14344194097E+03  0.37868107978E+02  0.22105841017E+01  0.22715296765E+03  0.17200000000E+03 0. -1.
</event>
<event>
 4    1  0.1249554E+000  0.1924040E+03  0.7818608E-02  0.1156311E+00
         21   -1    0    0  503  502  0.00000000000E+00  0.00000000000E+00  0.39031252106E+03  0.39031252106E+03  0.00000000000E+00 0. -1.
         21   -1    0    0  501  503 -0.00000000000E+00 -0.00000000000E+00 -0.96339922249E+02  0.96339922249E+02  0.00000000000E+00 0. -1.
          6    1    1    2  501    0 -0.24112857764E+02 -0.82787990779E+02  0.11667800665E+03  0.22501786276E+03  0.17200000000E+03 0. -1.
         -6    1    1    2    0  502  0.24112857764E+02  0.82787990779E+02  0.17729459216E+03  0.26163458054E+03  0.17200000000E+03 0. -1.
</event>
<event>
 4    1  0.1249554E+000  0.1866552E+03  0.7818608E-02  0.1161513E+00
         21   -1    0    0  501  502  0.00000000000E+00  0.00000000000E+00  0.23079688206E+03  0.23079688206E+03  0.00000000000E+00 0.  1.
         21   -1    0    0  502  503 -0.00000000000E+00 -0.00000000000E+00 -0.66663864039E+03  0.66663864039E+03  0.00000000000E+00 0.  1.
          6    1    1    2  501    0  0.58127225917E+02  0.43328878119E+02  0.17673564740E+03  0.25705185301E+03  0.17200000000E+03 0.  1.
         -6    1    1    2    0  503 -0.58127225917E+02 -0.43328878119E+02 -0.61257740573E+03  0.64038366944E+03  0.17200000000E+03 0.  1.
</event>
<event>
 4    1  0.1249554E+000  0.1724677E+03  0.7818608E-02  0.1175299E+00
         21   -1    0    0  501  502  0.00000000000E+00  0.00000000000E+00  0.32226277643E+03  0.32226277643E+03  0.00000000000E+00 0.  1.
         21   -1    0    0  502  503 -0.00000000000E+00 -0.00000000000E+00 -0.56440353543E+03  0.56440353543E+03  0.00000000000E+00 0.  1.
          6    1    1    2  501    0 -0.11135356142E+02  0.60928893392E+01  0.28439483148E+03  0.33260417861E+03  0.17200000000E+03 0. -1.
         -6    1    1    2    0  503  0.11135356142E+02 -0.60928893392E+01 -0.52653559048E+03  0.55406213325E+03  0.17200000000E+03 0. -1.
</event>
<event>
 4    1  0.1249554E+000  0.2302658E+03  0.7818608E-02  0.1126453E+00
         21   -1    0    0  503  502  0.00000000000E+00  0.00000000000E+00  0.11208282168E+03  0.11208282168E+03  0.00000000000E+00 0.  1.
         21   -1    0    0  501  503 -0.00000000000E+00 -0.00000000000E+00 -0.74747478908E+03  0.74747478908E+03  0.00000000000E+00 0. -1.
          6    1    1    2  501    0  0.77921510453E+02 -0.13178236230E+03 -0.57809975930E+03  0.62227139136E+03  0.17200000000E+03 0. -1.
         -6    1    1    2    0  502 -0.77921510453E+02  0.13178236230E+03 -0.57292208099E+02  0.23728621939E+03  0.17200000000E+03 0.  1.
</event>
<event>
 4    1  0.1249554E+000  0.2594569E+03  0.7818608E-02  0.1107470E+00
         21   -1    0    0  501  502  0.00000000000E+00  0.00000000000E+00  0.34365010610E+03  0.34365010610E+03  0.00000000000E+00 0. -1.
         21   -1    0    0  502  503 -0.00000000000E+00 -0.00000000000E+00 -0.21353851199E+03  0.21353851199E+03  0.00000000000E+00 0.  1.
          6    1    1    2  501    0  0.10864097116E+02  0.19394803119E+03  0.14514598224E+03  0.29729652465E+03  0.17200000000E+03 0. -1.
         -6    1    1    2    0  503 -0.10864097116E+02 -0.19394803119E+03 -0.15034388134E+02  0.25989209344E+03  0.17200000000E+03 0. -1.
</event>
<event>
 4    1  0.1249554E+000  0.2268240E+03  0.7818608E-02  0.1128895E+00
         21   -1    0    0  503  502  0.00000000000E+00  0.00000000000E+00  0.55354509083E+03  0.55354509083E+03  0.00000000000E+00 0.  1.
         21   -1    0    0  501  503 -0.00000000000E+00 -0.00000000000E+00 -0.10031417301E+03  0.10031417301E+03  0.00000000000E+00 0.  1.
          6    1    1    2  501    0 -0.10757361476E+03  0.10145471788E+03  0.13800435216E+03  0.26550770909E+03  0.17200000000E+03 0.  1.
         -6    1    1    2    0  502  0.10757361476E+03 -0.10145471788E+03  0.31522656567E+03  0.38835155475E+03  0.17200000000E+03 0.  1.
</event>
<event>
 4    1  0.1249554E+000  0.2694948E+03  0.7818608E-02  0.1101569E+00
         21   -1    0    0  503  502  0.00000000000E+00  0.00000000000E+00  0.58505310561E+03  0.58505310561E+03  0.00000000000E+00 0.  1.
         21   -1    0    0  501  503 -0.00000000000E+00 -0.00000000000E+00 -0.12441744391E+03  0.12441744391E+03  0.00000000000E+00 0. -1.
          6    1    1    2  501    0  0.13059079418E+03  0.16121250743E+03  0.24712407591E+03  0.36564701143E+03  0.17200000000E+03 0. -1.
         -6    1    1    2    0  502 -0.13059079418E+03 -0.16121250743E+03  0.21351158579E+03  0.34382353809E+03  0.17200000000E+03 0.  1.
</event>
<event>
 4    1  0.1249554E+000  0.2332310E+03  0.7818608E-02  0.1124386E+00
         21   -1    0    0  503  502  0.00000000000E+00  0.00000000000E+00  0.40244605763E+03  0.40244605763E+03  0.00000000000E+00 0.  1.
         21   -1    0    0  501  503 -0.00000000000E+00 -0.00000000000E+00 -0.17341308623E+03  0.17341308623E+03  0.00000000000E+00 0.  1.
          6    1    1    2  501    0 -0.37541146531E+02  0.15298164370E+03 -0.20705960306E+02  0.23414836703E+03  0.17200000000E+03 0. -1.
         -6    1    1    2    0  502  0.37541146531E+02 -0.15298164370E+03  0.24973893171E+03  0.34171077683E+03  0.17200000000E+03 0. -1.
</event>
<event>
 4    1  0.1249554E+000  0.2618813E+03  0.7818608E-02  0.1106018E+00
         21   -1    0    0  501  502  0.00000000000E+00  0.00000000000E+00  0.79302183760E+02  0.79302183760E+02  0.00000000000E+00 0. -1.
         21   -1    0    0  502  503 -0.00000000000E+00 -0.00000000000E+00 -0.86576718302E+03  0.86576718302E+03  0.00000000000E+00 0. -1.
          6    1    1    2  501    0  0.16357817272E+03 -0.11063448002E+03 -0.37757082886E+03  0.45950140105E+03  0.17200000000E+03 0. -1.
         -6    1    1    2    0  503 -0.16357817272E+03  0.11063448002E+03 -0.40889417040E+03  0.48556796574E+03  0.17200000000E+03 0. -1.
</event>
<event>
 4    1  0.1249554E+000  0.1982606E+03  0.7818608E-02  0.1151215E+00
         21   -1    0    0  501  502  0.00000000000E+00  0.00000000000E+00  0.93555132649E+02  0.93555132649E+02  0.00000000000E+00 0. -1.
         21   -1    0    0  502  503 -0.00000000000E+00 -0.00000000000E+00 -0.42117343437E+03  0.42117343437E+03  0.00000000000E+00 0. -1.
          6    1    1    2  501    0 -0.97925700586E+02  0.11568733521E+02 -0.15112840397E+03  0.24929314655E+03  0.17200000000E+03 0. -1.
         -6    1    1    2    0  503  0.97925700586E+02 -0.11568733521E+02 -0.17648989775E+03  0.26543542047E+03  0.17200000000E+03 0. -1.
</event>
<event>
 4    1  0.1249554E+000  0.2077641E+03  0.7818608E-02  0.1143349E+00
         21   -1    0    0  501  502  0.00000000000E+00  0.00000000000E+00  0.69450620112E+02  0.69450620112E+02  0.00000000000E+00 0.  1.
         21   -1    0    0  502  503 -0.00000000000E+00 -0.00000000000E+00 -0.64576658717E+03  0.64576658717E+03  0.00000000000E+00 0. -1.
          6    1    1    2  501    0 -0.46414581052E+02  0.10690002956E+03 -0.35743178839E+03  0.41342884878E+03  0.17200000000E+03 0. -1.
         -6    1    1    2    0  503  0.46414581052E+02 -0.10690002956E+03 -0.21888417867E+03  0.30178835850E+03  0.17200000000E+03 0.  1.
</event>
<event>
 4    1  0.1249554E+000  0.1879333E+03  0.7818608E-02  0.1160339E+00
         21   -1    0    0  501  502  0.00000000000E+00  0.00000000000E+00  0.41624107921E+03  0.41624107921E+03  0.00000000000E+00 0. -1.
         21   -1    0    0  502  503 -0.00000000000E+00 -0.00000000000E+00 -0.12080202361E+03  0.12080202361E+03  0.00000000000E+00 0. -1.
          6    1    1    2  501    0  0.75706752926E+02 -0.18523782945E+01  0.29420374170E+03  0.34910569370E+03  0.17200000000E+03 0. -1.
         -6    1    1    2    0  503 -0.75706752926E+02  0.18523782945E+01  0.12353138942E+01  0.18793740911E+03  0.17200000000E+03 0. -1.
</event>
<event>
 4    1  0.1249554E+000  0.2043628E+03  0.7818608E-02  0.1146109E+00
         21   -1    0    0  501  502  0.00000000000E+00  0.00000000000E+00  0.63005557537E+02  0.63005557537E+02  0.00000000000E+00 0.  1.
         21   -1    0    0  502  503 -0.00000000000E+00 -0.00000000000E+00 -0.98181433878E+03  0.98181433878E+03  0.00000000000E+00 0.  1.
          6    1    1    2  501    0 -0.36620429354E+02  0.10411106912E+03 -0.16165032753E+03  0.26056668810E+03  0.17200000000E+03 0.  1.
         -6    1    1    2    0  503  0.36620429354E+02 -0.10411106912E+03 -0.75715845371E+03  0.78425320821E+03  0.17200000000E+03 0.  1.
</event>
<event>
 4    1  0.1249554E+000  0.1814596E+03  0.7818608E-02  0.1166398E+00
         21   -1    0    0  503  502  0.00000000000E+00  0.00000000000E+00  0.25426985622E+03  0.25426985622E+03  0.00000000000E+00 0. -1.
         21   -1    0    0  501  503 -0.00000000000E+00 -0.00000000000E+00 -0.13400106177E+03  0.13400106177E+03  0.00000000000E+00 0. -1.
          6    1    1    2  501    0 -0.44516451464E+02  0.36903434723E+02  0.95720311383E+02  0.20515836799E+03  0.17200000000E+03 0.  1.
         -6    1    1    2    0  502  0.44516451464E+02 -0.36903434723E+02  0.24548483072E+02  0.18311255000E+03  0.17200000000E+03 0.  1.
</event>
<event>
 4    1  0.1249554E+000  0.2005071E+03  0.7818608E-02  0.1149312E+00
         21   -1    0    0  503  502  0.00000000000E+00  0.00000000000E+00  0.10704720897E+03  0.10704720897E+03  0.00000000000E+00 0.  1.
         21   -1    0    0  501  503 -0.00000000000E+00 -0.00000000000E+00 -0.40825497788E+03  0.40825497788E+03  0.00000000000E+00 0.  1.
          6    1    1    2  501    0 -0.99333052900E+02 -0.27423570574E+02 -0.22351241790E+03  0.30026806120E+03  0.17200000000E+03 0.  1.
         -6    1    1    2    0  502  0.99333052900E+02  0.27423570574E+02 -0.77695351005E+02  0.21503412564E+03  0.17200000000E+03 0.  1.
</event>
<event>
 4    1  0.1249554E+000  0.2288539E+03  0.7818608E-02  0.1127449E+00
         21   -1    0    0  501  502  0.00000000000E+00  0.00000000000E+00  0.17695695665E+03  0.17695695665E+03  0.00000000000E+00 0. -1.
         21   -1    0    0  502  503 -0.00000000000E+00 -0.00000000000E+00 -0.33201016461E+03  0.33201016461E+03  0.00000000000E+00 0. -1.
          6    1    1    2  501    0  0.12787354698E+03  0.80239961396E+02  0.63174926328E+01  0.22894105385E+03  0.17200000000E+03 0. -1.
         -6    1    1    2    0  503 -0.12787354698E+03 -0.80239961396E+02 -0.16137070059E+03  0.28002606742E+03  0.17200000000E+03 0. -1.
</event>
<event>
 4    1  0.1249554E+000  0.1927880E+03  0.7818608E-02  0.1155970E+00
         21   -1    0    0  503  502  0.00000000000E+00  0.00000000000E+00  0.37056917880E+03  0.37056917880E+03  0.00000000000E+00 0. -1.
         21   -1    0    0  501  503 -0.00000000000E+00 -0.00000000000E+00 -0.15917574705E+03  0.15917574705E+03  0.00000000000E+00 0. -1.
          6    1    1    2  501    0  0.85142477955E+02  0.18275008832E+02 -0.55395756510E+02  0.20058890134E+03  0.17200000000E+03 0.  1.
         -6    1    1    2    0  502 -0.85142477955E+02 -0.18275008832E+02  0.26678918826E+03  0.32915602451E+03  0.17200000000E+03 0.  1.
</event>
<event>
 4    1  0.1249554E+000  0.1845001E+03  0.7818608E-02  0.1163518E+00
         21   -1    0    0  501  502  0.00000000000E+00  0.00000000000E+00  0.21068612353E+03  0.21068612353E+03  0.00000000000E+00 0. -1.
         21   -1    0    0  502  503 -0.00000000000E+00 -0.00000000000E+00 -0.19561648176E+03  0.19561648176E+03  0.00000000000E+00 0. -1.
          6    1    1    2  501    0  0.42025652459E+02 -0.51866371212E+02  0.92289077232E+02  0.20629481259E+03  0.17200000000E+03 0. -1.
         -6    1    1    2    0  503 -0.42025652459E+02  0.51866371212E+02 -0.77219435457E+02  0.20000779270E+03  0.17200000000E+03 0. -1.
</event>
<event>
 4    1  0.1249554E+000  0.1821803E+03  0.7818608E-02  0.1165709E+00
         21   -1    0    0  501  502  0.00000000000E+00  0.00000000000E+00  0.44729152576E+03  0.44729152576E+03  0.00000000000E+00 0.  1.
         21   -1    0    0  502  503 -0.00000000000E+00 -0.00000000000E+00 -0.12411622164E+03  0.12411622164E+03  0.00000000000E+00 0.  1.
          6    1    1    2  501    0 -0.29309278625E+02 -0.52408225481E+02  0.34277031236E+03  0.38817669037E+03  0.17200000000E+03 0.  1.
         -6    1    1    2    0  503  0.29309278625E+02  0.52408225481E+02 -0.19595008236E+02  0.18323105703E+03  0.17200000000E+03 0.  1.
</event>
<event>
 4    1  0.1249554E+000  0.1801587E+03  0.7818608E-02  0.1167650E+00
         21   -1    0    0  501  502  0.00000000000E+00  0.00000000000E+00  0.30581214507E+03  0.30581214507E+03  0.00000000000E+00 0. -1.
         21   -1    0    0  502  503 -0.00000000000E+00 -0.00000000000E+00 -0.11488391675E+03  0.11488391675E+03  0.00000000000E+00 0.  1.
          6    1    1    2  501    0  0.44638550839E+02 -0.29673942677E+02  0.15351442571E+03  0.23669351912E+03  0.17200000000E+03 0. -1.
         -6    1    1    2    0  503 -0.44638550839E+02  0.29673942677E+02  0.37413802615E+02  0.18400254270E+03  0.17200000000E+03 0.  1.
</event>
<event>
 4    1  0.1249554E+000  0.1793782E+03  0.7818608E-02  0.1168406E+00
         21   -1    0    0  503  502  0.00000000000E+00  0.00000000000E+00  0.23594802476E+03  0.23594802476E+03  0.00000000000E+00 0. -1.
         21   -1    0    0  501  503 -0.00000000000E+00 -0.00000000000E+00 -0.19121044981E+03  0.19121044981E+03  0.00000000000E+00 0. -1.
          6    1    1    2  501    0 -0.13460195399E+02 -0.49105530952E+02  0.13674842729E+03  0.22555855647E+03  0.17200000000E+03 0. -1.
         -6    1    1    2    0  502  0.13460195399E+02  0.49105530952E+02 -0.92010852338E+02  0.20159991810E+03  0.17200000000E+03 0. -1.
</event>
<event>
 4    1  0.1249554E+000  0.2050310E+03  0.7818608E-02  0.1145562E+00
         21   -1    0    0  501  502  0.00000000000E+00  0.00000000000E+00  0.39573869983E+03  0.39573869983E+03  0.00000000000E+00 0. -1.
         21   -1    0    0  502  503 -0.00000000000E+00 -0.00000000000E+00 -0.11034436765E+03  0.11034436765E+03  0.00000000000E+00 0. -1.
          6    1    1    2  501    0 -0.10506663969E+03  0.37612477290E+02  0.19158320693E+03  0.28060973326E+03  0.17200000000E+03 0. -1.
         -6    1    1    2    0  503  0.10506663969E+03 -0.37612477290E+02  0.93811125252E+02  0.22547333422E+03  0.17200000000E+03 0. -1.
</event>
<event>
 4    1  0.1249554E+000  0.1993865E+03  0.7818608E-02  0.1150258E+00
         21   -1    0    0  503  502  0.00000000000E+00  0.00000000000E+00  0.82506033646E+03  0.82506033646E+03  0.00000000000E+00 0.  1.
         21   -1    0    0  501  503 -0.00000000000E+00 -0.00000000000E+00 -0.48338199557E+02  0.48338199557E+02  0.00000000000E+00 0.  1.
          6    1    1    2  501    0  0.99425328136E+02  0.16899622931E+02  0.41299820904E+03  0.45860932590E+03  0.17200000000E+03 0. -1.
         -6    1    1    2    0  502 -0.99425328136E+02 -0.16899622931E+02  0.36372392786E+03  0.41478921012E+03  0.17200000000E+03 0. -1.
</event>
<event>
 4    1  0.1249554E+000  0.1761577E+03  0.7818608E-02  0.1171574E+00
         21   -1    0    0  503  502  0.00000000000E+00  0.00000000000E+00  0.15348158132E+03  0.15348158132E+03  0.00000000000E+00 0. -1.
         21   -1    0    0  501  503 -0.00000000000E+00 -0.00000000000E+00 -0.20336154189E+03  0.20336154189E+03  0.00000000000E+00 0. -1.
          6    1    1    2  501    0  0.25333905969E+02 -0.28385250219E+02 -0.38516550550E+02  0.18031931091E+03  0.17200000000E+03 0.  1.
         -6    1    1    2    0  502 -0.25333905969E+02  0.28385250219E+02 -0.11363410027E+02  0.17652381230E+03  0.17200000000E+03 0.  1.
</event>
<event>
 4    1  0.1249554E+000  0.2845991E+03  0.7818608E-02  0.1093203E+00
         21   -1    0    0  503  502  0.00000000000E+00  0.00000000000E+00  0.20314708239E+04  0.20314708239E+04  0.00000000000E+00 0.  1.
         21   -1    0    0  501  503 -0.00000000000E+00 -0.00000000000E+00 -0.42785293584E+02  0.42785293584E+02  0.00000000000E+00 0.  1.
          6    1    1    2  501    0  0.19406291623E+03 -0.11727001092E+03  0.12650223664E+04  0.12966411448E+04  0.17200000000E+03 0.  1.
         -6    1    1    2    0  502 -0.19406291623E+03  0.11727001092E+03  0.72366316392E+03  0.77761497268E+03  0.17200000000E+03 0.  1.
</event>
<event>
 4    1  0.1249554E+000  0.3661219E+03  0.7818608E-02  0.1056186E+00
         21   -1    0    0  503  502  0.00000000000E+00  0.00000000000E+00  0.11366961469E+03  0.11366961469E+03  0.00000000000E+00 0.  1.
         21   -1    0    0  501  503 -0.00000000000E+00 -0.00000000000E+00 -0.13984725493E+04  0.13984725493E+04  0.00000000000E+00 0. -1.
          6    1    1    2  501    0 -0.18114728193E+03  0.26766943469E+03 -0.94174855312E+03  0.10104135793E+04  0.17200000000E+03 0. -1.
         -6    1    1    2    0  502  0.18114728193E+03 -0.26766943469E+03 -0.34305438153E+03  0.50172858470E+03  0.17200000000E+03 0.  1.
</event>
<event>
 4    1  0.1249554E+000  0.2192450E+03  0.7818608E-02  0.1134447E+00
         21   -1    0    0  503  502  0.00000000000E+00  0.00000000000E+00  0.32066833745E+03  0.32066833745E+03  0.00000000000E+00 0.  1.
         21   -1    0    0  501  503 -0.00000000000E+00 -0.00000000000E+00 -0.31922016603E+03  0.31922016603E+03  0.00000000000E+00 0.  1.
          6    1    1    2  501    0  0.10872092705E+03  0.81634135591E+02 -0.23229030429E+03  0.31941690240E+03  0.17200000000E+03 0.  1.
         -6    1    1    2    0  502 -0.10872092705E+03 -0.81634135591E+02  0.23373847571E+03  0.32047160108E+03  0.17200000000E+03 0.  1.
</event>
<event>
 4    1  0.1249554E+000  0.1927799E+03  0.7818608E-02  0.1155978E+00
         21   -1    0    0  501  502  0.00000000000E+00  0.00000000000E+00  0.25770175100E+03  0.25770175100E+03  0.00000000000E+00 0. -1.
         21   -1    0    0  502  503 -0.00000000000E+00 -0.00000000000E+00 -0.26098034495E+03  0.26098034495E+03  0.00000000000E+00 0. -1.
          6    1    1    2  501    0 -0.87049890943E+02 -0.15496243871E+01  0.17183176505E+03  0.25824453591E+03  0.17200000000E+03 0. -1.
         -6    1    1    2    0  503  0.87049890943E+02  0.15496243871E+01 -0.17511035900E+03  0.26043756004E+03  0.17200000000E+03 0. -1.
</event>
<event>
 4    1  0.1249554E+000  0.1828129E+03  0.7818608E-02  0.1165108E+00
         21   -1    0    0  503  502  0.00000000000E+00  0.00000000000E+00  0.20349154636E+03  0.20349154636E+03  0.00000000000E+00 0. -1.
         21   -1    0    0  501  503 -0.00000000000E+00 -0.00000000000E+00 -0.18138790244E+03  0.18138790244E+03  0.00000000000E+00 0. -1.
          6    1    1    2  501    0 -0.58405736213E+02 -0.20623864930E+02 -0.48124869977E+02  0.18904120434E+03  0.17200000000E+03 0. -1.
         -6    1    1    2    0  502  0.58405736213E+02  0.20623864930E+02  0.70228513901E+02  0.19583824446E+03  0.17200000000E+03 0. -1.
</event>
<event>
 4    1  0.1249554E+000  0.2138077E+03  0.7818608E-02  0.1138586E+00
         21   -1    0    0  501  502  0.00000000000E+00  0.00000000000E+00  0.68947824603E+03  0.68947824603E+03  0.00000000000E+00 0.  1.
         21   -1    0    0  502  503 -0.00000000000E+00 -0.00000000000E+00 -0.88285200770E+02  0.88285200770E+02  0.00000000000E+00 0. -1.
          6    1    1    2  501    0  0.22198043393E+02  0.12504798454E+03  0.49464915760E+03  0.53887989448E+03  0.17200000000E+03 0. -1.
         -6    1    1    2    0  503 -0.22198043393E+02 -0.12504798454E+03  0.10654388766E+03  0.23888355231E+03  0.17200000000E+03 0.  1.
</event>
<event>
 4    1  0.1249554E+000  0.1884813E+03  0.7818608E-02  0.1159838E+00
         21   -1    0    0  501  502  0.00000000000E+00  0.00000000000E+00  0.27108698226E+03  0.27108698226E+03  0.00000000000E+00 0.  1.
         21   -1    0    0  502  503 -0.00000000000E+00 -0.00000000000E+00 -0.66099386468E+03  0.66099386468E+03  0.00000000000E+00 0.  1.
          6    1    1    2  501    0  0.75145885913E+02 -0.17154701704E+02  0.22233942338E+03  0.29147899950E+03  0.17200000000E+03 0.  1.
         -6    1    1    2    0  503 -0.75145885913E+02  0.17154701704E+02 -0.61224630581E+03  0.64060184743E+03  0.17200000000E+03 0.  1.
</event>
<event>
 4    1  0.1249554E+000  0.1941543E+03  0.7818608E-02  0.1154767E+00
         21   -1    0    0  503  502  0.00000000000E+00  0.00000000000E+00  0.52299761478E+02  0.52299761478E+02  0.00000000000E+00 0.  1.
         21   -1    0    0  501  503 -0.00000000000E+00 -0.00000000000E+00 -0.80939002820E+03  0.80939002820E+03  0.00000000000E+00 0. -1.
          6    1    1    2  501    0 -0.88827926171E+02 -0.14882836558E+02 -0.52111158111E+03  0.55610536705E+03  0.17200000000E+03 0. -1.
         -6    1    1    2    0  502  0.88827926171E+02  0.14882836558E+02 -0.23597868562E+03  0.30558442264E+03  0.17200000000E+03 0.  1.
</event>
<event>
 4    1  0.1249554E+000  0.1940598E+03  0.7818608E-02  0.1154850E+00
         21   -1    0    0  503  502  0.00000000000E+00  0.00000000000E+00  0.99647085868E+02  0.99647085868E+02  0.00000000000E+00 0.  1.
         21   -1    0    0  501  503 -0.00000000000E+00 -0.00000000000E+00 -0.38543301163E+03  0.38543301163E+03  0.00000000000E+00 0.  1.
          6    1    1    2  501    0  0.45488303282E+02  0.77498610025E+02 -0.17674180317E+03  0.26248216183E+03  0.17200000000E+03 0. -1.
         -6    1    1    2    0  502 -0.45488303282E+02 -0.77498610025E+02 -0.10904412259E+03  0.22259793567E+03  0.17200000000E+03 0. -1.
</event>
<event>
 4    1  0.1249554E+000  0.1971332E+03  0.7818608E-02  0.1152181E+00
         21   -1    0    0  503  502  0.00000000000E+00  0.00000000000E+00  0.55196998994E+03  0.55196998994E+03  0.00000000000E+00 0.  1.
         21   -1    0    0  501  503 -0.00000000000E+00 -0.00000000000E+00 -0.13446269386E+03  0.13446269386E+03  0.00000000000E+00 0.  1.
          6    1    1    2  501    0 -0.96312983109E+02  0.11449700504E+01 -0.28139429036E+02  0.19913143684E+03  0.17200000000E+03 0.  1.
         -6    1    1    2    0  502  0.96312983109E+02 -0.11449700504E+01  0.44564672512E+03  0.48730124695E+03  0.17200000000E+03 0.  1.
</event>
<event>
 4    1  0.1249554E+000  0.1812689E+03  0.7818608E-02  0.1166581E+00
         21   -1    0    0  501  502  0.00000000000E+00  0.00000000000E+00  0.15323856806E+03  0.15323856806E+03  0.00000000000E+00 0. -1.
         21   -1    0    0  502  503 -0.00000000000E+00 -0.00000000000E+00 -0.26410602884E+03  0.26410602884E+03  0.00000000000E+00 0. -1.
          6    1    1    2  501    0  0.51633689042E+02 -0.24665151459E+02  0.35069575032E+02  0.18463012385E+03  0.17200000000E+03 0. -1.
         -6    1    1    2    0  503 -0.51633689042E+02  0.24665151459E+02 -0.14593703581E+03  0.23271447304E+03  0.17200000000E+03 0. -1.
</event>
<event>
 4    1  0.1249554E+000  0.1741068E+03  0.7818608E-02  0.1173632E+00
         21   -1    0    0  503  502  0.00000000000E+00  0.00000000000E+00  0.16263491973E+03  0.16263491973E+03  0.00000000000E+00 0. -1.
         21   -1    0    0  501  503 -0.00000000000E+00 -0.00000000000E+00 -0.19576679789E+03  0.19576679789E+03  0.00000000000E+00 0. -1.
          6    1    1    2  501    0 -0.19952069344E+02  0.18196245491E+02 -0.55789357190E+02  0.18282680547E+03  0.17200000000E+03 0. -1.
         -6    1    1    2    0  502  0.19952069344E+02 -0.18196245491E+02  0.22657479033E+02  0.17557491215E+03  0.17200000000E+03 0. -1.
</event>
<event>
 4    1  0.1249554E+000  0.2071861E+03  0.7818608E-02  0.1143814E+00
         21   -1    0    0  503  502  0.00000000000E+00  0.00000000000E+00  0.20038770341E+02  0.20038770341E+02  0.00000000000E+00 0. -1.
         21   -1    0    0  501  503 -0.00000000000E+00 -0.00000000000E+00 -0.21485510887E+04  0.21485510887E+04  0.00000000000E+00 0. -1.
          6    1    1    2  501    0  0.91179781967E+02  0.70910607647E+02 -0.11234363090E+04  0.11423813756E+04  0.17200000000E+03 0.  1.
         -6    1    1    2    0  502 -0.91179781967E+02 -0.70910607647E+02 -0.10050760094E+04  0.10262084835E+04  0.17200000000E+03 0.  1.
</event>
<event>
 4    1  0.1249554E+000  0.2258712E+03  0.7818608E-02  0.1129580E+00
         21   -1    0    0  501  502  0.00000000000E+00  0.00000000000E+00  0.52416455413E+03  0.52416455413E+03  0.00000000000E+00 0. -1.
         21   -1    0    0  502  503 -0.00000000000E+00 -0.00000000000E+00 -0.97759224525E+02  0.97759224525E+02  0.00000000000E+00 0. -1.
          6    1    1    2  501    0 -0.57702608476E+02  0.13455187153E+03  0.19263723197E+03  0.29686175284E+03  0.17200000000E+03 0. -1.
         -6    1    1    2    0  503  0.57702608476E+02 -0.13455187153E+03  0.23376809764E+03  0.32506202582E+03  0.17200000000E+03 0. -1.
</event>
<event>
 4    1  0.1249554E+000  0.1960423E+03  0.7818608E-02  0.1153122E+00
         21   -1    0    0  501  502  0.00000000000E+00  0.00000000000E+00  0.27814922552E+03  0.27814922552E+03  0.00000000000E+00 0.  1.
         21   -1    0    0  502  503 -0.00000000000E+00 -0.00000000000E+00 -0.24166549811E+03  0.24166549811E+03  0.00000000000E+00 0.  1.
          6    1    1    2  501    0  0.90342334852E+02 -0.26207735407E+02  0.18832712099E+03  0.27184496935E+03  0.17200000000E+03 0.  1.
         -6    1    1    2    0  503 -0.90342334852E+02  0.26207735407E+02 -0.15184339358E+03  0.24796975428E+03  0.17200000000E+03 0.  1.
</event>
<event>
 4    1  0.1249554E+000  0.1846782E+03  0.7818608E-02  0.1163351E+00
         21   -1    0    0  503  502  0.00000000000E+00  0.00000000000E+00  0.45246942212E+02  0.45246942212E+02  0.00000000000E+00 0.  1.
         21   -1    0    0  501  503 -0.00000000000E+00 -0.00000000000E+00 -0.10388557526E+04  0.10388557526E+04  0.00000000000E+00 0.  1.
          6    1    1    2  501    0 -0.17201081012E+02 -0.65008954996E+02 -0.78075729198E+03  0.80230168291E+03  0.17200000000E+03 0.  1.
         -6    1    1    2    0  502  0.17201081012E+02  0.65008954996E+02 -0.21285151838E+03  0.28180101187E+03  0.17200000000E+03 0.  1.
</event>
<event>
 4    1  0.1249554E+000  0.2119390E+03  0.7818608E-02  0.1140040E+00
         21   -1    0    0  501  502  0.00000000000E+00  0.00000000000E+00  0.38432123758E+03  0.38432123758E+03  0.00000000000E+00 0.  1.
         21   -1    0    0  502  503 -0.00000000000E+00 -0.00000000000E+00 -0.77035592734E+03  0.77035592734E+03  0.00000000000E+00 0. -1.
          6    1    1    2  501    0  0.80227929824E+02 -0.94327247330E+02  0.33872445586E+03  0.39956527290E+03  0.17200000000E+03 0.  1.
         -6    1    1    2    0  503 -0.80227929824E+02  0.94327247330E+02 -0.72475914562E+03  0.75511189202E+03  0.17200000000E+03 0. -1.
</event>
<event>
 4    1  0.1249554E+000  0.3009401E+03  0.7818608E-02  0.1084772E+00
         21   -1    0    0  501  502  0.00000000000E+00  0.00000000000E+00  0.55276818129E+03  0.55276818129E+03  0.00000000000E+00 0. -1.
         21   -1    0    0  502  503 -0.00000000000E+00 -0.00000000000E+00 -0.21081415552E+03  0.21081415552E+03  0.00000000000E+00 0.  1.
          6    1    1    2  501    0 -0.19642021829E+03 -0.14966652187E+03  0.35120002412E+03  0.46250019120E+03  0.17200000000E+03 0. -1.
         -6    1    1    2    0  503  0.19642021829E+03  0.14966652187E+03 -0.92459983512E+01  0.30108214561E+03  0.17200000000E+03 0.  1.
</event>
<event>
 4    1  0.1249554E+000  0.1786634E+03  0.7818608E-02  0.1169103E+00
         21   -1    0    0  501  502  0.00000000000E+00  0.00000000000E+00  0.34209200788E+03  0.34209200788E+03  0.00000000000E+00 0. -1.
         21   -1    0    0  502  503 -0.00000000000E+00 -0.00000000000E+00 -0.11590500479E+03  0.11590500479E+03  0.00000000000E+00 0. -1.
          6    1    1    2  501    0  0.79038555661E+01  0.47687803339E+02  0.21420207692E+03  0.27893211947E+03  0.17200000000E+03 0. -1.
         -6    1    1    2    0  503 -0.79038555661E+01 -0.47687803339E+02  0.11984926172E+02  0.17906489320E+03  0.17200000000E+03 0. -1.
</event>
<event>
 4    1  0.1249554E+000  0.3316095E+03  0.7818608E-02  0.1070427E+00
         21   -1    0    0  501  502  0.00000000000E+00  0.00000000000E+00  0.67659719184E+03  0.67659719184E+03  0.00000000000E+00 0. -1.
         21   -1    0    0  502  503 -0.00000000000E+00 -0.00000000000E+00 -0.23508151115E+03  0.23508151115E+03  0.00000000000E+00 0.  1.
          6    1    1    2  501    0 -0.38603188214E+02 -0.28087474805E+03  0.47400053001E+03  0.57848192079E+03  0.17200000000E+03 0. -1.
         -6    1    1    2    0  503  0.38603188214E+02  0.28087474805E+03 -0.32484849320E+02  0.33319678220E+03  0.17200000000E+03 0.  1.
</event>
<event>
 4    1  0.1249554E+000  0.3124274E+03  0.7818608E-02  0.1079188E+00
         21   -1    0    0  501  502  0.00000000000E+00  0.00000000000E+00  0.71296210260E+03  0.71296210260E+03  0.00000000000E+00 0.  1.
         21   -1    0    0  502  503 -0.00000000000E+00 -0.00000000000E+00 -0.16196850824E+03  0.16196850824E+03  0.00000000000E+00 0. -1.
          6    1    1    2  501    0  0.24166362083E+03 -0.98110096849E+02  0.10342290480E+03  0.32910058337E+03  0.17200000000E+03 0.  1.
         -6    1    1    2    0  503 -0.24166362083E+03  0.98110096849E+02  0.44757068956E+03  0.54583002747E+03  0.17200000000E+03 0. -1.
</event>
<event>
 4    1  0.1249554E+000  0.2457918E+03  0.7818608E-02  0.1115994E+00
         21   -1    0    0  501  502  0.00000000000E+00  0.00000000000E+00  0.63510883063E+02  0.63510883063E+02  0.00000000000E+00 0.  1.
         21   -1    0    0  502  503 -0.00000000000E+00 -0.00000000000E+00 -0.99896156928E+03  0.99896156928E+03  0.00000000000E+00 0.  1.
          6    1    1    2  501    0  0.10275036825E+03 -0.14237966396E+03 -0.58384491700E+03  0.63347335697E+03  0.17200000000E+03 0.  1.
         -6    1    1    2    0  503 -0.10275036825E+03  0.14237966396E+03 -0.35160576922E+03  0.42899909537E+03  0.17200000000E+03 0.  1.
</event>
<event>
 4    1  0.1249554E+000  0.1830463E+03  0.7818608E-02  0.1164887E+00
         21   -1    0    0  503  502  0.00000000000E+00  0.00000000000E+00  0.20089385609E+04  0.20089385609E+04  0.00000000000E+00 0. -1.
         21   -1    0    0  501  503 -0.00000000000E+00 -0.00000000000E+00 -0.23190728826E+02  0.23190728826E+02  0.00000000000E+00 0. -1.
          6    1    1    2  501    0  0.48002635980E+02 -0.40220641692E+02  0.45444161771E+03  0.48992156208E+03  0.17200000000E+03 0. -1.
         -6    1    1    2    0  502 -0.48002635980E+02  0.40220641692E+02  0.15313062143E+04  0.15422077276E+04  0.17200000000E+03 0. -1.
</event>
<event>
 4    1  0.1249554E+000  0.2920841E+03  0.7818608E-02  0.1089266E+00
         21   -1    0    0  501  502  0.00000000000E+00  0.00000000000E+00  0.99951134985E+03  0.99951134985E+03  0.00000000000E+00 0. -1.
         21   -1    0    0  502  503 -0.00000000000E+00 -0.00000000000E+00 -0.11549315688E+03  0.11549315688E+03  0.00000000000E+00 0. -1.
          6    1    1    2  501    0 -0.14631520515E+03 -0.18525930694E+03  0.72680114750E+03  0.78329627733E+03  0.17200000000E+03 0. -1.
         -6    1    1    2    0  503  0.14631520515E+03  0.18525930694E+03  0.15721704547E+03  0.33170822940E+03  0.17200000000E+03 0. -1.
</event>
<event>
 4    1  0.1249554E+000  0.3659691E+03  0.7818608E-02  0.1056245E+00
         21   -1    0    0  501  502  0.00000000000E+00  0.00000000000E+00  0.36846340547E+03  0.36846340547E+03  0.00000000000E+00 0.  1.
         21   -1    0    0  502  503 -0.00000000000E+00 -0.00000000000E+00 -0.36633707836E+03  0.36633707836E+03  0.00000000000E+00 0. -1.
          6    1    1    2  501    0  0.29341040794E+03  0.13512849014E+03  0.33442784997E+02  0.36749394037E+03  0.17200000000E+03 0. -1.
         -6    1    1    2    0  503 -0.29341040794E+03 -0.13512849014E+03 -0.31316457892E+02  0.36730654346E+03  0.17200000000E+03 0. -1.
</event>
<event>
 4    1  0.1249554E+000  0.1929113E+03  0.7818608E-02  0.1155861E+00
         21   -1    0    0  501  502  0.00000000000E+00  0.00000000000E+00  0.25406015817E+03  0.25406015817E+03  0.00000000000E+00 0.  1.
         21   -1    0    0  502  503 -0.00000000000E+00 -0.00000000000E+00 -0.18629244212E+03  0.18629244212E+03  0.00000000000E+00 0.  1.
          6    1    1    2  501    0 -0.83410721060E+02  0.25950099997E+02  0.13566840385E+03  0.23584035253E+03  0.17200000000E+03 0.  1.
         -6    1    1    2    0  503  0.83410721060E+02 -0.25950099997E+02 -0.67900687809E+02  0.20451224776E+03  0.17200000000E+03 0.  1.
</event>
<event>
 4    1  0.1249554E+000  0.1795053E+03  0.7818608E-02  0.1168283E+00
         21   -1    0    0  503  502  0.00000000000E+00  0.00000000000E+00  0.24103721627E+03  0.24103721627E+03  0.00000000000E+00 0.  1.
         21   -1    0    0  501  503 -0.00000000000E+00 -0.00000000000E+00 -0.17270564748E+03  0.17270564748E+03  0.00000000000E+00 0.  1.
          6    1    1    2  501    0  0.19859277195E+02 -0.47368366717E+02 -0.64170870415E+02  0.19063067347E+03  0.17200000000E+03 0.  1.
         -6    1    1    2    0  502 -0.19859277195E+02  0.47368366717E+02  0.13250243921E+03  0.22311219028E+03  0.17200000000E+03 0.  1.
</event>
<event>
 4    1  0.1249554E+000  0.1730087E+03  0.7818608E-02  0.1174746E+00
         21   -1    0    0  503  502  0.00000000000E+00  0.00000000000E+00  0.16459073076E+03  0.16459073076E+03  0.00000000000E+00 0. -1.
         21   -1    0    0  501  503 -0.00000000000E+00 -0.00000000000E+00 -0.18185715765E+03  0.18185715765E+03  0.00000000000E+00 0. -1.
          6    1    1    2  501    0 -0.17402202321E+01  0.18573248915E+02 -0.87256896940E+01  0.17322855308E+03  0.17200000000E+03 0. -1.
         -6    1    1    2    0  502  0.17402202321E+01 -0.18573248915E+02 -0.85407371954E+01  0.17321933533E+03  0.17200000000E+03 0. -1.
</event>
<event>
 4    1  0.1249554E+000  0.1962794E+03  0.7818608E-02  0.1152917E+00
         21   -1    0    0  501  502  0.00000000000E+00  0.00000000000E+00  0.98071426956E+03  0.98071426956E+03  0.00000000000E+00 0. -1.
         21   -1    0    0  502  503 -0.00000000000E+00 -0.00000000000E+00 -0.45390937214E+02  0.45390937214E+02  0.00000000000E+00 0. -1.
          6    1    1    2  501    0  0.75490047582E+02  0.56946164985E+02  0.65586045869E+03  0.68460101830E+03  0.17200000000E+03 0. -1.
         -6    1    1    2    0  503 -0.75490047582E+02 -0.56946164985E+02  0.27946287366E+03  0.34150418847E+03  0.17200000000E+03 0. -1.
</event>
<event>
 4    1  0.1249554E+000  0.2704024E+03  0.7818608E-02  0.1101050E+00
         21   -1    0    0  503  502  0.00000000000E+00  0.00000000000E+00  0.62734863222E+03  0.62734863222E+03  0.00000000000E+00 0. -1.
         21   -1    0    0  501  503 -0.00000000000E+00 -0.00000000000E+00 -0.34970443042E+03  0.34970443042E+03  0.00000000000E+00 0.  1.
          6    1    1    2  501    0 -0.19694241850E+03  0.68899461683E+02 -0.26007370478E+03  0.37517433807E+03  0.17200000000E+03 0.  1.
         -6    1    1    2    0  502  0.19694241850E+03 -0.68899461683E+02  0.53771790658E+03  0.60187872457E+03  0.17200000000E+03 0. -1.
</event>
<event>
 4    1  0.1249554E+000  0.1911532E+03  0.7818608E-02  0.1157425E+00
         21   -1    0    0  501  502  0.00000000000E+00  0.00000000000E+00  0.93148125627E+02  0.93148125627E+02  0.00000000000E+00 0. -1.
         21   -1    0    0  502  503 -0.00000000000E+00 -0.00000000000E+00 -0.58353851619E+03  0.58353851619E+03  0.00000000000E+00 0. -1.
          6    1    1    2  501    0 -0.69431731548E+02  0.46203550016E+02 -0.51490248781E+02  0.19796661107E+03  0.17200000000E+03 0.  1.
         -6    1    1    2    0  503  0.69431731548E+02 -0.46203550016E+02 -0.43890014178E+03  0.47872003074E+03  0.17200000000E+03 0.  1.
</event>
<event>
 4    1  0.1249554E+000  0.1723662E+03  0.7818608E-02  0.1175402E+00
         21   -1    0    0  501  502  0.00000000000E+00  0.00000000000E+00  0.48568671427E+03  0.48568671427E+03  0.00000000000E+00 0.  1.
         21   -1    0    0  502  503 -0.00000000000E+00 -0.00000000000E+00 -0.61712796107E+02  0.61712796107E+02  0.00000000000E+00 0.  1.
          6    1    1    2  501    0  0.31267665855E+01 -0.10785975149E+02  0.18635021830E+03  0.25384349074E+03  0.17200000000E+03 0. -1.
         -6    1    1    2    0  503 -0.31267665855E+01  0.10785975149E+02  0.23762369986E+03  0.29355601963E+03  0.17200000000E+03 0. -1.
</event>
<event>
 4    1  0.1249554E+000  0.1932044E+03  0.7818608E-02  0.1155602E+00
         21   -1    0    0  503  502  0.00000000000E+00  0.00000000000E+00  0.31847992763E+03  0.31847992763E+03  0.00000000000E+00 0. -1.
         21   -1    0    0  501  503 -0.00000000000E+00 -0.00000000000E+00 -0.17131007376E+03  0.17131007376E+03  0.00000000000E+00 0. -1.
          6    1    1    2  501    0 -0.85157241901E+02 -0.22185418042E+02  0.21121110657E+03  0.28624828412E+03  0.17200000000E+03 0. -1.
         -6    1    1    2    0  502  0.85157241901E+02  0.22185418042E+02 -0.64041252706E+02  0.20354171727E+03  0.17200000000E+03 0. -1.
</event>
<event>
 4    1  0.1249554E+000  0.2205695E+03  0.7818608E-02  0.1133459E+00
         21   -1    0    0  501  502  0.00000000000E+00  0.00000000000E+00  0.15348522083E+03  0.15348522083E+03  0.00000000000E+00 0.  1.
         21   -1    0    0  502  503 -0.00000000000E+00 -0.00000000000E+00 -0.33377822225E+03  0.33377822225E+03  0.00000000000E+00 0.  1.
          6    1    1    2  501    0  0.78208874126E+02  0.11379921264E+03 -0.35481592690E+02  0.22340508546E+03  0.17200000000E+03 0.  1.
         -6    1    1    2    0  503 -0.78208874126E+02 -0.11379921264E+03 -0.14481140873E+03  0.26385835762E+03  0.17200000000E+03 0.  1.
</event>
<event>
 4    1  0.1249554E+000  0.2164315E+03  0.7818608E-02  0.1136572E+00
         21   -1    0    0  503  502  0.00000000000E+00  0.00000000000E+00  0.73357904809E+03  0.73357904809E+03  0.00000000000E+00 0. -1.
         21   -1    0    0  501  503 -0.00000000000E+00 -0.00000000000E+00 -0.11904327797E+03  0.11904327797E+03  0.00000000000E+00 0. -1.
          6    1    1    2  501    0 -0.13121292855E+03 -0.64616549683E+01  0.17000494711E+02  0.21709814007E+03  0.17200000000E+03 0. -1.
         -6    1    1    2    0  502  0.13121292855E+03  0.64616549683E+01  0.59753527541E+03  0.63552418598E+03  0.17200000000E+03 0. -1.
</event>
<event>
 4    1  0.1249554E+000  0.2046530E+03  0.7818608E-02  0.1145872E+00
         21   -1    0    0  503  502  0.00000000000E+00  0.00000000000E+00  0.47985891467E+03  0.47985891467E+03  0.00000000000E+00 0. -1.
         21   -1    0    0  501  503 -0.00000000000E+00 -0.00000000000E+00 -0.87819448165E+02  0.87819448165E+02  0.00000000000E+00 0. -1.
          6    1    1    2  501    0 -0.10640240915E+03 -0.31263292869E+02  0.17380728220E+03  0.26849923185E+03  0.17200000000E+03 0.  1.
         -6    1    1    2    0  502  0.10640240915E+03  0.31263292869E+02  0.21823218430E+03  0.29917913099E+03  0.17200000000E+03 0.  1.
</event>
<event>
 4    1  0.1249554E+000  0.1750185E+03  0.7818608E-02  0.1172713E+00
         21   -1    0    0  503  502  0.00000000000E+00  0.00000000000E+00  0.22531468710E+03  0.22531468710E+03  0.00000000000E+00 0.  1.
         21   -1    0    0  501  503 -0.00000000000E+00 -0.00000000000E+00 -0.14091112582E+03  0.14091112582E+03  0.00000000000E+00 0.  1.
          6    1    1    2  501    0  0.23039480945E+02  0.22729776493E+02  0.78420079083E+01  0.17519405672E+03  0.17200000000E+03 0. -1.
         -6    1    1    2    0  502 -0.23039480945E+02 -0.22729776493E+02  0.76561553373E+02  0.19103175620E+03  0.17200000000E+03 0. -1.
</event>
<event>
 4    1  0.1249554E+000  0.1725520E+03  0.7818608E-02  0.1175212E+00
         21   -1    0    0  503  502  0.00000000000E+00  0.00000000000E+00  0.14127367005E+04  0.14127367005E+04  0.00000000000E+00 0. -1.
         21   -1    0    0  501  503 -0.00000000000E+00 -0.00000000000E+00 -0.51272409290E+02  0.51272409290E+02  0.00000000000E+00 0. -1.
          6    1    1    2  501    0 -0.49032515787E+01 -0.12889931894E+02  0.11896949265E+03  0.20958991484E+03  0.17200000000E+03 0. -1.
         -6    1    1    2    0  502  0.49032515787E+01  0.12889931894E+02  0.12424947986E+04  0.12544191950E+04  0.17200000000E+03 0. -1.
</event>
<event>
 4    1  0.1249554E+000  0.2742065E+03  0.7818608E-02  0.1098896E+00
         21   -1    0    0  501  502  0.00000000000E+00  0.00000000000E+00  0.14233611838E+03  0.14233611838E+03  0.00000000000E+00 0. -1.
         21   -1    0    0  502  503 -0.00000000000E+00 -0.00000000000E+00 -0.67217665742E+03  0.67217665742E+03  0.00000000000E+00 0. -1.
          6    1    1    2  501    0  0.15741933091E+03 -0.14430648612E+03 -0.45336985569E+03  0.52984283870E+03  0.17200000000E+03 0.  1.
         -6    1    1    2    0  503 -0.15741933091E+03  0.14430648612E+03 -0.76470683352E+02  0.28466993710E+03  0.17200000000E+03 0.  1.
</event>
<event>
 4    1  0.1249554E+000  0.2665490E+03  0.7818608E-02  0.1103271E+00
         21   -1    0    0  501  502  0.00000000000E+00  0.00000000000E+00  0.86031813322E+03  0.86031813322E+03  0.00000000000E+00 0. -1.
         21   -1    0    0  502  503 -0.00000000000E+00 -0.00000000000E+00 -0.98863416310E+02  0.98863416310E+02  0.00000000000E+00 0.  1.
          6    1    1    2  501    0  0.20358549278E+03 -0.41631682409E+01  0.57534150721E+03  0.63408692997E+03  0.17200000000E+03 0.  1.
         -6    1    1    2    0  503 -0.20358549278E+03  0.41631682409E+01  0.18611320970E+03  0.32509461956E+03  0.17200000000E+03 0.  1.
</event>
<event>
 4    1  0.1249554E+000  0.2726422E+03  0.7818608E-02  0.1099777E+00
         21   -1    0    0  501  502  0.00000000000E+00  0.00000000000E+00  0.35957924522E+03  0.35957924522E+03  0.00000000000E+00 0. -1.
         21   -1    0    0  502  503 -0.00000000000E+00 -0.00000000000E+00 -0.68263653897E+03  0.68263653897E+03  0.00000000000E+00 0.  1.
          6    1    1    2  501    0  0.29862016876E+02  0.20942305741E+03  0.27357861896E+03  0.38623699691E+03  0.17200000000E+03 0. -1.
         -6    1    1    2    0  503 -0.29862016876E+02 -0.20942305741E+03 -0.59663591272E+03  0.65597878729E+03  0.17200000000E+03 0.  1.
</event>
<event>
 4    1  0.1249554E+000  0.1930813E+03  0.7818608E-02  0.1155711E+00
         21   -1    0    0  501  502  0.00000000000E+00  0.00000000000E+00  0.43617363499E+03  0.43617363499E+03  0.00000000000E+00 0.  1.
         21   -1    0    0  502  503 -0.00000000000E+00 -0.00000000000E+00 -0.99590121190E+02  0.99590121190E+02  0.00000000000E+00 0.  1.
          6    1    1    2  501    0 -0.85624436403E+02 -0.19100976156E+02  0.26915482493E+03  0.33124720555E+03  0.17200000000E+03 0.  1.
         -6    1    1    2    0  503  0.85624436403E+02  0.19100976156E+02  0.67428688867E+02  0.20451655063E+03  0.17200000000E+03 0.  1.
</event>
<event>
 4    1  0.1249554E+000  0.3777648E+03  0.7818608E-02  0.1051763E+00
         21   -1    0    0  503  502  0.00000000000E+00  0.00000000000E+00  0.84043311879E+03  0.84043311879E+03  0.00000000000E+00 0.  1.
         21   -1    0    0  501  503 -0.00000000000E+00 -0.00000000000E+00 -0.17454246851E+03  0.17454246851E+03  0.00000000000E+00 0. -1.
          6    1    1    2  501    0 -0.14385280274E+03 -0.30402076744E+03  0.24930061893E+03  0.45261137247E+03  0.17200000000E+03 0. -1.
         -6    1    1    2    0  502  0.14385280274E+03  0.30402076744E+03  0.41659003135E+03  0.56236421482E+03  0.17200000000E+03 0. -1.
</event>
<event>
 4    1  0.1249554E+000  0.2034889E+03  0.7818608E-02  0.1146828E+00
         21   -1    0    0  501  502  0.00000000000E+00  0.00000000000E+00  0.85622536993E+03  0.85622536993E+03  0.00000000000E+00 0.  1.
         21   -1    0    0  502  503 -0.00000000000E+00 -0.00000000000E+00 -0.20178946107E+03  0.20178946107E+03  0.00000000000E+00 0. -1.
          6    1    1    2  501    0 -0.96886711564E+02 -0.49362735974E+02  0.78849921903E+03  0.81433330583E+03  0.17200000000E+03 0.  1.
         -6    1    1    2    0  503  0.96886711564E+02  0.49362735974E+02 -0.13406331016E+03  0.24368152517E+03  0.17200000000E+03 0. -1.
</event>
<event>
 4    1  0.1249554E+000  0.2589279E+03  0.7818608E-02  0.1107789E+00
         21   -1    0    0  503  502  0.00000000000E+00  0.00000000000E+00  0.30148318859E+03  0.30148318859E+03  0.00000000000E+00 0.  1.
         21   -1    0    0  501  503 -0.00000000000E+00 -0.00000000000E+00 -0.24184973957E+03  0.24184973957E+03  0.00000000000E+00 0. -1.
          6    1    1    2  501    0  0.19156385598E+03  0.27621352313E+02 -0.47264747924E+02  0.26320639509E+03  0.17200000000E+03 0. -1.
         -6    1    1    2    0  502 -0.19156385598E+03 -0.27621352313E+02  0.10689819695E+03  0.28012653307E+03  0.17200000000E+03 0. -1.
</event>
<event>
 4    1  0.1249554E+000  0.3081503E+03  0.7818608E-02  0.1081236E+00
         21   -1    0    0  503  502  0.00000000000E+00  0.00000000000E+00  0.52277487360E+03  0.52277487360E+03  0.00000000000E+00 0. -1.
         21   -1    0    0  501  503 -0.00000000000E+00 -0.00000000000E+00 -0.22836535628E+03  0.22836535628E+03  0.00000000000E+00 0. -1.
          6    1    1    2  501    0 -0.39911486100E+02  0.25254644718E+03 -0.22679815604E+02  0.30898383249E+03  0.17200000000E+03 0. -1.
         -6    1    1    2    0  502  0.39911486100E+02 -0.25254644718E+03  0.31708933292E+03  0.44215639740E+03  0.17200000000E+03 0. -1.
</event>
<event>
 4    1  0.1249554E+000  0.1929248E+03  0.7818608E-02  0.1155850E+00
         21   -1    0    0  503  502  0.00000000000E+00  0.00000000000E+00  0.13804518389E+03  0.13804518389E+03  0.00000000000E+00 0.  1.
         21   -1    0    0  501  503 -0.00000000000E+00 -0.00000000000E+00 -0.34714776786E+03  0.34714776786E+03  0.00000000000E+00 0.  1.
          6    1    1    2  501    0 -0.53005454036E+02 -0.69472282556E+02 -0.21919525677E+03  0.29200434379E+03  0.17200000000E+03 0. -1.
         -6    1    1    2    0  502  0.53005454036E+02  0.69472282556E+02  0.10092672802E+02  0.19318860796E+03  0.17200000000E+03 0. -1.
</event>
<event>
 4    1  0.1249554E+000  0.4203388E+03  0.7818608E-02  0.1036956E+00
         21   -1    0    0  503  502  0.00000000000E+00  0.00000000000E+00  0.37813663773E+04  0.37813663773E+04  0.00000000000E+00 0. -1.
         21   -1    0    0  501  503 -0.00000000000E+00 -0.00000000000E+00 -0.47165387952E+02  0.47165387952E+02  0.00000000000E+00 0.  1.
          6    1    1    2  501    0  0.40896285962E+02 -0.38135053817E+03  0.20520515147E+04  0.20946599147E+04  0.17200000000E+03 0. -1.
         -6    1    1    2    0  502 -0.40896285962E+02  0.38135053817E+03  0.16821494746E+04  0.17338718506E+04  0.17200000000E+03 0. -1.
</event>
<event>
 4    1  0.1249554E+000  0.3625802E+03  0.7818608E-02  0.1057567E+00
         21   -1    0    0  501  502  0.00000000000E+00  0.00000000000E+00  0.21924177689E+03  0.21924177689E+03  0.00000000000E+00 0. -1.
         21   -1    0    0  502  503 -0.00000000000E+00 -0.00000000000E+00 -0.60231681638E+03  0.60231681638E+03  0.00000000000E+00 0.  1.
          6    1    1    2  501    0 -0.24268761788E+03 -0.20732363843E+03 -0.16411176426E+03  0.39799125881E+03  0.17200000000E+03 0.  1.
         -6    1    1    2    0  503  0.24268761788E+03  0.20732363843E+03 -0.21896327524E+03  0.42356733446E+03  0.17200000000E+03 0.  1.
</event>
<event>
 4    1  0.1249554E+000  0.1840298E+03  0.7818608E-02  0.1163959E+00
         21   -1    0    0  501  502  0.00000000000E+00  0.00000000000E+00  0.29157495907E+03  0.29157495907E+03  0.00000000000E+00 0.  1.
         21   -1    0    0  502  503 -0.00000000000E+00 -0.00000000000E+00 -0.13250270869E+03  0.13250270869E+03  0.00000000000E+00 0.  1.
          6    1    1    2  501    0 -0.18329938013E+02  0.62824990688E+02  0.15402193288E+03  0.23997858631E+03  0.17200000000E+03 0. -1.
         -6    1    1    2    0  503  0.18329938013E+02 -0.62824990688E+02  0.50503175110E+01  0.18409908145E+03  0.17200000000E+03 0. -1.
</event>
<event>
 4    1  0.1249554E+000  0.2153575E+03  0.7818608E-02  0.1137392E+00
         21   -1    0    0  501  502  0.00000000000E+00  0.00000000000E+00  0.40889544225E+03  0.40889544225E+03  0.00000000000E+00 0.  1.
         21   -1    0    0  502  503 -0.00000000000E+00 -0.00000000000E+00 -0.12298182042E+03  0.12298182042E+03  0.00000000000E+00 0.  1.
          6    1    1    2  501    0 -0.73916814510E+02 -0.10644782535E+03  0.21709209185E+03  0.30579046965E+03  0.17200000000E+03 0.  1.
         -6    1    1    2    0  503  0.73916814510E+02  0.10644782535E+03  0.68821529980E+02  0.22608679302E+03  0.17200000000E+03 0.  1.
</event>
<event>
 4    1  0.1249554E+000  0.3489271E+03  0.7818608E-02  0.1063056E+00
         21   -1    0    0  501  502  0.00000000000E+00  0.00000000000E+00  0.17733485408E+03  0.17733485408E+03  0.00000000000E+00 0. -1.
         21   -1    0    0  502  503 -0.00000000000E+00 -0.00000000000E+00 -0.73191615724E+03  0.73191615724E+03  0.00000000000E+00 0. -1.
          6    1    1    2  501    0  0.23113437611E+03  0.19683247977E+03 -0.16411178248E+03  0.38559408976E+03  0.17200000000E+03 0. -1.
         -6    1    1    2    0  503 -0.23113437611E+03 -0.19683247977E+03 -0.39046952068E+03  0.52365692156E+03  0.17200000000E+03 0. -1.
</event>
<event>
 4    1  0.1249554E+000  0.1727231E+03  0.7818608E-02  0.1175037E+00
         21   -1    0    0  501  502  0.00000000000E+00  0.00000000000E+00  0.45433019633E+02  0.45433019633E+02  0.00000000000E+00 0.  1.
         21   -1    0    0  502  503 -0.00000000000E+00 -0.00000000000E+00 -0.75954990069E+03  0.75954990069E+03  0.00000000000E+00 0.  1.
          6    1    1    2  501    0 -0.13634195027E+02 -0.79620154229E+01 -0.20890891360E+03  0.27106497218E+03  0.17200000000E+03 0.  1.
         -6    1    1    2    0  503  0.13634195027E+02  0.79620154229E+01 -0.50520796746E+03  0.53391794814E+03  0.17200000000E+03 0.  1.
</event>
<event>
 4    1  0.1249554E+000  0.2928529E+03  0.7818608E-02  0.1088869E+00
         21   -1    0    0  501  502  0.00000000000E+00  0.00000000000E+00  0.44809869034E+03  0.44809869034E+03  0.00000000000E+00 0. -1.
         21   -1    0    0  502  503 -0.00000000000E+00 -0.00000000000E+00 -0.19649146443E+03  0.19649146443E+03  0.00000000000E+00 0. -1.
          6    1    1    2  501    0 -0.20340072036E+03  0.12168394757E+03  0.17772097257E+03  0.34256033079E+03  0.17200000000E+03 0.  1.
         -6    1    1    2    0  503  0.20340072036E+03 -0.12168394757E+03  0.73886253344E+02  0.30202982398E+03  0.17200000000E+03 0.  1.
</event>
<event>
 4    1  0.1249554E+000  0.1966165E+03  0.7818608E-02  0.1152625E+00
         21   -1    0    0  503  502  0.00000000000E+00  0.00000000000E+00  0.35228518237E+02  0.35228518237E+02  0.00000000000E+00 0.  1.
         21   -1    0    0  501  503 -0.00000000000E+00 -0.00000000000E+00 -0.11011692666E+04  0.11011692666E+04  0.00000000000E+00 0.  1.
          6    1    1    2  501    0  0.81821825688E+02  0.48777562106E+02 -0.49951336756E+03  0.53681623121E+03  0.17200000000E+03 0.  1.
         -6    1    1    2    0  502 -0.81821825688E+02 -0.48777562106E+02 -0.56642738083E+03  0.59958155365E+03  0.17200000000E+03 0.  1.
</event>
<event>
 4    1  0.1249554E+000  0.2903125E+03  0.7818608E-02  0.1090186E+00
         21   -1    0    0  501  502  0.00000000000E+00  0.00000000000E+00  0.82398389015E+03  0.82398389015E+03  0.00000000000E+00 0. -1.
         21   -1    0    0  502  503 -0.00000000000E+00 -0.00000000000E+00 -0.10231032188E+03  0.10231032188E+03  0.00000000000E+00 0.  1.
          6    1    1    2  501    0 -0.19664018621E+03  0.12660950765E+03  0.36809894125E+03  0.46880503497E+03  0.17200000000E+03 0. -1.
         -6    1    1    2    0  503  0.19664018621E+03 -0.12660950765E+03  0.35357462701E+03  0.45748917706E+03  0.17200000000E+03 0. -1.
</event>
<event>
 4    1  0.1249554E+000  0.2088920E+03  0.7818608E-02  0.1142446E+00
         21   -1    0    0  501  502  0.00000000000E+00  0.00000000000E+00  0.29477038183E+02  0.29477038183E+02  0.00000000000E+00 0. -1.
         21   -1    0    0  502  503 -0.00000000000E+00 -0.00000000000E+00 -0.14806951504E+04  0.14806951504E+04  0.00000000000E+00 0.  1.
          6    1    1    2  501    0  0.74067095860E+02  0.92552234767E+02 -0.73740769136E+03  0.76642413462E+03  0.17200000000E+03 0.  1.
         -6    1    1    2    0  503 -0.74067095860E+02 -0.92552234767E+02 -0.71381042083E+03  0.74374805394E+03  0.17200000000E+03 0. -1.
</event>
<event>
 4    1  0.1249554E+000  0.4293588E+03  0.7818608E-02  0.1034063E+00
         21   -1    0    0  501  502  0.00000000000E+00  0.00000000000E+00  0.22172596551E+03  0.22172596551E+03  0.00000000000E+00 0. -1.
         21   -1    0    0  502  503 -0.00000000000E+00 -0.00000000000E+00 -0.11395995240E+04  0.11395995240E+04  0.00000000000E+00 0. -1.
          6    1    1    2  501    0 -0.33807921647E+03  0.20116511598E+03 -0.10497791806E+03  0.44200602233E+03  0.17200000000E+03 0. -1.
         -6    1    1    2    0  503  0.33807921647E+03 -0.20116511598E+03 -0.81289564042E+03  0.91931946717E+03  0.17200000000E+03 0. -1.
</event>
<event>
 4    1  0.1249554E+000  0.1912755E+03  0.7818608E-02  0.1157316E+00
         21   -1    0    0  503  502  0.00000000000E+00  0.00000000000E+00  0.11686298875E+03  0.11686298875E+03  0.00000000000E+00 0. -1.
         21   -1    0    0  501  503 -0.00000000000E+00 -0.00000000000E+00 -0.38394310745E+03  0.38394310745E+03  0.00000000000E+00 0. -1.
          6    1    1    2  501    0 -0.78500562551E+02 -0.28982156191E+02 -0.24112381624E+03  0.30777751454E+03  0.17200000000E+03 0. -1.
         -6    1    1    2    0  502  0.78500562551E+02  0.28982156191E+02 -0.25956302461E+02  0.19302858165E+03  0.17200000000E+03 0. -1.
</event>
<event>
 4    1  0.1249554E+000  0.1832638E+03  0.7818608E-02  0.1164681E+00
         21   -1    0    0  503  502  0.00000000000E+00  0.00000000000E+00  0.18479381578E+03  0.18479381578E+03  0.00000000000E+00 0. -1.
         21   -1    0    0  501  503 -0.00000000000E+00 -0.00000000000E+00 -0.19889344564E+03  0.19889344564E+03  0.00000000000E+00 0. -1.
          6    1    1    2  501    0 -0.42684680438E+02  0.46686698951E+02 -0.63378614511E+02  0.19391358534E+03  0.17200000000E+03 0. -1.
         -6    1    1    2    0  502  0.42684680438E+02 -0.46686698951E+02  0.49278984651E+02  0.18977367608E+03  0.17200000000E+03 0. -1.
</event>
<event>
 4    1  0.1249554E+000  0.2256858E+03  0.7818608E-02  0.1129714E+00
         21   -1    0    0  503  502  0.00000000000E+00  0.00000000000E+00  0.26869969460E+04  0.26869969460E+04  0.00000000000E+00 0. -1.
         21   -1    0    0  501  503 -0.00000000000E+00 -0.00000000000E+00 -0.20244168914E+02  0.20244168914E+02  0.00000000000E+00 0.  1.
          6    1    1    2  501    0 -0.13297665430E+03  0.60558045771E+02  0.99188957803E+03  0.10172408773E+04  0.17200000000E+03 0. -1.
         -6    1    1    2    0  502  0.13297665430E+03 -0.60558045771E+02  0.16748631990E+04  0.16900002376E+04  0.17200000000E+03 0.  1.
</event>
<event>
 4    1  0.1249554E+000  0.1946771E+03  0.7818608E-02  0.1154309E+00
         21   -1    0    0  501  502  0.00000000000E+00  0.00000000000E+00  0.44758445447E+03  0.44758445447E+03  0.00000000000E+00 0. -1.
         21   -1    0    0  502  503 -0.00000000000E+00 -0.00000000000E+00 -0.89687021327E+02  0.89687021327E+02  0.00000000000E+00 0.  1.
          6    1    1    2  501    0  0.82780750982E+02 -0.38242864225E+02  0.24245398119E+03  0.31093906540E+03  0.17200000000E+03 0. -1.
         -6    1    1    2    0  503 -0.82780750982E+02  0.38242864225E+02  0.11544345195E+03  0.22633241040E+03  0.17200000000E+03 0.  1.
</event>
<event>
 4    1  0.1249554E+000  0.1864920E+03  0.7818608E-02  0.1161664E+00
         21   -1    0    0  503  502  0.00000000000E+00  0.00000000000E+00  0.76817349579E+03  0.76817349579E+03  0.00000000000E+00 0. -1.
         21   -1    0    0  501  503 -0.00000000000E+00 -0.00000000000E+00 -0.14614732333E+03  0.14614732333E+03  0.00000000000E+00 0. -1.
          6    1    1    2  501    0 -0.13697816448E+02 -0.70764668166E+02 -0.68790091527E+02  0.19877460886E+03  0.17200000000E+03 0. -1.
         -6    1    1    2    0  502  0.13697816448E+02  0.70764668166E+02  0.69081626399E+03  0.71554621027E+03  0.17200000000E+03 0. -1.
</event>
<event>
 4    1  0.1249554E+000  0.1827957E+03  0.7818608E-02  0.1165125E+00
         21   -1    0    0  501  502  0.00000000000E+00  0.00000000000E+00  0.46352555511E+03  0.46352555511E+03  0.00000000000E+00 0.  1.
         21   -1    0    0  502  503 -0.00000000000E+00 -0.00000000000E+00 -0.74876413962E+02  0.74876413962E+02  0.00000000000E+00 0.  1.
          6    1    1    2  501    0  0.56663313953E+02  0.24890143509E+02  0.24628186801E+03  0.30670671480E+03  0.17200000000E+03 0. -1.
         -6    1    1    2    0  503 -0.56663313953E+02 -0.24890143509E+02  0.14236727313E+03  0.23169525427E+03  0.17200000000E+03 0. -1.
</event>
<event>
 4    1  0.1249554E+000  0.1723001E+03  0.7818608E-02  0.1175470E+00
         21   -1    0    0  503  502  0.00000000000E+00  0.00000000000E+00  0.27450761833E+03  0.27450761833E+03  0.00000000000E+00 0. -1.
         21   -1    0    0  501  503 -0.00000000000E+00 -0.00000000000E+00 -0.14271768152E+03  0.14271768152E+03  0.00000000000E+00 0. -1.
          6    1    1    2  501    0  0.94553963292E+01  0.37288276615E+01 -0.36777184763E+02  0.17618135541E+03  0.17200000000E+03 0.  1.
         -6    1    1    2    0  502 -0.94553963292E+01 -0.37288276615E+01  0.16856712157E+03  0.24104394444E+03  0.17200000000E+03 0.  1.
</event>
<event>
 4    1  0.1249554E+000  0.2321303E+03  0.7818608E-02  0.1125149E+00
         21   -1    0    0  501  502  0.00000000000E+00  0.00000000000E+00  0.52960330667E+03  0.52960330667E+03  0.00000000000E+00 0.  1.
         21   -1    0    0  502  503 -0.00000000000E+00 -0.00000000000E+00 -0.10400421286E+03  0.10400421286E+03  0.00000000000E+00 0.  1.
          6    1    1    2  501    0  0.13489097204E+03  0.78133951977E+02  0.16610745050E+03  0.28544031583E+03  0.17200000000E+03 0.  1.
         -6    1    1    2    0  503 -0.13489097204E+03 -0.78133951977E+02  0.25949164331E+03  0.34816720370E+03  0.17200000000E+03 0.  1.
</event>
<event>
 4    1  0.1249554E+000  0.1857697E+03  0.7818608E-02  0.1162333E+00
         21   -1    0    0  503  502  0.00000000000E+00  0.00000000000E+00  0.35924775456E+03  0.35924775456E+03  0.00000000000E+00 0. -1.
         21   -1    0    0  501  503 -0.00000000000E+00 -0.00000000000E+00 -0.13806734640E+03  0.13806734640E+03  0.00000000000E+00 0. -1.
          6    1    1    2  501    0 -0.54378925763E+02 -0.44377125062E+02  0.24774265384E+03  0.30965596931E+03  0.17200000000E+03 0. -1.
         -6    1    1    2    0  502  0.54378925763E+02  0.44377125062E+02 -0.26562245679E+02  0.18765913165E+03  0.17200000000E+03 0. -1.
</event>
<event>
 4    1  0.1249554E+000  0.2296766E+03  0.7818608E-02  0.1126868E+00
         21   -1    0    0  501  502  0.00000000000E+00  0.00000000000E+00  0.46373814462E+03  0.46373814462E+03  0.00000000000E+00 0.  1.
         21   -1    0    0  502  503 -0.00000000000E+00 -0.00000000000E+00 -0.13115797367E+03  0.13115797367E+03  0.00000000000E+00 0. -1.
          6    1    1    2  501    0  0.41238130669E+02 -0.14651538824E+03  0.27464722817E+03  0.35802575655E+03  0.17200000000E+03 0.  1.
         -6    1    1    2    0  503 -0.41238130669E+02  0.14651538824E+03  0.57932942787E+02  0.23687036174E+03  0.17200000000E+03 0. -1.
</event>
<event>
 4    1  0.1249554E+000  0.2148039E+03  0.7818608E-02  0.1137817E+00
         21   -1    0    0  503  502  0.00000000000E+00  0.00000000000E+00  0.49610089439E+02  0.49610089439E+02  0.00000000000E+00 0. -1.
         21   -1    0    0  501  503 -0.00000000000E+00 -0.00000000000E+00 -0.11004300492E+04  0.11004300492E+04  0.00000000000E+00 0. -1.
          6    1    1    2  501    0 -0.45970924937E+02  0.12018063306E+03 -0.29915955897E+03  0.36828949513E+03  0.17200000000E+03 0. -1.
         -6    1    1    2    0  502  0.45970924937E+02 -0.12018063306E+03 -0.75166040080E+03  0.78175064351E+03  0.17200000000E+03 0. -1.
</event>
<event>
 4    1  0.1249554E+000  0.2139853E+03  0.7818608E-02  0.1138448E+00
         21   -1    0    0  501  502  0.00000000000E+00  0.00000000000E+00  0.19852867774E+02  0.19852867774E+02  0.00000000000E+00 0. -1.
         21   -1    0    0  502  503 -0.00000000000E+00 -0.00000000000E+00 -0.23076795757E+04  0.23076795757E+04  0.00000000000E+00 0. -1.
          6    1    1    2  501    0 -0.12664586490E+03  0.12904234806E+02 -0.11707502766E+04  0.11901453291E+04  0.17200000000E+03 0. -1.
         -6    1    1    2    0  503  0.12664586490E+03 -0.12904234806E+02 -0.11170764313E+04  0.11373871143E+04  0.17200000000E+03 0. -1.
</event>
<event>
 4    1  0.1249554E+000  0.1790567E+03  0.7818608E-02  0.1168719E+00
         21   -1    0    0  503  502  0.00000000000E+00  0.00000000000E+00  0.30609841337E+03  0.30609841337E+03  0.00000000000E+00 0.  1.
         21   -1    0    0  501  503 -0.00000000000E+00 -0.00000000000E+00 -0.15737928220E+03  0.15737928220E+03  0.00000000000E+00 0.  1.
          6    1    1    2  501    0 -0.16104767764E+01  0.49746448208E+02 -0.59661344803E+02  0.18873467834E+03  0.17200000000E+03 0.  1.
         -6    1    1    2    0  502  0.16104767764E+01 -0.49746448208E+02  0.20838047597E+03  0.27474301722E+03  0.17200000000E+03 0.  1.
</event>
<event>
 4    1  0.1249554E+000  0.2600420E+03  0.7818608E-02  0.1107118E+00
         21   -1    0    0  503  502  0.00000000000E+00  0.00000000000E+00  0.57901270930E+03  0.57901270930E+03  0.00000000000E+00 0.  1.
         21   -1    0    0  501  503 -0.00000000000E+00 -0.00000000000E+00 -0.12125936366E+03  0.12125936366E+03  0.00000000000E+00 0.  1.
          6    1    1    2  501    0  0.17929451504E+03  0.76755023199E+02  0.29611069069E+03  0.39408552099E+03  0.17200000000E+03 0.  1.
         -6    1    1    2    0  502 -0.17929451504E+03 -0.76755023199E+02  0.16164265495E+03  0.30618655197E+03  0.17200000000E+03 0.  1.
</event>
<event>
 4    1  0.1249554E+000  0.1794434E+03  0.7818608E-02  0.1168343E+00
         21   -1    0    0  503  502  0.00000000000E+00  0.00000000000E+00  0.50377244761E+03  0.50377244761E+03  0.00000000000E+00 0. -1.
         21   -1    0    0  501  503 -0.00000000000E+00 -0.00000000000E+00 -0.14796753385E+03  0.14796753385E+03  0.00000000000E+00 0. -1.
          6    1    1    2  501    0  0.35644209636E+02  0.36679993681E+02 -0.67698360943E+02  0.19178894570E+03  0.17200000000E+03 0. -1.
         -6    1    1    2    0  502 -0.35644209636E+02 -0.36679993681E+02  0.42350327470E+03  0.45995103576E+03  0.17200000000E+03 0. -1.
</event>
<event>
 4    1  0.1249554E+000  0.1854858E+03  0.7818608E-02  0.1162597E+00
         21   -1    0    0  501  502  0.00000000000E+00  0.00000000000E+00  0.28333481835E+03  0.28333481835E+03  0.00000000000E+00 0. -1.
         21   -1    0    0  502  503 -0.00000000000E+00 -0.00000000000E+00 -0.12191376555E+03  0.12191376555E+03  0.00000000000E+00 0. -1.
          6    1    1    2  501    0 -0.66149172169E+01 -0.69117365689E+02  0.93492066491E+02  0.20771551186E+03  0.17200000000E+03 0.  1.
         -6    1    1    2    0  503  0.66149172169E+01  0.69117365689E+02  0.67928986303E+02  0.19753307204E+03  0.17200000000E+03 0.  1.
</event>
<event>
 4    1  0.1249554E+000  0.2393590E+03  0.7818608E-02  0.1120221E+00
         21   -1    0    0  501  502  0.00000000000E+00  0.00000000000E+00  0.93762960971E+03  0.93762960971E+03  0.00000000000E+00 0. -1.
         21   -1    0    0  502  503 -0.00000000000E+00 -0.00000000000E+00 -0.92836228518E+02  0.92836228518E+02  0.00000000000E+00 0.  1.
          6    1    1    2  501    0 -0.12394310862E+03  0.11111623198E+03  0.72362561204E+03  0.76218550077E+03  0.17200000000E+03 0.  1.
         -6    1    1    2    0  503  0.12394310862E+03 -0.11111623198E+03  0.12116776915E+03  0.26828033746E+03  0.17200000000E+03 0.  1.
</event>
<event>
 4    1  0.1249554E+000  0.1765801E+03  0.7818608E-02  0.1171154E+00
         21   -1    0    0  501  502  0.00000000000E+00  0.00000000000E+00  0.65120515862E+03  0.65120515862E+03  0.00000000000E+00 0. -1.
         21   -1    0    0  502  503 -0.00000000000E+00 -0.00000000000E+00 -0.48588089357E+02  0.48588089357E+02  0.00000000000E+00 0.  1.
          6    1    1    2  501    0 -0.58761985988E+01  0.39522328092E+02  0.34350950193E+03  0.38623739079E+03  0.17200000000E+03 0. -1.
         -6    1    1    2    0  503  0.58761985988E+01 -0.39522328092E+02  0.25910756734E+03  0.31355585719E+03  0.17200000000E+03 0.  1.
</event>
<event>
 4    1  0.1249554E+000  0.1736582E+03  0.7818608E-02  0.1174086E+00
         21   -1    0    0  503  502  0.00000000000E+00  0.00000000000E+00  0.37040876136E+03  0.37040876136E+03  0.00000000000E+00 0.  1.
         21   -1    0    0  501  503 -0.00000000000E+00 -0.00000000000E+00 -0.11925148260E+03  0.11925148260E+03  0.00000000000E+00 0.  1.
          6    1    1    2  501    0 -0.18731741986E+02  0.14909053405E+02  0.26348466425E+03  0.31556509048E+03  0.17200000000E+03 0.  1.
         -6    1    1    2    0  502  0.18731741986E+02 -0.14909053405E+02 -0.12327385493E+02  0.17409515348E+03  0.17200000000E+03 0.  1.
</event>
<event>
 4    1  0.1249554E+000  0.4727089E+03  0.7818608E-02  0.1021158E+00
         21   -1    0    0  503  502  0.00000000000E+00  0.00000000000E+00  0.12918882616E+04  0.12918882616E+04  0.00000000000E+00 0. -1.
         21   -1    0    0  501  503 -0.00000000000E+00 -0.00000000000E+00 -0.21296895917E+03  0.21296895917E+03  0.00000000000E+00 0.  1.
          6    1    1    2  501    0 -0.41651471484E+03  0.14277686545E+03  0.21336098589E+03  0.51862958967E+03  0.17200000000E+03 0.  1.
         -6    1    1    2    0  502  0.41651471484E+03 -0.14277686545E+03  0.86555831651E+03  0.98622763106E+03  0.17200000000E+03 0. -1.
</event>
<event>
 4    1  0.1249554E+000  0.1773524E+03  0.7818608E-02  0.1170390E+00
         21   -1    0    0  501  502  0.00000000000E+00  0.00000000000E+00  0.28778229907E+02  0.28778229907E+02  0.00000000000E+00 0.  1.
         21   -1    0    0  502  503 -0.00000000000E+00 -0.00000000000E+00 -0.11435394182E+04  0.11435394182E+04  0.00000000000E+00 0.  1.
          6    1    1    2  501    0  0.40092027420E+01  0.43055983445E+02 -0.43412364568E+03  0.46895333580E+03  0.17200000000E+03 0. -1.
         -6    1    1    2    0  503 -0.40092027420E+01 -0.43055983445E+02 -0.68063754261E+03  0.70336431231E+03  0.17200000000E+03 0. -1.
</event>
<event>
 4    1  0.1249554E+000  0.1836079E+03  0.7818608E-02  0.1164356E+00
         21   -1    0    0  501  502  0.00000000000E+00  0.00000000000E+00  0.47333836845E+03  0.47333836845E+03  0.00000000000E+00 0.  1.
         21   -1    0    0  502  503 -0.00000000000E+00 -0.00000000000E+00 -0.16728806275E+03  0.16728806275E+03  0.00000000000E+00 0.  1.
          6    1    1    2  501    0 -0.71862347387E+01  0.63845247875E+02  0.39575800541E+03  0.43627543650E+03  0.17200000000E+03 0.  1.
         -6    1    1    2    0  503  0.71862347387E+01 -0.63845247875E+02 -0.89707699709E+02  0.20435099470E+03  0.17200000000E+03 0.  1.
</event>
<event>
 4    1  0.1249554E+000  0.2089892E+03  0.7818608E-02  0.1142369E+00
         21   -1    0    0  501  502  0.00000000000E+00  0.00000000000E+00  0.59080318226E+02  0.59080318226E+02  0.00000000000E+00 0.  1.
         21   -1    0    0  502  503 -0.00000000000E+00 -0.00000000000E+00 -0.73930699598E+03  0.73930699598E+03  0.00000000000E+00 0.  1.
          6    1    1    2  501    0  0.86429129201E+02 -0.81378673590E+02 -0.34282113170E+03  0.40150069892E+03  0.17200000000E+03 0. -1.
         -6    1    1    2    0  503 -0.86429129201E+02  0.81378673590E+02 -0.33740554605E+03  0.39688661529E+03  0.17200000000E+03 0. -1.
</event>
<event>
 4    1  0.1249554E+000  0.1889913E+03  0.7818608E-02  0.1159374E+00
         21   -1    0    0  503  502  0.00000000000E+00  0.00000000000E+00  0.23161245364E+03  0.23161245364E+03  0.00000000000E+00 0. -1.
         21   -1    0    0  501  503 -0.00000000000E+00 -0.00000000000E+00 -0.21696815475E+03  0.21696815475E+03  0.00000000000E+00 0. -1.
          6    1    1    2  501    0 -0.20151571959E+02 -0.75681107543E+02  0.12794684767E+03  0.22822820098E+03  0.17200000000E+03 0. -1.
         -6    1    1    2    0  502  0.20151571959E+02  0.75681107543E+02 -0.11330254878E+03  0.22035240741E+03  0.17200000000E+03 0. -1.
</event>
<event>
 4    1  0.1249554E+000  0.3118322E+03  0.7818608E-02  0.1079471E+00
         21   -1    0    0  503  502  0.00000000000E+00  0.00000000000E+00  0.27861519269E+03  0.27861519269E+03  0.00000000000E+00 0.  1.
         21   -1    0    0  501  503 -0.00000000000E+00 -0.00000000000E+00 -0.37327187025E+03  0.37327187025E+03  0.00000000000E+00 0. -1.
          6    1    1    2  501    0 -0.23151181700E+03  0.11856461862E+03  0.35771128583E+02  0.31387714768E+03  0.17200000000E+03 0.  1.
         -6    1    1    2    0  502  0.23151181700E+03 -0.11856461862E+03 -0.13042780614E+03  0.33800991526E+03  0.17200000000E+03 0. -1.
</event>
<event>
 4    1  0.1249554E+000  0.1863083E+03  0.7818608E-02  0.1161834E+00
         21   -1    0    0  503  502  0.00000000000E+00  0.00000000000E+00  0.85150618139E+02  0.85150618139E+02  0.00000000000E+00 0.  1.
         21   -1    0    0  501  503 -0.00000000000E+00 -0.00000000000E+00 -0.40885771933E+03  0.40885771933E+03  0.00000000000E+00 0.  1.
          6    1    1    2  501    0 -0.70783429483E+02 -0.10793805144E+02 -0.17533347011E+03  0.25583710806E+03  0.17200000000E+03 0.  1.
         -6    1    1    2    0  502  0.70783429483E+02  0.10793805144E+02 -0.14837363109E+03  0.23817122941E+03  0.17200000000E+03 0.  1.
</event>
<event>
 4    1  0.1249554E+000  0.1830721E+03  0.7818608E-02  0.1164863E+00
         21   -1    0    0  501  502  0.00000000000E+00  0.00000000000E+00  0.66724946458E+03  0.66724946458E+03  0.00000000000E+00 0. -1.
         21   -1    0    0  502  503 -0.00000000000E+00 -0.00000000000E+00 -0.50824653438E+02  0.50824653438E+02  0.00000000000E+00 0. -1.
          6    1    1    2  501    0 -0.62508914751E+02  0.49032183973E+01  0.34707451971E+03  0.39239792075E+03  0.17200000000E+03 0. -1.
         -6    1    1    2    0  503  0.62508914751E+02 -0.49032183973E+01  0.26935029143E+03  0.32567619727E+03  0.17200000000E+03 0. -1.
</event>
<event>
 4    1  0.1249554E+000  0.2147945E+03  0.7818608E-02  0.1137825E+00
         21   -1    0    0  501  502  0.00000000000E+00  0.00000000000E+00  0.44651150678E+03  0.44651150678E+03  0.00000000000E+00 0.  1.
         21   -1    0    0  502  503 -0.00000000000E+00 -0.00000000000E+00 -0.10739299623E+03  0.10739299623E+03  0.00000000000E+00 0.  1.
          6    1    1    2  501    0 -0.75847715081E+02  0.10392218691E+03  0.11567025527E+03  0.24395963758E+03  0.17200000000E+03 0.  1.
         -6    1    1    2    0  503  0.75847715081E+02 -0.10392218691E+03  0.22344825529E+03  0.30994486543E+03  0.17200000000E+03 0.  1.
</event>
<event>
 4    1  0.1249554E+000  0.1725761E+03  0.7818608E-02  0.1175188E+00
         21   -1    0    0  503  502  0.00000000000E+00  0.00000000000E+00  0.46412734720E+03  0.46412734720E+03  0.00000000000E+00 0.  1.
         21   -1    0    0  501  503 -0.00000000000E+00 -0.00000000000E+00 -0.73952309835E+02  0.73952309835E+02  0.00000000000E+00 0.  1.
          6    1    1    2  501    0 -0.65632787844E+01  0.12467911086E+02  0.29294332265E+03  0.33999752311E+03  0.17200000000E+03 0.  1.
         -6    1    1    2    0  502  0.65632787844E+01 -0.12467911086E+02  0.97231714722E+02  0.19808213393E+03  0.17200000000E+03 0.  1.
</event>
<event>
 4    1  0.1249554E+000  0.3212989E+03  0.7818608E-02  0.1075053E+00
         21   -1    0    0  501  502  0.00000000000E+00  0.00000000000E+00  0.81891079191E+03  0.81891079191E+03  0.00000000000E+00 0. -1.
         21   -1    0    0  502  503 -0.00000000000E+00 -0.00000000000E+00 -0.16048132176E+03  0.16048132176E+03  0.00000000000E+00 0.  1.
          6    1    1    2  501    0 -0.25329462117E+03 -0.97420982891E+02  0.10242702553E+03  0.33723034943E+03  0.17200000000E+03 0.  1.
         -6    1    1    2    0  503  0.25329462117E+03  0.97420982891E+02  0.55600244462E+03  0.64216176424E+03  0.17200000000E+03 0. -1.
</event>
<event>
 4    1  0.1249554E+000  0.1737918E+03  0.7818608E-02  0.1173950E+00
         21   -1    0    0  503  502  0.00000000000E+00  0.00000000000E+00  0.65675441081E+03  0.65675441081E+03  0.00000000000E+00 0. -1.
         21   -1    0    0  501  503 -0.00000000000E+00 -0.00000000000E+00 -0.58792169622E+02  0.58792169622E+02  0.00000000000E+00 0. -1.
          6    1    1    2  501    0 -0.25958888138E+01  0.24755936451E+02  0.46593784444E+03  0.49729434937E+03  0.17200000000E+03 0. -1.
         -6    1    1    2    0  502  0.25958888138E+01 -0.24755936451E+02  0.13202439674E+03  0.21825223106E+03  0.17200000000E+03 0. -1.
</event>
<event>
 4    1  0.1249554E+000  0.1819641E+03  0.7818608E-02  0.1165916E+00
         21   -1    0    0  501  502  0.00000000000E+00  0.00000000000E+00  0.16367025005E+03  0.16367025005E+03  0.00000000000E+00 0.  1.
         21   -1    0    0  502  503 -0.00000000000E+00 -0.00000000000E+00 -0.23422637567E+03  0.23422637567E+03  0.00000000000E+00 0.  1.
          6    1    1    2  501    0 -0.29733064748E+02  0.51409080658E+02  0.38169632680E+02  0.18592436519E+03  0.17200000000E+03 0. -1.
         -6    1    1    2    0  503  0.29733064748E+02 -0.51409080658E+02 -0.10872575830E+03  0.21197226052E+03  0.17200000000E+03 0. -1.
</event>
<event>
 4    1  0.1249554E+000  0.1952848E+03  0.7818608E-02  0.1153779E+00
         21   -1    0    0  501  502  0.00000000000E+00  0.00000000000E+00  0.13926145521E+03  0.13926145521E+03  0.00000000000E+00 0. -1.
         21   -1    0    0  502  503 -0.00000000000E+00 -0.00000000000E+00 -0.44025805851E+03  0.44025805851E+03  0.00000000000E+00 0. -1.
          6    1    1    2  501    0  0.92212173419E+02  0.70054741427E+01 -0.32864472079E+03  0.38228721415E+03  0.17200000000E+03 0. -1.
         -6    1    1    2    0  503 -0.92212173419E+02 -0.70054741427E+01  0.27648117497E+02  0.19723229958E+03  0.17200000000E+03 0. -1.
</event>
<event>
 4    1  0.1249554E+000  0.1785000E+03  0.7818608E-02  0.1169263E+00
         21   -1    0    0  501  502  0.00000000000E+00  0.00000000000E+00  0.12791973958E+04  0.12791973958E+04  0.00000000000E+00 0. -1.
         21   -1    0    0  502  503 -0.00000000000E+00 -0.00000000000E+00 -0.30997097897E+02  0.30997097897E+02  0.00000000000E+00 0.  1.
          6    1    1    2  501    0 -0.23397528561E+02  0.41602828371E+02  0.91445025411E+03  0.93170891748E+03  0.17200000000E+03 0. -1.
         -6    1    1    2    0  503  0.23397528561E+02 -0.41602828371E+02  0.33375004379E+03  0.37848557621E+03  0.17200000000E+03 0.  1.
</event>
<event>
 4    1  0.1249554E+000  0.1950756E+03  0.7818608E-02  0.1153961E+00
         21   -1    0    0  503  502  0.00000000000E+00  0.00000000000E+00  0.12631808363E+03  0.12631808363E+03  0.00000000000E+00 0.  1.
         21   -1    0    0  501  503 -0.00000000000E+00 -0.00000000000E+00 -0.35759504614E+03  0.35759504614E+03  0.00000000000E+00 0.  1.
          6    1    1    2  501    0 -0.60099692066E+02 -0.69703175737E+02 -0.21167434285E+03  0.28785505574E+03  0.17200000000E+03 0.  1.
         -6    1    1    2    0  502  0.60099692066E+02  0.69703175737E+02 -0.19602619656E+02  0.19605807403E+03  0.17200000000E+03 0.  1.
</event>
<event>
 4    1  0.1249554E+000  0.1807788E+03  0.7818608E-02  0.1167051E+00
         21   -1    0    0  501  502  0.00000000000E+00  0.00000000000E+00  0.30847487285E+02  0.30847487285E+02  0.00000000000E+00 0.  1.
         21   -1    0    0  502  503 -0.00000000000E+00 -0.00000000000E+00 -0.15406983351E+04  0.15406983351E+04  0.00000000000E+00 0.  1.
          6    1    1    2  501    0  0.84569293711E+01 -0.55003990746E+02 -0.31575924283E+03  0.36384730050E+03  0.17200000000E+03 0.  1.
         -6    1    1    2    0  503 -0.84569293711E+01  0.55003990746E+02 -0.11940916050E+04  0.12076985219E+04  0.17200000000E+03 0.  1.
</event>
<event>
 4    1  0.1249554E+000  0.2538488E+03  0.7818608E-02  0.1110896E+00
         21   -1    0    0  501  502  0.00000000000E+00  0.00000000000E+00  0.87407264059E+03  0.87407264059E+03  0.00000000000E+00 0. -1.
         21   -1    0    0  502  503 -0.00000000000E+00 -0.00000000000E+00 -0.23652830486E+03  0.23652830486E+03  0.00000000000E+00 0.  1.
          6    1    1    2  501    0 -0.18619020729E+03  0.13725796041E+02  0.77947497762E+03  0.81976852312E+03  0.17200000000E+03 0. -1.
         -6    1    1    2    0  503  0.18619020729E+03 -0.13725796041E+02 -0.14193064189E+03  0.29083242233E+03  0.17200000000E+03 0.  1.
</event>
<event>
 4    1  0.1249554E+000  0.2027535E+03  0.7818608E-02  0.1147436E+00
         21   -1    0    0  503  502  0.00000000000E+00  0.00000000000E+00  0.16040713385E+03  0.16040713385E+03  0.00000000000E+00 0.  1.
         21   -1    0    0  501  503 -0.00000000000E+00 -0.00000000000E+00 -0.25660302555E+03  0.25660302555E+03  0.00000000000E+00 0.  1.
          6    1    1    2  501    0  0.50017880655E+02  0.94990551381E+02 -0.55506261418E+02  0.21021402973E+03  0.17200000000E+03 0.  1.
         -6    1    1    2    0  502 -0.50017880655E+02 -0.94990551381E+02 -0.40689630288E+02  0.20679612968E+03  0.17200000000E+03 0.  1.
</event>
<event>
 4    1  0.1249554E+000  0.2713155E+03  0.7818608E-02  0.1100529E+00
         21   -1    0    0  501  502  0.00000000000E+00  0.00000000000E+00  0.20844194686E+04  0.20844194686E+04  0.00000000000E+00 0. -1.
         21   -1    0    0  502  503 -0.00000000000E+00 -0.00000000000E+00 -0.94025958728E+02  0.94025958728E+02  0.00000000000E+00 0.  1.
          6    1    1    2  501    0  0.12923703035E+03 -0.16530545969E+03  0.18558949946E+04  0.18756221197E+04  0.17200000000E+03 0. -1.
         -6    1    1    2    0  503 -0.12923703035E+03  0.16530545969E+03  0.13449851527E+03  0.30282330760E+03  0.17200000000E+03 0.  1.
</event>
<event>
 4    1  0.1249554E+000  0.1931242E+03  0.7818608E-02  0.1155673E+00
         21   -1    0    0  501  502  0.00000000000E+00  0.00000000000E+00  0.19957535912E+03  0.19957535912E+03  0.00000000000E+00 0. -1.
         21   -1    0    0  502  503 -0.00000000000E+00 -0.00000000000E+00 -0.21183821345E+03  0.21183821345E+03  0.00000000000E+00 0. -1.
          6    1    1    2  501    0  0.62527247059E+01 -0.87600553159E+02  0.64474259855E+02  0.20360226832E+03  0.17200000000E+03 0.  1.
         -6    1    1    2    0  503 -0.62527247059E+01  0.87600553159E+02 -0.76737114191E+02  0.20781130425E+03  0.17200000000E+03 0.  1.
</event>
<event>
 4    1  0.1249554E+000  0.1778496E+03  0.7818608E-02  0.1169901E+00
         21   -1    0    0  501  502  0.00000000000E+00  0.00000000000E+00  0.74760562314E+02  0.74760562314E+02  0.00000000000E+00 0.  1.
         21   -1    0    0  502  503 -0.00000000000E+00 -0.00000000000E+00 -0.11676096161E+04  0.11676096161E+04  0.00000000000E+00 0.  1.
          6    1    1    2  501    0  0.25754363805E+02  0.37191334804E+02 -0.10424570146E+04  0.10575193189E+04  0.17200000000E+03 0.  1.
         -6    1    1    2    0  503 -0.25754363805E+02 -0.37191334804E+02 -0.50392039201E+02  0.18485085949E+03  0.17200000000E+03 0.  1.
</event>
<event>
 4    1  0.1249554E+000  0.1779340E+03  0.7818608E-02  0.1169818E+00
         21   -1    0    0  503  502  0.00000000000E+00  0.00000000000E+00  0.19870720500E+03  0.19870720500E+03  0.00000000000E+00 0. -1.
         21   -1    0    0  501  503 -0.00000000000E+00 -0.00000000000E+00 -0.17938205049E+03  0.17938205049E+03  0.00000000000E+00 0. -1.
          6    1    1    2  501    0 -0.27892606313E+02 -0.36034616862E+02 -0.53539086526E+02  0.18581422143E+03  0.17200000000E+03 0. -1.
         -6    1    1    2    0  502  0.27892606313E+02  0.36034616862E+02  0.72864241034E+02  0.19227503405E+03  0.17200000000E+03 0. -1.
</event>
<event>
 4    1  0.1249554E+000  0.1813364E+03  0.7818608E-02  0.1166516E+00
         21   -1    0    0  501  502  0.00000000000E+00  0.00000000000E+00  0.11770255372E+04  0.11770255372E+04  0.00000000000E+00 0. -1.
         21   -1    0    0  502  503 -0.00000000000E+00 -0.00000000000E+00 -0.45099806018E+02  0.45099806018E+02  0.00000000000E+00 0. -1.
          6    1    1    2  501    0  0.37088117236E+02  0.43855991182E+02  0.94291758889E+03  0.96019605073E+03  0.17200000000E+03 0. -1.
         -6    1    1    2    0  503 -0.37088117236E+02 -0.43855991182E+02  0.18900814224E+03  0.26192929244E+03  0.17200000000E+03 0. -1.
</event>
<event>
 4    1  0.1249554E+000  0.1732617E+03  0.7818608E-02  0.1174488E+00
         21   -1    0    0  501  502  0.00000000000E+00  0.00000000000E+00  0.20667829305E+03  0.20667829305E+03  0.00000000000E+00 0.  1.
         21   -1    0    0  502  503 -0.00000000000E+00 -0.00000000000E+00 -0.26207678480E+03  0.26207678480E+03  0.00000000000E+00 0.  1.
          6    1    1    2  501    0 -0.12217922559E+02 -0.16921601899E+02  0.12878713896E+03  0.21588363857E+03  0.17200000000E+03 0.  1.
         -6    1    1    2    0  503  0.12217922559E+02  0.16921601899E+02 -0.18418563071E+03  0.25287143928E+03  0.17200000000E+03 0.  1.
</event>
<event>
 4    1  0.1249554E+000  0.1792509E+03  0.7818608E-02  0.1168530E+00
         21   -1    0    0  503  502  0.00000000000E+00  0.00000000000E+00  0.37602307826E+02  0.37602307826E+02  0.00000000000E+00 0. -1.
         21   -1    0    0  501  503 -0.00000000000E+00 -0.00000000000E+00 -0.16026409882E+04  0.16026409882E+04  0.00000000000E+00 0. -1.
          6    1    1    2  501    0  0.87079485196E+01  0.49709763328E+02 -0.13428624842E+04  0.13547732431E+04  0.17200000000E+03 0. -1.
         -6    1    1    2    0  502 -0.87079485196E+01 -0.49709763328E+02 -0.22217619623E+03  0.28547005291E+03  0.17200000000E+03 0. -1.
</event>
<event>
 4    1  0.1249554E+000  0.2040942E+03  0.7818608E-02  0.1146330E+00
         21   -1    0    0  501  502  0.00000000000E+00  0.00000000000E+00  0.40180821710E+02  0.40180821710E+02  0.00000000000E+00 0.  1.
         21   -1    0    0  502  503 -0.00000000000E+00 -0.00000000000E+00 -0.11382765199E+04  0.11382765199E+04  0.00000000000E+00 0.  1.
          6    1    1    2  501    0 -0.86592723720E+02 -0.67617527631E+02 -0.37300785941E+03  0.42519324198E+03  0.17200000000E+03 0.  1.
         -6    1    1    2    0  503  0.86592723720E+02  0.67617527631E+02 -0.72508783878E+03  0.75326409963E+03  0.17200000000E+03 0.  1.
</event>
<event>
 4    1  0.1249554E+000  0.2502110E+03  0.7818608E-02  0.1113172E+00
         21   -1    0    0  503  502  0.00000000000E+00  0.00000000000E+00  0.13009320026E+04  0.13009320026E+04  0.00000000000E+00 0.  1.
         21   -1    0    0  501  503 -0.00000000000E+00 -0.00000000000E+00 -0.78720914833E+02  0.78720914833E+02  0.00000000000E+00 0. -1.
          6    1    1    2  501    0  0.17007022847E+03 -0.64012919295E+02  0.18103825480E+03  0.30883715150E+03  0.17200000000E+03 0. -1.
         -6    1    1    2    0  502 -0.17007022847E+03  0.64012919295E+02  0.10411728330E+04  0.10708157659E+04  0.17200000000E+03 0. -1.
</event>
<event>
 4    1  0.1249554E+000  0.2319541E+03  0.7818608E-02  0.1125272E+00
         21   -1    0    0  501  502  0.00000000000E+00  0.00000000000E+00  0.11693817142E+03  0.11693817142E+03  0.00000000000E+00 0.  1.
         21   -1    0    0  502  503 -0.00000000000E+00 -0.00000000000E+00 -0.63807763650E+03  0.63807763650E+03  0.00000000000E+00 0. -1.
          6    1    1    2  501    0 -0.10164857585E+02 -0.15529130372E+03 -0.61191550481E+02  0.23988980635E+03  0.17200000000E+03 0.  1.
         -6    1    1    2    0  503  0.10164857585E+02  0.15529130372E+03 -0.45994791460E+03  0.51512600156E+03  0.17200000000E+03 0. -1.
</event>
<event>
 4    1  0.1249554E+000  0.2248649E+03  0.7818608E-02  0.1130307E+00
         21   -1    0    0  503  502  0.00000000000E+00  0.00000000000E+00  0.10293692421E+03  0.10293692421E+03  0.00000000000E+00 0. -1.
         21   -1    0    0  501  503 -0.00000000000E+00 -0.00000000000E+00 -0.50462758656E+03  0.50462758656E+03  0.00000000000E+00 0. -1.
          6    1    1    2  501    0 -0.50247496642E+02 -0.13585069515E+03 -0.25037022714E+03  0.33652559030E+03  0.17200000000E+03 0. -1.
         -6    1    1    2    0  502  0.50247496642E+02  0.13585069515E+03 -0.15132043521E+03  0.27103892046E+03  0.17200000000E+03 0. -1.
</event>
<event>
 4    1  0.1249554E+000  0.2216656E+03  0.7818608E-02  0.1132647E+00
         21   -1    0    0  501  502  0.00000000000E+00  0.00000000000E+00  0.96626987354E+02  0.96626987354E+02  0.00000000000E+00 0. -1.
         21   -1    0    0  502  503 -0.00000000000E+00 -0.00000000000E+00 -0.56513732404E+03  0.56513732404E+03  0.00000000000E+00 0. -1.
          6    1    1    2  501    0  0.25537342524E+02 -0.13747538632E+03 -0.12951448857E+03  0.25672872932E+03  0.17200000000E+03 0.  1.
         -6    1    1    2    0  503 -0.25537342524E+02  0.13747538632E+03 -0.33899584812E+03  0.40503558208E+03  0.17200000000E+03 0.  1.
</event>
<event>
 4    1  0.1249554E+000  0.1850441E+03  0.7818608E-02  0.1163009E+00
         21   -1    0    0  501  502  0.00000000000E+00  0.00000000000E+00  0.12540350442E+03  0.12540350442E+03  0.00000000000E+00 0. -1.
         21   -1    0    0  502  503 -0.00000000000E+00 -0.00000000000E+00 -0.35253654923E+03  0.35253654923E+03  0.00000000000E+00 0. -1.
          6    1    1    2  501    0  0.33908859164E+02  0.59224210841E+02 -0.94040499264E-01  0.18504412102E+03  0.17200000000E+03 0. -1.
         -6    1    1    2    0  503 -0.33908859164E+02 -0.59224210841E+02 -0.22703900431E+03  0.29289593264E+03  0.17200000000E+03 0. -1.
</event>
<event>
 4    1  0.1249554E+000  0.1974998E+03  0.7818608E-02  0.1151866E+00
         21   -1    0    0  503  502  0.00000000000E+00  0.00000000000E+00  0.18777667559E+03  0.18777667559E+03  0.00000000000E+00 0. -1.
         21   -1    0    0  501  503 -0.00000000000E+00 -0.00000000000E+00 -0.24454704021E+03  0.24454704021E+03  0.00000000000E+00 0.  1.
          6    1    1    2  501    0 -0.77086033406E+01 -0.96761358811E+02 -0.11226224304E+03  0.22717613065E+03  0.17200000000E+03 0.  1.
         -6    1    1    2    0  502  0.77086033406E+01  0.96761358811E+02  0.55491878414E+02  0.20514758515E+03  0.17200000000E+03 0. -1.
</event>
<event>
 4    1  0.1249554E+000  0.1947881E+03  0.7818608E-02  0.1154212E+00
         21   -1    0    0  501  502  0.00000000000E+00  0.00000000000E+00  0.60980424460E+03  0.60980424460E+03  0.00000000000E+00 0. -1.
         21   -1    0    0  502  503 -0.00000000000E+00 -0.00000000000E+00 -0.74994827519E+02  0.74994827519E+02  0.00000000000E+00 0. -1.
          6    1    1    2  501    0 -0.71864104093E+02 -0.56515136729E+02  0.40871837430E+03  0.45276165875E+03  0.17200000000E+03 0. -1.
         -6    1    1    2    0  503  0.71864104093E+02  0.56515136729E+02  0.12609104278E+03  0.23203741337E+03  0.17200000000E+03 0. -1.
</event>
<event>
 4    1  0.1249554E+000  0.1866558E+03  0.7818608E-02  0.1161513E+00
         21   -1    0    0  503  502  0.00000000000E+00  0.00000000000E+00  0.88192255759E+02  0.88192255759E+02  0.00000000000E+00 0. -1.
         21   -1    0    0  501  503 -0.00000000000E+00 -0.00000000000E+00 -0.39893140162E+03  0.39893140162E+03  0.00000000000E+00 0. -1.
          6    1    1    2  501    0 -0.41014897847E+02  0.59784182678E+02 -0.13134576179E+03  0.22823689335E+03  0.17200000000E+03 0. -1.
         -6    1    1    2    0  502  0.41014897847E+02 -0.59784182678E+02 -0.17939338407E+03  0.25888676403E+03  0.17200000000E+03 0. -1.
</event>
<event>
 4    1  0.1249554E+000  0.1735812E+03  0.7818608E-02  0.1174164E+00
         21   -1    0    0  501  502  0.00000000000E+00  0.00000000000E+00  0.15343114173E+03  0.15343114173E+03  0.00000000000E+00 0.  1.
         21   -1    0    0  502  503 -0.00000000000E+00 -0.00000000000E+00 -0.35342512476E+03  0.35342512476E+03  0.00000000000E+00 0.  1.
          6    1    1    2  501    0  0.61213593444E+01  0.22560100664E+02  0.68938832460E+02  0.18676988998E+03  0.17200000000E+03 0.  1.
         -6    1    1    2    0  503 -0.61213593444E+01 -0.22560100664E+02 -0.26893281549E+03  0.32008637652E+03  0.17200000000E+03 0.  1.
</event>
<event>
 4    1  0.1249554E+000  0.2855756E+03  0.7818608E-02  0.1092682E+00
         21   -1    0    0  501  502  0.00000000000E+00  0.00000000000E+00  0.25800150432E+03  0.25800150432E+03  0.00000000000E+00 0. -1.
         21   -1    0    0  502  503 -0.00000000000E+00 -0.00000000000E+00 -0.33716519105E+03  0.33716519105E+03  0.00000000000E+00 0.  1.
          6    1    1    2  501    0 -0.17830843828E+03  0.14204054277E+03 -0.11397009324E+03  0.30747779937E+03  0.17200000000E+03 0. -1.
         -6    1    1    2    0  503  0.17830843828E+03 -0.14204054277E+03  0.34806406511E+02  0.28768889601E+03  0.17200000000E+03 0. -1.
</event>
<event>
 4    1  0.1249554E+000  0.2064901E+03  0.7818608E-02  0.1144376E+00
         21   -1    0    0  501  502  0.00000000000E+00  0.00000000000E+00  0.76358470602E+02  0.76358470602E+02  0.00000000000E+00 0.  1.
         21   -1    0    0  502  503 -0.00000000000E+00 -0.00000000000E+00 -0.95442407444E+03  0.95442407444E+03  0.00000000000E+00 0.  1.
          6    1    1    2  501    0 -0.45508387868E+02  0.10480042411E+03 -0.10703880374E+03  0.23258428099E+03  0.17200000000E+03 0.  1.
         -6    1    1    2    0  503  0.45508387868E+02 -0.10480042411E+03 -0.77102680010E+03  0.79819826405E+03  0.17200000000E+03 0.  1.
</event>
<event>
 4    1  0.1249554E+000  0.2343603E+03  0.7818608E-02  0.1123608E+00
         21   -1    0    0  501  502  0.00000000000E+00  0.00000000000E+00  0.21593646374E+04  0.21593646374E+04  0.00000000000E+00 0.  1.
         21   -1    0    0  502  503 -0.00000000000E+00 -0.00000000000E+00 -0.47118914877E+02  0.47118914877E+02  0.00000000000E+00 0.  1.
          6    1    1    2  501    0 -0.47217996605E+02 -0.15202375760E+03  0.18045262961E+04  0.18196812676E+04  0.17200000000E+03 0. -1.
         -6    1    1    2    0  503  0.47217996605E+02  0.15202375760E+03  0.30771942636E+03  0.38680228468E+03  0.17200000000E+03 0. -1.
</event>
<event>
 4    1  0.1249554E+000  0.2758005E+03  0.7818608E-02  0.1098005E+00
         21   -1    0    0  501  502  0.00000000000E+00  0.00000000000E+00  0.13392240643E+04  0.13392240643E+04  0.00000000000E+00 0. -1.
         21   -1    0    0  502  503 -0.00000000000E+00 -0.00000000000E+00 -0.12222463636E+03  0.12222463636E+03  0.00000000000E+00 0.  1.
          6    1    1    2  501    0  0.11411923314E+02  0.21529439170E+03  0.11431254575E+04  0.11759258984E+04  0.17200000000E+03 0. -1.
         -6    1    1    2    0  503 -0.11411923314E+02 -0.21529439170E+03  0.73873970497E+02  0.28552280226E+03  0.17200000000E+03 0.  1.
</event>
<event>
 4    1  0.1249554E+000  0.2846928E+03  0.7818608E-02  0.1093153E+00
         21   -1    0    0  503  502  0.00000000000E+00  0.00000000000E+00  0.63621880934E+02  0.63621880934E+02  0.00000000000E+00 0. -1.
         21   -1    0    0  501  503 -0.00000000000E+00 -0.00000000000E+00 -0.15632926931E+04  0.15632926931E+04  0.00000000000E+00 0. -1.
          6    1    1    2  501    0  0.13538063961E+03 -0.18203860532E+03 -0.10998080679E+04  0.11360579904E+04  0.17200000000E+03 0. -1.
         -6    1    1    2    0  502 -0.13538063961E+03  0.18203860532E+03 -0.39986274424E+03  0.49085658357E+03  0.17200000000E+03 0. -1.
</event>
<event>
 4    1  0.1249554E+000  0.2416585E+03  0.7818608E-02  0.1118693E+00
         21   -1    0    0  501  502  0.00000000000E+00  0.00000000000E+00  0.13281832478E+03  0.13281832478E+03  0.00000000000E+00 0. -1.
         21   -1    0    0  502  503 -0.00000000000E+00 -0.00000000000E+00 -0.45378410494E+03  0.45378410494E+03  0.00000000000E+00 0.  1.
          6    1    1    2  501    0 -0.88940040701E+02  0.14458380275E+03 -0.21217419872E+03  0.32158466608E+03  0.17200000000E+03 0.  1.
         -6    1    1    2    0  503  0.88940040701E+02 -0.14458380275E+03 -0.10879158144E+03  0.26501776365E+03  0.17200000000E+03 0. -1.
</event>
<event>
 4    1  0.1249554E+000  0.2736595E+03  0.7818608E-02  0.1099203E+00
         21   -1    0    0  501  502  0.00000000000E+00  0.00000000000E+00  0.11678200590E+03  0.11678200590E+03  0.00000000000E+00 0.  1.
         21   -1    0    0  502  503 -0.00000000000E+00 -0.00000000000E+00 -0.66538585108E+03  0.66538585108E+03  0.00000000000E+00 0. -1.
          6    1    1    2  501    0  0.20672975196E+03 -0.50678451602E+02 -0.19985776978E+03  0.33886962677E+03  0.17200000000E+03 0. -1.
         -6    1    1    2    0  503 -0.20672975196E+03  0.50678451602E+02 -0.34874607539E+03  0.44329823021E+03  0.17200000000E+03 0.  1.
</event>
<event>
 4    1  0.1249554E+000  0.2290236E+03  0.7818608E-02  0.1127329E+00
         21   -1    0    0  503  502  0.00000000000E+00  0.00000000000E+00  0.63898121127E+03  0.63898121127E+03  0.00000000000E+00 0.  1.
         21   -1    0    0  501  503 -0.00000000000E+00 -0.00000000000E+00 -0.18367617472E+03  0.18367617472E+03  0.00000000000E+00 0.  1.
          6    1    1    2  501    0  0.56667753931E+02 -0.14020184495E+03 -0.78252904062E+02  0.24202336386E+03  0.17200000000E+03 0.  1.
         -6    1    1    2    0  502 -0.56667753931E+02  0.14020184495E+03  0.53355794061E+03  0.58063402213E+03  0.17200000000E+03 0.  1.
</event>
<event>
 4    1  0.1249554E+000  0.3064626E+03  0.7818608E-02  0.1082054E+00
         21   -1    0    0  501  502  0.00000000000E+00  0.00000000000E+00  0.46002918906E+03  0.46002918906E+03  0.00000000000E+00 0. -1.
         21   -1    0    0  502  503 -0.00000000000E+00 -0.00000000000E+00 -0.97426366458E+03  0.97426366458E+03  0.00000000000E+00 0. -1.
          6    1    1    2  501    0 -0.29548937407E+01  0.25362689164E+03  0.38047690766E+03  0.48855092756E+03  0.17200000000E+03 0. -1.
         -6    1    1    2    0  503  0.29548937407E+01 -0.25362689164E+03 -0.89471138317E+03  0.94574192608E+03  0.17200000000E+03 0. -1.
</event>
<event>
 4    1  0.1249554E+000  0.2077496E+03  0.7818608E-02  0.1143361E+00
         21   -1    0    0  503  502  0.00000000000E+00  0.00000000000E+00  0.71646735697E+02  0.71646735697E+02  0.00000000000E+00 0.  1.
         21   -1    0    0  501  503 -0.00000000000E+00 -0.00000000000E+00 -0.60267582959E+03  0.60267582959E+03  0.00000000000E+00 0.  1.
          6    1    1    2  501    0  0.95488067740E+02 -0.66767820402E+02 -0.27274225741E+03  0.34285310543E+03  0.17200000000E+03 0.  1.
         -6    1    1    2    0  502 -0.95488067740E+02  0.66767820402E+02 -0.25828683648E+03  0.33146945986E+03  0.17200000000E+03 0.  1.
</event>
<event>
 4    1  0.1249554E+000  0.2424400E+03  0.7818608E-02  0.1118178E+00
         21   -1    0    0  501  502  0.00000000000E+00  0.00000000000E+00  0.12440972914E+03  0.12440972914E+03  0.00000000000E+00 0. -1.
         21   -1    0    0  502  503 -0.00000000000E+00 -0.00000000000E+00 -0.57531322353E+03  0.57531322353E+03  0.00000000000E+00 0. -1.
          6    1    1    2  501    0 -0.11362496395E+03  0.12760301000E+03 -0.77514451540E+02  0.25453025516E+03  0.17200000000E+03 0.  1.
         -6    1    1    2    0  503  0.11362496395E+03 -0.12760301000E+03 -0.37338904285E+03  0.44519269751E+03  0.17200000000E+03 0.  1.
</event>
<event>
 4    1  0.1249554E+000  0.2094771E+03  0.7818608E-02  0.1141981E+00
         21   -1    0    0  503  502  0.00000000000E+00  0.00000000000E+00  0.10583775202E+03  0.10583775202E+03  0.00000000000E+00 0. -1.
         21   -1    0    0  501  503 -0.00000000000E+00 -0.00000000000E+00 -0.42321597680E+03  0.42321597680E+03  0.00000000000E+00 0.  1.
          6    1    1    2  501    0  0.14955569413E+02  0.11862965271E+03 -0.19642564972E+03  0.28716493419E+03  0.17200000000E+03 0.  1.
         -6    1    1    2    0  502 -0.14955569413E+02 -0.11862965271E+03 -0.12095257505E+03  0.24188879463E+03  0.17200000000E+03 0. -1.
</event>
<event>
 4    1  0.1249554E+000  0.1780920E+03  0.7818608E-02  0.1169662E+00
         21   -1    0    0  501  502  0.00000000000E+00  0.00000000000E+00  0.24903344178E+03  0.24903344178E+03  0.00000000000E+00 0. -1.
         21   -1    0    0  502  503 -0.00000000000E+00 -0.00000000000E+00 -0.13669161568E+03  0.13669161568E+03  0.00000000000E+00 0. -1.
          6    1    1    2  501    0 -0.23476095080E+02  0.39769935672E+02  0.10656353517E+03  0.20753930194E+03  0.17200000000E+03 0. -1.
         -6    1    1    2    0  503  0.23476095080E+02 -0.39769935672E+02  0.57782909238E+01  0.17818575552E+03  0.17200000000E+03 0. -1.
</event>
<event>
 4    1  0.1249554E+000  0.1837873E+03  0.7818608E-02  0.1164187E+00
         21   -1    0    0  501  502  0.00000000000E+00  0.00000000000E+00  0.14773881566E+04  0.14773881566E+04  0.00000000000E+00 0. -1.
         21   -1    0    0  502  503 -0.00000000000E+00 -0.00000000000E+00 -0.28912109931E+02  0.28912109931E+02  0.00000000000E+00 0. -1.
          6    1    1    2  501    0 -0.55577843012E+02 -0.33239619135E+02  0.37974416301E+03  0.42188078678E+03  0.17200000000E+03 0. -1.
         -6    1    1    2    0  503  0.55577843012E+02  0.33239619135E+02  0.10687318837E+04  0.10844194798E+04  0.17200000000E+03 0. -1.
</event>
<event>
 4    1  0.1249554E+000  0.1887831E+03  0.7818608E-02  0.1159564E+00
         21   -1    0    0  503  502  0.00000000000E+00  0.00000000000E+00  0.57660935909E+03  0.57660935909E+03  0.00000000000E+00 0.  1.
         21   -1    0    0  501  503 -0.00000000000E+00 -0.00000000000E+00 -0.62331936272E+02  0.62331936272E+02  0.00000000000E+00 0.  1.
          6    1    1    2  501    0 -0.36684942714E+01 -0.77727692395E+02  0.28642934208E+03  0.34304638173E+03  0.17200000000E+03 0. -1.
         -6    1    1    2    0  502  0.36684942714E+01  0.77727692395E+02  0.22784808073E+03  0.29589491363E+03  0.17200000000E+03 0. -1.
</event>
<event>
 4    1  0.1249554E+000  0.2205588E+03  0.7818608E-02  0.1133467E+00
         21   -1    0    0  503  502  0.00000000000E+00  0.00000000000E+00  0.87297348629E+02  0.87297348629E+02  0.00000000000E+00 0.  1.
         21   -1    0    0  501  503 -0.00000000000E+00 -0.00000000000E+00 -0.60131435826E+03  0.60131435826E+03  0.00000000000E+00 0.  1.
          6    1    1    2  501    0 -0.10951251879E+03 -0.84078439879E+02 -0.35021639570E+03  0.41388126273E+03  0.17200000000E+03 0.  1.
         -6    1    1    2    0  502  0.10951251879E+03  0.84078439879E+02 -0.16380061394E+03  0.27473044416E+03  0.17200000000E+03 0.  1.
</event>
<event>
 4    1  0.1249554E+000  0.1901230E+03  0.7818608E-02  0.1158350E+00
         21   -1    0    0  503  502  0.00000000000E+00  0.00000000000E+00  0.46481697424E+03  0.46481697424E+03  0.00000000000E+00 0.  1.
         21   -1    0    0  501  503 -0.00000000000E+00 -0.00000000000E+00 -0.16212421399E+03  0.16212421399E+03  0.00000000000E+00 0.  1.
          6    1    1    2  501    0  0.24028883758E+02 -0.77365117281E+02 -0.74772958416E+02  0.20429817409E+03  0.17200000000E+03 0.  1.
         -6    1    1    2    0  502 -0.24028883758E+02  0.77365117281E+02  0.37746571867E+03  0.42264301413E+03  0.17200000000E+03 0.  1.
</event>
<event>
 4    1  0.1249554E+000  0.1796597E+03  0.7818608E-02  0.1168133E+00
         21   -1    0    0  503  502  0.00000000000E+00  0.00000000000E+00  0.11742504190E+03  0.11742504190E+03  0.00000000000E+00 0. -1.
         21   -1    0    0  501  503 -0.00000000000E+00 -0.00000000000E+00 -0.33657381325E+03  0.33657381325E+03  0.00000000000E+00 0. -1.
          6    1    1    2  501    0 -0.48504082132E+02  0.18465092194E+02 -0.20676203991E+03  0.27391266265E+03  0.17200000000E+03 0. -1.
         -6    1    1    2    0  502  0.48504082132E+02 -0.18465092194E+02 -0.12386731439E+02  0.18008619250E+03  0.17200000000E+03 0. -1.
</event>
<event>
 4    1  0.1249554E+000  0.2204803E+03  0.7818608E-02  0.1133525E+00
         21   -1    0    0  501  502  0.00000000000E+00  0.00000000000E+00  0.39697101632E+03  0.39697101632E+03  0.00000000000E+00 0.  1.
         21   -1    0    0  502  503 -0.00000000000E+00 -0.00000000000E+00 -0.19306556324E+03  0.19306556324E+03  0.00000000000E+00 0.  1.
          6    1    1    2  501    0 -0.10249031323E+03  0.92321817785E+02  0.28036614894E+03  0.35667458533E+03  0.17200000000E+03 0.  1.
         -6    1    1    2    0  503  0.10249031323E+03 -0.92321817785E+02 -0.76460695863E+02  0.23336199424E+03  0.17200000000E+03 0.  1.
</event>
<event>
 4    1  0.1249554E+000  0.4123390E+03  0.7818608E-02  0.1039589E+00
         21   -1    0    0  503  502  0.00000000000E+00  0.00000000000E+00  0.56193878482E+03  0.56193878482E+03  0.00000000000E+00 0. -1.
         21   -1    0    0  501  503 -0.00000000000E+00 -0.00000000000E+00 -0.62571234822E+03  0.62571234822E+03  0.00000000000E+00 0.  1.
          6    1    1    2  501    0  0.25665308772E+03 -0.27307252830E+03 -0.45863463302E+03  0.61674073950E+03  0.17200000000E+03 0.  1.
         -6    1    1    2    0  502 -0.25665308772E+03  0.27307252830E+03  0.39486106962E+03  0.57091039354E+03  0.17200000000E+03 0. -1.
</event>
<event>
 4    1  0.1249554E+000  0.1847784E+03  0.7818608E-02  0.1163257E+00
         21   -1    0    0  501  502  0.00000000000E+00  0.00000000000E+00  0.33336830176E+02  0.33336830176E+02  0.00000000000E+00 0.  1.
         21   -1    0    0  502  503 -0.00000000000E+00 -0.00000000000E+00 -0.10538623378E+04  0.10538623378E+04  0.00000000000E+00 0.  1.
          6    1    1    2  501    0 -0.62839151656E+02 -0.24704179292E+02 -0.41903954578E+03  0.45797073747E+03  0.17200000000E+03 0. -1.
         -6    1    1    2    0  503  0.62839151656E+02  0.24704179292E+02 -0.60148596185E+03  0.62922843051E+03  0.17200000000E+03 0. -1.
</event>
<event>
 4    1  0.1249554E+000  0.2236682E+03  0.7818608E-02  0.1131177E+00
         21   -1    0    0  503  502  0.00000000000E+00  0.00000000000E+00  0.11434657638E+04  0.11434657638E+04  0.00000000000E+00 0.  1.
         21   -1    0    0  501  503 -0.00000000000E+00 -0.00000000000E+00 -0.83602243470E+02  0.83602243470E+02  0.00000000000E+00 0.  1.
          6    1    1    2  501    0  0.29103515192E+02  0.13998732181E+03  0.10633554879E+03  0.24765846200E+03  0.17200000000E+03 0.  1.
         -6    1    1    2    0  502 -0.29103515192E+02 -0.13998732181E+03  0.95352797158E+03  0.97940954531E+03  0.17200000000E+03 0.  1.
</event>
<event>
 4    1  0.1249554E+000  0.1800656E+03  0.7818608E-02  0.1167740E+00
         21   -1    0    0  503  502  0.00000000000E+00  0.00000000000E+00  0.12618038397E+03  0.12618038397E+03  0.00000000000E+00 0. -1.
         21   -1    0    0  501  503 -0.00000000000E+00 -0.00000000000E+00 -0.27634007542E+03  0.27634007542E+03  0.00000000000E+00 0. -1.
          6    1    1    2  501    0  0.46521920316E+02 -0.25987137157E+02 -0.12837482868E+03  0.22114184816E+03  0.17200000000E+03 0. -1.
         -6    1    1    2    0  502 -0.46521920316E+02  0.25987137157E+02 -0.21784862771E+02  0.18137861123E+03  0.17200000000E+03 0. -1.
</event>
<event>
 4    1  0.1249554E+000  0.2429179E+03  0.7818608E-02  0.1117864E+00
         21   -1    0    0  503  502  0.00000000000E+00  0.00000000000E+00  0.33609083258E+03  0.33609083258E+03  0.00000000000E+00 0. -1.
         21   -1    0    0  501  503 -0.00000000000E+00 -0.00000000000E+00 -0.20537539884E+03  0.20537539884E+03  0.00000000000E+00 0. -1.
          6    1    1    2  501    0  0.73737323756E+02 -0.15488026736E+03 -0.37770964030E+02  0.24583680737E+03  0.17200000000E+03 0. -1.
         -6    1    1    2    0  502 -0.73737323756E+02  0.15488026736E+03  0.16848639777E+03  0.29562942405E+03  0.17200000000E+03 0. -1.
</event>
<event>
 4    1  0.1249554E+000  0.1722460E+03  0.7818608E-02  0.1175526E+00
         21   -1    0    0  501  502  0.00000000000E+00  0.00000000000E+00  0.29897375399E+02  0.29897375399E+02  0.00000000000E+00 0. -1.
         21   -1    0    0  502  503 -0.00000000000E+00 -0.00000000000E+00 -0.16568355143E+04  0.16568355143E+04  0.00000000000E+00 0. -1.
          6    1    1    2  501    0  0.73753306416E+01 -0.55033920409E+01 -0.27937330392E+03  0.32820439633E+03  0.17200000000E+03 0. -1.
         -6    1    1    2    0  503 -0.73753306416E+01  0.55033920409E+01 -0.13475648350E+04  0.13585284934E+04  0.17200000000E+03 0. -1.
</event>
<event>
 4    1  0.1249554E+000  0.2120532E+03  0.7818608E-02  0.1139950E+00
         21   -1    0    0  501  502  0.00000000000E+00  0.00000000000E+00  0.13903020159E+03  0.13903020159E+03  0.00000000000E+00 0.  1.
         21   -1    0    0  502  503 -0.00000000000E+00 -0.00000000000E+00 -0.32343933317E+03  0.32343933317E+03  0.00000000000E+00 0.  1.
          6    1    1    2  501    0  0.84515469176E+02  0.90772851197E+02 -0.90980234002E+02  0.23074656666E+03  0.17200000000E+03 0.  1.
         -6    1    1    2    0  503 -0.84515469176E+02 -0.90772851197E+02 -0.93428897576E+02  0.23172296810E+03  0.17200000000E+03 0.  1.
</event>
<event>
 4    1  0.1249554E+000  0.1743747E+03  0.7818608E-02  0.1173361E+00
         21   -1    0    0  503  502  0.00000000000E+00  0.00000000000E+00  0.21698293047E+03  0.21698293047E+03  0.00000000000E+00 0.  1.
         21   -1    0    0  501  503 -0.00000000000E+00 -0.00000000000E+00 -0.17722332780E+03  0.17722332780E+03  0.00000000000E+00 0.  1.
          6    1    1    2  501    0 -0.25704571748E+02  0.12720525475E+02 -0.70290097483E+02  0.18800860241E+03  0.17200000000E+03 0.  1.
         -6    1    1    2    0  502  0.25704571748E+02 -0.12720525475E+02  0.11004970015E+03  0.20619765586E+03  0.17200000000E+03 0.  1.
</event>
<event>
 4    1  0.1249554E+000  0.2206186E+03  0.7818608E-02  0.1133423E+00
         21   -1    0    0  503  502  0.00000000000E+00  0.00000000000E+00  0.24553481281E+03  0.24553481281E+03  0.00000000000E+00 0. -1.
         21   -1    0    0  501  503 -0.00000000000E+00 -0.00000000000E+00 -0.20598543944E+03  0.20598543944E+03  0.00000000000E+00 0. -1.
          6    1    1    2  501    0  0.13534955179E+03  0.27731874756E+02 -0.24028960863E+02  0.22192329532E+03  0.17200000000E+03 0.  1.
         -6    1    1    2    0  502 -0.13534955179E+03 -0.27731874756E+02  0.63578334225E+02  0.22959695693E+03  0.17200000000E+03 0.  1.
</event>
<event>
 4    1  0.1249554E+000  0.2153994E+03  0.7818608E-02  0.1137360E+00
         21   -1    0    0  503  502  0.00000000000E+00  0.00000000000E+00  0.64733276339E+02  0.64733276339E+02  0.00000000000E+00 0.  1.
         21   -1    0    0  501  503 -0.00000000000E+00 -0.00000000000E+00 -0.72484716589E+03  0.72484716589E+03  0.00000000000E+00 0.  1.
          6    1    1    2  501    0 -0.11807447718E+03  0.53584660121E+02 -0.28830369129E+03  0.35988319823E+03  0.17200000000E+03 0.  1.
         -6    1    1    2    0  502  0.11807447718E+03 -0.53584660121E+02 -0.37181019826E+03  0.42969724399E+03  0.17200000000E+03 0.  1.
</event>
<event>
 4    1  0.1249554E+000  0.1966261E+03  0.7818608E-02  0.1152617E+00
         21   -1    0    0  503  502  0.00000000000E+00  0.00000000000E+00  0.11291913014E+04  0.11291913014E+04  0.00000000000E+00 0. -1.
         21   -1    0    0  501  503 -0.00000000000E+00 -0.00000000000E+00 -0.61918741739E+02  0.61918741739E+02  0.00000000000E+00 0. -1.
          6    1    1    2  501    0 -0.94117557957E+02 -0.14822484324E+02  0.13544133845E+03  0.23875966351E+03  0.17200000000E+03 0. -1.
         -6    1    1    2    0  502  0.94117557957E+02  0.14822484324E+02  0.93183122120E+03  0.95235037962E+03  0.17200000000E+03 0. -1.
</event>
<event>
 4    1  0.1249554E+000  0.1953159E+03  0.7818608E-02  0.1153752E+00
         21   -1    0    0  501  502  0.00000000000E+00  0.00000000000E+00  0.63046570965E+03  0.63046570965E+03  0.00000000000E+00 0.  1.
         21   -1    0    0  502  503 -0.00000000000E+00 -0.00000000000E+00 -0.16695838941E+03  0.16695838941E+03  0.00000000000E+00 0.  1.
          6    1    1    2  501    0  0.82670044095E+02  0.41592787533E+02  0.55012107831E+03  0.58376493297E+03  0.17200000000E+03 0.  1.
         -6    1    1    2    0  503 -0.82670044095E+02 -0.41592787533E+02 -0.86613758068E+02  0.21365916608E+03  0.17200000000E+03 0.  1.
</event>
<event>
 4    1  0.1249554E+000  0.2013249E+03  0.7818608E-02  0.1148626E+00
         21   -1    0    0  501  502  0.00000000000E+00  0.00000000000E+00  0.40197146548E+03  0.40197146548E+03  0.00000000000E+00 0. -1.
         21   -1    0    0  502  503 -0.00000000000E+00 -0.00000000000E+00 -0.10121044265E+03  0.10121044265E+03  0.00000000000E+00 0. -1.
          6    1    1    2  501    0 -0.10450453670E+03  0.51476737560E+01  0.16575941669E+03  0.26078320682E+03  0.17200000000E+03 0. -1.
         -6    1    1    2    0  503  0.10450453670E+03 -0.51476737560E+01  0.13500160614E+03  0.24239870131E+03  0.17200000000E+03 0. -1.
</event>
<event>
 4    1  0.1249554E+000  0.3717847E+03  0.7818608E-02  0.1054013E+00
         21   -1    0    0  501  502  0.00000000000E+00  0.00000000000E+00  0.36129383790E+03  0.36129383790E+03  0.00000000000E+00 0.  1.
         21   -1    0    0  502  503 -0.00000000000E+00 -0.00000000000E+00 -0.49566501181E+03  0.49566501181E+03  0.00000000000E+00 0.  1.
          6    1    1    2  501    0  0.32804497541E+03 -0.32037150936E+02  0.13747673373E+03  0.39638836669E+03  0.17200000000E+03 0.  1.
         -6    1    1    2    0  503 -0.32804497541E+03  0.32037150936E+02 -0.27184790765E+03  0.46057048302E+03  0.17200000000E+03 0.  1.
</event>
<event>
 4    1  0.1249554E+000  0.1724998E+03  0.7818608E-02  0.1175266E+00
         21   -1    0    0  501  502  0.00000000000E+00  0.00000000000E+00  0.12667027162E+03  0.12667027162E+03  0.00000000000E+00 0.  1.
         21   -1    0    0  502  503 -0.00000000000E+00 -0.00000000000E+00 -0.27501477674E+03  0.27501477674E+03  0.00000000000E+00 0.  1.
          6    1    1    2  501    0  0.12564923280E+02  0.37835910391E+01  0.25236770494E+01  0.17251829411E+03  0.17200000000E+03 0.  1.
         -6    1    1    2    0  503 -0.12564923280E+02 -0.37835910391E+01 -0.15086818218E+03  0.22916675425E+03  0.17200000000E+03 0.  1.
</event>
<event>
 4    1  0.1249554E+000  0.1933759E+03  0.7818608E-02  0.1155451E+00
         21   -1    0    0  503  502  0.00000000000E+00  0.00000000000E+00  0.26074024187E+02  0.26074024187E+02  0.00000000000E+00 0. -1.
         21   -1    0    0  501  503 -0.00000000000E+00 -0.00000000000E+00 -0.15257816128E+04  0.15257816128E+04  0.00000000000E+00 0. -1.
          6    1    1    2  501    0 -0.30777840897E+02 -0.82842992374E+02 -0.93999747016E+03  0.95968196856E+03  0.17200000000E+03 0. -1.
         -6    1    1    2    0  502  0.30777840897E+02  0.82842992374E+02 -0.55971011842E+03  0.59217366840E+03  0.17200000000E+03 0. -1.
</event>
<event>
 4    1  0.1249554E+000  0.1739348E+03  0.7818608E-02  0.1173805E+00
         21   -1    0    0  503  502  0.00000000000E+00  0.00000000000E+00  0.33416986295E+02  0.33416986295E+02  0.00000000000E+00 0.  1.
         21   -1    0    0  501  503 -0.00000000000E+00 -0.00000000000E+00 -0.90600167550E+03  0.90600167550E+03  0.00000000000E+00 0.  1.
          6    1    1    2  501    0  0.13946069580E+02 -0.21790781970E+02 -0.44910126615E+03  0.48160697492E+03  0.17200000000E+03 0.  1.
         -6    1    1    2    0  502 -0.13946069580E+02  0.21790781970E+02 -0.42348342306E+03  0.45781168687E+03  0.17200000000E+03 0.  1.
</event>
<event>
 4    1  0.1249554E+000  0.2115503E+03  0.7818608E-02  0.1140344E+00
         21   -1    0    0  503  502  0.00000000000E+00  0.00000000000E+00  0.71419241021E+02  0.71419241021E+02  0.00000000000E+00 0. -1.
         21   -1    0    0  501  503 -0.00000000000E+00 -0.00000000000E+00 -0.75658085440E+03  0.75658085440E+03  0.00000000000E+00 0. -1.
          6    1    1    2  501    0 -0.94056663290E+02  0.79516624096E+02 -0.51415805710E+03  0.55597846820E+03  0.17200000000E+03 0. -1.
         -6    1    1    2    0  502  0.94056663290E+02 -0.79516624096E+02 -0.17100355627E+03  0.27202162722E+03  0.17200000000E+03 0. -1.
</event>
<event>
 4    1  0.1249554E+000  0.1897041E+03  0.7818608E-02  0.1158728E+00
         21   -1    0    0  501  502  0.00000000000E+00  0.00000000000E+00  0.16399314302E+04  0.16399314302E+04  0.00000000000E+00 0. -1.
         21   -1    0    0  502  503 -0.00000000000E+00 -0.00000000000E+00 -0.28635974168E+02  0.28635974168E+02  0.00000000000E+00 0. -1.
          6    1    1    2  501    0 -0.79953116194E+02  0.33386738807E+01  0.12089357031E+04  0.12237292110E+04  0.17200000000E+03 0. -1.
         -6    1    1    2    0  503  0.79953116194E+02 -0.33386738807E+01  0.40235975291E+03  0.44483819339E+03  0.17200000000E+03 0. -1.
</event>
<event>
 4    1  0.1249554E+000  0.2141391E+03  0.7818608E-02  0.1138330E+00
         21   -1    0    0  501  502  0.00000000000E+00  0.00000000000E+00  0.14694960865E+03  0.14694960865E+03  0.00000000000E+00 0. -1.
         21   -1    0    0  502  503 -0.00000000000E+00 -0.00000000000E+00 -0.31602826103E+03  0.31602826103E+03  0.00000000000E+00 0. -1.
          6    1    1    2  501    0  0.11119565862E+03 -0.62506535086E+02 -0.11051370058E+03  0.24097472781E+03  0.17200000000E+03 0. -1.
         -6    1    1    2    0  503 -0.11119565862E+03  0.62506535086E+02 -0.58564951800E+02  0.22200314188E+03  0.17200000000E+03 0. -1.
</event>
<event>
 4    1  0.1249554E+000  0.2630848E+03  0.7818608E-02  0.1105304E+00
         21   -1    0    0  503  502  0.00000000000E+00  0.00000000000E+00  0.97953307855E+02  0.97953307855E+02  0.00000000000E+00 0. -1.
         21   -1    0    0  501  503 -0.00000000000E+00 -0.00000000000E+00 -0.71232377835E+03  0.71232377835E+03  0.00000000000E+00 0.  1.
          6    1    1    2  501    0 -0.18784492225E+03  0.65908260225E+02 -0.27086227190E+03  0.37759764819E+03  0.17200000000E+03 0. -1.
         -6    1    1    2    0  502  0.18784492225E+03 -0.65908260225E+02 -0.34350819859E+03  0.43267943801E+03  0.17200000000E+03 0.  1.
</event>
<event>
 4    1  0.1249554E+000  0.1808778E+03  0.7818608E-02  0.1166956E+00
         21   -1    0    0  503  502  0.00000000000E+00  0.00000000000E+00  0.26725807553E+02  0.26725807553E+02  0.00000000000E+00 0.  1.
         21   -1    0    0  501  503 -0.00000000000E+00 -0.00000000000E+00 -0.14724782116E+04  0.14724782116E+04  0.00000000000E+00 0.  1.
          6    1    1    2  501    0  0.62139587241E+00 -0.55967728705E+02 -0.10307034421E+04  0.10464541836E+04  0.17200000000E+03 0. -1.
         -6    1    1    2    0  502 -0.62139587241E+00  0.55967728705E+02 -0.41504896190E+03  0.45274983552E+03  0.17200000000E+03 0. -1.
</event>
<event>
 4    1  0.1249554E+000  0.1761062E+03  0.7818608E-02  0.1171626E+00
         21   -1    0    0  501  502  0.00000000000E+00  0.00000000000E+00  0.60087970742E+02  0.60087970742E+02  0.00000000000E+00 0. -1.
         21   -1    0    0  502  503 -0.00000000000E+00 -0.00000000000E+00 -0.82962284645E+03  0.82962284645E+03  0.00000000000E+00 0. -1.
          6    1    1    2  501    0  0.36532440588E+02 -0.97353715061E+01 -0.11130975852E+03  0.20833448830E+03  0.17200000000E+03 0. -1.
         -6    1    1    2    0  503 -0.36532440588E+02  0.97353715061E+01 -0.65822511719E+03  0.68137632889E+03  0.17200000000E+03 0. -1.
</event>
<event>
 4    1  0.1249554E+000  0.1940331E+03  0.7818608E-02  0.1154873E+00
         21   -1    0    0  501  502  0.00000000000E+00  0.00000000000E+00  0.29513196277E+03  0.29513196277E+03  0.00000000000E+00 0.  1.
         21   -1    0    0  502  503 -0.00000000000E+00 -0.00000000000E+00 -0.12760004285E+03  0.12760004285E+03  0.00000000000E+00 0.  1.
          6    1    1    2  501    0  0.69522666637E+02 -0.56845884985E+02  0.87209452120E+02  0.21273068503E+03  0.17200000000E+03 0.  1.
         -6    1    1    2    0  503 -0.69522666637E+02  0.56845884985E+02  0.80322467793E+02  0.21000132059E+03  0.17200000000E+03 0.  1.
</event>
<event>
 4    1  0.1249554E+000  0.2406496E+03  0.7818608E-02  0.1119361E+00
         21   -1    0    0  501  502  0.00000000000E+00  0.00000000000E+00  0.10780094171E+03  0.10780094171E+03  0.00000000000E+00 0.  1.
         21   -1    0    0  502  503 -0.00000000000E+00 -0.00000000000E+00 -0.70943559844E+03  0.70943559844E+03  0.00000000000E+00 0. -1.
          6    1    1    2  501    0 -0.40359970643E+01  0.16826148215E+03 -0.99489121281E+02  0.26040411076E+03  0.17200000000E+03 0. -1.
         -6    1    1    2    0  503  0.40359970643E+01 -0.16826148215E+03 -0.50214553545E+03  0.55683242939E+03  0.17200000000E+03 0. -1.
</event>
<event>
 4    1  0.1249554E+000  0.1838867E+03  0.7818608E-02  0.1164094E+00
         21   -1    0    0  503  502  0.00000000000E+00  0.00000000000E+00  0.50791379291E+02  0.50791379291E+02  0.00000000000E+00 0.  1.
         21   -1    0    0  501  503 -0.00000000000E+00 -0.00000000000E+00 -0.66970313282E+03  0.66970313282E+03  0.00000000000E+00 0.  1.
          6    1    1    2  501    0  0.59476786972E+02 -0.26321360286E+02 -0.33713762727E+03  0.38402614744E+03  0.17200000000E+03 0.  1.
         -6    1    1    2    0  502 -0.59476786972E+02  0.26321360286E+02 -0.28177412626E+03  0.33646836467E+03  0.17200000000E+03 0.  1.
</event>
<event>
 4    1  0.1249554E+000  0.1797875E+03  0.7818608E-02  0.1168009E+00
         21   -1    0    0  501  502  0.00000000000E+00  0.00000000000E+00  0.61164788154E+03  0.61164788154E+03  0.00000000000E+00 0. -1.
         21   -1    0    0  502  503 -0.00000000000E+00 -0.00000000000E+00 -0.62408996362E+02  0.62408996362E+02  0.00000000000E+00 0. -1.
          6    1    1    2  501    0  0.52297888028E+02  0.21176329743E+01  0.40654372526E+03  0.44452373841E+03  0.17200000000E+03 0. -1.
         -6    1    1    2    0  503 -0.52297888028E+02 -0.21176329743E+01  0.14269515992E+03  0.22953313950E+03  0.17200000000E+03 0. -1.
</event>
<event>
 4    1  0.1249554E+000  0.2143988E+03  0.7818608E-02  0.1138129E+00
         21   -1    0    0  501  502  0.00000000000E+00  0.00000000000E+00  0.35380070246E+03  0.35380070246E+03  0.00000000000E+00 0.  1.
         21   -1    0    0  502  503 -0.00000000000E+00 -0.00000000000E+00 -0.29464631940E+03  0.29464631940E+03  0.00000000000E+00 0.  1.
          6    1    1    2  501    0  0.58348625943E+02 -0.11392228123E+03  0.27199891702E+03  0.34633835937E+03  0.17200000000E+03 0.  1.
         -6    1    1    2    0  503 -0.58348625943E+02  0.11392228123E+03 -0.21284453396E+03  0.30210866248E+03  0.17200000000E+03 0.  1.
</event>
<event>
 4    1  0.1249554E+000  0.1952082E+03  0.7818608E-02  0.1153846E+00
         21   -1    0    0  501  502  0.00000000000E+00  0.00000000000E+00  0.14333432530E+04  0.14333432530E+04  0.00000000000E+00 0.  1.
         21   -1    0    0  502  503 -0.00000000000E+00 -0.00000000000E+00 -0.27142749685E+02  0.27142749685E+02  0.00000000000E+00 0. -1.
          6    1    1    2  501    0 -0.26265144491E+01  0.92278648728E+02  0.80772587649E+03  0.83097974653E+03  0.17200000000E+03 0. -1.
         -6    1    1    2    0  503  0.26265144491E+01 -0.92278648728E+02  0.59847462686E+03  0.62950625619E+03  0.17200000000E+03 0. -1.
</event>
<event>
 4    1  0.1249554E+000  0.1820436E+03  0.7818608E-02  0.1165840E+00
         21   -1    0    0  501  502  0.00000000000E+00  0.00000000000E+00  0.54030766814E+02  0.54030766814E+02  0.00000000000E+00 0.  1.
         21   -1    0    0  502  503 -0.00000000000E+00 -0.00000000000E+00 -0.69859800374E+03  0.69859800374E+03  0.00000000000E+00 0.  1.
          6    1    1    2  501    0  0.40309391627E+02 -0.43943259862E+02 -0.45373803739E+03  0.48889473685E+03  0.17200000000E+03 0.  1.
         -6    1    1    2    0  503 -0.40309391627E+02  0.43943259862E+02 -0.19082919953E+03  0.26373403371E+03  0.17200000000E+03 0.  1.
</event>
<event>
 4    1  0.1249554E+000  0.2002562E+03  0.7818608E-02  0.1149523E+00
         21   -1    0    0  503  502  0.00000000000E+00  0.00000000000E+00  0.13405482511E+03  0.13405482511E+03  0.00000000000E+00 0. -1.
         21   -1    0    0  501  503 -0.00000000000E+00 -0.00000000000E+00 -0.30152671037E+03  0.30152671037E+03  0.00000000000E+00 0. -1.
          6    1    1    2  501    0  0.21846182244E+02 -0.10020616969E+03 -0.64400975296E+02  0.21035688185E+03  0.17200000000E+03 0. -1.
         -6    1    1    2    0  502 -0.21846182244E+02  0.10020616969E+03 -0.10307090996E+03  0.22522465363E+03  0.17200000000E+03 0. -1.
</event>
<event>
 4    1  0.1249554E+000  0.2541368E+03  0.7818608E-02  0.1110718E+00
         21   -1    0    0  501  502  0.00000000000E+00  0.00000000000E+00  0.10615445628E+03  0.10615445628E+03  0.00000000000E+00 0. -1.
         21   -1    0    0  502  503 -0.00000000000E+00 -0.00000000000E+00 -0.63596709681E+03  0.63596709681E+03  0.00000000000E+00 0. -1.
          6    1    1    2  501    0  0.61684881505E+01  0.18698520060E+03 -0.34214561761E+03  0.42620316651E+03  0.17200000000E+03 0. -1.
         -6    1    1    2    0  503 -0.61684881505E+01 -0.18698520060E+03 -0.18766702292E+03  0.31591838658E+03  0.17200000000E+03 0. -1.
</event>
<event>
 4    1  0.1249554E+000  0.2149677E+03  0.7818608E-02  0.1137691E+00
         21   -1    0    0  503  502  0.00000000000E+00  0.00000000000E+00  0.11811648436E+03  0.11811648436E+03  0.00000000000E+00 0.  1.
         21   -1    0    0  501  503 -0.00000000000E+00 -0.00000000000E+00 -0.39422100434E+03  0.39422100434E+03  0.00000000000E+00 0.  1.
          6    1    1    2  501    0  0.12070826932E+03 -0.45349982341E+02 -0.16035313256E+03  0.26818693909E+03  0.17200000000E+03 0.  1.
         -6    1    1    2    0  502 -0.12070826932E+03  0.45349982341E+02 -0.11575138742E+03  0.24415054960E+03  0.17200000000E+03 0.  1.
</event>
<event>
 4    1  0.1249554E+000  0.1865965E+03  0.7818608E-02  0.1161567E+00
         21   -1    0    0  501  502  0.00000000000E+00  0.00000000000E+00  0.74842644904E+02  0.74842644904E+02  0.00000000000E+00 0. -1.
         21   -1    0    0  502  503 -0.00000000000E+00 -0.00000000000E+00 -0.61168588922E+03  0.61168588922E+03  0.00000000000E+00 0. -1.
          6    1    1    2  501    0  0.47711911732E+02 -0.54386071631E+02 -0.10045109445E+03  0.21191671403E+03  0.17200000000E+03 0. -1.
         -6    1    1    2    0  503 -0.47711911732E+02  0.54386071631E+02 -0.43639214987E+03  0.47461182010E+03  0.17200000000E+03 0. -1.
</event>
<event>
 4    1  0.1249554E+000  0.2287602E+03  0.7818608E-02  0.1127515E+00
         21   -1    0    0  501  502  0.00000000000E+00  0.00000000000E+00  0.65734740921E+03  0.65734740921E+03  0.00000000000E+00 0.  1.
         21   -1    0    0  502  503 -0.00000000000E+00 -0.00000000000E+00 -0.94325015271E+02  0.94325015271E+02  0.00000000000E+00 0.  1.
          6    1    1    2  501    0 -0.99621715930E+02  0.11323756577E+03  0.42995767867E+03  0.48702652703E+03  0.17200000000E+03 0.  1.
         -6    1    1    2    0  503  0.99621715930E+02 -0.11323756577E+03  0.13306471527E+03  0.26464589745E+03  0.17200000000E+03 0.  1.
</event>
<event>
 4    1  0.1249554E+000  0.1874401E+03  0.7818608E-02  0.1160791E+00
         21   -1    0    0  501  502  0.00000000000E+00  0.00000000000E+00  0.64568954120E+02  0.64568954120E+02  0.00000000000E+00 0.  1.
         21   -1    0    0  502  503 -0.00000000000E+00 -0.00000000000E+00 -0.57577594754E+03  0.57577594754E+03  0.00000000000E+00 0.  1.
          6    1    1    2  501    0  0.22648663205E+01  0.74462594975E+02 -0.18054037936E+03  0.26024725983E+03  0.17200000000E+03 0. -1.
         -6    1    1    2    0  503 -0.22648663205E+01 -0.74462594975E+02 -0.33066661407E+03  0.38009764183E+03  0.17200000000E+03 0. -1.
</event>
<event>
 4    1  0.1249554E+000  0.1775526E+03  0.7818608E-02  0.1170193E+00
         21   -1    0    0  503  502  0.00000000000E+00  0.00000000000E+00  0.38535032919E+03  0.38535032919E+03  0.00000000000E+00 0.  1.
         21   -1    0    0  501  503 -0.00000000000E+00 -0.00000000000E+00 -0.81812603186E+02  0.81812603186E+02  0.00000000000E+00 0.  1.
          6    1    1    2  501    0  0.26722194030E+02  0.35026333246E+02  0.15010801324E+03  0.23250233399E+03  0.17200000000E+03 0. -1.
         -6    1    1    2    0  502 -0.26722194030E+02 -0.35026333246E+02  0.15342971277E+03  0.23466059839E+03  0.17200000000E+03 0. -1.
</event>
<event>
 4    1  0.1249554E+000  0.1880181E+03  0.7818608E-02  0.1160261E+00
         21   -1    0    0  503  502  0.00000000000E+00  0.00000000000E+00  0.96573017233E+03  0.96573017233E+03  0.00000000000E+00 0.  1.
         21   -1    0    0  501  503 -0.00000000000E+00 -0.00000000000E+00 -0.37094486022E+02  0.37094486022E+02  0.00000000000E+00 0.  1.
          6    1    1    2  501    0 -0.75647745452E+02  0.66515058022E+01  0.40673594591E+03  0.44809034091E+03  0.17200000000E+03 0.  1.
         -6    1    1    2    0  502  0.75647745452E+02 -0.66515058022E+01  0.52189974039E+03  0.55473431744E+03  0.17200000000E+03 0.  1.
</event>
<event>
 4    1  0.1249554E+000  0.1756511E+03  0.7818608E-02  0.1172080E+00
         21   -1    0    0  501  502  0.00000000000E+00  0.00000000000E+00  0.56809020348E+03  0.56809020348E+03  0.00000000000E+00 0. -1.
         21   -1    0    0  502  503 -0.00000000000E+00 -0.00000000000E+00 -0.66530710768E+02  0.66530710768E+02  0.00000000000E+00 0. -1.
          6    1    1    2  501    0  0.11269209467E+02  0.33798182397E+02  0.38677104210E+03  0.42478836051E+03  0.17200000000E+03 0. -1.
         -6    1    1    2    0  503 -0.11269209467E+02 -0.33798182397E+02  0.11478845061E+03  0.20983255374E+03  0.17200000000E+03 0. -1.
</event>
<event>
 4    1  0.1249554E+000  0.1973731E+03  0.7818608E-02  0.1151974E+00
         21   -1    0    0  501  502  0.00000000000E+00  0.00000000000E+00  0.51611891246E+03  0.51611891246E+03  0.00000000000E+00 0.  1.
         21   -1    0    0  502  503 -0.00000000000E+00 -0.00000000000E+00 -0.76119036310E+02  0.76119036310E+02  0.00000000000E+00 0.  1.
          6    1    1    2  501    0  0.45230029186E+01  0.96704024040E+02  0.24715375115E+03  0.31629274814E+03  0.17200000000E+03 0.  1.
         -6    1    1    2    0  503 -0.45230029186E+01 -0.96704024040E+02  0.19284612500E+03  0.27594520063E+03  0.17200000000E+03 0.  1.
</event>
<event>
 4    1  0.1249554E+000  0.1873747E+03  0.7818608E-02  0.1160851E+00
         21   -1    0    0  501  502  0.00000000000E+00  0.00000000000E+00  0.13328460884E+03  0.13328460884E+03  0.00000000000E+00 0. -1.
         21   -1    0    0  502  503 -0.00000000000E+00 -0.00000000000E+00 -0.35109856997E+03  0.35109856997E+03  0.00000000000E+00 0. -1.
          6    1    1    2  501    0  0.20840947632E+02 -0.71350793061E+02  0.12125376792E+02  0.18776662518E+03  0.17200000000E+03 0. -1.
         -6    1    1    2    0  503 -0.20840947632E+02  0.71350793061E+02 -0.22993933792E+03  0.29661655364E+03  0.17200000000E+03 0. -1.
</event>
<event>
 4    1  0.1249554E+000  0.1784577E+03  0.7818608E-02  0.1169304E+00
         21   -1    0    0  503  502  0.00000000000E+00  0.00000000000E+00  0.13486915493E+04  0.13486915493E+04  0.00000000000E+00 0.  1.
         21   -1    0    0  501  503 -0.00000000000E+00 -0.00000000000E+00 -0.24950079943E+02  0.24950079943E+02  0.00000000000E+00 0.  1.
          6    1    1    2  501    0  0.28843986431E+02 -0.37831010350E+02  0.50289711470E+03  0.53362221550E+03  0.17200000000E+03 0. -1.
         -6    1    1    2    0  502 -0.28843986431E+02  0.37831010350E+02  0.82084435464E+03  0.84001941373E+03  0.17200000000E+03 0. -1.
</event>
<event>
 4    1  0.1249554E+000  0.2501660E+03  0.7818608E-02  0.1113200E+00
         21   -1    0    0  501  502  0.00000000000E+00  0.00000000000E+00  0.26421617397E+03  0.26421617397E+03  0.00000000000E+00 0.  1.
         21   -1    0    0  502  503 -0.00000000000E+00 -0.00000000000E+00 -0.32506590956E+03  0.32506590956E+03  0.00000000000E+00 0. -1.
          6    1    1    2  501    0  0.57562055910E+02 -0.17229526058E+03  0.12305410254E+03  0.27879268149E+03  0.17200000000E+03 0.  1.
         -6    1    1    2    0  503 -0.57562055910E+02  0.17229526058E+03 -0.18390383813E+03  0.31048940204E+03  0.17200000000E+03 0.  1.
</event>
<event>
 4    1  0.1249554E+000  0.2024934E+03  0.7818608E-02  0.1147652E+00
         21   -1    0    0  503  502  0.00000000000E+00  0.00000000000E+00  0.73204913179E+02  0.73204913179E+02  0.00000000000E+00 0.  1.
         21   -1    0    0  501  503 -0.00000000000E+00 -0.00000000000E+00 -0.56036710529E+03  0.56036710529E+03  0.00000000000E+00 0. -1.
          6    1    1    2  501    0 -0.97110739383E+02 -0.44599061465E+02 -0.25022675289E+03  0.32189594569E+03  0.17200000000E+03 0.  1.
         -6    1    1    2    0  502  0.97110739383E+02  0.44599061465E+02 -0.23693543922E+03  0.31167607279E+03  0.17200000000E+03 0. -1.
</event>
<event>
 4    1  0.1249554E+000  0.1892807E+03  0.7818608E-02  0.1159112E+00
         21   -1    0    0  501  502  0.00000000000E+00  0.00000000000E+00  0.11149365547E+04  0.11149365547E+04  0.00000000000E+00 0.  1.
         21   -1    0    0  502  503 -0.00000000000E+00 -0.00000000000E+00 -0.32175492363E+02  0.32175492363E+02  0.00000000000E+00 0. -1.
          6    1    1    2  501    0 -0.60292688254E+02  0.51068217502E+02  0.56202172503E+03  0.59303928243E+03  0.17200000000E+03 0. -1.
         -6    1    1    2    0  503  0.60292688254E+02 -0.51068217502E+02  0.52073933736E+03  0.55407276469E+03  0.17200000000E+03 0.  1.
</event>
<event>
 4    1  0.1249554E+000  0.2008587E+03  0.7818608E-02  0.1149017E+00
         21   -1    0    0  503  502  0.00000000000E+00  0.00000000000E+00  0.12982285091E+03  0.12982285091E+03  0.00000000000E+00 0. -1.
         21   -1    0    0  501  503 -0.00000000000E+00 -0.00000000000E+00 -0.31858621682E+03  0.31858621682E+03  0.00000000000E+00 0. -1.
          6    1    1    2  501    0 -0.14524497425E+02 -0.10270951863E+03 -0.59249177373E+02  0.20941506933E+03  0.17200000000E+03 0.  1.
         -6    1    1    2    0  502  0.14524497425E+02  0.10270951863E+03 -0.12951418853E+03  0.23899399840E+03  0.17200000000E+03 0.  1.
</event>
<event>
 4    1  0.1249554E+000  0.1827742E+03  0.7818608E-02  0.1165145E+00
         21   -1    0    0  503  502  0.00000000000E+00  0.00000000000E+00  0.44584434089E+03  0.44584434089E+03  0.00000000000E+00 0.  1.
         21   -1    0    0  501  503 -0.00000000000E+00 -0.00000000000E+00 -0.21161158618E+03  0.21161158618E+03  0.00000000000E+00 0.  1.
          6    1    1    2  501    0  0.51099202881E+02 -0.34803284261E+02 -0.14707856313E+03  0.23460285774E+03  0.17200000000E+03 0.  1.
         -6    1    1    2    0  502 -0.51099202881E+02  0.34803284261E+02  0.38131131784E+03  0.42285306933E+03  0.17200000000E+03 0.  1.
</event>
<event>
 4    1  0.1249554E+000  0.1787740E+03  0.7818608E-02  0.1168995E+00
         21   -1    0    0  503  502  0.00000000000E+00  0.00000000000E+00  0.93655607084E+02  0.93655607084E+02  0.00000000000E+00 0.  1.
         21   -1    0    0  501  503 -0.00000000000E+00 -0.00000000000E+00 -0.45131636865E+03  0.45131636865E+03  0.00000000000E+00 0.  1.
          6    1    1    2  501    0 -0.39096435551E+02  0.29114071166E+02 -0.31339381567E+03  0.36079889705E+03  0.17200000000E+03 0.  1.
         -6    1    1    2    0  502  0.39096435551E+02 -0.29114071166E+02 -0.44266945894E+02  0.18417307868E+03  0.17200000000E+03 0.  1.
</event>
<event>
 4    1  0.1249554E+000  0.3016355E+03  0.7818608E-02  0.1084426E+00
         21   -1    0    0  501  502  0.00000000000E+00  0.00000000000E+00  0.56168426065E+03  0.56168426065E+03  0.00000000000E+00 0. -1.
         21   -1    0    0  502  503 -0.00000000000E+00 -0.00000000000E+00 -0.24277853339E+03  0.24277853339E+03  0.00000000000E+00 0.  1.
          6    1    1    2  501    0  0.12444672882E+03  0.21427309511E+03 -0.72586363712E+02  0.31024623736E+03  0.17200000000E+03 0.  1.
         -6    1    1    2    0  503 -0.12444672882E+03 -0.21427309511E+03  0.39149209097E+03  0.49421655668E+03  0.17200000000E+03 0.  1.
</event>
<event>
 4    1  0.1249554E+000  0.1769073E+03  0.7818608E-02  0.1170830E+00
         21   -1    0    0  503  502  0.00000000000E+00  0.00000000000E+00  0.65646952272E+02  0.65646952272E+02  0.00000000000E+00 0. -1.
         21   -1    0    0  501  503 -0.00000000000E+00 -0.00000000000E+00 -0.53919125803E+03  0.53919125803E+03  0.00000000000E+00 0. -1.
          6    1    1    2  501    0 -0.38044837654E+02 -0.16272296400E+02 -0.33969834716E+03  0.38300282553E+03  0.17200000000E+03 0.  1.
         -6    1    1    2    0  502  0.38044837654E+02  0.16272296400E+02 -0.13384595860E+03  0.22183538477E+03  0.17200000000E+03 0.  1.
</event>
<event>
 4    1  0.1249554E+000  0.2121023E+03  0.7818608E-02  0.1139912E+00
         21   -1    0    0  501  502  0.00000000000E+00  0.00000000000E+00  0.94011678463E+02  0.94011678463E+02  0.00000000000E+00 0. -1.
         21   -1    0    0  502  503 -0.00000000000E+00 -0.00000000000E+00 -0.49309916490E+03  0.49309916490E+03  0.00000000000E+00 0. -1.
          6    1    1    2  501    0 -0.12385350171E+03 -0.79822370449E+01 -0.14908450400E+03  0.25925584917E+03  0.17200000000E+03 0. -1.
         -6    1    1    2    0  503  0.12385350171E+03  0.79822370449E+01 -0.25000298243E+03  0.32785499420E+03  0.17200000000E+03 0. -1.
</event>
<event>
 4    1  0.1249554E+000  0.1862825E+03  0.7818608E-02  0.1161858E+00
         21   -1    0    0  501  502  0.00000000000E+00  0.00000000000E+00  0.68869741508E+02  0.68869741508E+02  0.00000000000E+00 0.  1.
         21   -1    0    0  502  503 -0.00000000000E+00 -0.00000000000E+00 -0.50837583994E+03  0.50837583994E+03  0.00000000000E+00 0.  1.
          6    1    1    2  501    0 -0.71529508959E+02  0.82740465212E+00 -0.19257020416E+03  0.26792618159E+03  0.17200000000E+03 0. -1.
         -6    1    1    2    0  503  0.71529508959E+02 -0.82740465212E+00 -0.24693589427E+03  0.30931939986E+03  0.17200000000E+03 0. -1.
</event>
<event>
 4    1  0.1249554E+000  0.2070415E+03  0.7818608E-02  0.1143930E+00
         21   -1    0    0  501  502  0.00000000000E+00  0.00000000000E+00  0.20439540646E+03  0.20439540646E+03  0.00000000000E+00 0. -1.
         21   -1    0    0  502  503 -0.00000000000E+00 -0.00000000000E+00 -0.21398996341E+03  0.21398996341E+03  0.00000000000E+00 0.  1.
          6    1    1    2  501    0 -0.68387948638E+02  0.92764653445E+02  0.24746453836E+02  0.20851517792E+03  0.17200000000E+03 0. -1.
         -6    1    1    2    0  503  0.68387948638E+02 -0.92764653445E+02 -0.34341010788E+02  0.20987019195E+03  0.17200000000E+03 0.  1.
</event>
<event>
 4    1  0.1249554E+000  0.3221978E+03  0.7818608E-02  0.1074642E+00
         21   -1    0    0  503  502  0.00000000000E+00  0.00000000000E+00  0.42773606653E+03  0.42773606653E+03  0.00000000000E+00 0.  1.
         21   -1    0    0  501  503 -0.00000000000E+00 -0.00000000000E+00 -0.49526505237E+03  0.49526505237E+03  0.00000000000E+00 0. -1.
          6    1    1    2  501    0 -0.89025567571E+02  0.25749145932E+03 -0.36332889849E+03  0.48561228545E+03  0.17200000000E+03 0.  1.
         -6    1    1    2    0  502  0.89025567571E+02 -0.25749145932E+03  0.29579991265E+03  0.43738883345E+03  0.17200000000E+03 0.  1.
</event>
<event>
 4    1  0.1249554E+000  0.3670491E+03  0.7818608E-02  0.1055827E+00
         21   -1    0    0  501  502  0.00000000000E+00  0.00000000000E+00  0.41816524328E+03  0.41816524328E+03  0.00000000000E+00 0.  1.
         21   -1    0    0  502  503 -0.00000000000E+00 -0.00000000000E+00 -0.59305547185E+03  0.59305547185E+03  0.00000000000E+00 0.  1.
          6    1    1    2  501    0  0.29031584900E+03  0.14442213601E+03  0.25426045398E+03  0.44651251271E+03  0.17200000000E+03 0.  1.
         -6    1    1    2    0  503 -0.29031584900E+03 -0.14442213601E+03 -0.42915068255E+03  0.56470820242E+03  0.17200000000E+03 0.  1.
</event>
<event>
 4    1  0.1249554E+000  0.3022908E+03  0.7818608E-02  0.1084101E+00
         21   -1    0    0  503  502  0.00000000000E+00  0.00000000000E+00  0.10753197958E+04  0.10753197958E+04  0.00000000000E+00 0.  1.
         21   -1    0    0  501  503 -0.00000000000E+00 -0.00000000000E+00 -0.84980464144E+02  0.84980464144E+02  0.00000000000E+00 0.  1.
          6    1    1    2  501    0 -0.85202950311E+02  0.23352978593E+03  0.49284146699E+03  0.57816296599E+03  0.17200000000E+03 0.  1.
         -6    1    1    2    0  502  0.85202950311E+02 -0.23352978593E+03  0.49749786466E+03  0.58213729395E+03  0.17200000000E+03 0.  1.
</event>
<event>
 4    1  0.1249554E+000  0.2250387E+03  0.7818608E-02  0.1130181E+00
         21   -1    0    0  501  502  0.00000000000E+00  0.00000000000E+00  0.10530141415E+03  0.10530141415E+03  0.00000000000E+00 0.  1.
         21   -1    0    0  502  503 -0.00000000000E+00 -0.00000000000E+00 -0.54335723378E+03  0.54335723378E+03  0.00000000000E+00 0.  1.
          6    1    1    2  501    0  0.85282604070E+02  0.11741078098E+03 -0.10909265708E+03  0.25008722853E+03  0.17200000000E+03 0.  1.
         -6    1    1    2    0  503 -0.85282604070E+02 -0.11741078098E+03 -0.32896316255E+03  0.39857141940E+03  0.17200000000E+03 0.  1.
</event>
<event>
 4    1  0.1249554E+000  0.2149783E+03  0.7818608E-02  0.1137683E+00
         21   -1    0    0  501  502  0.00000000000E+00  0.00000000000E+00  0.27741996908E+03  0.27741996908E+03  0.00000000000E+00 0. -1.
         21   -1    0    0  502  503 -0.00000000000E+00 -0.00000000000E+00 -0.16665483788E+03  0.16665483788E+03  0.00000000000E+00 0.  1.
          6    1    1    2  501    0 -0.26940792074E+02  0.12611843269E+03  0.51036319326E+02  0.22095332365E+03  0.17200000000E+03 0. -1.
         -6    1    1    2    0  503  0.26940792074E+02 -0.12611843269E+03  0.59728811878E+02  0.22312148330E+03  0.17200000000E+03 0. -1.
</event>
<event>
 4    1  0.1249554E+000  0.2220026E+03  0.7818608E-02  0.1132399E+00
         21   -1    0    0  501  502  0.00000000000E+00  0.00000000000E+00  0.42584711153E+03  0.42584711153E+03  0.00000000000E+00 0.  1.
         21   -1    0    0  502  503 -0.00000000000E+00 -0.00000000000E+00 -0.18669419459E+03  0.18669419459E+03  0.00000000000E+00 0. -1.
          6    1    1    2  501    0  0.11583656858E+03  0.79265784187E+02  0.30839561069E+03  0.37999082601E+03  0.17200000000E+03 0.  1.
         -6    1    1    2    0  503 -0.11583656858E+03 -0.79265784187E+02 -0.69242693746E+02  0.23255048011E+03  0.17200000000E+03 0. -1.
</event>
<event>
 4    1  0.1249554E+000  0.2398199E+03  0.7818608E-02  0.1119913E+00
         21   -1    0    0  501  502  0.00000000000E+00  0.00000000000E+00  0.23618474246E+03  0.23618474246E+03  0.00000000000E+00 0. -1.
         21   -1    0    0  502  503 -0.00000000000E+00 -0.00000000000E+00 -0.42305111982E+03  0.42305111982E+03  0.00000000000E+00 0. -1.
          6    1    1    2  501    0  0.16704596492E+03  0.50226809847E+01  0.12129801852E+03  0.26875042515E+03  0.17200000000E+03 0. -1.
         -6    1    1    2    0  503 -0.16704596492E+03 -0.50226809847E+01 -0.30816439588E+03  0.39048543713E+03  0.17200000000E+03 0. -1.
</event>
<event>
 4    1  0.1249554E+000  0.1982711E+03  0.7818608E-02  0.1151206E+00
         21   -1    0    0  503  502  0.00000000000E+00  0.00000000000E+00  0.83419400471E+03  0.83419400471E+03  0.00000000000E+00 0.  1.
         21   -1    0    0  501  503 -0.00000000000E+00 -0.00000000000E+00 -0.50098418641E+02  0.50098418641E+02  0.00000000000E+00 0.  1.
          6    1    1    2  501    0 -0.54903807860E+02 -0.81932998980E+02  0.28433249686E+03  0.34663585102E+03  0.17200000000E+03 0.  1.
         -6    1    1    2    0  502  0.54903807860E+02  0.81932998980E+02  0.49976308921E+03  0.53765657234E+03  0.17200000000E+03 0.  1.
</event>
<event>
 4    1  0.1249554E+000  0.3078455E+03  0.7818608E-02  0.1081383E+00
         21   -1    0    0  503  502  0.00000000000E+00  0.00000000000E+00  0.32962885885E+03  0.32962885885E+03  0.00000000000E+00 0. -1.
         21   -1    0    0  501  503 -0.00000000000E+00 -0.00000000000E+00 -0.29263733590E+03  0.29263733590E+03  0.00000000000E+00 0.  1.
          6    1    1    2  501    0 -0.15814457611E+03  0.20043731039E+03 -0.22721861248E+02  0.30868285558E+03  0.17200000000E+03 0.  1.
         -6    1    1    2    0  502  0.15814457611E+03 -0.20043731039E+03  0.59713384197E+02  0.31358333916E+03  0.17200000000E+03 0. -1.
</event>
<event>
 4    1  0.1249554E+000  0.2022999E+03  0.7818608E-02  0.1147813E+00
         21   -1    0    0  503  502  0.00000000000E+00  0.00000000000E+00  0.69050785529E+03  0.69050785529E+03  0.00000000000E+00 0.  1.
         21   -1    0    0  501  503 -0.00000000000E+00 -0.00000000000E+00 -0.63757478812E+02  0.63757478812E+02  0.00000000000E+00 0.  1.
          6    1    1    2  501    0  0.71457879645E+02 -0.78962040503E+02  0.21330340499E+03  0.29397886826E+03  0.17200000000E+03 0.  1.
         -6    1    1    2    0  502 -0.71457879645E+02  0.78962040503E+02  0.41344697149E+03  0.46028646584E+03  0.17200000000E+03 0.  1.
</event>
<event>
 4    1  0.1249554E+000  0.1984176E+03  0.7818608E-02  0.1151081E+00
         21   -1    0    0  501  502  0.00000000000E+00  0.00000000000E+00  0.62375113238E+03  0.62375113238E+03  0.00000000000E+00 0.  1.
         21   -1    0    0  502  503 -0.00000000000E+00 -0.00000000000E+00 -0.12934188413E+03  0.12934188413E+03  0.00000000000E+00 0.  1.
          6    1    1    2  501    0  0.95086130291E+02 -0.27279400695E+02  0.51664233955E+03  0.55343368609E+03  0.17200000000E+03 0.  1.
         -6    1    1    2    0  503 -0.95086130291E+02  0.27279400695E+02 -0.22233091310E+02  0.19965933042E+03  0.17200000000E+03 0.  1.
</event>
<event>
 4    1  0.1249554E+000  0.4620303E+03  0.7818608E-02  0.1024194E+00
         21   -1    0    0  503  502  0.00000000000E+00  0.00000000000E+00  0.20626835667E+03  0.20626835667E+03  0.00000000000E+00 0. -1.
         21   -1    0    0  501  503 -0.00000000000E+00 -0.00000000000E+00 -0.22735000045E+04  0.22735000045E+04  0.00000000000E+00 0.  1.
          6    1    1    2  501    0 -0.14638141652E+03  0.40306389275E+03 -0.19487715775E+04  0.20027937193E+04  0.17200000000E+03 0. -1.
         -6    1    1    2    0  502  0.14638141652E+03 -0.40306389275E+03 -0.11846007033E+03  0.47697464189E+03  0.17200000000E+03 0.  1.
</event>
<event>
 4    1  0.1249554E+000  0.1923119E+03  0.7818608E-02  0.1156393E+00
         21   -1    0    0  501  502  0.00000000000E+00  0.00000000000E+00  0.57668674975E+03  0.57668674975E+03  0.00000000000E+00 0.  1.
         21   -1    0    0  502  503 -0.00000000000E+00 -0.00000000000E+00 -0.13574445546E+03  0.13574445546E+03  0.00000000000E+00 0. -1.
          6    1    1    2  501    0 -0.84683972238E+02  0.15115459829E+02  0.47920147567E+03  0.51635056557E+03  0.17200000000E+03 0.  1.
         -6    1    1    2    0  503  0.84683972238E+02 -0.15115459829E+02 -0.38259181377E+02  0.19608063963E+03  0.17200000000E+03 0. -1.
</event>
<event>
 4    1  0.1249554E+000  0.2833429E+03  0.7818608E-02  0.1093877E+00
         21   -1    0    0  501  502  0.00000000000E+00  0.00000000000E+00  0.10164629536E+04  0.10164629536E+04  0.00000000000E+00 0. -1.
         21   -1    0    0  502  503 -0.00000000000E+00 -0.00000000000E+00 -0.81079979962E+02  0.81079979962E+02  0.00000000000E+00 0.  1.
          6    1    1    2  501    0 -0.93110389558E+02 -0.20501133657E+03  0.37943592076E+03  0.47355549910E+03  0.17200000000E+03 0.  1.
         -6    1    1    2    0  503  0.93110389558E+02  0.20501133657E+03  0.55594705292E+03  0.62398743450E+03  0.17200000000E+03 0.  1.
</event>
<event>
 4    1  0.1249554E+000  0.1753426E+03  0.7818608E-02  0.1172388E+00
         21   -1    0    0  501  502  0.00000000000E+00  0.00000000000E+00  0.13689015565E+04  0.13689015565E+04  0.00000000000E+00 0. -1.
         21   -1    0    0  502  503 -0.00000000000E+00 -0.00000000000E+00 -0.28038336184E+02  0.28038336184E+02  0.00000000000E+00 0. -1.
          6    1    1    2  501    0 -0.19679499948E+01 -0.34017212674E+02  0.35887444137E+03  0.39941946404E+03  0.17200000000E+03 0. -1.
         -6    1    1    2    0  503  0.19679499948E+01  0.34017212674E+02  0.98198877893E+03  0.99752042863E+03  0.17200000000E+03 0. -1.
</event>
<event>
 4    1  0.1249554E+000  0.2073235E+03  0.7818608E-02  0.1143703E+00
         21   -1    0    0  503  502  0.00000000000E+00  0.00000000000E+00  0.54248504665E+03  0.54248504665E+03  0.00000000000E+00 0. -1.
         21   -1    0    0  501  503 -0.00000000000E+00 -0.00000000000E+00 -0.10650648756E+04  0.10650648756E+04  0.00000000000E+00 0.  1.
          6    1    1    2  501    0  0.10375742628E+03  0.51316805817E+02 -0.10345894478E+04  0.10551579709E+04  0.17200000000E+03 0.  1.
         -6    1    1    2    0  502 -0.10375742628E+03 -0.51316805817E+02  0.51200961887E+03  0.55239195132E+03  0.17200000000E+03 0. -1.
</event>
<event>
 4    1  0.1249554E+000  0.2187070E+03  0.7818608E-02  0.1134851E+00
         21   -1    0    0  503  502  0.00000000000E+00  0.00000000000E+00  0.14566436326E+03  0.14566436326E+03  0.00000000000E+00 0.  1.
         21   -1    0    0  501  503 -0.00000000000E+00 -0.00000000000E+00 -0.32843829694E+03  0.32843829694E+03  0.00000000000E+00 0. -1.
          6    1    1    2  501    0  0.10753394590E+03  0.81763200982E+02 -0.94635550119E+02  0.23830370937E+03  0.17200000000E+03 0.  1.
         -6    1    1    2    0  502 -0.10753394590E+03 -0.81763200982E+02 -0.88138383565E+02  0.23579895083E+03  0.17200000000E+03 0.  1.
</event>
<event>
 4    1  0.1249554E+000  0.1840556E+03  0.7818608E-02  0.1163935E+00
         21   -1    0    0  503  502  0.00000000000E+00  0.00000000000E+00  0.20505180859E+03  0.20505180859E+03  0.00000000000E+00 0. -1.
         21   -1    0    0  501  503 -0.00000000000E+00 -0.00000000000E+00 -0.16564710615E+03  0.16564710615E+03  0.00000000000E+00 0. -1.
          6    1    1    2  501    0  0.59356327011E+02 -0.27735971853E+02  0.10173076682E+02  0.18433651071E+03  0.17200000000E+03 0. -1.
         -6    1    1    2    0  502 -0.59356327011E+02  0.27735971853E+02  0.29231625755E+02  0.18636240403E+03  0.17200000000E+03 0. -1.
</event>
<event>
 4    1  0.1249554E+000  0.2527971E+03  0.7818608E-02  0.1111550E+00
         21   -1    0    0  503  502  0.00000000000E+00  0.00000000000E+00  0.90496899509E+03  0.90496899509E+03  0.00000000000E+00 0.  1.
         21   -1    0    0  501  503 -0.00000000000E+00 -0.00000000000E+00 -0.29132762227E+03  0.29132762227E+03  0.00000000000E+00 0. -1.
          6    1    1    2  501    0  0.37302334263E+02 -0.18146880941E+03 -0.21380962564E+03  0.33109054493E+03  0.17200000000E+03 0. -1.
         -6    1    1    2    0  502 -0.37302334263E+02  0.18146880941E+03  0.82745099845E+03  0.86520607243E+03  0.17200000000E+03 0.  1.
</event>
<event>
 4    1  0.1249554E+000  0.1981517E+03  0.7818608E-02  0.1151308E+00
         21   -1    0    0  501  502  0.00000000000E+00  0.00000000000E+00  0.10351782164E+03  0.10351782164E+03  0.00000000000E+00 0.  1.
         21   -1    0    0  502  503 -0.00000000000E+00 -0.00000000000E+00 -0.39153320487E+03  0.39153320487E+03  0.00000000000E+00 0.  1.
          6    1    1    2  501    0  0.28121443868E+02  0.94283076103E+02 -0.10025151671E+03  0.22206863949E+03  0.17200000000E+03 0. -1.
         -6    1    1    2    0  503 -0.28121443868E+02 -0.94283076103E+02 -0.18776386652E+03  0.27298238701E+03  0.17200000000E+03 0. -1.
</event>
<event>
 4    1  0.1249554E+000  0.2433265E+03  0.7818608E-02  0.1117596E+00
         21   -1    0    0  503  502  0.00000000000E+00  0.00000000000E+00  0.52913769144E+02  0.52913769144E+02  0.00000000000E+00 0. -1.
         21   -1    0    0  501  503 -0.00000000000E+00 -0.00000000000E+00 -0.12396687353E+04  0.12396687353E+04  0.00000000000E+00 0. -1.
          6    1    1    2  501    0  0.16145472122E+02 -0.17135665419E+03 -0.79505877100E+03  0.83146029884E+03  0.17200000000E+03 0. -1.
         -6    1    1    2    0  502 -0.16145472122E+02  0.17135665419E+03 -0.39169619518E+03  0.46112220563E+03  0.17200000000E+03 0. -1.
</event>
<event>
 4    1  0.1249554E+000  0.2632881E+03  0.7818608E-02  0.1105184E+00
         21   -1    0    0  501  502  0.00000000000E+00  0.00000000000E+00  0.80354379015E+03  0.80354379015E+03  0.00000000000E+00 0. -1.
         21   -1    0    0  502  503 -0.00000000000E+00 -0.00000000000E+00 -0.86312106714E+02  0.86312106714E+02  0.00000000000E+00 0.  1.
          6    1    1    2  501    0 -0.14166280178E+03  0.14024362198E+03  0.34863019911E+03  0.43687943262E+03  0.17200000000E+03 0. -1.
         -6    1    1    2    0  503  0.14166280178E+03 -0.14024362198E+03  0.36860148433E+03  0.45297646425E+03  0.17200000000E+03 0. -1.
</event>
<event>
 4    1  0.1249554E+000  0.2461216E+03  0.7818608E-02  0.1115781E+00
         21   -1    0    0  503  502  0.00000000000E+00  0.00000000000E+00  0.43866504520E+03  0.43866504520E+03  0.00000000000E+00 0.  1.
         21   -1    0    0  501  503 -0.00000000000E+00 -0.00000000000E+00 -0.14962840384E+04  0.14962840384E+04  0.00000000000E+00 0. -1.
          6    1    1    2  501    0  0.53186964946E+02 -0.16781824911E+03 -0.14505596729E+04  0.14712916715E+04  0.17200000000E+03 0. -1.
         -6    1    1    2    0  502 -0.53186964946E+02  0.16781824911E+03  0.39294067974E+03  0.46365741207E+03  0.17200000000E+03 0.  1.
</event>
<event>
 4    1  0.1249554E+000  0.2825573E+03  0.7818608E-02  0.1094300E+00
         21   -1    0    0  503  502  0.00000000000E+00  0.00000000000E+00  0.94930717944E+02  0.94930717944E+02  0.00000000000E+00 0.  1.
         21   -1    0    0  501  503 -0.00000000000E+00 -0.00000000000E+00 -0.92830414136E+03  0.92830414136E+03  0.00000000000E+00 0. -1.
          6    1    1    2  501    0  0.19890914514E+03 -0.10339146351E+03 -0.57356671456E+03  0.63938831612E+03  0.17200000000E+03 0. -1.
         -6    1    1    2    0  502 -0.19890914514E+03  0.10339146351E+03 -0.25980670886E+03  0.38384654319E+03  0.17200000000E+03 0. -1.
</event>
<event>
 4    1  0.1249554E+000  0.1896599E+03  0.7818608E-02  0.1158768E+00
         21   -1    0    0  501  502  0.00000000000E+00  0.00000000000E+00  0.13979845902E+03  0.13979845902E+03  0.00000000000E+00 0.  1.
         21   -1    0    0  502  503 -0.00000000000E+00 -0.00000000000E+00 -0.25905033203E+03  0.25905033203E+03  0.00000000000E+00 0.  1.
          6    1    1    2  501    0 -0.26483368808E+02  0.75402435851E+02 -0.75993252918E+02  0.20431806245E+03  0.17200000000E+03 0.  1.
         -6    1    1    2    0  503  0.26483368808E+02 -0.75402435851E+02 -0.43258620097E+02  0.19453072860E+03  0.17200000000E+03 0.  1.
</event>
<event>
 4    1  0.1249554E+000  0.2184639E+03  0.7818608E-02  0.1135034E+00
         21   -1    0    0  503  502  0.00000000000E+00  0.00000000000E+00  0.10743689771E+03  0.10743689771E+03  0.00000000000E+00 0.  1.
         21   -1    0    0  501  503 -0.00000000000E+00 -0.00000000000E+00 -0.52370181197E+03  0.52370181197E+03  0.00000000000E+00 0.  1.
          6    1    1    2  501    0  0.13467411080E+03 -0.23103820278E+01 -0.85200322837E+02  0.23448997632E+03  0.17200000000E+03 0. -1.
         -6    1    1    2    0  502 -0.13467411080E+03  0.23103820278E+01 -0.33106459142E+03  0.39664873336E+03  0.17200000000E+03 0. -1.
</event>
<event>
 4    1  0.1249554E+000  0.1801967E+03  0.7818608E-02  0.1167613E+00
         21   -1    0    0  501  502  0.00000000000E+00  0.00000000000E+00  0.27468435652E+02  0.27468435652E+02  0.00000000000E+00 0. -1.
         21   -1    0    0  502  503 -0.00000000000E+00 -0.00000000000E+00 -0.15433009327E+04  0.15433009327E+04  0.00000000000E+00 0. -1.
          6    1    1    2  501    0 -0.41336230832E+02  0.34324438762E+02 -0.37796969933E+03  0.41872657509E+03  0.17200000000E+03 0. -1.
         -6    1    1    2    0  503  0.41336230832E+02 -0.34324438762E+02 -0.11378627977E+04  0.11520427933E+04  0.17200000000E+03 0. -1.
</event>
<event>
 4    1  0.1249554E+000  0.1803942E+03  0.7818608E-02  0.1167422E+00
         21   -1    0    0  501  502  0.00000000000E+00  0.00000000000E+00  0.59416998210E+03  0.59416998210E+03  0.00000000000E+00 0.  1.
         21   -1    0    0  502  503 -0.00000000000E+00 -0.00000000000E+00 -0.57508953044E+02  0.57508953044E+02  0.00000000000E+00 0. -1.
          6    1    1    2  501    0  0.12170335254E+02  0.53009003181E+02  0.33945362706E+03  0.38440972464E+03  0.17200000000E+03 0. -1.
         -6    1    1    2    0  503 -0.12170335254E+02 -0.53009003181E+02  0.19720740200E+03  0.26726921050E+03  0.17200000000E+03 0. -1.
</event>
<event>
 4    1  0.1249554E+000  0.1898372E+03  0.7818608E-02  0.1158608E+00
         21   -1    0    0  501  502  0.00000000000E+00  0.00000000000E+00  0.10664808047E+04  0.10664808047E+04  0.00000000000E+00 0. -1.
         21   -1    0    0  502  503 -0.00000000000E+00 -0.00000000000E+00 -0.39074193815E+02  0.39074193815E+02  0.00000000000E+00 0. -1.
          6    1    1    2  501    0  0.79361802666E+02 -0.12485409441E+02  0.71695096126E+03  0.74165818409E+03  0.17200000000E+03 0. -1.
         -6    1    1    2    0  503 -0.79361802666E+02  0.12485409441E+02  0.31045564967E+03  0.36389681447E+03  0.17200000000E+03 0. -1.
</event>
<event>
 4    1  0.1249554E+000  0.1741875E+03  0.7818608E-02  0.1173550E+00
         21   -1    0    0  501  502  0.00000000000E+00  0.00000000000E+00  0.10884288987E+04  0.10884288987E+04  0.00000000000E+00 0.  1.
         21   -1    0    0  502  503 -0.00000000000E+00 -0.00000000000E+00 -0.28379314609E+02  0.28379314609E+02  0.00000000000E+00 0.  1.
          6    1    1    2  501    0  0.11856042238E+02 -0.24833657824E+02  0.45567576085E+03  0.48783365539E+03  0.17200000000E+03 0. -1.
         -6    1    1    2    0  503 -0.11856042238E+02  0.24833657824E+02  0.60437382321E+03  0.62897455789E+03  0.17200000000E+03 0. -1.
</event>
<event>
 4    1  0.1249554E+000  0.2008968E+03  0.7818608E-02  0.1148985E+00
         21   -1    0    0  503  502  0.00000000000E+00  0.00000000000E+00  0.29776034453E+03  0.29776034453E+03  0.00000000000E+00 0.  1.
         21   -1    0    0  501  503 -0.00000000000E+00 -0.00000000000E+00 -0.27767978168E+03  0.27767978168E+03  0.00000000000E+00 0.  1.
          6    1    1    2  501    0  0.42659113841E+02 -0.94634709166E+02 -0.19580941996E+03  0.28053673042E+03  0.17200000000E+03 0.  1.
         -6    1    1    2    0  502 -0.42659113841E+02  0.94634709166E+02  0.21588998280E+03  0.29490339579E+03  0.17200000000E+03 0.  1.
</event>
<event>
 4    1  0.1249554E+000  0.1750939E+03  0.7818608E-02  0.1172637E+00
         21   -1    0    0  501  502  0.00000000000E+00  0.00000000000E+00  0.91543173061E+02  0.91543173061E+02  0.00000000000E+00 0. -1.
         21   -1    0    0  502  503 -0.00000000000E+00 -0.00000000000E+00 -0.33497404187E+03  0.33497404187E+03  0.00000000000E+00 0. -1.
          6    1    1    2  501    0 -0.24635258560E+02 -0.21609379198E+02 -0.12487370079E+03  0.21506115963E+03  0.17200000000E+03 0. -1.
         -6    1    1    2    0  503  0.24635258560E+02  0.21609379198E+02 -0.11855716802E+03  0.21145605530E+03  0.17200000000E+03 0. -1.
</event>
<event>
 4    1  0.1249554E+000  0.1793036E+03  0.7818608E-02  0.1168479E+00
         21   -1    0    0  503  502  0.00000000000E+00  0.00000000000E+00  0.65587249000E+02  0.65587249000E+02  0.00000000000E+00 0. -1.
         21   -1    0    0  501  503 -0.00000000000E+00 -0.00000000000E+00 -0.64409049628E+03  0.64409049628E+03  0.00000000000E+00 0. -1.
          6    1    1    2  501    0 -0.34792464640E+02 -0.36813846381E+02 -0.46270677127E+03  0.49623314184E+03  0.17200000000E+03 0. -1.
         -6    1    1    2    0  502  0.34792464640E+02  0.36813846381E+02 -0.11579647601E+03  0.21344460344E+03  0.17200000000E+03 0. -1.
</event>
<event>
 4    1  0.1249554E+000  0.1890727E+03  0.7818608E-02  0.1159300E+00
         21   -1    0    0  501  502  0.00000000000E+00  0.00000000000E+00  0.52948242254E+02  0.52948242254E+02  0.00000000000E+00 0. -1.
         21   -1    0    0  502  503 -0.00000000000E+00 -0.00000000000E+00 -0.75217469799E+03  0.75217469799E+03  0.00000000000E+00 0. -1.
          6    1    1    2  501    0  0.77491698509E+02 -0.12630722047E+02 -0.22079965946E+03  0.29069053664E+03  0.17200000000E+03 0.  1.
         -6    1    1    2    0  503 -0.77491698509E+02  0.12630722047E+02 -0.47842679628E+03  0.51443240361E+03  0.17200000000E+03 0.  1.
</event>
<event>
 4    1  0.1249554E+000  0.1833059E+03  0.7818608E-02  0.1164641E+00
         21   -1    0    0  501  502  0.00000000000E+00  0.00000000000E+00  0.51348754852E+03  0.51348754852E+03  0.00000000000E+00 0. -1.
         21   -1    0    0  502  503 -0.00000000000E+00 -0.00000000000E+00 -0.66232936899E+02  0.66232936899E+02  0.00000000000E+00 0.  1.
          6    1    1    2  501    0  0.27938318099E+02 -0.56890289821E+02  0.25540386818E+03  0.31437587467E+03  0.17200000000E+03 0.  1.
         -6    1    1    2    0  503 -0.27938318099E+02  0.56890289821E+02  0.19185074344E+03  0.26534461075E+03  0.17200000000E+03 0. -1.
</event>
<event>
 4    1  0.1249554E+000  0.1854359E+03  0.7818608E-02  0.1162643E+00
         21   -1    0    0  501  502  0.00000000000E+00  0.00000000000E+00  0.42952474602E+03  0.42952474602E+03  0.00000000000E+00 0.  1.
         21   -1    0    0  502  503 -0.00000000000E+00 -0.00000000000E+00 -0.10716620712E+03  0.10716620712E+03  0.00000000000E+00 0.  1.
          6    1    1    2  501    0  0.64926942774E+02 -0.24227648390E+02  0.29614493615E+03  0.34941137654E+03  0.17200000000E+03 0.  1.
         -6    1    1    2    0  503 -0.64926942774E+02  0.24227648390E+02  0.26213602755E+02  0.18727957661E+03  0.17200000000E+03 0.  1.
</event>
<event>
 4    1  0.1249554E+000  0.4109701E+03  0.7818608E-02  0.1040046E+00
         21   -1    0    0  501  502  0.00000000000E+00  0.00000000000E+00  0.29789881502E+03  0.29789881502E+03  0.00000000000E+00 0.  1.
         21   -1    0    0  502  503 -0.00000000000E+00 -0.00000000000E+00 -0.57253184544E+03  0.57253184544E+03  0.00000000000E+00 0. -1.
          6    1    1    2  501    0  0.16624972863E+03  0.33417578466E+03 -0.94378580423E+02  0.42166781211E+03  0.17200000000E+03 0. -1.
         -6    1    1    2    0  503 -0.16624972863E+03 -0.33417578466E+03 -0.18025444999E+03  0.44876284836E+03  0.17200000000E+03 0. -1.
</event>
<event>
 4    1  0.1249554E+000  0.1991077E+03  0.7818608E-02  0.1150494E+00
         21   -1    0    0  501  502  0.00000000000E+00  0.00000000000E+00  0.34409214342E+03  0.34409214342E+03  0.00000000000E+00 0. -1.
         21   -1    0    0  502  503 -0.00000000000E+00 -0.00000000000E+00 -0.11591812911E+03  0.11591812911E+03  0.00000000000E+00 0. -1.
          6    1    1    2  501    0  0.85093045129E+02  0.53094905085E+02  0.96148356616E+02  0.22110721778E+03  0.17200000000E+03 0.  1.
         -6    1    1    2    0  503 -0.85093045129E+02 -0.53094905085E+02  0.13202565770E+03  0.23890305475E+03  0.17200000000E+03 0.  1.
</event>
<event>
 4    1  0.1249554E+000  0.1987509E+03  0.7818608E-02  0.1150797E+00
         21   -1    0    0  501  502  0.00000000000E+00  0.00000000000E+00  0.12136384661E+02  0.12136384661E+02  0.00000000000E+00 0. -1.
         21   -1    0    0  502  503 -0.00000000000E+00 -0.00000000000E+00 -0.35857272530E+04  0.35857272530E+04  0.00000000000E+00 0. -1.
          6    1    1    2  501    0 -0.72753382621E+02  0.68006385619E+02 -0.12403211583E+04  0.12561442986E+04  0.17200000000E+03 0.  1.
         -6    1    1    2    0  503  0.72753382621E+02 -0.68006385619E+02 -0.23332697101E+04  0.23417193391E+04  0.17200000000E+03 0.  1.
</event>
<event>
 4    1  0.1249554E+000  0.1788349E+03  0.7818608E-02  0.1168935E+00
         21   -1    0    0  501  502  0.00000000000E+00  0.00000000000E+00  0.41432596815E+03  0.41432596815E+03  0.00000000000E+00 0. -1.
         21   -1    0    0  502  503 -0.00000000000E+00 -0.00000000000E+00 -0.79524190085E+02  0.79524190085E+02  0.00000000000E+00 0. -1.
          6    1    1    2  501    0  0.30388577462E+02 -0.38398782205E+02  0.20970268851E+03  0.27560324687E+03  0.17200000000E+03 0. -1.
         -6    1    1    2    0  503 -0.30388577462E+02  0.38398782205E+02  0.12509908956E+03  0.21824691137E+03  0.17200000000E+03 0. -1.
</event>
<event>
 4    1  0.1249554E+000  0.1913443E+03  0.7818608E-02  0.1157254E+00
         21   -1    0    0  501  502  0.00000000000E+00  0.00000000000E+00  0.33726225260E+02  0.33726225260E+02  0.00000000000E+00 0. -1.
         21   -1    0    0  502  503 -0.00000000000E+00 -0.00000000000E+00 -0.12305516050E+04  0.12305516050E+04  0.00000000000E+00 0. -1.
          6    1    1    2  501    0  0.57562240792E+02 -0.60952641691E+02 -0.38144316696E+03  0.42674527029E+03  0.17200000000E+03 0. -1.
         -6    1    1    2    0  503 -0.57562240792E+02  0.60952641691E+02 -0.81538221283E+03  0.83753256002E+03  0.17200000000E+03 0. -1.
</event>
<event>
 4    1  0.1249554E+000  0.1958788E+03  0.7818608E-02  0.1153263E+00
         21   -1    0    0  501  502  0.00000000000E+00  0.00000000000E+00  0.14510488648E+04  0.14510488648E+04  0.00000000000E+00 0. -1.
         21   -1    0    0  502  503 -0.00000000000E+00 -0.00000000000E+00 -0.25509073682E+03  0.25509073682E+03  0.00000000000E+00 0.  1.
          6    1    1    2  501    0  0.26345536655E+02  0.89946651624E+02  0.14056263221E+04  0.14192088799E+04  0.17200000000E+03 0. -1.
         -6    1    1    2    0  503 -0.26345536655E+02 -0.89946651624E+02 -0.20966819412E+03  0.28693072172E+03  0.17200000000E+03 0.  1.
</event>
<event>
 4    1  0.1249554E+000  0.1952991E+03  0.7818608E-02  0.1153767E+00
         21   -1    0    0  501  502  0.00000000000E+00  0.00000000000E+00  0.21425986685E+04  0.21425986685E+04  0.00000000000E+00 0.  1.
         21   -1    0    0  502  503 -0.00000000000E+00 -0.00000000000E+00 -0.20918549979E+02  0.20918549979E+02  0.00000000000E+00 0.  1.
          6    1    1    2  501    0  0.91995199740E+02 -0.97264456187E+01  0.14784091227E+04  0.14912529144E+04  0.17200000000E+03 0. -1.
         -6    1    1    2    0  503 -0.91995199740E+02  0.97264456187E+01  0.64327099581E+03  0.67226430411E+03  0.17200000000E+03 0. -1.
</event>
<event>
 4    1  0.1249554E+000  0.2332351E+03  0.7818608E-02  0.1124383E+00
         21   -1    0    0  503  502  0.00000000000E+00  0.00000000000E+00  0.18894482225E+03  0.18894482225E+03  0.00000000000E+00 0.  1.
         21   -1    0    0  501  503 -0.00000000000E+00 -0.00000000000E+00 -0.28832768996E+03  0.28832768996E+03  0.00000000000E+00 0.  1.
          6    1    1    2  501    0 -0.15698251782E+03  0.13081374014E+02 -0.40581587082E+02  0.23673930484E+03  0.17200000000E+03 0.  1.
         -6    1    1    2    0  502  0.15698251782E+03 -0.13081374014E+02 -0.58801280631E+02  0.24053320738E+03  0.17200000000E+03 0.  1.
</event>
<event>
 4    1  0.1249554E+000  0.1870229E+03  0.7818608E-02  0.1161174E+00
         21   -1    0    0  501  502  0.00000000000E+00  0.00000000000E+00  0.67568920764E+02  0.67568920764E+02  0.00000000000E+00 0. -1.
         21   -1    0    0  502  503 -0.00000000000E+00 -0.00000000000E+00 -0.57284882143E+03  0.57284882143E+03  0.00000000000E+00 0. -1.
          6    1    1    2  501    0  0.40825198951E+02  0.61048072653E+02 -0.35203126308E+03  0.39862711176E+03  0.17200000000E+03 0. -1.
         -6    1    1    2    0  503 -0.40825198951E+02 -0.61048072653E+02 -0.15324863759E+03  0.24179063043E+03  0.17200000000E+03 0. -1.
</event>
<event>
 4    1  0.1249554E+000  0.1727654E+03  0.7818608E-02  0.1174994E+00
         21   -1    0    0  503  502  0.00000000000E+00  0.00000000000E+00  0.10809602399E+03  0.10809602399E+03  0.00000000000E+00 0.  1.
         21   -1    0    0  501  503 -0.00000000000E+00 -0.00000000000E+00 -0.28117526691E+03  0.28117526691E+03  0.00000000000E+00 0.  1.
          6    1    1    2  501    0 -0.14675326804E+02  0.69661924953E+01 -0.60451708415E+02  0.18303634094E+03  0.17200000000E+03 0.  1.
         -6    1    1    2    0  502  0.14675326804E+02 -0.69661924953E+01 -0.11262753451E+03  0.20623494996E+03  0.17200000000E+03 0.  1.
</event>
<event>
 4    1  0.1249554E+000  0.1980400E+03  0.7818608E-02  0.1151403E+00
         21   -1    0    0  501  502  0.00000000000E+00  0.00000000000E+00  0.12979779176E+03  0.12979779176E+03  0.00000000000E+00 0. -1.
         21   -1    0    0  502  503 -0.00000000000E+00 -0.00000000000E+00 -0.68984107373E+03  0.68984107373E+03  0.00000000000E+00 0.  1.
          6    1    1    2  501    0 -0.21993150657E+02  0.95666901110E+02  0.27202019302E+02  0.19989948599E+03  0.17200000000E+03 0. -1.
         -6    1    1    2    0  503  0.21993150657E+02 -0.95666901110E+02 -0.58724530127E+03  0.61973937951E+03  0.17200000000E+03 0.  1.
</event>
<event>
 4    1  0.1249554E+000  0.1787016E+03  0.7818608E-02  0.1169066E+00
         21   -1    0    0  503  502  0.00000000000E+00  0.00000000000E+00  0.55961267519E+02  0.55961267519E+02  0.00000000000E+00 0.  1.
         21   -1    0    0  501  503 -0.00000000000E+00 -0.00000000000E+00 -0.13138256919E+04  0.13138256919E+04  0.00000000000E+00 0.  1.
          6    1    1    2  501    0  0.46918985157E+02 -0.12201618991E+02 -0.11440422864E+04  0.11579149467E+04  0.17200000000E+03 0.  1.
         -6    1    1    2    0  502 -0.46918985157E+02  0.12201618991E+02 -0.11382213791E+03  0.21187201267E+03  0.17200000000E+03 0.  1.
</event>
<event>
 4    1  0.1249554E+000  0.1762928E+03  0.7818608E-02  0.1171440E+00
         21   -1    0    0  503  502  0.00000000000E+00  0.00000000000E+00  0.14547689073E+03  0.14547689073E+03  0.00000000000E+00 0. -1.
         21   -1    0    0  501  503 -0.00000000000E+00 -0.00000000000E+00 -0.23481660719E+03  0.23481660719E+03  0.00000000000E+00 0. -1.
          6    1    1    2  501    0  0.28960170641E+02  0.25621169939E+02 -0.10177710863E+03  0.20356255961E+03  0.17200000000E+03 0.  1.
         -6    1    1    2    0  502 -0.28960170641E+02 -0.25621169939E+02  0.12437392178E+02  0.17673093831E+03  0.17200000000E+03 0.  1.
</event>
<event>
 4    1  0.1249554E+000  0.2207611E+03  0.7818608E-02  0.1133317E+00
         21   -1    0    0  503  502  0.00000000000E+00  0.00000000000E+00  0.39985652162E+03  0.39985652162E+03  0.00000000000E+00 0. -1.
         21   -1    0    0  501  503 -0.00000000000E+00 -0.00000000000E+00 -0.17716744434E+03  0.17716744434E+03  0.00000000000E+00 0. -1.
          6    1    1    2  501    0 -0.13352215781E+03  0.36377157832E+02 -0.49822344825E+02  0.22631334535E+03  0.17200000000E+03 0. -1.
         -6    1    1    2    0  502  0.13352215781E+03 -0.36377157832E+02  0.27251142210E+03  0.35071062062E+03  0.17200000000E+03 0. -1.
</event>
<event>
 4    1  0.1249554E+000  0.1820876E+03  0.7818608E-02  0.1165798E+00
         21   -1    0    0  503  502  0.00000000000E+00  0.00000000000E+00  0.48782326650E+03  0.48782326650E+03  0.00000000000E+00 0.  1.
         21   -1    0    0  501  503 -0.00000000000E+00 -0.00000000000E+00 -0.69953529192E+02  0.69953529192E+02  0.00000000000E+00 0.  1.
          6    1    1    2  501    0 -0.58179145421E+02  0.13677989096E+02  0.16193794455E+03  0.24367970419E+03  0.17200000000E+03 0.  1.
         -6    1    1    2    0  502  0.58179145421E+02 -0.13677989096E+02  0.25593179276E+03  0.31409709150E+03  0.17200000000E+03 0.  1.
</event>
<event>
 4    1  0.1249554E+000  0.1950585E+03  0.7818608E-02  0.1153976E+00
         21   -1    0    0  503  502  0.00000000000E+00  0.00000000000E+00  0.19851603768E+03  0.19851603768E+03  0.00000000000E+00 0.  1.
         21   -1    0    0  501  503 -0.00000000000E+00 -0.00000000000E+00 -0.36838893590E+03  0.36838893590E+03  0.00000000000E+00 0.  1.
          6    1    1    2  501    0  0.89226226771E+02 -0.22416446768E+02 -0.28126315171E+03  0.34228172189E+03  0.17200000000E+03 0.  1.
         -6    1    1    2    0  502 -0.89226226771E+02  0.22416446768E+02  0.11139025349E+03  0.22462325170E+03  0.17200000000E+03 0.  1.
</event>
<event>
 4    1  0.1249554E+000  0.2312097E+03  0.7818608E-02  0.1125791E+00
         21   -1    0    0  503  502  0.00000000000E+00  0.00000000000E+00  0.50258302356E+03  0.50258302356E+03  0.00000000000E+00 0. -1.
         21   -1    0    0  501  503 -0.00000000000E+00 -0.00000000000E+00 -0.39694662527E+03  0.39694662527E+03  0.00000000000E+00 0.  1.
          6    1    1    2  501    0 -0.14586745543E+03 -0.50957011472E+02 -0.33199723345E+03  0.40457396677E+03  0.17200000000E+03 0.  1.
         -6    1    1    2    0  502  0.14586745543E+03  0.50957011472E+02  0.43763363174E+03  0.49495568206E+03  0.17200000000E+03 0. -1.
</event>
<event>
 4    1  0.1249554E+000  0.1798386E+03  0.7818608E-02  0.1167959E+00
         21   -1    0    0  503  502  0.00000000000E+00  0.00000000000E+00  0.29469733932E+03  0.29469733932E+03  0.00000000000E+00 0.  1.
         21   -1    0    0  501  503 -0.00000000000E+00 -0.00000000000E+00 -0.18209024802E+03  0.18209024802E+03  0.00000000000E+00 0.  1.
          6    1    1    2  501    0 -0.20495214955E+02 -0.48351526204E+02 -0.93959744660E+02  0.20290479920E+03  0.17200000000E+03 0.  1.
         -6    1    1    2    0  502  0.20495214955E+02  0.48351526204E+02  0.20656683596E+03  0.27388278814E+03  0.17200000000E+03 0.  1.
</event>
<event>
 4    1  0.1249554E+000  0.1791808E+03  0.7818608E-02  0.1168598E+00
         21   -1    0    0  503  502  0.00000000000E+00  0.00000000000E+00  0.10588649141E+04  0.10588649141E+04  0.00000000000E+00 0. -1.
         21   -1    0    0  501  503 -0.00000000000E+00 -0.00000000000E+00 -0.95050754504E+02  0.95050754504E+02  0.00000000000E+00 0. -1.
          6    1    1    2  501    0  0.42747758430E+02  0.26351425659E+02  0.57847974493E+01  0.17927418210E+03  0.17200000000E+03 0. -1.
         -6    1    1    2    0  502 -0.42747758430E+02 -0.26351425659E+02  0.95802936220E+03  0.97464148656E+03  0.17200000000E+03 0. -1.
</event>
<event>
 4    1  0.1249554E+000  0.1746063E+03  0.7818608E-02  0.1173128E+00
         21   -1    0    0  501  502  0.00000000000E+00  0.00000000000E+00  0.13502193526E+03  0.13502193526E+03  0.00000000000E+00 0.  1.
         21   -1    0    0  502  503 -0.00000000000E+00 -0.00000000000E+00 -0.25635578908E+03  0.25635578908E+03  0.00000000000E+00 0.  1.
          6    1    1    2  501    0 -0.91522563796E+01  0.28628499067E+02 -0.12823208221E+03  0.21663522720E+03  0.17200000000E+03 0.  1.
         -6    1    1    2    0  503  0.91522563796E+01 -0.28628499067E+02  0.68982283893E+01  0.17474249715E+03  0.17200000000E+03 0.  1.
</event>
<event>
 4    1  0.1249554E+000  0.2042653E+03  0.7818608E-02  0.1146189E+00
         21   -1    0    0  503  502  0.00000000000E+00  0.00000000000E+00  0.13107034222E+03  0.13107034222E+03  0.00000000000E+00 0.  1.
         21   -1    0    0  501  503 -0.00000000000E+00 -0.00000000000E+00 -0.35503295817E+03  0.35503295817E+03  0.00000000000E+00 0.  1.
          6    1    1    2  501    0 -0.81876288130E+02  0.73733346498E+02 -0.19012297666E+03  0.27905390017E+03  0.17200000000E+03 0. -1.
         -6    1    1    2    0  502  0.81876288130E+02 -0.73733346498E+02 -0.33839639289E+02  0.20704940022E+03  0.17200000000E+03 0. -1.
</event>
<event>
 4    1  0.1249554E+000  0.2292468E+03  0.7818608E-02  0.1127171E+00
         21   -1    0    0  501  502  0.00000000000E+00  0.00000000000E+00  0.21013961296E+03  0.21013961296E+03  0.00000000000E+00 0.  1.
         21   -1    0    0  502  503 -0.00000000000E+00 -0.00000000000E+00 -0.25907261660E+03  0.25907261660E+03  0.00000000000E+00 0.  1.
          6    1    1    2  501    0  0.14546587435E+03  0.42541494764E+02  0.19214981636E+02  0.23005067898E+03  0.17200000000E+03 0.  1.
         -6    1    1    2    0  503 -0.14546587435E+03 -0.42541494764E+02 -0.68147985278E+02  0.23916155058E+03  0.17200000000E+03 0.  1.
</event>
<event>
 4    1  0.1249554E+000  0.1769336E+03  0.7818608E-02  0.1170804E+00
         21   -1    0    0  501  502  0.00000000000E+00  0.00000000000E+00  0.44753155213E+03  0.44753155213E+03  0.00000000000E+00 0.  1.
         21   -1    0    0  502  503 -0.00000000000E+00 -0.00000000000E+00 -0.70511558350E+02  0.70511558350E+02  0.00000000000E+00 0.  1.
          6    1    1    2  501    0 -0.41359217688E+02 -0.33046095593E+01  0.21159450834E+03  0.27582193765E+03  0.17200000000E+03 0.  1.
         -6    1    1    2    0  503  0.41359217688E+02  0.33046095593E+01  0.16542548544E+03  0.24222117283E+03  0.17200000000E+03 0.  1.
</event>
<event>
 4    1  0.1249554E+000  0.1759775E+03  0.7818608E-02  0.1171754E+00
         21   -1    0    0  501  502  0.00000000000E+00  0.00000000000E+00  0.21295100894E+03  0.21295100894E+03  0.00000000000E+00 0. -1.
         21   -1    0    0  502  503 -0.00000000000E+00 -0.00000000000E+00 -0.16147935966E+03  0.16147935966E+03  0.00000000000E+00 0. -1.
          6    1    1    2  501    0  0.37136932767E+02 -0.22162774173E+01  0.84769584796E+02  0.19533035137E+03  0.17200000000E+03 0. -1.
         -6    1    1    2    0  503 -0.37136932767E+02  0.22162774173E+01 -0.33297935519E+02  0.17910001723E+03  0.17200000000E+03 0. -1.
</event>
<event>
 4    1  0.1249554E+000  0.2044045E+03  0.7818608E-02  0.1146075E+00
         21   -1    0    0  503  502  0.00000000000E+00  0.00000000000E+00  0.18785826674E+02  0.18785826674E+02  0.00000000000E+00 0.  1.
         21   -1    0    0  501  503 -0.00000000000E+00 -0.00000000000E+00 -0.24656942074E+04  0.24656942074E+04  0.00000000000E+00 0. -1.
          6    1    1    2  501    0 -0.24450863278E+02  0.10770033307E+03 -0.16123165817E+04  0.16252218206E+04  0.17200000000E+03 0. -1.
         -6    1    1    2    0  502  0.24450863278E+02 -0.10770033307E+03 -0.83459179904E+03  0.85925821351E+03  0.17200000000E+03 0. -1.
</event>
<event>
 4    1  0.1249554E+000  0.1720639E+03  0.7818608E-02  0.1175712E+00
         21   -1    0    0  503  502  0.00000000000E+00  0.00000000000E+00  0.48131550162E+03  0.48131550162E+03  0.00000000000E+00 0. -1.
         21   -1    0    0  501  503 -0.00000000000E+00 -0.00000000000E+00 -0.92798739465E+02  0.92798739465E+02  0.00000000000E+00 0. -1.
          6    1    1    2  501    0  0.49915773038E+00  0.46629757928E+01  0.27576904338E+02  0.17425980074E+03  0.17200000000E+03 0. -1.
         -6    1    1    2    0  502 -0.49915773038E+00 -0.46629757928E+01  0.36093985782E+03  0.39985444034E+03  0.17200000000E+03 0. -1.
</event>
<event>
 4    1  0.1249554E+000  0.1866719E+03  0.7818608E-02  0.1161498E+00
         21   -1    0    0  503  502  0.00000000000E+00  0.00000000000E+00  0.92269202227E+02  0.92269202227E+02  0.00000000000E+00 0.  1.
         21   -1    0    0  501  503 -0.00000000000E+00 -0.00000000000E+00 -0.72824182821E+03  0.72824182821E+03  0.00000000000E+00 0.  1.
          6    1    1    2  501    0 -0.24253952211E+02 -0.68367766862E+02 -0.60263631582E+03  0.63088583349E+03  0.17200000000E+03 0.  1.
         -6    1    1    2    0  502  0.24253952211E+02  0.68367766862E+02 -0.33336310159E+02  0.18962519695E+03  0.17200000000E+03 0.  1.
</event>
<event>
 4    1  0.1249554E+000  0.1973678E+03  0.7818608E-02  0.1151979E+00
         21   -1    0    0  503  502  0.00000000000E+00  0.00000000000E+00  0.44475220875E+03  0.44475220875E+03  0.00000000000E+00 0.  1.
         21   -1    0    0  501  503 -0.00000000000E+00 -0.00000000000E+00 -0.87605457253E+02  0.87605457253E+02  0.00000000000E+00 0.  1.
          6    1    1    2  501    0 -0.85121905309E+02  0.46090391939E+02  0.17460559086E+03  0.26351693561E+03  0.17200000000E+03 0.  1.
         -6    1    1    2    0  502  0.85121905309E+02 -0.46090391939E+02  0.18254116064E+03  0.26884073039E+03  0.17200000000E+03 0.  1.
</event>
<event>
 4    1  0.1249554E+000  0.1891415E+03  0.7818608E-02  0.1159238E+00
         21   -1    0    0  501  502  0.00000000000E+00  0.00000000000E+00  0.34006224860E+03  0.34006224860E+03  0.00000000000E+00 0.  1.
         21   -1    0    0  502  503 -0.00000000000E+00 -0.00000000000E+00 -0.15574296347E+03  0.15574296347E+03  0.00000000000E+00 0.  1.
          6    1    1    2  501    0  0.77931339779E+02 -0.10826341603E+02  0.23338341124E+03  0.30040359524E+03  0.17200000000E+03 0. -1.
         -6    1    1    2    0  503 -0.77931339779E+02  0.10826341603E+02 -0.49064126105E+02  0.19540161684E+03  0.17200000000E+03 0. -1.
</event>
<event>
 4    1  0.1249554E+000  0.2590952E+03  0.7818608E-02  0.1107688E+00
         21   -1    0    0  503  502  0.00000000000E+00  0.00000000000E+00  0.22534616672E+03  0.22534616672E+03  0.00000000000E+00 0. -1.
         21   -1    0    0  501  503 -0.00000000000E+00 -0.00000000000E+00 -0.33796182618E+03  0.33796182618E+03  0.00000000000E+00 0. -1.
          6    1    1    2  501    0  0.15829752480E+03 -0.11175061779E+03 -0.15328177591E+03  0.30104087723E+03  0.17200000000E+03 0. -1.
         -6    1    1    2    0  502 -0.15829752480E+03  0.11175061779E+03  0.40666116455E+02  0.26226711567E+03  0.17200000000E+03 0. -1.
</event>
<event>
 4    1  0.1249554E+000  0.1798259E+03  0.7818608E-02  0.1167972E+00
         21   -1    0    0  503  502  0.00000000000E+00  0.00000000000E+00  0.79751117550E+02  0.79751117550E+02  0.00000000000E+00 0. -1.
         21   -1    0    0  501  503 -0.00000000000E+00 -0.00000000000E+00 -0.40557509154E+03  0.40557509154E+03  0.00000000000E+00 0.  1.
          6    1    1    2  501    0 -0.52449711244E+02  0.15461878155E+01 -0.16665701327E+03  0.24517732966E+03  0.17200000000E+03 0.  1.
         -6    1    1    2    0  502  0.52449711244E+02 -0.15461878155E+01 -0.15916696072E+03  0.24014887943E+03  0.17200000000E+03 0. -1.
</event>
<event>
 4    1  0.1249554E+000  0.1835113E+03  0.7818608E-02  0.1164447E+00
         21   -1    0    0  501  502  0.00000000000E+00  0.00000000000E+00  0.15492128015E+03  0.15492128015E+03  0.00000000000E+00 0. -1.
         21   -1    0    0  502  503 -0.00000000000E+00 -0.00000000000E+00 -0.31865578464E+03  0.31865578464E+03  0.00000000000E+00 0.  1.
          6    1    1    2  501    0  0.62089081751E+02 -0.15406039496E+02 -0.21536008136E+03  0.28294233471E+03  0.17200000000E+03 0.  1.
         -6    1    1    2    0  503 -0.62089081751E+02  0.15406039496E+02  0.51625576872E+02  0.19063473008E+03  0.17200000000E+03 0. -1.
</event>
<event>
 4    1  0.1249554E+000  0.2074521E+03  0.7818608E-02  0.1143600E+00
         21   -1    0    0  503  502  0.00000000000E+00  0.00000000000E+00  0.24961077317E+02  0.24961077317E+02  0.00000000000E+00 0.  1.
         21   -1    0    0  501  503 -0.00000000000E+00 -0.00000000000E+00 -0.18317047958E+04  0.18317047958E+04  0.00000000000E+00 0.  1.
          6    1    1    2  501    0  0.69010592742E+02 -0.93219600376E+02 -0.11283363700E+04  0.11472485867E+04  0.17200000000E+03 0. -1.
         -6    1    1    2    0  502 -0.69010592742E+02  0.93219600376E+02 -0.67840734853E+03  0.70941728647E+03  0.17200000000E+03 0. -1.
</event>
<event>
 4    1  0.1249554E+000  0.2821869E+03  0.7818608E-02  0.1094500E+00
         21   -1    0    0  503  502  0.00000000000E+00  0.00000000000E+00  0.10913055440E+04  0.10913055440E+04  0.00000000000E+00 0. -1.
         21   -1    0    0  501  503 -0.00000000000E+00 -0.00000000000E+00 -0.12311233218E+03  0.12311233218E+03  0.00000000000E+00 0.  1.
          6    1    1    2  501    0  0.22231539370E+03  0.24926397616E+02  0.87162360601E+03  0.91616437943E+03  0.17200000000E+03 0. -1.
         -6    1    1    2    0  502 -0.22231539370E+03 -0.24926397616E+02  0.96569605847E+02  0.29825349679E+03  0.17200000000E+03 0.  1.
</event>
<event>
 4    1  0.1249554E+000  0.2057992E+03  0.7818608E-02  0.1144936E+00
         21   -1    0    0  501  502  0.00000000000E+00  0.00000000000E+00  0.74112414591E+03  0.74112414591E+03  0.00000000000E+00 0. -1.
         21   -1    0    0  502  503 -0.00000000000E+00 -0.00000000000E+00 -0.58136459833E+02  0.58136459833E+02  0.00000000000E+00 0. -1.
          6    1    1    2  501    0  0.87198515268E+02  0.71873076472E+02  0.28936899996E+03  0.35508835284E+03  0.17200000000E+03 0. -1.
         -6    1    1    2    0  503 -0.87198515268E+02 -0.71873076472E+02  0.39361868612E+03  0.44417225290E+03  0.17200000000E+03 0. -1.
</event>
<event>
 4    1  0.1249554E+000  0.1791219E+03  0.7818608E-02  0.1168656E+00
         21   -1    0    0  503  502  0.00000000000E+00  0.00000000000E+00  0.38927322829E+03  0.38927322829E+03  0.00000000000E+00 0. -1.
         21   -1    0    0  501  503 -0.00000000000E+00 -0.00000000000E+00 -0.88654132818E+02  0.88654132818E+02  0.00000000000E+00 0. -1.
          6    1    1    2  501    0 -0.33537465381E+02 -0.37093083128E+02  0.21366770130E+03  0.27881632839E+03  0.17200000000E+03 0.  1.
         -6    1    1    2    0  502  0.33537465381E+02  0.37093083128E+02  0.86951394172E+02  0.19911103271E+03  0.17200000000E+03 0.  1.
</event>
<event>
 4    1  0.1249554E+000  0.1873552E+03  0.7818608E-02  0.1160869E+00
         21   -1    0    0  503  502  0.00000000000E+00  0.00000000000E+00  0.44689940810E+03  0.44689940810E+03  0.00000000000E+00 0.  1.
         21   -1    0    0  501  503 -0.00000000000E+00 -0.00000000000E+00 -0.80274437296E+02  0.80274437296E+02  0.00000000000E+00 0.  1.
          6    1    1    2  501    0 -0.70086573575E+02  0.24613900577E+02  0.14462992898E+03  0.23668499795E+03  0.17200000000E+03 0.  1.
         -6    1    1    2    0  502  0.70086573575E+02 -0.24613900577E+02  0.22199504183E+03  0.29048884745E+03  0.17200000000E+03 0.  1.
</event>
<event>
 4    1  0.1249554E+000  0.1875595E+03  0.7818608E-02  0.1160681E+00
         21   -1    0    0  501  502  0.00000000000E+00  0.00000000000E+00  0.24169675407E+03  0.24169675407E+03  0.00000000000E+00 0.  1.
         21   -1    0    0  502  503 -0.00000000000E+00 -0.00000000000E+00 -0.41829524293E+03  0.41829524293E+03  0.00000000000E+00 0.  1.
          6    1    1    2  501    0  0.49667837631E+02  0.55925436543E+02 -0.35476853577E+03  0.40129697547E+03  0.17200000000E+03 0.  1.
         -6    1    1    2    0  503 -0.49667837631E+02 -0.55925436543E+02  0.17817004691E+03  0.25869502153E+03  0.17200000000E+03 0.  1.
</event>
<event>
 4    1  0.1249554E+000  0.1733187E+03  0.7818608E-02  0.1174430E+00
         21   -1    0    0  501  502  0.00000000000E+00  0.00000000000E+00  0.13510047775E+03  0.13510047775E+03  0.00000000000E+00 0.  1.
         21   -1    0    0  502  503 -0.00000000000E+00 -0.00000000000E+00 -0.24190147129E+03  0.24190147129E+03  0.00000000000E+00 0.  1.
          6    1    1    2  501    0 -0.20963152094E+02  0.39903336679E+01 -0.10699271315E+03  0.20368312933E+03  0.17200000000E+03 0. -1.
         -6    1    1    2    0  503  0.20963152094E+02 -0.39903336679E+01  0.19171961108E+00  0.17331881971E+03  0.17200000000E+03 0. -1.
</event>
<event>
 4    1  0.1249554E+000  0.3699559E+03  0.7818608E-02  0.1054710E+00
         21   -1    0    0  501  502  0.00000000000E+00  0.00000000000E+00  0.85478735271E+02  0.85478735271E+02  0.00000000000E+00 0.  1.
         21   -1    0    0  502  503 -0.00000000000E+00 -0.00000000000E+00 -0.16347522642E+04  0.16347522642E+04  0.00000000000E+00 0. -1.
          6    1    1    2  501    0 -0.55305513329E+02 -0.32283848509E+03 -0.65138878635E+03  0.74911597116E+03  0.17200000000E+03 0.  1.
         -6    1    1    2    0  503  0.55305513329E+02  0.32283848509E+03 -0.89788474256E+03  0.97111502829E+03  0.17200000000E+03 0.  1.
</event>
<event>
 4    1  0.1249554E+000  0.2195363E+03  0.7818608E-02  0.1134229E+00
         21   -1    0    0  501  502  0.00000000000E+00  0.00000000000E+00  0.42252709848E+02  0.42252709848E+02  0.00000000000E+00 0. -1.
         21   -1    0    0  502  503 -0.00000000000E+00 -0.00000000000E+00 -0.11703315357E+04  0.11703315357E+04  0.00000000000E+00 0.  1.
          6    1    1    2  501    0  0.46215975235E+02 -0.12835996379E+03 -0.66056873625E+03  0.69609428383E+03  0.17200000000E+03 0. -1.
         -6    1    1    2    0  503 -0.46215975235E+02  0.12835996379E+03 -0.46751008956E+03  0.51648996167E+03  0.17200000000E+03 0.  1.
</event>
<event>
 4    1  0.1249554E+000  0.2739791E+03  0.7818608E-02  0.1099024E+00
         21   -1    0    0  503  502  0.00000000000E+00  0.00000000000E+00  0.73095960486E+03  0.73095960486E+03  0.00000000000E+00 0. -1.
         21   -1    0    0  501  503 -0.00000000000E+00 -0.00000000000E+00 -0.31584429794E+03  0.31584429794E+03  0.00000000000E+00 0.  1.
          6    1    1    2  501    0  0.14385553031E+03 -0.15743610597E+03 -0.22241680641E+03  0.35289343552E+03  0.17200000000E+03 0.  1.
         -6    1    1    2    0  502 -0.14385553031E+03  0.15743610597E+03  0.63753211333E+03  0.69391046727E+03  0.17200000000E+03 0. -1.
</event>
<event>
 4    1  0.1249554E+000  0.2254646E+03  0.7818608E-02  0.1129873E+00
         21   -1    0    0  503  502  0.00000000000E+00  0.00000000000E+00  0.10275247939E+04  0.10275247939E+04  0.00000000000E+00 0.  1.
         21   -1    0    0  501  503 -0.00000000000E+00 -0.00000000000E+00 -0.76834762534E+02  0.76834762534E+02  0.00000000000E+00 0. -1.
          6    1    1    2  501    0  0.13539576919E+03  0.54021079618E+02  0.14582858421E+03  0.26851492944E+03  0.17200000000E+03 0. -1.
         -6    1    1    2    0  502 -0.13539576919E+03 -0.54021079618E+02  0.80486144714E+03  0.83584462698E+03  0.17200000000E+03 0.  1.
</event>
<event>
 4    1  0.1249554E+000  0.1783010E+03  0.7818608E-02  0.1169458E+00
         21   -1    0    0  501  502  0.00000000000E+00  0.00000000000E+00  0.15586645787E+04  0.15586645787E+04  0.00000000000E+00 0. -1.
         21   -1    0    0  502  503 -0.00000000000E+00 -0.00000000000E+00 -0.22354517022E+02  0.22354517022E+02  0.00000000000E+00 0. -1.
          6    1    1    2  501    0  0.46894607266E+02  0.28520594155E+01  0.10021126720E+04  0.10178511904E+04  0.17200000000E+03 0. -1.
         -6    1    1    2    0  503 -0.46894607266E+02 -0.28520594155E+01  0.53419738965E+03  0.56316790528E+03  0.17200000000E+03 0. -1.
</event>
<event>
 4    1  0.1249554E+000  0.2185991E+03  0.7818608E-02  0.1134932E+00
         21   -1    0    0  501  502  0.00000000000E+00  0.00000000000E+00  0.33210972365E+03  0.33210972365E+03  0.00000000000E+00 0. -1.
         21   -1    0    0  502  503 -0.00000000000E+00 -0.00000000000E+00 -0.31489397147E+03  0.31489397147E+03  0.00000000000E+00 0. -1.
          6    1    1    2  501    0 -0.12964566303E+03  0.37330544822E+02  0.24700674625E+03  0.32984526707E+03  0.17200000000E+03 0. -1.
         -6    1    1    2    0  503  0.12964566303E+03 -0.37330544822E+02 -0.22979099407E+03  0.31715842804E+03  0.17200000000E+03 0. -1.
</event>
<event>
 4    1  0.1249554E+000  0.1781121E+03  0.7818608E-02  0.1169643E+00
         21   -1    0    0  501  502  0.00000000000E+00  0.00000000000E+00  0.59785951533E+02  0.59785951533E+02  0.00000000000E+00 0.  1.
         21   -1    0    0  502  503 -0.00000000000E+00 -0.00000000000E+00 -0.54439657751E+03  0.54439657751E+03  0.00000000000E+00 0.  1.
          6    1    1    2  501    0  0.42824759791E+02 -0.17491971792E+02 -0.19425789521E+03  0.26355276318E+03  0.17200000000E+03 0.  1.
         -6    1    1    2    0  503 -0.42824759791E+02  0.17491971792E+02 -0.29035273077E+03  0.34062976587E+03  0.17200000000E+03 0.  1.
</event>
<event>
 4    1  0.1249554E+000  0.2278888E+03  0.7818608E-02  0.1128135E+00
         21   -1    0    0  501  502  0.00000000000E+00  0.00000000000E+00  0.12646376668E+03  0.12646376668E+03  0.00000000000E+00 0.  1.
         21   -1    0    0  502  503 -0.00000000000E+00 -0.00000000000E+00 -0.65120964257E+03  0.65120964257E+03  0.00000000000E+00 0.  1.
          6    1    1    2  501    0  0.14926784532E+03 -0.82720931217E+01 -0.49869882342E+03  0.54830086052E+03  0.17200000000E+03 0.  1.
         -6    1    1    2    0  503 -0.14926784532E+03  0.82720931217E+01 -0.26047052470E+02  0.22937254873E+03  0.17200000000E+03 0.  1.
</event>
<event>
 4    1  0.1249554E+000  0.1858306E+03  0.7818608E-02  0.1162277E+00
         21   -1    0    0  503  502  0.00000000000E+00  0.00000000000E+00  0.13116036697E+02  0.13116036697E+02  0.00000000000E+00 0. -1.
         21   -1    0    0  501  503 -0.00000000000E+00 -0.00000000000E+00 -0.26565123761E+04  0.26565123761E+04  0.00000000000E+00 0. -1.
          6    1    1    2  501    0 -0.70159905841E+02 -0.51578473183E+01 -0.14475828835E+04  0.14594619626E+04  0.17200000000E+03 0. -1.
         -6    1    1    2    0  502  0.70159905841E+02  0.51578473183E+01 -0.11958134559E+04  0.12101664501E+04  0.17200000000E+03 0. -1.
</event>
<event>
 4    1  0.1249554E+000  0.2583985E+03  0.7818608E-02  0.1108109E+00
         21   -1    0    0  503  502  0.00000000000E+00  0.00000000000E+00  0.12284619054E+03  0.12284619054E+03  0.00000000000E+00 0. -1.
         21   -1    0    0  501  503 -0.00000000000E+00 -0.00000000000E+00 -0.55429342734E+03  0.55429342734E+03  0.00000000000E+00 0. -1.
          6    1    1    2  501    0 -0.13437772658E+03 -0.13830558180E+03 -0.26291711324E+03  0.36863968287E+03  0.17200000000E+03 0.  1.
         -6    1    1    2    0  502  0.13437772658E+03  0.13830558180E+03 -0.16853012356E+03  0.30849993502E+03  0.17200000000E+03 0.  1.
</event>
<event>
 4    1  0.1249554E+000  0.1980186E+03  0.7818608E-02  0.1151422E+00
         21   -1    0    0  501  502  0.00000000000E+00  0.00000000000E+00  0.19894505746E+03  0.19894505746E+03  0.00000000000E+00 0. -1.
         21   -1    0    0  502  503 -0.00000000000E+00 -0.00000000000E+00 -0.20460373797E+03  0.20460373797E+03  0.00000000000E+00 0. -1.
          6    1    1    2  501    0  0.92252082033E+02 -0.33420191197E+02 -0.41479570709E+02  0.20231636267E+03  0.17200000000E+03 0. -1.
         -6    1    1    2    0  503 -0.92252082033E+02  0.33420191197E+02  0.35820890200E+02  0.20123243276E+03  0.17200000000E+03 0. -1.
</event>
<event>
 4    1  0.1249554E+000  0.1732382E+03  0.7818608E-02  0.1174512E+00
         21   -1    0    0  503  502  0.00000000000E+00  0.00000000000E+00  0.24587848870E+03  0.24587848870E+03  0.00000000000E+00 0. -1.
         21   -1    0    0  501  503 -0.00000000000E+00 -0.00000000000E+00 -0.12402792141E+03  0.12402792141E+03  0.00000000000E+00 0.  1.
          6    1    1    2  501    0  0.17593412545E+02 -0.10860208348E+02  0.37616985405E+02  0.17727523764E+03  0.17200000000E+03 0.  1.
         -6    1    1    2    0  502 -0.17593412545E+02  0.10860208348E+02  0.84233581884E+02  0.19263117247E+03  0.17200000000E+03 0. -1.
</event>
<event>
 4    1  0.1249554E+000  0.1723419E+03  0.7818608E-02  0.1175427E+00
         21   -1    0    0  501  502  0.00000000000E+00  0.00000000000E+00  0.83327525908E+03  0.83327525908E+03  0.00000000000E+00 0.  1.
         21   -1    0    0  502  503 -0.00000000000E+00 -0.00000000000E+00 -0.57153414577E+02  0.57153414577E+02  0.00000000000E+00 0.  1.
          6    1    1    2  501    0 -0.10239157099E+02 -0.35917076979E+01  0.66118284531E+03  0.68327483170E+03  0.17200000000E+03 0. -1.
         -6    1    1    2    0  503  0.10239157099E+02  0.35917076979E+01  0.11493899919E+03  0.20715384196E+03  0.17200000000E+03 0. -1.
</event>
<event>
 4    1  0.1249554E+000  0.1796609E+03  0.7818608E-02  0.1168132E+00
         21   -1    0    0  503  502  0.00000000000E+00  0.00000000000E+00  0.13458723768E+03  0.13458723768E+03  0.00000000000E+00 0.  1.
         21   -1    0    0  501  503 -0.00000000000E+00 -0.00000000000E+00 -0.25755068497E+03  0.25755068497E+03  0.00000000000E+00 0.  1.
          6    1    1    2  501    0 -0.20060748201E+02  0.47870636028E+02 -0.10051300796E+02  0.17994182410E+03  0.17200000000E+03 0.  1.
         -6    1    1    2    0  502  0.20060748201E+02 -0.47870636028E+02 -0.11291214650E+03  0.21219609855E+03  0.17200000000E+03 0.  1.
</event>
<event>
 4    1  0.1249554E+000  0.1970817E+03  0.7818608E-02  0.1152225E+00
         21   -1    0    0  503  502  0.00000000000E+00  0.00000000000E+00  0.59869032841E+03  0.59869032841E+03  0.00000000000E+00 0.  1.
         21   -1    0    0  501  503 -0.00000000000E+00 -0.00000000000E+00 -0.65196095765E+02  0.65196095765E+02  0.00000000000E+00 0.  1.
          6    1    1    2  501    0 -0.55169371610E+02 -0.78825940988E+02  0.28997252752E+03  0.35060698118E+03  0.17200000000E+03 0.  1.
         -6    1    1    2    0  502  0.55169371610E+02  0.78825940988E+02  0.24352170513E+03  0.31327944300E+03  0.17200000000E+03 0.  1.
</event>
<event>
 4    1  0.1249554E+000  0.2176587E+03  0.7818608E-02  0.1135641E+00
         21   -1    0    0  501  502  0.00000000000E+00  0.00000000000E+00  0.11599031484E+03  0.11599031484E+03  0.00000000000E+00 0. -1.
         21   -1    0    0  502  503 -0.00000000000E+00 -0.00000000000E+00 -0.41357000407E+03  0.41357000407E+03  0.00000000000E+00 0. -1.
          6    1    1    2  501    0 -0.28441330320E+02 -0.13031655871E+03 -0.11930589740E+03  0.24821203012E+03  0.17200000000E+03 0. -1.
         -6    1    1    2    0  503  0.28441330320E+02  0.13031655871E+03 -0.17827379183E+03  0.28134828878E+03  0.17200000000E+03 0. -1.
</event>
<event>
 4    1  0.1249554E+000  0.3032361E+03  0.7818608E-02  0.1083634E+00
         21   -1    0    0  503  502  0.00000000000E+00  0.00000000000E+00  0.10570744925E+03  0.10570744925E+03  0.00000000000E+00 0. -1.
         21   -1    0    0  501  503 -0.00000000000E+00 -0.00000000000E+00 -0.17049874036E+04  0.17049874036E+04  0.00000000000E+00 0.  1.
          6    1    1    2  501    0 -0.95079779541E+02 -0.23092845237E+03 -0.14332580073E+04  0.14649848566E+04  0.17200000000E+03 0.  1.
         -6    1    1    2    0  502  0.95079779541E+02  0.23092845237E+03 -0.16602194702E+03  0.34570999622E+03  0.17200000000E+03 0.  1.
</event>
<event>
 4    1  0.1249554E+000  0.1965199E+03  0.7818608E-02  0.1152709E+00
         21   -1    0    0  503  502  0.00000000000E+00  0.00000000000E+00  0.54155476797E+03  0.54155476797E+03  0.00000000000E+00 0. -1.
         21   -1    0    0  501  503 -0.00000000000E+00 -0.00000000000E+00 -0.77646513321E+02  0.77646513321E+02  0.00000000000E+00 0. -1.
          6    1    1    2  501    0  0.38914140037E+02 -0.86727995424E+02  0.14353360711E+03  0.24335560782E+03  0.17200000000E+03 0.  1.
         -6    1    1    2    0  502 -0.38914140037E+02  0.86727995424E+02  0.32037464754E+03  0.37584567348E+03  0.17200000000E+03 0.  1.
</event>
<event>
 4    1  0.1249554E+000  0.1795653E+03  0.7818608E-02  0.1168224E+00
         21   -1    0    0  501  502  0.00000000000E+00  0.00000000000E+00  0.67494111187E+03  0.67494111187E+03  0.00000000000E+00 0.  1.
         21   -1    0    0  502  503 -0.00000000000E+00 -0.00000000000E+00 -0.25409760382E+03  0.25409760382E+03  0.00000000000E+00 0.  1.
          6    1    1    2  501    0  0.51156763408E+02  0.65335220945E+01  0.62900269326E+03  0.65413155365E+03  0.17200000000E+03 0.  1.
         -6    1    1    2    0  503 -0.51156763408E+02 -0.65335220945E+01 -0.20815918521E+03  0.27490716204E+03  0.17200000000E+03 0.  1.
</event>
<event>
 4    1  0.1249554E+000  0.2505609E+03  0.7818608E-02  0.1112951E+00
         21   -1    0    0  503  502  0.00000000000E+00  0.00000000000E+00  0.24317416360E+04  0.24317416360E+04  0.00000000000E+00 0. -1.
         21   -1    0    0  501  503 -0.00000000000E+00 -0.00000000000E+00 -0.33320504274E+02  0.33320504274E+02  0.00000000000E+00 0. -1.
          6    1    1    2  501    0  0.46493112197E+02  0.17616802788E+03  0.61432878351E+03  0.66346110495E+03  0.17200000000E+03 0. -1.
         -6    1    1    2    0  502 -0.46493112197E+02 -0.17616802788E+03  0.17840923482E+04  0.18016010354E+04  0.17200000000E+03 0. -1.
</event>
<event>
 4    1  0.1249554E+000  0.2956333E+03  0.7818608E-02  0.1087444E+00
         21   -1    0    0  501  502  0.00000000000E+00  0.00000000000E+00  0.15878066511E+03  0.15878066511E+03  0.00000000000E+00 0. -1.
         21   -1    0    0  502  503 -0.00000000000E+00 -0.00000000000E+00 -0.62594944812E+03  0.62594944812E+03  0.00000000000E+00 0. -1.
          6    1    1    2  501    0 -0.49904201926E+02  0.23521186774E+03 -0.97306768471E+02  0.31123569732E+03  0.17200000000E+03 0. -1.
         -6    1    1    2    0  503  0.49904201926E+02 -0.23521186774E+03 -0.36986201454E+03  0.47349441591E+03  0.17200000000E+03 0. -1.
</event>
<event>
 4    1  0.1249554E+000  0.1867084E+03  0.7818608E-02  0.1161464E+00
         21   -1    0    0  501  502  0.00000000000E+00  0.00000000000E+00  0.41431173343E+03  0.41431173343E+03  0.00000000000E+00 0.  1.
         21   -1    0    0  502  503 -0.00000000000E+00 -0.00000000000E+00 -0.84139791914E+02  0.84139791914E+02  0.00000000000E+00 0.  1.
          6    1    1    2  501    0 -0.71789672790E+02 -0.11056775596E+02  0.16549442375E+03  0.24949632001E+03  0.17200000000E+03 0. -1.
         -6    1    1    2    0  503  0.71789672790E+02  0.11056775596E+02  0.16467751777E+03  0.24895520533E+03  0.17200000000E+03 0. -1.
</event>
<event>
 4    1  0.1249554E+000  0.1724922E+03  0.7818608E-02  0.1175273E+00
         21   -1    0    0  503  502  0.00000000000E+00  0.00000000000E+00  0.21851195087E+02  0.21851195087E+02  0.00000000000E+00 0.  1.
         21   -1    0    0  501  503 -0.00000000000E+00 -0.00000000000E+00 -0.13813444427E+04  0.13813444427E+04  0.00000000000E+00 0.  1.
          6    1    1    2  501    0  0.12121898447E+02  0.47572603041E+01 -0.59596215997E+03  0.62042281395E+03  0.17200000000E+03 0.  1.
         -6    1    1    2    0  502 -0.12121898447E+02 -0.47572603041E+01 -0.76353108760E+03  0.78277282380E+03  0.17200000000E+03 0.  1.
</event>
<event>
 4    1  0.1249554E+000  0.1829573E+03  0.7818608E-02  0.1164971E+00
         21   -1    0    0  503  502  0.00000000000E+00  0.00000000000E+00  0.11166763443E+04  0.11166763443E+04  0.00000000000E+00 0.  1.
         21   -1    0    0  501  503 -0.00000000000E+00 -0.00000000000E+00 -0.45878943525E+03  0.45878943525E+03  0.00000000000E+00 0.  1.
          6    1    1    2  501    0 -0.45037088825E+02 -0.43139569407E+02 -0.43262075278E+03  0.46971701859E+03  0.17200000000E+03 0.  1.
         -6    1    1    2    0  502  0.45037088825E+02  0.43139569407E+02  0.10905076619E+04  0.11057487610E+04  0.17200000000E+03 0.  1.
</event>
<event>
 4    1  0.1249554E+000  0.3466239E+03  0.7818608E-02  0.1064009E+00
         21   -1    0    0  503  502  0.00000000000E+00  0.00000000000E+00  0.16806913862E+04  0.16806913862E+04  0.00000000000E+00 0.  1.
         21   -1    0    0  501  503 -0.00000000000E+00 -0.00000000000E+00 -0.74888714868E+02  0.74888714868E+02  0.00000000000E+00 0. -1.
          6    1    1    2  501    0 -0.11417365279E+03 -0.27843937131E+03  0.61582811796E+03  0.70667699648E+03  0.17200000000E+03 0. -1.
         -6    1    1    2    0  502  0.11417365279E+03  0.27843937131E+03  0.98997455335E+03  0.10489031046E+04  0.17200000000E+03 0.  1.
</event>
<event>
 4    1  0.1249554E+000  0.1771348E+03  0.7818608E-02  0.1170605E+00
         21   -1    0    0  503  502  0.00000000000E+00  0.00000000000E+00  0.15139256029E+03  0.15139256029E+03  0.00000000000E+00 0. -1.
         21   -1    0    0  501  503 -0.00000000000E+00 -0.00000000000E+00 -0.32718822290E+03  0.32718822290E+03  0.00000000000E+00 0. -1.
          6    1    1    2  501    0 -0.21294177720E+02  0.36596400009E+02 -0.23277424774E+03  0.29250741684E+03  0.17200000000E+03 0.  1.
         -6    1    1    2    0  502  0.21294177720E+02 -0.36596400009E+02  0.56978585127E+02  0.18607336634E+03  0.17200000000E+03 0.  1.
</event>
<event>
 4    1  0.1249554E+000  0.2188684E+03  0.7818608E-02  0.1134730E+00
         21   -1    0    0  501  502  0.00000000000E+00  0.00000000000E+00  0.41794920725E+03  0.41794920725E+03  0.00000000000E+00 0. -1.
         21   -1    0    0  502  503 -0.00000000000E+00 -0.00000000000E+00 -0.13517341058E+03  0.13517341058E+03  0.00000000000E+00 0.  1.
          6    1    1    2  501    0 -0.13212539527E+03  0.29364316716E+02  0.33533677056E+02  0.22142242585E+03  0.17200000000E+03 0.  1.
         -6    1    1    2    0  503  0.13212539527E+03 -0.29364316716E+02  0.24924211961E+03  0.33170019198E+03  0.17200000000E+03 0. -1.
</event>
<event>
 4    1  0.1249554E+000  0.2186707E+03  0.7818608E-02  0.1134878E+00
         21   -1    0    0  503  502  0.00000000000E+00  0.00000000000E+00  0.18417776048E+03  0.18417776048E+03  0.00000000000E+00 0.  1.
         21   -1    0    0  501  503 -0.00000000000E+00 -0.00000000000E+00 -0.65682713684E+03  0.65682713684E+03  0.00000000000E+00 0. -1.
          6    1    1    2  501    0  0.12061281526E+03  0.60707764961E+02 -0.56332605387E+03  0.60427901412E+03  0.17200000000E+03 0. -1.
         -6    1    1    2    0  502 -0.12061281526E+03 -0.60707764961E+02  0.90676677514E+02  0.23672588320E+03  0.17200000000E+03 0.  1.
</event>
<event>
 4    1  0.1249554E+000  0.2082295E+03  0.7818608E-02  0.1142976E+00
         21   -1    0    0  503  502  0.00000000000E+00  0.00000000000E+00  0.68698798243E+03  0.68698798243E+03  0.00000000000E+00 0. -1.
         21   -1    0    0  501  503 -0.00000000000E+00 -0.00000000000E+00 -0.15199224718E+03  0.15199224718E+03  0.00000000000E+00 0. -1.
          6    1    1    2  501    0  0.71877368067E+02 -0.92785598091E+02 -0.53280687081E+02  0.21493802565E+03  0.17200000000E+03 0.  1.
         -6    1    1    2    0  502 -0.71877368067E+02  0.92785598091E+02  0.58827642233E+03  0.62404220396E+03  0.17200000000E+03 0.  1.
</event>
<event>
 4    1  0.1249554E+000  0.2191134E+03  0.7818608E-02  0.1134546E+00
         21   -1    0    0  503  502  0.00000000000E+00  0.00000000000E+00  0.14229695728E+03  0.14229695728E+03  0.00000000000E+00 0. -1.
         21   -1    0    0  501  503 -0.00000000000E+00 -0.00000000000E+00 -0.53596447635E+03  0.53596447635E+03  0.00000000000E+00 0. -1.
          6    1    1    2  501    0 -0.55438131542E+02 -0.12390850306E+03 -0.40325392877E+03  0.45893837781E+03  0.17200000000E+03 0. -1.
         -6    1    1    2    0  502  0.55438131542E+02  0.12390850306E+03  0.95864096980E+01  0.21932305581E+03  0.17200000000E+03 0. -1.
</event>
<event>
 4    1  0.1249554E+000  0.1872594E+03  0.7818608E-02  0.1160957E+00
         21   -1    0    0  503  502  0.00000000000E+00  0.00000000000E+00  0.18136818641E+03  0.18136818641E+03  0.00000000000E+00 0. -1.
         21   -1    0    0  501  503 -0.00000000000E+00 -0.00000000000E+00 -0.31999930114E+03  0.31999930114E+03  0.00000000000E+00 0. -1.
          6    1    1    2  501    0 -0.43731965617E+02 -0.59746141602E+02 -0.22702830116E+03  0.29429226252E+03  0.17200000000E+03 0. -1.
         -6    1    1    2    0  502  0.43731965617E+02  0.59746141602E+02  0.88397186433E+02  0.20707522503E+03  0.17200000000E+03 0. -1.
</event>
<event>
 4    1  0.1249554E+000  0.1867537E+03  0.7818608E-02  0.1161422E+00
         21   -1    0    0  503  502  0.00000000000E+00  0.00000000000E+00  0.16954558976E+03  0.16954558976E+03  0.00000000000E+00 0. -1.
         21   -1    0    0  501  503 -0.00000000000E+00 -0.00000000000E+00 -0.22936643775E+03  0.22936643775E+03  0.00000000000E+00 0. -1.
          6    1    1    2  501    0  0.29134979057E+02 -0.66664173783E+02 -0.93968099853E+02  0.20906210288E+03  0.17200000000E+03 0. -1.
         -6    1    1    2    0  502 -0.29134979057E+02  0.66664173783E+02  0.34147251867E+02  0.18984992463E+03  0.17200000000E+03 0. -1.
</event>
<event>
 4    1  0.1249554E+000  0.2010573E+03  0.7818608E-02  0.1148850E+00
         21   -1    0    0  503  502  0.00000000000E+00  0.00000000000E+00  0.19707519137E+04  0.19707519137E+04  0.00000000000E+00 0.  1.
         21   -1    0    0  501  503 -0.00000000000E+00 -0.00000000000E+00 -0.27029491604E+02  0.27029491604E+02  0.00000000000E+00 0.  1.
          6    1    1    2  501    0  0.10321372215E+03 -0.13673024550E+02  0.48136016777E+03  0.52166237659E+03  0.17200000000E+03 0. -1.
         -6    1    1    2    0  502 -0.10321372215E+03  0.13673024550E+02  0.14623622543E+04  0.14761190287E+04  0.17200000000E+03 0. -1.
</event>
<event>
 4    1  0.1249554E+000  0.1739464E+03  0.7818608E-02  0.1173794E+00
         21   -1    0    0  501  502  0.00000000000E+00  0.00000000000E+00  0.63961627117E+02  0.63961627117E+02  0.00000000000E+00 0. -1.
         21   -1    0    0  502  503 -0.00000000000E+00 -0.00000000000E+00 -0.51780106949E+03  0.51780106949E+03  0.00000000000E+00 0. -1.
          6    1    1    2  501    0  0.23301042346E+02 -0.11420193922E+02 -0.14141059569E+03  0.22417474429E+03  0.17200000000E+03 0. -1.
         -6    1    1    2    0  503 -0.23301042346E+02  0.11420193922E+02 -0.31242884669E+03  0.35758795232E+03  0.17200000000E+03 0. -1.
</event>
<event>
 4    1  0.1249554E+000  0.1874837E+03  0.7818608E-02  0.1160751E+00
         21   -1    0    0  503  502  0.00000000000E+00  0.00000000000E+00  0.11440235191E+02  0.11440235191E+02  0.00000000000E+00 0. -1.
         21   -1    0    0  501  503 -0.00000000000E+00 -0.00000000000E+00 -0.32052398217E+04  0.32052398217E+04  0.00000000000E+00 0.  1.
          6    1    1    2  501    0  0.61328090540E+02  0.42485515242E+02 -0.12696014717E+04  0.12833698027E+04  0.17200000000E+03 0. -1.
         -6    1    1    2    0  502 -0.61328090540E+02 -0.42485515242E+02 -0.19241981148E+04  0.19333102542E+04  0.17200000000E+03 0.  1.
</event>
<event>
 4    1  0.1249554E+000  0.2176229E+03  0.7818608E-02  0.1135668E+00
         21   -1    0    0  501  502  0.00000000000E+00  0.00000000000E+00  0.72845386530E+03  0.72845386530E+03  0.00000000000E+00 0.  1.
         21   -1    0    0  502  503 -0.00000000000E+00 -0.00000000000E+00 -0.84182765768E+02  0.84182765768E+02  0.00000000000E+00 0. -1.
          6    1    1    2  501    0 -0.13048924068E+03 -0.27354404346E+02  0.51602393328E+03  0.56003607481E+03  0.17200000000E+03 0.  1.
         -6    1    1    2    0  503  0.13048924068E+03  0.27354404346E+02  0.12824716626E+03  0.25260055626E+03  0.17200000000E+03 0. -1.
</event>
<event>
 4    1  0.1249554E+000  0.1816813E+03  0.7818608E-02  0.1166186E+00
         21   -1    0    0  503  502  0.00000000000E+00  0.00000000000E+00  0.13458604111E+03  0.13458604111E+03  0.00000000000E+00 0.  1.
         21   -1    0    0  501  503 -0.00000000000E+00 -0.00000000000E+00 -0.25555559809E+03  0.25555559809E+03  0.00000000000E+00 0.  1.
          6    1    1    2  501    0 -0.24007557749E+02  0.53364007059E+02 -0.99645667766E+02  0.20721326980E+03  0.17200000000E+03 0. -1.
         -6    1    1    2    0  502  0.24007557749E+02 -0.53364007059E+02 -0.21323889218E+02  0.18292836940E+03  0.17200000000E+03 0. -1.
</event>
<event>
 4    1  0.1249554E+000  0.2098351E+03  0.7818608E-02  0.1141697E+00
         21   -1    0    0  503  502  0.00000000000E+00  0.00000000000E+00  0.13298340321E+04  0.13298340321E+04  0.00000000000E+00 0.  1.
         21   -1    0    0  501  503 -0.00000000000E+00 -0.00000000000E+00 -0.86618620688E+02  0.86618620688E+02  0.00000000000E+00 0.  1.
          6    1    1    2  501    0 -0.48244910512E+02 -0.11008717724E+03  0.64962522302E+02  0.21966084605E+03  0.17200000000E+03 0.  1.
         -6    1    1    2    0  502  0.48244910512E+02  0.11008717724E+03  0.11782528891E+04  0.11967918068E+04  0.17200000000E+03 0.  1.
</event>
<event>
 4    1  0.1249554E+000  0.1855317E+03  0.7818608E-02  0.1162554E+00
         21   -1    0    0  501  502  0.00000000000E+00  0.00000000000E+00  0.33290386934E+03  0.33290386934E+03  0.00000000000E+00 0.  1.
         21   -1    0    0  502  503 -0.00000000000E+00 -0.00000000000E+00 -0.10507115219E+03  0.10507115219E+03  0.00000000000E+00 0.  1.
          6    1    1    2  501    0  0.69343556880E+02 -0.54302154962E+01  0.14153999222E+03  0.23335720584E+03  0.17200000000E+03 0. -1.
         -6    1    1    2    0  503 -0.69343556880E+02  0.54302154962E+01  0.86292724924E+02  0.20461781569E+03  0.17200000000E+03 0. -1.
</event>
<event>
 4    1  0.1249554E+000  0.1772815E+03  0.7818608E-02  0.1170460E+00
         21   -1    0    0  501  502  0.00000000000E+00  0.00000000000E+00  0.66632587914E+02  0.66632587914E+02  0.00000000000E+00 0.  1.
         21   -1    0    0  502  503 -0.00000000000E+00 -0.00000000000E+00 -0.54261598020E+03  0.54261598020E+03  0.00000000000E+00 0.  1.
          6    1    1    2  501    0 -0.31832492140E+01  0.42832058610E+02 -0.12784376109E+03  0.21856977277E+03  0.17200000000E+03 0.  1.
         -6    1    1    2    0  503  0.31832492140E+01 -0.42832058610E+02 -0.34813963119E+03  0.39067879534E+03  0.17200000000E+03 0.  1.
</event>
<event>
 4    1  0.1249554E+000  0.1747205E+03  0.7818608E-02  0.1173013E+00
         21   -1    0    0  501  502  0.00000000000E+00  0.00000000000E+00  0.30849480204E+03  0.30849480204E+03  0.00000000000E+00 0. -1.
         21   -1    0    0  502  503 -0.00000000000E+00 -0.00000000000E+00 -0.17050182274E+03  0.17050182274E+03  0.00000000000E+00 0. -1.
          6    1    1    2  501    0  0.27956224141E+02  0.12715867360E+02  0.22413932964E+03  0.28419303799E+03  0.17200000000E+03 0. -1.
         -6    1    1    2    0  503 -0.27956224141E+02 -0.12715867360E+02 -0.86146350338E+02  0.19480358679E+03  0.17200000000E+03 0. -1.
</event>
<event>
 4    1  0.1249554E+000  0.2168720E+03  0.7818608E-02  0.1136237E+00
         21   -1    0    0  501  502  0.00000000000E+00  0.00000000000E+00  0.22332391182E+03  0.22332391182E+03  0.00000000000E+00 0. -1.
         21   -1    0    0  502  503 -0.00000000000E+00 -0.00000000000E+00 -0.21580679144E+03  0.21580679144E+03  0.00000000000E+00 0. -1.
          6    1    1    2  501    0 -0.62142908494E+02 -0.11656644911E+03  0.37841974580E+02  0.22014879781E+03  0.17200000000E+03 0. -1.
         -6    1    1    2    0  503  0.62142908494E+02  0.11656644911E+03 -0.30324854198E+02  0.21898190546E+03  0.17200000000E+03 0. -1.
</event>
<event>
 4    1  0.1249554E+000  0.2054465E+03  0.7818608E-02  0.1145223E+00
         21   -1    0    0  501  502  0.00000000000E+00  0.00000000000E+00  0.31348256134E+03  0.31348256134E+03  0.00000000000E+00 0.  1.
         21   -1    0    0  502  503 -0.00000000000E+00 -0.00000000000E+00 -0.14823311418E+03  0.14823311418E+03  0.00000000000E+00 0.  1.
          6    1    1    2  501    0 -0.64949360795E+01 -0.11216979123E+03  0.15252563834E+03  0.25587558815E+03  0.17200000000E+03 0. -1.
         -6    1    1    2    0  503  0.64949360795E+01  0.11216979123E+03  0.12723808806E+02  0.20584008737E+03  0.17200000000E+03 0. -1.
</event>
<event>
 4    1  0.1249554E+000  0.3104150E+03  0.7818608E-02  0.1080147E+00
         21   -1    0    0  501  502  0.00000000000E+00  0.00000000000E+00  0.12711235927E+03  0.12711235927E+03  0.00000000000E+00 0. -1.
         21   -1    0    0  502  503 -0.00000000000E+00 -0.00000000000E+00 -0.80282696753E+03  0.80282696753E+03  0.00000000000E+00 0.  1.
          6    1    1    2  501    0 -0.25840136882E+03 -0.14925273838E+01 -0.22804725549E+03  0.38517923851E+03  0.17200000000E+03 0. -1.
         -6    1    1    2    0  503  0.25840136882E+03  0.14925273838E+01 -0.44766735277E+03  0.54476008828E+03  0.17200000000E+03 0. -1.
</event>
<event>
 4    1  0.1249554E+000  0.2674387E+03  0.7818608E-02  0.1102755E+00
         21   -1    0    0  501  502  0.00000000000E+00  0.00000000000E+00  0.73413802743E+03  0.73413802743E+03  0.00000000000E+00 0.  1.
         21   -1    0    0  502  503 -0.00000000000E+00 -0.00000000000E+00 -0.12953804237E+03  0.12953804237E+03  0.00000000000E+00 0.  1.
          6    1    1    2  501    0 -0.19229640805E+03  0.70438087725E+02  0.51731195642E+03  0.58235306559E+03  0.17200000000E+03 0.  1.
         -6    1    1    2    0  503  0.19229640805E+03 -0.70438087725E+02  0.87288028647E+02  0.28132300421E+03  0.17200000000E+03 0.  1.
</event>
<event>
 4    1  0.1249554E+000  0.2045257E+03  0.7818608E-02  0.1145976E+00
         21   -1    0    0  501  502  0.00000000000E+00  0.00000000000E+00  0.50663910128E+03  0.50663910128E+03  0.00000000000E+00 0. -1.
         21   -1    0    0  502  503 -0.00000000000E+00 -0.00000000000E+00 -0.14576613579E+03  0.14576613579E+03  0.00000000000E+00 0. -1.
          6    1    1    2  501    0  0.96180696044E+02  0.54736212139E+02  0.39522978647E+03  0.44501389116E+03  0.17200000000E+03 0. -1.
         -6    1    1    2    0  503 -0.96180696044E+02 -0.54736212139E+02 -0.34356820984E+02  0.20739134591E+03  0.17200000000E+03 0. -1.
</event>
<event>
 4    1  0.1249554E+000  0.2240624E+03  0.7818608E-02  0.1130890E+00
         21   -1    0    0  503  502  0.00000000000E+00  0.00000000000E+00  0.87226863085E+03  0.87226863085E+03  0.00000000000E+00 0. -1.
         21   -1    0    0  501  503 -0.00000000000E+00 -0.00000000000E+00 -0.92962805750E+02  0.92962805750E+02  0.00000000000E+00 0.  1.
          6    1    1    2  501    0 -0.10458937805E+03 -0.98392139707E+02  0.91806323587E+02  0.24214118239E+03  0.17200000000E+03 0.  1.
         -6    1    1    2    0  502  0.10458937805E+03  0.98392139707E+02  0.68749950151E+03  0.72309025421E+03  0.17200000000E+03 0. -1.
</event>
<event>
 4    1  0.1249554E+000  0.1730894E+03  0.7818608E-02  0.1174664E+00
         21   -1    0    0  503  502  0.00000000000E+00  0.00000000000E+00  0.52771553417E+03  0.52771553417E+03  0.00000000000E+00 0.  1.
         21   -1    0    0  501  503 -0.00000000000E+00 -0.00000000000E+00 -0.47921340940E+03  0.47921340940E+03  0.00000000000E+00 0.  1.
          6    1    1    2  501    0  0.18683656185E+02 -0.51835246112E+01 -0.44845058975E+03  0.48069520424E+03  0.17200000000E+03 0.  1.
         -6    1    1    2    0  502 -0.18683656185E+02  0.51835246112E+01  0.49695271452E+03  0.52623373932E+03  0.17200000000E+03 0.  1.
</event>
<event>
 4    1  0.1249554E+000  0.1847787E+03  0.7818608E-02  0.1163257E+00
         21   -1    0    0  501  502  0.00000000000E+00  0.00000000000E+00  0.93819361148E+03  0.93819361148E+03  0.00000000000E+00 0. -1.
         21   -1    0    0  502  503 -0.00000000000E+00 -0.00000000000E+00 -0.18976045726E+03  0.18976045726E+03  0.00000000000E+00 0. -1.
          6    1    1    2  501    0 -0.41148056344E+02 -0.53534941408E+02  0.88123759788E+03  0.90040149734E+03  0.17200000000E+03 0. -1.
         -6    1    1    2    0  503  0.41148056344E+02  0.53534941408E+02 -0.13280444367E+03  0.22755257140E+03  0.17200000000E+03 0. -1.
</event>
<event>
 4    1  0.1249554E+000  0.1910755E+03  0.7818608E-02  0.1157495E+00
         21   -1    0    0  501  502  0.00000000000E+00  0.00000000000E+00  0.88467246706E+03  0.88467246706E+03  0.00000000000E+00 0.  1.
         21   -1    0    0  502  503 -0.00000000000E+00 -0.00000000000E+00 -0.14994203097E+03  0.14994203097E+03  0.00000000000E+00 0. -1.
          6    1    1    2  501    0 -0.70023846329E+02  0.44972291487E+02  0.80776499117E+03  0.83005670109E+03  0.17200000000E+03 0.  1.
         -6    1    1    2    0  503  0.70023846329E+02 -0.44972291487E+02 -0.73034555085E+02  0.20455779695E+03  0.17200000000E+03 0. -1.
</event>
<event>
 4    1  0.1249554E+000  0.1864774E+03  0.7818608E-02  0.1161677E+00
         21   -1    0    0  503  502  0.00000000000E+00  0.00000000000E+00  0.84776210762E+03  0.84776210762E+03  0.00000000000E+00 0.  1.
         21   -1    0    0  501  503 -0.00000000000E+00 -0.00000000000E+00 -0.46109129654E+02  0.46109129654E+02  0.00000000000E+00 0.  1.
          6    1    1    2  501    0  0.69761595433E+02 -0.17975843607E+02  0.25232075008E+03  0.31375081206E+03  0.17200000000E+03 0. -1.
         -6    1    1    2    0  502 -0.69761595433E+02  0.17975843607E+02  0.54933222789E+03  0.58012042521E+03  0.17200000000E+03 0. -1.
</event>
<event>
 4    1  0.1249554E+000  0.1738821E+03  0.7818608E-02  0.1173859E+00
         21   -1    0    0  503  502  0.00000000000E+00  0.00000000000E+00  0.43892778886E+03  0.43892778886E+03  0.00000000000E+00 0. -1.
         21   -1    0    0  501  503 -0.00000000000E+00 -0.00000000000E+00 -0.97806403363E+02  0.97806403363E+02  0.00000000000E+00 0. -1.
          6    1    1    2  501    0 -0.11088763777E+02  0.22978709247E+02  0.24623877265E+02  0.17561696129E+03  0.17200000000E+03 0. -1.
         -6    1    1    2    0  502  0.11088763777E+02 -0.22978709247E+02  0.31649750823E+03  0.36111723094E+03  0.17200000000E+03 0. -1.
</event>
<event>
 4    1  0.1249554E+000  0.2257175E+03  0.7818608E-02  0.1129691E+00
         21   -1    0    0  501  502  0.00000000000E+00  0.00000000000E+00  0.32831476237E+03  0.32831476237E+03  0.00000000000E+00 0. -1.
         21   -1    0    0  502  503 -0.00000000000E+00 -0.00000000000E+00 -0.15356219799E+04  0.15356219799E+04  0.00000000000E+00 0. -1.
          6    1    1    2  501    0 -0.54328186216E+02 -0.13569384580E+03  0.27997111628E+03  0.35962785981E+03  0.17200000000E+03 0. -1.
         -6    1    1    2    0  503  0.54328186216E+02  0.13569384580E+03 -0.14872783338E+04  0.15043088825E+04  0.17200000000E+03 0. -1.
</event>
<event>
 4    1  0.1249554E+000  0.1724119E+03  0.7818608E-02  0.1175356E+00
         21   -1    0    0  503  502  0.00000000000E+00  0.00000000000E+00  0.25020777197E+02  0.25020777197E+02  0.00000000000E+00 0. -1.
         21   -1    0    0  501  503 -0.00000000000E+00 -0.00000000000E+00 -0.14527982251E+04  0.14527982251E+04  0.00000000000E+00 0. -1.
          6    1    1    2  501    0 -0.41510163911E+01  0.11163778952E+02 -0.10293220222E+04  0.10436616723E+04  0.17200000000E+03 0. -1.
         -6    1    1    2    0  502  0.41510163911E+01 -0.11163778952E+02 -0.39845542574E+03  0.43415733001E+03  0.17200000000E+03 0. -1.
</event>
<event>
 4    1  0.1249554E+000  0.2942028E+03  0.7818608E-02  0.1088175E+00
         21   -1    0    0  503  502  0.00000000000E+00  0.00000000000E+00  0.13428744208E+04  0.13428744208E+04  0.00000000000E+00 0. -1.
         21   -1    0    0  501  503 -0.00000000000E+00 -0.00000000000E+00 -0.64519655399E+02  0.64519655399E+02  0.00000000000E+00 0.  1.
          6    1    1    2  501    0 -0.11826373080E+03  0.20732814848E+03  0.61693969947E+03  0.68349825454E+03  0.17200000000E+03 0. -1.
         -6    1    1    2    0  502  0.11826373080E+03 -0.20732814848E+03  0.66141506594E+03  0.72389582167E+03  0.17200000000E+03 0. -1.
</event>
<event>
 4    1  0.1249554E+000  0.1834750E+03  0.7818608E-02  0.1164482E+00
         21   -1    0    0  501  502  0.00000000000E+00  0.00000000000E+00  0.13039153950E+04  0.13039153950E+04  0.00000000000E+00 0.  1.
         21   -1    0    0  502  503 -0.00000000000E+00 -0.00000000000E+00 -0.31115575672E+02  0.31115575672E+02  0.00000000000E+00 0.  1.
          6    1    1    2  501    0  0.42722943880E+01  0.63724727873E+02  0.91185755702E+03  0.93013294627E+03  0.17200000000E+03 0.  1.
         -6    1    1    2    0  503 -0.42722943880E+01 -0.63724727873E+02  0.36094226227E+03  0.40489802437E+03  0.17200000000E+03 0.  1.
</event>
<event>
 4    1  0.1249554E+000  0.1775242E+03  0.7818608E-02  0.1170221E+00
         21   -1    0    0  503  502  0.00000000000E+00  0.00000000000E+00  0.54644607237E+03  0.54644607237E+03  0.00000000000E+00 0. -1.
         21   -1    0    0  501  503 -0.00000000000E+00 -0.00000000000E+00 -0.57843877767E+02  0.57843877767E+02  0.00000000000E+00 0. -1.
          6    1    1    2  501    0  0.29180645283E+02  0.32853134158E+02  0.22784858400E+03  0.28884219863E+03  0.17200000000E+03 0.  1.
         -6    1    1    2    0  502 -0.29180645283E+02 -0.32853134158E+02  0.26075361061E+03  0.31544775150E+03  0.17200000000E+03 0.  1.
</event>
<event>
 4    1  0.1249554E+000  0.1771627E+03  0.7818608E-02  0.1170578E+00
         21   -1    0    0  501  502  0.00000000000E+00  0.00000000000E+00  0.13654913815E+04  0.13654913815E+04  0.00000000000E+00 0. -1.
         21   -1    0    0  502  503 -0.00000000000E+00 -0.00000000000E+00 -0.23345125767E+02  0.23345125767E+02  0.00000000000E+00 0. -1.
          6    1    1    2  501    0 -0.41744214844E+02  0.77488381675E+01  0.75725075801E+03  0.77769874275E+03  0.17200000000E+03 0. -1.
         -6    1    1    2    0  503  0.41744214844E+02 -0.77488381675E+01  0.58489549776E+03  0.61113776456E+03  0.17200000000E+03 0. -1.
</event>
<event>
 4    1  0.1249554E+000  0.2112110E+03  0.7818608E-02  0.1140611E+00
         21   -1    0    0  503  502  0.00000000000E+00  0.00000000000E+00  0.80713206393E+02  0.80713206393E+02  0.00000000000E+00 0.  1.
         21   -1    0    0  501  503 -0.00000000000E+00 -0.00000000000E+00 -0.59181113978E+03  0.59181113978E+03  0.00000000000E+00 0.  1.
          6    1    1    2  501    0 -0.11906545672E+03  0.29145944067E+02 -0.34199497558E+03  0.40195849582E+03  0.17200000000E+03 0. -1.
         -6    1    1    2    0  502  0.11906545672E+03 -0.29145944067E+02 -0.16910295781E+03  0.27056585036E+03  0.17200000000E+03 0. -1.
</event>
<event>
 4    1  0.1249554E+000  0.1803015E+03  0.7818608E-02  0.1167512E+00
         21   -1    0    0  503  502  0.00000000000E+00  0.00000000000E+00  0.57703118601E+03  0.57703118601E+03  0.00000000000E+00 0.  1.
         21   -1    0    0  501  503 -0.00000000000E+00 -0.00000000000E+00 -0.91344917340E+02  0.91344917340E+02  0.00000000000E+00 0.  1.
          6    1    1    2  501    0 -0.16497000122E+02  0.51502057133E+02  0.35958856647E+02  0.18385225664E+03  0.17200000000E+03 0.  1.
         -6    1    1    2    0  502  0.16497000122E+02 -0.51502057133E+02  0.44972741203E+03  0.48452384671E+03  0.17200000000E+03 0.  1.
</event>
<event>
 4    1  0.1249554E+000  0.1987753E+03  0.7818608E-02  0.1150776E+00
         21   -1    0    0  503  502  0.00000000000E+00  0.00000000000E+00  0.75661772140E+03  0.75661772140E+03  0.00000000000E+00 0. -1.
         21   -1    0    0  501  503 -0.00000000000E+00 -0.00000000000E+00 -0.55347614165E+02  0.55347614165E+02  0.00000000000E+00 0.  1.
          6    1    1    2  501    0 -0.25690442947E+02 -0.96268464535E+02  0.25414794533E+03  0.32264964627E+03  0.17200000000E+03 0.  1.
         -6    1    1    2    0  502  0.25690442947E+02  0.96268464535E+02  0.44712216191E+03  0.48931568930E+03  0.17200000000E+03 0.  1.
</event>
<event>
 4    1  0.1249554E+000  0.1835371E+03  0.7818608E-02  0.1164423E+00
         21   -1    0    0  503  502  0.00000000000E+00  0.00000000000E+00  0.37525440185E+03  0.37525440185E+03  0.00000000000E+00 0. -1.
         21   -1    0    0  501  503 -0.00000000000E+00 -0.00000000000E+00 -0.90773195501E+02  0.90773195501E+02  0.00000000000E+00 0. -1.
          6    1    1    2  501    0  0.50163807622E+02 -0.39818046555E+02  0.16675949714E+03  0.24798107652E+03  0.17200000000E+03 0.  1.
         -6    1    1    2    0  502 -0.50163807622E+02  0.39818046555E+02  0.11772170921E+03  0.21804652083E+03  0.17200000000E+03 0.  1.
</event>
<event>
 4    1  0.1249554E+000  0.4914458E+03  0.7818608E-02  0.1016036E+00
         21   -1    0    0  501  502  0.00000000000E+00  0.00000000000E+00  0.13522640370E+04  0.13522640370E+04  0.00000000000E+00 0.  1.
         21   -1    0    0  502  503 -0.00000000000E+00 -0.00000000000E+00 -0.18053754947E+03  0.18053754947E+03  0.00000000000E+00 0. -1.
          6    1    1    2  501    0  0.30218863983E+03  0.34729964327E+03  0.66518860906E+03  0.82703984298E+03  0.17200000000E+03 0. -1.
         -6    1    1    2    0  503 -0.30218863983E+03 -0.34729964327E+03  0.50653787851E+03  0.70576174352E+03  0.17200000000E+03 0. -1.
</event>
<event>
 4    1  0.1249554E+000  0.1793070E+03  0.7818608E-02  0.1168475E+00
         21   -1    0    0  501  502  0.00000000000E+00  0.00000000000E+00  0.58868760365E+02  0.58868760365E+02  0.00000000000E+00 0. -1.
         21   -1    0    0  502  503 -0.00000000000E+00 -0.00000000000E+00 -0.55101182957E+03  0.55101182957E+03  0.00000000000E+00 0. -1.
          6    1    1    2  501    0  0.50516236056E+02  0.38875914115E+01 -0.21741899237E+03  0.28181912943E+03  0.17200000000E+03 0.  1.
         -6    1    1    2    0  503 -0.50516236056E+02 -0.38875914115E+01 -0.27472407683E+03  0.32806146050E+03  0.17200000000E+03 0.  1.
</event>
<event>
 4    1  0.1249554E+000  0.1820434E+03  0.7818608E-02  0.1165840E+00
         21   -1    0    0  501  502  0.00000000000E+00  0.00000000000E+00  0.10273525711E+03  0.10273525711E+03  0.00000000000E+00 0. -1.
         21   -1    0    0  502  503 -0.00000000000E+00 -0.00000000000E+00 -0.32871324663E+03  0.32871324663E+03  0.00000000000E+00 0. -1.
          6    1    1    2  501    0 -0.56257981939E+02 -0.19769431929E+02 -0.14246878891E+03  0.23116476112E+03  0.17200000000E+03 0. -1.
         -6    1    1    2    0  503  0.56257981939E+02  0.19769431929E+02 -0.83509200608E+02  0.20028374262E+03  0.17200000000E+03 0. -1.
</event>
<event>
 4    1  0.1249554E+000  0.2326533E+03  0.7818608E-02  0.1124786E+00
         21   -1    0    0  503  502  0.00000000000E+00  0.00000000000E+00  0.12278322873E+04  0.12278322873E+04  0.00000000000E+00 0. -1.
         21   -1    0    0  501  503 -0.00000000000E+00 -0.00000000000E+00 -0.44133493802E+02  0.44133493802E+02  0.00000000000E+00 0.  1.
          6    1    1    2  501    0 -0.92770208603E+01  0.15638894615E+03  0.61318107800E+03  0.65583427785E+03  0.17200000000E+03 0.  1.
         -6    1    1    2    0  502  0.92770208603E+01 -0.15638894615E+03  0.57051771549E+03  0.61613150324E+03  0.17200000000E+03 0. -1.
</event>
<event>
 4    1  0.1249554E+000  0.2303384E+03  0.7818608E-02  0.1126402E+00
         21   -1    0    0  501  502  0.00000000000E+00  0.00000000000E+00  0.13946854008E+03  0.13946854008E+03  0.00000000000E+00 0. -1.
         21   -1    0    0  502  503 -0.00000000000E+00 -0.00000000000E+00 -0.47051371656E+03  0.47051371656E+03  0.00000000000E+00 0. -1.
          6    1    1    2  501    0 -0.15241433769E+03  0.15545597426E+02 -0.32059063770E+02  0.23255876569E+03  0.17200000000E+03 0. -1.
         -6    1    1    2    0  503  0.15241433769E+03 -0.15545597426E+02 -0.29898611271E+03  0.37742349095E+03  0.17200000000E+03 0. -1.
</event>
<event>
 4    1  0.1249554E+000  0.2479042E+03  0.7818608E-02  0.1114637E+00
         21   -1    0    0  503  502  0.00000000000E+00  0.00000000000E+00  0.71808837733E+02  0.71808837733E+02  0.00000000000E+00 0. -1.
         21   -1    0    0  501  503 -0.00000000000E+00 -0.00000000000E+00 -0.94992302764E+03  0.94992302764E+03  0.00000000000E+00 0. -1.
          6    1    1    2  501    0 -0.10154371628E+02  0.17823969309E+03 -0.27827767067E+03  0.37268614335E+03  0.17200000000E+03 0. -1.
         -6    1    1    2    0  502  0.10154371628E+02 -0.17823969309E+03 -0.59983651924E+03  0.64904572201E+03  0.17200000000E+03 0. -1.
</event>
<event>
 4    1  0.1249554E+000  0.1723023E+03  0.7818608E-02  0.1175468E+00
         21   -1    0    0  501  502  0.00000000000E+00  0.00000000000E+00  0.63601142236E+02  0.63601142236E+02  0.00000000000E+00 0. -1.
         21   -1    0    0  502  503 -0.00000000000E+00 -0.00000000000E+00 -0.51786592976E+03  0.51786592976E+03  0.00000000000E+00 0. -1.
          6    1    1    2  501    0  0.10187265704E+02  0.53819582287E+00 -0.31844171858E+03  0.36206794690E+03  0.17200000000E+03 0. -1.
         -6    1    1    2    0  503 -0.10187265704E+02 -0.53819582287E+00 -0.13582306894E+03  0.21939912510E+03  0.17200000000E+03 0. -1.
</event>
<event>
 4    1  0.1249554E+000  0.2408997E+03  0.7818608E-02  0.1119195E+00
         21   -1    0    0  501  502  0.00000000000E+00  0.00000000000E+00  0.59669264062E+02  0.59669264062E+02  0.00000000000E+00 0. -1.
         21   -1    0    0  502  503 -0.00000000000E+00 -0.00000000000E+00 -0.97619332538E+03  0.97619332538E+03  0.00000000000E+00 0. -1.
          6    1    1    2  501    0  0.94819304258E+02  0.13949173260E+03 -0.42671564341E+03  0.49001926927E+03  0.17200000000E+03 0. -1.
         -6    1    1    2    0  503 -0.94819304258E+02 -0.13949173260E+03 -0.48980841790E+03  0.54584332017E+03  0.17200000000E+03 0. -1.
</event>
<event>
 4    1  0.1249554E+000  0.2558402E+03  0.7818608E-02  0.1109669E+00
         21   -1    0    0  501  502  0.00000000000E+00  0.00000000000E+00  0.64090786005E+02  0.64090786005E+02  0.00000000000E+00 0.  1.
         21   -1    0    0  502  503 -0.00000000000E+00 -0.00000000000E+00 -0.10360291908E+04  0.10360291908E+04  0.00000000000E+00 0. -1.
          6    1    1    2  501    0  0.15591086300E+03  0.10752679683E+03 -0.42032345286E+03  0.49206301859E+03  0.17200000000E+03 0.  1.
         -6    1    1    2    0  503 -0.15591086300E+03 -0.10752679683E+03 -0.55161495193E+03  0.60805695821E+03  0.17200000000E+03 0. -1.
</event>
<event>
 4    1  0.1249554E+000  0.2132435E+03  0.7818608E-02  0.1139023E+00
         21   -1    0    0  501  502  0.00000000000E+00  0.00000000000E+00  0.16268757403E+03  0.16268757403E+03  0.00000000000E+00 0. -1.
         21   -1    0    0  502  503 -0.00000000000E+00 -0.00000000000E+00 -0.28125692869E+03  0.28125692869E+03  0.00000000000E+00 0. -1.
          6    1    1    2  501    0  0.89322192628E+02 -0.88940048312E+02 -0.41790317649E+02  0.21729983189E+03  0.17200000000E+03 0.  1.
         -6    1    1    2    0  503 -0.89322192628E+02  0.88940048312E+02 -0.76779037010E+02  0.22664467083E+03  0.17200000000E+03 0.  1.
</event>
<event>
 4    1  0.1249554E+000  0.2655946E+03  0.7818608E-02  0.1103828E+00
         21   -1    0    0  503  502  0.00000000000E+00  0.00000000000E+00  0.12274117669E+04  0.12274117669E+04  0.00000000000E+00 0.  1.
         21   -1    0    0  501  503 -0.00000000000E+00 -0.00000000000E+00 -0.13206795603E+03  0.13206795603E+03  0.00000000000E+00 0. -1.
          6    1    1    2  501    0 -0.15593113193E+03  0.12900381427E+03  0.36808548972E+02  0.26813312231E+03  0.17200000000E+03 0. -1.
         -6    1    1    2    0  502  0.15593113193E+03 -0.12900381427E+03  0.10585352619E+04  0.10913466006E+04  0.17200000000E+03 0.  1.
</event>
<event>
 4    1  0.1249554E+000  0.2689212E+03  0.7818608E-02  0.1101899E+00
         21   -1    0    0  501  502  0.00000000000E+00  0.00000000000E+00  0.18315085300E+03  0.18315085300E+03  0.00000000000E+00 0.  1.
         21   -1    0    0  502  503 -0.00000000000E+00 -0.00000000000E+00 -0.40587374852E+03  0.40587374852E+03  0.00000000000E+00 0. -1.
          6    1    1    2  501    0  0.13506755182E+03  0.15649722179E+03 -0.15988026186E+03  0.31285830997E+03  0.17200000000E+03 0. -1.
         -6    1    1    2    0  503 -0.13506755182E+03 -0.15649722179E+03 -0.62842633662E+02  0.27616629155E+03  0.17200000000E+03 0. -1.
</event>
<event>
 4    1  0.1249554E+000  0.1840003E+03  0.7818608E-02  0.1163987E+00
         21   -1    0    0  503  502  0.00000000000E+00  0.00000000000E+00  0.46122629361E+02  0.46122629361E+02  0.00000000000E+00 0.  1.
         21   -1    0    0  501  503 -0.00000000000E+00 -0.00000000000E+00 -0.97808385750E+03  0.97808385750E+03  0.00000000000E+00 0. -1.
          6    1    1    2  501    0 -0.65329771223E+02 -0.20286701750E+01 -0.72177958793E+03  0.74486365737E+03  0.17200000000E+03 0. -1.
         -6    1    1    2    0  502  0.65329771223E+02  0.20286701750E+01 -0.21018164021E+03  0.27934282950E+03  0.17200000000E+03 0.  1.
</event>
<event>
 4    1  0.1249554E+000  0.3044608E+03  0.7818608E-02  0.1083032E+00
         21   -1    0    0  501  502  0.00000000000E+00  0.00000000000E+00  0.11523040413E+03  0.11523040413E+03  0.00000000000E+00 0.  1.
         21   -1    0    0  502  503 -0.00000000000E+00 -0.00000000000E+00 -0.10112318296E+04  0.10112318296E+04  0.00000000000E+00 0. -1.
          6    1    1    2  501    0 -0.86779284032E+02  0.23575775344E+03 -0.19330351292E+03  0.36064194231E+03  0.17200000000E+03 0. -1.
         -6    1    1    2    0  503  0.86779284032E+02 -0.23575775344E+03 -0.70269791257E+03  0.76582029144E+03  0.17200000000E+03 0. -1.
</event>
<event>
 4    1  0.1249554E+000  0.1993716E+03  0.7818608E-02  0.1150270E+00
         21   -1    0    0  501  502  0.00000000000E+00  0.00000000000E+00  0.27563088695E+02  0.27563088695E+02  0.00000000000E+00 0. -1.
         21   -1    0    0  502  503 -0.00000000000E+00 -0.00000000000E+00 -0.16666273255E+04  0.16666273255E+04  0.00000000000E+00 0. -1.
          6    1    1    2  501    0 -0.45036412721E+02  0.90204040453E+02 -0.50862086063E+03  0.54630049172E+03  0.17200000000E+03 0.  1.
         -6    1    1    2    0  503  0.45036412721E+02 -0.90204040453E+02 -0.11304433762E+04  0.11478899225E+04  0.17200000000E+03 0.  1.
</event>
<event>
 4    1  0.1249554E+000  0.2078746E+03  0.7818608E-02  0.1143260E+00
         21   -1    0    0  503  502  0.00000000000E+00  0.00000000000E+00  0.61111952927E+03  0.61111952927E+03  0.00000000000E+00 0. -1.
         21   -1    0    0  501  503 -0.00000000000E+00 -0.00000000000E+00 -0.18483222818E+03  0.18483222818E+03  0.00000000000E+00 0.  1.
          6    1    1    2  501    0 -0.64849130516E+02  0.97069342496E+02 -0.99575337241E+02  0.23049319896E+03  0.17200000000E+03 0.  1.
         -6    1    1    2    0  502  0.64849130516E+02 -0.97069342496E+02  0.52586263833E+03  0.56545855849E+03  0.17200000000E+03 0. -1.
</event>
<event>
 4    1  0.1249554E+000  0.1943386E+03  0.7818608E-02  0.1154605E+00
         21   -1    0    0  501  502  0.00000000000E+00  0.00000000000E+00  0.56479944556E+02  0.56479944556E+02  0.00000000000E+00 0.  1.
         21   -1    0    0  502  503 -0.00000000000E+00 -0.00000000000E+00 -0.67289507235E+03  0.67289507235E+03  0.00000000000E+00 0.  1.
          6    1    1    2  501    0  0.24685744638E+02  0.87029230154E+02 -0.27937213008E+03  0.34031788075E+03  0.17200000000E+03 0.  1.
         -6    1    1    2    0  503 -0.24685744638E+02 -0.87029230154E+02 -0.33704299771E+03  0.38905713615E+03  0.17200000000E+03 0.  1.
</event>
<event>
 4    1  0.1249554E+000  0.1729194E+03  0.7818608E-02  0.1174837E+00
         21   -1    0    0  503  502  0.00000000000E+00  0.00000000000E+00  0.53204466995E+03  0.53204466995E+03  0.00000000000E+00 0.  1.
         21   -1    0    0  501  503 -0.00000000000E+00 -0.00000000000E+00 -0.61662638107E+02  0.61662638107E+02  0.00000000000E+00 0.  1.
          6    1    1    2  501    0 -0.15203450937E+02 -0.92720981838E+01  0.32354317184E+03  0.36685324146E+03  0.17200000000E+03 0. -1.
         -6    1    1    2    0  502  0.15203450937E+02  0.92720981838E+01  0.14683886001E+03  0.22685406660E+03  0.17200000000E+03 0. -1.
</event>
<event>
 4    1  0.1249554E+000  0.3071058E+03  0.7818608E-02  0.1081741E+00
         21   -1    0    0  501  502  0.00000000000E+00  0.00000000000E+00  0.15339800498E+04  0.15339800498E+04  0.00000000000E+00 0.  1.
         21   -1    0    0  502  503 -0.00000000000E+00 -0.00000000000E+00 -0.75729016084E+02  0.75729016084E+02  0.00000000000E+00 0. -1.
          6    1    1    2  501    0 -0.22930214459E+03 -0.11022916321E+03  0.10782099661E+04  0.11210935166E+04  0.17200000000E+03 0.  1.
         -6    1    1    2    0  503  0.22930214459E+03  0.11022916321E+03  0.38004106760E+03  0.48861554928E+03  0.17200000000E+03 0. -1.
</event>
<event>
 4    1  0.1249554E+000  0.1724166E+03  0.7818608E-02  0.1175351E+00
         21   -1    0    0  501  502  0.00000000000E+00  0.00000000000E+00  0.12878611374E+02  0.12878611374E+02  0.00000000000E+00 0.  1.
         21   -1    0    0  502  503 -0.00000000000E+00 -0.00000000000E+00 -0.23156607474E+04  0.23156607474E+04  0.00000000000E+00 0.  1.
          6    1    1    2  501    0 -0.10083495889E+02  0.64655982711E+01 -0.12171077119E+04  0.12292593963E+04  0.17200000000E+03 0. -1.
         -6    1    1    2    0  503  0.10083495889E+02 -0.64655982711E+01 -0.10856744241E+04  0.10992799625E+04  0.17200000000E+03 0. -1.
</event>
<event>
 4    1  0.1249554E+000  0.2025261E+03  0.7818608E-02  0.1147625E+00
         21   -1    0    0  503  502  0.00000000000E+00  0.00000000000E+00  0.16155125676E+03  0.16155125676E+03  0.00000000000E+00 0. -1.
         21   -1    0    0  501  503 -0.00000000000E+00 -0.00000000000E+00 -0.27474489123E+03  0.27474489123E+03  0.00000000000E+00 0.  1.
          6    1    1    2  501    0 -0.50497636372E+02 -0.94248645924E+02 -0.11669395614E+03  0.23373980820E+03  0.17200000000E+03 0.  1.
         -6    1    1    2    0  502  0.50497636372E+02  0.94248645924E+02  0.35003216754E+01  0.20255633979E+03  0.17200000000E+03 0. -1.
</event>
<event>
 4    1  0.1249554E+000  0.1939325E+03  0.7818608E-02  0.1154961E+00
         21   -1    0    0  501  502  0.00000000000E+00  0.00000000000E+00  0.27750479914E+03  0.27750479914E+03  0.00000000000E+00 0. -1.
         21   -1    0    0  502  503 -0.00000000000E+00 -0.00000000000E+00 -0.15852631499E+03  0.15852631499E+03  0.00000000000E+00 0. -1.
          6    1    1    2  501    0 -0.44138049424E+02  0.77959381871E+02  0.14252770326E+03  0.24067400945E+03  0.17200000000E+03 0. -1.
         -6    1    1    2    0  503  0.44138049424E+02 -0.77959381871E+02 -0.23549219112E+02  0.19535710468E+03  0.17200000000E+03 0. -1.
</event>
<event>
 4    1  0.1249554E+000  0.2023118E+03  0.7818608E-02  0.1147803E+00
         21   -1    0    0  501  502  0.00000000000E+00  0.00000000000E+00  0.31326205933E+03  0.31326205933E+03  0.00000000000E+00 0.  1.
         21   -1    0    0  502  503 -0.00000000000E+00 -0.00000000000E+00 -0.34299565666E+03  0.34299565666E+03  0.00000000000E+00 0.  1.
          6    1    1    2  501    0  0.93104495095E+02 -0.51745861367E+02  0.24330808834E+03  0.31643152028E+03  0.17200000000E+03 0.  1.
         -6    1    1    2    0  503 -0.93104495095E+02  0.51745861367E+02 -0.27304168567E+03  0.33982619571E+03  0.17200000000E+03 0.  1.
</event>
<event>
 4    1  0.1249554E+000  0.2010528E+03  0.7818608E-02  0.1148854E+00
         21   -1    0    0  503  502  0.00000000000E+00  0.00000000000E+00  0.10351028069E+03  0.10351028069E+03  0.00000000000E+00 0. -1.
         21   -1    0    0  501  503 -0.00000000000E+00 -0.00000000000E+00 -0.46744598559E+03  0.46744598559E+03  0.00000000000E+00 0. -1.
          6    1    1    2  501    0 -0.20969938816E+01 -0.10408569818E+03 -0.29778161203E+03  0.35929948290E+03  0.17200000000E+03 0. -1.
         -6    1    1    2    0  502  0.20969938816E+01  0.10408569818E+03 -0.66154092868E+02  0.21165678338E+03  0.17200000000E+03 0. -1.
</event>
<event>
 4    1  0.1249554E+000  0.1769882E+03  0.7818608E-02  0.1170750E+00
         21   -1    0    0  503  502  0.00000000000E+00  0.00000000000E+00  0.21623505673E+03  0.21623505673E+03  0.00000000000E+00 0. -1.
         21   -1    0    0  501  503 -0.00000000000E+00 -0.00000000000E+00 -0.15872153988E+03  0.15872153988E+03  0.00000000000E+00 0. -1.
          6    1    1    2  501    0 -0.36933198675E+02  0.19409949170E+02 -0.26637731675E+02  0.17898149636E+03  0.17200000000E+03 0. -1.
         -6    1    1    2    0  502  0.36933198675E+02 -0.19409949170E+02  0.84151248522E+02  0.19597510025E+03  0.17200000000E+03 0. -1.
</event>
<event>
 4    1  0.1249554E+000  0.1731321E+03  0.7818608E-02  0.1174620E+00
         21   -1    0    0  501  502  0.00000000000E+00  0.00000000000E+00  0.63510546742E+03  0.63510546742E+03  0.00000000000E+00 0.  1.
         21   -1    0    0  502  503 -0.00000000000E+00 -0.00000000000E+00 -0.78821546798E+02  0.78821546798E+02  0.00000000000E+00 0.  1.
          6    1    1    2  501    0  0.13125418692E+02 -0.14780439551E+02  0.50425057928E+03  0.53314480652E+03  0.17200000000E+03 0.  1.
         -6    1    1    2    0  503 -0.13125418692E+02  0.14780439551E+02  0.52033341335E+02  0.18078220770E+03  0.17200000000E+03 0.  1.
</event>
<event>
 4    1  0.1249554E+000  0.1798888E+03  0.7818608E-02  0.1167911E+00
         21   -1    0    0  501  502  0.00000000000E+00  0.00000000000E+00  0.26199647721E+03  0.26199647721E+03  0.00000000000E+00 0.  1.
         21   -1    0    0  502  503 -0.00000000000E+00 -0.00000000000E+00 -0.14971292017E+03  0.14971292017E+03  0.00000000000E+00 0.  1.
          6    1    1    2  501    0  0.12709012979E+01  0.52672412193E+02  0.14225706760E+03  0.22934051426E+03  0.17200000000E+03 0.  1.
         -6    1    1    2    0  503 -0.12709012979E+01 -0.52672412193E+02 -0.29973510572E+02  0.18236888313E+03  0.17200000000E+03 0.  1.
</event>
<event>
 4    1  0.1249554E+000  0.1817200E+03  0.7818608E-02  0.1166149E+00
         21   -1    0    0  501  502  0.00000000000E+00  0.00000000000E+00  0.23514129442E+03  0.23514129442E+03  0.00000000000E+00 0. -1.
         21   -1    0    0  502  503 -0.00000000000E+00 -0.00000000000E+00 -0.14084652899E+03  0.14084652899E+03  0.00000000000E+00 0. -1.
          6    1    1    2  501    0 -0.82969390696E+01  0.58045893364E+02  0.36990683654E+02  0.18544669210E+03  0.17200000000E+03 0. -1.
         -6    1    1    2    0  503  0.82969390696E+01 -0.58045893364E+02  0.57304081776E+02  0.19054113131E+03  0.17200000000E+03 0. -1.
</event>
<event>
 4    1  0.1249554E+000  0.1976077E+03  0.7818608E-02  0.1151773E+00
         21   -1    0    0  501  502  0.00000000000E+00  0.00000000000E+00  0.42455822028E+02  0.42455822028E+02  0.00000000000E+00 0. -1.
         21   -1    0    0  502  503 -0.00000000000E+00 -0.00000000000E+00 -0.92079380988E+03  0.92079380988E+03  0.00000000000E+00 0. -1.
          6    1    1    2  501    0 -0.20978783685E+02 -0.94998398234E+02 -0.42296467401E+03  0.46684892684E+03  0.17200000000E+03 0. -1.
         -6    1    1    2    0  503  0.20978783685E+02  0.94998398234E+02 -0.45537331384E+03  0.49640070506E+03  0.17200000000E+03 0. -1.
</event>
<event>
 4    1  0.1249554E+000  0.2193426E+03  0.7818608E-02  0.1134374E+00
         21   -1    0    0  501  502  0.00000000000E+00  0.00000000000E+00  0.30639997811E+03  0.30639997811E+03  0.00000000000E+00 0.  1.
         21   -1    0    0  502  503 -0.00000000000E+00 -0.00000000000E+00 -0.15769611366E+03  0.15769611366E+03  0.00000000000E+00 0.  1.
          6    1    1    2  501    0 -0.13609286326E+03 -0.24334235987E+01  0.89536412614E+02  0.23691339803E+03  0.17200000000E+03 0.  1.
         -6    1    1    2    0  503  0.13609286326E+03  0.24334235987E+01  0.59167451832E+02  0.22718269374E+03  0.17200000000E+03 0.  1.
</event>
<event>
 4    1  0.1249554E+000  0.1863509E+03  0.7818608E-02  0.1161794E+00
         21   -1    0    0  501  502  0.00000000000E+00  0.00000000000E+00  0.19899256722E+03  0.19899256722E+03  0.00000000000E+00 0.  1.
         21   -1    0    0  502  503 -0.00000000000E+00 -0.00000000000E+00 -0.17465175752E+03  0.17465175752E+03  0.00000000000E+00 0.  1.
          6    1    1    2  501    0 -0.71518674308E+02 -0.52670259353E+01  0.68923859933E+01  0.18647832936E+03  0.17200000000E+03 0.  1.
         -6    1    1    2    0  503  0.71518674308E+02  0.52670259353E+01  0.17448423701E+02  0.18716599538E+03  0.17200000000E+03 0.  1.
</event>
<event>
 4    1  0.1249554E+000  0.2158850E+03  0.7818608E-02  0.1136989E+00
         21   -1    0    0  503  502  0.00000000000E+00  0.00000000000E+00  0.52020650401E+02  0.52020650401E+02  0.00000000000E+00 0. -1.
         21   -1    0    0  501  503 -0.00000000000E+00 -0.00000000000E+00 -0.94297621671E+03  0.94297621671E+03  0.00000000000E+00 0. -1.
          6    1    1    2  501    0  0.12310551912E+03  0.43212948055E+02 -0.55661283064E+03  0.59701270586E+03  0.17200000000E+03 0.  1.
         -6    1    1    2    0  502 -0.12310551912E+03 -0.43212948055E+02 -0.33434273567E+03  0.39798416126E+03  0.17200000000E+03 0.  1.
</event>
<event>
 4    1  0.1249554E+000  0.2243422E+03  0.7818608E-02  0.1130687E+00
         21   -1    0    0  501  502  0.00000000000E+00  0.00000000000E+00  0.22655018200E+03  0.22655018200E+03  0.00000000000E+00 0. -1.
         21   -1    0    0  502  503 -0.00000000000E+00 -0.00000000000E+00 -0.22625174628E+03  0.22625174628E+03  0.00000000000E+00 0. -1.
          6    1    1    2  501    0 -0.45131311650E+02 -0.13677941459E+03  0.30611180309E+02  0.22642104122E+03  0.17200000000E+03 0. -1.
         -6    1    1    2    0  503  0.45131311650E+02  0.13677941459E+03 -0.30312744587E+02  0.22638088707E+03  0.17200000000E+03 0. -1.
</event>
<event>
 4    1  0.1249554E+000  0.2151499E+03  0.7818608E-02  0.1137552E+00
         21   -1    0    0  501  502  0.00000000000E+00  0.00000000000E+00  0.11365696626E+03  0.11365696626E+03  0.00000000000E+00 0. -1.
         21   -1    0    0  502  503 -0.00000000000E+00 -0.00000000000E+00 -0.40771186119E+03  0.40771186119E+03  0.00000000000E+00 0. -1.
          6    1    1    2  501    0 -0.12643146832E+03  0.26843216016E+02 -0.13847998695E+03  0.25586359884E+03  0.17200000000E+03 0. -1.
         -6    1    1    2    0  503  0.12643146832E+03 -0.26843216016E+02 -0.15557490798E+03  0.26550522861E+03  0.17200000000E+03 0. -1.
</event>
<event>
 4    1  0.1249554E+000  0.1827298E+03  0.7818608E-02  0.1165187E+00
         21   -1    0    0  501  502  0.00000000000E+00  0.00000000000E+00  0.56310621357E+02  0.56310621357E+02  0.00000000000E+00 0. -1.
         21   -1    0    0  502  503 -0.00000000000E+00 -0.00000000000E+00 -0.71431818938E+03  0.71431818938E+03  0.00000000000E+00 0. -1.
          6    1    1    2  501    0 -0.10887623181E+02 -0.60725929165E+02 -0.17018694829E+03  0.24970738111E+03  0.17200000000E+03 0. -1.
         -6    1    1    2    0  503  0.10887623181E+02  0.60725929165E+02 -0.48782061973E+03  0.52092142963E+03  0.17200000000E+03 0. -1.
</event>
<event>
 4    1  0.1249554E+000  0.1787404E+03  0.7818608E-02  0.1169028E+00
         21   -1    0    0  501  502  0.00000000000E+00  0.00000000000E+00  0.10188578554E+04  0.10188578554E+04  0.00000000000E+00 0. -1.
         21   -1    0    0  502  503 -0.00000000000E+00 -0.00000000000E+00 -0.41697253206E+02  0.41697253206E+02  0.00000000000E+00 0. -1.
          6    1    1    2  501    0 -0.40630771123E+02 -0.26706839404E+02  0.75265053837E+03  0.77358318735E+03  0.17200000000E+03 0. -1.
         -6    1    1    2    0  503  0.40630771123E+02  0.26706839404E+02  0.22451006381E+03  0.28697192125E+03  0.17200000000E+03 0. -1.
</event>
<event>
 4    1  0.1249554E+000  0.1723064E+03  0.7818608E-02  0.1175464E+00
         21   -1    0    0  501  502  0.00000000000E+00  0.00000000000E+00  0.16594565708E+03  0.16594565708E+03  0.00000000000E+00 0.  1.
         21   -1    0    0  502  503 -0.00000000000E+00 -0.00000000000E+00 -0.27540195292E+03  0.27540195292E+03  0.00000000000E+00 0.  1.
          6    1    1    2  501    0 -0.86055209784E+00  0.10235648280E+02  0.75892098132E+02  0.18827936585E+03  0.17200000000E+03 0.  1.
         -6    1    1    2    0  503  0.86055209784E+00 -0.10235648280E+02 -0.18534839398E+03  0.25306824415E+03  0.17200000000E+03 0.  1.
</event>
<event>
 4    1  0.1249554E+000  0.1721497E+03  0.7818608E-02  0.1175624E+00
         21   -1    0    0  503  502  0.00000000000E+00  0.00000000000E+00  0.84602933975E+03  0.84602933975E+03  0.00000000000E+00 0.  1.
         21   -1    0    0  501  503 -0.00000000000E+00 -0.00000000000E+00 -0.35039595575E+02  0.35039595575E+02  0.00000000000E+00 0.  1.
          6    1    1    2  501    0 -0.11755613125E+01 -0.70807807083E+01  0.41317354018E+03  0.44760238349E+03  0.17200000000E+03 0. -1.
         -6    1    1    2    0  502  0.11755613125E+01  0.70807807083E+01  0.39781620399E+03  0.43346655183E+03  0.17200000000E+03 0. -1.
</event>
<event>
 4    1  0.1249554E+000  0.2134332E+03  0.7818608E-02  0.1138876E+00
         21   -1    0    0  501  502  0.00000000000E+00  0.00000000000E+00  0.12248757808E+03  0.12248757808E+03  0.00000000000E+00 0.  1.
         21   -1    0    0  502  503 -0.00000000000E+00 -0.00000000000E+00 -0.41484410962E+03  0.41484410962E+03  0.00000000000E+00 0.  1.
          6    1    1    2  501    0 -0.46042176794E+02 -0.11768544150E+03 -0.23261461368E+03  0.31569495353E+03  0.17200000000E+03 0.  1.
         -6    1    1    2    0  503  0.46042176794E+02  0.11768544150E+03 -0.59741917863E+02  0.22163673418E+03  0.17200000000E+03 0.  1.
</event>
<event>
 4    1  0.1249554E+000  0.2233799E+03  0.7818608E-02  0.1131388E+00
         21   -1    0    0  501  502  0.00000000000E+00  0.00000000000E+00  0.72023826187E+03  0.72023826187E+03  0.00000000000E+00 0.  1.
         21   -1    0    0  502  503 -0.00000000000E+00 -0.00000000000E+00 -0.91528908443E+02  0.91528908443E+02  0.00000000000E+00 0.  1.
          6    1    1    2  501    0  0.10300402632E+03 -0.98512798910E+02  0.11424411839E+03  0.25089902267E+03  0.17200000000E+03 0.  1.
         -6    1    1    2    0  503 -0.10300402632E+03  0.98512798910E+02  0.51446523503E+03  0.56086814764E+03  0.17200000000E+03 0.  1.
</event>
<event>
 4    1  0.1249554E+000  0.1948905E+03  0.7818608E-02  0.1154123E+00
         21   -1    0    0  503  502  0.00000000000E+00  0.00000000000E+00  0.32084627019E+03  0.32084627019E+03  0.00000000000E+00 0. -1.
         21   -1    0    0  501  503 -0.00000000000E+00 -0.00000000000E+00 -0.13130499792E+03  0.13130499792E+03  0.00000000000E+00 0. -1.
          6    1    1    2  501    0  0.58407450508E+02  0.70617853565E+02  0.23845428973E+02  0.19634387182E+03  0.17200000000E+03 0. -1.
         -6    1    1    2    0  502 -0.58407450508E+02 -0.70617853565E+02  0.16569584330E+03  0.25580739630E+03  0.17200000000E+03 0. -1.
</event>
<event>
 4    1  0.1249554E+000  0.2090699E+03  0.7818608E-02  0.1142305E+00
         21   -1    0    0  503  502  0.00000000000E+00  0.00000000000E+00  0.14703490959E+03  0.14703490959E+03  0.00000000000E+00 0. -1.
         21   -1    0    0  501  503 -0.00000000000E+00 -0.00000000000E+00 -0.29761960842E+03  0.29761960842E+03  0.00000000000E+00 0. -1.
          6    1    1    2  501    0  0.76693693024E+02 -0.90798117998E+02 -0.67758343744E+02  0.21977582653E+03  0.17200000000E+03 0. -1.
         -6    1    1    2    0  502 -0.76693693024E+02  0.90798117998E+02 -0.82826355085E+02  0.22487869147E+03  0.17200000000E+03 0. -1.
</event>
<event>
 4    1  0.1249554E+000  0.3162390E+03  0.7818608E-02  0.1077393E+00
         21   -1    0    0  503  502  0.00000000000E+00  0.00000000000E+00  0.84905396790E+02  0.84905396790E+02  0.00000000000E+00 0.  1.
         21   -1    0    0  501  503 -0.00000000000E+00 -0.00000000000E+00 -0.11808023244E+04  0.11808023244E+04  0.00000000000E+00 0.  1.
          6    1    1    2  501    0 -0.22849035124E+03  0.13496395942E+03 -0.51638555165E+03  0.60552551466E+03  0.17200000000E+03 0.  1.
         -6    1    1    2    0  502  0.22849035124E+03 -0.13496395942E+03 -0.57951137597E+03  0.66018220654E+03  0.17200000000E+03 0.  1.
</event>
<event>
 4    1  0.1249554E+000  0.2466915E+03  0.7818608E-02  0.1115414E+00
         21   -1    0    0  501  502  0.00000000000E+00  0.00000000000E+00  0.21447367603E+04  0.21447367603E+04  0.00000000000E+00 0.  1.
         21   -1    0    0  502  503 -0.00000000000E+00 -0.00000000000E+00 -0.91058935788E+02  0.91058935788E+02  0.00000000000E+00 0.  1.
          6    1    1    2  501    0 -0.16616122819E+03  0.60523983667E+02  0.19543503742E+04  0.19698583938E+04  0.17200000000E+03 0.  1.
         -6    1    1    2    0  503  0.16616122819E+03 -0.60523983667E+02  0.99327450228E+02  0.26593730224E+03  0.17200000000E+03 0.  1.
</event>
<event>
 4    1  0.1249554E+000  0.1930596E+03  0.7818608E-02  0.1155730E+00
         21   -1    0    0  503  502  0.00000000000E+00  0.00000000000E+00  0.60339488886E+03  0.60339488886E+03  0.00000000000E+00 0. -1.
         21   -1    0    0  501  503 -0.00000000000E+00 -0.00000000000E+00 -0.20984499126E+03  0.20984499126E+03  0.00000000000E+00 0. -1.
          6    1    1    2  501    0  0.85155668821E+02 -0.20893324061E+02 -0.14479484417E+03  0.24132460674E+03  0.17200000000E+03 0. -1.
         -6    1    1    2    0  502 -0.85155668821E+02  0.20893324061E+02  0.53834474177E+03  0.57191527337E+03  0.17200000000E+03 0. -1.
</event>
<event>
 4    1  0.1249554E+000  0.2457949E+03  0.7818608E-02  0.1115992E+00
         21   -1    0    0  501  502  0.00000000000E+00  0.00000000000E+00  0.47133849268E+02  0.47133849268E+02  0.00000000000E+00 0.  1.
         21   -1    0    0  502  503 -0.00000000000E+00 -0.00000000000E+00 -0.13628726901E+04  0.13628726901E+04  0.00000000000E+00 0.  1.
          6    1    1    2  501    0  0.17541503583E+03 -0.77894237464E+01 -0.82984266943E+03  0.86547903841E+03  0.17200000000E+03 0.  1.
         -6    1    1    2    0  503 -0.17541503583E+03  0.77894237464E+01 -0.48589617140E+03  0.54452750096E+03  0.17200000000E+03 0.  1.
</event>
<event>
 4    1  0.1249554E+000  0.1881966E+03  0.7818608E-02  0.1160098E+00
         21   -1    0    0  501  502  0.00000000000E+00  0.00000000000E+00  0.28333265726E+03  0.28333265726E+03  0.00000000000E+00 0. -1.
         21   -1    0    0  502  503 -0.00000000000E+00 -0.00000000000E+00 -0.12545101523E+03  0.12545101523E+03  0.00000000000E+00 0. -1.
          6    1    1    2  501    0  0.72594760341E+02 -0.23747965988E+02  0.66752069979E+02  0.19968426068E+03  0.17200000000E+03 0. -1.
         -6    1    1    2    0  503 -0.72594760341E+02  0.23747965988E+02  0.91129572045E+02  0.20909941181E+03  0.17200000000E+03 0. -1.
</event>
<event>
 4    1  0.1249554E+000  0.2025396E+03  0.7818608E-02  0.1147614E+00
         21   -1    0    0  503  502  0.00000000000E+00  0.00000000000E+00  0.11050059685E+03  0.11050059685E+03  0.00000000000E+00 0.  1.
         21   -1    0    0  501  503 -0.00000000000E+00 -0.00000000000E+00 -0.67308554257E+03  0.67308554257E+03  0.00000000000E+00 0.  1.
          6    1    1    2  501    0 -0.45477521950E+02  0.96799132227E+02 -0.18922716917E+02  0.20342159723E+03  0.17200000000E+03 0.  1.
         -6    1    1    2    0  502  0.45477521950E+02 -0.96799132227E+02 -0.54366222880E+03  0.58016454220E+03  0.17200000000E+03 0.  1.
</event>
<event>
 4    1  0.1249554E+000  0.1939177E+03  0.7818608E-02  0.1154975E+00
         21   -1    0    0  503  502  0.00000000000E+00  0.00000000000E+00  0.92056817602E+03  0.92056817602E+03  0.00000000000E+00 0.  1.
         21   -1    0    0  501  503 -0.00000000000E+00 -0.00000000000E+00 -0.44710029033E+02  0.44710029033E+02  0.00000000000E+00 0.  1.
          6    1    1    2  501    0 -0.89061351963E+02  0.93880677688E+01  0.29609337096E+03  0.35394257240E+03  0.17200000000E+03 0. -1.
         -6    1    1    2    0  502  0.89061351963E+02 -0.93880677688E+01  0.57976477602E+03  0.61133563265E+03  0.17200000000E+03 0. -1.
</event>
<event>
 4    1  0.1249554E+000  0.1761400E+03  0.7818608E-02  0.1171592E+00
         21   -1    0    0  501  502  0.00000000000E+00  0.00000000000E+00  0.33071589521E+03  0.33071589521E+03  0.00000000000E+00 0.  1.
         21   -1    0    0  502  503 -0.00000000000E+00 -0.00000000000E+00 -0.13303260077E+03  0.13303260077E+03  0.00000000000E+00 0.  1.
          6    1    1    2  501    0  0.20883941183E+02  0.31704092038E+02  0.22474223891E+03  0.28554222525E+03  0.17200000000E+03 0.  1.
         -6    1    1    2    0  503 -0.20883941183E+02 -0.31704092038E+02 -0.27058944461E+02  0.17820627073E+03  0.17200000000E+03 0.  1.
</event>
<event>
 4    1  0.1249554E+000  0.2244674E+03  0.7818608E-02  0.1130596E+00
         21   -1    0    0  501  502  0.00000000000E+00  0.00000000000E+00  0.68773694467E+03  0.68773694467E+03  0.00000000000E+00 0. -1.
         21   -1    0    0  502  503 -0.00000000000E+00 -0.00000000000E+00 -0.79161707851E+02  0.79161707851E+02  0.00000000000E+00 0.  1.
          6    1    1    2  501    0  0.93058204806E+02  0.11018982929E+03  0.40895977939E+03  0.46651230329E+03  0.17200000000E+03 0.  1.
         -6    1    1    2    0  503 -0.93058204806E+02 -0.11018982929E+03  0.19961545742E+03  0.30038634923E+03  0.17200000000E+03 0.  1.
</event>
<event>
 4    1  0.1249554E+000  0.2058574E+03  0.7818608E-02  0.1144889E+00
         21   -1    0    0  503  502  0.00000000000E+00  0.00000000000E+00  0.20562405472E+03  0.20562405472E+03  0.00000000000E+00 0.  1.
         21   -1    0    0  501  503 -0.00000000000E+00 -0.00000000000E+00 -0.21700353024E+03  0.21700353024E+03  0.00000000000E+00 0. -1.
          6    1    1    2  501    0 -0.11309255425E+03 -0.18302011576E+01 -0.53076426466E+02  0.21258970462E+03  0.17200000000E+03 0. -1.
         -6    1    1    2    0  502  0.11309255425E+03  0.18302011576E+01  0.41696950944E+02  0.21003788035E+03  0.17200000000E+03 0.  1.
</event>
<event>
 4    1  0.1249554E+000  0.1774794E+03  0.7818608E-02  0.1170265E+00
         21   -1    0    0  501  502  0.00000000000E+00  0.00000000000E+00  0.89448035735E+02  0.89448035735E+02  0.00000000000E+00 0. -1.
         21   -1    0    0  502  503 -0.00000000000E+00 -0.00000000000E+00 -0.58077757452E+03  0.58077757452E+03  0.00000000000E+00 0. -1.
          6    1    1    2  501    0  0.36538670952E+02 -0.24080323338E+02 -0.35406822789E+02  0.18097673759E+03  0.17200000000E+03 0. -1.
         -6    1    1    2    0  503 -0.36538670952E+02  0.24080323338E+02 -0.45592271600E+03  0.48924887267E+03  0.17200000000E+03 0. -1.
</event>
<event>
 4    1  0.1249554E+000  0.1726270E+03  0.7818608E-02  0.1175136E+00
         21   -1    0    0  501  502  0.00000000000E+00  0.00000000000E+00  0.47376299160E+02  0.47376299160E+02  0.00000000000E+00 0.  1.
         21   -1    0    0  502  503 -0.00000000000E+00 -0.00000000000E+00 -0.62930014861E+03  0.62930014861E+03  0.00000000000E+00 0.  1.
          6    1    1    2  501    0  0.52484680103E+01  0.13730392412E+02 -0.29825215350E+03  0.34460762783E+03  0.17200000000E+03 0.  1.
         -6    1    1    2    0  503 -0.52484680103E+01 -0.13730392412E+02 -0.28367169596E+03  0.33206881995E+03  0.17200000000E+03 0.  1.
</event>
<event>
 4    1  0.1249554E+000  0.3297196E+03  0.7818608E-02  0.1071261E+00
         21   -1    0    0  503  502  0.00000000000E+00  0.00000000000E+00  0.79817400647E+03  0.79817400647E+03  0.00000000000E+00 0. -1.
         21   -1    0    0  501  503 -0.00000000000E+00 -0.00000000000E+00 -0.14092921075E+03  0.14092921075E+03  0.00000000000E+00 0.  1.
          6    1    1    2  501    0 -0.26772643634E+03 -0.86334067589E+02  0.24264916300E+03  0.40938201261E+03  0.17200000000E+03 0.  1.
         -6    1    1    2    0  502  0.26772643634E+03  0.86334067589E+02  0.41459563271E+03  0.52972120461E+03  0.17200000000E+03 0. -1.
</event>
<event>
 4    1  0.1249554E+000  0.1967822E+03  0.7818608E-02  0.1152483E+00
         21   -1    0    0  501  502  0.00000000000E+00  0.00000000000E+00  0.18553097873E+04  0.18553097873E+04  0.00000000000E+00 0. -1.
         21   -1    0    0  502  503 -0.00000000000E+00 -0.00000000000E+00 -0.41577341027E+02  0.41577341027E+02  0.00000000000E+00 0. -1.
          6    1    1    2  501    0  0.56266181126E+02 -0.77287406323E+02  0.15761785933E+04  0.15884149912E+04  0.17200000000E+03 0. -1.
         -6    1    1    2    0  503 -0.56266181126E+02  0.77287406323E+02  0.23755385295E+03  0.30847213710E+03  0.17200000000E+03 0. -1.
</event>
<event>
 4    1  0.1249554E+000  0.2135450E+03  0.7818608E-02  0.1138789E+00
         21   -1    0    0  501  502  0.00000000000E+00  0.00000000000E+00  0.10884158836E+03  0.10884158836E+03  0.00000000000E+00 0.  1.
         21   -1    0    0  502  503 -0.00000000000E+00 -0.00000000000E+00 -0.45776648219E+03  0.45776648219E+03  0.00000000000E+00 0. -1.
          6    1    1    2  501    0 -0.86111145732E+02 -0.92748788047E+02 -0.91987613726E+02  0.23251492034E+03  0.17200000000E+03 0. -1.
         -6    1    1    2    0  503  0.86111145732E+02  0.92748788047E+02 -0.25693728010E+03  0.33409315020E+03  0.17200000000E+03 0. -1.
</event>
<event>
 4    1  0.1249554E+000  0.2619990E+03  0.7818608E-02  0.1105948E+00
         21   -1    0    0  501  502  0.00000000000E+00  0.00000000000E+00  0.85032383160E+03  0.85032383160E+03  0.00000000000E+00 0.  1.
         21   -1    0    0  502  503 -0.00000000000E+00 -0.00000000000E+00 -0.83262482496E+02  0.83262482496E+02  0.00000000000E+00 0. -1.
          6    1    1    2  501    0 -0.13804528828E+03  0.14143189575E+03  0.46499950105E+03  0.53373028650E+03  0.17200000000E+03 0.  1.
         -6    1    1    2    0  503  0.13804528828E+03 -0.14143189575E+03  0.30206184805E+03  0.39985602759E+03  0.17200000000E+03 0.  1.
</event>
<event>
 4    1  0.1249554E+000  0.2047258E+03  0.7818608E-02  0.1145812E+00
         21   -1    0    0  503  502  0.00000000000E+00  0.00000000000E+00  0.33715913071E+03  0.33715913071E+03  0.00000000000E+00 0. -1.
         21   -1    0    0  501  503 -0.00000000000E+00 -0.00000000000E+00 -0.12674604057E+03  0.12674604057E+03  0.00000000000E+00 0.  1.
          6    1    1    2  501    0 -0.51930562479E+02 -0.98142126480E+02  0.73057640702E+02  0.21737083331E+03  0.17200000000E+03 0.  1.
         -6    1    1    2    0  502  0.51930562479E+02  0.98142126480E+02  0.13735544944E+03  0.24653433797E+03  0.17200000000E+03 0. -1.
</event>
<event>
 4    1  0.1249554E+000  0.1858014E+03  0.7818608E-02  0.1162304E+00
         21   -1    0    0  503  502  0.00000000000E+00  0.00000000000E+00  0.10020058643E+04  0.10020058643E+04  0.00000000000E+00 0.  1.
         21   -1    0    0  501  503 -0.00000000000E+00 -0.00000000000E+00 -0.34725468650E+02  0.34725468650E+02  0.00000000000E+00 0.  1.
          6    1    1    2  501    0 -0.64169569140E+02  0.28643320042E+02  0.52955137844E+03  0.56120124357E+03  0.17200000000E+03 0.  1.
         -6    1    1    2    0  502  0.64169569140E+02 -0.28643320042E+02  0.43772901718E+03  0.47553008934E+03  0.17200000000E+03 0.  1.
</event>
<event>
 4    1  0.1249554E+000  0.2128570E+03  0.7818608E-02  0.1139323E+00
         21   -1    0    0  503  502  0.00000000000E+00  0.00000000000E+00  0.12137171502E+03  0.12137171502E+03  0.00000000000E+00 0.  1.
         21   -1    0    0  501  503 -0.00000000000E+00 -0.00000000000E+00 -0.51932596885E+03  0.51932596885E+03  0.00000000000E+00 0.  1.
          6    1    1    2  501    0 -0.12362360016E+03 -0.21006896213E+02 -0.36884760336E+03  0.42585988154E+03  0.17200000000E+03 0.  1.
         -6    1    1    2    0  502  0.12362360016E+03  0.21006896213E+02 -0.29106650477E+02  0.21483780232E+03  0.17200000000E+03 0.  1.
</event>
<event>
 4    1  0.1249554E+000  0.1947659E+03  0.7818608E-02  0.1154232E+00
         21   -1    0    0  501  502  0.00000000000E+00  0.00000000000E+00  0.16253642061E+03  0.16253642061E+03  0.00000000000E+00 0.  1.
         21   -1    0    0  502  503 -0.00000000000E+00 -0.00000000000E+00 -0.24959614757E+03  0.24959614757E+03  0.00000000000E+00 0.  1.
          6    1    1    2  501    0 -0.73432223804E+01 -0.91081430558E+02  0.89846609781E+01  0.19497300849E+03  0.17200000000E+03 0.  1.
         -6    1    1    2    0  503  0.73432223804E+01  0.91081430558E+02 -0.96044387942E+02  0.21715955968E+03  0.17200000000E+03 0.  1.
</event>
<event>
 4    1  0.1249554E+000  0.1743098E+03  0.7818608E-02  0.1173426E+00
         21   -1    0    0  503  502  0.00000000000E+00  0.00000000000E+00  0.24103222336E+03  0.24103222336E+03  0.00000000000E+00 0. -1.
         21   -1    0    0  501  503 -0.00000000000E+00 -0.00000000000E+00 -0.12613927399E+03  0.12613927399E+03  0.00000000000E+00 0. -1.
          6    1    1    2  501    0 -0.24956758359E+02  0.13307037588E+02  0.52771831441E+02  0.18212298930E+03  0.17200000000E+03 0. -1.
         -6    1    1    2    0  502  0.24956758359E+02 -0.13307037588E+02  0.62121117929E+02  0.18504850805E+03  0.17200000000E+03 0. -1.
</event>
<event>
 4    1  0.1249554E+000  0.2116834E+03  0.7818608E-02  0.1140240E+00
         21   -1    0    0  501  502  0.00000000000E+00  0.00000000000E+00  0.19379335287E+03  0.19379335287E+03  0.00000000000E+00 0. -1.
         21   -1    0    0  502  503 -0.00000000000E+00 -0.00000000000E+00 -0.32605398878E+03  0.32605398878E+03  0.00000000000E+00 0. -1.
          6    1    1    2  501    0 -0.40352938236E+02 -0.11660836149E+03  0.74045020746E+02  0.22425997122E+03  0.17200000000E+03 0. -1.
         -6    1    1    2    0  503  0.40352938236E+02  0.11660836149E+03 -0.20630565665E+03  0.29558737043E+03  0.17200000000E+03 0. -1.
</event>
<event>
 4    1  0.1249554E+000  0.2007365E+03  0.7818608E-02  0.1149119E+00
         21   -1    0    0  503  502  0.00000000000E+00  0.00000000000E+00  0.54621982302E+03  0.54621982302E+03  0.00000000000E+00 0. -1.
         21   -1    0    0  501  503 -0.00000000000E+00 -0.00000000000E+00 -0.96055084874E+02  0.96055084874E+02  0.00000000000E+00 0. -1.
          6    1    1    2  501    0 -0.10328596168E+03  0.65680397936E+01  0.70404159340E+02  0.21272488026E+03  0.17200000000E+03 0. -1.
         -6    1    1    2    0  502  0.10328596168E+03 -0.65680397936E+01  0.37976057881E+03  0.42955002764E+03  0.17200000000E+03 0. -1.
</event>
<event>
 4    1  0.1249554E+000  0.1848085E+03  0.7818608E-02  0.1163229E+00
         21   -1    0    0  503  502  0.00000000000E+00  0.00000000000E+00  0.36144012943E+03  0.36144012943E+03  0.00000000000E+00 0.  1.
         21   -1    0    0  501  503 -0.00000000000E+00 -0.00000000000E+00 -0.11507113779E+03  0.11507113779E+03  0.00000000000E+00 0.  1.
          6    1    1    2  501    0  0.96666519069E+01  0.66908533097E+02  0.22434623332E+02  0.18616527142E+03  0.17200000000E+03 0.  1.
         -6    1    1    2    0  502 -0.96666519069E+01 -0.66908533097E+02  0.22393436831E+03  0.29034599579E+03  0.17200000000E+03 0.  1.
</event>
<event>
 4    1  0.1249554E+000  0.1936342E+03  0.7818608E-02  0.1155224E+00
         21   -1    0    0  503  502  0.00000000000E+00  0.00000000000E+00  0.13233980907E+04  0.13233980907E+04  0.00000000000E+00 0.  1.
         21   -1    0    0  501  503 -0.00000000000E+00 -0.00000000000E+00 -0.51060812968E+02  0.51060812968E+02  0.00000000000E+00 0.  1.
          6    1    1    2  501    0  0.25724627980E+02 -0.85137825716E+02  0.10946783177E+04  0.11116720853E+04  0.17200000000E+03 0.  1.
         -6    1    1    2    0  502 -0.25724627980E+02  0.85137825716E+02  0.17765895998E+03  0.26278681838E+03  0.17200000000E+03 0.  1.
</event>
<event>
 4    1  0.1249554E+000  0.1803835E+03  0.7818608E-02  0.1167432E+00
         21   -1    0    0  501  502  0.00000000000E+00  0.00000000000E+00  0.14923260358E+03  0.14923260358E+03  0.00000000000E+00 0.  1.
         21   -1    0    0  502  503 -0.00000000000E+00 -0.00000000000E+00 -0.49298370266E+03  0.49298370266E+03  0.00000000000E+00 0.  1.
          6    1    1    2  501    0 -0.45202035091E+02 -0.30182388493E+02  0.67930127915E+02  0.19275036402E+03  0.17200000000E+03 0.  1.
         -6    1    1    2    0  503  0.45202035091E+02  0.30182388493E+02 -0.41168122700E+03  0.44946594222E+03  0.17200000000E+03 0.  1.
</event>
<event>
 4    1  0.1249554E+000  0.2260053E+03  0.7818608E-02  0.1129483E+00
         21   -1    0    0  503  502  0.00000000000E+00  0.00000000000E+00  0.85801708129E+02  0.85801708129E+02  0.00000000000E+00 0. -1.
         21   -1    0    0  501  503 -0.00000000000E+00 -0.00000000000E+00 -0.89190616067E+03  0.89190616067E+03  0.00000000000E+00 0. -1.
          6    1    1    2  501    0  0.10228913632E+03  0.10503009343E+03 -0.68495816943E+03  0.72128086194E+03  0.17200000000E+03 0.  1.
         -6    1    1    2    0  502 -0.10228913632E+03 -0.10503009343E+03 -0.12114628311E+03  0.25642700686E+03  0.17200000000E+03 0.  1.
</event>
<event>
 4    1  0.1249554E+000  0.1976640E+03  0.7818608E-02  0.1151725E+00
         21   -1    0    0  503  502  0.00000000000E+00  0.00000000000E+00  0.10916741741E+03  0.10916741741E+03  0.00000000000E+00 0.  1.
         21   -1    0    0  501  503 -0.00000000000E+00 -0.00000000000E+00 -0.86997862986E+03  0.86997862986E+03  0.00000000000E+00 0.  1.
          6    1    1    2  501    0  0.51880857008E+02  0.82434341607E+02 -0.75601064936E+03  0.78142379407E+03  0.17200000000E+03 0.  1.
         -6    1    1    2    0  502 -0.51880857008E+02 -0.82434341607E+02 -0.48005630893E+01  0.19772225319E+03  0.17200000000E+03 0.  1.
</event>
<event>
 4    1  0.1249554E+000  0.2311626E+03  0.7818608E-02  0.1125824E+00
         21   -1    0    0  501  502  0.00000000000E+00  0.00000000000E+00  0.30937094238E+03  0.30937094238E+03  0.00000000000E+00 0.  1.
         21   -1    0    0  502  503 -0.00000000000E+00 -0.00000000000E+00 -0.20087032122E+03  0.20087032122E+03  0.00000000000E+00 0. -1.
          6    1    1    2  501    0  0.13695834042E+03  0.71376124843E+02  0.14974731472E+03  0.27542766106E+03  0.17200000000E+03 0.  1.
         -6    1    1    2    0  503 -0.13695834042E+03 -0.71376124843E+02 -0.41246693561E+02  0.23481360254E+03  0.17200000000E+03 0. -1.
</event>
<event>
 4    1  0.1249554E+000  0.1770038E+03  0.7818608E-02  0.1170735E+00
         21   -1    0    0  501  502  0.00000000000E+00  0.00000000000E+00  0.37079071857E+03  0.37079071857E+03  0.00000000000E+00 0. -1.
         21   -1    0    0  502  503 -0.00000000000E+00 -0.00000000000E+00 -0.20281375019E+03  0.20281375019E+03  0.00000000000E+00 0. -1.
          6    1    1    2  501    0 -0.41789381923E+02 -0.43331724570E-01  0.30304626134E+03  0.35095212042E+03  0.17200000000E+03 0. -1.
         -6    1    1    2    0  503  0.41789381923E+02  0.43331724570E-01 -0.13506929296E+03  0.22265234834E+03  0.17200000000E+03 0. -1.
</event>
<event>
 4    1  0.1249554E+000  0.1835983E+03  0.7818608E-02  0.1164365E+00
         21   -1    0    0  501  502  0.00000000000E+00  0.00000000000E+00  0.93255350071E+03  0.93255350071E+03  0.00000000000E+00 0.  1.
         21   -1    0    0  502  503 -0.00000000000E+00 -0.00000000000E+00 -0.40784967736E+02  0.40784967736E+02  0.00000000000E+00 0.  1.
          6    1    1    2  501    0 -0.36911293832E+02  0.52553844440E+02  0.61001158965E+03  0.63704198424E+03  0.17200000000E+03 0. -1.
         -6    1    1    2    0  503  0.36911293832E+02 -0.52553844440E+02  0.28175694333E+03  0.33629648421E+03  0.17200000000E+03 0. -1.
</event>
<event>
 4    1  0.1249554E+000  0.1958727E+03  0.7818608E-02  0.1153269E+00
         21   -1    0    0  503  502  0.00000000000E+00  0.00000000000E+00  0.39166861597E+03  0.39166861597E+03  0.00000000000E+00 0. -1.
         21   -1    0    0  501  503 -0.00000000000E+00 -0.00000000000E+00 -0.14487897824E+03  0.14487897824E+03  0.00000000000E+00 0. -1.
          6    1    1    2  501    0 -0.91458397092E+02  0.20432089523E+02 -0.29281087616E+02  0.19804921301E+03  0.17200000000E+03 0. -1.
         -6    1    1    2    0  502  0.91458397092E+02 -0.20432089523E+02  0.27607072535E+03  0.33849838120E+03  0.17200000000E+03 0. -1.
</event>
<event>
 4    1  0.1249554E+000  0.2293780E+03  0.7818608E-02  0.1127078E+00
         21   -1    0    0  503  502  0.00000000000E+00  0.00000000000E+00  0.21338651521E+03  0.21338651521E+03  0.00000000000E+00 0. -1.
         21   -1    0    0  501  503 -0.00000000000E+00 -0.00000000000E+00 -0.40562558943E+03  0.40562558943E+03  0.00000000000E+00 0.  1.
          6    1    1    2  501    0 -0.10516730155E+03  0.10940787473E+03 -0.28993299930E+03  0.36969634628E+03  0.17200000000E+03 0.  1.
         -6    1    1    2    0  502  0.10516730155E+03 -0.10940787473E+03  0.97693925081E+02  0.24931575836E+03  0.17200000000E+03 0. -1.
</event>
<event>
 4    1  0.1249554E+000  0.2804956E+03  0.7818608E-02  0.1095419E+00
         21   -1    0    0  503  502  0.00000000000E+00  0.00000000000E+00  0.64368294346E+03  0.64368294346E+03  0.00000000000E+00 0.  1.
         21   -1    0    0  501  503 -0.00000000000E+00 -0.00000000000E+00 -0.28501456857E+03  0.28501456857E+03  0.00000000000E+00 0. -1.
          6    1    1    2  501    0  0.18047628449E+03  0.12853823350E+03 -0.17159261799E+03  0.32881878487E+03  0.17200000000E+03 0. -1.
         -6    1    1    2    0  502 -0.18047628449E+03 -0.12853823350E+03  0.53026099288E+03  0.59987872716E+03  0.17200000000E+03 0.  1.
</event>
<event>
 4    1  0.1249554E+000  0.1785244E+03  0.7818608E-02  0.1169239E+00
         21   -1    0    0  503  502  0.00000000000E+00  0.00000000000E+00  0.48573314921E+03  0.48573314921E+03  0.00000000000E+00 0. -1.
         21   -1    0    0  501  503 -0.00000000000E+00 -0.00000000000E+00 -0.81505788039E+02  0.81505788039E+02  0.00000000000E+00 0. -1.
          6    1    1    2  501    0 -0.29200589354E+02  0.37871819298E+02  0.76878406928E+02  0.19437396577E+03  0.17200000000E+03 0.  1.
         -6    1    1    2    0  502  0.29200589354E+02 -0.37871819298E+02  0.32734895424E+03  0.37286497148E+03  0.17200000000E+03 0.  1.
</event>
<event>
 4    1  0.1249554E+000  0.1906855E+03  0.7818608E-02  0.1157845E+00
         21   -1    0    0  503  502  0.00000000000E+00  0.00000000000E+00  0.26014774468E+03  0.26014774468E+03  0.00000000000E+00 0.  1.
         21   -1    0    0  501  503 -0.00000000000E+00 -0.00000000000E+00 -0.14841266705E+03  0.14841266705E+03  0.00000000000E+00 0.  1.
          6    1    1    2  501    0  0.25731135737E+02  0.78197619693E+02  0.65723896163E+01  0.19079873002E+03  0.17200000000E+03 0.  1.
         -6    1    1    2    0  502 -0.25731135737E+02 -0.78197619693E+02  0.10516268801E+03  0.21776168171E+03  0.17200000000E+03 0.  1.
</event>
<event>
 4    1  0.1249554E+000  0.2706342E+03  0.7818608E-02  0.1100917E+00
         21   -1    0    0  501  502  0.00000000000E+00  0.00000000000E+00  0.10778169442E+03  0.10778169442E+03  0.00000000000E+00 0.  1.
         21   -1    0    0  502  503 -0.00000000000E+00 -0.00000000000E+00 -0.23512992966E+04  0.23512992966E+04  0.00000000000E+00 0. -1.
          6    1    1    2  501    0 -0.14015230912E+03 -0.15497154079E+03 -0.85007239161E+02  0.28367072270E+03  0.17200000000E+03 0.  1.
         -6    1    1    2    0  503  0.14015230912E+03  0.15497154079E+03 -0.21585103630E+04  0.21754102683E+04  0.17200000000E+03 0. -1.
</event>
<event>
 4    1  0.1249554E+000  0.1721464E+03  0.7818608E-02  0.1175628E+00
         21   -1    0    0  501  502  0.00000000000E+00  0.00000000000E+00  0.32533817671E+04  0.32533817671E+04  0.00000000000E+00 0.  1.
         21   -1    0    0  502  503 -0.00000000000E+00 -0.00000000000E+00 -0.24159987899E+02  0.24159987899E+02  0.00000000000E+00 0.  1.
          6    1    1    2  501    0  0.93632615709E+00 -0.70349856641E+01  0.29080781192E+04  0.29131688442E+04  0.17200000000E+03 0.  1.
         -6    1    1    2    0  503 -0.93632615709E+00  0.70349856641E+01  0.32114366001E+03  0.36437291075E+03  0.17200000000E+03 0.  1.
</event>
<event>
 4    1  0.1249554E+000  0.1788686E+03  0.7818608E-02  0.1168903E+00
         21   -1    0    0  501  502  0.00000000000E+00  0.00000000000E+00  0.89252833291E+02  0.89252833291E+02  0.00000000000E+00 0. -1.
         21   -1    0    0  502  503 -0.00000000000E+00 -0.00000000000E+00 -0.38689168081E+03  0.38689168081E+03  0.00000000000E+00 0. -1.
          6    1    1    2  501    0  0.38227503512E+02 -0.30800068294E+02 -0.21335211748E+03  0.27841176747E+03  0.17200000000E+03 0.  1.
         -6    1    1    2    0  503 -0.38227503512E+02  0.30800068294E+02 -0.84286730046E+02  0.19773274664E+03  0.17200000000E+03 0.  1.
</event>
<event>
 4    1  0.1249554E+000  0.2587389E+03  0.7818608E-02  0.1107903E+00
         21   -1    0    0  503  502  0.00000000000E+00  0.00000000000E+00  0.98042789789E+03  0.98042789789E+03  0.00000000000E+00 0. -1.
         21   -1    0    0  501  503 -0.00000000000E+00 -0.00000000000E+00 -0.12481287916E+03  0.12481287916E+03  0.00000000000E+00 0.  1.
          6    1    1    2  501    0  0.88604075828E+02 -0.17178811052E+03  0.55896481314E+02  0.26470786500E+03  0.17200000000E+03 0.  1.
         -6    1    1    2    0  502 -0.88604075828E+02  0.17178811052E+03  0.79971853742E+03  0.84053291206E+03  0.17200000000E+03 0. -1.
</event>
<event>
 4    1  0.1249554E+000  0.1859673E+03  0.7818608E-02  0.1162150E+00
         21   -1    0    0  503  502  0.00000000000E+00  0.00000000000E+00  0.40147044686E+02  0.40147044686E+02  0.00000000000E+00 0.  1.
         21   -1    0    0  501  503 -0.00000000000E+00 -0.00000000000E+00 -0.10292203137E+04  0.10292203137E+04  0.00000000000E+00 0.  1.
          6    1    1    2  501    0  0.70169124115E+02  0.87259214551E+01 -0.71042382461E+03  0.73436085017E+03  0.17200000000E+03 0.  1.
         -6    1    1    2    0  502 -0.70169124115E+02 -0.87259214551E+01 -0.27864944442E+03  0.33500650824E+03  0.17200000000E+03 0.  1.
</event>
<event>
 4    1  0.1249554E+000  0.1822405E+03  0.7818608E-02  0.1165652E+00
         21   -1    0    0  501  502  0.00000000000E+00  0.00000000000E+00  0.52379693472E+03  0.52379693472E+03  0.00000000000E+00 0.  1.
         21   -1    0    0  502  503 -0.00000000000E+00 -0.00000000000E+00 -0.87552494130E+02  0.87552494130E+02  0.00000000000E+00 0.  1.
          6    1    1    2  501    0 -0.21402588162E+02 -0.56298493919E+02  0.37865253447E+03  0.42022533605E+03  0.17200000000E+03 0.  1.
         -6    1    1    2    0  503  0.21402588162E+02  0.56298493919E+02  0.57591906116E+02  0.19112409280E+03  0.17200000000E+03 0.  1.
</event>
<event>
 4    1  0.1249554E+000  0.2919735E+03  0.7818608E-02  0.1089323E+00
         21   -1    0    0  503  502  0.00000000000E+00  0.00000000000E+00  0.25142025583E+04  0.25142025583E+04  0.00000000000E+00 0.  1.
         21   -1    0    0  501  503 -0.00000000000E+00 -0.00000000000E+00 -0.35495295776E+02  0.35495295776E+02  0.00000000000E+00 0.  1.
          6    1    1    2  501    0 -0.13232996859E+02 -0.23556192184E+03  0.96966160933E+03  0.10126658718E+04  0.17200000000E+03 0.  1.
         -6    1    1    2    0  502  0.13232996859E+02  0.23556192184E+03  0.15090456532E+04  0.15370319823E+04  0.17200000000E+03 0.  1.
</event>
<event>
 4    1  0.1249554E+000  0.1871370E+03  0.7818608E-02  0.1161069E+00
         21   -1    0    0  501  502  0.00000000000E+00  0.00000000000E+00  0.12454635663E+03  0.12454635663E+03  0.00000000000E+00 0. -1.
         21   -1    0    0  502  503 -0.00000000000E+00 -0.00000000000E+00 -0.28118830282E+03  0.28118830282E+03  0.00000000000E+00 0. -1.
          6    1    1    2  501    0 -0.72804341340E+02 -0.11651932358E+02 -0.77389073216E+02  0.20250755121E+03  0.17200000000E+03 0.  1.
         -6    1    1    2    0  503  0.72804341340E+02  0.11651932358E+02 -0.79252872972E+02  0.20322710823E+03  0.17200000000E+03 0.  1.
</event>
<event>
 4    1  0.1249554E+000  0.1783338E+03  0.7818608E-02  0.1169425E+00
         21   -1    0    0  501  502  0.00000000000E+00  0.00000000000E+00  0.19194797105E+03  0.19194797105E+03  0.00000000000E+00 0. -1.
         21   -1    0    0  502  503 -0.00000000000E+00 -0.00000000000E+00 -0.23940829807E+03  0.23940829807E+03  0.00000000000E+00 0. -1.
          6    1    1    2  501    0 -0.34940947948E+02 -0.31592550017E+02 -0.14341468396E+03  0.22884652201E+03  0.17200000000E+03 0. -1.
         -6    1    1    2    0  503  0.34940947948E+02  0.31592550017E+02  0.95954356937E+02  0.20250974711E+03  0.17200000000E+03 0. -1.
</event>
<event>
 4    1  0.1249554E+000  0.2113128E+03  0.7818608E-02  0.1140531E+00
         21   -1    0    0  503  502  0.00000000000E+00  0.00000000000E+00  0.88076340232E+02  0.88076340232E+02  0.00000000000E+00 0.  1.
         21   -1    0    0  501  503 -0.00000000000E+00 -0.00000000000E+00 -0.10405285440E+04  0.10405285440E+04  0.00000000000E+00 0.  1.
          6    1    1    2  501    0  0.10232777075E+03 -0.67809478775E+02 -0.88030966350E+03  0.90531663065E+03  0.17200000000E+03 0.  1.
         -6    1    1    2    0  502 -0.10232777075E+03  0.67809478775E+02 -0.72142540288E+02  0.22328825360E+03  0.17200000000E+03 0.  1.
</event>
<event>
 4    1  0.1249554E+000  0.3220436E+03  0.7818608E-02  0.1074713E+00
         21   -1    0    0  503  502  0.00000000000E+00  0.00000000000E+00  0.11451475240E+03  0.11451475240E+03  0.00000000000E+00 0.  1.
         21   -1    0    0  501  503 -0.00000000000E+00 -0.00000000000E+00 -0.14539963170E+04  0.14539963170E+04  0.00000000000E+00 0.  1.
          6    1    1    2  501    0 -0.27086951538E+03 -0.27527767492E+02 -0.11513527002E+04  0.11955438564E+04  0.17200000000E+03 0.  1.
         -6    1    1    2    0  502  0.27086951538E+03  0.27527767492E+02 -0.18812886439E+03  0.37296721299E+03  0.17200000000E+03 0.  1.
</event>
<event>
 4    1  0.1249554E+000  0.1939536E+03  0.7818608E-02  0.1154943E+00
         21   -1    0    0  501  502  0.00000000000E+00  0.00000000000E+00  0.16408299822E+03  0.16408299822E+03  0.00000000000E+00 0.  1.
         21   -1    0    0  502  503 -0.00000000000E+00 -0.00000000000E+00 -0.54980681046E+03  0.54980681046E+03  0.00000000000E+00 0. -1.
          6    1    1    2  501    0 -0.31974331423E+02 -0.83735443515E+02  0.79684563991E+02  0.20968455382E+03  0.17200000000E+03 0.  1.
         -6    1    1    2    0  503  0.31974331423E+02  0.83735443515E+02 -0.46540837623E+03  0.50420525487E+03  0.17200000000E+03 0. -1.
</event>
<event>
 4    1  0.1249554E+000  0.1773887E+03  0.7818608E-02  0.1170354E+00
         21   -1    0    0  503  502  0.00000000000E+00  0.00000000000E+00  0.75290286844E+02  0.75290286844E+02  0.00000000000E+00 0.  1.
         21   -1    0    0  501  503 -0.00000000000E+00 -0.00000000000E+00 -0.47132989290E+03  0.47132989290E+03  0.00000000000E+00 0.  1.
          6    1    1    2  501    0  0.39084445889E+02 -0.18845281059E+02 -0.10603263838E+03  0.20666315329E+03  0.17200000000E+03 0. -1.
         -6    1    1    2    0  502 -0.39084445889E+02  0.18845281059E+02 -0.29000696768E+03  0.33995702645E+03  0.17200000000E+03 0. -1.
</event>
<event>
 4    1  0.1249554E+000  0.2403948E+03  0.7818608E-02  0.1119530E+00
         21   -1    0    0  501  502  0.00000000000E+00  0.00000000000E+00  0.33716582141E+03  0.33716582141E+03  0.00000000000E+00 0. -1.
         21   -1    0    0  502  503 -0.00000000000E+00 -0.00000000000E+00 -0.17292616499E+03  0.17292616499E+03  0.00000000000E+00 0.  1.
          6    1    1    2  501    0  0.11822991189E+03 -0.11927846646E+03  0.58146745291E+02  0.24732712874E+03  0.17200000000E+03 0.  1.
         -6    1    1    2    0  503 -0.11822991189E+03  0.11927846646E+03  0.10609291113E+03  0.26276485765E+03  0.17200000000E+03 0.  1.
</event>
<event>
 4    1  0.1249554E+000  0.1763621E+03  0.7818608E-02  0.1171371E+00
         21   -1    0    0  501  502  0.00000000000E+00  0.00000000000E+00  0.91453243051E+02  0.91453243051E+02  0.00000000000E+00 0. -1.
         21   -1    0    0  502  503 -0.00000000000E+00 -0.00000000000E+00 -0.42488623640E+03  0.42488623640E+03  0.00000000000E+00 0.  1.
          6    1    1    2  501    0  0.38943615099E+02  0.17247926534E+01 -0.28204120997E+03  0.33264218643E+03  0.17200000000E+03 0.  1.
         -6    1    1    2    0  503 -0.38943615099E+02 -0.17247926534E+01 -0.51391783377E+02  0.18369729303E+03  0.17200000000E+03 0. -1.
</event>
<event>
 4    1  0.1249554E+000  0.2043441E+03  0.7818608E-02  0.1146125E+00
         21   -1    0    0  503  502  0.00000000000E+00  0.00000000000E+00  0.10272676407E+03  0.10272676407E+03  0.00000000000E+00 0.  1.
         21   -1    0    0  501  503 -0.00000000000E+00 -0.00000000000E+00 -0.44463037944E+03  0.44463037944E+03  0.00000000000E+00 0.  1.
          6    1    1    2  501    0 -0.10875035475E+03 -0.18597185874E+02 -0.25111666329E+03  0.32375310587E+03  0.17200000000E+03 0.  1.
         -6    1    1    2    0  502  0.10875035475E+03  0.18597185874E+02 -0.90786952085E+02  0.22360403764E+03  0.17200000000E+03 0.  1.
</event>
<event>
 4    1  0.1249554E+000  0.1805945E+03  0.7818608E-02  0.1167229E+00
         21   -1    0    0  501  502  0.00000000000E+00  0.00000000000E+00  0.66902442309E+03  0.66902442309E+03  0.00000000000E+00 0. -1.
         21   -1    0    0  502  503 -0.00000000000E+00 -0.00000000000E+00 -0.48806990995E+02  0.48806990995E+02  0.00000000000E+00 0. -1.
          6    1    1    2  501    0 -0.54383811542E+02  0.85311584163E+01  0.32246324806E+03  0.36959021358E+03  0.17200000000E+03 0.  1.
         -6    1    1    2    0  503  0.54383811542E+02 -0.85311584163E+01  0.29775418403E+03  0.34824120050E+03  0.17200000000E+03 0.  1.
</event>
<event>
 4    1  0.1249554E+000  0.1723275E+03  0.7818608E-02  0.1175442E+00
         21   -1    0    0  501  502  0.00000000000E+00  0.00000000000E+00  0.10572170056E+04  0.10572170056E+04  0.00000000000E+00 0. -1.
         21   -1    0    0  502  503 -0.00000000000E+00 -0.00000000000E+00 -0.28392790361E+02  0.28392790361E+02  0.00000000000E+00 0. -1.
          6    1    1    2  501    0 -0.22931722780E+01 -0.10368823538E+02  0.57050642426E+03  0.59596505876E+03  0.17200000000E+03 0.  1.
         -6    1    1    2    0  503  0.22931722780E+01  0.10368823538E+02  0.45831779099E+03  0.48964473721E+03  0.17200000000E+03 0.  1.
</event>
<event>
 4    1  0.1249554E+000  0.1931501E+03  0.7818608E-02  0.1155650E+00
         21   -1    0    0  503  502  0.00000000000E+00  0.00000000000E+00  0.22749226385E+02  0.22749226385E+02  0.00000000000E+00 0.  1.
         21   -1    0    0  501  503 -0.00000000000E+00 -0.00000000000E+00 -0.17648633976E+04  0.17648633976E+04  0.00000000000E+00 0.  1.
          6    1    1    2  501    0  0.85991135651E+02 -0.18124279818E+02 -0.11088727354E+04  0.11255690597E+04  0.17200000000E+03 0.  1.
         -6    1    1    2    0  502 -0.85991135651E+02  0.18124279818E+02 -0.63324143587E+03  0.66204356430E+03  0.17200000000E+03 0.  1.
</event>
<event>
 4    1  0.1249554E+000  0.1925698E+03  0.7818608E-02  0.1156164E+00
         21   -1    0    0  501  502  0.00000000000E+00  0.00000000000E+00  0.17066599701E+03  0.17066599701E+03  0.00000000000E+00 0. -1.
         21   -1    0    0  502  503 -0.00000000000E+00 -0.00000000000E+00 -0.25302519466E+03  0.25302519466E+03  0.00000000000E+00 0. -1.
          6    1    1    2  501    0 -0.85720070039E+02  0.12296853947E+02 -0.12079858776E+03  0.22732233025E+03  0.17200000000E+03 0. -1.
         -6    1    1    2    0  503  0.85720070039E+02 -0.12296853947E+02  0.38439390110E+02  0.19636886142E+03  0.17200000000E+03 0. -1.
</event>
<event>
 4    1  0.1249554E+000  0.2146295E+03  0.7818608E-02  0.1137951E+00
         21   -1    0    0  501  502  0.00000000000E+00  0.00000000000E+00  0.58554274619E+03  0.58554274619E+03  0.00000000000E+00 0.  1.
         21   -1    0    0  502  503 -0.00000000000E+00 -0.00000000000E+00 -0.81641199099E+02  0.81641199099E+02  0.00000000000E+00 0.  1.
          6    1    1    2  501    0 -0.74983875645E+02 -0.10420768949E+03  0.31556875882E+03  0.38164049274E+03  0.17200000000E+03 0.  1.
         -6    1    1    2    0  503  0.74983875645E+02  0.10420768949E+03  0.18833278827E+03  0.28554345255E+03  0.17200000000E+03 0.  1.
</event>
<event>
 4    1  0.1249554E+000  0.3277866E+03  0.7818608E-02  0.1072120E+00
         21   -1    0    0  503  502  0.00000000000E+00  0.00000000000E+00  0.10176952923E+03  0.10176952923E+03  0.00000000000E+00 0.  1.
         21   -1    0    0  501  503 -0.00000000000E+00 -0.00000000000E+00 -0.10558294657E+04  0.10558294657E+04  0.00000000000E+00 0.  1.
          6    1    1    2  501    0 -0.84459432669E+02 -0.26594484059E+03 -0.48177239451E+03  0.58270806937E+03  0.17200000000E+03 0.  1.
         -6    1    1    2    0  502  0.84459432669E+02  0.26594484059E+03 -0.47228754200E+03  0.57489092560E+03  0.17200000000E+03 0.  1.
</event>
<event>
 4    1  0.1249554E+000  0.2009954E+03  0.7818608E-02  0.1148902E+00
         21   -1    0    0  501  502  0.00000000000E+00  0.00000000000E+00  0.57334760544E+02  0.57334760544E+02  0.00000000000E+00 0. -1.
         21   -1    0    0  502  503 -0.00000000000E+00 -0.00000000000E+00 -0.72625856384E+03  0.72625856384E+03  0.00000000000E+00 0. -1.
          6    1    1    2  501    0  0.77310530013E+02  0.69557419762E+02 -0.40209213963E+03  0.44953002285E+03  0.17200000000E+03 0. -1.
         -6    1    1    2    0  503 -0.77310530013E+02 -0.69557419762E+02 -0.26683166367E+03  0.33406330153E+03  0.17200000000E+03 0. -1.
</event>
<event>
 4    1  0.1249554E+000  0.2015888E+03  0.7818608E-02  0.1148405E+00
         21   -1    0    0  503  502  0.00000000000E+00  0.00000000000E+00  0.12210468416E+03  0.12210468416E+03  0.00000000000E+00 0. -1.
         21   -1    0    0  501  503 -0.00000000000E+00 -0.00000000000E+00 -0.39292929334E+03  0.39292929334E+03  0.00000000000E+00 0. -1.
          6    1    1    2  501    0 -0.57713622935E+02  0.87881604545E+02 -0.23613895944E+03  0.31048292523E+03  0.17200000000E+03 0.  1.
         -6    1    1    2    0  502  0.57713622935E+02 -0.87881604545E+02 -0.34685649735E+02  0.20455105228E+03  0.17200000000E+03 0.  1.
</event>
<event>
 4    1  0.1249554E+000  0.2052123E+03  0.7818608E-02  0.1145414E+00
         21   -1    0    0  503  502  0.00000000000E+00  0.00000000000E+00  0.40242724595E+03  0.40242724595E+03  0.00000000000E+00 0. -1.
         21   -1    0    0  501  503 -0.00000000000E+00 -0.00000000000E+00 -0.10611973693E+03  0.10611973693E+03  0.00000000000E+00 0. -1.
          6    1    1    2  501    0  0.14773923855E+02 -0.11094954106E+03  0.11818045558E+03  0.23680939502E+03  0.17200000000E+03 0.  1.
         -6    1    1    2    0  502 -0.14773923855E+02  0.11094954106E+03  0.17812705345E+03  0.27173758786E+03  0.17200000000E+03 0.  1.
</event>
<event>
 4    1  0.1249554E+000  0.2048238E+03  0.7818608E-02  0.1145732E+00
         21   -1    0    0  503  502  0.00000000000E+00  0.00000000000E+00  0.61708817605E+03  0.61708817605E+03  0.00000000000E+00 0. -1.
         21   -1    0    0  501  503 -0.00000000000E+00 -0.00000000000E+00 -0.89531593287E+02  0.89531593287E+02  0.00000000000E+00 0.  1.
          6    1    1    2  501    0 -0.26268385319E+01  0.11118401473E+03  0.90455293977E+02  0.22390834201E+03  0.17200000000E+03 0.  1.
         -6    1    1    2    0  502  0.26268385319E+01 -0.11118401473E+03  0.43710128878E+03  0.48271142733E+03  0.17200000000E+03 0. -1.
</event>
<event>
 4    1  0.1249554E+000  0.1759039E+03  0.7818608E-02  0.1171827E+00
         21   -1    0    0  503  502  0.00000000000E+00  0.00000000000E+00  0.19401676104E+03  0.19401676104E+03  0.00000000000E+00 0.  1.
         21   -1    0    0  501  503 -0.00000000000E+00 -0.00000000000E+00 -0.22678155942E+03  0.22678155942E+03  0.00000000000E+00 0.  1.
          6    1    1    2  501    0  0.36236678991E+02  0.67134812269E+01 -0.13099872066E+03  0.21932357956E+03  0.17200000000E+03 0.  1.
         -6    1    1    2    0  502 -0.36236678991E+02 -0.67134812269E+01  0.98233922287E+02  0.20147474090E+03  0.17200000000E+03 0.  1.
</event>
<event>
 4    1  0.1249554E+000  0.1727515E+03  0.7818608E-02  0.1175008E+00
         21   -1    0    0  503  502  0.00000000000E+00  0.00000000000E+00  0.85356744711E+02  0.85356744711E+02  0.00000000000E+00 0. -1.
         21   -1    0    0  501  503 -0.00000000000E+00 -0.00000000000E+00 -0.35217702060E+03  0.35217702060E+03  0.00000000000E+00 0. -1.
          6    1    1    2  501    0 -0.97291667179E+01  0.12823404753E+02 -0.11479787131E+03  0.20741660409E+03  0.17200000000E+03 0. -1.
         -6    1    1    2    0  502  0.97291667179E+01 -0.12823404753E+02 -0.15202240458E+03  0.23011716122E+03  0.17200000000E+03 0. -1.
</event>
<event>
 4    1  0.1249554E+000  0.1909763E+03  0.7818608E-02  0.1157584E+00
         21   -1    0    0  501  502  0.00000000000E+00  0.00000000000E+00  0.14569024396E+03  0.14569024396E+03  0.00000000000E+00 0. -1.
         21   -1    0    0  502  503 -0.00000000000E+00 -0.00000000000E+00 -0.40236063227E+03  0.40236063227E+03  0.00000000000E+00 0. -1.
          6    1    1    2  501    0  0.22471534853E+02 -0.79893509014E+02  0.40101189012E+02  0.19514109773E+03  0.17200000000E+03 0. -1.
         -6    1    1    2    0  503 -0.22471534853E+02  0.79893509014E+02 -0.29677157732E+03  0.35290977850E+03  0.17200000000E+03 0. -1.
</event>
<event>
 4    1  0.1249554E+000  0.1819031E+03  0.7818608E-02  0.1165974E+00
         21   -1    0    0  503  502  0.00000000000E+00  0.00000000000E+00  0.19447379535E+04  0.19447379535E+04  0.00000000000E+00 0.  1.
         21   -1    0    0  501  503 -0.00000000000E+00 -0.00000000000E+00 -0.78596061279E+02  0.78596061279E+02  0.00000000000E+00 0.  1.
          6    1    1    2  501    0 -0.59066380235E+02 -0.39882666114E+01  0.37577227167E+02  0.18574388697E+03  0.17200000000E+03 0.  1.
         -6    1    1    2    0  502  0.59066380235E+02  0.39882666114E+01  0.18285646650E+04  0.18375901278E+04  0.17200000000E+03 0.  1.
</event>
<event>
 4    1  0.1249554E+000  0.2503550E+03  0.7818608E-02  0.1113081E+00
         21   -1    0    0  503  502  0.00000000000E+00  0.00000000000E+00  0.10894435030E+03  0.10894435030E+03  0.00000000000E+00 0.  1.
         21   -1    0    0  501  503 -0.00000000000E+00 -0.00000000000E+00 -0.96169546120E+03  0.96169546120E+03  0.00000000000E+00 0.  1.
          6    1    1    2  501    0 -0.14655948171E+03 -0.10776805694E+03 -0.76568859786E+03  0.80557846586E+03  0.17200000000E+03 0.  1.
         -6    1    1    2    0  502  0.14655948171E+03  0.10776805694E+03 -0.87062513038E+02  0.26506134564E+03  0.17200000000E+03 0.  1.
</event>
<event>
 4    1  0.1249554E+000  0.1849032E+03  0.7818608E-02  0.1163140E+00
         21   -1    0    0  501  502  0.00000000000E+00  0.00000000000E+00  0.26022209330E+03  0.26022209330E+03  0.00000000000E+00 0.  1.
         21   -1    0    0  502  503 -0.00000000000E+00 -0.00000000000E+00 -0.13144161507E+03  0.13144161507E+03  0.00000000000E+00 0. -1.
          6    1    1    2  501    0  0.32377713309E+02  0.59639473996E+02  0.60312669648E+02  0.19449113424E+03  0.17200000000E+03 0.  1.
         -6    1    1    2    0  503 -0.32377713309E+02 -0.59639473996E+02  0.68467808575E+02  0.19717257413E+03  0.17200000000E+03 0. -1.
</event>
<event>
 4    1  0.1249554E+000  0.2062390E+03  0.7818608E-02  0.1144579E+00
         21   -1    0    0  503  502  0.00000000000E+00  0.00000000000E+00  0.13635384243E+03  0.13635384243E+03  0.00000000000E+00 0.  1.
         21   -1    0    0  501  503 -0.00000000000E+00 -0.00000000000E+00 -0.32460525561E+03  0.32460525561E+03  0.00000000000E+00 0.  1.
          6    1    1    2  501    0  0.79385377552E+02  0.81538178338E+02 -0.13964803778E+03  0.24907044616E+03  0.17200000000E+03 0.  1.
         -6    1    1    2    0  502 -0.79385377552E+02 -0.81538178338E+02 -0.48603375395E+02  0.21188865188E+03  0.17200000000E+03 0.  1.
</event>
<event>
 4    1  0.1249554E+000  0.2419182E+03  0.7818608E-02  0.1118522E+00
         21   -1    0    0  503  502  0.00000000000E+00  0.00000000000E+00  0.90960597032E+03  0.90960597032E+03  0.00000000000E+00 0.  1.
         21   -1    0    0  501  503 -0.00000000000E+00 -0.00000000000E+00 -0.10311480953E+03  0.10311480953E+03  0.00000000000E+00 0.  1.
          6    1    1    2  501    0 -0.79806551883E+02  0.15023755765E+03  0.92738279835E+02  0.25908453833E+03  0.17200000000E+03 0.  1.
         -6    1    1    2    0  502  0.79806551883E+02 -0.15023755765E+03  0.71375288096E+03  0.75363624152E+03  0.17200000000E+03 0.  1.
</event>
<event>
 4    1  0.1249554E+000  0.2213437E+03  0.7818608E-02  0.1132885E+00
         21   -1    0    0  501  502  0.00000000000E+00  0.00000000000E+00  0.12881627717E+03  0.12881627717E+03  0.00000000000E+00 0. -1.
         21   -1    0    0  502  503 -0.00000000000E+00 -0.00000000000E+00 -0.42221094424E+03  0.42221094424E+03  0.00000000000E+00 0.  1.
          6    1    1    2  501    0 -0.12301641750E+03 -0.65391060157E+02 -0.59926641304E+02  0.22931252051E+03  0.17200000000E+03 0.  1.
         -6    1    1    2    0  503  0.12301641750E+03  0.65391060157E+02 -0.23346802576E+03  0.32171470090E+03  0.17200000000E+03 0. -1.
</event>
<event>
 4    1  0.1249554E+000  0.2549679E+03  0.7818608E-02  0.1110205E+00
         21   -1    0    0  503  502  0.00000000000E+00  0.00000000000E+00  0.10056237783E+04  0.10056237783E+04  0.00000000000E+00 0.  1.
         21   -1    0    0  501  503 -0.00000000000E+00 -0.00000000000E+00 -0.15251835667E+03  0.15251835667E+03  0.00000000000E+00 0. -1.
          6    1    1    2  501    0  0.84086996815E+02 -0.16838652470E+03 -0.12988075889E+02  0.25529852105E+03  0.17200000000E+03 0. -1.
         -6    1    1    2    0  502 -0.84086996815E+02  0.16838652470E+03  0.86609349749E+03  0.90284361389E+03  0.17200000000E+03 0.  1.
</event>
<event>
 4    1  0.1249554E+000  0.1806008E+03  0.7818608E-02  0.1167223E+00
         21   -1    0    0  503  502  0.00000000000E+00  0.00000000000E+00  0.98683336650E+03  0.98683336650E+03  0.00000000000E+00 0.  1.
         21   -1    0    0  501  503 -0.00000000000E+00 -0.00000000000E+00 -0.68297807855E+02  0.68297807855E+02  0.00000000000E+00 0.  1.
          6    1    1    2  501    0 -0.20059058883E+02  0.51286429657E+02  0.80277767076E+02  0.19763902347E+03  0.17200000000E+03 0.  1.
         -6    1    1    2    0  502  0.20059058883E+02 -0.51286429657E+02  0.83825779157E+03  0.85749215089E+03  0.17200000000E+03 0.  1.
</event>
<event>
 4    1  0.1249554E+000  0.1905370E+03  0.7818608E-02  0.1157978E+00
         21   -1    0    0  501  502  0.00000000000E+00  0.00000000000E+00  0.12780600025E+04  0.12780600025E+04  0.00000000000E+00 0.  1.
         21   -1    0    0  502  503 -0.00000000000E+00 -0.00000000000E+00 -0.38982389489E+02  0.38982389489E+02  0.00000000000E+00 0.  1.
          6    1    1    2  501    0  0.25509709332E+02  0.77907562003E+02  0.96254983714E+03  0.98122704940E+03  0.17200000000E+03 0.  1.
         -6    1    1    2    0  503 -0.25509709332E+02 -0.77907562003E+02  0.27652777583E+03  0.33581534255E+03  0.17200000000E+03 0.  1.
</event>
<event>
 4    1  0.1249554E+000  0.2058760E+03  0.7818608E-02  0.1144874E+00
         21   -1    0    0  503  502  0.00000000000E+00  0.00000000000E+00  0.53272379217E+02  0.53272379217E+02  0.00000000000E+00 0. -1.
         21   -1    0    0  501  503 -0.00000000000E+00 -0.00000000000E+00 -0.80529700423E+03  0.80529700423E+03  0.00000000000E+00 0. -1.
          6    1    1    2  501    0  0.75947933199E+02  0.83862131507E+02 -0.42305365214E+03  0.47048840395E+03  0.17200000000E+03 0. -1.
         -6    1    1    2    0  502 -0.75947933199E+02 -0.83862131507E+02 -0.32897097287E+03  0.38808097950E+03  0.17200000000E+03 0. -1.
</event>
<event>
 4    1  0.1249554E+000  0.2055571E+03  0.7818608E-02  0.1145133E+00
         21   -1    0    0  503  502  0.00000000000E+00  0.00000000000E+00  0.32488155114E+03  0.32488155114E+03  0.00000000000E+00 0.  1.
         21   -1    0    0  501  503 -0.00000000000E+00 -0.00000000000E+00 -0.13009464523E+03  0.13009464523E+03  0.00000000000E+00 0. -1.
          6    1    1    2  501    0  0.10739016449E+03  0.33720658755E+02  0.93621491243E+02  0.22587322523E+03  0.17200000000E+03 0. -1.
         -6    1    1    2    0  502 -0.10739016449E+03 -0.33720658755E+02  0.10116541467E+03  0.22910297113E+03  0.17200000000E+03 0. -1.
</event>
<event>
 4    1  0.1249554E+000  0.1801994E+03  0.7818608E-02  0.1167610E+00
         21   -1    0    0  501  502  0.00000000000E+00  0.00000000000E+00  0.69565608620E+03  0.69565608620E+03  0.00000000000E+00 0.  1.
         21   -1    0    0  502  503 -0.00000000000E+00 -0.00000000000E+00 -0.91827728230E+02  0.91827728230E+02  0.00000000000E+00 0.  1.
          6    1    1    2  501    0 -0.28984101503E+02 -0.45252116651E+02  0.57800521642E+03  0.60544352537E+03  0.17200000000E+03 0.  1.
         -6    1    1    2    0  503  0.28984101503E+02  0.45252116651E+02  0.25823141547E+02  0.18204028906E+03  0.17200000000E+03 0.  1.
</event>
<event>
 4    1  0.1249554E+000  0.1819132E+03  0.7818608E-02  0.1165964E+00
         21   -1    0    0  503  502  0.00000000000E+00  0.00000000000E+00  0.69052866420E+02  0.69052866420E+02  0.00000000000E+00 0.  1.
         21   -1    0    0  501  503 -0.00000000000E+00 -0.00000000000E+00 -0.95204426842E+03  0.95204426842E+03  0.00000000000E+00 0.  1.
          6    1    1    2  501    0  0.58531456396E+02  0.90826256592E+01 -0.80128837186E+03  0.82167845314E+03  0.17200000000E+03 0.  1.
         -6    1    1    2    0  502 -0.58531456396E+02 -0.90826256592E+01 -0.81703030140E+02  0.19941868170E+03  0.17200000000E+03 0.  1.
</event>
<event>
 4    1  0.1249554E+000  0.1865244E+03  0.7818608E-02  0.1161634E+00
         21   -1    0    0  503  502  0.00000000000E+00  0.00000000000E+00  0.52158075380E+02  0.52158075380E+02  0.00000000000E+00 0. -1.
         21   -1    0    0  501  503 -0.00000000000E+00 -0.00000000000E+00 -0.12572099171E+04  0.12572099171E+04  0.00000000000E+00 0. -1.
          6    1    1    2  501    0 -0.64481093863E+02  0.32396882350E+02 -0.10510827160E+04  0.10675046817E+04  0.17200000000E+03 0. -1.
         -6    1    1    2    0  502  0.64481093863E+02 -0.32396882350E+02 -0.15396912570E+03  0.24186331082E+03  0.17200000000E+03 0. -1.
</event>
<event>
 4    1  0.1249554E+000  0.1806660E+03  0.7818608E-02  0.1167160E+00
         21   -1    0    0  501  502  0.00000000000E+00  0.00000000000E+00  0.48895763099E+03  0.48895763099E+03  0.00000000000E+00 0.  1.
         21   -1    0    0  502  503 -0.00000000000E+00 -0.00000000000E+00 -0.11419323401E+03  0.11419323401E+03  0.00000000000E+00 0.  1.
          6    1    1    2  501    0  0.33989789386E+02  0.43599458744E+02  0.38175765027E+03  0.42234952602E+03  0.17200000000E+03 0.  1.
         -6    1    1    2    0  503 -0.33989789386E+02 -0.43599458744E+02 -0.69932532892E+01  0.18080133898E+03  0.17200000000E+03 0.  1.
</event>
<event>
 4    1  0.1249554E+000  0.1942789E+03  0.7818608E-02  0.1154658E+00
         21   -1    0    0  501  502  0.00000000000E+00  0.00000000000E+00  0.28813557511E+02  0.28813557511E+02  0.00000000000E+00 0.  1.
         21   -1    0    0  502  503 -0.00000000000E+00 -0.00000000000E+00 -0.19287910270E+04  0.19287910270E+04  0.00000000000E+00 0. -1.
          6    1    1    2  501    0 -0.55089737184E+02  0.71591925647E+02 -0.39556427072E+03  0.44069873523E+03  0.17200000000E+03 0.  1.
         -6    1    1    2    0  503  0.55089737184E+02 -0.71591925647E+02 -0.15044131987E+04  0.15169058492E+04  0.17200000000E+03 0.  1.
</event>
<event>
 4    1  0.1249554E+000  0.2606830E+03  0.7818608E-02  0.1106734E+00
         21   -1    0    0  503  502  0.00000000000E+00  0.00000000000E+00  0.32067000798E+03  0.32067000798E+03  0.00000000000E+00 0.  1.
         21   -1    0    0  501  503 -0.00000000000E+00 -0.00000000000E+00 -0.22605188385E+03  0.22605188385E+03  0.00000000000E+00 0.  1.
          6    1    1    2  501    0  0.13295329133E+03 -0.14385779640E+03 -0.21045596833E+02  0.26153118439E+03  0.17200000000E+03 0.  1.
         -6    1    1    2    0  502 -0.13295329133E+03  0.14385779640E+03  0.11566372096E+03  0.28519070744E+03  0.17200000000E+03 0.  1.
</event>
<event>
 4    1  0.1249554E+000  0.1948672E+03  0.7818608E-02  0.1154143E+00
         21   -1    0    0  503  502  0.00000000000E+00  0.00000000000E+00  0.17750908735E+03  0.17750908735E+03  0.00000000000E+00 0. -1.
         21   -1    0    0  501  503 -0.00000000000E+00 -0.00000000000E+00 -0.50933876129E+03  0.50933876129E+03  0.00000000000E+00 0. -1.
          6    1    1    2  501    0  0.84968412008E+02 -0.34199317835E+02 -0.42745851677E+03  0.46978080840E+03  0.17200000000E+03 0. -1.
         -6    1    1    2    0  502 -0.84968412008E+02  0.34199317835E+02  0.95628842835E+02  0.21706704025E+03  0.17200000000E+03 0. -1.
</event>
<event>
 4    1  0.1249554E+000  0.2006611E+03  0.7818608E-02  0.1149182E+00
         21   -1    0    0  501  502  0.00000000000E+00  0.00000000000E+00  0.19217924750E+02  0.19217924750E+02  0.00000000000E+00 0. -1.
         21   -1    0    0  502  503 -0.00000000000E+00 -0.00000000000E+00 -0.21005628861E+04  0.21005628861E+04  0.00000000000E+00 0.  1.
          6    1    1    2  501    0  0.26657315912E+02  0.99851119080E+02 -0.98697896332E+03  0.10071704585E+04  0.17200000000E+03 0.  1.
         -6    1    1    2    0  503 -0.26657315912E+02 -0.99851119080E+02 -0.10943659980E+04  0.11126103523E+04  0.17200000000E+03 0.  1.
</event>
<event>
 4    1  0.1249554E+000  0.2256823E+03  0.7818608E-02  0.1129716E+00
         21   -1    0    0  501  502  0.00000000000E+00  0.00000000000E+00  0.73084253752E+03  0.73084253752E+03  0.00000000000E+00 0. -1.
         21   -1    0    0  502  503 -0.00000000000E+00 -0.00000000000E+00 -0.71069168664E+02  0.71069168664E+02  0.00000000000E+00 0. -1.
          6    1    1    2  501    0  0.10108814359E+03  0.10549725590E+03  0.38574014975E+03  0.44690932739E+03  0.17200000000E+03 0. -1.
         -6    1    1    2    0  503 -0.10108814359E+03 -0.10549725590E+03  0.27403321911E+03  0.35500237880E+03  0.17200000000E+03 0. -1.
</event>
<event>
 4    1  0.1249554E+000  0.2679529E+03  0.7818608E-02  0.1102457E+00
         21   -1    0    0  501  502  0.00000000000E+00  0.00000000000E+00  0.29276250661E+03  0.29276250661E+03  0.00000000000E+00 0.  1.
         21   -1    0    0  502  503 -0.00000000000E+00 -0.00000000000E+00 -0.10309012107E+04  0.10309012107E+04  0.00000000000E+00 0. -1.
          6    1    1    2  501    0  0.86794554217E+02  0.18622964130E+03  0.20870092774E+03  0.33963929570E+03  0.17200000000E+03 0.  1.
         -6    1    1    2    0  503 -0.86794554217E+02 -0.18622964130E+03 -0.94683963179E+03  0.98402442158E+03  0.17200000000E+03 0. -1.
</event>
<event>
 4    1  0.1249554E+000  0.2154692E+03  0.7818608E-02  0.1137307E+00
         21   -1    0    0  503  502  0.00000000000E+00  0.00000000000E+00  0.78929348126E+02  0.78929348126E+02  0.00000000000E+00 0. -1.
         21   -1    0    0  501  503 -0.00000000000E+00 -0.00000000000E+00 -0.63156845860E+03  0.63156845860E+03  0.00000000000E+00 0. -1.
          6    1    1    2  501    0 -0.53612082407E+02 -0.11818934185E+03 -0.18323813582E+03  0.28284835217E+03  0.17200000000E+03 0.  1.
         -6    1    1    2    0  502  0.53612082407E+02  0.11818934185E+03 -0.36940097466E+03  0.42764945456E+03  0.17200000000E+03 0.  1.
</event>
<event>
 4    1  0.1249554E+000  0.1857934E+03  0.7818608E-02  0.1162311E+00
         21   -1    0    0  503  502  0.00000000000E+00  0.00000000000E+00  0.11871611875E+03  0.11871611875E+03  0.00000000000E+00 0.  1.
         21   -1    0    0  501  503 -0.00000000000E+00 -0.00000000000E+00 -0.29340733265E+03  0.29340733265E+03  0.00000000000E+00 0.  1.
          6    1    1    2  501    0 -0.20906361960E+02 -0.67068020121E+02 -0.67812632219E+02  0.19778207295E+03  0.17200000000E+03 0.  1.
         -6    1    1    2    0  502  0.20906361960E+02  0.67068020121E+02 -0.10687858168E+03  0.21434137845E+03  0.17200000000E+03 0.  1.
</event>
<event>
 4    1  0.1249554E+000  0.4113921E+03  0.7818608E-02  0.1039905E+00
         21   -1    0    0  503  502  0.00000000000E+00  0.00000000000E+00  0.11444546760E+04  0.11444546760E+04  0.00000000000E+00 0. -1.
         21   -1    0    0  501  503 -0.00000000000E+00 -0.00000000000E+00 -0.94905948163E+03  0.94905948163E+03  0.00000000000E+00 0.  1.
          6    1    1    2  501    0  0.36799624552E+03 -0.65101906737E+02 -0.86405581417E+03  0.95699317917E+03  0.17200000000E+03 0.  1.
         -6    1    1    2    0  502 -0.36799624552E+03  0.65101906737E+02  0.10594510085E+04  0.11365209784E+04  0.17200000000E+03 0. -1.
</event>
<event>
 4    1  0.1249554E+000  0.1814949E+03  0.7818608E-02  0.1166364E+00
         21   -1    0    0  501  502  0.00000000000E+00  0.00000000000E+00  0.92684496787E+02  0.92684496787E+02  0.00000000000E+00 0. -1.
         21   -1    0    0  502  503 -0.00000000000E+00 -0.00000000000E+00 -0.11342250798E+04  0.11342250798E+04  0.00000000000E+00 0. -1.
          6    1    1    2  501    0  0.17292831080E+01  0.57908728856E+02 -0.12433111288E+02  0.18192029451E+03  0.17200000000E+03 0. -1.
         -6    1    1    2    0  503 -0.17292831080E+01 -0.57908728856E+02 -0.10291074717E+04  0.10449892820E+04  0.17200000000E+03 0. -1.
</event>
<event>
 4    1  0.1249554E+000  0.1869392E+03  0.7818608E-02  0.1161251E+00
         21   -1    0    0  501  502  0.00000000000E+00  0.00000000000E+00  0.10733857134E+03  0.10733857134E+03  0.00000000000E+00 0. -1.
         21   -1    0    0  502  503 -0.00000000000E+00 -0.00000000000E+00 -0.34627787061E+03  0.34627787061E+03  0.00000000000E+00 0.  1.
          6    1    1    2  501    0  0.10903701998E+02 -0.72411091129E+02 -0.64005748119E+02  0.19759299742E+03  0.17200000000E+03 0. -1.
         -6    1    1    2    0  503 -0.10903701998E+02  0.72411091129E+02 -0.17493355115E+03  0.25602344454E+03  0.17200000000E+03 0.  1.
</event>
<event>
 4    1  0.1249554E+000  0.1960298E+03  0.7818608E-02  0.1153133E+00
         21   -1    0    0  503  502  0.00000000000E+00  0.00000000000E+00  0.15444049881E+03  0.15444049881E+03  0.00000000000E+00 0. -1.
         21   -1    0    0  501  503 -0.00000000000E+00 -0.00000000000E+00 -0.26345863717E+03  0.26345863717E+03  0.00000000000E+00 0.  1.
          6    1    1    2  501    0  0.68169576534E+02 -0.64781250991E+02 -0.10376439345E+03  0.22179889763E+03  0.17200000000E+03 0.  1.
         -6    1    1    2    0  502 -0.68169576534E+02  0.64781250991E+02 -0.52537449095E+01  0.19610023835E+03  0.17200000000E+03 0. -1.
</event>
<event>
 4    1  0.1249554E+000  0.2331408E+03  0.7818608E-02  0.1124448E+00
         21   -1    0    0  503  502  0.00000000000E+00  0.00000000000E+00  0.26160517697E+03  0.26160517697E+03  0.00000000000E+00 0.  1.
         21   -1    0    0  501  503 -0.00000000000E+00 -0.00000000000E+00 -0.47971794046E+03  0.47971794046E+03  0.00000000000E+00 0.  1.
          6    1    1    2  501    0  0.22852325421E+00 -0.15738666942E+03 -0.38813379064E+03  0.45277196840E+03  0.17200000000E+03 0.  1.
         -6    1    1    2    0  502 -0.22852325421E+00  0.15738666942E+03  0.17002102715E+03  0.28855114903E+03  0.17200000000E+03 0.  1.
</event>
<event>
 4    1  0.1249554E+000  0.1884167E+03  0.7818608E-02  0.1159897E+00
         21   -1    0    0  501  502  0.00000000000E+00  0.00000000000E+00  0.12684432780E+03  0.12684432780E+03  0.00000000000E+00 0.  1.
         21   -1    0    0  502  503 -0.00000000000E+00 -0.00000000000E+00 -0.33884869740E+03  0.33884869740E+03  0.00000000000E+00 0.  1.
          6    1    1    2  501    0  0.41796530918E+02  0.64574894415E+02 -0.20313969900E+03  0.27706786947E+03  0.17200000000E+03 0. -1.
         -6    1    1    2    0  503 -0.41796530918E+02 -0.64574894415E+02 -0.88646706028E+01  0.18862515572E+03  0.17200000000E+03 0. -1.
</event>
<event>
 4    1  0.1249554E+000  0.1957208E+03  0.7818608E-02  0.1153400E+00
         21   -1    0    0  503  502  0.00000000000E+00  0.00000000000E+00  0.64878964024E+02  0.64878964024E+02  0.00000000000E+00 0.  1.
         21   -1    0    0  501  503 -0.00000000000E+00 -0.00000000000E+00 -0.59975718495E+03  0.59975718495E+03  0.00000000000E+00 0. -1.
          6    1    1    2  501    0 -0.73859486673E+02  0.57161266991E+02 -0.30887613827E+03  0.36566528822E+03  0.17200000000E+03 0.  1.
         -6    1    1    2    0  502  0.73859486673E+02 -0.57161266991E+02 -0.22600208265E+03  0.29897086075E+03  0.17200000000E+03 0.  1.
</event>
<event>
 4    1  0.1249554E+000  0.2455375E+03  0.7818608E-02  0.1116158E+00
         21   -1    0    0  503  502  0.00000000000E+00  0.00000000000E+00  0.24253461648E+03  0.24253461648E+03  0.00000000000E+00 0.  1.
         21   -1    0    0  501  503 -0.00000000000E+00 -0.00000000000E+00 -0.41467966199E+03  0.41467966199E+03  0.00000000000E+00 0. -1.
          6    1    1    2  501    0  0.70831710106E+02 -0.16027333884E+03 -0.29404608513E+03  0.38308194226E+03  0.17200000000E+03 0. -1.
         -6    1    1    2    0  502 -0.70831710106E+02  0.16027333884E+03  0.12190103962E+03  0.27413233622E+03  0.17200000000E+03 0.  1.
</event>
<event>
 4    1  0.1249554E+000  0.2821001E+03  0.7818608E-02  0.1094547E+00
         21   -1    0    0  503  502  0.00000000000E+00  0.00000000000E+00  0.45124205496E+03  0.45124205496E+03  0.00000000000E+00 0.  1.
         21   -1    0    0  501  503 -0.00000000000E+00 -0.00000000000E+00 -0.21672390964E+03  0.21672390964E+03  0.00000000000E+00 0.  1.
          6    1    1    2  501    0 -0.85319218304E+02  0.20668113966E+03 -0.26877611719E+02  0.28337760764E+03  0.17200000000E+03 0.  1.
         -6    1    1    2    0  502  0.85319218304E+02 -0.20668113966E+03  0.26139575704E+03  0.38458835695E+03  0.17200000000E+03 0.  1.
</event>
<event>
 4    1  0.1249554E+000  0.1856868E+03  0.7818608E-02  0.1162410E+00
         21   -1    0    0  501  502  0.00000000000E+00  0.00000000000E+00  0.17728487804E+03  0.17728487804E+03  0.00000000000E+00 0.  1.
         21   -1    0    0  502  503 -0.00000000000E+00 -0.00000000000E+00 -0.20924812967E+03  0.20924812967E+03  0.00000000000E+00 0.  1.
          6    1    1    2  501    0 -0.17269126185E+02 -0.67803915695E+02 -0.67313421437E+02  0.19751124122E+03  0.17200000000E+03 0. -1.
         -6    1    1    2    0  503  0.17269126185E+02  0.67803915695E+02  0.35350169800E+02  0.18902176649E+03  0.17200000000E+03 0. -1.
</event>
<event>
 4    1  0.1249554E+000  0.1892341E+03  0.7818608E-02  0.1159154E+00
         21   -1    0    0  503  502  0.00000000000E+00  0.00000000000E+00  0.12513296453E+03  0.12513296453E+03  0.00000000000E+00 0.  1.
         21   -1    0    0  501  503 -0.00000000000E+00 -0.00000000000E+00 -0.28627138795E+03  0.28627138795E+03  0.00000000000E+00 0.  1.
          6    1    1    2  501    0 -0.41048528583E+02 -0.67383822884E+02 -0.84400389573E+02  0.20720276795E+03  0.17200000000E+03 0. -1.
         -6    1    1    2    0  502  0.41048528583E+02  0.67383822884E+02 -0.76738033846E+02  0.20420158453E+03  0.17200000000E+03 0. -1.
</event>
<event>
 4    1  0.1249554E+000  0.2595346E+03  0.7818608E-02  0.1107423E+00
         21   -1    0    0  501  502  0.00000000000E+00  0.00000000000E+00  0.37645744331E+03  0.37645744331E+03  0.00000000000E+00 0. -1.
         21   -1    0    0  502  503 -0.00000000000E+00 -0.00000000000E+00 -0.42598882666E+03  0.42598882666E+03  0.00000000000E+00 0.  1.
          6    1    1    2  501    0 -0.69866743892E+02 -0.18136378807E+03  0.28078986781E+03  0.38236257059E+03  0.17200000000E+03 0.  1.
         -6    1    1    2    0  503  0.69866743892E+02  0.18136378807E+03 -0.33032125116E+03  0.42008369939E+03  0.17200000000E+03 0.  1.
</event>
<event>
 4    1  0.1249554E+000  0.1835318E+03  0.7818608E-02  0.1164428E+00
         21   -1    0    0  503  502  0.00000000000E+00  0.00000000000E+00  0.17791291257E+03  0.17791291257E+03  0.00000000000E+00 0.  1.
         21   -1    0    0  501  503 -0.00000000000E+00 -0.00000000000E+00 -0.23205668836E+03  0.23205668836E+03  0.00000000000E+00 0.  1.
          6    1    1    2  501    0 -0.35274013321E+02 -0.53438383514E+02  0.60887823777E+02  0.19336815646E+03  0.17200000000E+03 0.  1.
         -6    1    1    2    0  502  0.35274013321E+02  0.53438383514E+02 -0.11503159957E+03  0.21660144447E+03  0.17200000000E+03 0.  1.
</event>
<event>
 4    1  0.1249554E+000  0.1811487E+03  0.7818608E-02  0.1166696E+00
         21   -1    0    0  503  502  0.00000000000E+00  0.00000000000E+00  0.39276632677E+02  0.39276632677E+02  0.00000000000E+00 0.  1.
         21   -1    0    0  501  503 -0.00000000000E+00 -0.00000000000E+00 -0.18105346212E+04  0.18105346212E+04  0.00000000000E+00 0.  1.
          6    1    1    2  501    0 -0.25680331909E+02 -0.50708726272E+02 -0.15643767424E+04  0.15748299739E+04  0.17200000000E+03 0.  1.
         -6    1    1    2    0  502  0.25680331909E+02  0.50708726272E+02 -0.20688124611E+03  0.27498128001E+03  0.17200000000E+03 0.  1.
</event>
<event>
 4    1  0.1249554E+000  0.2198265E+03  0.7818608E-02  0.1134012E+00
         21   -1    0    0  503  502  0.00000000000E+00  0.00000000000E+00  0.76329153104E+03  0.76329153104E+03  0.00000000000E+00 0. -1.
         21   -1    0    0  501  503 -0.00000000000E+00 -0.00000000000E+00 -0.87583734225E+02  0.87583734225E+02  0.00000000000E+00 0. -1.
          6    1    1    2  501    0  0.13618787934E+03  0.13875756936E+02  0.11388066282E+03  0.24757318205E+03  0.17200000000E+03 0.  1.
         -6    1    1    2    0  502 -0.13618787934E+03 -0.13875756936E+02  0.56182713400E+03  0.60330208321E+03  0.17200000000E+03 0.  1.
</event>
<event>
 4    1  0.1249554E+000  0.2082920E+03  0.7818608E-02  0.1142926E+00
         21   -1    0    0  503  502  0.00000000000E+00  0.00000000000E+00  0.37091428743E+03  0.37091428743E+03  0.00000000000E+00 0.  1.
         21   -1    0    0  501  503 -0.00000000000E+00 -0.00000000000E+00 -0.11753102471E+03  0.11753102471E+03  0.00000000000E+00 0.  1.
          6    1    1    2  501    0 -0.73281455386E+02 -0.91822524326E+02  0.10980628817E+03  0.23546330627E+03  0.17200000000E+03 0. -1.
         -6    1    1    2    0  502  0.73281455386E+02  0.91822524326E+02  0.14357697454E+03  0.25298200587E+03  0.17200000000E+03 0. -1.
</event>
<event>
 4    1  0.1249554E+000  0.1786167E+03  0.7818608E-02  0.1169149E+00
         21   -1    0    0  501  502  0.00000000000E+00  0.00000000000E+00  0.16770148603E+03  0.16770148603E+03  0.00000000000E+00 0. -1.
         21   -1    0    0  502  503 -0.00000000000E+00 -0.00000000000E+00 -0.54511560091E+03  0.54511560091E+03  0.00000000000E+00 0. -1.
          6    1    1    2  501    0  0.78059461107E+00 -0.48159207181E+02  0.98860875365E+02  0.20415041328E+03  0.17200000000E+03 0. -1.
         -6    1    1    2    0  503 -0.78059461107E+00  0.48159207181E+02 -0.47627499024E+03  0.50866667366E+03  0.17200000000E+03 0. -1.
</event>
<event>
 4    1  0.1249554E+000  0.1755495E+03  0.7818608E-02  0.1172181E+00
         21   -1    0    0  503  502  0.00000000000E+00  0.00000000000E+00  0.38042869230E+03  0.38042869230E+03  0.00000000000E+00 0.  1.
         21   -1    0    0  501  503 -0.00000000000E+00 -0.00000000000E+00 -0.94686298722E+02  0.94686298722E+02  0.00000000000E+00 0.  1.
          6    1    1    2  501    0  0.46202658795E+01 -0.34817562601E+02  0.23316289108E+03  0.29186048602E+03  0.17200000000E+03 0.  1.
         -6    1    1    2    0  502 -0.46202658795E+01  0.34817562601E+02  0.52579502505E+02  0.18325450501E+03  0.17200000000E+03 0.  1.
</event>
<event>
 4    1  0.1249554E+000  0.2391069E+03  0.7818608E-02  0.1120389E+00
         21   -1    0    0  503  502  0.00000000000E+00  0.00000000000E+00  0.91540101375E+03  0.91540101375E+03  0.00000000000E+00 0.  1.
         21   -1    0    0  501  503 -0.00000000000E+00 -0.00000000000E+00 -0.11517457164E+03  0.11517457164E+03  0.00000000000E+00 0. -1.
          6    1    1    2  501    0 -0.15025219675E+03  0.70798302073E+02  0.51491771451E+02  0.24458848037E+03  0.17200000000E+03 0.  1.
         -6    1    1    2    0  502  0.15025219675E+03 -0.70798302073E+02  0.74873467066E+03  0.78598710502E+03  0.17200000000E+03 0.  1.
</event>
<event>
 4    1  0.1249554E+000  0.1978809E+03  0.7818608E-02  0.1151539E+00
         21   -1    0    0  503  502  0.00000000000E+00  0.00000000000E+00  0.34954635365E+02  0.34954635365E+02  0.00000000000E+00 0. -1.
         21   -1    0    0  501  503 -0.00000000000E+00 -0.00000000000E+00 -0.11288340874E+04  0.11288340874E+04  0.00000000000E+00 0. -1.
          6    1    1    2  501    0  0.94979710448E+02 -0.23488354212E+02 -0.49610530893E+03  0.53411358879E+03  0.17200000000E+03 0.  1.
         -6    1    1    2    0  502 -0.94979710448E+02  0.23488354212E+02 -0.59777414308E+03  0.62967513395E+03  0.17200000000E+03 0.  1.
</event>
<event>
 4    1  0.1249554E+000  0.1848715E+03  0.7818608E-02  0.1163170E+00
         21   -1    0    0  501  502  0.00000000000E+00  0.00000000000E+00  0.26210131979E+04  0.26210131979E+04  0.00000000000E+00 0.  1.
         21   -1    0    0  502  503 -0.00000000000E+00 -0.00000000000E+00 -0.15394773530E+02  0.15394773530E+02  0.00000000000E+00 0.  1.
          6    1    1    2  501    0  0.21938521022E+01  0.67739539174E+02  0.18183820505E+04  0.18277556565E+04  0.17200000000E+03 0.  1.
         -6    1    1    2    0  503 -0.21938521022E+01 -0.67739539174E+02  0.78723637386E+03  0.80865231496E+03  0.17200000000E+03 0.  1.
</event>
<event>
 4    1  0.1249554E+000  0.2405287E+03  0.7818608E-02  0.1119441E+00
         21   -1    0    0  503  502  0.00000000000E+00  0.00000000000E+00  0.11499317610E+03  0.11499317610E+03  0.00000000000E+00 0.  1.
         21   -1    0    0  501  503 -0.00000000000E+00 -0.00000000000E+00 -0.54589084733E+03  0.54589084733E+03  0.00000000000E+00 0. -1.
          6    1    1    2  501    0  0.10367305028E+02  0.16781711716E+03 -0.30795564608E+03  0.39075663242E+03  0.17200000000E+03 0. -1.
         -6    1    1    2    0  502 -0.10367305028E+02 -0.16781711716E+03 -0.12294202515E+03  0.27012739101E+03  0.17200000000E+03 0.  1.
</event>
<event>
 4    1  0.1249554E+000  0.1999749E+03  0.7818608E-02  0.1149760E+00
         21   -1    0    0  501  502  0.00000000000E+00  0.00000000000E+00  0.39860388324E+03  0.39860388324E+03  0.00000000000E+00 0. -1.
         21   -1    0    0  502  503 -0.00000000000E+00 -0.00000000000E+00 -0.13905390860E+03  0.13905390860E+03  0.00000000000E+00 0.  1.
          6    1    1    2  501    0  0.57815748767E+02  0.84043404167E+02  0.27164862226E+03  0.33731725210E+03  0.17200000000E+03 0. -1.
         -6    1    1    2    0  503 -0.57815748767E+02 -0.84043404167E+02 -0.12098647617E+02  0.20034053974E+03  0.17200000000E+03 0.  1.
</event>
<event>
 4    1  0.1249554E+000  0.1757196E+03  0.7818608E-02  0.1172011E+00
         21   -1    0    0  501  502  0.00000000000E+00  0.00000000000E+00  0.23520109004E+02  0.23520109004E+02  0.00000000000E+00 0. -1.
         21   -1    0    0  502  503 -0.00000000000E+00 -0.00000000000E+00 -0.13218877016E+04  0.13218877016E+04  0.00000000000E+00 0. -1.
          6    1    1    2  501    0  0.35709655926E+02 -0.42653523274E+01 -0.70493794711E+03  0.72650869371E+03  0.17200000000E+03 0. -1.
         -6    1    1    2    0  503 -0.35709655926E+02  0.42653523274E+01 -0.59342964553E+03  0.61889911694E+03  0.17200000000E+03 0. -1.
</event>
<event>
 4    1  0.1249554E+000  0.1998215E+03  0.7818608E-02  0.1149890E+00
         21   -1    0    0  501  502  0.00000000000E+00  0.00000000000E+00  0.26810472644E+03  0.26810472644E+03  0.00000000000E+00 0. -1.
         21   -1    0    0  502  503 -0.00000000000E+00 -0.00000000000E+00 -0.16638707291E+03  0.16638707291E+03  0.00000000000E+00 0.  1.
          6    1    1    2  501    0  0.90527021303E+02  0.46362380649E+02  0.12122889113E+03  0.23372003759E+03  0.17200000000E+03 0. -1.
         -6    1    1    2    0  503 -0.90527021303E+02 -0.46362380649E+02 -0.19511237599E+02  0.20077176175E+03  0.17200000000E+03 0.  1.
</event>
<event>
 4    1  0.1249554E+000  0.1820536E+03  0.7818608E-02  0.1165830E+00
         21   -1    0    0  501  502  0.00000000000E+00  0.00000000000E+00  0.74918838942E+02  0.74918838942E+02  0.00000000000E+00 0.  1.
         21   -1    0    0  502  503 -0.00000000000E+00 -0.00000000000E+00 -0.45481875244E+03  0.45481875244E+03  0.00000000000E+00 0.  1.
          6    1    1    2  501    0  0.40501909218E+02  0.43807468459E+02 -0.14616856949E+03  0.23347108954E+03  0.17200000000E+03 0.  1.
         -6    1    1    2    0  503 -0.40501909218E+02 -0.43807468459E+02 -0.23373134401E+03  0.29626650185E+03  0.17200000000E+03 0.  1.
</event>
<event>
 4    1  0.1249554E+000  0.2474385E+03  0.7818608E-02  0.1114934E+00
         21   -1    0    0  501  502  0.00000000000E+00  0.00000000000E+00  0.60818488840E+02  0.60818488840E+02  0.00000000000E+00 0. -1.
         21   -1    0    0  502  503 -0.00000000000E+00 -0.00000000000E+00 -0.10611465825E+04  0.10611465825E+04  0.00000000000E+00 0. -1.
          6    1    1    2  501    0 -0.40573026159E+02  0.17319244548E+03 -0.62723863408E+03  0.67428042957E+03  0.17200000000E+03 0. -1.
         -6    1    1    2    0  503  0.40573026159E+02 -0.17319244548E+03 -0.37308945956E+03  0.44768464175E+03  0.17200000000E+03 0. -1.
</event>
<event>
 4    1  0.1249554E+000  0.1823038E+03  0.7818608E-02  0.1165592E+00
         21   -1    0    0  501  502  0.00000000000E+00  0.00000000000E+00  0.27124484664E+03  0.27124484664E+03  0.00000000000E+00 0.  1.
         21   -1    0    0  502  503 -0.00000000000E+00 -0.00000000000E+00 -0.12427563962E+03  0.12427563962E+03  0.00000000000E+00 0.  1.
          6    1    1    2  501    0  0.55266733601E+02  0.24418796033E+02  0.50023162677E+02  0.18904233983E+03  0.17200000000E+03 0.  1.
         -6    1    1    2    0  503 -0.55266733601E+02 -0.24418796033E+02  0.96946044343E+02  0.20647814644E+03  0.17200000000E+03 0.  1.
</event>
<event>
 4    1  0.1249554E+000  0.1851408E+03  0.7818608E-02  0.1162918E+00
         21   -1    0    0  503  502  0.00000000000E+00  0.00000000000E+00  0.17760502439E+03  0.17760502439E+03  0.00000000000E+00 0.  1.
         21   -1    0    0  501  503 -0.00000000000E+00 -0.00000000000E+00 -0.19799426369E+03  0.19799426369E+03  0.00000000000E+00 0.  1.
          6    1    1    2  501    0  0.54826891176E+02 -0.41074863188E+02  0.19642724410E+02  0.18617993717E+03  0.17200000000E+03 0.  1.
         -6    1    1    2    0  502 -0.54826891176E+02  0.41074863188E+02 -0.40031963714E+02  0.18941935091E+03  0.17200000000E+03 0.  1.
</event>
<event>
 4    1  0.1249554E+000  0.2196022E+03  0.7818608E-02  0.1134180E+00
         21   -1    0    0  501  502  0.00000000000E+00  0.00000000000E+00  0.10423626334E+03  0.10423626334E+03  0.00000000000E+00 0. -1.
         21   -1    0    0  502  503 -0.00000000000E+00 -0.00000000000E+00 -0.56439269157E+03  0.56439269157E+03  0.00000000000E+00 0. -1.
          6    1    1    2  501    0 -0.13400431132E+03  0.26152708008E+02 -0.88135940763E+02  0.23662853514E+03  0.17200000000E+03 0. -1.
         -6    1    1    2    0  503  0.13400431132E+03 -0.26152708008E+02 -0.37202048746E+03  0.43200041977E+03  0.17200000000E+03 0. -1.
</event>
<event>
 4    1  0.1249554E+000  0.2125970E+03  0.7818608E-02  0.1139526E+00
         21   -1    0    0  503  502  0.00000000000E+00  0.00000000000E+00  0.10180173357E+03  0.10180173357E+03  0.00000000000E+00 0. -1.
         21   -1    0    0  501  503 -0.00000000000E+00 -0.00000000000E+00 -0.55877583216E+03  0.55877583216E+03  0.00000000000E+00 0. -1.
          6    1    1    2  501    0  0.10781845079E+03 -0.63155922157E+02 -0.78778589173E+02  0.22672352094E+03  0.17200000000E+03 0.  1.
         -6    1    1    2    0  502 -0.10781845079E+03  0.63155922157E+02 -0.37819550943E+03  0.43385404479E+03  0.17200000000E+03 0.  1.
</event>
<event>
 4    1  0.1249554E+000  0.1902128E+03  0.7818608E-02  0.1158270E+00
         21   -1    0    0  503  502  0.00000000000E+00  0.00000000000E+00  0.83911182741E+02  0.83911182741E+02  0.00000000000E+00 0. -1.
         21   -1    0    0  501  503 -0.00000000000E+00 -0.00000000000E+00 -0.44022491623E+03  0.44022491623E+03  0.00000000000E+00 0. -1.
          6    1    1    2  501    0 -0.58977682799E+02 -0.55843979679E+02 -0.21571917982E+03  0.28760334087E+03  0.17200000000E+03 0. -1.
         -6    1    1    2    0  502  0.58977682799E+02  0.55843979679E+02 -0.14059455367E+03  0.23653275810E+03  0.17200000000E+03 0. -1.
</event>
<event>
 4    1  0.1249554E+000  0.1988981E+03  0.7818608E-02  0.1150672E+00
         21   -1    0    0  501  502  0.00000000000E+00  0.00000000000E+00  0.21099100594E+03  0.21099100594E+03  0.00000000000E+00 0.  1.
         21   -1    0    0  502  503 -0.00000000000E+00 -0.00000000000E+00 -0.21858905266E+03  0.21858905266E+03  0.00000000000E+00 0.  1.
          6    1    1    2  501    0 -0.50256618688E+02 -0.86317674034E+02  0.77206583433E+02  0.21335727102E+03  0.17200000000E+03 0.  1.
         -6    1    1    2    0  503  0.50256618688E+02  0.86317674034E+02 -0.84804630156E+02  0.21622278758E+03  0.17200000000E+03 0.  1.
</event>
<event>
 4    1  0.1249554E+000  0.1731661E+03  0.7818608E-02  0.1174586E+00
         21   -1    0    0  503  502  0.00000000000E+00  0.00000000000E+00  0.19600545748E+03  0.19600545748E+03  0.00000000000E+00 0.  1.
         21   -1    0    0  501  503 -0.00000000000E+00 -0.00000000000E+00 -0.15503831693E+03  0.15503831693E+03  0.00000000000E+00 0.  1.
          6    1    1    2  501    0  0.18928175462E+02  0.66510130296E+01  0.40667543217E+02  0.17787737594E+03  0.17200000000E+03 0. -1.
         -6    1    1    2    0  502 -0.18928175462E+02 -0.66510130296E+01  0.29959733594E+00  0.17316639847E+03  0.17200000000E+03 0. -1.
</event>
<event>
 4    1  0.1249554E+000  0.1741691E+03  0.7818608E-02  0.1173569E+00
         21   -1    0    0  501  502  0.00000000000E+00  0.00000000000E+00  0.32105589557E+03  0.32105589557E+03  0.00000000000E+00 0. -1.
         21   -1    0    0  502  503 -0.00000000000E+00 -0.00000000000E+00 -0.95130038088E+02  0.95130038088E+02  0.00000000000E+00 0. -1.
          6    1    1    2  501    0 -0.16225357679E+02  0.22081687174E+02  0.13010247738E+03  0.21739714294E+03  0.17200000000E+03 0. -1.
         -6    1    1    2    0  503  0.16225357679E+02 -0.22081687174E+02  0.95823380111E+02  0.19878879072E+03  0.17200000000E+03 0. -1.
</event>
<event>
 4    1  0.1249554E+000  0.2378845E+03  0.7818608E-02  0.1121210E+00
         21   -1    0    0  503  502  0.00000000000E+00  0.00000000000E+00  0.36127493454E+03  0.36127493454E+03  0.00000000000E+00 0.  1.
         21   -1    0    0  501  503 -0.00000000000E+00 -0.00000000000E+00 -0.16062031598E+03  0.16062031598E+03  0.00000000000E+00 0. -1.
          6    1    1    2  501    0 -0.16433199276E+03  0.20611847840E+00  0.14142068392E+03  0.27674691718E+03  0.17200000000E+03 0.  1.
         -6    1    1    2    0  502  0.16433199276E+03 -0.20611847840E+00  0.59233934640E+02  0.24514833335E+03  0.17200000000E+03 0.  1.
</event>
<event>
 4    1  0.1249554E+000  0.3400572E+03  0.7818608E-02  0.1066772E+00
         21   -1    0    0  503  502  0.00000000000E+00  0.00000000000E+00  0.14563337038E+04  0.14563337038E+04  0.00000000000E+00 0.  1.
         21   -1    0    0  501  503 -0.00000000000E+00 -0.00000000000E+00 -0.81252786348E+02  0.81252786348E+02  0.00000000000E+00 0. -1.
          6    1    1    2  501    0  0.27770031478E+03 -0.94538180779E+02  0.57157817249E+03  0.66508686630E+03  0.17200000000E+03 0.  1.
         -6    1    1    2    0  502 -0.27770031478E+03  0.94538180779E+02  0.80350274496E+03  0.87249962385E+03  0.17200000000E+03 0.  1.
</event>
<event>
 4    1  0.1249554E+000  0.1862834E+03  0.7818608E-02  0.1161857E+00
         21   -1    0    0  503  502  0.00000000000E+00  0.00000000000E+00  0.20736120403E+02  0.20736120403E+02  0.00000000000E+00 0.  1.
         21   -1    0    0  501  503 -0.00000000000E+00 -0.00000000000E+00 -0.19957368114E+04  0.19957368114E+04  0.00000000000E+00 0.  1.
          6    1    1    2  501    0 -0.51046546710E+02  0.50117260834E+02 -0.13926463801E+04  0.14050499741E+04  0.17200000000E+03 0.  1.
         -6    1    1    2    0  502  0.51046546710E+02 -0.50117260834E+02 -0.58235431091E+03  0.61142295770E+03  0.17200000000E+03 0.  1.
</event>
<event>
 4    1  0.1249554E+000  0.1745589E+03  0.7818608E-02  0.1173175E+00
         21   -1    0    0  503  502  0.00000000000E+00  0.00000000000E+00  0.10288338931E+04  0.10288338931E+04  0.00000000000E+00 0.  1.
         21   -1    0    0  501  503 -0.00000000000E+00 -0.00000000000E+00 -0.52648197680E+02  0.52648197680E+02  0.00000000000E+00 0.  1.
          6    1    1    2  501    0  0.29607505920E+02 -0.31924337646E+01  0.13044347389E+03  0.21791350559E+03  0.17200000000E+03 0. -1.
         -6    1    1    2    0  502 -0.29607505920E+02  0.31924337646E+01  0.84574222153E+03  0.86356858518E+03  0.17200000000E+03 0. -1.
</event>
<event>
 4    1  0.1249554E+000  0.2037758E+03  0.7818608E-02  0.1146592E+00
         21   -1    0    0  501  502  0.00000000000E+00  0.00000000000E+00  0.96943538774E+03  0.96943538774E+03  0.00000000000E+00 0. -1.
         21   -1    0    0  502  503 -0.00000000000E+00 -0.00000000000E+00 -0.12183260288E+03  0.12183260288E+03  0.00000000000E+00 0. -1.
          6    1    1    2  501    0  0.42787236589E+02  0.10054766095E+03 -0.15568178804E+02  0.20436963553E+03  0.17200000000E+03 0.  1.
         -6    1    1    2    0  503 -0.42787236589E+02 -0.10054766095E+03  0.86317096366E+03  0.88689835508E+03  0.17200000000E+03 0.  1.
</event>
<event>
 4    1  0.1249554E+000  0.2209988E+03  0.7818608E-02  0.1133141E+00
         21   -1    0    0  503  502  0.00000000000E+00  0.00000000000E+00  0.67063410928E+03  0.67063410928E+03  0.00000000000E+00 0.  1.
         21   -1    0    0  501  503 -0.00000000000E+00 -0.00000000000E+00 -0.78424899646E+02  0.78424899646E+02  0.00000000000E+00 0.  1.
          6    1    1    2  501    0 -0.68239280449E+02  0.12082988251E+03  0.39616463644E+03  0.45363738721E+03  0.17200000000E+03 0.  1.
         -6    1    1    2    0  502  0.68239280449E+02 -0.12082988251E+03  0.19604457320E+03  0.29542162173E+03  0.17200000000E+03 0.  1.
</event>
<event>
 4    1  0.1249554E+000  0.2349045E+03  0.7818608E-02  0.1123235E+00
         21   -1    0    0  503  502  0.00000000000E+00  0.00000000000E+00  0.14100918594E+03  0.14100918594E+03  0.00000000000E+00 0.  1.
         21   -1    0    0  501  503 -0.00000000000E+00 -0.00000000000E+00 -0.69622116858E+03  0.69622116858E+03  0.00000000000E+00 0. -1.
          6    1    1    2  501    0 -0.14191474706E+03 -0.73867018656E+02 -0.55463088393E+03  0.60232511926E+03  0.17200000000E+03 0. -1.
         -6    1    1    2    0  502  0.14191474706E+03  0.73867018656E+02 -0.58109870760E+00  0.23490523526E+03  0.17200000000E+03 0.  1.
</event>
<event>
 4    1  0.1249554E+000  0.2363297E+03  0.7818608E-02  0.1122262E+00
         21   -1    0    0  503  502  0.00000000000E+00  0.00000000000E+00  0.15335929759E+03  0.15335929759E+03  0.00000000000E+00 0. -1.
         21   -1    0    0  501  503 -0.00000000000E+00 -0.00000000000E+00 -0.36471914574E+03  0.36471914574E+03  0.00000000000E+00 0.  1.
          6    1    1    2  501    0 -0.16205001468E+03  0.27408071495E+01 -0.11555902108E+03  0.26306958516E+03  0.17200000000E+03 0. -1.
         -6    1    1    2    0  502  0.16205001468E+03 -0.27408071495E+01 -0.95800827063E+02  0.25500885817E+03  0.17200000000E+03 0.  1.
</event>
<event>
 4    1  0.1249554E+000  0.2100552E+03  0.7818608E-02  0.1141522E+00
         21   -1    0    0  501  502  0.00000000000E+00  0.00000000000E+00  0.15682381382E+04  0.15682381382E+04  0.00000000000E+00 0. -1.
         21   -1    0    0  502  503 -0.00000000000E+00 -0.00000000000E+00 -0.26714508620E+03  0.26714508620E+03  0.00000000000E+00 0. -1.
          6    1    1    2  501    0  0.28932456646E+02 -0.11705596593E+03  0.15185686895E+04  0.15330277398E+04  0.17200000000E+03 0. -1.
         -6    1    1    2    0  503 -0.28932456646E+02  0.11705596593E+03 -0.21747563747E+03  0.30235548465E+03  0.17200000000E+03 0. -1.
</event>
<event>
 4    1  0.1249554E+000  0.1757200E+03  0.7818608E-02  0.1172011E+00
         21   -1    0    0  503  502  0.00000000000E+00  0.00000000000E+00  0.49689791045E+03  0.49689791045E+03  0.00000000000E+00 0. -1.
         21   -1    0    0  501  503 -0.00000000000E+00 -0.00000000000E+00 -0.96384920535E+02  0.96384920535E+02  0.00000000000E+00 0. -1.
          6    1    1    2  501    0  0.10203423581E+02 -0.34487585016E+02  0.37707263655E+03  0.41600634203E+03  0.17200000000E+03 0. -1.
         -6    1    1    2    0  502 -0.10203423581E+02  0.34487585016E+02  0.23440353372E+02  0.17727648896E+03  0.17200000000E+03 0. -1.
</event>
<event>
 4    1  0.1249554E+000  0.1776196E+03  0.7818608E-02  0.1170127E+00
         21   -1    0    0  503  502  0.00000000000E+00  0.00000000000E+00  0.15745887264E+04  0.15745887264E+04  0.00000000000E+00 0. -1.
         21   -1    0    0  501  503 -0.00000000000E+00 -0.00000000000E+00 -0.31971410329E+02  0.31971410329E+02  0.00000000000E+00 0. -1.
          6    1    1    2  501    0  0.10000362271E+01  0.44313824074E+02  0.28051174727E+03  0.33201740230E+03  0.17200000000E+03 0. -1.
         -6    1    1    2    0  502 -0.10000362271E+01 -0.44313824074E+02  0.12621055688E+04  0.12745427344E+04  0.17200000000E+03 0. -1.
</event>
<event>
 4    1  0.1249554E+000  0.1907614E+03  0.7818608E-02  0.1157776E+00
         21   -1    0    0  501  502  0.00000000000E+00  0.00000000000E+00  0.14643426033E+03  0.14643426033E+03  0.00000000000E+00 0.  1.
         21   -1    0    0  502  503 -0.00000000000E+00 -0.00000000000E+00 -0.28340824535E+03  0.28340824535E+03  0.00000000000E+00 0.  1.
          6    1    1    2  501    0 -0.41930259350E+02  0.71047548476E+02 -0.14390849795E+03  0.23895513507E+03  0.17200000000E+03 0. -1.
         -6    1    1    2    0  503  0.41930259350E+02 -0.71047548476E+02  0.69345129266E+01  0.19088737062E+03  0.17200000000E+03 0. -1.
</event>
<event>
 4    1  0.1249554E+000  0.2593290E+03  0.7818608E-02  0.1107547E+00
         21   -1    0    0  501  502  0.00000000000E+00  0.00000000000E+00  0.17290918968E+04  0.17290918968E+04  0.00000000000E+00 0.  1.
         21   -1    0    0  502  503 -0.00000000000E+00 -0.00000000000E+00 -0.40143799085E+02  0.40143799085E+02  0.00000000000E+00 0.  1.
          6    1    1    2  501    0  0.96970987886E+02 -0.16811952324E+03  0.10005520907E+04  0.10336130962E+04  0.17200000000E+03 0.  1.
         -6    1    1    2    0  503 -0.96970987886E+02  0.16811952324E+03  0.68839600706E+03  0.73562259966E+03  0.17200000000E+03 0.  1.
</event>
<event>
 4    1  0.1249554E+000  0.1724383E+03  0.7818608E-02  0.1175329E+00
         21   -1    0    0  501  502  0.00000000000E+00  0.00000000000E+00  0.12437090420E+04  0.12437090420E+04  0.00000000000E+00 0.  1.
         21   -1    0    0  502  503 -0.00000000000E+00 -0.00000000000E+00 -0.35972382494E+02  0.35972382494E+02  0.00000000000E+00 0.  1.
          6    1    1    2  501    0  0.70627844937E+01 -0.10054216347E+02  0.97440773422E+03  0.98954808003E+03  0.17200000000E+03 0.  1.
         -6    1    1    2    0  503 -0.70627844937E+01  0.10054216347E+02  0.23332892528E+03  0.29013334445E+03  0.17200000000E+03 0.  1.
</event>
<event>
 4    1  0.1249554E+000  0.1885837E+03  0.7818608E-02  0.1159745E+00
         21   -1    0    0  501  502  0.00000000000E+00  0.00000000000E+00  0.24558747573E+03  0.24558747573E+03  0.00000000000E+00 0.  1.
         21   -1    0    0  502  503 -0.00000000000E+00 -0.00000000000E+00 -0.14910880739E+03  0.14910880739E+03  0.00000000000E+00 0. -1.
          6    1    1    2  501    0  0.68160014140E+02  0.36524160436E+02  0.81743429645E+02  0.20553780702E+03  0.17200000000E+03 0.  1.
         -6    1    1    2    0  503 -0.68160014140E+02 -0.36524160436E+02  0.14735238690E+02  0.18915847611E+03  0.17200000000E+03 0. -1.
</event>
<event>
 4    1  0.1249554E+000  0.1743421E+03  0.7818608E-02  0.1173394E+00
         21   -1    0    0  503  502  0.00000000000E+00  0.00000000000E+00  0.67560457486E+03  0.67560457486E+03  0.00000000000E+00 0. -1.
         21   -1    0    0  501  503 -0.00000000000E+00 -0.00000000000E+00 -0.10329717801E+03  0.10329717801E+03  0.00000000000E+00 0. -1.
          6    1    1    2  501    0  0.20365750591E+02 -0.19910259855E+02 -0.64440253554E+01  0.17446119255E+03  0.17200000000E+03 0. -1.
         -6    1    1    2    0  502 -0.20365750591E+02  0.19910259855E+02  0.57875142221E+03  0.60444056032E+03  0.17200000000E+03 0. -1.
</event>
<event>
 4    1  0.1249554E+000  0.2571444E+03  0.7818608E-02  0.1108871E+00
         21   -1    0    0  501  502  0.00000000000E+00  0.00000000000E+00  0.70960757847E+03  0.70960757847E+03  0.00000000000E+00 0. -1.
         21   -1    0    0  502  503 -0.00000000000E+00 -0.00000000000E+00 -0.93229874593E+02  0.93229874593E+02  0.00000000000E+00 0.  1.
          6    1    1    2  501    0 -0.71052247458E+02  0.17745647715E+03  0.29916899189E+03  0.39449373741E+03  0.17200000000E+03 0.  1.
         -6    1    1    2    0  503  0.71052247458E+02 -0.17745647715E+03  0.31720871199E+03  0.40834371565E+03  0.17200000000E+03 0. -1.
</event>
<event>
 4    1  0.1249554E+000  0.3710687E+03  0.7818608E-02  0.1054285E+00
         21   -1    0    0  503  502  0.00000000000E+00  0.00000000000E+00  0.57653233200E+03  0.57653233200E+03  0.00000000000E+00 0.  1.
         21   -1    0    0  501  503 -0.00000000000E+00 -0.00000000000E+00 -0.56070879330E+03  0.56070879330E+03  0.00000000000E+00 0. -1.
          6    1    1    2  501    0 -0.26966963870E+03  0.18811229376E+03 -0.42291387176E+03  0.56262606768E+03  0.17200000000E+03 0. -1.
         -6    1    1    2    0  502  0.26966963870E+03 -0.18811229376E+03  0.43873741046E+03  0.57461505762E+03  0.17200000000E+03 0.  1.
</event>
<event>
 4    1  0.1249554E+000  0.2184318E+03  0.7818608E-02  0.1135058E+00
         21   -1    0    0  503  502  0.00000000000E+00  0.00000000000E+00  0.45744367743E+03  0.45744367743E+03  0.00000000000E+00 0.  1.
         21   -1    0    0  501  503 -0.00000000000E+00 -0.00000000000E+00 -0.12125752494E+03  0.12125752494E+03  0.00000000000E+00 0.  1.
          6    1    1    2  501    0  0.48045862106E+02  0.12577782220E+03  0.59894695720E+02  0.22649467984E+03  0.17200000000E+03 0.  1.
         -6    1    1    2    0  502 -0.48045862106E+02 -0.12577782220E+03  0.27629145677E+03  0.35220652252E+03  0.17200000000E+03 0.  1.
</event>
<event>
 4    1  0.1249554E+000  0.1966233E+03  0.7818608E-02  0.1152620E+00
         21   -1    0    0  503  502  0.00000000000E+00  0.00000000000E+00  0.13945405011E+03  0.13945405011E+03  0.00000000000E+00 0.  1.
         21   -1    0    0  501  503 -0.00000000000E+00 -0.00000000000E+00 -0.33173992227E+03  0.33173992227E+03  0.00000000000E+00 0.  1.
          6    1    1    2  501    0 -0.95001972137E+02 -0.71656729771E+01 -0.19164487869E+03  0.27456962889E+03  0.17200000000E+03 0. -1.
         -6    1    1    2    0  502  0.95001972137E+02  0.71656729771E+01 -0.64099345885E+00  0.19662434349E+03  0.17200000000E+03 0. -1.
</event>
<event>
 4    1  0.1249554E+000  0.2710345E+03  0.7818608E-02  0.1100689E+00
         21   -1    0    0  503  502  0.00000000000E+00  0.00000000000E+00  0.14775706607E+04  0.14775706607E+04  0.00000000000E+00 0. -1.
         21   -1    0    0  501  503 -0.00000000000E+00 -0.00000000000E+00 -0.54856477472E+02  0.54856477472E+02  0.00000000000E+00 0. -1.
          6    1    1    2  501    0  0.64743204438E+01  0.20936524084E+03  0.94589563597E+03  0.98396050482E+03  0.17200000000E+03 0. -1.
         -6    1    1    2    0  502 -0.64743204438E+01 -0.20936524084E+03  0.47681854729E+03  0.54846663338E+03  0.17200000000E+03 0. -1.
</event>
<event>
 4    1  0.1249554E+000  0.2104366E+03  0.7818608E-02  0.1141221E+00
         21   -1    0    0  501  502  0.00000000000E+00  0.00000000000E+00  0.19218516109E+03  0.19218516109E+03  0.00000000000E+00 0.  1.
         21   -1    0    0  502  503 -0.00000000000E+00 -0.00000000000E+00 -0.28615103310E+03  0.28615103310E+03  0.00000000000E+00 0.  1.
          6    1    1    2  501    0  0.68735243935E+02  0.99875113512E+02  0.58564750358E+02  0.21843397639E+03  0.17200000000E+03 0.  1.
         -6    1    1    2    0  503 -0.68735243935E+02 -0.99875113512E+02 -0.15253062236E+03  0.25990221780E+03  0.17200000000E+03 0.  1.
</event>
<event>
 4    1  0.1249554E+000  0.1878996E+03  0.7818608E-02  0.1160369E+00
         21   -1    0    0  503  502  0.00000000000E+00  0.00000000000E+00  0.27296342854E+03  0.27296342854E+03  0.00000000000E+00 0.  1.
         21   -1    0    0  501  503 -0.00000000000E+00 -0.00000000000E+00 -0.41288500961E+03  0.41288500961E+03  0.00000000000E+00 0.  1.
          6    1    1    2  501    0  0.55719249384E+02  0.51162892088E+02 -0.35413932873E+03  0.40090016267E+03  0.17200000000E+03 0.  1.
         -6    1    1    2    0  502 -0.55719249384E+02 -0.51162892088E+02  0.21421774767E+03  0.28494827547E+03  0.17200000000E+03 0.  1.
</event>
<event>
 4    1  0.1249554E+000  0.2171796E+03  0.7818608E-02  0.1136003E+00
         21   -1    0    0  503  502  0.00000000000E+00  0.00000000000E+00  0.20835802734E+03  0.20835802734E+03  0.00000000000E+00 0. -1.
         21   -1    0    0  501  503 -0.00000000000E+00 -0.00000000000E+00 -0.23324500830E+03  0.23324500830E+03  0.00000000000E+00 0. -1.
          6    1    1    2  501    0 -0.11823636998E+03 -0.60026051580E+02  0.25451953845E+02  0.21866588213E+03  0.17200000000E+03 0.  1.
         -6    1    1    2    0  502  0.11823636998E+03  0.60026051580E+02 -0.50338934809E+02  0.22293715350E+03  0.17200000000E+03 0.  1.
</event>
<event>
 4    1  0.1249554E+000  0.1868564E+03  0.7818608E-02  0.1161328E+00
         21   -1    0    0  503  502  0.00000000000E+00  0.00000000000E+00  0.61347903055E+02  0.61347903055E+02  0.00000000000E+00 0. -1.
         21   -1    0    0  501  503 -0.00000000000E+00 -0.00000000000E+00 -0.65504531123E+03  0.65504531123E+03  0.00000000000E+00 0. -1.
          6    1    1    2  501    0  0.72451189131E+02  0.90620851649E+01 -0.42656844674E+03  0.46569940514E+03  0.17200000000E+03 0. -1.
         -6    1    1    2    0  502 -0.72451189131E+02 -0.90620851649E+01 -0.16712896144E+03  0.25069380915E+03  0.17200000000E+03 0. -1.
</event>
<event>
 4    1  0.1249554E+000  0.2011224E+03  0.7818608E-02  0.1148795E+00
         21   -1    0    0  503  502  0.00000000000E+00  0.00000000000E+00  0.35338002494E+03  0.35338002494E+03  0.00000000000E+00 0.  1.
         21   -1    0    0  501  503 -0.00000000000E+00 -0.00000000000E+00 -0.25741235090E+03  0.25741235090E+03  0.00000000000E+00 0.  1.
          6    1    1    2  501    0 -0.69082320682E+02 -0.78063240081E+02 -0.17959634080E+03  0.26963879934E+03  0.17200000000E+03 0.  1.
         -6    1    1    2    0  502  0.69082320682E+02  0.78063240081E+02  0.27556401484E+03  0.34115357650E+03  0.17200000000E+03 0.  1.
</event>
<event>
 4    1  0.1249554E+000  0.1830833E+03  0.7818608E-02  0.1164852E+00
         21   -1    0    0  501  502  0.00000000000E+00  0.00000000000E+00  0.49669578283E+02  0.49669578283E+02  0.00000000000E+00 0.  1.
         21   -1    0    0  502  503 -0.00000000000E+00 -0.00000000000E+00 -0.68328387512E+03  0.68328387512E+03  0.00000000000E+00 0.  1.
          6    1    1    2  501    0 -0.50674806583E+02 -0.36980577170E+02 -0.35752338075E+03  0.40167457835E+03  0.17200000000E+03 0. -1.
         -6    1    1    2    0  503  0.50674806583E+02  0.36980577170E+02 -0.27609091609E+03  0.33127887505E+03  0.17200000000E+03 0. -1.
</event>
<event>
 4    1  0.1249554E+000  0.2183840E+03  0.7818608E-02  0.1135094E+00
         21   -1    0    0  503  502  0.00000000000E+00  0.00000000000E+00  0.32164900464E+02  0.32164900464E+02  0.00000000000E+00 0.  1.
         21   -1    0    0  501  503 -0.00000000000E+00 -0.00000000000E+00 -0.20986859012E+04  0.20986859012E+04  0.00000000000E+00 0.  1.
          6    1    1    2  501    0  0.30600727623E+02 -0.13103886140E+03 -0.16104616001E+04  0.16252009578E+04  0.17200000000E+03 0. -1.
         -6    1    1    2    0  502 -0.30600727623E+02  0.13103886140E+03 -0.45605940064E+03  0.50564984390E+03  0.17200000000E+03 0. -1.
</event>
<event>
 4    1  0.1249554E+000  0.1846883E+03  0.7818608E-02  0.1163341E+00
         21   -1    0    0  501  502  0.00000000000E+00  0.00000000000E+00  0.15309568560E+03  0.15309568560E+03  0.00000000000E+00 0.  1.
         21   -1    0    0  502  503 -0.00000000000E+00 -0.00000000000E+00 -0.23281843126E+03  0.23281843126E+03  0.00000000000E+00 0.  1.
          6    1    1    2  501    0 -0.64622695025E+02  0.18699705042E+02  0.16482688836E+00  0.18468838309E+03  0.17200000000E+03 0.  1.
         -6    1    1    2    0  503  0.64622695025E+02 -0.18699705042E+02 -0.79887572546E+02  0.20122573376E+03  0.17200000000E+03 0.  1.
</event>
<event>
 4    1  0.1249554E+000  0.2933687E+03  0.7818608E-02  0.1088603E+00
         21   -1    0    0  503  502  0.00000000000E+00  0.00000000000E+00  0.53429810747E+03  0.53429810747E+03  0.00000000000E+00 0. -1.
         21   -1    0    0  501  503 -0.00000000000E+00 -0.00000000000E+00 -0.87759849024E+03  0.87759849024E+03  0.00000000000E+00 0.  1.
          6    1    1    2  501    0  0.12112073015E+03  0.20447732992E+03 -0.80952932615E+03  0.86104758267E+03  0.17200000000E+03 0.  1.
         -6    1    1    2    0  502 -0.12112073015E+03 -0.20447732992E+03  0.46622894338E+03  0.55084901504E+03  0.17200000000E+03 0. -1.
</event>
<event>
 4    1  0.1249554E+000  0.1797645E+03  0.7818608E-02  0.1168031E+00
         21   -1    0    0  503  502  0.00000000000E+00  0.00000000000E+00  0.13205666838E+03  0.13205666838E+03  0.00000000000E+00 0. -1.
         21   -1    0    0  501  503 -0.00000000000E+00 -0.00000000000E+00 -0.32230876987E+03  0.32230876987E+03  0.00000000000E+00 0. -1.
          6    1    1    2  501    0  0.51289942072E+02 -0.10030396275E+02 -0.20660001292E+03  0.27385914691E+03  0.17200000000E+03 0. -1.
         -6    1    1    2    0  502 -0.51289942072E+02  0.10030396275E+02  0.16347911432E+02  0.18050629135E+03  0.17200000000E+03 0. -1.
</event>
<event>
 4    1  0.1249554E+000  0.3931845E+03  0.7818608E-02  0.1046166E+00
         21   -1    0    0  501  502  0.00000000000E+00  0.00000000000E+00  0.75368904297E+03  0.75368904297E+03  0.00000000000E+00 0.  1.
         21   -1    0    0  502  503 -0.00000000000E+00 -0.00000000000E+00 -0.22063566112E+03  0.22063566112E+03  0.00000000000E+00 0. -1.
          6    1    1    2  501    0 -0.35205608814E+03 -0.32657870480E+02  0.39572909536E+03  0.55784903210E+03  0.17200000000E+03 0. -1.
         -6    1    1    2    0  503  0.35205608814E+03  0.32657870480E+02  0.13732428649E+03  0.41647567199E+03  0.17200000000E+03 0. -1.
</event>
<event>
 4    1  0.1249554E+000  0.2016233E+03  0.7818608E-02  0.1148377E+00
         21   -1    0    0  503  502  0.00000000000E+00  0.00000000000E+00  0.35911528233E+03  0.35911528233E+03  0.00000000000E+00 0. -1.
         21   -1    0    0  501  503 -0.00000000000E+00 -0.00000000000E+00 -0.11601379280E+03  0.11601379280E+03  0.00000000000E+00 0. -1.
          6    1    1    2  501    0  0.38098829916E+02 -0.98063407928E+02  0.84555087163E+02  0.21863557712E+03  0.17200000000E+03 0. -1.
         -6    1    1    2    0  502 -0.38098829916E+02  0.98063407928E+02  0.15854640237E+03  0.25649349801E+03  0.17200000000E+03 0. -1.
</event>
<event>
 4    1  0.1249554E+000  0.2091576E+03  0.7818608E-02  0.1142235E+00
         21   -1    0    0  501  502  0.00000000000E+00  0.00000000000E+00  0.62142481078E+03  0.62142481078E+03  0.00000000000E+00 0. -1.
         21   -1    0    0  502  503 -0.00000000000E+00 -0.00000000000E+00 -0.87019507126E+02  0.87019507126E+02  0.00000000000E+00 0.  1.
          6    1    1    2  501    0 -0.10461606346E+03 -0.56730890012E+02  0.42201505528E+03  0.47100278290E+03  0.17200000000E+03 0.  1.
         -6    1    1    2    0  503  0.10461606346E+03  0.56730890012E+02  0.11239024837E+03  0.23744153500E+03  0.17200000000E+03 0.  1.
</event>
<event>
 4    1  0.1249554E+000  0.1780405E+03  0.7818608E-02  0.1169713E+00
         21   -1    0    0  503  502  0.00000000000E+00  0.00000000000E+00  0.43935773890E+03  0.43935773890E+03  0.00000000000E+00 0. -1.
         21   -1    0    0  501  503 -0.00000000000E+00 -0.00000000000E+00 -0.10136388483E+03  0.10136388483E+03  0.00000000000E+00 0. -1.
          6    1    1    2  501    0  0.23214803162E+02  0.39692286187E+02  0.23846597532E+02  0.17963035624E+03  0.17200000000E+03 0. -1.
         -6    1    1    2    0  502 -0.23214803162E+02 -0.39692286187E+02  0.31414725654E+03  0.36109126749E+03  0.17200000000E+03 0. -1.
</event>
<event>
 4    1  0.1249554E+000  0.2157571E+03  0.7818608E-02  0.1137086E+00
         21   -1    0    0  501  502  0.00000000000E+00  0.00000000000E+00  0.12050074135E+03  0.12050074135E+03  0.00000000000E+00 0.  1.
         21   -1    0    0  502  503 -0.00000000000E+00 -0.00000000000E+00 -0.47455521379E+03  0.47455521379E+03  0.00000000000E+00 0.  1.
          6    1    1    2  501    0  0.12452507505E+03 -0.38218002505E+02 -0.48729071145E+02  0.22119139316E+03  0.17200000000E+03 0.  1.
         -6    1    1    2    0  503 -0.12452507505E+03  0.38218002505E+02 -0.30532540129E+03  0.37386456199E+03  0.17200000000E+03 0.  1.
</event>
<event>
 4    1  0.1249554E+000  0.2010980E+03  0.7818608E-02  0.1148816E+00
         21   -1    0    0  503  502  0.00000000000E+00  0.00000000000E+00  0.66582262669E+03  0.66582262669E+03  0.00000000000E+00 0. -1.
         21   -1    0    0  501  503 -0.00000000000E+00 -0.00000000000E+00 -0.11773011795E+03  0.11773011795E+03  0.00000000000E+00 0. -1.
          6    1    1    2  501    0  0.17058961257E+02 -0.10278809079E+03  0.14601168190E+01  0.20110328617E+03  0.17200000000E+03 0. -1.
         -6    1    1    2    0  502 -0.17058961257E+02  0.10278809079E+03  0.54663239192E+03  0.58244945847E+03  0.17200000000E+03 0. -1.
</event>
<event>
 4    1  0.1249554E+000  0.1881871E+03  0.7818608E-02  0.1160107E+00
         21   -1    0    0  501  502  0.00000000000E+00  0.00000000000E+00  0.46343779421E+03  0.46343779421E+03  0.00000000000E+00 0.  1.
         21   -1    0    0  502  503 -0.00000000000E+00 -0.00000000000E+00 -0.11094179137E+03  0.11094179137E+03  0.00000000000E+00 0.  1.
          6    1    1    2  501    0  0.35892666777E+02 -0.67395225615E+02  0.33645764495E+03  0.38551024216E+03  0.17200000000E+03 0.  1.
         -6    1    1    2    0  503 -0.35892666777E+02  0.67395225615E+02  0.16038357893E+02  0.18886934343E+03  0.17200000000E+03 0.  1.
</event>
<event>
 4    1  0.1249554E+000  0.1875568E+03  0.7818608E-02  0.1160684E+00
         21   -1    0    0  503  502  0.00000000000E+00  0.00000000000E+00  0.21953757685E+03  0.21953757685E+03  0.00000000000E+00 0.  1.
         21   -1    0    0  501  503 -0.00000000000E+00 -0.00000000000E+00 -0.21688825230E+03  0.21688825230E+03  0.00000000000E+00 0.  1.
          6    1    1    2  501    0 -0.73586865453E+02 -0.13361969928E+02  0.11285049204E+03  0.21888993252E+03  0.17200000000E+03 0.  1.
         -6    1    1    2    0  502  0.73586865453E+02  0.13361969928E+02 -0.11020116749E+03  0.21753589663E+03  0.17200000000E+03 0.  1.
</event>
<event>
 4    1  0.1249554E+000  0.2456083E+03  0.7818608E-02  0.1116112E+00
         21   -1    0    0  503  502  0.00000000000E+00  0.00000000000E+00  0.70794526092E+03  0.70794526092E+03  0.00000000000E+00 0.  1.
         21   -1    0    0  501  503 -0.00000000000E+00 -0.00000000000E+00 -0.22878217249E+03  0.22878217249E+03  0.00000000000E+00 0. -1.
          6    1    1    2  501    0 -0.13387000707E+03  0.11321778630E+03 -0.13144801218E+03  0.27857140168E+03  0.17200000000E+03 0. -1.
         -6    1    1    2    0  502  0.13387000707E+03 -0.11321778630E+03  0.61061110061E+03  0.65815603174E+03  0.17200000000E+03 0.  1.
</event>
<event>
 4    1  0.1249554E+000  0.1982690E+03  0.7818608E-02  0.1151208E+00
         21   -1    0    0  503  502  0.00000000000E+00  0.00000000000E+00  0.37856835966E+03  0.37856835966E+03  0.00000000000E+00 0.  1.
         21   -1    0    0  501  503 -0.00000000000E+00 -0.00000000000E+00 -0.10477015923E+03  0.10477015923E+03  0.00000000000E+00 0.  1.
          6    1    1    2  501    0 -0.80087486183E+02 -0.57555226365E+02  0.15966775834E+03  0.25456708856E+03  0.17200000000E+03 0. -1.
         -6    1    1    2    0  502  0.80087486183E+02  0.57555226365E+02  0.11413044209E+03  0.22877143033E+03  0.17200000000E+03 0. -1.
</event>
<event>
 4    1  0.1249554E+000  0.3222239E+03  0.7818608E-02  0.1074630E+00
         21   -1    0    0  503  502  0.00000000000E+00  0.00000000000E+00  0.33188831376E+03  0.33188831376E+03  0.00000000000E+00 0.  1.
         21   -1    0    0  501  503 -0.00000000000E+00 -0.00000000000E+00 -0.39172153464E+03  0.39172153464E+03  0.00000000000E+00 0. -1.
          6    1    1    2  501    0 -0.12996103308E+03  0.23948767972E+03 -0.19227364599E+03  0.37522976134E+03  0.17200000000E+03 0. -1.
         -6    1    1    2    0  502  0.12996103308E+03 -0.23948767972E+03  0.13244042510E+03  0.34838008706E+03  0.17200000000E+03 0.  1.
</event>
<event>
 4    1  0.1249554E+000  0.1770564E+03  0.7818608E-02  0.1170683E+00
         21   -1    0    0  503  502  0.00000000000E+00  0.00000000000E+00  0.83922327687E+03  0.83922327687E+03  0.00000000000E+00 0. -1.
         21   -1    0    0  501  503 -0.00000000000E+00 -0.00000000000E+00 -0.43771011453E+02  0.43771011453E+02  0.00000000000E+00 0. -1.
          6    1    1    2  501    0  0.16232659471E+02  0.38748883157E+02  0.22869151536E+03  0.28922099574E+03  0.17200000000E+03 0. -1.
         -6    1    1    2    0  502 -0.16232659471E+02 -0.38748883157E+02  0.56676075006E+03  0.59377329259E+03  0.17200000000E+03 0. -1.
</event>
<event>
 4    1  0.1249554E+000  0.1783409E+03  0.7818608E-02  0.1169418E+00
         21   -1    0    0  501  502  0.00000000000E+00  0.00000000000E+00  0.39132969050E+02  0.39132969050E+02  0.00000000000E+00 0. -1.
         21   -1    0    0  502  503 -0.00000000000E+00 -0.00000000000E+00 -0.89480299506E+03  0.89480299506E+03  0.00000000000E+00 0. -1.
          6    1    1    2  501    0 -0.79200455564E+01 -0.46462412458E+02 -0.28643168448E+03  0.33741457107E+03  0.17200000000E+03 0. -1.
         -6    1    1    2    0  503  0.79200455564E+01  0.46462412458E+02 -0.56923834153E+03  0.59652139304E+03  0.17200000000E+03 0. -1.
</event>
<event>
 4    1  0.1249554E+000  0.1794169E+03  0.7818608E-02  0.1168369E+00
         21   -1    0    0  503  502  0.00000000000E+00  0.00000000000E+00  0.11597401742E+04  0.11597401742E+04  0.00000000000E+00 0. -1.
         21   -1    0    0  501  503 -0.00000000000E+00 -0.00000000000E+00 -0.44813293461E+02  0.44813293461E+02  0.00000000000E+00 0. -1.
          6    1    1    2  501    0 -0.33286190839E+02  0.38709946326E+02  0.18589379535E+03  0.25835427923E+03  0.17200000000E+03 0. -1.
         -6    1    1    2    0  502  0.33286190839E+02 -0.38709946326E+02  0.92903308535E+03  0.94619918840E+03  0.17200000000E+03 0. -1.
</event>
<event>
 4    1  0.1249554E+000  0.1995165E+03  0.7818608E-02  0.1150148E+00
         21   -1    0    0  503  502  0.00000000000E+00  0.00000000000E+00  0.76521901939E+02  0.76521901939E+02  0.00000000000E+00 0.  1.
         21   -1    0    0  501  503 -0.00000000000E+00 -0.00000000000E+00 -0.54197108524E+03  0.54197108524E+03  0.00000000000E+00 0.  1.
          6    1    1    2  501    0  0.80388738518E+02  0.61322661076E+02 -0.29470301387E+03  0.35588858429E+03  0.17200000000E+03 0.  1.
         -6    1    1    2    0  502 -0.80388738518E+02 -0.61322661076E+02 -0.17074616942E+03  0.26260440289E+03  0.17200000000E+03 0.  1.
</event>
<event>
 4    1  0.1249554E+000  0.3698487E+03  0.7818608E-02  0.1054751E+00
         21   -1    0    0  503  502  0.00000000000E+00  0.00000000000E+00  0.24085837896E+03  0.24085837896E+03  0.00000000000E+00 0. -1.
         21   -1    0    0  501  503 -0.00000000000E+00 -0.00000000000E+00 -0.10955832202E+04  0.10955832202E+04  0.00000000000E+00 0.  1.
          6    1    1    2  501    0  0.32629515842E+03 -0.27120941728E+02 -0.89110404855E+03  0.96480801263E+03  0.17200000000E+03 0.  1.
         -6    1    1    2    0  502 -0.32629515842E+03  0.27120941728E+02  0.36379207343E+02  0.37163358650E+03  0.17200000000E+03 0.  1.
</event>
<event>
 4    1  0.1249554E+000  0.1953776E+03  0.7818608E-02  0.1153699E+00
         21   -1    0    0  503  502  0.00000000000E+00  0.00000000000E+00  0.71949912482E+03  0.71949912482E+03  0.00000000000E+00 0. -1.
         21   -1    0    0  501  503 -0.00000000000E+00 -0.00000000000E+00 -0.69136379374E+02  0.69136379374E+02  0.00000000000E+00 0.  1.
          6    1    1    2  501    0 -0.75924367771E+02 -0.53140380663E+02  0.13500076552E+03  0.23748182324E+03  0.17200000000E+03 0.  1.
         -6    1    1    2    0  502  0.75924367771E+02  0.53140380663E+02  0.51536197992E+03  0.55115368095E+03  0.17200000000E+03 0.  1.
</event>
<event>
 4    1  0.1249554E+000  0.1929857E+03  0.7818608E-02  0.1155796E+00
         21   -1    0    0  503  502  0.00000000000E+00  0.00000000000E+00  0.29278897475E+03  0.29278897475E+03  0.00000000000E+00 0.  1.
         21   -1    0    0  501  503 -0.00000000000E+00 -0.00000000000E+00 -0.29275424101E+03  0.29275424101E+03  0.00000000000E+00 0. -1.
          6    1    1    2  501    0  0.25985424673E+02 -0.83571836076E+02 -0.22014557318E+03  0.29275854807E+03  0.17200000000E+03 0. -1.
         -6    1    1    2    0  502 -0.25985424673E+02  0.83571836076E+02  0.22018030691E+03  0.29278466769E+03  0.17200000000E+03 0.  1.
</event>
<event>
 4    1  0.1249554E+000  0.2314871E+03  0.7818608E-02  0.1125597E+00
         21   -1    0    0  501  502  0.00000000000E+00  0.00000000000E+00  0.42016738213E+03  0.42016738213E+03  0.00000000000E+00 0. -1.
         21   -1    0    0  502  503 -0.00000000000E+00 -0.00000000000E+00 -0.21264937945E+03  0.21264937945E+03  0.00000000000E+00 0.  1.
          6    1    1    2  501    0  0.16143900337E+02  0.15408330856E+03  0.30393679716E+03  0.38205217990E+03  0.17200000000E+03 0. -1.
         -6    1    1    2    0  503 -0.16143900337E+02 -0.15408330856E+03 -0.96418794483E+02  0.25076458168E+03  0.17200000000E+03 0.  1.
</event>
<event>
 4    1  0.1249554E+000  0.1903385E+03  0.7818608E-02  0.1158156E+00
         21   -1    0    0  501  502  0.00000000000E+00  0.00000000000E+00  0.13141187981E+03  0.13141187981E+03  0.00000000000E+00 0. -1.
         21   -1    0    0  502  503 -0.00000000000E+00 -0.00000000000E+00 -0.76350623619E+03  0.76350623619E+03  0.00000000000E+00 0.  1.
          6    1    1    2  501    0 -0.71859560621E+02  0.38483070713E+02  0.41617296606E+02  0.19483516767E+03  0.17200000000E+03 0. -1.
         -6    1    1    2    0  503  0.71859560621E+02 -0.38483070713E+02 -0.67371165299E+03  0.70008294834E+03  0.17200000000E+03 0.  1.
</event>
<event>
 4    1  0.1249554E+000  0.2124480E+03  0.7818608E-02  0.1139642E+00
         21   -1    0    0  501  502  0.00000000000E+00  0.00000000000E+00  0.17770148059E+03  0.17770148059E+03  0.00000000000E+00 0. -1.
         21   -1    0    0  502  503 -0.00000000000E+00 -0.00000000000E+00 -0.25401931377E+03  0.25401931377E+03  0.00000000000E+00 0. -1.
          6    1    1    2  501    0 -0.86908128802E+02  0.89426612173E+02 -0.40534347478E+02  0.21628031612E+03  0.17200000000E+03 0. -1.
         -6    1    1    2    0  503  0.86908128802E+02 -0.89426612173E+02 -0.35783485698E+02  0.21544047824E+03  0.17200000000E+03 0. -1.
</event>
<event>
 4    1  0.1249554E+000  0.1828356E+03  0.7818608E-02  0.1165087E+00
         21   -1    0    0  501  502  0.00000000000E+00  0.00000000000E+00  0.14298932838E+03  0.14298932838E+03  0.00000000000E+00 0.  1.
         21   -1    0    0  502  503 -0.00000000000E+00 -0.00000000000E+00 -0.24877231015E+03  0.24877231015E+03  0.00000000000E+00 0. -1.
          6    1    1    2  501    0  0.60649740907E+02 -0.12902836252E+02 -0.10096891330E+03  0.20886262401E+03  0.17200000000E+03 0.  1.
         -6    1    1    2    0  503 -0.60649740907E+02  0.12902836252E+02 -0.48140684684E+01  0.18289901452E+03  0.17200000000E+03 0.  1.
</event>
<event>
 4    1  0.1249554E+000  0.2696761E+03  0.7818608E-02  0.1101465E+00
         21   -1    0    0  503  502  0.00000000000E+00  0.00000000000E+00  0.24548183541E+03  0.24548183541E+03  0.00000000000E+00 0.  1.
         21   -1    0    0  501  503 -0.00000000000E+00 -0.00000000000E+00 -0.52778726762E+03  0.52778726762E+03  0.00000000000E+00 0. -1.
          6    1    1    2  501    0  0.18109112075E+03  0.10172122850E+03 -0.39723353033E+03  0.48012465044E+03  0.17200000000E+03 0. -1.
         -6    1    1    2    0  502 -0.18109112075E+03 -0.10172122850E+03  0.11492809812E+03  0.29314445259E+03  0.17200000000E+03 0. -1.
</event>
<event>
 4    1  0.1249554E+000  0.1734099E+03  0.7818608E-02  0.1174338E+00
         21   -1    0    0  501  502  0.00000000000E+00  0.00000000000E+00  0.86534607142E+03  0.86534607142E+03  0.00000000000E+00 0.  1.
         21   -1    0    0  502  503 -0.00000000000E+00 -0.00000000000E+00 -0.54866971662E+02  0.54866971662E+02  0.00000000000E+00 0.  1.
          6    1    1    2  501    0  0.11596187423E+02 -0.18775998683E+02  0.68383965801E+03  0.70548400943E+03  0.17200000000E+03 0.  1.
         -6    1    1    2    0  503 -0.11596187423E+02  0.18775998683E+02  0.12663944175E+03  0.21472903366E+03  0.17200000000E+03 0.  1.
</event>
<event>
 4    1  0.1249554E+000  0.1771826E+03  0.7818608E-02  0.1170558E+00
         21   -1    0    0  503  502  0.00000000000E+00  0.00000000000E+00  0.20336325693E+04  0.20336325693E+04  0.00000000000E+00 0. -1.
         21   -1    0    0  501  503 -0.00000000000E+00 -0.00000000000E+00 -0.21780232601E+02  0.21780232601E+02  0.00000000000E+00 0. -1.
          6    1    1    2  501    0  0.38147331455E+02  0.18827018291E+02  0.45131976136E+03  0.48485379498E+03  0.17200000000E+03 0. -1.
         -6    1    1    2    0  502 -0.38147331455E+02 -0.18827018291E+02  0.15605325754E+04  0.15705590069E+04  0.17200000000E+03 0. -1.
</event>
<event>
 4    1  0.1249554E+000  0.2259110E+03  0.7818608E-02  0.1129551E+00
         21   -1    0    0  503  502  0.00000000000E+00  0.00000000000E+00  0.22687525939E+03  0.22687525939E+03  0.00000000000E+00 0.  1.
         21   -1    0    0  501  503 -0.00000000000E+00 -0.00000000000E+00 -0.42657579499E+03  0.42657579499E+03  0.00000000000E+00 0.  1.
          6    1    1    2  501    0 -0.14442930376E+03 -0.24330105789E+02 -0.32447476388E+03  0.39537279905E+03  0.17200000000E+03 0.  1.
         -6    1    1    2    0  502  0.14442930376E+03  0.24330105789E+02  0.12477422828E+03  0.25807825534E+03  0.17200000000E+03 0.  1.
</event>
<event>
 4    1  0.1249554E+000  0.1867701E+03  0.7818608E-02  0.1161407E+00
         21   -1    0    0  503  502  0.00000000000E+00  0.00000000000E+00  0.19354747570E+03  0.19354747570E+03  0.00000000000E+00 0. -1.
         21   -1    0    0  501  503 -0.00000000000E+00 -0.00000000000E+00 -0.18094276242E+03  0.18094276242E+03  0.00000000000E+00 0. -1.
          6    1    1    2  501    0  0.61368089559E+02 -0.39153751073E+02 -0.54497810188E+01  0.18684956182E+03  0.17200000000E+03 0. -1.
         -6    1    1    2    0  502 -0.61368089559E+02  0.39153751073E+02  0.18054494300E+02  0.18764067630E+03  0.17200000000E+03 0. -1.
</event>
<event>
 4    1  0.1249554E+000  0.1958928E+03  0.7818608E-02  0.1153251E+00
         21   -1    0    0  503  502  0.00000000000E+00  0.00000000000E+00  0.34102143599E+02  0.34102143599E+02  0.00000000000E+00 0. -1.
         21   -1    0    0  501  503 -0.00000000000E+00 -0.00000000000E+00 -0.19034697832E+04  0.19034697832E+04  0.00000000000E+00 0.  1.
          6    1    1    2  501    0  0.48899047689E+02  0.79992862405E+02 -0.15541271444E+04  0.15664243218E+04  0.17200000000E+03 0.  1.
         -6    1    1    2    0  502 -0.48899047689E+02 -0.79992862405E+02 -0.31524049523E+03  0.37114760505E+03  0.17200000000E+03 0.  1.
</event>
<event>
 4    1  0.1249554E+000  0.1778969E+03  0.7818608E-02  0.1169854E+00
         21   -1    0    0  503  502  0.00000000000E+00  0.00000000000E+00  0.61675177807E+02  0.61675177807E+02  0.00000000000E+00 0.  1.
         21   -1    0    0  501  503 -0.00000000000E+00 -0.00000000000E+00 -0.51387032397E+03  0.51387032397E+03  0.00000000000E+00 0.  1.
          6    1    1    2  501    0  0.33487548270E+02 -0.30690085840E+02 -0.23703073762E+03  0.29636273017E+03  0.17200000000E+03 0.  1.
         -6    1    1    2    0  502 -0.33487548270E+02  0.30690085840E+02 -0.21516440855E+03  0.27918277161E+03  0.17200000000E+03 0.  1.
</event>
<event>
 4    1  0.1249554E+000  0.1760052E+03  0.7818608E-02  0.1171726E+00
         21   -1    0    0  501  502  0.00000000000E+00  0.00000000000E+00  0.51057006963E+03  0.51057006963E+03  0.00000000000E+00 0.  1.
         21   -1    0    0  502  503 -0.00000000000E+00 -0.00000000000E+00 -0.14890830824E+03  0.14890830824E+03  0.00000000000E+00 0.  1.
          6    1    1    2  501    0 -0.28622593129E+02  0.23970669694E+02  0.43465457987E+03  0.46893757543E+03  0.17200000000E+03 0.  1.
         -6    1    1    2    0  503  0.28622593129E+02 -0.23970669694E+02 -0.72992818486E+02  0.19054080244E+03  0.17200000000E+03 0.  1.
</event>
<event>
 4    1  0.1249554E+000  0.1985359E+03  0.7818608E-02  0.1150980E+00
         21   -1    0    0  503  502  0.00000000000E+00  0.00000000000E+00  0.79286038540E+02  0.79286038540E+02  0.00000000000E+00 0. -1.
         21   -1    0    0  501  503 -0.00000000000E+00 -0.00000000000E+00 -0.82472180842E+03  0.82472180842E+03  0.00000000000E+00 0.  1.
          6    1    1    2  501    0  0.71491755468E+02  0.68712812248E+02 -0.65758753069E+03  0.68690456556E+03  0.17200000000E+03 0.  1.
         -6    1    1    2    0  502 -0.71491755468E+02 -0.68712812248E+02 -0.87848239191E+02  0.21710328140E+03  0.17200000000E+03 0. -1.
</event>
<event>
 4    1  0.1249554E+000  0.2474178E+03  0.7818608E-02  0.1114948E+00
         21   -1    0    0  503  502  0.00000000000E+00  0.00000000000E+00  0.33158236362E+03  0.33158236362E+03  0.00000000000E+00 0.  1.
         21   -1    0    0  501  503 -0.00000000000E+00 -0.00000000000E+00 -0.19461454937E+03  0.19461454937E+03  0.00000000000E+00 0. -1.
          6    1    1    2  501    0 -0.55389094477E+02 -0.16900778577E+03  0.88507555827E+01  0.24757608792E+03  0.17200000000E+03 0. -1.
         -6    1    1    2    0  502  0.55389094477E+02  0.16900778577E+03  0.12811705867E+03  0.27862082506E+03  0.17200000000E+03 0.  1.
</event>
<event>
 4    1  0.1249554E+000  0.2022719E+03  0.7818608E-02  0.1147836E+00
         21   -1    0    0  501  502  0.00000000000E+00  0.00000000000E+00  0.40543925775E+03  0.40543925775E+03  0.00000000000E+00 0.  1.
         21   -1    0    0  502  503 -0.00000000000E+00 -0.00000000000E+00 -0.12118978696E+03  0.12118978696E+03  0.00000000000E+00 0.  1.
          6    1    1    2  501    0  0.42441664900E+02 -0.97614714346E+02  0.24983217786E+03  0.32144990974E+03  0.17200000000E+03 0.  1.
         -6    1    1    2    0  503 -0.42441664900E+02  0.97614714346E+02  0.34417292925E+02  0.20517913497E+03  0.17200000000E+03 0.  1.
</event>
<event>
 4    1  0.1249554E+000  0.3133872E+03  0.7818608E-02  0.1078734E+00
         21   -1    0    0  501  502  0.00000000000E+00  0.00000000000E+00  0.17187513721E+03  0.17187513721E+03  0.00000000000E+00 0. -1.
         21   -1    0    0  502  503 -0.00000000000E+00 -0.00000000000E+00 -0.69906742100E+03  0.69906742100E+03  0.00000000000E+00 0.  1.
          6    1    1    2  501    0 -0.76492022883E+02  0.25055244738E+03 -0.77507787428E+02  0.32282970056E+03  0.17200000000E+03 0. -1.
         -6    1    1    2    0  503  0.76492022883E+02 -0.25055244738E+03 -0.44968449636E+03  0.54811285765E+03  0.17200000000E+03 0.  1.
</event>
<event>
 4    1  0.1249554E+000  0.1722661E+03  0.7818608E-02  0.1175505E+00
         21   -1    0    0  501  502  0.00000000000E+00  0.00000000000E+00  0.15039201709E+03  0.15039201709E+03  0.00000000000E+00 0. -1.
         21   -1    0    0  502  503 -0.00000000000E+00 -0.00000000000E+00 -0.20930700383E+03  0.20930700383E+03  0.00000000000E+00 0. -1.
          6    1    1    2  501    0  0.78129391973E+01  0.55281870343E+01  0.13579564997E+02  0.17280048454E+03  0.17200000000E+03 0.  1.
         -6    1    1    2    0  503 -0.78129391973E+01 -0.55281870343E+01 -0.72494551731E+02  0.18689853638E+03  0.17200000000E+03 0.  1.
</event>
<event>
 4    1  0.1249554E+000  0.1955645E+03  0.7818608E-02  0.1153536E+00
         21   -1    0    0  503  502  0.00000000000E+00  0.00000000000E+00  0.12237225608E+04  0.12237225608E+04  0.00000000000E+00 0.  1.
         21   -1    0    0  501  503 -0.00000000000E+00 -0.00000000000E+00 -0.31278953563E+02  0.31278953563E+02  0.00000000000E+00 0. -1.
          6    1    1    2  501    0 -0.53278712659E+02 -0.76307654429E+02  0.57828303716E+03  0.61045618222E+03  0.17200000000E+03 0. -1.
         -6    1    1    2    0  502  0.53278712659E+02  0.76307654429E+02  0.61416057008E+03  0.64454533215E+03  0.17200000000E+03 0.  1.
</event>
<event>
 4    1  0.1249554E+000  0.1747313E+03  0.7818608E-02  0.1173002E+00
         21   -1    0    0  501  502  0.00000000000E+00  0.00000000000E+00  0.11836460308E+04  0.11836460308E+04  0.00000000000E+00 0.  1.
         21   -1    0    0  502  503 -0.00000000000E+00 -0.00000000000E+00 -0.33335984085E+02  0.33335984085E+02  0.00000000000E+00 0.  1.
          6    1    1    2  501    0  0.25825592115E+02  0.16735604682E+02  0.28572839684E+03  0.33492052555E+03  0.17200000000E+03 0.  1.
         -6    1    1    2    0  503 -0.25825592115E+02 -0.16735604682E+02  0.86458164990E+03  0.88206148936E+03  0.17200000000E+03 0.  1.
</event>
<event>
 4    1  0.1249554E+000  0.2337754E+03  0.7818608E-02  0.1124010E+00
         21   -1    0    0  501  502  0.00000000000E+00  0.00000000000E+00  0.30168958245E+03  0.30168958245E+03  0.00000000000E+00 0.  1.
         21   -1    0    0  502  503 -0.00000000000E+00 -0.00000000000E+00 -0.22424451756E+03  0.22424451756E+03  0.00000000000E+00 0. -1.
          6    1    1    2  501    0  0.31814230147E+02  0.15509611122E+03  0.15400238570E+03  0.27994228647E+03  0.17200000000E+03 0.  1.
         -6    1    1    2    0  503 -0.31814230147E+02 -0.15509611122E+03 -0.76557320809E+02  0.24599181353E+03  0.17200000000E+03 0. -1.
</event>
<event>
 4    1  0.1249554E+000  0.1809937E+03  0.7818608E-02  0.1166845E+00
         21   -1    0    0  503  502  0.00000000000E+00  0.00000000000E+00  0.39232863592E+03  0.39232863592E+03  0.00000000000E+00 0.  1.
         21   -1    0    0  501  503 -0.00000000000E+00 -0.00000000000E+00 -0.18800523361E+03  0.18800523361E+03  0.00000000000E+00 0. -1.
          6    1    1    2  501    0  0.38454017920E+02 -0.41182558743E+02 -0.11417779808E+03  0.21399832759E+03  0.17200000000E+03 0. -1.
         -6    1    1    2    0  502 -0.38454017920E+02  0.41182558743E+02  0.31850120039E+03  0.36633554194E+03  0.17200000000E+03 0.  1.
</event>
<event>
 4    1  0.1249554E+000  0.1855231E+03  0.7818608E-02  0.1162562E+00
         21   -1    0    0  501  502  0.00000000000E+00  0.00000000000E+00  0.47651824933E+02  0.47651824933E+02  0.00000000000E+00 0.  1.
         21   -1    0    0  502  503 -0.00000000000E+00 -0.00000000000E+00 -0.74705198040E+03  0.74705198040E+03  0.00000000000E+00 0. -1.
          6    1    1    2  501    0 -0.35033882694E+02 -0.60062101104E+02 -0.27736976084E+03  0.33369568945E+03  0.17200000000E+03 0.  1.
         -6    1    1    2    0  503  0.35033882694E+02  0.60062101104E+02 -0.42203039462E+03  0.46100811588E+03  0.17200000000E+03 0.  1.
</event>
<event>
 4    1  0.1249554E+000  0.1814462E+03  0.7818608E-02  0.1166411E+00
         21   -1    0    0  501  502  0.00000000000E+00  0.00000000000E+00  0.71186633509E+03  0.71186633509E+03  0.00000000000E+00 0. -1.
         21   -1    0    0  502  503 -0.00000000000E+00 -0.00000000000E+00 -0.97339187426E+02  0.97339187426E+02  0.00000000000E+00 0. -1.
          6    1    1    2  501    0  0.44222094734E+02  0.37190401400E+02  0.60039071996E+03  0.62720948353E+03  0.17200000000E+03 0. -1.
         -6    1    1    2    0  503 -0.44222094734E+02 -0.37190401400E+02  0.14136427708E+02  0.18199603899E+03  0.17200000000E+03 0. -1.
</event>
<event>
 4    1  0.1249554E+000  0.1991654E+03  0.7818608E-02  0.1150445E+00
         21   -1    0    0  503  502  0.00000000000E+00  0.00000000000E+00  0.92706929145E+03  0.92706929145E+03  0.00000000000E+00 0.  1.
         21   -1    0    0  501  503 -0.00000000000E+00 -0.00000000000E+00 -0.42898013420E+02  0.42898013420E+02  0.00000000000E+00 0. -1.
          6    1    1    2  501    0  0.34209721120E+02 -0.94406245886E+02  0.41745374647E+03  0.46253051221E+03  0.17200000000E+03 0.  1.
         -6    1    1    2    0  502 -0.34209721120E+02  0.94406245886E+02  0.46671753156E+03  0.50743679266E+03  0.17200000000E+03 0. -1.
</event>
<event>
 4    1  0.1249554E+000  0.2172092E+03  0.7818608E-02  0.1135981E+00
         21   -1    0    0  503  502  0.00000000000E+00  0.00000000000E+00  0.21357586697E+03  0.21357586697E+03  0.00000000000E+00 0.  1.
         21   -1    0    0  501  503 -0.00000000000E+00 -0.00000000000E+00 -0.22630547955E+03  0.22630547955E+03  0.00000000000E+00 0.  1.
          6    1    1    2  501    0  0.13254812067E+03 -0.51809403744E+01  0.27613266095E+02  0.21895739061E+03  0.17200000000E+03 0. -1.
         -6    1    1    2    0  502 -0.13254812067E+03  0.51809403744E+01 -0.40342878668E+02  0.22092395591E+03  0.17200000000E+03 0. -1.
</event>
<event>
 4    1  0.1249554E+000  0.2805709E+03  0.7818608E-02  0.1095378E+00
         21   -1    0    0  501  502  0.00000000000E+00  0.00000000000E+00  0.14211231326E+03  0.14211231326E+03  0.00000000000E+00 0. -1.
         21   -1    0    0  502  503 -0.00000000000E+00 -0.00000000000E+00 -0.56621503143E+03  0.56621503143E+03  0.00000000000E+00 0.  1.
          6    1    1    2  501    0 -0.12683737620E+03 -0.18179193737E+03 -0.26422269354E+03  0.38540064903E+03  0.17200000000E+03 0. -1.
         -6    1    1    2    0  503  0.12683737620E+03  0.18179193737E+03 -0.15988002462E+03  0.32292669566E+03  0.17200000000E+03 0. -1.
</event>
<event>
 4    1  0.1249554E+000  0.3848949E+03  0.7818608E-02  0.1049139E+00
         21   -1    0    0  501  502  0.00000000000E+00  0.00000000000E+00  0.91243134259E+03  0.91243134259E+03  0.00000000000E+00 0. -1.
         21   -1    0    0  502  503 -0.00000000000E+00 -0.00000000000E+00 -0.16651454519E+03  0.16651454519E+03  0.00000000000E+00 0.  1.
          6    1    1    2  501    0 -0.33660687318E+03  0.72497519602E+02  0.45815190806E+03  0.59837049416E+03  0.17200000000E+03 0.  1.
         -6    1    1    2    0  503  0.33660687318E+03 -0.72497519602E+02  0.28776488933E+03  0.48057539362E+03  0.17200000000E+03 0. -1.
</event>
<event>
 4    1  0.1249554E+000  0.3347343E+03  0.7818608E-02  0.1069061E+00
         21   -1    0    0  503  502  0.00000000000E+00  0.00000000000E+00  0.52187465178E+03  0.52187465178E+03  0.00000000000E+00 0.  1.
         21   -1    0    0  501  503 -0.00000000000E+00 -0.00000000000E+00 -0.63617964536E+03  0.63617964536E+03  0.00000000000E+00 0. -1.
          6    1    1    2  501    0  0.17988305469E+02 -0.28659984952E+03 -0.52845178839E+03  0.62554643755E+03  0.17200000000E+03 0.  1.
         -6    1    1    2    0  502 -0.17988305469E+02  0.28659984952E+03  0.41414679481E+03  0.53250785960E+03  0.17200000000E+03 0.  1.
</event>
<event>
 4    1  0.1249554E+000  0.2235061E+03  0.7818608E-02  0.1131296E+00
         21   -1    0    0  503  502  0.00000000000E+00  0.00000000000E+00  0.71243254976E+02  0.71243254976E+02  0.00000000000E+00 0. -1.
         21   -1    0    0  501  503 -0.00000000000E+00 -0.00000000000E+00 -0.18889593338E+04  0.18889593338E+04  0.00000000000E+00 0. -1.
          6    1    1    2  501    0 -0.11958280258E+03 -0.77916105140E+02 -0.16860457926E+04  0.17007955141E+04  0.17200000000E+03 0. -1.
         -6    1    1    2    0  502  0.11958280258E+03  0.77916105140E+02 -0.13167028625E+03  0.25940707468E+03  0.17200000000E+03 0. -1.
</event>
<event>
 4    1  0.1249554E+000  0.2279044E+03  0.7818608E-02  0.1128123E+00
         21   -1    0    0  503  502  0.00000000000E+00  0.00000000000E+00  0.62654231498E+03  0.62654231498E+03  0.00000000000E+00 0. -1.
         21   -1    0    0  501  503 -0.00000000000E+00 -0.00000000000E+00 -0.18877744183E+03  0.18877744183E+03  0.00000000000E+00 0. -1.
          6    1    1    2  501    0 -0.96580839108E+02 -0.11414278885E+03 -0.86415866663E+02  0.24373784429E+03  0.17200000000E+03 0. -1.
         -6    1    1    2    0  502  0.96580839108E+02  0.11414278885E+03  0.52418073981E+03  0.57158191252E+03  0.17200000000E+03 0. -1.
</event>
<event>
 4    1  0.1249554E+000  0.2184470E+03  0.7818608E-02  0.1135046E+00
         21   -1    0    0  503  502  0.00000000000E+00  0.00000000000E+00  0.67392513833E+02  0.67392513833E+02  0.00000000000E+00 0. -1.
         21   -1    0    0  501  503 -0.00000000000E+00 -0.00000000000E+00 -0.75228948571E+03  0.75228948571E+03  0.00000000000E+00 0. -1.
          6    1    1    2  501    0  0.13073742918E+03 -0.32292934716E+02 -0.44180444380E+03  0.49285928579E+03  0.17200000000E+03 0.  1.
         -6    1    1    2    0  502 -0.13073742918E+03  0.32292934716E+02 -0.24309252807E+03  0.32682271376E+03  0.17200000000E+03 0.  1.
</event>
<event>
 4    1  0.1249554E+000  0.2097832E+03  0.7818608E-02  0.1141738E+00
         21   -1    0    0  503  502  0.00000000000E+00  0.00000000000E+00  0.14830436139E+03  0.14830436139E+03  0.00000000000E+00 0.  1.
         21   -1    0    0  501  503 -0.00000000000E+00 -0.00000000000E+00 -0.29748680033E+03  0.29748680033E+03  0.00000000000E+00 0.  1.
          6    1    1    2  501    0 -0.96515801380E+02 -0.71482014734E+02 -0.85701343302E+02  0.22661354459E+03  0.17200000000E+03 0.  1.
         -6    1    1    2    0  502  0.96515801380E+02  0.71482014734E+02 -0.63481095634E+02  0.21917761713E+03  0.17200000000E+03 0.  1.
</event>
<event>
 4    1  0.1249554E+000  0.3099132E+03  0.7818608E-02  0.1080388E+00
         21   -1    0    0  501  502  0.00000000000E+00  0.00000000000E+00  0.12992295839E+03  0.12992295839E+03  0.00000000000E+00 0.  1.
         21   -1    0    0  502  503 -0.00000000000E+00 -0.00000000000E+00 -0.75523673384E+03  0.75523673384E+03  0.00000000000E+00 0. -1.
          6    1    1    2  501    0 -0.23597641883E+03 -0.10381375126E+03 -0.24827476201E+03  0.39709762357E+03  0.17200000000E+03 0. -1.
         -6    1    1    2    0  503  0.23597641883E+03  0.10381375126E+03 -0.37703901344E+03  0.48806206865E+03  0.17200000000E+03 0. -1.
</event>
<event>
 4    1  0.1249554E+000  0.3182142E+03  0.7818608E-02  0.1076474E+00
         21   -1    0    0  503  502  0.00000000000E+00  0.00000000000E+00  0.13210057794E+04  0.13210057794E+04  0.00000000000E+00 0.  1.
         21   -1    0    0  501  503 -0.00000000000E+00 -0.00000000000E+00 -0.76654782322E+02  0.76654782322E+02  0.00000000000E+00 0. -1.
          6    1    1    2  501    0 -0.17585673725E+03 -0.20186806226E+03  0.61986817243E+03  0.69677604565E+03  0.17200000000E+03 0.  1.
         -6    1    1    2    0  502  0.17585673725E+03  0.20186806226E+03  0.62448282465E+03  0.70088451608E+03  0.17200000000E+03 0. -1.
</event>
<event>
 4    1  0.1249554E+000  0.1848099E+03  0.7818608E-02  0.1163228E+00
         21   -1    0    0  503  502  0.00000000000E+00  0.00000000000E+00  0.30882048406E+03  0.30882048406E+03  0.00000000000E+00 0. -1.
         21   -1    0    0  501  503 -0.00000000000E+00 -0.00000000000E+00 -0.22446736784E+03  0.22446736784E+03  0.00000000000E+00 0. -1.
          6    1    1    2  501    0  0.92514995311E+01 -0.66970881346E+02 -0.14773876946E+03  0.23660395853E+03  0.17200000000E+03 0. -1.
         -6    1    1    2    0  502 -0.92514995311E+01  0.66970881346E+02  0.23209188567E+03  0.29668389337E+03  0.17200000000E+03 0. -1.
</event>
<event>
 4    1  0.1249554E+000  0.1821287E+03  0.7818608E-02  0.1165759E+00
         21   -1    0    0  501  502  0.00000000000E+00  0.00000000000E+00  0.30459060617E+03  0.30459060617E+03  0.00000000000E+00 0.  1.
         21   -1    0    0  502  503 -0.00000000000E+00 -0.00000000000E+00 -0.10927717954E+03  0.10927717954E+03  0.00000000000E+00 0.  1.
          6    1    1    2  501    0  0.51159969320E+02 -0.31137244634E+02  0.10976356700E+03  0.21264738678E+03  0.17200000000E+03 0.  1.
         -6    1    1    2    0  503 -0.51159969320E+02  0.31137244634E+02  0.85549859621E+02  0.20122039893E+03  0.17200000000E+03 0.  1.
</event>
<event>
 4    1  0.1249554E+000  0.2368021E+03  0.7818608E-02  0.1121942E+00
         21   -1    0    0  501  502  0.00000000000E+00  0.00000000000E+00  0.14325394222E+03  0.14325394222E+03  0.00000000000E+00 0. -1.
         21   -1    0    0  502  503 -0.00000000000E+00 -0.00000000000E+00 -0.45184743449E+03  0.45184743449E+03  0.00000000000E+00 0. -1.
          6    1    1    2  501    0  0.15966281150E+03 -0.31607596182E+02 -0.45500980710E+02  0.24113397263E+03  0.17200000000E+03 0. -1.
         -6    1    1    2    0  503 -0.15966281150E+03  0.31607596182E+02 -0.26309251156E+03  0.35396740408E+03  0.17200000000E+03 0. -1.
</event>
<event>
 4    1  0.1249554E+000  0.1804237E+03  0.7818608E-02  0.1167394E+00
         21   -1    0    0  503  502  0.00000000000E+00  0.00000000000E+00  0.18359326852E+03  0.18359326852E+03  0.00000000000E+00 0.  1.
         21   -1    0    0  501  503 -0.00000000000E+00 -0.00000000000E+00 -0.20488327593E+03  0.20488327593E+03  0.00000000000E+00 0.  1.
          6    1    1    2  501    0 -0.47009050666E+02  0.27547293094E+02 -0.81903244472E+02  0.19814349764E+03  0.17200000000E+03 0.  1.
         -6    1    1    2    0  502  0.47009050666E+02 -0.27547293094E+02  0.60613237068E+02  0.19033304681E+03  0.17200000000E+03 0.  1.
</event>
<event>
 4    1  0.1249554E+000  0.2561240E+03  0.7818608E-02  0.1109495E+00
         21   -1    0    0  501  502  0.00000000000E+00  0.00000000000E+00  0.17620628723E+03  0.17620628723E+03  0.00000000000E+00 0.  1.
         21   -1    0    0  502  503 -0.00000000000E+00 -0.00000000000E+00 -0.37229922378E+03  0.37229922378E+03  0.00000000000E+00 0.  1.
          6    1    1    2  501    0 -0.18160104453E+03 -0.55104842919E+02 -0.99553500625E+02  0.27479152566E+03  0.17200000000E+03 0.  1.
         -6    1    1    2    0  503  0.18160104453E+03  0.55104842919E+02 -0.96539435925E+02  0.27371398535E+03  0.17200000000E+03 0.  1.
</event>
<event>
 4    1  0.1249554E+000  0.1804279E+03  0.7818608E-02  0.1167390E+00
         21   -1    0    0  501  502  0.00000000000E+00  0.00000000000E+00  0.13327317928E+03  0.13327317928E+03  0.00000000000E+00 0. -1.
         21   -1    0    0  502  503 -0.00000000000E+00 -0.00000000000E+00 -0.25566399450E+03  0.25566399450E+03  0.00000000000E+00 0. -1.
          6    1    1    2  501    0 -0.43397362757E+02 -0.32967909262E+02 -0.20135922856E+02  0.18154798133E+03  0.17200000000E+03 0. -1.
         -6    1    1    2    0  503  0.43397362757E+02  0.32967909262E+02 -0.10225489237E+03  0.20738919246E+03  0.17200000000E+03 0. -1.
</event>
<event>
 4    1  0.1249554E+000  0.1864420E+03  0.7818608E-02  0.1161710E+00
         21   -1    0    0  501  502  0.00000000000E+00  0.00000000000E+00  0.12674205603E+04  0.12674205603E+04  0.00000000000E+00 0. -1.
         21   -1    0    0  502  503 -0.00000000000E+00 -0.00000000000E+00 -0.29254616618E+02  0.29254616618E+02  0.00000000000E+00 0. -1.
          6    1    1    2  501    0  0.71619601692E+02 -0.68734449679E+01  0.78116464406E+03  0.80310572948E+03  0.17200000000E+03 0. -1.
         -6    1    1    2    0  503 -0.71619601692E+02  0.68734449679E+01  0.45700129966E+03  0.49356944748E+03  0.17200000000E+03 0. -1.
</event>
<event>
 4    1  0.1249554E+000  0.1859506E+03  0.7818608E-02  0.1162165E+00
         21   -1    0    0  501  502  0.00000000000E+00  0.00000000000E+00  0.19916622284E+03  0.19916622284E+03  0.00000000000E+00 0.  1.
         21   -1    0    0  502  503 -0.00000000000E+00 -0.00000000000E+00 -0.26279074453E+03  0.26279074453E+03  0.00000000000E+00 0. -1.
          6    1    1    2  501    0 -0.55846224221E+02  0.43299165619E+02  0.10274201707E+03  0.21244655934E+03  0.17200000000E+03 0.  1.
         -6    1    1    2    0  503  0.55846224221E+02 -0.43299165619E+02 -0.16636653876E+03  0.24951040804E+03  0.17200000000E+03 0. -1.
</event>
<event>
 4    1  0.1249554E+000  0.2010957E+03  0.7818608E-02  0.1148818E+00
         21   -1    0    0  503  502  0.00000000000E+00  0.00000000000E+00  0.16943944700E+04  0.16943944700E+04  0.00000000000E+00 0. -1.
         21   -1    0    0  501  503 -0.00000000000E+00 -0.00000000000E+00 -0.33812554214E+02  0.33812554214E+02  0.00000000000E+00 0.  1.
          6    1    1    2  501    0 -0.97815672921E+02 -0.35882552302E+02  0.36163985526E+03  0.41379082679E+03  0.17200000000E+03 0.  1.
         -6    1    1    2    0  502  0.97815672921E+02  0.35882552302E+02  0.12989420606E+04  0.13144161975E+04  0.17200000000E+03 0. -1.
</event>
<event>
 4    1  0.1249554E+000  0.2401028E+03  0.7818608E-02  0.1119724E+00
         21   -1    0    0  501  502  0.00000000000E+00  0.00000000000E+00  0.97448000444E+02  0.97448000444E+02  0.00000000000E+00 0.  1.
         21   -1    0    0  502  503 -0.00000000000E+00 -0.00000000000E+00 -0.59190202658E+03  0.59190202658E+03  0.00000000000E+00 0. -1.
          6    1    1    2  501    0  0.13415786357E+03 -0.10033450470E+03 -0.23932405040E+03  0.33900641040E+03  0.17200000000E+03 0.  1.
         -6    1    1    2    0  503 -0.13415786357E+03  0.10033450470E+03 -0.25512997574E+03  0.35034361663E+03  0.17200000000E+03 0.  1.
</event>
<event>
 4    1  0.1249554E+000  0.2728850E+03  0.7818608E-02  0.1099640E+00
         21   -1    0    0  503  502  0.00000000000E+00  0.00000000000E+00  0.30043076950E+03  0.30043076950E+03  0.00000000000E+00 0.  1.
         21   -1    0    0  501  503 -0.00000000000E+00 -0.00000000000E+00 -0.47187961347E+03  0.47187961347E+03  0.00000000000E+00 0.  1.
          6    1    1    2  501    0  0.72002566329E+02  0.19924323960E+03 -0.35178746698E+03  0.44521978843E+03  0.17200000000E+03 0.  1.
         -6    1    1    2    0  502 -0.72002566329E+02 -0.19924323960E+03  0.18033862301E+03  0.32709059454E+03  0.17200000000E+03 0.  1.
</event>
<event>
 4    1  0.1249554E+000  0.2088156E+03  0.7818608E-02  0.1142507E+00
         21   -1    0    0  501  502  0.00000000000E+00  0.00000000000E+00  0.68251548029E+03  0.68251548029E+03  0.00000000000E+00 0. -1.
         21   -1    0    0  502  503 -0.00000000000E+00 -0.00000000000E+00 -0.14412405007E+03  0.14412405007E+03  0.00000000000E+00 0. -1.
          6    1    1    2  501    0  0.78978221289E+02  0.88217872807E+02  0.57758911906E+03  0.61417680108E+03  0.17200000000E+03 0. -1.
         -6    1    1    2    0  503 -0.78978221289E+02 -0.88217872807E+02 -0.39197688843E+02  0.21246272928E+03  0.17200000000E+03 0. -1.
</event>
<event>
 4    1  0.1249554E+000  0.2005392E+03  0.7818608E-02  0.1149285E+00
         21   -1    0    0  503  502  0.00000000000E+00  0.00000000000E+00  0.13030180698E+03  0.13030180698E+03  0.00000000000E+00 0. -1.
         21   -1    0    0  501  503 -0.00000000000E+00 -0.00000000000E+00 -0.77010787505E+03  0.77010787505E+03  0.00000000000E+00 0. -1.
          6    1    1    2  501    0 -0.88707797481E+02  0.52563427479E+02 -0.66840595615E+03  0.69784132112E+03  0.17200000000E+03 0. -1.
         -6    1    1    2    0  502  0.88707797481E+02 -0.52563427479E+02  0.28599888083E+02  0.20256836091E+03  0.17200000000E+03 0. -1.
</event>
<event>
 4    1  0.1249554E+000  0.1800363E+03  0.7818608E-02  0.1167768E+00
         21   -1    0    0  501  502  0.00000000000E+00  0.00000000000E+00  0.11376909344E+04  0.11376909344E+04  0.00000000000E+00 0. -1.
         21   -1    0    0  502  503 -0.00000000000E+00 -0.00000000000E+00 -0.66074398533E+02  0.66074398533E+02  0.00000000000E+00 0. -1.
          6    1    1    2  501    0 -0.51483646770E+01  0.52939217907E+02  0.98974753379E+03  0.10059886913E+04  0.17200000000E+03 0.  1.
         -6    1    1    2    0  503  0.51483646770E+01 -0.52939217907E+02  0.81869002037E+02  0.19777664156E+03  0.17200000000E+03 0.  1.
</event>
<event>
 4    1  0.1249554E+000  0.2050893E+03  0.7818608E-02  0.1145515E+00
         21   -1    0    0  503  502  0.00000000000E+00  0.00000000000E+00  0.30164913886E+03  0.30164913886E+03  0.00000000000E+00 0. -1.
         21   -1    0    0  501  503 -0.00000000000E+00 -0.00000000000E+00 -0.14031529651E+03  0.14031529651E+03  0.00000000000E+00 0. -1.
          6    1    1    2  501    0 -0.77211418479E+02 -0.80721955714E+02  0.63202897093E+02  0.21460718413E+03  0.17200000000E+03 0. -1.
         -6    1    1    2    0  502  0.77211418479E+02  0.80721955714E+02  0.98130945254E+02  0.22735725125E+03  0.17200000000E+03 0. -1.
</event>
<event>
 4    1  0.1249554E+000  0.3203030E+03  0.7818608E-02  0.1075510E+00
         21   -1    0    0  501  502  0.00000000000E+00  0.00000000000E+00  0.31445235345E+03  0.31445235345E+03  0.00000000000E+00 0. -1.
         21   -1    0    0  502  503 -0.00000000000E+00 -0.00000000000E+00 -0.36955275057E+03  0.36955275057E+03  0.00000000000E+00 0.  1.
          6    1    1    2  501    0 -0.26961533871E+03  0.17821237260E+02  0.89503708825E+02  0.33257321187E+03  0.17200000000E+03 0. -1.
         -6    1    1    2    0  503  0.26961533871E+03 -0.17821237260E+02 -0.14460410595E+03  0.35143189215E+03  0.17200000000E+03 0. -1.
</event>
<event>
 4    1  0.1249554E+000  0.2019228E+03  0.7818608E-02  0.1148127E+00
         21   -1    0    0  501  502  0.00000000000E+00  0.00000000000E+00  0.22957020779E+03  0.22957020779E+03  0.00000000000E+00 0.  1.
         21   -1    0    0  502  503 -0.00000000000E+00 -0.00000000000E+00 -0.21844557213E+03  0.21844557213E+03  0.00000000000E+00 0.  1.
          6    1    1    2  501    0 -0.25855017127E+02  0.10256866364E+03  0.10242080811E+03  0.22641297358E+03  0.17200000000E+03 0. -1.
         -6    1    1    2    0  503  0.25855017127E+02 -0.10256866364E+03 -0.91296172458E+02  0.22160280634E+03  0.17200000000E+03 0. -1.
</event>
<event>
 4    1  0.1249554E+000  0.1918689E+03  0.7818608E-02  0.1156786E+00
         21   -1    0    0  503  502  0.00000000000E+00  0.00000000000E+00  0.17781535666E+03  0.17781535666E+03  0.00000000000E+00 0.  1.
         21   -1    0    0  501  503 -0.00000000000E+00 -0.00000000000E+00 -0.22390683693E+03  0.22390683693E+03  0.00000000000E+00 0.  1.
          6    1    1    2  501    0 -0.37931697627E+02  0.76097607070E+02 -0.78185916822E+02  0.20718758910E+03  0.17200000000E+03 0.  1.
         -6    1    1    2    0  502  0.37931697627E+02 -0.76097607070E+02  0.32094436549E+02  0.19453460449E+03  0.17200000000E+03 0.  1.
</event>
<event>
 4    1  0.1249554E+000  0.2644520E+03  0.7818608E-02  0.1104497E+00
         21   -1    0    0  503  502  0.00000000000E+00  0.00000000000E+00  0.16107198474E+03  0.16107198474E+03  0.00000000000E+00 0.  1.
         21   -1    0    0  501  503 -0.00000000000E+00 -0.00000000000E+00 -0.58523170375E+03  0.58523170375E+03  0.00000000000E+00 0. -1.
          6    1    1    2  501    0  0.19565056127E+03  0.45516394629E+02 -0.40165381982E+03  0.48089570104E+03  0.17200000000E+03 0. -1.
         -6    1    1    2    0  502 -0.19565056127E+03 -0.45516394629E+02 -0.22505899199E+02  0.26540798745E+03  0.17200000000E+03 0.  1.
</event>
<event>
 4    1  0.1249554E+000  0.1730589E+03  0.7818608E-02  0.1174695E+00
         21   -1    0    0  503  502  0.00000000000E+00  0.00000000000E+00  0.14068516566E+03  0.14068516566E+03  0.00000000000E+00 0. -1.
         21   -1    0    0  501  503 -0.00000000000E+00 -0.00000000000E+00 -0.28738899259E+03  0.28738899259E+03  0.00000000000E+00 0. -1.
          6    1    1    2  501    0  0.15374124527E+02 -0.11358649180E+02 -0.18233311031E+03  0.25138565140E+03  0.17200000000E+03 0. -1.
         -6    1    1    2    0  502 -0.15374124527E+02  0.11358649180E+02  0.35629283379E+02  0.17668850684E+03  0.17200000000E+03 0. -1.
</event>
<event>
 4    1  0.1249554E+000  0.2016930E+03  0.7818608E-02  0.1148318E+00
         21   -1    0    0  501  502  0.00000000000E+00  0.00000000000E+00  0.64894303639E+03  0.64894303639E+03  0.00000000000E+00 0.  1.
         21   -1    0    0  502  503 -0.00000000000E+00 -0.00000000000E+00 -0.64747520312E+02  0.64747520312E+02  0.00000000000E+00 0.  1.
          6    1    1    2  501    0 -0.10427894460E+03 -0.14898046900E+02  0.35576208261E+03  0.40895807794E+03  0.17200000000E+03 0. -1.
         -6    1    1    2    0  503  0.10427894460E+03  0.14898046900E+02  0.22843343347E+03  0.30473247877E+03  0.17200000000E+03 0. -1.
</event>
<event>
 4    1  0.1249554E+000  0.2689828E+03  0.7818608E-02  0.1101863E+00
         21   -1    0    0  503  502  0.00000000000E+00  0.00000000000E+00  0.46696996118E+03  0.46696996118E+03  0.00000000000E+00 0. -1.
         21   -1    0    0  501  503 -0.00000000000E+00 -0.00000000000E+00 -0.18210493897E+03  0.18210493897E+03  0.00000000000E+00 0.  1.
          6    1    1    2  501    0  0.13509090048E+03  0.15658290905E+03  0.17084331987E+02  0.26952482854E+03  0.17200000000E+03 0. -1.
         -6    1    1    2    0  502 -0.13509090048E+03 -0.15658290905E+03  0.26778069023E+03  0.37955007161E+03  0.17200000000E+03 0.  1.
</event>
<event>
 4    1  0.1249554E+000  0.2199766E+03  0.7818608E-02  0.1133900E+00
         21   -1    0    0  503  502  0.00000000000E+00  0.00000000000E+00  0.34217585870E+03  0.34217585870E+03  0.00000000000E+00 0. -1.
         21   -1    0    0  501  503 -0.00000000000E+00 -0.00000000000E+00 -0.18827968447E+03  0.18827968447E+03  0.00000000000E+00 0. -1.
          6    1    1    2  501    0  0.20333804326E+02 -0.13561804591E+03 -0.55372576569E+02  0.22683879785E+03  0.17200000000E+03 0.  1.
         -6    1    1    2    0  502 -0.20333804326E+02  0.13561804591E+03  0.20926875081E+03  0.30361674532E+03  0.17200000000E+03 0.  1.
</event>
<event>
 4    1  0.1249554E+000  0.2112138E+03  0.7818608E-02  0.1140608E+00
         21   -1    0    0  501  502  0.00000000000E+00  0.00000000000E+00  0.44791947557E+03  0.44791947557E+03  0.00000000000E+00 0.  1.
         21   -1    0    0  502  503 -0.00000000000E+00 -0.00000000000E+00 -0.16305454020E+03  0.16305454020E+03  0.00000000000E+00 0.  1.
          6    1    1    2  501    0 -0.12119352216E+03 -0.18422618275E+02  0.33300891984E+03  0.39434274859E+03  0.17200000000E+03 0.  1.
         -6    1    1    2    0  503  0.12119352216E+03  0.18422618275E+02 -0.48143984471E+02  0.21663126718E+03  0.17200000000E+03 0.  1.
</event>
<event>
 4    1  0.1249554E+000  0.1922562E+03  0.7818608E-02  0.1156442E+00
         21   -1    0    0  503  502  0.00000000000E+00  0.00000000000E+00  0.86205120325E+03  0.86205120325E+03  0.00000000000E+00 0.  1.
         21   -1    0    0  501  503 -0.00000000000E+00 -0.00000000000E+00 -0.43228545484E+02  0.43228545484E+02  0.00000000000E+00 0.  1.
          6    1    1    2  501    0 -0.83200425755E+01 -0.85493939321E+02  0.36861072179E+03  0.41573585483E+03  0.17200000000E+03 0.  1.
         -6    1    1    2    0  502  0.83200425755E+01  0.85493939321E+02  0.45021193598E+03  0.48954389391E+03  0.17200000000E+03 0.  1.
</event>
<event>
 4    1  0.1249554E+000  0.1941622E+03  0.7818608E-02  0.1154760E+00
         21   -1    0    0  501  502  0.00000000000E+00  0.00000000000E+00  0.41606690252E+03  0.41606690252E+03  0.00000000000E+00 0.  1.
         21   -1    0    0  502  503 -0.00000000000E+00 -0.00000000000E+00 -0.90835815605E+02  0.90835815605E+02  0.00000000000E+00 0.  1.
          6    1    1    2  501    0 -0.65839955856E+02 -0.61482121432E+02  0.17531095566E+03  0.26159679321E+03  0.17200000000E+03 0.  1.
         -6    1    1    2    0  503  0.65839955856E+02  0.61482121432E+02  0.14992013125E+03  0.24530592491E+03  0.17200000000E+03 0.  1.
</event>
<event>
 4    1  0.1249554E+000  0.1915271E+03  0.7818608E-02  0.1157091E+00
         21   -1    0    0  501  502  0.00000000000E+00  0.00000000000E+00  0.10580955568E+04  0.10580955568E+04  0.00000000000E+00 0.  1.
         21   -1    0    0  502  503 -0.00000000000E+00 -0.00000000000E+00 -0.36220891386E+02  0.36220891386E+02  0.00000000000E+00 0. -1.
          6    1    1    2  501    0  0.44517017803E+02  0.71532171623E+02  0.62421125158E+03  0.65293361305E+03  0.17200000000E+03 0.  1.
         -6    1    1    2    0  503 -0.44517017803E+02 -0.71532171623E+02  0.39766341384E+03  0.44138283514E+03  0.17200000000E+03 0. -1.
</event>
<event>
 4    1  0.1249554E+000  0.1788386E+03  0.7818608E-02  0.1168932E+00
         21   -1    0    0  503  502  0.00000000000E+00  0.00000000000E+00  0.60706350760E+02  0.60706350760E+02  0.00000000000E+00 0. -1.
         21   -1    0    0  501  503 -0.00000000000E+00 -0.00000000000E+00 -0.15640112264E+04  0.15640112264E+04  0.00000000000E+00 0. -1.
          6    1    1    2  501    0 -0.42908273024E+02  0.23624684786E+02 -0.14131842374E+04  0.14244553115E+04  0.17200000000E+03 0. -1.
         -6    1    1    2    0  502  0.42908273024E+02 -0.23624684786E+02 -0.90120638306E+02  0.20026226573E+03  0.17200000000E+03 0. -1.
</event>
<event>
 4    1  0.1249554E+000  0.2335990E+03  0.7818608E-02  0.1124132E+00
         21   -1    0    0  501  502  0.00000000000E+00  0.00000000000E+00  0.10483291802E+03  0.10483291802E+03  0.00000000000E+00 0. -1.
         21   -1    0    0  502  503 -0.00000000000E+00 -0.00000000000E+00 -0.55692303545E+03  0.55692303545E+03  0.00000000000E+00 0.  1.
          6    1    1    2  501    0  0.14228459867E+03  0.68844786255E+02 -0.14146092083E+03  0.27309284820E+03  0.17200000000E+03 0. -1.
         -6    1    1    2    0  503 -0.14228459867E+03 -0.68844786255E+02 -0.31062919661E+03  0.38866310527E+03  0.17200000000E+03 0.  1.
</event>
<event>
 4    1  0.1249554E+000  0.2310075E+03  0.7818608E-02  0.1125933E+00
         21   -1    0    0  503  502  0.00000000000E+00  0.00000000000E+00  0.16198805947E+03  0.16198805947E+03  0.00000000000E+00 0.  1.
         21   -1    0    0  501  503 -0.00000000000E+00 -0.00000000000E+00 -0.40271154975E+03  0.40271154975E+03  0.00000000000E+00 0.  1.
          6    1    1    2  501    0 -0.14989523765E+03 -0.36220183493E+02 -0.24080262340E+03  0.33369205474E+03  0.17200000000E+03 0.  1.
         -6    1    1    2    0  502  0.14989523765E+03  0.36220183493E+02  0.79133121496E-01  0.23100755447E+03  0.17200000000E+03 0.  1.
</event>
<event>
 4    1  0.1249554E+000  0.2367700E+03  0.7818608E-02  0.1121963E+00
         21   -1    0    0  501  502  0.00000000000E+00  0.00000000000E+00  0.32579830312E+03  0.32579830312E+03  0.00000000000E+00 0. -1.
         21   -1    0    0  502  503 -0.00000000000E+00 -0.00000000000E+00 -0.18351327182E+03  0.18351327182E+03  0.00000000000E+00 0.  1.
          6    1    1    2  501    0  0.30547883271E+02 -0.15982134201E+03  0.13473408574E+03  0.27242119667E+03  0.17200000000E+03 0. -1.
         -6    1    1    2    0  503 -0.30547883271E+02  0.15982134201E+03  0.75509455651E+01  0.23689037827E+03  0.17200000000E+03 0.  1.
</event>
<event>
 4    1  0.1249554E+000  0.1895219E+03  0.7818608E-02  0.1158893E+00
         21   -1    0    0  501  502  0.00000000000E+00  0.00000000000E+00  0.65718712577E+02  0.65718712577E+02  0.00000000000E+00 0.  1.
         21   -1    0    0  502  503 -0.00000000000E+00 -0.00000000000E+00 -0.10078910424E+04  0.10078910424E+04  0.00000000000E+00 0.  1.
          6    1    1    2  501    0 -0.71766432553E+02 -0.34411094909E+02 -0.10790707484E+03  0.21808824153E+03  0.17200000000E+03 0.  1.
         -6    1    1    2    0  503  0.71766432553E+02  0.34411094909E+02 -0.83426525501E+03  0.85552151347E+03  0.17200000000E+03 0.  1.
</event>
<event>
 4    1  0.1249554E+000  0.1788400E+03  0.7818608E-02  0.1168930E+00
         21   -1    0    0  501  502  0.00000000000E+00  0.00000000000E+00  0.18195413159E+03  0.18195413159E+03  0.00000000000E+00 0.  1.
         21   -1    0    0  502  503 -0.00000000000E+00 -0.00000000000E+00 -0.17740967457E+03  0.17740967457E+03  0.00000000000E+00 0.  1.
          6    1    1    2  501    0  0.97825258249E+01  0.48000387884E+02  0.19498245933E+02  0.17989974053E+03  0.17200000000E+03 0. -1.
         -6    1    1    2    0  503 -0.97825258249E+01 -0.48000387884E+02 -0.14953788912E+02  0.17946406563E+03  0.17200000000E+03 0. -1.
</event>
<event>
 4    1  0.1249554E+000  0.3326060E+03  0.7818608E-02  0.1069990E+00
         21   -1    0    0  501  502  0.00000000000E+00  0.00000000000E+00  0.12894798800E+04  0.12894798800E+04  0.00000000000E+00 0. -1.
         21   -1    0    0  502  503 -0.00000000000E+00 -0.00000000000E+00 -0.10144416416E+03  0.10144416416E+03  0.00000000000E+00 0. -1.
          6    1    1    2  501    0 -0.22311460749E+03 -0.17681240460E+03  0.86719876699E+03  0.92879516362E+03  0.17200000000E+03 0. -1.
         -6    1    1    2    0  503  0.22311460749E+03  0.17681240460E+03  0.32083694885E+03  0.46212888055E+03  0.17200000000E+03 0. -1.
</event>
<event>
 4    1  0.1249554E+000  0.1796390E+03  0.7818608E-02  0.1168153E+00
         21   -1    0    0  503  502  0.00000000000E+00  0.00000000000E+00  0.10169734322E+04  0.10169734322E+04  0.00000000000E+00 0.  1.
         21   -1    0    0  501  503 -0.00000000000E+00 -0.00000000000E+00 -0.62720769006E+02  0.62720769006E+02  0.00000000000E+00 0.  1.
          6    1    1    2  501    0 -0.40502126228E+02 -0.32338054737E+02  0.97662660609E+02  0.20447045579E+03  0.17200000000E+03 0.  1.
         -6    1    1    2    0  502  0.40502126228E+02  0.32338054737E+02  0.85659000255E+03  0.87522374539E+03  0.17200000000E+03 0.  1.
</event>
<event>
 4    1  0.1249554E+000  0.1788730E+03  0.7818608E-02  0.1168898E+00
         21   -1    0    0  501  502  0.00000000000E+00  0.00000000000E+00  0.23408181132E+04  0.23408181132E+04  0.00000000000E+00 0. -1.
         21   -1    0    0  502  503 -0.00000000000E+00 -0.00000000000E+00 -0.13844461809E+02  0.13844461809E+02  0.00000000000E+00 0. -1.
          6    1    1    2  501    0  0.33843138420E+02 -0.35583702319E+02  0.12962032803E+04  0.13084871042E+04  0.17200000000E+03 0. -1.
         -6    1    1    2    0  503 -0.33843138420E+02  0.35583702319E+02  0.10307703711E+04  0.10461754709E+04  0.17200000000E+03 0. -1.
</event>
<event>
 4    1  0.1249554E+000  0.1909491E+03  0.7818608E-02  0.1157608E+00
         21   -1    0    0  501  502  0.00000000000E+00  0.00000000000E+00  0.37058770081E+03  0.37058770081E+03  0.00000000000E+00 0. -1.
         21   -1    0    0  502  503 -0.00000000000E+00 -0.00000000000E+00 -0.11896820915E+03  0.11896820915E+03  0.00000000000E+00 0. -1.
          6    1    1    2  501    0 -0.82924131141E+02 -0.10794071291E+01  0.22761641067E+03  0.29710403406E+03  0.17200000000E+03 0. -1.
         -6    1    1    2    0  503  0.82924131141E+02  0.10794071291E+01  0.24003080987E+02  0.19245187591E+03  0.17200000000E+03 0. -1.
</event>
<event>
 4    1  0.1249554E+000  0.1880366E+03  0.7818608E-02  0.1160244E+00
         21   -1    0    0  501  502  0.00000000000E+00  0.00000000000E+00  0.16680964940E+03  0.16680964940E+03  0.00000000000E+00 0. -1.
         21   -1    0    0  502  503 -0.00000000000E+00 -0.00000000000E+00 -0.21249592027E+03  0.21249592027E+03  0.00000000000E+00 0. -1.
          6    1    1    2  501    0 -0.69748929143E+02  0.30147138737E+02 -0.13360980790E+02  0.18851068643E+03  0.17200000000E+03 0. -1.
         -6    1    1    2    0  503  0.69748929143E+02 -0.30147138737E+02 -0.32325290078E+02  0.19079488324E+03  0.17200000000E+03 0. -1.
</event>
<event>
 4    1  0.1249554E+000  0.2138467E+03  0.7818608E-02  0.1138556E+00
         21   -1    0    0  503  502  0.00000000000E+00  0.00000000000E+00  0.96589199565E+03  0.96589199565E+03  0.00000000000E+00 0. -1.
         21   -1    0    0  501  503 -0.00000000000E+00 -0.00000000000E+00 -0.51628330382E+02  0.51628330382E+02  0.00000000000E+00 0. -1.
          6    1    1    2  501    0  0.80052918186E+02 -0.98681062260E+02  0.31059529584E+03  0.37709396648E+03  0.17200000000E+03 0. -1.
         -6    1    1    2    0  502 -0.80052918186E+02  0.98681062260E+02  0.60366836943E+03  0.64042635956E+03  0.17200000000E+03 0. -1.
</event>
<event>
 4    1  0.1249554E+000  0.1739768E+03  0.7818608E-02  0.1173763E+00
         21   -1    0    0  501  502  0.00000000000E+00  0.00000000000E+00  0.20452621904E+04  0.20452621904E+04  0.00000000000E+00 0. -1.
         21   -1    0    0  502  503 -0.00000000000E+00 -0.00000000000E+00 -0.18189416882E+02  0.18189416882E+02  0.00000000000E+00 0. -1.
          6    1    1    2  501    0 -0.24804566802E+02  0.82867499106E+01  0.14589651659E+04  0.14693016341E+04  0.17200000000E+03 0. -1.
         -6    1    1    2    0  503  0.24804566802E+02 -0.82867499106E+01  0.56810760760E+03  0.59414997313E+03  0.17200000000E+03 0. -1.
</event>
<event>
 4    1  0.1249554E+000  0.2175582E+03  0.7818608E-02  0.1135717E+00
         21   -1    0    0  503  502  0.00000000000E+00  0.00000000000E+00  0.60146210486E+02  0.60146210486E+02  0.00000000000E+00 0.  1.
         21   -1    0    0  501  503 -0.00000000000E+00 -0.00000000000E+00 -0.78938008918E+03  0.78938008918E+03  0.00000000000E+00 0. -1.
          6    1    1    2  501    0  0.60988499464E+02  0.11843969167E+03 -0.38822500693E+03  0.44502832902E+03  0.17200000000E+03 0.  1.
         -6    1    1    2    0  502 -0.60988499464E+02 -0.11843969167E+03 -0.34100887177E+03  0.40449797065E+03  0.17200000000E+03 0.  1.
</event>
<event>
 4    1  0.1249554E+000  0.1842556E+03  0.7818608E-02  0.1163747E+00
         21   -1    0    0  503  502  0.00000000000E+00  0.00000000000E+00  0.18977638855E+03  0.18977638855E+03  0.00000000000E+00 0.  1.
         21   -1    0    0  501  503 -0.00000000000E+00 -0.00000000000E+00 -0.26893723250E+03  0.26893723250E+03  0.00000000000E+00 0.  1.
          6    1    1    2  501    0 -0.64213593268E+02  0.15580312411E+02 -0.17229182059E+03  0.25225900011E+03  0.17200000000E+03 0.  1.
         -6    1    1    2    0  502  0.64213593268E+02 -0.15580312411E+02  0.93130976637E+02  0.20645462093E+03  0.17200000000E+03 0.  1.
</event>
<event>
 4    1  0.1249554E+000  0.1979015E+03  0.7818608E-02  0.1151522E+00
         21   -1    0    0  501  502  0.00000000000E+00  0.00000000000E+00  0.80887871711E+03  0.80887871711E+03  0.00000000000E+00 0.  1.
         21   -1    0    0  502  503 -0.00000000000E+00 -0.00000000000E+00 -0.49375669075E+02  0.49375669075E+02  0.00000000000E+00 0.  1.
          6    1    1    2  501    0 -0.96458044596E+02  0.16638299637E+02  0.32001477074E+03  0.37626379160E+03  0.17200000000E+03 0. -1.
         -6    1    1    2    0  503  0.96458044596E+02 -0.16638299637E+02  0.43948827730E+03  0.48199059458E+03  0.17200000000E+03 0. -1.
</event>
<event>
 4    1  0.1249554E+000  0.2331724E+03  0.7818608E-02  0.1124427E+00
         21   -1    0    0  503  502  0.00000000000E+00  0.00000000000E+00  0.22615248139E+03  0.22615248139E+03  0.00000000000E+00 0.  1.
         21   -1    0    0  501  503 -0.00000000000E+00 -0.00000000000E+00 -0.27412803794E+03  0.27412803794E+03  0.00000000000E+00 0.  1.
          6    1    1    2  501    0 -0.11414028758E+03  0.10843135100E+03 -0.11171547585E+03  0.25855310996E+03  0.17200000000E+03 0.  1.
         -6    1    1    2    0  502  0.11414028758E+03 -0.10843135100E+03  0.63739919298E+02  0.24172740937E+03  0.17200000000E+03 0.  1.
</event>
<event>
 4    1  0.1249554E+000  0.2101209E+03  0.7818608E-02  0.1141470E+00
         21   -1    0    0  503  502  0.00000000000E+00  0.00000000000E+00  0.27260019202E+03  0.27260019202E+03  0.00000000000E+00 0.  1.
         21   -1    0    0  501  503 -0.00000000000E+00 -0.00000000000E+00 -0.20662318180E+03  0.20662318180E+03  0.00000000000E+00 0. -1.
          6    1    1    2  501    0  0.40779624242E+02 -0.11359488826E+03 -0.78411520396E+02  0.22427470415E+03  0.17200000000E+03 0. -1.
         -6    1    1    2    0  502 -0.40779624242E+02  0.11359488826E+03  0.14438853061E+03  0.25494866967E+03  0.17200000000E+03 0.  1.
</event>
<event>
 4    1  0.1249554E+000  0.1757316E+03  0.7818608E-02  0.1171999E+00
         21   -1    0    0  501  502  0.00000000000E+00  0.00000000000E+00  0.26028014165E+03  0.26028014165E+03  0.00000000000E+00 0.  1.
         21   -1    0    0  502  503 -0.00000000000E+00 -0.00000000000E+00 -0.39442904095E+03  0.39442904095E+03  0.00000000000E+00 0.  1.
          6    1    1    2  501    0 -0.42319484363E+01 -0.35772792690E+02  0.20665186442E+03  0.27126849274E+03  0.17200000000E+03 0.  1.
         -6    1    1    2    0  503  0.42319484363E+01  0.35772792690E+02 -0.34080076372E+03  0.38344068986E+03  0.17200000000E+03 0.  1.
</event>
<event>
 4    1  0.1249554E+000  0.2022254E+03  0.7818608E-02  0.1147875E+00
         21   -1    0    0  503  502  0.00000000000E+00  0.00000000000E+00  0.18057257822E+03  0.18057257822E+03  0.00000000000E+00 0. -1.
         21   -1    0    0  501  503 -0.00000000000E+00 -0.00000000000E+00 -0.30120693544E+03  0.30120693544E+03  0.00000000000E+00 0. -1.
          6    1    1    2  501    0  0.25744355602E+02 -0.10319072908E+03 -0.18030583528E+03  0.27093411127E+03  0.17200000000E+03 0. -1.
         -6    1    1    2    0  502 -0.25744355602E+02  0.10319072908E+03  0.59671478058E+02  0.21084540239E+03  0.17200000000E+03 0. -1.
</event>
<event>
 4    1  0.1249554E+000  0.3214965E+03  0.7818608E-02  0.1074963E+00
         21   -1    0    0  501  502  0.00000000000E+00  0.00000000000E+00  0.44094596256E+03  0.44094596256E+03  0.00000000000E+00 0.  1.
         21   -1    0    0  502  503 -0.00000000000E+00 -0.00000000000E+00 -0.35145360955E+03  0.35145360955E+03  0.00000000000E+00 0. -1.
          6    1    1    2  501    0 -0.26734665736E+03  0.47976975302E+02  0.27339185429E+03  0.42202266687E+03  0.17200000000E+03 0.  1.
         -6    1    1    2    0  503  0.26734665736E+03 -0.47976975302E+02 -0.18389950127E+03  0.37037690523E+03  0.17200000000E+03 0. -1.
</event>
<event>
 4    1  0.1249554E+000  0.1971042E+03  0.7818608E-02  0.1152205E+00
         21   -1    0    0  501  502  0.00000000000E+00  0.00000000000E+00  0.32806733696E+03  0.32806733696E+03  0.00000000000E+00 0. -1.
         21   -1    0    0  502  503 -0.00000000000E+00 -0.00000000000E+00 -0.11996830364E+03  0.11996830364E+03  0.00000000000E+00 0. -1.
          6    1    1    2  501    0  0.18634420530E+02 -0.94439560078E+02  0.12949043548E+03  0.23583435928E+03  0.17200000000E+03 0. -1.
         -6    1    1    2    0  503 -0.18634420530E+02  0.94439560078E+02  0.78608597842E+02  0.21220128131E+03  0.17200000000E+03 0. -1.
</event>
<event>
 4    1  0.1249554E+000  0.2334458E+03  0.7818608E-02  0.1124238E+00
         21   -1    0    0  501  502  0.00000000000E+00  0.00000000000E+00  0.71451181933E+02  0.71451181933E+02  0.00000000000E+00 0.  1.
         21   -1    0    0  502  503 -0.00000000000E+00 -0.00000000000E+00 -0.92827801537E+03  0.92827801537E+03  0.00000000000E+00 0.  1.
          6    1    1    2  501    0  0.13936226408E+03 -0.74101947208E+02 -0.63951625640E+03  0.68079217198E+03  0.17200000000E+03 0.  1.
         -6    1    1    2    0  503 -0.13936226408E+03  0.74101947208E+02 -0.21731057703E+03  0.31893702532E+03  0.17200000000E+03 0.  1.
</event>
<event>
 4    1  0.1249554E+000  0.1774249E+03  0.7818608E-02  0.1170319E+00
         21   -1    0    0  503  502  0.00000000000E+00  0.00000000000E+00  0.20146614614E+03  0.20146614614E+03  0.00000000000E+00 0. -1.
         21   -1    0    0  501  503 -0.00000000000E+00 -0.00000000000E+00 -0.36185351516E+03  0.36185351516E+03  0.00000000000E+00 0. -1.
          6    1    1    2  501    0  0.24758913340E+01 -0.43467776419E+02 -0.29250405240E+03  0.34210845984E+03  0.17200000000E+03 0. -1.
         -6    1    1    2    0  502 -0.24758913340E+01  0.43467776419E+02  0.13211668338E+03  0.22121120146E+03  0.17200000000E+03 0. -1.
</event>
<event>
 4    1  0.1249554E+000  0.1911533E+03  0.7818608E-02  0.1157425E+00
         21   -1    0    0  501  502  0.00000000000E+00  0.00000000000E+00  0.37234160637E+02  0.37234160637E+02  0.00000000000E+00 0.  1.
         21   -1    0    0  502  503 -0.00000000000E+00 -0.00000000000E+00 -0.13277812158E+04  0.13277812158E+04  0.00000000000E+00 0.  1.
          6    1    1    2  501    0  0.76823749401E+02 -0.32460434655E+02 -0.29665075945E+03  0.35290401156E+03  0.17200000000E+03 0.  1.
         -6    1    1    2    0  503 -0.76823749401E+02  0.32460434655E+02 -0.99389629567E+03  0.10121113648E+04  0.17200000000E+03 0.  1.
</event>
<event>
 4    1  0.1249554E+000  0.2138218E+03  0.7818608E-02  0.1138575E+00
         21   -1    0    0  501  502  0.00000000000E+00  0.00000000000E+00  0.27028586948E+03  0.27028586948E+03  0.00000000000E+00 0.  1.
         21   -1    0    0  502  503 -0.00000000000E+00 -0.00000000000E+00 -0.18932012559E+03  0.18932012559E+03  0.00000000000E+00 0. -1.
          6    1    1    2  501    0  0.11233709790E+03 -0.59297078061E+02  0.11548528931E+03  0.24301567661E+03  0.17200000000E+03 0. -1.
         -6    1    1    2    0  503 -0.11233709790E+03  0.59297078061E+02 -0.34519545422E+02  0.21659031845E+03  0.17200000000E+03 0. -1.
</event>
<event>
 4    1  0.1249554E+000  0.1875540E+03  0.7818608E-02  0.1160686E+00
         21   -1    0    0  501  502  0.00000000000E+00  0.00000000000E+00  0.14625141023E+03  0.14625141023E+03  0.00000000000E+00 0.  1.
         21   -1    0    0  502  503 -0.00000000000E+00 -0.00000000000E+00 -0.24580100530E+03  0.24580100530E+03  0.00000000000E+00 0.  1.
          6    1    1    2  501    0 -0.11138295361E+02  0.73948827839E+02 -0.21043710808E+02  0.18873083618E+03  0.17200000000E+03 0.  1.
         -6    1    1    2    0  503  0.11138295361E+02 -0.73948827839E+02 -0.78505884260E+02  0.20332157934E+03  0.17200000000E+03 0.  1.
</event>
<event>
 4    1  0.1249554E+000  0.2519894E+03  0.7818608E-02  0.1112054E+00
         21   -1    0    0  501  502  0.00000000000E+00  0.00000000000E+00  0.12251204381E+03  0.12251204381E+03  0.00000000000E+00 0. -1.
         21   -1    0    0  502  503 -0.00000000000E+00 -0.00000000000E+00 -0.12148879712E+04  0.12148879712E+04  0.00000000000E+00 0.  1.
          6    1    1    2  501    0  0.16939431248E+03  0.72251188535E+02 -0.39839519653E+02  0.25511929498E+03  0.17200000000E+03 0. -1.
         -6    1    1    2    0  503 -0.16939431248E+03 -0.72251188535E+02 -0.10525364077E+04  0.10822807200E+04  0.17200000000E+03 0.  1.
</event>
<event>
 4    1  0.1249554E+000  0.1989673E+03  0.7818608E-02  0.1150613E+00
         21   -1    0    0  503  502  0.00000000000E+00  0.00000000000E+00  0.43784730045E+02  0.43784730045E+02  0.00000000000E+00 0.  1.
         21   -1    0    0  501  503 -0.00000000000E+00 -0.00000000000E+00 -0.16819613609E+04  0.16819613609E+04  0.00000000000E+00 0.  1.
          6    1    1    2  501    0 -0.99025988840E+02 -0.14065175908E+02 -0.14058692036E+04  0.14198789361E+04  0.17200000000E+03 0. -1.
         -6    1    1    2    0  502  0.99025988840E+02  0.14065175908E+02 -0.23230742728E+03  0.30586715484E+03  0.17200000000E+03 0. -1.
</event>
<event>
 4    1  0.1249554E+000  0.1727430E+03  0.7818608E-02  0.1175017E+00
         21   -1    0    0  501  502  0.00000000000E+00  0.00000000000E+00  0.12877625464E+04  0.12877625464E+04  0.00000000000E+00 0.  1.
         21   -1    0    0  502  503 -0.00000000000E+00 -0.00000000000E+00 -0.35509770703E+02  0.35509770703E+02  0.00000000000E+00 0.  1.
          6    1    1    2  501    0 -0.75042098265E+01 -0.14135876531E+02  0.10161242664E+04  0.10307029936E+04  0.17200000000E+03 0.  1.
         -6    1    1    2    0  503  0.75042098265E+01  0.14135876531E+02  0.23612850926E+03  0.29256932350E+03  0.17200000000E+03 0.  1.
</event>
<event>
 4    1  0.1249554E+000  0.2269596E+03  0.7818608E-02  0.1128798E+00
         21   -1    0    0  503  502  0.00000000000E+00  0.00000000000E+00  0.24072344701E+03  0.24072344701E+03  0.00000000000E+00 0.  1.
         21   -1    0    0  501  503 -0.00000000000E+00 -0.00000000000E+00 -0.21421827009E+03  0.21421827009E+03  0.00000000000E+00 0. -1.
          6    1    1    2  501    0 -0.14055905524E+02  0.14740789486E+03  0.20795636183E+02  0.22791032103E+03  0.17200000000E+03 0. -1.
         -6    1    1    2    0  502  0.14055905524E+02 -0.14740789486E+03  0.57095407395E+01  0.22703139607E+03  0.17200000000E+03 0.  1.
</event>
<event>
 4    1  0.1249554E+000  0.1789806E+03  0.7818608E-02  0.1168793E+00
         21   -1    0    0  503  502  0.00000000000E+00  0.00000000000E+00  0.18256822083E+03  0.18256822083E+03  0.00000000000E+00 0.  1.
         21   -1    0    0  501  503 -0.00000000000E+00 -0.00000000000E+00 -0.20981231550E+03  0.20981231550E+03  0.00000000000E+00 0.  1.
          6    1    1    2  501    0  0.25401438792E+02  0.42483144424E+02  0.65759241291E+02  0.19067859992E+03  0.17200000000E+03 0.  1.
         -6    1    1    2    0  502 -0.25401438792E+02 -0.42483144424E+02 -0.93003335958E+02  0.20170193641E+03  0.17200000000E+03 0.  1.
</event>
<event>
 4    1  0.1249554E+000  0.1889749E+03  0.7818608E-02  0.1159389E+00
         21   -1    0    0  503  502  0.00000000000E+00  0.00000000000E+00  0.36360076233E+02  0.36360076233E+02  0.00000000000E+00 0. -1.
         21   -1    0    0  501  503 -0.00000000000E+00 -0.00000000000E+00 -0.11117048517E+04  0.11117048517E+04  0.00000000000E+00 0. -1.
          6    1    1    2  501    0 -0.75761684039E+02 -0.19690034342E+02 -0.73362287803E+03  0.75757115665E+03  0.17200000000E+03 0. -1.
         -6    1    1    2    0  502  0.75761684039E+02  0.19690034342E+02 -0.34172189742E+03  0.39049377126E+03  0.17200000000E+03 0. -1.
</event>
<event>
 4    1  0.1249554E+000  0.2144277E+03  0.7818608E-02  0.1138107E+00
         21   -1    0    0  501  502  0.00000000000E+00  0.00000000000E+00  0.24702034396E+03  0.24702034396E+03  0.00000000000E+00 0.  1.
         21   -1    0    0  502  503 -0.00000000000E+00 -0.00000000000E+00 -0.18989918868E+03  0.18989918868E+03  0.00000000000E+00 0.  1.
          6    1    1    2  501    0  0.62182974778E+02 -0.11193088956E+03 -0.21946412072E+01  0.21443894898E+03  0.17200000000E+03 0. -1.
         -6    1    1    2    0  503 -0.62182974778E+02  0.11193088956E+03  0.59315796484E+02  0.22248058366E+03  0.17200000000E+03 0. -1.
</event>
<event>
 4    1  0.1249554E+000  0.2402764E+03  0.7818608E-02  0.1119609E+00
         21   -1    0    0  503  502  0.00000000000E+00  0.00000000000E+00  0.81497075712E+02  0.81497075712E+02  0.00000000000E+00 0.  1.
         21   -1    0    0  501  503 -0.00000000000E+00 -0.00000000000E+00 -0.70911926586E+03  0.70911926586E+03  0.00000000000E+00 0.  1.
          6    1    1    2  501    0  0.51452724165E+01 -0.16769694391E+03 -0.30124384988E+03  0.38533179977E+03  0.17200000000E+03 0. -1.
         -6    1    1    2    0  502 -0.51452724165E+01  0.16769694391E+03 -0.32637834026E+03  0.40528454179E+03  0.17200000000E+03 0. -1.
</event>
<event>
 4    1  0.1249554E+000  0.1843051E+03  0.7818608E-02  0.1163700E+00
         21   -1    0    0  501  502  0.00000000000E+00  0.00000000000E+00  0.30333970906E+03  0.30333970906E+03  0.00000000000E+00 0.  1.
         21   -1    0    0  502  503 -0.00000000000E+00 -0.00000000000E+00 -0.12783893098E+03  0.12783893098E+03  0.00000000000E+00 0.  1.
          6    1    1    2  501    0  0.12074316060E+02 -0.65104466687E+02  0.16368059407E+03  0.24649486317E+03  0.17200000000E+03 0.  1.
         -6    1    1    2    0  503 -0.12074316060E+02  0.65104466687E+02  0.11820184008E+02  0.18468377688E+03  0.17200000000E+03 0.  1.
</event>
<event>
 4    1  0.1249554E+000  0.2039509E+03  0.7818608E-02  0.1146448E+00
         21   -1    0    0  501  502  0.00000000000E+00  0.00000000000E+00  0.30634925274E+03  0.30634925274E+03  0.00000000000E+00 0. -1.
         21   -1    0    0  502  503 -0.00000000000E+00 -0.00000000000E+00 -0.29074483534E+03  0.29074483534E+03  0.00000000000E+00 0. -1.
          6    1    1    2  501    0 -0.30309908588E+02 -0.10532456333E+03  0.22576081619E+03  0.30424315987E+03  0.17200000000E+03 0. -1.
         -6    1    1    2    0  503  0.30309908588E+02  0.10532456333E+03 -0.21015639880E+03  0.29285092821E+03  0.17200000000E+03 0. -1.
</event>
<event>
 4    1  0.1249554E+000  0.2093102E+03  0.7818608E-02  0.1142113E+00
         21   -1    0    0  501  502  0.00000000000E+00  0.00000000000E+00  0.28057721744E+03  0.28057721744E+03  0.00000000000E+00 0.  1.
         21   -1    0    0  502  503 -0.00000000000E+00 -0.00000000000E+00 -0.27230686275E+03  0.27230686275E+03  0.00000000000E+00 0.  1.
          6    1    1    2  501    0 -0.99989769720E+02  0.65029312714E+02  0.18468885561E+03  0.27914286476E+03  0.17200000000E+03 0.  1.
         -6    1    1    2    0  503  0.99989769720E+02 -0.65029312714E+02 -0.17641850092E+03  0.27374121543E+03  0.17200000000E+03 0.  1.
</event>
<event>
 4    1  0.1249554E+000  0.2395382E+03  0.7818608E-02  0.1120101E+00
         21   -1    0    0  501  502  0.00000000000E+00  0.00000000000E+00  0.64661744956E+02  0.64661744956E+02  0.00000000000E+00 0.  1.
         21   -1    0    0  502  503 -0.00000000000E+00 -0.00000000000E+00 -0.15017219735E+04  0.15017219735E+04  0.00000000000E+00 0.  1.
          6    1    1    2  501    0 -0.92243467161E+02 -0.13887300755E+03 -0.21759232803E+03  0.32361240810E+03  0.17200000000E+03 0.  1.
         -6    1    1    2    0  503  0.92243467161E+02  0.13887300755E+03 -0.12194679005E+04  0.12427713103E+04  0.17200000000E+03 0.  1.
</event>
<event>
 4    1  0.1249554E+000  0.2297808E+03  0.7818608E-02  0.1126794E+00
         21   -1    0    0  503  502  0.00000000000E+00  0.00000000000E+00  0.43460576479E+03  0.43460576479E+03  0.00000000000E+00 0.  1.
         21   -1    0    0  501  503 -0.00000000000E+00 -0.00000000000E+00 -0.13517424803E+03  0.13517424803E+03  0.00000000000E+00 0.  1.
          6    1    1    2  501    0  0.84838994589E+02  0.12656048920E+03  0.59063476082E+02  0.23725030376E+03  0.17200000000E+03 0.  1.
         -6    1    1    2    0  502 -0.84838994589E+02 -0.12656048920E+03  0.24036804067E+03  0.33252970906E+03  0.17200000000E+03 0.  1.
</event>
<event>
 4    1  0.1249554E+000  0.2062419E+03  0.7818608E-02  0.1144577E+00
         21   -1    0    0  501  502  0.00000000000E+00  0.00000000000E+00  0.15580064170E+03  0.15580064170E+03  0.00000000000E+00 0. -1.
         21   -1    0    0  502  503 -0.00000000000E+00 -0.00000000000E+00 -0.27650780658E+03  0.27650780658E+03  0.00000000000E+00 0. -1.
          6    1    1    2  501    0  0.11099741593E+03 -0.25125883224E+02 -0.36055754463E+02  0.20936989703E+03  0.17200000000E+03 0. -1.
         -6    1    1    2    0  503 -0.11099741593E+03  0.25125883224E+02 -0.84651410415E+02  0.22293855126E+03  0.17200000000E+03 0. -1.
</event>
<event>
 4    1  0.1249554E+000  0.2248262E+03  0.7818608E-02  0.1130335E+00
         21   -1    0    0  501  502  0.00000000000E+00  0.00000000000E+00  0.48133819634E+03  0.48133819634E+03  0.00000000000E+00 0. -1.
         21   -1    0    0  502  503 -0.00000000000E+00 -0.00000000000E+00 -0.16007605316E+03  0.16007605316E+03  0.00000000000E+00 0. -1.
          6    1    1    2  501    0  0.73767814243E+02 -0.12458391381E+03  0.34872508037E+03  0.41491688767E+03  0.17200000000E+03 0.  1.
         -6    1    1    2    0  503 -0.73767814243E+02  0.12458391381E+03 -0.27462937192E+02  0.22649736183E+03  0.17200000000E+03 0.  1.
</event>
<event>
 4    1  0.1249554E+000  0.1753789E+03  0.7818608E-02  0.1172352E+00
         21   -1    0    0  501  502  0.00000000000E+00  0.00000000000E+00  0.90462553085E+02  0.90462553085E+02  0.00000000000E+00 0. -1.
         21   -1    0    0  502  503 -0.00000000000E+00 -0.00000000000E+00 -0.42817922856E+03  0.42817922856E+03  0.00000000000E+00 0. -1.
          6    1    1    2  501    0  0.44352422582E+00 -0.34257530531E+02 -0.28653600507E+03  0.33594740260E+03  0.17200000000E+03 0. -1.
         -6    1    1    2    0  503 -0.44352422582E+00  0.34257530531E+02 -0.51180670405E+02  0.18269437905E+03  0.17200000000E+03 0. -1.
</event>
<event>
 4    1  0.1249554E+000  0.2111411E+03  0.7818608E-02  0.1140666E+00
         21   -1    0    0  501  502  0.00000000000E+00  0.00000000000E+00  0.62828860701E+03  0.62828860701E+03  0.00000000000E+00 0. -1.
         21   -1    0    0  502  503 -0.00000000000E+00 -0.00000000000E+00 -0.12450578235E+03  0.12450578235E+03  0.00000000000E+00 0. -1.
          6    1    1    2  501    0 -0.53542855227E+02 -0.11013511641E+03  0.49874087357E+03  0.54159305773E+03  0.17200000000E+03 0. -1.
         -6    1    1    2    0  503  0.53542855227E+02  0.11013511641E+03  0.50419510949E+01  0.21120133163E+03  0.17200000000E+03 0. -1.
</event>
<event>
 4    1  0.1249554E+000  0.1904385E+03  0.7818608E-02  0.1158066E+00
         21   -1    0    0  503  502  0.00000000000E+00  0.00000000000E+00  0.65798229460E+03  0.65798229460E+03  0.00000000000E+00 0. -1.
         21   -1    0    0  501  503 -0.00000000000E+00 -0.00000000000E+00 -0.66538538704E+03  0.66538538704E+03  0.00000000000E+00 0. -1.
          6    1    1    2  501    0  0.34413339245E+02  0.74152138104E+02 -0.63738723544E+03  0.66522876170E+03  0.17200000000E+03 0. -1.
         -6    1    1    2    0  502 -0.34413339245E+02 -0.74152138104E+02  0.62998414300E+03  0.65813891994E+03  0.17200000000E+03 0. -1.
</event>
<event>
 4    1  0.1249554E+000  0.1759692E+03  0.7818608E-02  0.1171762E+00
         21   -1    0    0  503  502  0.00000000000E+00  0.00000000000E+00  0.98938051954E+02  0.98938051954E+02  0.00000000000E+00 0.  1.
         21   -1    0    0  501  503 -0.00000000000E+00 -0.00000000000E+00 -0.32686195805E+03  0.32686195805E+03  0.00000000000E+00 0.  1.
          6    1    1    2  501    0 -0.36672994838E+02  0.60211759184E+01 -0.70079298817E+02  0.18941032504E+03  0.17200000000E+03 0.  1.
         -6    1    1    2    0  502  0.36672994838E+02 -0.60211759184E+01 -0.15784460728E+03  0.23638968496E+03  0.17200000000E+03 0.  1.
</event>
<event>
 4    1  0.1249554E+000  0.1767299E+03  0.7818608E-02  0.1171006E+00
         21   -1    0    0  503  502  0.00000000000E+00  0.00000000000E+00  0.12675222796E+03  0.12675222796E+03  0.00000000000E+00 0. -1.
         21   -1    0    0  501  503 -0.00000000000E+00 -0.00000000000E+00 -0.25778577251E+03  0.25778577251E+03  0.00000000000E+00 0. -1.
          6    1    1    2  501    0 -0.39745733181E+02  0.83511388045E+01 -0.10590015703E+03  0.20602987182E+03  0.17200000000E+03 0.  1.
         -6    1    1    2    0  502  0.39745733181E+02 -0.83511388045E+01 -0.25133387516E+02  0.17850812865E+03  0.17200000000E+03 0.  1.
</event>
<event>
 4    1  0.1249554E+000  0.2090686E+03  0.7818608E-02  0.1142306E+00
         21   -1    0    0  503  502  0.00000000000E+00  0.00000000000E+00  0.50667837576E+03  0.50667837576E+03  0.00000000000E+00 0.  1.
         21   -1    0    0  501  503 -0.00000000000E+00 -0.00000000000E+00 -0.88064174312E+02  0.88064174312E+02  0.00000000000E+00 0.  1.
          6    1    1    2  501    0 -0.90817962586E+02 -0.76666680922E+02  0.25178670361E+03  0.32727087620E+03  0.17200000000E+03 0.  1.
         -6    1    1    2    0  502  0.90817962586E+02  0.76666680922E+02  0.16682749784E+03  0.26747167388E+03  0.17200000000E+03 0.  1.
</event>
<event>
 4    1  0.1249554E+000  0.1812433E+03  0.7818608E-02  0.1166605E+00
         21   -1    0    0  503  502  0.00000000000E+00  0.00000000000E+00  0.48739797357E+03  0.48739797357E+03  0.00000000000E+00 0. -1.
         21   -1    0    0  501  503 -0.00000000000E+00 -0.00000000000E+00 -0.19708715207E+03  0.19708715207E+03  0.00000000000E+00 0. -1.
          6    1    1    2  501    0 -0.32755674239E+02  0.46821058507E+02 -0.13246948945E+03  0.22449345503E+03  0.17200000000E+03 0. -1.
         -6    1    1    2    0  502  0.32755674239E+02 -0.46821058507E+02  0.42278031095E+03  0.45999167062E+03  0.17200000000E+03 0. -1.
</event>
<event>
 4    1  0.1249554E+000  0.2275942E+03  0.7818608E-02  0.1128345E+00
         21   -1    0    0  501  502  0.00000000000E+00  0.00000000000E+00  0.47485807265E+03  0.47485807265E+03  0.00000000000E+00 0.  1.
         21   -1    0    0  502  503 -0.00000000000E+00 -0.00000000000E+00 -0.11987572741E+03  0.11987572741E+03  0.00000000000E+00 0. -1.
          6    1    1    2  501    0  0.78259342140E+02  0.12684877874E+03  0.26671572445E+03  0.35062289567E+03  0.17200000000E+03 0. -1.
         -6    1    1    2    0  503 -0.78259342140E+02 -0.12684877874E+03  0.88266620787E+02  0.24411090439E+03  0.17200000000E+03 0. -1.
</event>
<event>
 4    1  0.1249554E+000  0.1939764E+03  0.7818608E-02  0.1154923E+00
         21   -1    0    0  501  502  0.00000000000E+00  0.00000000000E+00  0.52136542959E+03  0.52136542959E+03  0.00000000000E+00 0.  1.
         21   -1    0    0  502  503 -0.00000000000E+00 -0.00000000000E+00 -0.12592518178E+03  0.12592518178E+03  0.00000000000E+00 0.  1.
          6    1    1    2  501    0  0.88393068854E+02  0.15149239723E+02  0.40917808026E+03  0.45282837306E+03  0.17200000000E+03 0.  1.
         -6    1    1    2    0  503 -0.88393068854E+02 -0.15149239723E+02 -0.13737832457E+02  0.19446223830E+03  0.17200000000E+03 0.  1.
</event>
<event>
 4    1  0.1249554E+000  0.1937238E+03  0.7818608E-02  0.1155145E+00
         21   -1    0    0  501  502  0.00000000000E+00  0.00000000000E+00  0.13221011074E+03  0.13221011074E+03  0.00000000000E+00 0.  1.
         21   -1    0    0  502  503 -0.00000000000E+00 -0.00000000000E+00 -0.28392071798E+03  0.28392071798E+03  0.00000000000E+00 0.  1.
          6    1    1    2  501    0 -0.23065426775E+02  0.86098253653E+02 -0.72767665169E+02  0.20693974072E+03  0.17200000000E+03 0. -1.
         -6    1    1    2    0  503  0.23065426775E+02 -0.86098253653E+02 -0.78942942077E+02  0.20919108800E+03  0.17200000000E+03 0. -1.
</event>
<event>
 4    1  0.1249554E+000  0.2192805E+03  0.7818608E-02  0.1134421E+00
         21   -1    0    0  503  502  0.00000000000E+00  0.00000000000E+00  0.40414998391E+03  0.40414998391E+03  0.00000000000E+00 0.  1.
         21   -1    0    0  501  503 -0.00000000000E+00 -0.00000000000E+00 -0.11899129282E+03  0.11899129282E+03  0.00000000000E+00 0.  1.
          6    1    1    2  501    0 -0.85506853902E+00  0.13601184558E+03  0.14559115485E+03  0.26321234327E+03  0.17200000000E+03 0.  1.
         -6    1    1    2    0  502  0.85506853902E+00 -0.13601184558E+03  0.13956753624E+03  0.25992893347E+03  0.17200000000E+03 0.  1.
</event>
<event>
 4    1  0.1249554E+000  0.2533878E+03  0.7818608E-02  0.1111182E+00
         21   -1    0    0  501  502  0.00000000000E+00  0.00000000000E+00  0.27464569349E+03  0.27464569349E+03  0.00000000000E+00 0. -1.
         21   -1    0    0  502  503 -0.00000000000E+00 -0.00000000000E+00 -0.42800123408E+03  0.42800123408E+03  0.00000000000E+00 0. -1.
          6    1    1    2  501    0 -0.18594872791E+03  0.66668347057E+01  0.15998953618E+03  0.29966986466E+03  0.17200000000E+03 0. -1.
         -6    1    1    2    0  503  0.18594872791E+03 -0.66668347057E+01 -0.31334507677E+03  0.40297706291E+03  0.17200000000E+03 0. -1.
</event>
<event>
 4    1  0.1249554E+000  0.2001895E+03  0.7818608E-02  0.1149579E+00
         21   -1    0    0  503  502  0.00000000000E+00  0.00000000000E+00  0.36721359140E+03  0.36721359140E+03  0.00000000000E+00 0. -1.
         21   -1    0    0  501  503 -0.00000000000E+00 -0.00000000000E+00 -0.11680306884E+03  0.11680306884E+03  0.00000000000E+00 0. -1.
          6    1    1    2  501    0  0.94480427156E+02  0.39563506484E+02  0.63197115464E+02  0.20992783894E+03  0.17200000000E+03 0. -1.
         -6    1    1    2    0  502 -0.94480427156E+02 -0.39563506484E+02  0.18721340710E+03  0.27408882130E+03  0.17200000000E+03 0. -1.
</event>
<event>
 4    1  0.1249554E+000  0.2435269E+03  0.7818608E-02  0.1117465E+00
         21   -1    0    0  501  502  0.00000000000E+00  0.00000000000E+00  0.67426497355E+03  0.67426497355E+03  0.00000000000E+00 0.  1.
         21   -1    0    0  502  503 -0.00000000000E+00 -0.00000000000E+00 -0.90110147479E+02  0.90110147479E+02  0.00000000000E+00 0. -1.
          6    1    1    2  501    0 -0.11639319382E+03  0.12717693810E+03  0.23297946677E+03  0.33702341326E+03  0.17200000000E+03 0.  1.
         -6    1    1    2    0  503  0.11639319382E+03 -0.12717693810E+03  0.35117535930E+03  0.42735170777E+03  0.17200000000E+03 0. -1.
</event>
<event>
 4    1  0.1249554E+000  0.1782484E+03  0.7818608E-02  0.1169509E+00
         21   -1    0    0  501  502  0.00000000000E+00  0.00000000000E+00  0.13586434360E+04  0.13586434360E+04  0.00000000000E+00 0.  1.
         21   -1    0    0  502  503 -0.00000000000E+00 -0.00000000000E+00 -0.23750468895E+02  0.23750468895E+02  0.00000000000E+00 0.  1.
          6    1    1    2  501    0  0.31238063350E+02  0.34823739140E+02  0.75313331427E+03  0.77393946693E+03  0.17200000000E+03 0. -1.
         -6    1    1    2    0  503 -0.31238063350E+02 -0.34823739140E+02  0.58175965278E+03  0.60845443791E+03  0.17200000000E+03 0. -1.
</event>
<event>
 4    1  0.1249554E+000  0.1740178E+03  0.7818608E-02  0.1173721E+00
         21   -1    0    0  501  502  0.00000000000E+00  0.00000000000E+00  0.27096073290E+03  0.27096073290E+03  0.00000000000E+00 0. -1.
         21   -1    0    0  502  503 -0.00000000000E+00 -0.00000000000E+00 -0.43763778041E+03  0.43763778041E+03  0.00000000000E+00 0. -1.
          6    1    1    2  501    0 -0.26310772764E+02  0.24400328334E+01  0.22239361915E+03  0.28238472402E+03  0.17200000000E+03 0. -1.
         -6    1    1    2    0  503  0.26310772764E+02 -0.24400328334E+01 -0.38907066665E+03  0.42621378928E+03  0.17200000000E+03 0. -1.
</event>
<event>
 4    1  0.1249554E+000  0.1758949E+03  0.7818608E-02  0.1171836E+00
         21   -1    0    0  503  502  0.00000000000E+00  0.00000000000E+00  0.74631690458E+02  0.74631690458E+02  0.00000000000E+00 0.  1.
         21   -1    0    0  501  503 -0.00000000000E+00 -0.00000000000E+00 -0.11883318559E+04  0.11883318559E+04  0.00000000000E+00 0.  1.
          6    1    1    2  501    0  0.81455284732E+01  0.35897756183E+02 -0.10664150933E+04  0.10808238292E+04  0.17200000000E+03 0.  1.
         -6    1    1    2    0  502 -0.81455284732E+01 -0.35897756183E+02 -0.47285072185E+02  0.18213971721E+03  0.17200000000E+03 0.  1.
</event>
<event>
 4    1  0.1249554E+000  0.3189586E+03  0.7818608E-02  0.1076130E+00
         21   -1    0    0  501  502  0.00000000000E+00  0.00000000000E+00  0.11557726095E+03  0.11557726095E+03  0.00000000000E+00 0.  1.
         21   -1    0    0  502  503 -0.00000000000E+00 -0.00000000000E+00 -0.12081626264E+04  0.12081626264E+04  0.00000000000E+00 0. -1.
          6    1    1    2  501    0 -0.55601662025E+02  0.26279092507E+03 -0.20146507428E+03  0.37725693006E+03  0.17200000000E+03 0.  1.
         -6    1    1    2    0  503  0.55601662025E+02 -0.26279092507E+03 -0.89112029116E+03  0.94648295729E+03  0.17200000000E+03 0. -1.
</event>
<event>
 4    1  0.1249554E+000  0.1918484E+03  0.7818608E-02  0.1156805E+00
         21   -1    0    0  503  502  0.00000000000E+00  0.00000000000E+00  0.88881327009E+03  0.88881327009E+03  0.00000000000E+00 0.  1.
         21   -1    0    0  501  503 -0.00000000000E+00 -0.00000000000E+00 -0.57984339303E+02  0.57984339303E+02  0.00000000000E+00 0.  1.
          6    1    1    2  501    0 -0.72265375926E+02 -0.44716139361E+02  0.16231628298E+03  0.25130139951E+03  0.17200000000E+03 0. -1.
         -6    1    1    2    0  502  0.72265375926E+02  0.44716139361E+02  0.66851264781E+03  0.69549620988E+03  0.17200000000E+03 0. -1.
</event>
<event>
 4    1  0.1249554E+000  0.2195799E+03  0.7818608E-02  0.1134197E+00
         21   -1    0    0  503  502  0.00000000000E+00  0.00000000000E+00  0.19662369862E+03  0.19662369862E+03  0.00000000000E+00 0.  1.
         21   -1    0    0  501  503 -0.00000000000E+00 -0.00000000000E+00 -0.28831979542E+03  0.28831979542E+03  0.00000000000E+00 0. -1.
          6    1    1    2  501    0 -0.85317473818E+01 -0.13622981552E+03  0.47903771765E+02  0.22474457657E+03  0.17200000000E+03 0.  1.
         -6    1    1    2    0  502  0.85317473818E+01  0.13622981552E+03 -0.13959986856E+03  0.26019891747E+03  0.17200000000E+03 0. -1.
</event>
<event>
 4    1  0.1249554E+000  0.1837638E+03  0.7818608E-02  0.1164209E+00
         21   -1    0    0  503  502  0.00000000000E+00  0.00000000000E+00  0.32144403610E+03  0.32144403610E+03  0.00000000000E+00 0.  1.
         21   -1    0    0  501  503 -0.00000000000E+00 -0.00000000000E+00 -0.10740952120E+03  0.10740952120E+03  0.00000000000E+00 0.  1.
          6    1    1    2  501    0  0.64641054562E+02  0.25794708519E+01  0.75265950517E+02  0.19858016747E+03  0.17200000000E+03 0. -1.
         -6    1    1    2    0  502 -0.64641054562E+02 -0.25794708519E+01  0.13876856438E+03  0.23027338983E+03  0.17200000000E+03 0. -1.
</event>
<event>
 4    1  0.1249554E+000  0.1849500E+03  0.7818608E-02  0.1163097E+00
         21   -1    0    0  501  502  0.00000000000E+00  0.00000000000E+00  0.18022549335E+04  0.18022549335E+04  0.00000000000E+00 0.  1.
         21   -1    0    0  502  503 -0.00000000000E+00 -0.00000000000E+00 -0.23203033185E+02  0.23203033185E+02  0.00000000000E+00 0.  1.
          6    1    1    2  501    0 -0.66978240151E+02 -0.11680374305E+02  0.12789204184E+04  0.12922244203E+04  0.17200000000E+03 0.  1.
         -6    1    1    2    0  503  0.66978240151E+02  0.11680374305E+02  0.50013148192E+03  0.53323354640E+03  0.17200000000E+03 0.  1.
</event>
<event>
 4    1  0.1249554E+000  0.2727769E+03  0.7818608E-02  0.1099701E+00
         21   -1    0    0  503  502  0.00000000000E+00  0.00000000000E+00  0.73251572034E+03  0.73251572034E+03  0.00000000000E+00 0.  1.
         21   -1    0    0  501  503 -0.00000000000E+00 -0.00000000000E+00 -0.17845097349E+03  0.17845097349E+03  0.00000000000E+00 0. -1.
          6    1    1    2  501    0  0.93470243293E+02  0.18996455582E+03 -0.21919236614E+02  0.27365611958E+03  0.17200000000E+03 0. -1.
         -6    1    1    2    0  502 -0.93470243293E+02 -0.18996455582E+03  0.57598398347E+03  0.63731057426E+03  0.17200000000E+03 0.  1.
</event>
<event>
 4    1  0.1249554E+000  0.1824578E+03  0.7818608E-02  0.1165445E+00
         21   -1    0    0  503  502  0.00000000000E+00  0.00000000000E+00  0.53476115574E+02  0.53476115574E+02  0.00000000000E+00 0.  1.
         21   -1    0    0  501  503 -0.00000000000E+00 -0.00000000000E+00 -0.26949700741E+04  0.26949700741E+04  0.00000000000E+00 0.  1.
          6    1    1    2  501    0  0.56180366724E+02  0.23464803335E+02 -0.25258400393E+04  0.25324215161E+04  0.17200000000E+03 0.  1.
         -6    1    1    2    0  502 -0.56180366724E+02 -0.23464803335E+02 -0.11565391922E+03  0.21602467367E+03  0.17200000000E+03 0.  1.
</event>
<event>
 4    1  0.1249554E+000  0.2209284E+03  0.7818608E-02  0.1133193E+00
         21   -1    0    0  503  502  0.00000000000E+00  0.00000000000E+00  0.85419127011E+03  0.85419127011E+03  0.00000000000E+00 0. -1.
         21   -1    0    0  501  503 -0.00000000000E+00 -0.00000000000E+00 -0.66193163999E+02  0.66193163999E+02  0.00000000000E+00 0.  1.
          6    1    1    2  501    0  0.13801824295E+03 -0.13278479711E+02  0.22381901212E+03  0.31449054612E+03  0.17200000000E+03 0. -1.
         -6    1    1    2    0  502 -0.13801824295E+03  0.13278479711E+02  0.56417909399E+03  0.60589388799E+03  0.17200000000E+03 0. -1.
</event>
<event>
 4    1  0.1249554E+000  0.1961049E+03  0.7818608E-02  0.1153068E+00
         21   -1    0    0  503  502  0.00000000000E+00  0.00000000000E+00  0.10102578846E+04  0.10102578846E+04  0.00000000000E+00 0. -1.
         21   -1    0    0  501  503 -0.00000000000E+00 -0.00000000000E+00 -0.42081942217E+02  0.42081942217E+02  0.00000000000E+00 0.  1.
          6    1    1    2  501    0 -0.67732303447E+01  0.93953526099E+02  0.64661898778E+03  0.67570204755E+03  0.17200000000E+03 0. -1.
         -6    1    1    2    0  502  0.67732303447E+01 -0.93953526099E+02  0.32155695464E+03  0.37663777929E+03  0.17200000000E+03 0.  1.
</event>
<event>
 4    1  0.1249554E+000  0.2009715E+03  0.7818608E-02  0.1148922E+00
         21   -1    0    0  501  502  0.00000000000E+00  0.00000000000E+00  0.15862740440E+03  0.15862740440E+03  0.00000000000E+00 0.  1.
         21   -1    0    0  502  503 -0.00000000000E+00 -0.00000000000E+00 -0.35548077087E+03  0.35548077087E+03  0.00000000000E+00 0.  1.
          6    1    1    2  501    0 -0.89748929205E+02 -0.52446716969E+02 -0.23535083520E+03  0.30948270395E+03  0.17200000000E+03 0. -1.
         -6    1    1    2    0  503  0.89748929205E+02  0.52446716969E+02  0.38497468724E+02  0.20462547132E+03  0.17200000000E+03 0. -1.
</event>
<event>
 4    1  0.1249554E+000  0.2043492E+03  0.7818608E-02  0.1146121E+00
         21   -1    0    0  501  502  0.00000000000E+00  0.00000000000E+00  0.14687589742E+03  0.14687589742E+03  0.00000000000E+00 0.  1.
         21   -1    0    0  502  503 -0.00000000000E+00 -0.00000000000E+00 -0.29260814606E+03  0.29260814606E+03  0.00000000000E+00 0.  1.
          6    1    1    2  501    0 -0.63971770011E+02  0.89901148903E+02 -0.35865941870E+02  0.20747281682E+03  0.17200000000E+03 0. -1.
         -6    1    1    2    0  503  0.63971770011E+02 -0.89901148903E+02 -0.10986630678E+03  0.23201122666E+03  0.17200000000E+03 0. -1.
</event>
<event>
 4    1  0.1249554E+000  0.2275516E+03  0.7818608E-02  0.1128375E+00
         21   -1    0    0  501  502  0.00000000000E+00  0.00000000000E+00  0.42104559660E+03  0.42104559660E+03  0.00000000000E+00 0. -1.
         21   -1    0    0  502  503 -0.00000000000E+00 -0.00000000000E+00 -0.16868237703E+03  0.16868237703E+03  0.00000000000E+00 0. -1.
          6    1    1    2  501    0 -0.21480881146E+02  0.14742551506E+03  0.27966509455E+03  0.36054441593E+03  0.17200000000E+03 0. -1.
         -6    1    1    2    0  503  0.21480881146E+02 -0.14742551506E+03 -0.27301874982E+02  0.22918355771E+03  0.17200000000E+03 0. -1.
</event>
<event>
 4    1  0.1249554E+000  0.2677009E+03  0.7818608E-02  0.1102603E+00
         21   -1    0    0  503  502  0.00000000000E+00  0.00000000000E+00  0.73762354470E+03  0.73762354470E+03  0.00000000000E+00 0.  1.
         21   -1    0    0  501  503 -0.00000000000E+00 -0.00000000000E+00 -0.13674842297E+03  0.13674842297E+03  0.00000000000E+00 0.  1.
          6    1    1    2  501    0 -0.15222479193E+03  0.13750419154E+03  0.65194521882E+02  0.27552516337E+03  0.17200000000E+03 0.  1.
         -6    1    1    2    0  502  0.15222479193E+03 -0.13750419154E+03  0.53568059984E+03  0.59884680430E+03  0.17200000000E+03 0.  1.
</event>
<event>
 4    1  0.1249554E+000  0.1783970E+03  0.7818608E-02  0.1169363E+00
         21   -1    0    0  503  502  0.00000000000E+00  0.00000000000E+00  0.88580283650E+02  0.88580283650E+02  0.00000000000E+00 0.  1.
         21   -1    0    0  501  503 -0.00000000000E+00 -0.00000000000E+00 -0.37055138654E+03  0.37055138654E+03  0.00000000000E+00 0.  1.
          6    1    1    2  501    0 -0.42158342014E+01  0.47156384855E+02 -0.18101599850E+03  0.25415013201E+03  0.17200000000E+03 0.  1.
         -6    1    1    2    0  502  0.42158342014E+01 -0.47156384855E+02 -0.10095510439E+03  0.20498153818E+03  0.17200000000E+03 0.  1.
</event>
<event>
 4    1  0.1249554E+000  0.1864124E+03  0.7818608E-02  0.1161737E+00
         21   -1    0    0  501  502  0.00000000000E+00  0.00000000000E+00  0.48560347580E+03  0.48560347580E+03  0.00000000000E+00 0. -1.
         21   -1    0    0  502  503 -0.00000000000E+00 -0.00000000000E+00 -0.11114392660E+03  0.11114392660E+03  0.00000000000E+00 0. -1.
          6    1    1    2  501    0 -0.43638911155E+02 -0.57107190916E+02  0.91644494999E+01  0.18663754434E+03  0.17200000000E+03 0. -1.
         -6    1    1    2    0  503  0.43638911155E+02  0.57107190916E+02  0.36529509970E+03  0.41010985807E+03  0.17200000000E+03 0. -1.
</event>
<event>
 4    1  0.1249554E+000  0.2877130E+03  0.7818608E-02  0.1091549E+00
         21   -1    0    0  503  502  0.00000000000E+00  0.00000000000E+00  0.96748934016E+02  0.96748934016E+02  0.00000000000E+00 0.  1.
         21   -1    0    0  501  503 -0.00000000000E+00 -0.00000000000E+00 -0.10239251744E+04  0.10239251744E+04  0.00000000000E+00 0.  1.
          6    1    1    2  501    0  0.20843182075E+03 -0.98746800235E+02 -0.69077585518E+03  0.74829809338E+03  0.17200000000E+03 0.  1.
         -6    1    1    2    0  502 -0.20843182075E+03  0.98746800235E+02 -0.23640038524E+03  0.37237601507E+03  0.17200000000E+03 0.  1.
</event>
<event>
 4    1  0.1249554E+000  0.1807954E+03  0.7818608E-02  0.1167035E+00
         21   -1    0    0  501  502  0.00000000000E+00  0.00000000000E+00  0.45221867580E+02  0.45221867580E+02  0.00000000000E+00 0.  1.
         21   -1    0    0  502  503 -0.00000000000E+00 -0.00000000000E+00 -0.14420721158E+04  0.14420721158E+04  0.00000000000E+00 0.  1.
          6    1    1    2  501    0 -0.37307315539E+02 -0.41365924481E+02 -0.17323581358E+03  0.25039493327E+03  0.17200000000E+03 0.  1.
         -6    1    1    2    0  503  0.37307315539E+02  0.41365924481E+02 -0.12236144346E+04  0.12368990501E+04  0.17200000000E+03 0.  1.
</event>
<event>
 4    1  0.1249554E+000  0.2157012E+03  0.7818608E-02  0.1137129E+00
         21   -1    0    0  503  502  0.00000000000E+00  0.00000000000E+00  0.16221848438E+04  0.16221848438E+04  0.00000000000E+00 0. -1.
         21   -1    0    0  501  503 -0.00000000000E+00 -0.00000000000E+00 -0.34032987769E+02  0.34032987769E+02  0.00000000000E+00 0. -1.
          6    1    1    2  501    0 -0.35630590467E+02 -0.12519369662E+03  0.46570323506E+03  0.51323143298E+03  0.17200000000E+03 0.  1.
         -6    1    1    2    0  502  0.35630590467E+02  0.12519369662E+03  0.11224486210E+04  0.11429863986E+04  0.17200000000E+03 0.  1.
</event>
<event>
 4    1  0.1249554E+000  0.2143389E+03  0.7818608E-02  0.1138175E+00
         21   -1    0    0  503  502  0.00000000000E+00  0.00000000000E+00  0.38703167115E+03  0.38703167115E+03  0.00000000000E+00 0. -1.
         21   -1    0    0  501  503 -0.00000000000E+00 -0.00000000000E+00 -0.15276043643E+03  0.15276043643E+03  0.00000000000E+00 0.  1.
          6    1    1    2  501    0 -0.35312062063E+02  0.12292371546E+03 -0.10304919368E+02  0.21458651615E+03  0.17200000000E+03 0. -1.
         -6    1    1    2    0  502  0.35312062063E+02 -0.12292371546E+03  0.24457615409E+03  0.32520559144E+03  0.17200000000E+03 0. -1.
</event>
<event>
 4    1  0.1249554E+000  0.2162485E+03  0.7818608E-02  0.1136711E+00
         21   -1    0    0  501  502  0.00000000000E+00  0.00000000000E+00  0.76011373585E+02  0.76011373585E+02  0.00000000000E+00 0. -1.
         21   -1    0    0  502  503 -0.00000000000E+00 -0.00000000000E+00 -0.95499779878E+03  0.95499779878E+03  0.00000000000E+00 0. -1.
          6    1    1    2  501    0  0.11602617228E+03 -0.60970075913E+02 -0.13200298147E+03  0.25335392227E+03  0.17200000000E+03 0. -1.
         -6    1    1    2    0  503 -0.11602617228E+03  0.60970075913E+02 -0.74698344373E+03  0.77765525010E+03  0.17200000000E+03 0. -1.
</event>
<event>
 4    1  0.1249554E+000  0.1749215E+03  0.7818608E-02  0.1172811E+00
         21   -1    0    0  503  502  0.00000000000E+00  0.00000000000E+00  0.18198984297E+04  0.18198984297E+04  0.00000000000E+00 0.  1.
         21   -1    0    0  501  503 -0.00000000000E+00 -0.00000000000E+00 -0.33969208720E+02  0.33969208720E+02  0.00000000000E+00 0.  1.
          6    1    1    2  501    0  0.31801533934E+02  0.14766958912E+01  0.15517131906E+04  0.15615413360E+04  0.17200000000E+03 0.  1.
         -6    1    1    2    0  502 -0.31801533934E+02 -0.14766958912E+01  0.23421603037E+03  0.29232630239E+03  0.17200000000E+03 0.  1.
</event>
<event>
 4    1  0.1249554E+000  0.1755328E+03  0.7818608E-02  0.1172198E+00
         21   -1    0    0  501  502  0.00000000000E+00  0.00000000000E+00  0.18176492986E+04  0.18176492986E+04  0.00000000000E+00 0. -1.
         21   -1    0    0  502  503 -0.00000000000E+00 -0.00000000000E+00 -0.17596952186E+02  0.17596952186E+02  0.00000000000E+00 0. -1.
          6    1    1    2  501    0 -0.22744401390E+02  0.26654172076E+02  0.10757787132E+04  0.10900053176E+04  0.17200000000E+03 0. -1.
         -6    1    1    2    0  503  0.22744401390E+02 -0.26654172076E+02  0.72427363318E+03  0.74524093313E+03  0.17200000000E+03 0. -1.
</event>
<event>
 4    1  0.1249554E+000  0.2463496E+03  0.7818608E-02  0.1115634E+00
         21   -1    0    0  501  502  0.00000000000E+00  0.00000000000E+00  0.22824397307E+04  0.22824397307E+04  0.00000000000E+00 0.  1.
         21   -1    0    0  502  503 -0.00000000000E+00 -0.00000000000E+00 -0.56054331155E+02  0.56054331155E+02  0.00000000000E+00 0.  1.
          6    1    1    2  501    0  0.11864650301E+02 -0.17596412651E+03  0.19609200779E+04  0.19763339029E+04  0.17200000000E+03 0.  1.
         -6    1    1    2    0  503 -0.11864650301E+02  0.17596412651E+03  0.26546532159E+03  0.36216015893E+03  0.17200000000E+03 0.  1.
</event>
