<event>
 4    1  0.4363334E-001  0.3352843E+03  0.7818608E-02  0.1068822E+00
         -1   -1    0    0    0  501 -0.00000000000E+00  0.00000000000E+00  0.20656073414E+03  0.20656073414E+03  0.00000000000E+00 0. -1.
          1   -1    0    0  502    0  0.00000000000E+00 -0.00000000000E+00 -0.64108948045E+03  0.64108948045E+03  0.00000000000E+00 0.  1.
          6    1    1    2  502    0  0.92524660744E+02 -0.27252666223E+03 -0.52520688429E+02  0.33937297651E+03  0.17200000000E+03 0.  1.
         -6    1    1    2    0  501 -0.92524660744E+02  0.27252666223E+03 -0.38200805788E+03  0.50827723809E+03  0.17200000000E+03 0.  1.
</event>
<event>
 4    1  0.4363334E-001  0.1886435E+03  0.7818608E-02  0.1159690E+00
         -1   -1    0    0    0  501 -0.00000000000E+00  0.00000000000E+00  0.26756344344E+03  0.26756344344E+03  0.00000000000E+00 0. -1.
          1   -1    0    0  502    0  0.00000000000E+00 -0.00000000000E+00 -0.42566649291E+03  0.42566649291E+03  0.00000000000E+00 0.  1.
          6    1    1    2  502    0 -0.64195713302E+02  0.43373880848E+02 -0.36645885986E+03  0.41216317050E+03  0.17200000000E+03 0.  1.
         -6    1    1    2    0  501  0.64195713302E+02 -0.43373880848E+02  0.20835581038E+03  0.28106676585E+03  0.17200000000E+03 0. -1.
</event>
<event>
 4    1  0.4363334E-001  0.3009791E+03  0.7818608E-02  0.1084752E+00
          1   -1    0    0  502    0  0.00000000000E+00  0.00000000000E+00  0.70614875361E+03  0.70614875361E+03  0.00000000000E+00 0. -1.
         -1   -1    0    0    0  501 -0.00000000000E+00 -0.00000000000E+00 -0.12833031720E+03  0.12833031720E+03  0.00000000000E+00 0.  1.
          6    1    1    2  502    0 -0.61395115279E+02  0.23923846769E+03  0.28108226533E+03  0.41181991755E+03  0.17200000000E+03 0.  1.
         -6    1    1    2    0  501  0.61395115279E+02 -0.23923846769E+03  0.29673617108E+03  0.42265915325E+03  0.17200000000E+03 0. -1.
</event>
<event>
 4    1  0.4363334E-001  0.2109775E+03  0.7818608E-02  0.1140794E+00
         -2   -1    0    0    0  501 -0.00000000000E+00  0.00000000000E+00  0.23582554057E+02  0.23582554057E+02  0.00000000000E+00 0. -1.
          2   -1    0    0  502    0  0.00000000000E+00 -0.00000000000E+00 -0.21008597345E+04  0.21008597345E+04  0.00000000000E+00 0.  1.
          6    1    1    2  502    0  0.87072186616E+02  0.85708550669E+02 -0.13771679622E+04  0.13932347676E+04  0.17200000000E+03 0.  1.
         -6    1    1    2    0  501 -0.87072186616E+02 -0.85708550669E+02 -0.70010921823E+03  0.73120752102E+03  0.17200000000E+03 0. -1.
</event>
<event>
 4    1  0.4363334E-001  0.2486440E+03  0.7818608E-02  0.1114165E+00
          1   -1    0    0  502    0  0.00000000000E+00  0.00000000000E+00  0.35654398418E+03  0.35654398418E+03  0.00000000000E+00 0. -1.
         -1   -1    0    0    0  501 -0.00000000000E+00 -0.00000000000E+00 -0.17394894179E+03  0.17394894179E+03  0.00000000000E+00 0.  1.
          6    1    1    2  502    0 -0.70028588073E+02 -0.16533556379E+03  0.10623132824E+03  0.27038666184E+03  0.17200000000E+03 0. -1.
         -6    1    1    2    0  501  0.70028588073E+02  0.16533556379E+03  0.76363714149E+02  0.26010626413E+03  0.17200000000E+03 0.  1.
</event>
<event>
 4    1  0.4363334E-001  0.1860346E+03  0.7818608E-02  0.1162087E+00
         -2   -1    0    0    0  501 -0.00000000000E+00  0.00000000000E+00  0.68937290982E+03  0.68937290982E+03  0.00000000000E+00 0. -1.
          2   -1    0    0  502    0  0.00000000000E+00 -0.00000000000E+00 -0.51964783814E+02  0.51964783814E+02  0.00000000000E+00 0.  1.
          6    1    1    2  502    0  0.25752903059E+01 -0.70839612910E+02  0.25046152997E+03  0.31199336671E+03  0.17200000000E+03 0.  1.
         -6    1    1    2    0  501 -0.25752903059E+01  0.70839612910E+02  0.38694659603E+03  0.42934432692E+03  0.17200000000E+03 0. -1.
</event>
<event>
 4    1  0.4363334E-001  0.2158357E+03  0.7818608E-02  0.1137026E+00
         -2   -1    0    0    0  501 -0.00000000000E+00  0.00000000000E+00  0.45076255988E+02  0.45076255988E+02  0.00000000000E+00 0. -1.
          2   -1    0    0  502    0  0.00000000000E+00 -0.00000000000E+00 -0.10823556919E+04  0.10823556919E+04  0.00000000000E+00 0.  1.
          6    1    1    2  502    0 -0.24084757809E+02 -0.12814428582E+03 -0.63844026596E+03  0.67393694568E+03  0.17200000000E+03 0. -1.
         -6    1    1    2    0  501  0.24084757809E+02  0.12814428582E+03 -0.39883916997E+03  0.45349500223E+03  0.17200000000E+03 0. -1.
</event>
<event>
 4    1  0.4363334E-001  0.2201790E+03  0.7818608E-02  0.1133750E+00
         -2   -1    0    0    0  501 -0.00000000000E+00  0.00000000000E+00  0.92934978208E+02  0.92934978208E+02  0.00000000000E+00 0.  1.
          2   -1    0    0  502    0  0.00000000000E+00 -0.00000000000E+00 -0.26001875650E+04  0.26001875650E+04  0.00000000000E+00 0. -1.
          6    1    1    2  502    0 -0.27209807544E+02 -0.13473826543E+03 -0.49689820106E+02  0.22571630872E+03  0.17200000000E+03 0.  1.
         -6    1    1    2    0  501  0.27209807544E+02  0.13473826543E+03 -0.24575627667E+04  0.24674062345E+04  0.17200000000E+03 0. -1.
</event>
<event>
 4    1  0.4363334E-001  0.2463218E+03  0.7818608E-02  0.1115652E+00
          1   -1    0    0  502    0  0.00000000000E+00  0.00000000000E+00  0.57025925881E+03  0.57025925881E+03  0.00000000000E+00 0. -1.
         -1   -1    0    0    0  501 -0.00000000000E+00 -0.00000000000E+00 -0.10662009254E+03  0.10662009254E+03  0.00000000000E+00 0.  1.
          6    1    1    2  502    0 -0.90868147377E+02  0.15110733308E+03  0.24726593118E+03  0.34901989490E+03  0.17200000000E+03 0. -1.
         -6    1    1    2    0  501  0.90868147377E+02 -0.15110733308E+03  0.21637323509E+03  0.32785945645E+03  0.17200000000E+03 0.  1.
</event>
<event>
 4    1  0.4363334E-001  0.2070535E+03  0.7818608E-02  0.1143921E+00
          1   -1    0    0  502    0  0.00000000000E+00  0.00000000000E+00  0.68356800924E+02  0.68356800924E+02  0.00000000000E+00 0.  1.
         -1   -1    0    0    0  501 -0.00000000000E+00 -0.00000000000E+00 -0.68016812189E+03  0.68016812189E+03  0.00000000000E+00 0. -1.
          6    1    1    2  502    0  0.58549221083E+02  0.99293272508E+02 -0.41037973601E+03  0.45965497167E+03  0.17200000000E+03 0. -1.
         -6    1    1    2    0  501 -0.58549221083E+02 -0.99293272508E+02 -0.20143158496E+03  0.28886995114E+03  0.17200000000E+03 0.  1.
</event>
<event>
 4    1  0.4363334E-001  0.2182620E+03  0.7818608E-02  0.1135185E+00
          2   -1    0    0  502    0  0.00000000000E+00  0.00000000000E+00  0.24744356399E+04  0.24744356399E+04  0.00000000000E+00 0. -1.
         -2   -1    0    0    0  501 -0.00000000000E+00 -0.00000000000E+00 -0.19806201040E+02  0.19806201040E+02  0.00000000000E+00 0.  1.
          6    1    1    2  502    0 -0.10802425199E+03 -0.79906685847E+02  0.10187382933E+04  0.10418570093E+04  0.17200000000E+03 0.  1.
         -6    1    1    2    0  501  0.10802425199E+03  0.79906685847E+02  0.14358911456E+04  0.14523848317E+04  0.17200000000E+03 0. -1.
</event>
<event>
 4    1  0.4363334E-001  0.1820702E+03  0.7818608E-02  0.1165814E+00
         -2   -1    0    0    0  501 -0.00000000000E+00  0.00000000000E+00  0.44618273055E+02  0.44618273055E+02  0.00000000000E+00 0. -1.
          2   -1    0    0  502    0  0.00000000000E+00 -0.00000000000E+00 -0.82152957166E+03  0.82152957166E+03  0.00000000000E+00 0.  1.
          6    1    1    2  502    0 -0.59641762201E+02  0.28984557805E+01 -0.25452474426E+03  0.31294150617E+03  0.17200000000E+03 0. -1.
         -6    1    1    2    0  501  0.59641762201E+02 -0.28984557805E+01 -0.52238655435E+03  0.55320633855E+03  0.17200000000E+03 0.  1.
</event>
<event>
 4    1  0.4363334E-001  0.3665114E+03  0.7818608E-02  0.1056035E+00
          1   -1    0    0  502    0  0.00000000000E+00  0.00000000000E+00  0.56260286491E+03  0.56260286491E+03  0.00000000000E+00 0. -1.
         -1   -1    0    0    0  501 -0.00000000000E+00 -0.00000000000E+00 -0.28506313110E+03  0.28506313110E+03  0.00000000000E+00 0.  1.
          6    1    1    2  502    0  0.31800318527E+03  0.60171342932E+02 -0.32034816239E+02  0.36790874657E+03  0.17200000000E+03 0.  1.
         -6    1    1    2    0  501 -0.31800318527E+03 -0.60171342932E+02  0.30957455006E+03  0.47975724944E+03  0.17200000000E+03 0. -1.
</event>
<event>
 4    1  0.4363334E-001  0.2074631E+03  0.7818608E-02  0.1143591E+00
         -2   -1    0    0    0  501 -0.00000000000E+00  0.00000000000E+00  0.60757757471E+03  0.60757757471E+03  0.00000000000E+00 0. -1.
          2   -1    0    0  502    0  0.00000000000E+00 -0.00000000000E+00 -0.71382236701E+02  0.71382236701E+02  0.00000000000E+00 0.  1.
          6    1    1    2  502    0  0.21348955853E+02 -0.11402270224E+03  0.29767837445E+03  0.36284069391E+03  0.17200000000E+03 0.  1.
         -6    1    1    2    0  501 -0.21348955853E+02  0.11402270224E+03  0.23851696356E+03  0.31611911750E+03  0.17200000000E+03 0.  1.
</event>
<event>
 4    1  0.4363334E-001  0.2106285E+03  0.7818608E-02  0.1141069E+00
         -1   -1    0    0    0  501 -0.00000000000E+00  0.00000000000E+00  0.19392083959E+04  0.19392083959E+04  0.00000000000E+00 0.  1.
          1   -1    0    0  502    0  0.00000000000E+00 -0.00000000000E+00 -0.22898483785E+02  0.22898483785E+02  0.00000000000E+00 0. -1.
          6    1    1    2  502    0 -0.82718015888E+02 -0.89095955807E+02  0.98780962131E+03  0.10100159442E+04  0.17200000000E+03 0.  1.
         -6    1    1    2    0  501  0.82718015888E+02  0.89095955807E+02  0.92850029077E+03  0.95209093549E+03  0.17200000000E+03 0. -1.
</event>
<event>
 4    1  0.4363334E-001  0.2199611E+03  0.7818608E-02  0.1133912E+00
         -2   -1    0    0    0  501 -0.00000000000E+00  0.00000000000E+00  0.28642428110E+03  0.28642428110E+03  0.00000000000E+00 0. -1.
          2   -1    0    0  502    0  0.00000000000E+00 -0.00000000000E+00 -0.25876833353E+03  0.25876833353E+03  0.00000000000E+00 0.  1.
          6    1    1    2  502    0  0.10404907103E+03  0.89289743618E+02  0.17445505196E+03  0.28074442586E+03  0.17200000000E+03 0. -1.
         -6    1    1    2    0  501 -0.10404907103E+03 -0.89289743618E+02 -0.14679910439E+03  0.26444818878E+03  0.17200000000E+03 0.  1.
</event>
<event>
 4    1  0.4363334E-001  0.2364814E+03  0.7818608E-02  0.1122159E+00
         -2   -1    0    0    0  501 -0.00000000000E+00  0.00000000000E+00  0.29338842309E+02  0.29338842309E+02  0.00000000000E+00 0. -1.
          2   -1    0    0  502    0  0.00000000000E+00 -0.00000000000E+00 -0.19087151127E+04  0.19087151127E+04  0.00000000000E+00 0.  1.
          6    1    1    2  502    0 -0.14010275715E+03  0.81918736222E+02 -0.97539368685E+03  0.10036514865E+04  0.17200000000E+03 0. -1.
         -6    1    1    2    0  501  0.14010275715E+03 -0.81918736222E+02 -0.90398258358E+03  0.93440246860E+03  0.17200000000E+03 0.  1.
</event>
<event>
 4    1  0.4363334E-001  0.1843676E+03  0.7818608E-02  0.1163642E+00
         -1   -1    0    0    0  501 -0.00000000000E+00  0.00000000000E+00  0.55664638581E+03  0.55664638581E+03  0.00000000000E+00 0.  1.
          1   -1    0    0  502    0  0.00000000000E+00 -0.00000000000E+00 -0.75725257139E+02  0.75725257139E+02  0.00000000000E+00 0. -1.
          6    1    1    2  502    0  0.44954441951E+02 -0.48851882743E+02  0.37958333401E+03  0.42198923654E+03  0.17200000000E+03 0.  1.
         -6    1    1    2    0  501 -0.44954441951E+02  0.48851882743E+02  0.10133779466E+03  0.21038240641E+03  0.17200000000E+03 0. -1.
</event>
<event>
 4    1  0.4363334E-001  0.2224679E+03  0.7818608E-02  0.1132056E+00
          1   -1    0    0  502    0  0.00000000000E+00  0.00000000000E+00  0.31762807147E+04  0.31762807147E+04  0.00000000000E+00 0.  1.
         -1   -1    0    0    0  501 -0.00000000000E+00 -0.00000000000E+00 -0.32103019854E+02  0.32103019854E+02  0.00000000000E+00 0. -1.
          6    1    1    2  502    0 -0.13344325917E+03  0.45835068442E+02  0.27229032993E+04  0.27319762690E+04  0.17200000000E+03 0.  1.
         -6    1    1    2    0  501  0.13344325917E+03 -0.45835068442E+02  0.42127439558E+03  0.47640746561E+03  0.17200000000E+03 0. -1.
</event>
<event>
 4    1  0.4363334E-001  0.1909167E+03  0.7818608E-02  0.1157637E+00
          2   -1    0    0  502    0  0.00000000000E+00  0.00000000000E+00  0.69867791387E+03  0.69867791387E+03  0.00000000000E+00 0.  1.
         -2   -1    0    0    0  501 -0.00000000000E+00 -0.00000000000E+00 -0.59458776377E+02  0.59458776377E+02  0.00000000000E+00 0. -1.
          6    1    1    2  502    0 -0.79858852178E+02 -0.22085017137E+02  0.45234069236E+03  0.49097992446E+03  0.17200000000E+03 0.  1.
         -6    1    1    2    0  501  0.79858852178E+02  0.22085017137E+02  0.18687844513E+03  0.26715676579E+03  0.17200000000E+03 0. -1.
</event>
<event>
 4    1  0.4363334E-001  0.1986174E+03  0.7818608E-02  0.1150911E+00
          2   -1    0    0  502    0  0.00000000000E+00  0.00000000000E+00  0.19283921288E+03  0.19283921288E+03  0.00000000000E+00 0. -1.
         -2   -1    0    0    0  501 -0.00000000000E+00 -0.00000000000E+00 -0.20545078298E+03  0.20545078298E+03  0.00000000000E+00 0.  1.
          6    1    1    2  502    0 -0.92154713126E+02  0.37045595398E+02 -0.19354566811E+02  0.19955817835E+03  0.17200000000E+03 0.  1.
         -6    1    1    2    0  501  0.92154713126E+02 -0.37045595398E+02  0.67429967107E+01  0.19873181752E+03  0.17200000000E+03 0.  1.
</event>
<event>
 4    1  0.4363334E-001  0.1919787E+03  0.7818608E-02  0.1156689E+00
          2   -1    0    0  502    0  0.00000000000E+00  0.00000000000E+00  0.11640511618E+03  0.11640511618E+03  0.00000000000E+00 0.  1.
         -2   -1    0    0    0  501 -0.00000000000E+00 -0.00000000000E+00 -0.34877626773E+03  0.34877626773E+03  0.00000000000E+00 0. -1.
          6    1    1    2  502    0  0.58184363665E+02  0.62341095277E+02 -0.45558323444E+02  0.19731039803E+03  0.17200000000E+03 0. -1.
         -6    1    1    2    0  501 -0.58184363665E+02 -0.62341095277E+02 -0.18681282810E+03  0.26787098588E+03  0.17200000000E+03 0. -1.
</event>
<event>
 4    1  0.4363334E-001  0.2184013E+03  0.7818608E-02  0.1135081E+00
          2   -1    0    0  502    0  0.00000000000E+00  0.00000000000E+00  0.81107579602E+03  0.81107579602E+03  0.00000000000E+00 0. -1.
         -2   -1    0    0    0  501 -0.00000000000E+00 -0.00000000000E+00 -0.62714130004E+02  0.62714130004E+02  0.00000000000E+00 0.  1.
          6    1    1    2  502    0 -0.11503331215E+03 -0.69874538682E+02  0.48319271957E+03  0.53025872770E+03  0.17200000000E+03 0. -1.
         -6    1    1    2    0  501  0.11503331215E+03  0.69874538682E+02  0.26516894645E+03  0.34353119832E+03  0.17200000000E+03 0.  1.
</event>
<event>
 4    1  0.4363334E-001  0.3154326E+03  0.7818608E-02  0.1077771E+00
          1   -1    0    0  502    0  0.00000000000E+00  0.00000000000E+00  0.32140296951E+04  0.32140296951E+04  0.00000000000E+00 0. -1.
         -1   -1    0    0    0  501 -0.00000000000E+00 -0.00000000000E+00 -0.31961115286E+02  0.31961115286E+02  0.00000000000E+00 0.  1.
          6    1    1    2  502    0  0.25036903380E+03  0.85023973274E+02  0.18786615364E+04  0.19049585028E+04  0.17200000000E+03 0. -1.
         -6    1    1    2    0  501 -0.25036903380E+03 -0.85023973274E+02  0.13034070435E+04  0.13410323076E+04  0.17200000000E+03 0.  1.
</event>
<event>
 4    1  0.4363334E-001  0.3254360E+03  0.7818608E-02  0.1073174E+00
         -2   -1    0    0    0  501 -0.00000000000E+00  0.00000000000E+00  0.34793331890E+02  0.34793331890E+02  0.00000000000E+00 0. -1.
          2   -1    0    0  502    0  0.00000000000E+00 -0.00000000000E+00 -0.30439709774E+04  0.30439709774E+04  0.00000000000E+00 0.  1.
          6    1    1    2  502    0 -0.72348765429E+02 -0.26662754203E+03 -0.14991904922E+04  0.15341058379E+04  0.17200000000E+03 0.  1.
         -6    1    1    2    0  501  0.72348765429E+02  0.26662754203E+03 -0.15099871533E+04  0.15446584714E+04  0.17200000000E+03 0.  1.
</event>
<event>
 4    1  0.4363334E-001  0.2012072E+03  0.7818608E-02  0.1148724E+00
          2   -1    0    0  502    0  0.00000000000E+00  0.00000000000E+00  0.11770242300E+04  0.11770242300E+04  0.00000000000E+00 0.  1.
         -2   -1    0    0    0  501 -0.00000000000E+00 -0.00000000000E+00 -0.34966629970E+02  0.34966629970E+02  0.00000000000E+00 0. -1.
          6    1    1    2  502    0  0.10239032885E+03  0.20409823624E+02  0.64847655351E+03  0.67897435945E+03  0.17200000000E+03 0.  1.
         -6    1    1    2    0  501 -0.10239032885E+03 -0.20409823624E+02  0.49358104655E+03  0.53301650055E+03  0.17200000000E+03 0. -1.
</event>
<event>
 4    1  0.4363334E-001  0.1937802E+03  0.7818608E-02  0.1155095E+00
         -2   -1    0    0    0  501 -0.00000000000E+00  0.00000000000E+00  0.86563851303E+03  0.86563851303E+03  0.00000000000E+00 0.  1.
          2   -1    0    0  502    0  0.00000000000E+00 -0.00000000000E+00 -0.54698159746E+02  0.54698159746E+02  0.00000000000E+00 0. -1.
          6    1    1    2  502    0 -0.63807220576E+02 -0.62413125212E+02  0.61480064660E+03  0.64461662611E+03  0.17200000000E+03 0.  1.
         -6    1    1    2    0  501  0.63807220576E+02  0.62413125212E+02  0.19613970668E+03  0.27572004667E+03  0.17200000000E+03 0.  1.
</event>
<event>
 4    1  0.4363334E-001  0.1994751E+03  0.7818608E-02  0.1150183E+00
          2   -1    0    0  502    0  0.00000000000E+00  0.00000000000E+00  0.18085807762E+04  0.18085807762E+04  0.00000000000E+00 0.  1.
         -2   -1    0    0    0  501 -0.00000000000E+00 -0.00000000000E+00 -0.22019978670E+02  0.22019978670E+02  0.00000000000E+00 0. -1.
          6    1    1    2  502    0 -0.91373436200E+02 -0.43095399500E+02  0.92025610993E+03  0.94162711631E+03  0.17200000000E+03 0. -1.
         -6    1    1    2    0  501  0.91373436200E+02  0.43095399500E+02  0.86630468757E+03  0.88897363853E+03  0.17200000000E+03 0. -1.
</event>
<event>
 4    1  0.4363334E-001  0.1973764E+03  0.7818608E-02  0.1151972E+00
         -2   -1    0    0    0  501 -0.00000000000E+00  0.00000000000E+00  0.25080737489E+02  0.25080737489E+02  0.00000000000E+00 0.  1.
          2   -1    0    0  502    0  0.00000000000E+00 -0.00000000000E+00 -0.15986054180E+04  0.15986054180E+04  0.00000000000E+00 0. -1.
          6    1    1    2  502    0 -0.70782621764E+02 -0.66054908225E+02 -0.65006248352E+03  0.67936636871E+03  0.17200000000E+03 0. -1.
         -6    1    1    2    0  501  0.70782621764E+02  0.66054908225E+02 -0.92346219700E+03  0.94431978680E+03  0.17200000000E+03 0. -1.
</event>
<event>
 4    1  0.4363334E-001  0.1856500E+03  0.7818608E-02  0.1162444E+00
         -1   -1    0    0    0  501 -0.00000000000E+00  0.00000000000E+00  0.66244217103E+02  0.66244217103E+02  0.00000000000E+00 0.  1.
          1   -1    0    0  502    0  0.00000000000E+00 -0.00000000000E+00 -0.66619353026E+03  0.66619353026E+03  0.00000000000E+00 0. -1.
          6    1    1    2  502    0 -0.66974448422E+02 -0.19908465467E+02 -0.47136237898E+03  0.50660479277E+03  0.17200000000E+03 0. -1.
         -6    1    1    2    0  501  0.66974448422E+02  0.19908465467E+02 -0.12858693417E+03  0.22583295459E+03  0.17200000000E+03 0. -1.
</event>
<event>
 4    1  0.4363334E-001  0.1964356E+03  0.7818608E-02  0.1152782E+00
         -2   -1    0    0    0  501 -0.00000000000E+00  0.00000000000E+00  0.30866598064E+02  0.30866598064E+02  0.00000000000E+00 0. -1.
          2   -1    0    0  502    0  0.00000000000E+00 -0.00000000000E+00 -0.14073353014E+04  0.14073353014E+04  0.00000000000E+00 0.  1.
          6    1    1    2  502    0  0.27260870190E+02 -0.90883342735E+02 -0.92858158566E+03  0.94913154951E+03  0.17200000000E+03 0.  1.
         -6    1    1    2    0  501 -0.27260870190E+02  0.90883342735E+02 -0.44788711762E+03  0.48907034991E+03  0.17200000000E+03 0. -1.
</event>
<event>
 4    1  0.4363334E-001  0.2868782E+03  0.7818608E-02  0.1091990E+00
          2   -1    0    0  502    0  0.00000000000E+00  0.00000000000E+00  0.36406996476E+04  0.36406996476E+04  0.00000000000E+00 0.  1.
         -2   -1    0    0    0  501 -0.00000000000E+00 -0.00000000000E+00 -0.45860603408E+02  0.45860603408E+02  0.00000000000E+00 0. -1.
          6    1    1    2  502    0 -0.19288882090E+03 -0.12453511539E+03  0.48481921031E+03  0.56333716270E+03  0.17200000000E+03 0. -1.
         -6    1    1    2    0  501  0.19288882090E+03  0.12453511539E+03  0.31100198338E+04  0.31232230883E+04  0.17200000000E+03 0.  1.
</event>
<event>
 4    1  0.4363334E-001  0.2792288E+03  0.7818608E-02  0.1096111E+00
          2   -1    0    0  502    0  0.00000000000E+00  0.00000000000E+00  0.17773762029E+04  0.17773762029E+04  0.00000000000E+00 0.  1.
         -2   -1    0    0    0  501 -0.00000000000E+00 -0.00000000000E+00 -0.60824969233E+02  0.60824969233E+02  0.00000000000E+00 0. -1.
          6    1    1    2  502    0  0.15036321836E+03  0.16054783388E+03  0.13435698237E+04  0.13722786072E+04  0.17200000000E+03 0.  1.
         -6    1    1    2    0  501 -0.15036321836E+03 -0.16054783388E+03  0.37298140992E+03  0.46592256496E+03  0.17200000000E+03 0. -1.
</event>
<event>
 4    1  0.4363334E-001  0.2601363E+03  0.7818608E-02  0.1107061E+00
          2   -1    0    0  502    0  0.00000000000E+00  0.00000000000E+00  0.38006900049E+04  0.38006900049E+04  0.00000000000E+00 0.  1.
         -2   -1    0    0    0  501 -0.00000000000E+00 -0.00000000000E+00 -0.20672266972E+02  0.20672266972E+02  0.00000000000E+00 0. -1.
          6    1    1    2  502    0  0.66779024594E+02 -0.18337786849E+03  0.26016094509E+04  0.26145826848E+04  0.17200000000E+03 0.  1.
         -6    1    1    2    0  501 -0.66779024594E+02  0.18337786849E+03  0.11784082870E+04  0.12067795871E+04  0.17200000000E+03 0. -1.
</event>
<event>
 4    1  0.4363334E-001  0.1982500E+03  0.7818608E-02  0.1151224E+00
          1   -1    0    0  502    0  0.00000000000E+00  0.00000000000E+00  0.20049513457E+03  0.20049513457E+03  0.00000000000E+00 0. -1.
         -1   -1    0    0    0  501 -0.00000000000E+00 -0.00000000000E+00 -0.21927765452E+03  0.21927765452E+03  0.00000000000E+00 0.  1.
          6    1    1    2  502    0 -0.24323539023E+01 -0.98555364201E+02 -0.77731417368E+02  0.21294424013E+03  0.17200000000E+03 0.  1.
         -6    1    1    2    0  501  0.24323539023E+01  0.98555364201E+02  0.58948897417E+02  0.20682854896E+03  0.17200000000E+03 0. -1.
</event>
<event>
 4    1  0.4363334E-001  0.1845196E+03  0.7818608E-02  0.1163499E+00
         -1   -1    0    0    0  501 -0.00000000000E+00  0.00000000000E+00  0.27421212812E+03  0.27421212812E+03  0.00000000000E+00 0.  1.
          1   -1    0    0  502    0  0.00000000000E+00 -0.00000000000E+00 -0.15679325553E+03  0.15679325553E+03  0.00000000000E+00 0. -1.
          6    1    1    2  502    0  0.22918906282E+02  0.62754990789E+02 -0.39598362211E+02  0.18872068097E+03  0.17200000000E+03 0. -1.
         -6    1    1    2    0  501 -0.22918906282E+02 -0.62754990789E+02  0.15701723480E+03  0.24228470269E+03  0.17200000000E+03 0.  1.
</event>
<event>
 4    1  0.4363334E-001  0.2128735E+03  0.7818608E-02  0.1139310E+00
         -2   -1    0    0    0  501 -0.00000000000E+00  0.00000000000E+00  0.38878634027E+02  0.38878634027E+02  0.00000000000E+00 0. -1.
          2   -1    0    0  502    0  0.00000000000E+00 -0.00000000000E+00 -0.11657062609E+04  0.11657062609E+04  0.00000000000E+00 0.  1.
          6    1    1    2  502    0 -0.59995256651E+02  0.11014398134E+03 -0.55651875596E+03  0.59584247346E+03  0.17200000000E+03 0.  1.
         -6    1    1    2    0  501  0.59995256651E+02 -0.11014398134E+03 -0.57030887090E+03  0.60874242145E+03  0.17200000000E+03 0. -1.
</event>
<event>
 4    1  0.4363334E-001  0.2229180E+03  0.7818608E-02  0.1131726E+00
          2   -1    0    0  502    0  0.00000000000E+00  0.00000000000E+00  0.23299795836E+03  0.23299795836E+03  0.00000000000E+00 0.  1.
         -2   -1    0    0    0  501 -0.00000000000E+00 -0.00000000000E+00 -0.22504887805E+03  0.22504887805E+03  0.00000000000E+00 0. -1.
          6    1    1    2  502    0  0.12604789383E+03  0.64964326883E+02  0.56360800966E+02  0.22993254487E+03  0.17200000000E+03 0.  1.
         -6    1    1    2    0  501 -0.12604789383E+03 -0.64964326883E+02 -0.48411720657E+02  0.22811429154E+03  0.17200000000E+03 0. -1.
</event>
<event>
 4    1  0.4363334E-001  0.1822460E+03  0.7818608E-02  0.1165647E+00
         -1   -1    0    0    0  501 -0.00000000000E+00  0.00000000000E+00  0.86956953487E+02  0.86956953487E+02  0.00000000000E+00 0.  1.
          1   -1    0    0  502    0  0.00000000000E+00 -0.00000000000E+00 -0.38466675095E+03  0.38466675095E+03  0.00000000000E+00 0. -1.
          6    1    1    2  502    0 -0.27554713510E+02 -0.53575538664E+02 -0.12905388517E+03  0.22331257434E+03  0.17200000000E+03 0.  1.
         -6    1    1    2    0  501  0.27554713510E+02  0.53575538664E+02 -0.16865591229E+03  0.24831113010E+03  0.17200000000E+03 0. -1.
</event>
<event>
 4    1  0.4363334E-001  0.1986087E+03  0.7818608E-02  0.1150918E+00
          2   -1    0    0  502    0  0.00000000000E+00  0.00000000000E+00  0.29798990960E+04  0.29798990960E+04  0.00000000000E+00 0.  1.
         -2   -1    0    0    0  501 -0.00000000000E+00 -0.00000000000E+00 -0.15149883063E+02  0.15149883063E+02  0.00000000000E+00 0. -1.
          6    1    1    2  502    0 -0.11206593880E+01 -0.99298433784E+02  0.95027363004E+03  0.97080657537E+03  0.17200000000E+03 0. -1.
         -6    1    1    2    0  501  0.11206593880E+01  0.99298433784E+02  0.20144755829E+04  0.20242424037E+04  0.17200000000E+03 0. -1.
</event>
<event>
 4    1  0.4363334E-001  0.2000794E+03  0.7818608E-02  0.1149672E+00
          2   -1    0    0  502    0  0.00000000000E+00  0.00000000000E+00  0.77889437613E+03  0.77889437613E+03  0.00000000000E+00 0.  1.
         -2   -1    0    0    0  501 -0.00000000000E+00 -0.00000000000E+00 -0.52280900244E+02  0.52280900244E+02  0.00000000000E+00 0. -1.
          6    1    1    2  502    0 -0.94564286510E+02  0.38799187139E+02  0.41738523380E+03  0.46286306247E+03  0.17200000000E+03 0.  1.
         -6    1    1    2    0  501  0.94564286510E+02 -0.38799187139E+02  0.30922824208E+03  0.36831221390E+03  0.17200000000E+03 0. -1.
</event>
<event>
 4    1  0.4363334E-001  0.2631046E+03  0.7818608E-02  0.1105292E+00
         -2   -1    0    0    0  501 -0.00000000000E+00  0.00000000000E+00  0.52959910597E+02  0.52959910597E+02  0.00000000000E+00 0.  1.
          2   -1    0    0  502    0  0.00000000000E+00 -0.00000000000E+00 -0.15891654611E+04  0.15891654611E+04  0.00000000000E+00 0. -1.
          6    1    1    2  502    0  0.16523958911E+03 -0.11106722334E+03 -0.11140138926E+04  0.11446619601E+04  0.17200000000E+03 0. -1.
         -6    1    1    2    0  501 -0.16523958911E+03  0.11106722334E+03 -0.42219165791E+03  0.49746341164E+03  0.17200000000E+03 0.  1.
</event>
<event>
 4    1  0.4363334E-001  0.1921403E+03  0.7818608E-02  0.1156545E+00
         -1   -1    0    0    0  501 -0.00000000000E+00  0.00000000000E+00  0.42633112543E+02  0.42633112543E+02  0.00000000000E+00 0.  1.
          1   -1    0    0  502    0  0.00000000000E+00 -0.00000000000E+00 -0.97219812877E+03  0.97219812877E+03  0.00000000000E+00 0. -1.
          6    1    1    2  502    0 -0.19047607404E+02 -0.83493126853E+02 -0.29703420957E+03  0.35376155138E+03  0.17200000000E+03 0.  1.
         -6    1    1    2    0  501  0.19047607404E+02  0.83493126853E+02 -0.63253080666E+03  0.66106968994E+03  0.17200000000E+03 0. -1.
</event>
<event>
 4    1  0.4363334E-001  0.2648684E+03  0.7818608E-02  0.1104253E+00
          1   -1    0    0  502    0  0.00000000000E+00  0.00000000000E+00  0.14476175448E+04  0.14476175448E+04  0.00000000000E+00 0.  1.
         -1   -1    0    0    0  501 -0.00000000000E+00 -0.00000000000E+00 -0.61179286616E+02  0.61179286616E+02  0.00000000000E+00 0. -1.
          6    1    1    2  502    0 -0.16355712241E+02  0.20075796683E+03  0.34927649477E+03  0.43834842347E+03  0.17200000000E+03 0. -1.
         -6    1    1    2    0  501  0.16355712241E+02 -0.20075796683E+03  0.10371617634E+04  0.10704484079E+04  0.17200000000E+03 0.  1.
</event>
<event>
 4    1  0.4363334E-001  0.2042371E+03  0.7818608E-02  0.1146213E+00
          2   -1    0    0  502    0  0.00000000000E+00  0.00000000000E+00  0.31131697676E+03  0.31131697676E+03  0.00000000000E+00 0. -1.
         -2   -1    0    0    0  501 -0.00000000000E+00 -0.00000000000E+00 -0.14254206475E+03  0.14254206475E+03  0.00000000000E+00 0.  1.
          6    1    1    2  502    0  0.40349984470E+02 -0.10247285467E+03  0.28797006455E+02  0.20625730235E+03  0.17200000000E+03 0. -1.
         -6    1    1    2    0  501 -0.40349984470E+02  0.10247285467E+03  0.13997790556E+03  0.24760173916E+03  0.17200000000E+03 0.  1.
</event>
<event>
 4    1  0.4363334E-001  0.1727302E+03  0.7818608E-02  0.1175030E+00
         -3   -1    0    0    0  501 -0.00000000000E+00  0.00000000000E+00  0.21864950291E+03  0.21864950291E+03  0.00000000000E+00 0.  1.
          3   -1    0    0  502    0  0.00000000000E+00 -0.00000000000E+00 -0.16138875967E+03  0.16138875967E+03  0.00000000000E+00 0. -1.
          6    1    1    2  502    0  0.47944281400E+01  0.15124328652E+02 -0.46058861235E+02  0.17876563024E+03  0.17200000000E+03 0. -1.
         -6    1    1    2    0  501 -0.47944281400E+01 -0.15124328652E+02  0.10331960447E+03  0.20127263233E+03  0.17200000000E+03 0.  1.
</event>
<event>
 4    1  0.4363334E-001  0.1955264E+03  0.7818608E-02  0.1153569E+00
         -2   -1    0    0    0  501 -0.00000000000E+00  0.00000000000E+00  0.70017619830E+02  0.70017619830E+02  0.00000000000E+00 0. -1.
          2   -1    0    0  502    0  0.00000000000E+00 -0.00000000000E+00 -0.62933361892E+03  0.62933361892E+03  0.00000000000E+00 0.  1.
          6    1    1    2  502    0 -0.14569904219E+02  0.91838368859E+02 -0.40689099046E+03  0.45143199512E+03  0.17200000000E+03 0.  1.
         -6    1    1    2    0  501  0.14569904219E+02 -0.91838368859E+02 -0.15242500863E+03  0.24791924362E+03  0.17200000000E+03 0. -1.
</event>
<event>
 4    1  0.4363334E-001  0.2282583E+03  0.7818608E-02  0.1127872E+00
         -2   -1    0    0    0  501 -0.00000000000E+00  0.00000000000E+00  0.57653909766E+02  0.57653909766E+02  0.00000000000E+00 0. -1.
          2   -1    0    0  502    0  0.00000000000E+00 -0.00000000000E+00 -0.10812421895E+04  0.10812421895E+04  0.00000000000E+00 0.  1.
          6    1    1    2  502    0 -0.12828832433E+03 -0.77845751480E+02 -0.28104343050E+03  0.36205975337E+03  0.17200000000E+03 0. -1.
         -6    1    1    2    0  501  0.12828832433E+03  0.77845751480E+02 -0.74254484926E+03  0.77683634593E+03  0.17200000000E+03 0.  1.
</event>
<event>
 4    1  0.4363334E-001  0.1805814E+03  0.7818608E-02  0.1167242E+00
          2   -1    0    0  502    0  0.00000000000E+00  0.00000000000E+00  0.19340944407E+04  0.19340944407E+04  0.00000000000E+00 0.  1.
         -2   -1    0    0    0  501 -0.00000000000E+00 -0.00000000000E+00 -0.22305042140E+02  0.22305042140E+02  0.00000000000E+00 0. -1.
          6    1    1    2  502    0 -0.31853104261E+02 -0.44844442543E+02  0.47260237407E+03  0.50592751285E+03  0.17200000000E+03 0.  1.
         -6    1    1    2    0  501  0.31853104261E+02  0.44844442543E+02  0.14391870245E+04  0.14504719700E+04  0.17200000000E+03 0.  1.
</event>
<event>
 4    1  0.4363334E-001  0.2851194E+03  0.7818608E-02  0.1092925E+00
          1   -1    0    0  502    0  0.00000000000E+00  0.00000000000E+00  0.21709838984E+03  0.21709838984E+03  0.00000000000E+00 0. -1.
         -1   -1    0    0    0  501 -0.00000000000E+00 -0.00000000000E+00 -0.48336373284E+03  0.48336373284E+03  0.00000000000E+00 0.  1.
          6    1    1    2  502    0 -0.10119830625E+02 -0.22717099394E+03 -0.29937959988E+03  0.41342619206E+03  0.17200000000E+03 0.  1.
         -6    1    1    2    0  501  0.10119830625E+02  0.22717099394E+03  0.33114256878E+02  0.28703593062E+03  0.17200000000E+03 0. -1.
</event>
<event>
 4    1  0.4363334E-001  0.1924061E+03  0.7818608E-02  0.1156309E+00
          2   -1    0    0  502    0  0.00000000000E+00  0.00000000000E+00  0.21168446239E+04  0.21168446239E+04  0.00000000000E+00 0.  1.
         -2   -1    0    0    0  501 -0.00000000000E+00 -0.00000000000E+00 -0.23062087148E+02  0.23062087148E+02  0.00000000000E+00 0. -1.
          6    1    1    2  502    0  0.25013903604E+02 -0.82525236990E+02  0.52088737513E+03  0.55528710383E+03  0.17200000000E+03 0.  1.
         -6    1    1    2    0  501 -0.25013903604E+02  0.82525236990E+02  0.15728951617E+04  0.15846196072E+04  0.17200000000E+03 0. -1.
</event>
<event>
 4    1  0.4363334E-001  0.1861203E+03  0.7818608E-02  0.1162008E+00
         -2   -1    0    0    0  501 -0.00000000000E+00  0.00000000000E+00  0.54137428377E+02  0.54137428377E+02  0.00000000000E+00 0. -1.
          2   -1    0    0  502    0  0.00000000000E+00 -0.00000000000E+00 -0.69024671329E+03  0.69024671329E+03  0.00000000000E+00 0.  1.
          6    1    1    2  502    0 -0.18654683488E+02 -0.68620575643E+02 -0.21750265470E+03  0.28626593479E+03  0.17200000000E+03 0.  1.
         -6    1    1    2    0  501  0.18654683488E+02  0.68620575643E+02 -0.41860663021E+03  0.45811820688E+03  0.17200000000E+03 0.  1.
</event>
<event>
 4    1  0.4363334E-001  0.1810730E+03  0.7818608E-02  0.1166769E+00
          2   -1    0    0  502    0  0.00000000000E+00  0.00000000000E+00  0.20207146903E+04  0.20207146903E+04  0.00000000000E+00 0.  1.
         -2   -1    0    0    0  501 -0.00000000000E+00 -0.00000000000E+00 -0.16448843828E+02  0.16448843828E+02  0.00000000000E+00 0. -1.
          6    1    1    2  502    0 -0.45175055785E+02  0.34097486969E+02  0.88348446668E+03  0.90184933728E+03  0.17200000000E+03 0. -1.
         -6    1    1    2    0  501  0.45175055785E+02 -0.34097486969E+02  0.11207813798E+04  0.11353141968E+04  0.17200000000E+03 0.  1.
</event>
<event>
 4    1  0.4363334E-001  0.2080904E+03  0.7818608E-02  0.1143087E+00
         -4   -1    0    0    0  501 -0.00000000000E+00  0.00000000000E+00  0.19852335346E+03  0.19852335346E+03  0.00000000000E+00 0.  1.
          4   -1    0    0  502    0  0.00000000000E+00 -0.00000000000E+00 -0.38164267255E+03  0.38164267255E+03  0.00000000000E+00 0. -1.
          6    1    1    2  502    0  0.71388205496E+02 -0.92851246762E+02 -0.28144206335E+03  0.35001609239E+03  0.17200000000E+03 0. -1.
         -6    1    1    2    0  501 -0.71388205496E+02  0.92851246762E+02  0.98322744251E+02  0.23014993362E+03  0.17200000000E+03 0.  1.
</event>
<event>
 4    1  0.4363334E-001  0.2343934E+03  0.7818608E-02  0.1123585E+00
          2   -1    0    0  502    0  0.00000000000E+00  0.00000000000E+00  0.12154941932E+04  0.12154941932E+04  0.00000000000E+00 0. -1.
         -2   -1    0    0    0  501 -0.00000000000E+00 -0.00000000000E+00 -0.51549719027E+02  0.51549719027E+02  0.00000000000E+00 0.  1.
          6    1    1    2  502    0 -0.12901136490E+03  0.93339791393E+02  0.80431769730E+03  0.83777515308E+03  0.17200000000E+03 0. -1.
         -6    1    1    2    0  501  0.12901136490E+03 -0.93339791393E+02  0.35962677684E+03  0.42926875911E+03  0.17200000000E+03 0. -1.
</event>
<event>
 4    1  0.4363334E-001  0.2460200E+03  0.7818608E-02  0.1115846E+00
         -2   -1    0    0    0  501 -0.00000000000E+00  0.00000000000E+00  0.43057360341E+02  0.43057360341E+02  0.00000000000E+00 0. -1.
          2   -1    0    0  502    0  0.00000000000E+00 -0.00000000000E+00 -0.14059361848E+04  0.14059361848E+04  0.00000000000E+00 0.  1.
          6    1    1    2  502    0  0.17588678770E+03 -0.23795683764E+01 -0.69078667750E+03  0.73328852319E+03  0.17200000000E+03 0.  1.
         -6    1    1    2    0  501 -0.17588678770E+03  0.23795683764E+01 -0.67209214692E+03  0.71570502191E+03  0.17200000000E+03 0. -1.
</event>
<event>
 4    1  0.4363334E-001  0.2454479E+03  0.7818608E-02  0.1116216E+00
          1   -1    0    0  502    0  0.00000000000E+00  0.00000000000E+00  0.17518882733E+04  0.17518882733E+04  0.00000000000E+00 0.  1.
         -1   -1    0    0    0  501 -0.00000000000E+00 -0.00000000000E+00 -0.35028725372E+02  0.35028725372E+02  0.00000000000E+00 0. -1.
          6    1    1    2  502    0  0.55602807287E+02 -0.16603910655E+03  0.73763219256E+03  0.77739687971E+03  0.17200000000E+03 0. -1.
         -6    1    1    2    0  501 -0.55602807287E+02  0.16603910655E+03  0.97922735533E+03  0.10095201189E+04  0.17200000000E+03 0.  1.
</event>
<event>
 4    1  0.4363334E-001  0.2383384E+03  0.7818608E-02  0.1120905E+00
         -1   -1    0    0    0  501 -0.00000000000E+00  0.00000000000E+00  0.32444763734E+03  0.32444763734E+03  0.00000000000E+00 0. -1.
          1   -1    0    0  502    0  0.00000000000E+00 -0.00000000000E+00 -0.20918260752E+03  0.20918260752E+03  0.00000000000E+00 0.  1.
          6    1    1    2  502    0 -0.14553836618E+03 -0.77715956852E+02 -0.50094322236E+02  0.24354594453E+03  0.17200000000E+03 0.  1.
         -6    1    1    2    0  501  0.14553836618E+03  0.77715956852E+02  0.16535935206E+03  0.29008430032E+03  0.17200000000E+03 0. -1.
</event>
<event>
 4    1  0.4363334E-001  0.1724955E+03  0.7818608E-02  0.1175270E+00
          2   -1    0    0  502    0  0.00000000000E+00  0.00000000000E+00  0.46796007449E+03  0.46796007449E+03  0.00000000000E+00 0.  1.
         -2   -1    0    0    0  501 -0.00000000000E+00 -0.00000000000E+00 -0.73707132913E+02  0.73707132913E+02  0.00000000000E+00 0. -1.
          6    1    1    2  502    0  0.81705774557E+01  0.10195406900E+02  0.96755434325E+02  0.19777845871E+03  0.17200000000E+03 0. -1.
         -6    1    1    2    0  501 -0.81705774557E+01 -0.10195406900E+02  0.29749750725E+03  0.34388874870E+03  0.17200000000E+03 0.  1.
</event>
<event>
 4    1  0.4363334E-001  0.1944141E+03  0.7818608E-02  0.1154539E+00
         -2   -1    0    0    0  501 -0.00000000000E+00  0.00000000000E+00  0.46203920445E+03  0.46203920445E+03  0.00000000000E+00 0.  1.
          2   -1    0    0  502    0  0.00000000000E+00 -0.00000000000E+00 -0.13329147055E+03  0.13329147055E+03  0.00000000000E+00 0. -1.
          6    1    1    2  502    0 -0.71223120310E+02 -0.56036655982E+02 -0.20628028690E+02  0.19550538419E+03  0.17200000000E+03 0. -1.
         -6    1    1    2    0  501  0.71223120310E+02  0.56036655982E+02  0.34937576259E+03  0.39982529080E+03  0.17200000000E+03 0.  1.
</event>
<event>
 4    1  0.4363334E-001  0.1773058E+03  0.7818608E-02  0.1170436E+00
         -2   -1    0    0    0  501 -0.00000000000E+00  0.00000000000E+00  0.15970084820E+03  0.15970084820E+03  0.00000000000E+00 0. -1.
          2   -1    0    0  502    0  0.00000000000E+00 -0.00000000000E+00 -0.24334031601E+03  0.24334031601E+03  0.00000000000E+00 0.  1.
          6    1    1    2  502    0 -0.27489002650E+01 -0.42962663148E+02 -0.12990165003E+03  0.21979942120E+03  0.17200000000E+03 0.  1.
         -6    1    1    2    0  501  0.27489002650E+01  0.42962663148E+02  0.46262182217E+02  0.18324174301E+03  0.17200000000E+03 0. -1.
</event>
<event>
 4    1  0.4363334E-001  0.2245923E+03  0.7818608E-02  0.1130505E+00
         -2   -1    0    0    0  501 -0.00000000000E+00  0.00000000000E+00  0.78765709142E+02  0.78765709142E+02  0.00000000000E+00 0. -1.
          2   -1    0    0  502    0  0.00000000000E+00 -0.00000000000E+00 -0.12576767065E+04  0.12576767065E+04  0.00000000000E+00 0.  1.
          6    1    1    2  502    0 -0.17374825579E+02  0.14337306492E+03 -0.12131633455E+03  0.25526334116E+03  0.17200000000E+03 0. -1.
         -6    1    1    2    0  501  0.17374825579E+02 -0.14337306492E+03 -0.10575946628E+04  0.10811790745E+04  0.17200000000E+03 0.  1.
</event>
<event>
 4    1  0.4363334E-001  0.5141467E+03  0.7818608E-02  0.1010151E+00
         -2   -1    0    0    0  501 -0.00000000000E+00  0.00000000000E+00  0.29298320887E+03  0.29298320887E+03  0.00000000000E+00 0.  1.
          2   -1    0    0  502    0  0.00000000000E+00 -0.00000000000E+00 -0.91823655680E+03  0.91823655680E+03  0.00000000000E+00 0. -1.
          6    1    1    2  502    0 -0.45819686531E+03  0.15753866668E+03 -0.39251217832E+03  0.64684821173E+03  0.17200000000E+03 0. -1.
         -6    1    1    2    0  501  0.45819686531E+03 -0.15753866668E+03 -0.23274116961E+03  0.56437155395E+03  0.17200000000E+03 0. -1.
</event>
<event>
 4    1  0.4363334E-001  0.2133589E+03  0.7818608E-02  0.1138933E+00
          2   -1    0    0  502    0  0.00000000000E+00  0.00000000000E+00  0.48466773280E+03  0.48466773280E+03  0.00000000000E+00 0.  1.
         -2   -1    0    0    0  501 -0.00000000000E+00 -0.00000000000E+00 -0.94287507719E+02  0.94287507719E+02  0.00000000000E+00 0. -1.
          6    1    1    2  502    0 -0.82442204642E+02 -0.95610056676E+02  0.21316064808E+03  0.30159486390E+03  0.17200000000E+03 0.  1.
         -6    1    1    2    0  501  0.82442204642E+02  0.95610056676E+02  0.17721957701E+03  0.27736037662E+03  0.17200000000E+03 0.  1.
</event>
<event>
 4    1  0.4363334E-001  0.1947550E+03  0.7818608E-02  0.1154241E+00
         -2   -1    0    0    0  501 -0.00000000000E+00  0.00000000000E+00  0.18522371872E+02  0.18522371872E+02  0.00000000000E+00 0. -1.
          2   -1    0    0  502    0  0.00000000000E+00 -0.00000000000E+00 -0.21409248154E+04  0.21409248154E+04  0.00000000000E+00 0.  1.
          6    1    1    2  502    0 -0.64508975031E+02 -0.64684712880E+02 -0.12864276028E+04  0.13010862758E+04  0.17200000000E+03 0.  1.
         -6    1    1    2    0  501  0.64508975031E+02  0.64684712880E+02 -0.83597484073E+03  0.85836091143E+03  0.17200000000E+03 0. -1.
</event>
<event>
 4    1  0.4363334E-001  0.2376698E+03  0.7818608E-02  0.1121355E+00
          2   -1    0    0  502    0  0.00000000000E+00  0.00000000000E+00  0.15467743164E+04  0.15467743164E+04  0.00000000000E+00 0.  1.
         -2   -1    0    0    0  501 -0.00000000000E+00 -0.00000000000E+00 -0.79260437177E+02  0.79260437177E+02  0.00000000000E+00 0. -1.
          6    1    1    2  502    0 -0.15550001472E+03 -0.52179320415E+02  0.13672822225E+03  0.27419252874E+03  0.17200000000E+03 0. -1.
         -6    1    1    2    0  501  0.15550001472E+03  0.52179320415E+02  0.13307856570E+04  0.13518422248E+04  0.17200000000E+03 0. -1.
</event>
<event>
 4    1  0.4363334E-001  0.1835173E+03  0.7818608E-02  0.1164442E+00
         -2   -1    0    0    0  501 -0.00000000000E+00  0.00000000000E+00  0.54687412028E+02  0.54687412028E+02  0.00000000000E+00 0. -1.
          2   -1    0    0  502    0  0.00000000000E+00 -0.00000000000E+00 -0.77593043505E+03  0.77593043505E+03  0.00000000000E+00 0.  1.
          6    1    1    2  502    0  0.62345968486E+01 -0.63684483195E+02 -0.54926653163E+03  0.57911337955E+03  0.17200000000E+03 0.  1.
         -6    1    1    2    0  501 -0.62345968486E+01  0.63684483195E+02 -0.17197649139E+03  0.25150446753E+03  0.17200000000E+03 0. -1.
</event>
<event>
 4    1  0.4363334E-001  0.2583390E+03  0.7818608E-02  0.1108145E+00
         -2   -1    0    0    0  501 -0.00000000000E+00  0.00000000000E+00  0.39402336193E+03  0.39402336193E+03  0.00000000000E+00 0.  1.
          2   -1    0    0  502    0  0.00000000000E+00 -0.00000000000E+00 -0.16941181754E+03  0.16941181754E+03  0.00000000000E+00 0. -1.
          6    1    1    2  502    0 -0.19045524143E+03  0.29695892227E+02  0.10834886564E+03  0.28014018221E+03  0.17200000000E+03 0. -1.
         -6    1    1    2    0  501  0.19045524143E+03 -0.29695892227E+02  0.11626267875E+03  0.28329499726E+03  0.17200000000E+03 0.  1.
</event>
<event>
 4    1  0.4363334E-001  0.1727236E+03  0.7818608E-02  0.1175037E+00
          2   -1    0    0  502    0  0.00000000000E+00  0.00000000000E+00  0.25291745184E+04  0.25291745184E+04  0.00000000000E+00 0. -1.
         -2   -1    0    0    0  501 -0.00000000000E+00 -0.00000000000E+00 -0.17589081305E+02  0.17589081305E+02  0.00000000000E+00 0.  1.
          6    1    1    2  502    0 -0.15786810551E+02  0.45398285390E+00  0.19865992847E+04  0.19940938161E+04  0.17200000000E+03 0. -1.
         -6    1    1    2    0  501  0.15786810551E+02 -0.45398285390E+00  0.52498615237E+03  0.55266978357E+03  0.17200000000E+03 0.  1.
</event>
<event>
 4    1  0.4363334E-001  0.1803970E+03  0.7818608E-02  0.1167419E+00
         -1   -1    0    0    0  501 -0.00000000000E+00  0.00000000000E+00  0.12610524982E+04  0.12610524982E+04  0.00000000000E+00 0. -1.
          1   -1    0    0  502    0  0.00000000000E+00 -0.00000000000E+00 -0.27010253929E+02  0.27010253929E+02  0.00000000000E+00 0.  1.
          6    1    1    2  502    0  0.17541482769E+02  0.51491339832E+02  0.75299421433E+03  0.77430184586E+03  0.17200000000E+03 0.  1.
         -6    1    1    2    0  501 -0.17541482769E+02 -0.51491339832E+02  0.48104802994E+03  0.51376090627E+03  0.17200000000E+03 0.  1.
</event>
<event>
 4    1  0.4363334E-001  0.1801840E+03  0.7818608E-02  0.1167625E+00
         -2   -1    0    0    0  501 -0.00000000000E+00  0.00000000000E+00  0.21972122089E+02  0.21972122089E+02  0.00000000000E+00 0. -1.
          2   -1    0    0  502    0  0.00000000000E+00 -0.00000000000E+00 -0.20342588201E+04  0.20342588201E+04  0.00000000000E+00 0.  1.
          6    1    1    2  502    0  0.52278431433E+02 -0.12216123791E+02 -0.15439531512E+04  0.15544316007E+04  0.17200000000E+03 0.  1.
         -6    1    1    2    0  501 -0.52278431433E+02  0.12216123791E+02 -0.46833354676E+03  0.50179934147E+03  0.17200000000E+03 0. -1.
</event>
<event>
 4    1  0.4363334E-001  0.2055604E+03  0.7818608E-02  0.1145131E+00
          1   -1    0    0  502    0  0.00000000000E+00  0.00000000000E+00  0.64419450637E+02  0.64419450637E+02  0.00000000000E+00 0.  1.
         -1   -1    0    0    0  501 -0.00000000000E+00 -0.00000000000E+00 -0.69762112545E+03  0.69762112545E+03  0.00000000000E+00 0. -1.
          6    1    1    2  502    0 -0.11204699159E+03  0.10796489279E+02 -0.22346338832E+03  0.30362967316E+03  0.17200000000E+03 0.  1.
         -6    1    1    2    0  501  0.11204699159E+03 -0.10796489279E+02 -0.40973828649E+03  0.45841090292E+03  0.17200000000E+03 0. -1.
</event>
<event>
 4    1  0.4363334E-001  0.2661372E+03  0.7818608E-02  0.1103511E+00
         -1   -1    0    0    0  501 -0.00000000000E+00  0.00000000000E+00  0.59670762762E+02  0.59670762762E+02  0.00000000000E+00 0.  1.
          1   -1    0    0  502    0  0.00000000000E+00 -0.00000000000E+00 -0.14349145328E+04  0.14349145328E+04  0.00000000000E+00 0. -1.
          6    1    1    2  502    0 -0.12783548508E+03 -0.15780707923E+03 -0.99824356656E+03  0.10331114188E+04  0.17200000000E+03 0. -1.
         -6    1    1    2    0  501  0.12783548508E+03  0.15780707923E+03 -0.37700020348E+03  0.46147387676E+03  0.17200000000E+03 0.  1.
</event>
<event>
 4    1  0.4363334E-001  0.1882594E+03  0.7818608E-02  0.1160041E+00
         -2   -1    0    0    0  501 -0.00000000000E+00  0.00000000000E+00  0.44605221061E+03  0.44605221061E+03  0.00000000000E+00 0. -1.
          2   -1    0    0  502    0  0.00000000000E+00 -0.00000000000E+00 -0.79467004090E+02  0.79467004090E+02  0.00000000000E+00 0.  1.
          6    1    1    2  502    0  0.14006668748E+02 -0.75242430811E+02  0.18022770108E+03  0.26062163072E+03  0.17200000000E+03 0. -1.
         -6    1    1    2    0  501 -0.14006668748E+02  0.75242430811E+02  0.18635750544E+03  0.26489758398E+03  0.17200000000E+03 0. -1.
</event>
<event>
 4    1  0.4363334E-001  0.2382263E+03  0.7818608E-02  0.1120980E+00
          2   -1    0    0  502    0  0.00000000000E+00  0.00000000000E+00  0.23629266214E+04  0.23629266214E+04  0.00000000000E+00 0. -1.
         -2   -1    0    0    0  501 -0.00000000000E+00 -0.00000000000E+00 -0.25224249041E+02  0.25224249041E+02  0.00000000000E+00 0.  1.
          6    1    1    2  502    0 -0.15973251683E+03  0.40660727622E+02  0.14300175814E+04  0.14497248203E+04  0.17200000000E+03 0. -1.
         -6    1    1    2    0  501  0.15973251683E+03 -0.40660727622E+02  0.90768479103E+03  0.93842605014E+03  0.17200000000E+03 0.  1.
</event>
<event>
 4    1  0.4363334E-001  0.1909550E+03  0.7818608E-02  0.1157603E+00
          1   -1    0    0  502    0  0.00000000000E+00  0.00000000000E+00  0.11144773428E+04  0.11144773428E+04  0.00000000000E+00 0. -1.
         -1   -1    0    0    0  501 -0.00000000000E+00 -0.00000000000E+00 -0.42311606581E+02  0.42311606581E+02  0.00000000000E+00 0.  1.
          6    1    1    2  502    0 -0.40183302771E+02 -0.72561015462E+02  0.81149219661E+03  0.83365663432E+03  0.17200000000E+03 0. -1.
         -6    1    1    2    0  501  0.40183302771E+02  0.72561015462E+02  0.26067353963E+03  0.32313231508E+03  0.17200000000E+03 0. -1.
</event>
<event>
 4    1  0.4363334E-001  0.2607376E+03  0.7818608E-02  0.1106701E+00
          1   -1    0    0  502    0  0.00000000000E+00  0.00000000000E+00  0.33928968370E+03  0.33928968370E+03  0.00000000000E+00 0. -1.
         -1   -1    0    0    0  501 -0.00000000000E+00 -0.00000000000E+00 -0.22387878224E+03  0.22387878224E+03  0.00000000000E+00 0.  1.
          6    1    1    2  502    0 -0.19175081738E+03  0.40394290505E+02  0.14894866510E+03  0.30028283252E+03  0.17200000000E+03 0. -1.
         -6    1    1    2    0  501  0.19175081738E+03 -0.40394290505E+02 -0.33537763634E+02  0.26288563342E+03  0.17200000000E+03 0. -1.
</event>
<event>
 4    1  0.4363334E-001  0.2193029E+03  0.7818608E-02  0.1134404E+00
         -1   -1    0    0    0  501 -0.00000000000E+00  0.00000000000E+00  0.45208246357E+02  0.45208246357E+02  0.00000000000E+00 0. -1.
          1   -1    0    0  502    0  0.00000000000E+00 -0.00000000000E+00 -0.14479755024E+04  0.14479755024E+04  0.00000000000E+00 0.  1.
          6    1    1    2  502    0  0.11475465315E+03 -0.73083187979E+02 -0.31683448064E+03  0.38532826383E+03  0.17200000000E+03 0. -1.
         -6    1    1    2    0  501 -0.11475465315E+03  0.73083187979E+02 -0.10859327754E+04  0.11078554849E+04  0.17200000000E+03 0.  1.
</event>
<event>
 4    1  0.4363334E-001  0.2743233E+03  0.7818608E-02  0.1098830E+00
          4   -1    0    0  502    0  0.00000000000E+00  0.00000000000E+00  0.13517066813E+03  0.13517066813E+03  0.00000000000E+00 0.  1.
         -4   -1    0    0    0  501 -0.00000000000E+00 -0.00000000000E+00 -0.66595683141E+03  0.66595683141E+03  0.00000000000E+00 0. -1.
          6    1    1    2  502    0 -0.10479706476E+03 -0.18624406557E+03 -0.10316817693E+03  0.29308181361E+03  0.17200000000E+03 0.  1.
         -6    1    1    2    0  501  0.10479706476E+03  0.18624406557E+03 -0.42761798635E+03  0.50804568593E+03  0.17200000000E+03 0. -1.
</event>
<event>
 4    1  0.4363334E-001  0.3932789E+03  0.7818608E-02  0.1046132E+00
          1   -1    0    0  502    0  0.00000000000E+00  0.00000000000E+00  0.22927419406E+03  0.22927419406E+03  0.00000000000E+00 0. -1.
         -1   -1    0    0    0  501 -0.00000000000E+00 -0.00000000000E+00 -0.70980869476E+03  0.70980869476E+03  0.00000000000E+00 0.  1.
          6    1    1    2  502    0 -0.57946453979E+02  0.34889326463E+03 -0.34484278923E+03  0.52305339203E+03  0.17200000000E+03 0. -1.
         -6    1    1    2    0  501  0.57946453979E+02 -0.34889326463E+03 -0.13569171147E+03  0.41602949678E+03  0.17200000000E+03 0.  1.
</event>
<event>
 4    1  0.4363334E-001  0.1786615E+03  0.7818608E-02  0.1169105E+00
         -2   -1    0    0    0  501 -0.00000000000E+00  0.00000000000E+00  0.25475869416E+02  0.25475869416E+02  0.00000000000E+00 0.  1.
          2   -1    0    0  502    0  0.00000000000E+00 -0.00000000000E+00 -0.12906566185E+04  0.12906566185E+04  0.00000000000E+00 0. -1.
          6    1    1    2  502    0 -0.25641422361E+02  0.40968908550E+02 -0.52010764672E+03  0.54993808577E+03  0.17200000000E+03 0. -1.
         -6    1    1    2    0  501  0.25641422361E+02 -0.40968908550E+02 -0.74507310237E+03  0.76619440214E+03  0.17200000000E+03 0. -1.
</event>
<event>
 4    1  0.4363334E-001  0.3306256E+03  0.7818608E-02  0.1070860E+00
         -3   -1    0    0    0  501 -0.00000000000E+00  0.00000000000E+00  0.19862068673E+03  0.19862068673E+03  0.00000000000E+00 0.  1.
          3   -1    0    0  502    0  0.00000000000E+00 -0.00000000000E+00 -0.80506248136E+03  0.80506248136E+03  0.00000000000E+00 0. -1.
          6    1    1    2  502    0 -0.27344321130E+03  0.70413925163E+02 -0.58549211448E+03  0.67239447260E+03  0.17200000000E+03 0. -1.
         -6    1    1    2    0  501  0.27344321130E+03 -0.70413925163E+02 -0.20949680145E+02  0.33128869549E+03  0.17200000000E+03 0.  1.
</event>
<event>
 4    1  0.4363334E-001  0.2148110E+03  0.7818608E-02  0.1137812E+00
         -1   -1    0    0    0  501 -0.00000000000E+00  0.00000000000E+00  0.15980697672E+03  0.15980697672E+03  0.00000000000E+00 0. -1.
          1   -1    0    0  502    0  0.00000000000E+00 -0.00000000000E+00 -0.34718554568E+03  0.34718554568E+03  0.00000000000E+00 0.  1.
          6    1    1    2  502    0  0.15835050492E+02 -0.12770681422E+03 -0.19769101767E+03  0.29193409820E+03  0.17200000000E+03 0. -1.
         -6    1    1    2    0  501 -0.15835050492E+02  0.12770681422E+03  0.10312448705E+02  0.21505842420E+03  0.17200000000E+03 0. -1.
</event>
<event>
 4    1  0.4363334E-001  0.1921860E+03  0.7818608E-02  0.1156504E+00
          2   -1    0    0  502    0  0.00000000000E+00  0.00000000000E+00  0.16338010716E+04  0.16338010716E+04  0.00000000000E+00 0.  1.
         -2   -1    0    0    0  501 -0.00000000000E+00 -0.00000000000E+00 -0.28237148129E+02  0.28237148129E+02  0.00000000000E+00 0. -1.
          6    1    1    2  502    0  0.54938941358E+02  0.65826823967E+02  0.43171034320E+03  0.47255611144E+03  0.17200000000E+03 0. -1.
         -6    1    1    2    0  501 -0.54938941358E+02 -0.65826823967E+02  0.11738535802E+04  0.11894821082E+04  0.17200000000E+03 0.  1.
</event>
<event>
 4    1  0.4363334E-001  0.2202271E+03  0.7818608E-02  0.1133714E+00
         -1   -1    0    0    0  501 -0.00000000000E+00  0.00000000000E+00  0.88056422841E+02  0.88056422841E+02  0.00000000000E+00 0.  1.
          1   -1    0    0  502    0  0.00000000000E+00 -0.00000000000E+00 -0.12693743599E+04  0.12693743599E+04  0.00000000000E+00 0. -1.
          6    1    1    2  502    0 -0.64569223164E+02  0.12143645335E+03 -0.79996691380E+02  0.23430635376E+03  0.17200000000E+03 0.  1.
         -6    1    1    2    0  501  0.64569223164E+02 -0.12143645335E+03 -0.11013212456E+04  0.11231244289E+04  0.17200000000E+03 0. -1.
</event>
<event>
 4    1  0.4363334E-001  0.3476747E+03  0.7818608E-02  0.1063574E+00
          2   -1    0    0  502    0  0.00000000000E+00  0.00000000000E+00  0.73711555993E+03  0.73711555993E+03  0.00000000000E+00 0. -1.
         -2   -1    0    0    0  501 -0.00000000000E+00 -0.00000000000E+00 -0.18288315386E+03  0.18288315386E+03  0.00000000000E+00 0.  1.
          6    1    1    2  502    0 -0.27025641331E+03  0.13511164055E+03  0.42497670294E+03  0.54907456906E+03  0.17200000000E+03 0. -1.
         -6    1    1    2    0  501  0.27025641331E+03 -0.13511164055E+03  0.12925570313E+03  0.37092414472E+03  0.17200000000E+03 0.  1.
</event>
<event>
 4    1  0.4363334E-001  0.1953083E+03  0.7818608E-02  0.1153759E+00
          2   -1    0    0  502    0  0.00000000000E+00  0.00000000000E+00  0.71254671049E+03  0.71254671049E+03  0.00000000000E+00 0. -1.
         -2   -1    0    0    0  501 -0.00000000000E+00 -0.00000000000E+00 -0.58000644766E+02  0.58000644766E+02  0.00000000000E+00 0.  1.
          6    1    1    2  502    0 -0.76091703032E+02 -0.52643977566E+02  0.43419161317E+03  0.47609630600E+03  0.17200000000E+03 0. -1.
         -6    1    1    2    0  501  0.76091703032E+02  0.52643977566E+02  0.22035445255E+03  0.29445104925E+03  0.17200000000E+03 0.  1.
</event>
<event>
 4    1  0.4363334E-001  0.2354366E+03  0.7818608E-02  0.1122871E+00
          2   -1    0    0  502    0  0.00000000000E+00  0.00000000000E+00  0.35070421229E+03  0.35070421229E+03  0.00000000000E+00 0. -1.
         -2   -1    0    0    0  501 -0.00000000000E+00 -0.00000000000E+00 -0.21574868770E+03  0.21574868770E+03  0.00000000000E+00 0.  1.
          6    1    1    2  502    0  0.94855473117E+02  0.12980298563E+03  0.21394004275E+03  0.31812060252E+03  0.17200000000E+03 0. -1.
         -6    1    1    2    0  501 -0.94855473117E+02 -0.12980298563E+03 -0.78984518157E+02  0.24833229747E+03  0.17200000000E+03 0.  1.
</event>
<event>
 4    1  0.4363334E-001  0.1819326E+03  0.7818608E-02  0.1165946E+00
         -1   -1    0    0    0  501 -0.00000000000E+00  0.00000000000E+00  0.98558760114E+02  0.98558760114E+02  0.00000000000E+00 0. -1.
          1   -1    0    0  502    0  0.00000000000E+00 -0.00000000000E+00 -0.34948244201E+03  0.34948244201E+03  0.00000000000E+00 0.  1.
          6    1    1    2  502    0  0.14889764437E+02  0.57391494315E+02 -0.16973083925E+03  0.24881327637E+03  0.17200000000E+03 0. -1.
         -6    1    1    2    0  501 -0.14889764437E+02 -0.57391494315E+02 -0.81192842647E+02  0.19922792576E+03  0.17200000000E+03 0.  1.
</event>
<event>
 4    1  0.4363334E-001  0.3324525E+03  0.7818608E-02  0.1070057E+00
         -2   -1    0    0    0  501 -0.00000000000E+00  0.00000000000E+00  0.10209278829E+03  0.10209278829E+03  0.00000000000E+00 0.  1.
          2   -1    0    0  502    0  0.00000000000E+00 -0.00000000000E+00 -0.14743493311E+04  0.14743493311E+04  0.00000000000E+00 0. -1.
          6    1    1    2  502    0  0.26104998207E+03 -0.11310867541E+03 -0.10924380983E+04  0.11419044024E+04  0.17200000000E+03 0. -1.
         -6    1    1    2    0  501 -0.26104998207E+03  0.11310867541E+03 -0.27981844448E+03  0.43453771696E+03  0.17200000000E+03 0.  1.
</event>
<event>
 4    1  0.4363334E-001  0.1931331E+03  0.7818608E-02  0.1155665E+00
          1   -1    0    0  502    0  0.00000000000E+00  0.00000000000E+00  0.10825521229E+04  0.10825521229E+04  0.00000000000E+00 0. -1.
         -1   -1    0    0    0  501 -0.00000000000E+00 -0.00000000000E+00 -0.36429749224E+02  0.36429749224E+02  0.00000000000E+00 0.  1.
          6    1    1    2  502    0  0.76182435686E+01 -0.87512034799E+02  0.39283054109E+03  0.43773990894E+03  0.17200000000E+03 0.  1.
         -6    1    1    2    0  501 -0.76182435686E+01  0.87512034799E+02  0.65329183255E+03  0.68124196314E+03  0.17200000000E+03 0. -1.
</event>
<event>
 4    1  0.4363334E-001  0.1781324E+03  0.7818608E-02  0.1169623E+00
         -2   -1    0    0    0  501 -0.00000000000E+00  0.00000000000E+00  0.26679198032E+03  0.26679198032E+03  0.00000000000E+00 0. -1.
          2   -1    0    0  502    0  0.00000000000E+00 -0.00000000000E+00 -0.12333668990E+03  0.12333668990E+03  0.00000000000E+00 0.  1.
          6    1    1    2  502    0 -0.46159816946E+02 -0.40517429142E+01  0.10857419724E+03  0.20861328248E+03  0.17200000000E+03 0. -1.
         -6    1    1    2    0  501  0.46159816946E+02  0.40517429142E+01  0.34881093180E+02  0.18151538773E+03  0.17200000000E+03 0.  1.
</event>
<event>
 4    1  0.4363334E-001  0.1736460E+03  0.7818608E-02  0.1174098E+00
          1   -1    0    0  502    0  0.00000000000E+00  0.00000000000E+00  0.10057580800E+04  0.10057580800E+04  0.00000000000E+00 0.  1.
         -1   -1    0    0    0  501 -0.00000000000E+00 -0.00000000000E+00 -0.35369348224E+02  0.35369348224E+02  0.00000000000E+00 0. -1.
          6    1    1    2  502    0  0.23823544857E+02  0.11663076008E+01  0.68839108684E+03  0.70995437178E+03  0.17200000000E+03 0.  1.
         -6    1    1    2    0  501 -0.23823544857E+02 -0.11663076008E+01  0.28199764489E+03  0.33117305640E+03  0.17200000000E+03 0. -1.
</event>
<event>
 4    1  0.4363334E-001  0.1861807E+03  0.7818608E-02  0.1161952E+00
         -2   -1    0    0    0  501 -0.00000000000E+00  0.00000000000E+00  0.17777997608E+02  0.17777997608E+02  0.00000000000E+00 0.  1.
          2   -1    0    0  502    0  0.00000000000E+00 -0.00000000000E+00 -0.19802069751E+04  0.19802069751E+04  0.00000000000E+00 0. -1.
          6    1    1    2  502    0 -0.51385655410E+02 -0.49384042336E+02 -0.85739124495E+03  0.87737279200E+03  0.17200000000E+03 0.  1.
         -6    1    1    2    0  501  0.51385655410E+02  0.49384042336E+02 -0.11050377326E+04  0.11206121807E+04  0.17200000000E+03 0. -1.
</event>
<event>
 4    1  0.4363334E-001  0.1933920E+03  0.7818608E-02  0.1155437E+00
          2   -1    0    0  502    0  0.00000000000E+00  0.00000000000E+00  0.73888769728E+03  0.73888769728E+03  0.00000000000E+00 0.  1.
         -2   -1    0    0    0  501 -0.00000000000E+00 -0.00000000000E+00 -0.64448120827E+02  0.64448120827E+02  0.00000000000E+00 0. -1.
          6    1    1    2  502    0  0.71097915768E+02 -0.52550530956E+02  0.52329417023E+03  0.55788642261E+03  0.17200000000E+03 0.  1.
         -6    1    1    2    0  501 -0.71097915768E+02  0.52550530956E+02  0.15114540622E+03  0.24544939550E+03  0.17200000000E+03 0. -1.
</event>
<event>
 4    1  0.4363334E-001  0.4137545E+03  0.7818608E-02  0.1039118E+00
          2   -1    0    0  502    0  0.00000000000E+00  0.00000000000E+00  0.82048220776E+03  0.82048220776E+03  0.00000000000E+00 0. -1.
         -2   -1    0    0    0  501 -0.00000000000E+00 -0.00000000000E+00 -0.24355407843E+03  0.24355407843E+03  0.00000000000E+00 0.  1.
          6    1    1    2  502    0  0.23621405862E+03  0.29293640501E+03  0.48987026970E+03  0.64122203643E+03  0.17200000000E+03 0. -1.
         -6    1    1    2    0  501 -0.23621405862E+03 -0.29293640501E+03  0.87057859642E+02  0.42281424976E+03  0.17200000000E+03 0.  1.
</event>
<event>
 4    1  0.4363334E-001  0.1941729E+03  0.7818608E-02  0.1154751E+00
         -1   -1    0    0    0  501 -0.00000000000E+00  0.00000000000E+00  0.24676016364E+02  0.24676016364E+02  0.00000000000E+00 0. -1.
          1   -1    0    0  502    0  0.00000000000E+00 -0.00000000000E+00 -0.26025264805E+04  0.26025264805E+04  0.00000000000E+00 0.  1.
          6    1    1    2  502    0 -0.24769420465E+02 -0.86634810756E+02 -0.44483360885E+03  0.48536589722E+03  0.17200000000E+03 0. -1.
         -6    1    1    2    0  501  0.24769420465E+02  0.86634810756E+02 -0.21330168552E+04  0.21418365996E+04  0.17200000000E+03 0.  1.
</event>
<event>
 4    1  0.4363334E-001  0.2414143E+03  0.7818608E-02  0.1118854E+00
         -2   -1    0    0    0  501 -0.00000000000E+00  0.00000000000E+00  0.85006969551E+03  0.85006969551E+03  0.00000000000E+00 0. -1.
          2   -1    0    0  502    0  0.00000000000E+00 -0.00000000000E+00 -0.10590507839E+03  0.10590507839E+03  0.00000000000E+00 0.  1.
          6    1    1    2  502    0 -0.44892719052E+02  0.16334482494E+03  0.65592255861E+03  0.69893868898E+03  0.17200000000E+03 0. -1.
         -6    1    1    2    0  501  0.44892719052E+02 -0.16334482494E+03  0.88242058516E+02  0.25703608492E+03  0.17200000000E+03 0.  1.
</event>
<event>
 4    1  0.4363334E-001  0.1814331E+03  0.7818608E-02  0.1166423E+00
         -2   -1    0    0    0  501 -0.00000000000E+00  0.00000000000E+00  0.18395149345E+03  0.18395149345E+03  0.00000000000E+00 0. -1.
          2   -1    0    0  502    0  0.00000000000E+00 -0.00000000000E+00 -0.18014976982E+03  0.18014976982E+03  0.00000000000E+00 0.  1.
          6    1    1    2  502    0 -0.53601995311E+02 -0.21465914954E+02 -0.12961300794E+02  0.18189544998E+03  0.17200000000E+03 0. -1.
         -6    1    1    2    0  501  0.53601995311E+02  0.21465914954E+02  0.16763024425E+02  0.18220581328E+03  0.17200000000E+03 0. -1.
</event>
<event>
 4    1  0.4363334E-001  0.2760964E+03  0.7818608E-02  0.1097840E+00
          2   -1    0    0  502    0  0.00000000000E+00  0.00000000000E+00  0.28995123231E+04  0.28995123231E+04  0.00000000000E+00 0.  1.
         -2   -1    0    0    0  501 -0.00000000000E+00 -0.00000000000E+00 -0.38929900068E+02  0.38929900068E+02  0.00000000000E+00 0. -1.
          6    1    1    2  502    0  0.11520525422E+02 -0.21566756309E+03  0.22674564101E+04  0.22842039733E+04  0.17200000000E+03 0.  1.
         -6    1    1    2    0  501 -0.11520525422E+02  0.21566756309E+03  0.59312601292E+03  0.65423824978E+03  0.17200000000E+03 0. -1.
</event>
<event>
 4    1  0.4363334E-001  0.3443361E+03  0.7818608E-02  0.1064964E+00
         -2   -1    0    0    0  501 -0.00000000000E+00  0.00000000000E+00  0.12843119398E+03  0.12843119398E+03  0.00000000000E+00 0. -1.
          2   -1    0    0  502    0  0.00000000000E+00 -0.00000000000E+00 -0.96495856193E+03  0.96495856193E+03  0.00000000000E+00 0.  1.
          6    1    1    2  502    0 -0.29416499949E+03 -0.49500872144E+02 -0.53199377447E+03  0.63370715583E+03  0.17200000000E+03 0. -1.
         -6    1    1    2    0  501  0.29416499949E+03  0.49500872144E+02 -0.30453359348E+03  0.45968260008E+03  0.17200000000E+03 0.  1.
</event>
<event>
 4    1  0.4363334E-001  0.1735895E+03  0.7818608E-02  0.1174155E+00
         -1   -1    0    0    0  501 -0.00000000000E+00  0.00000000000E+00  0.10770367251E+03  0.10770367251E+03  0.00000000000E+00 0. -1.
          1   -1    0    0  502    0  0.00000000000E+00 -0.00000000000E+00 -0.33899761077E+03  0.33899761077E+03  0.00000000000E+00 0.  1.
          6    1    1    2  502    0  0.12981839072E+01  0.23401500737E+02 -0.22296836694E+02  0.17501561200E+03  0.17200000000E+03 0. -1.
         -6    1    1    2    0  501 -0.12981839072E+01 -0.23401500737E+02 -0.20899710156E+03  0.27168567128E+03  0.17200000000E+03 0.  1.
</event>
<event>
 4    1  0.4363334E-001  0.1775210E+03  0.7818608E-02  0.1170224E+00
          2   -1    0    0  502    0  0.00000000000E+00  0.00000000000E+00  0.16376806849E+03  0.16376806849E+03  0.00000000000E+00 0. -1.
         -2   -1    0    0    0  501 -0.00000000000E+00 -0.00000000000E+00 -0.37866726532E+03  0.37866726532E+03  0.00000000000E+00 0.  1.
          6    1    1    2  502    0  0.25988546777E+02 -0.35416297483E+02 -0.29765533128E+03  0.34657238051E+03  0.17200000000E+03 0.  1.
         -6    1    1    2    0  501 -0.25988546777E+02  0.35416297483E+02  0.82756134448E+02  0.19586295331E+03  0.17200000000E+03 0. -1.
</event>
<event>
 4    1  0.4363334E-001  0.1982442E+03  0.7818608E-02  0.1151229E+00
         -1   -1    0    0    0  501 -0.00000000000E+00  0.00000000000E+00  0.19754456213E+03  0.19754456213E+03  0.00000000000E+00 0. -1.
          1   -1    0    0  502    0  0.00000000000E+00 -0.00000000000E+00 -0.21765113498E+03  0.21765113498E+03  0.00000000000E+00 0.  1.
          6    1    1    2  502    0 -0.21018882958E+02  0.96306656787E+02  0.50804895815E+02  0.20465068537E+03  0.17200000000E+03 0. -1.
         -6    1    1    2    0  501  0.21018882958E+02 -0.96306656787E+02 -0.70911468663E+02  0.21054501174E+03  0.17200000000E+03 0.  1.
</event>
<event>
 4    1  0.4363334E-001  0.3253902E+03  0.7818608E-02  0.1073195E+00
          1   -1    0    0  502    0  0.00000000000E+00  0.00000000000E+00  0.24706658142E+03  0.24706658142E+03  0.00000000000E+00 0.  1.
         -1   -1    0    0    0  501 -0.00000000000E+00 -0.00000000000E+00 -0.42884577926E+03  0.42884577926E+03  0.00000000000E+00 0. -1.
          6    1    1    2  502    0  0.17293400779E+03 -0.21538020143E+03 -0.81918571041E+02  0.33554352102E+03  0.17200000000E+03 0.  1.
         -6    1    1    2    0  501 -0.17293400779E+03  0.21538020143E+03 -0.99860626798E+02  0.34036883965E+03  0.17200000000E+03 0.  1.
</event>
<event>
 4    1  0.4363334E-001  0.1846923E+03  0.7818608E-02  0.1163338E+00
         -2   -1    0    0    0  501 -0.00000000000E+00  0.00000000000E+00  0.14666117581E+03  0.14666117581E+03  0.00000000000E+00 0.  1.
          2   -1    0    0  502    0  0.00000000000E+00 -0.00000000000E+00 -0.85894330792E+03  0.85894330792E+03  0.00000000000E+00 0. -1.
          6    1    1    2  502    0  0.30816177123E+02 -0.59813140228E+02 -0.78550566791E+03  0.80692651638E+03  0.17200000000E+03 0. -1.
         -6    1    1    2    0  501 -0.30816177123E+02  0.59813140228E+02  0.73223535805E+02  0.19867796735E+03  0.17200000000E+03 0.  1.
</event>
<event>
 4    1  0.4363334E-001  0.1915723E+03  0.7818608E-02  0.1157051E+00
         -2   -1    0    0    0  501 -0.00000000000E+00  0.00000000000E+00  0.11111428220E+02  0.11111428220E+02  0.00000000000E+00 0.  1.
          2   -1    0    0  502    0  0.00000000000E+00 -0.00000000000E+00 -0.44081001945E+04  0.44081001945E+04  0.00000000000E+00 0. -1.
          6    1    1    2  502    0  0.66634746933E+02 -0.51727890777E+02 -0.10921023050E+04  0.11087774388E+04  0.17200000000E+03 0.  1.
         -6    1    1    2    0  501 -0.66634746933E+02  0.51727890777E+02 -0.33048864613E+04  0.33104341839E+04  0.17200000000E+03 0. -1.
</event>
<event>
 4    1  0.4363334E-001  0.3800504E+03  0.7818608E-02  0.1050915E+00
         -2   -1    0    0    0  501 -0.00000000000E+00  0.00000000000E+00  0.67997572688E+03  0.67997572688E+03  0.00000000000E+00 0.  1.
          2   -1    0    0  502    0  0.00000000000E+00 -0.00000000000E+00 -0.23858922698E+03  0.23858922698E+03  0.00000000000E+00 0. -1.
          6    1    1    2  502    0 -0.65536334054E+02 -0.33250461654E+03  0.37280952750E+03  0.53237700448E+03  0.17200000000E+03 0.  1.
         -6    1    1    2    0  501  0.65536334054E+02  0.33250461654E+03  0.68576972405E+02  0.38618794938E+03  0.17200000000E+03 0.  1.
</event>
<event>
 4    1  0.4363334E-001  0.1891466E+03  0.7818608E-02  0.1159233E+00
          2   -1    0    0  502    0  0.00000000000E+00  0.00000000000E+00  0.56481681266E+03  0.56481681266E+03  0.00000000000E+00 0.  1.
         -2   -1    0    0    0  501 -0.00000000000E+00 -0.00000000000E+00 -0.17899984671E+03  0.17899984671E+03  0.00000000000E+00 0. -1.
          6    1    1    2  502    0  0.60706050076E+02 -0.50072111717E+02  0.49185792300E+03  0.52697310872E+03  0.17200000000E+03 0.  1.
         -6    1    1    2    0  501 -0.60706050076E+02  0.50072111717E+02 -0.10604095706E+03  0.21684355066E+03  0.17200000000E+03 0. -1.
</event>
<event>
 4    1  0.4363334E-001  0.2031710E+03  0.7818608E-02  0.1147091E+00
         -1   -1    0    0    0  501 -0.00000000000E+00  0.00000000000E+00  0.17450690675E+03  0.17450690675E+03  0.00000000000E+00 0. -1.
          1   -1    0    0  502    0  0.00000000000E+00 -0.00000000000E+00 -0.25435731737E+03  0.25435731737E+03  0.00000000000E+00 0.  1.
          6    1    1    2  502    0  0.10008361143E+03 -0.40960231434E+02  0.16822267935E+02  0.20386627611E+03  0.17200000000E+03 0. -1.
         -6    1    1    2    0  501 -0.10008361143E+03  0.40960231434E+02 -0.96672678554E+02  0.22499794802E+03  0.17200000000E+03 0.  1.
</event>
<event>
 4    1  0.4363334E-001  0.1773224E+03  0.7818608E-02  0.1170420E+00
          2   -1    0    0  502    0  0.00000000000E+00  0.00000000000E+00  0.13906927136E+04  0.13906927136E+04  0.00000000000E+00 0. -1.
         -2   -1    0    0    0  501 -0.00000000000E+00 -0.00000000000E+00 -0.22618788250E+02  0.22618788250E+02  0.00000000000E+00 0.  1.
          6    1    1    2  502    0 -0.82528151817E+01  0.42321843953E+02  0.66992955885E+03  0.69299989989E+03  0.17200000000E+03 0. -1.
         -6    1    1    2    0  501  0.82528151817E+01 -0.42321843953E+02  0.69814436646E+03  0.72031160192E+03  0.17200000000E+03 0. -1.
</event>
<event>
 4    1  0.4363334E-001  0.2131442E+03  0.7818608E-02  0.1139100E+00
          2   -1    0    0  502    0  0.00000000000E+00  0.00000000000E+00  0.20065284941E+03  0.20065284941E+03  0.00000000000E+00 0. -1.
         -2   -1    0    0    0  501 -0.00000000000E+00 -0.00000000000E+00 -0.60464328175E+03  0.60464328175E+03  0.00000000000E+00 0.  1.
          6    1    1    2  502    0  0.10802239059E+03  0.64634456547E+02  0.11646416402E+03  0.24288752817E+03  0.17200000000E+03 0. -1.
         -6    1    1    2    0  501 -0.10802239059E+03 -0.64634456547E+02 -0.52045459636E+03  0.56240860299E+03  0.17200000000E+03 0.  1.
</event>
<event>
 4    1  0.4363334E-001  0.2759782E+03  0.7818608E-02  0.1097906E+00
         -1   -1    0    0    0  501 -0.00000000000E+00  0.00000000000E+00  0.12292991221E+03  0.12292991221E+03  0.00000000000E+00 0.  1.
          1   -1    0    0  502    0  0.00000000000E+00 -0.00000000000E+00 -0.82134716307E+03  0.82134716307E+03  0.00000000000E+00 0. -1.
          6    1    1    2  502    0  0.14757473793E+03  0.15748547805E+03 -0.58322136853E+03  0.64522177875E+03  0.17200000000E+03 0. -1.
         -6    1    1    2    0  501 -0.14757473793E+03 -0.15748547805E+03 -0.11519588233E+03  0.29905529652E+03  0.17200000000E+03 0.  1.
</event>
<event>
 4    1  0.4363334E-001  0.1820789E+03  0.7818608E-02  0.1165806E+00
          4   -1    0    0  502    0  0.00000000000E+00  0.00000000000E+00  0.93981280205E+03  0.93981280205E+03  0.00000000000E+00 0. -1.
         -4   -1    0    0    0  501 -0.00000000000E+00 -0.00000000000E+00 -0.67766300587E+02  0.67766300587E+02  0.00000000000E+00 0.  1.
          6    1    1    2  502    0 -0.51245966119E+02  0.30701424088E+02  0.78485813861E+03  0.80570157268E+03  0.17200000000E+03 0. -1.
         -6    1    1    2    0  501  0.51245966119E+02 -0.30701424088E+02  0.87188362861E+02  0.20187752996E+03  0.17200000000E+03 0.  1.
</event>
<event>
 4    1  0.4363334E-001  0.3234668E+03  0.7818608E-02  0.1074065E+00
          2   -1    0    0  502    0  0.00000000000E+00  0.00000000000E+00  0.77538322465E+03  0.77538322465E+03  0.00000000000E+00 0.  1.
         -2   -1    0    0    0  501 -0.00000000000E+00 -0.00000000000E+00 -0.13666301180E+03  0.13666301180E+03  0.00000000000E+00 0. -1.
          6    1    1    2  502    0 -0.24268594644E+02 -0.27286954592E+03  0.26816629436E+03  0.42017129270E+03  0.17200000000E+03 0. -1.
         -6    1    1    2    0  501  0.24268594644E+02  0.27286954592E+03  0.37055391849E+03  0.49187494375E+03  0.17200000000E+03 0. -1.
</event>
<event>
 4    1  0.4363334E-001  0.1942448E+03  0.7818608E-02  0.1154688E+00
         -2   -1    0    0    0  501 -0.00000000000E+00  0.00000000000E+00  0.29314054446E+02  0.29314054446E+02  0.00000000000E+00 0.  1.
          2   -1    0    0  502    0  0.00000000000E+00 -0.00000000000E+00 -0.13337877962E+04  0.13337877962E+04  0.00000000000E+00 0. -1.
          6    1    1    2  502    0  0.73538993260E+02 -0.52335868327E+02 -0.52476550249E+03  0.55956220320E+03  0.17200000000E+03 0.  1.
         -6    1    1    2    0  501 -0.73538993260E+02  0.52335868327E+02 -0.77970823922E+03  0.80353964741E+03  0.17200000000E+03 0. -1.
</event>
<event>
 4    1  0.4363334E-001  0.1788113E+03  0.7818608E-02  0.1168958E+00
          1   -1    0    0  502    0  0.00000000000E+00  0.00000000000E+00  0.50662178104E+03  0.50662178104E+03  0.00000000000E+00 0.  1.
         -1   -1    0    0    0  501 -0.00000000000E+00 -0.00000000000E+00 -0.12436750756E+03  0.12436750756E+03  0.00000000000E+00 0. -1.
          6    1    1    2  502    0  0.28011150059E+02  0.40060699349E+02 -0.30291464986E+02  0.18135891765E+03  0.17200000000E+03 0. -1.
         -6    1    1    2    0  501 -0.28011150059E+02 -0.40060699349E+02  0.41254573846E+03  0.44963037095E+03  0.17200000000E+03 0.  1.
</event>
<event>
 4    1  0.4363334E-001  0.1767703E+03  0.7818608E-02  0.1170966E+00
          1   -1    0    0  502    0  0.00000000000E+00  0.00000000000E+00  0.13334016947E+03  0.13334016947E+03  0.00000000000E+00 0.  1.
         -1   -1    0    0    0  501 -0.00000000000E+00 -0.00000000000E+00 -0.23507082862E+03  0.23507082862E+03  0.00000000000E+00 0. -1.
          6    1    1    2  502    0  0.17650299013E+02 -0.36772571381E+02 -0.61092997211E+02  0.18702970184E+03  0.17200000000E+03 0. -1.
         -6    1    1    2    0  501 -0.17650299013E+02  0.36772571381E+02 -0.40637661935E+02  0.18138129625E+03  0.17200000000E+03 0.  1.
</event>
<event>
 4    1  0.4363334E-001  0.2088234E+03  0.7818608E-02  0.1142501E+00
          2   -1    0    0  502    0  0.00000000000E+00  0.00000000000E+00  0.32545890425E+03  0.32545890425E+03  0.00000000000E+00 0.  1.
         -2   -1    0    0    0  501 -0.00000000000E+00 -0.00000000000E+00 -0.15058623116E+03  0.15058623116E+03  0.00000000000E+00 0. -1.
          6    1    1    2  502    0  0.97603782967E+02 -0.67057571963E+02  0.16646257874E+03  0.26705244153E+03  0.17200000000E+03 0.  1.
         -6    1    1    2    0  501 -0.97603782967E+02  0.67057571963E+02  0.84100943480E+01  0.20899269388E+03  0.17200000000E+03 0. -1.
</event>
<event>
 4    1  0.4363334E-001  0.2733374E+03  0.7818608E-02  0.1099385E+00
         -2   -1    0    0    0  501 -0.00000000000E+00  0.00000000000E+00  0.84129946366E+02  0.84129946366E+02  0.00000000000E+00 0. -1.
          2   -1    0    0  502    0  0.00000000000E+00 -0.00000000000E+00 -0.11012375698E+04  0.11012375698E+04  0.00000000000E+00 0.  1.
          6    1    1    2  502    0 -0.16509419866E+03 -0.13369080091E+03 -0.24779285837E+03  0.36893715635E+03  0.17200000000E+03 0. -1.
         -6    1    1    2    0  501  0.16509419866E+03  0.13369080091E+03 -0.76931476509E+03  0.81643035984E+03  0.17200000000E+03 0.  1.
</event>
<event>
 4    1  0.4363334E-001  0.1776361E+03  0.7818608E-02  0.1170111E+00
         -2   -1    0    0    0  501 -0.00000000000E+00  0.00000000000E+00  0.19389304274E+02  0.19389304274E+02  0.00000000000E+00 0. -1.
          2   -1    0    0  502    0  0.00000000000E+00 -0.00000000000E+00 -0.17656650796E+04  0.17656650796E+04  0.00000000000E+00 0.  1.
          6    1    1    2  502    0  0.38313143414E+02  0.22420818530E+02 -0.62339783167E+03  0.64821250110E+03  0.17200000000E+03 0. -1.
         -6    1    1    2    0  501 -0.38313143414E+02 -0.22420818530E+02 -0.11228779437E+04  0.11368418828E+04  0.17200000000E+03 0.  1.
</event>
<event>
 4    1  0.4363334E-001  0.2478835E+03  0.7818608E-02  0.1114650E+00
         -2   -1    0    0    0  501 -0.00000000000E+00  0.00000000000E+00  0.64376004059E+03  0.64376004059E+03  0.00000000000E+00 0. -1.
          2   -1    0    0  502    0  0.00000000000E+00 -0.00000000000E+00 -0.12318189354E+03  0.12318189354E+03  0.00000000000E+00 0.  1.
          6    1    1    2  502    0 -0.13794292312E+03  0.11328719446E+03  0.78337083845E+02  0.25996718480E+03  0.17200000000E+03 0.  1.
         -6    1    1    2    0  501  0.13794292312E+03 -0.11328719446E+03  0.44224106321E+03  0.50697474933E+03  0.17200000000E+03 0. -1.
</event>
<event>
 4    1  0.4363334E-001  0.1731841E+03  0.7818608E-02  0.1174567E+00
          2   -1    0    0  502    0  0.00000000000E+00  0.00000000000E+00  0.13403185010E+04  0.13403185010E+04  0.00000000000E+00 0.  1.
         -2   -1    0    0    0  501 -0.00000000000E+00 -0.00000000000E+00 -0.23303154600E+02  0.23303154600E+02  0.00000000000E+00 0. -1.
          6    1    1    2  502    0 -0.28783653807E+01 -0.20010951085E+02  0.79440956045E+03  0.81306781568E+03  0.17200000000E+03 0.  1.
         -6    1    1    2    0  501  0.28783653807E+01  0.20010951085E+02  0.52260578597E+03  0.55055383995E+03  0.17200000000E+03 0. -1.
</event>
<event>
 4    1  0.4363334E-001  0.1776802E+03  0.7818608E-02  0.1170067E+00
         -1   -1    0    0    0  501 -0.00000000000E+00  0.00000000000E+00  0.89247398339E+02  0.89247398339E+02  0.00000000000E+00 0. -1.
          1   -1    0    0  502    0  0.00000000000E+00 -0.00000000000E+00 -0.36351327238E+03  0.36351327238E+03  0.00000000000E+00 0.  1.
          6    1    1    2  502    0  0.44459666388E+02  0.30991806951E+01 -0.10001144634E+03  0.20389349243E+03  0.17200000000E+03 0. -1.
         -6    1    1    2    0  501 -0.44459666388E+02 -0.30991806951E+01 -0.17425442770E+03  0.24886717829E+03  0.17200000000E+03 0.  1.
</event>
<event>
 4    1  0.4363334E-001  0.2140342E+03  0.7818608E-02  0.1138411E+00
         -2   -1    0    0    0  501 -0.00000000000E+00  0.00000000000E+00  0.11438025858E+03  0.11438025858E+03  0.00000000000E+00 0.  1.
          2   -1    0    0  502    0  0.00000000000E+00 -0.00000000000E+00 -0.42277560285E+03  0.42277560285E+03  0.00000000000E+00 0. -1.
          6    1    1    2  502    0 -0.11953666021E+03 -0.44018254351E+02 -0.92564143325E+02  0.23319249662E+03  0.17200000000E+03 0.  1.
         -6    1    1    2    0  501  0.11953666021E+03  0.44018254351E+02 -0.21583120094E+03  0.30396336481E+03  0.17200000000E+03 0. -1.
</event>
<event>
 4    1  0.4363334E-001  0.2329497E+03  0.7818608E-02  0.1124581E+00
          2   -1    0    0  502    0  0.00000000000E+00  0.00000000000E+00  0.10607885646E+04  0.10607885646E+04  0.00000000000E+00 0. -1.
         -2   -1    0    0    0  501 -0.00000000000E+00 -0.00000000000E+00 -0.70902753213E+02  0.70902753213E+02  0.00000000000E+00 0.  1.
          6    1    1    2  502    0 -0.14076660830E+03 -0.69759040762E+02  0.79356072437E+03  0.82704545525E+03  0.17200000000E+03 0.  1.
         -6    1    1    2    0  501  0.14076660830E+03  0.69759040762E+02  0.19632508699E+03  0.30464586254E+03  0.17200000000E+03 0.  1.
</event>
<event>
 4    1  0.4363334E-001  0.1787561E+03  0.7818608E-02  0.1169012E+00
          1   -1    0    0  502    0  0.00000000000E+00  0.00000000000E+00  0.11636090714E+04  0.11636090714E+04  0.00000000000E+00 0.  1.
         -1   -1    0    0    0  501 -0.00000000000E+00 -0.00000000000E+00 -0.29316002488E+02  0.29316002488E+02  0.00000000000E+00 0. -1.
          6    1    1    2  502    0  0.11758296202E+02 -0.47238475081E+02  0.41710313604E+03  0.45379373855E+03  0.17200000000E+03 0. -1.
         -6    1    1    2    0  501 -0.11758296202E+02  0.47238475081E+02  0.71718993285E+03  0.73913133531E+03  0.17200000000E+03 0.  1.
</event>
<event>
 4    1  0.4363334E-001  0.2607795E+03  0.7818608E-02  0.1106676E+00
          2   -1    0    0  502    0  0.00000000000E+00  0.00000000000E+00  0.35536669510E+03  0.35536669510E+03  0.00000000000E+00 0.  1.
         -2   -1    0    0    0  501 -0.00000000000E+00 -0.00000000000E+00 -0.19530329284E+03  0.19530329284E+03  0.00000000000E+00 0. -1.
          6    1    1    2  502    0  0.14811789087E+03 -0.12838624191E+03  0.11911363605E+03  0.28669495113E+03  0.17200000000E+03 0.  1.
         -6    1    1    2    0  501 -0.14811789087E+03  0.12838624191E+03  0.40949766202E+02  0.26397503681E+03  0.17200000000E+03 0. -1.
</event>
<event>
 4    1  0.4363334E-001  0.2163778E+03  0.7818608E-02  0.1136613E+00
          1   -1    0    0  502    0  0.00000000000E+00  0.00000000000E+00  0.21639763518E+02  0.21639763518E+02  0.00000000000E+00 0. -1.
         -1   -1    0    0    0  501 -0.00000000000E+00 -0.00000000000E+00 -0.22287023553E+04  0.22287023553E+04  0.00000000000E+00 0.  1.
          6    1    1    2  502    0 -0.31299683575E+02 -0.12749771312E+03 -0.12958674975E+04  0.13138081702E+04  0.17200000000E+03 0.  1.
         -6    1    1    2    0  501  0.31299683575E+02  0.12749771312E+03 -0.91119509422E+03  0.93653394854E+03  0.17200000000E+03 0. -1.
</event>
<event>
 4    1  0.4363334E-001  0.1916510E+03  0.7818608E-02  0.1156981E+00
          2   -1    0    0  502    0  0.00000000000E+00  0.00000000000E+00  0.92199097312E+03  0.92199097312E+03  0.00000000000E+00 0.  1.
         -2   -1    0    0    0  501 -0.00000000000E+00 -0.00000000000E+00 -0.39919906067E+02  0.39919906067E+02  0.00000000000E+00 0. -1.
          6    1    1    2  502    0 -0.74726260044E+02 -0.39523081870E+02  0.46284822833E+03  0.50095765331E+03  0.17200000000E+03 0.  1.
         -6    1    1    2    0  501  0.74726260044E+02  0.39523081870E+02  0.41922283872E+03  0.46095322588E+03  0.17200000000E+03 0.  1.
</event>
<event>
 4    1  0.4363334E-001  0.3234385E+03  0.7818608E-02  0.1074078E+00
         -2   -1    0    0    0  501 -0.00000000000E+00  0.00000000000E+00  0.45632648618E+03  0.45632648618E+03  0.00000000000E+00 0. -1.
          2   -1    0    0  502    0  0.00000000000E+00 -0.00000000000E+00 -0.23346029695E+03  0.23346029695E+03  0.00000000000E+00 0.  1.
          6    1    1    2  502    0 -0.36311735849E+02  0.27149568550E+03  0.65111911062E+02  0.32992728042E+03  0.17200000000E+03 0.  1.
         -6    1    1    2    0  501  0.36311735849E+02 -0.27149568550E+03  0.15775427817E+03  0.35985950270E+03  0.17200000000E+03 0. -1.
</event>
<event>
 4    1  0.4363334E-001  0.1875390E+03  0.7818608E-02  0.1160700E+00
         -3   -1    0    0    0  501 -0.00000000000E+00  0.00000000000E+00  0.11406890076E+03  0.11406890076E+03  0.00000000000E+00 0. -1.
          3   -1    0    0  502    0  0.00000000000E+00 -0.00000000000E+00 -0.30858510008E+03  0.30858510008E+03  0.00000000000E+00 0.  1.
          6    1    1    2  502    0 -0.38445679582E+02  0.64100056079E+02 -0.91184461776E+02  0.20853175666E+03  0.17200000000E+03 0. -1.
         -6    1    1    2    0  501  0.38445679582E+02 -0.64100056079E+02 -0.10333173754E+03  0.21412224418E+03  0.17200000000E+03 0.  1.
</event>
<event>
 4    1  0.4363334E-001  0.1748534E+03  0.7818608E-02  0.1172879E+00
          2   -1    0    0  502    0  0.00000000000E+00  0.00000000000E+00  0.55006587689E+03  0.55006587689E+03  0.00000000000E+00 0.  1.
         -2   -1    0    0    0  501 -0.00000000000E+00 -0.00000000000E+00 -0.41883502453E+03  0.41883502453E+03  0.00000000000E+00 0. -1.
          6    1    1    2  502    0  0.28618747446E+02  0.13064237015E+02 -0.38554660912E+03  0.42334370764E+03  0.17200000000E+03 0. -1.
         -6    1    1    2    0  501 -0.28618747446E+02 -0.13064237015E+02  0.51677746147E+03  0.54555719378E+03  0.17200000000E+03 0.  1.
</event>
<event>
 4    1  0.4363334E-001  0.2067289E+03  0.7818608E-02  0.1144183E+00
         -1   -1    0    0    0  501 -0.00000000000E+00  0.00000000000E+00  0.27223907187E+03  0.27223907187E+03  0.00000000000E+00 0.  1.
          1   -1    0    0  502    0  0.00000000000E+00 -0.00000000000E+00 -0.18806349985E+03  0.18806349985E+03  0.00000000000E+00 0. -1.
          6    1    1    2  502    0 -0.55354615517E+02  0.10044249489E+03 -0.51475862179E+02  0.21304129324E+03  0.17200000000E+03 0.  1.
         -6    1    1    2    0  501  0.55354615517E+02 -0.10044249489E+03  0.13565143419E+03  0.24726127848E+03  0.17200000000E+03 0.  1.
</event>
<event>
 4    1  0.4363334E-001  0.1782207E+03  0.7818608E-02  0.1169536E+00
          4   -1    0    0  502    0  0.00000000000E+00  0.00000000000E+00  0.22874803680E+03  0.22874803680E+03  0.00000000000E+00 0.  1.
         -4   -1    0    0    0  501 -0.00000000000E+00 -0.00000000000E+00 -0.14758211761E+03  0.14758211761E+03  0.00000000000E+00 0. -1.
          6    1    1    2  502    0  0.25087877929E+02 -0.39360295542E+02  0.86341958285E+02  0.19803426028E+03  0.17200000000E+03 0. -1.
         -6    1    1    2    0  501 -0.25087877929E+02  0.39360295542E+02 -0.51760390899E+01  0.17829589413E+03  0.17200000000E+03 0.  1.
</event>
<event>
 4    1  0.4363334E-001  0.2213207E+03  0.7818608E-02  0.1132902E+00
          2   -1    0    0  502    0  0.00000000000E+00  0.00000000000E+00  0.43111020831E+03  0.43111020831E+03  0.00000000000E+00 0. -1.
         -2   -1    0    0    0  501 -0.00000000000E+00 -0.00000000000E+00 -0.14775464514E+03  0.14775464514E+03  0.00000000000E+00 0.  1.
          6    1    1    2  502    0 -0.36953772661E+02  0.13428797471E+03  0.28079242304E+03  0.35752933629E+03  0.17200000000E+03 0. -1.
         -6    1    1    2    0  501  0.36953772661E+02 -0.13428797471E+03  0.25631401274E+01  0.22133551715E+03  0.17200000000E+03 0.  1.
</event>
<event>
 4    1  0.4363334E-001  0.2012744E+03  0.7818608E-02  0.1148668E+00
         -1   -1    0    0    0  501 -0.00000000000E+00  0.00000000000E+00  0.23518789246E+03  0.23518789246E+03  0.00000000000E+00 0.  1.
          1   -1    0    0  502    0  0.00000000000E+00 -0.00000000000E+00 -0.17236340716E+03  0.17236340716E+03  0.00000000000E+00 0. -1.
          6    1    1    2  502    0  0.62074954241E+02 -0.84107535088E+02  0.26211099927E+02  0.20297388788E+03  0.17200000000E+03 0.  1.
         -6    1    1    2    0  501 -0.62074954241E+02  0.84107535088E+02  0.36613385377E+02  0.20457741173E+03  0.17200000000E+03 0. -1.
</event>
<event>
 4    1  0.4363334E-001  0.1764296E+03  0.7818608E-02  0.1171304E+00
          1   -1    0    0  502    0  0.00000000000E+00  0.00000000000E+00  0.10400894039E+04  0.10400894039E+04  0.00000000000E+00 0.  1.
         -1   -1    0    0    0  501 -0.00000000000E+00 -0.00000000000E+00 -0.30643016666E+02  0.30643016666E+02  0.00000000000E+00 0. -1.
          6    1    1    2  502    0 -0.38349571099E+02 -0.85270792374E+01  0.42292219892E+03  0.45824729898E+03  0.17200000000E+03 0. -1.
         -6    1    1    2    0  501  0.38349571099E+02  0.85270792374E+01  0.58652418829E+03  0.61248512156E+03  0.17200000000E+03 0.  1.
</event>
<event>
 4    1  0.4363334E-001  0.1874317E+03  0.7818608E-02  0.1160798E+00
         -3   -1    0    0    0  501 -0.00000000000E+00  0.00000000000E+00  0.94119210499E+02  0.94119210499E+02  0.00000000000E+00 0.  1.
          3   -1    0    0  502    0  0.00000000000E+00 -0.00000000000E+00 -0.42481938743E+03  0.42481938743E+03  0.00000000000E+00 0. -1.
          6    1    1    2  502    0 -0.73260220471E+02  0.13400213167E+02 -0.25574658521E+03  0.31707560843E+03  0.17200000000E+03 0. -1.
         -6    1    1    2    0  501  0.73260220471E+02 -0.13400213167E+02 -0.74953591720E+02  0.20186298950E+03  0.17200000000E+03 0.  1.
</event>
<event>
 4    1  0.4363334E-001  0.3156271E+03  0.7818608E-02  0.1077680E+00
          2   -1    0    0  502    0  0.00000000000E+00  0.00000000000E+00  0.59587188801E+03  0.59587188801E+03  0.00000000000E+00 0. -1.
         -2   -1    0    0    0  501 -0.00000000000E+00 -0.00000000000E+00 -0.27481251827E+03  0.27481251827E+03  0.00000000000E+00 0.  1.
          6    1    1    2  502    0 -0.25316972717E+02 -0.26343032263E+03 -0.11191314884E+03  0.33488063078E+03  0.17200000000E+03 0.  1.
         -6    1    1    2    0  501  0.25316972717E+02  0.26343032263E+03  0.43297251858E+03  0.53580377550E+03  0.17200000000E+03 0. -1.
</event>
<event>
 4    1  0.4363334E-001  0.1734192E+03  0.7818608E-02  0.1174328E+00
         -1   -1    0    0    0  501 -0.00000000000E+00  0.00000000000E+00  0.33529161041E+02  0.33529161041E+02  0.00000000000E+00 0. -1.
          1   -1    0    0  502    0  0.00000000000E+00 -0.00000000000E+00 -0.12511917239E+04  0.12511917239E+04  0.00000000000E+00 0.  1.
          6    1    1    2  502    0 -0.16248677747E+02 -0.15040302115E+02 -0.26703907396E+03  0.31840869529E+03  0.17200000000E+03 0. -1.
         -6    1    1    2    0  501  0.16248677747E+02  0.15040302115E+02 -0.95062348888E+03  0.96631218963E+03  0.17200000000E+03 0.  1.
</event>
<event>
 4    1  0.4363334E-001  0.2512601E+03  0.7818608E-02  0.1112511E+00
          2   -1    0    0  502    0  0.00000000000E+00  0.00000000000E+00  0.49998318449E+03  0.49998318449E+03  0.00000000000E+00 0. -1.
         -2   -1    0    0    0  501 -0.00000000000E+00 -0.00000000000E+00 -0.15337684865E+03  0.15337684865E+03  0.00000000000E+00 0.  1.
          6    1    1    2  502    0  0.95076336538E+02  0.15655077691E+03  0.35961681195E+02  0.25382060207E+03  0.17200000000E+03 0. -1.
         -6    1    1    2    0  501 -0.95076336538E+02 -0.15655077691E+03  0.31064465464E+03  0.39953943107E+03  0.17200000000E+03 0. -1.
</event>
<event>
 4    1  0.4363334E-001  0.2109082E+03  0.7818608E-02  0.1140849E+00
         -2   -1    0    0    0  501 -0.00000000000E+00  0.00000000000E+00  0.52014758311E+02  0.52014758311E+02  0.00000000000E+00 0. -1.
          2   -1    0    0  502    0  0.00000000000E+00 -0.00000000000E+00 -0.86481740497E+03  0.86481740497E+03  0.00000000000E+00 0.  1.
          6    1    1    2  502    0  0.52506622899E+02 -0.11018766766E+03 -0.35802269734E+03  0.41552679741E+03  0.17200000000E+03 0. -1.
         -6    1    1    2    0  501 -0.52506622899E+02  0.11018766766E+03 -0.45477994931E+03  0.50130536587E+03  0.17200000000E+03 0. -1.
</event>
<event>
 4    1  0.4363334E-001  0.1985192E+03  0.7818608E-02  0.1150994E+00
         -2   -1    0    0    0  501 -0.00000000000E+00  0.00000000000E+00  0.26968365767E+03  0.26968365767E+03  0.00000000000E+00 0.  1.
          2   -1    0    0  502    0  0.00000000000E+00 -0.00000000000E+00 -0.27131087614E+03  0.27131087614E+03  0.00000000000E+00 0. -1.
          6    1    1    2  502    0  0.83028228411E+02 -0.54149500668E+02 -0.18454863508E+03  0.27104991025E+03  0.17200000000E+03 0. -1.
         -6    1    1    2    0  501 -0.83028228411E+02  0.54149500668E+02  0.18292141661E+03  0.26994462356E+03  0.17200000000E+03 0.  1.
</event>
<event>
 4    1  0.4363334E-001  0.3370248E+03  0.7818608E-02  0.1068070E+00
         -2   -1    0    0    0  501 -0.00000000000E+00  0.00000000000E+00  0.18469103314E+03  0.18469103314E+03  0.00000000000E+00 0. -1.
          2   -1    0    0  502    0  0.00000000000E+00 -0.00000000000E+00 -0.61982603937E+03  0.61982603937E+03  0.00000000000E+00 0.  1.
          6    1    1    2  502    0 -0.10155994463E+03 -0.27145403934E+03 -0.25304780264E+03  0.42144858316E+03  0.17200000000E+03 0.  1.
         -6    1    1    2    0  501  0.10155994463E+03  0.27145403934E+03 -0.18208720359E+03  0.38306848936E+03  0.17200000000E+03 0. -1.
</event>
<event>
 4    1  0.4363334E-001  0.2602206E+03  0.7818608E-02  0.1107011E+00
         -2   -1    0    0    0  501 -0.00000000000E+00  0.00000000000E+00  0.13086838100E+03  0.13086838100E+03  0.00000000000E+00 0.  1.
          2   -1    0    0  502    0  0.00000000000E+00 -0.00000000000E+00 -0.11935880817E+04  0.11935880817E+04  0.00000000000E+00 0. -1.
          6    1    1    2  502    0 -0.34522991561E+02 -0.19219496528E+03 -0.10297916768E+04  0.10621608349E+04  0.17200000000E+03 0. -1.
         -6    1    1    2    0  501  0.34522991561E+02  0.19219496528E+03 -0.32928023966E+02  0.26229562785E+03  0.17200000000E+03 0.  1.
</event>
<event>
 4    1  0.4363334E-001  0.1827713E+03  0.7818608E-02  0.1165148E+00
         -2   -1    0    0    0  501 -0.00000000000E+00  0.00000000000E+00  0.41061871632E+03  0.41061871632E+03  0.00000000000E+00 0.  1.
          2   -1    0    0  502    0  0.00000000000E+00 -0.00000000000E+00 -0.90360473354E+02  0.90360473354E+02  0.00000000000E+00 0. -1.
          6    1    1    2  502    0  0.44746090001E+02  0.42651526759E+02  0.81045915055E+02  0.19993450341E+03  0.17200000000E+03 0. -1.
         -6    1    1    2    0  501 -0.44746090001E+02 -0.42651526759E+02  0.23921232791E+03  0.30104468627E+03  0.17200000000E+03 0.  1.
</event>
<event>
 4    1  0.4363334E-001  0.2996107E+03  0.7818608E-02  0.1085435E+00
         -2   -1    0    0    0  501 -0.00000000000E+00  0.00000000000E+00  0.32079808054E+03  0.32079808054E+03  0.00000000000E+00 0.  1.
          2   -1    0    0  502    0  0.00000000000E+00 -0.00000000000E+00 -0.28318181011E+03  0.28318181011E+03  0.00000000000E+00 0. -1.
          6    1    1    2  502    0 -0.32325544194E+02 -0.24318230205E+03 -0.14082661089E+02  0.29994148459E+03  0.17200000000E+03 0.  1.
         -6    1    1    2    0  501  0.32325544194E+02  0.24318230205E+03  0.51698931519E+02  0.30403840606E+03  0.17200000000E+03 0. -1.
</event>
<event>
 4    1  0.4363334E-001  0.1723484E+03  0.7818608E-02  0.1175421E+00
          1   -1    0    0  502    0  0.00000000000E+00  0.00000000000E+00  0.89511846660E+03  0.89511846660E+03  0.00000000000E+00 0. -1.
         -1   -1    0    0    0  501 -0.00000000000E+00 -0.00000000000E+00 -0.34061652226E+02  0.34061652226E+02  0.00000000000E+00 0.  1.
          6    1    1    2  502    0 -0.87765012296E+01 -0.65542502692E+01  0.50508651761E+03  0.53368190473E+03  0.17200000000E+03 0. -1.
         -6    1    1    2    0  501  0.87765012296E+01  0.65542502692E+01  0.35597029677E+03  0.39549821409E+03  0.17200000000E+03 0.  1.
</event>
<event>
 4    1  0.4363334E-001  0.1998043E+03  0.7818608E-02  0.1149904E+00
         -4   -1    0    0    0  501 -0.00000000000E+00  0.00000000000E+00  0.33425652149E+02  0.33425652149E+02  0.00000000000E+00 0. -1.
          4   -1    0    0  502    0  0.00000000000E+00 -0.00000000000E+00 -0.13000276561E+04  0.13000276561E+04  0.00000000000E+00 0.  1.
          6    1    1    2  502    0 -0.61482286036E+02 -0.80979520934E+02 -0.82339734557E+03  0.84729271388E+03  0.17200000000E+03 0.  1.
         -6    1    1    2    0  501  0.61482286036E+02  0.80979520934E+02 -0.44320465841E+03  0.48616059440E+03  0.17200000000E+03 0. -1.
</event>
<event>
 4    1  0.4363334E-001  0.1754927E+03  0.7818608E-02  0.1172238E+00
         -2   -1    0    0    0  501 -0.00000000000E+00  0.00000000000E+00  0.11079430444E+03  0.11079430444E+03  0.00000000000E+00 0.  1.
          2   -1    0    0  502    0  0.00000000000E+00 -0.00000000000E+00 -0.28918478273E+03  0.28918478273E+03  0.00000000000E+00 0. -1.
          6    1    1    2  502    0  0.13680369471E+02  0.32039395735E+02 -0.12857590841E+03  0.21755330292E+03  0.17200000000E+03 0. -1.
         -6    1    1    2    0  501 -0.13680369471E+02 -0.32039395735E+02 -0.49814569880E+02  0.18242578425E+03  0.17200000000E+03 0.  1.
</event>
<event>
 4    1  0.4363334E-001  0.2212973E+03  0.7818608E-02  0.1132920E+00
          2   -1    0    0  502    0  0.00000000000E+00  0.00000000000E+00  0.30017483477E+04  0.30017483477E+04  0.00000000000E+00 0. -1.
         -2   -1    0    0    0  501 -0.00000000000E+00 -0.00000000000E+00 -0.16916259467E+02  0.16916259467E+02  0.00000000000E+00 0.  1.
          6    1    1    2  502    0  0.11834641861E+03  0.73366199333E+02  0.17770521507E+04  0.17907782722E+04  0.17200000000E+03 0. -1.
         -6    1    1    2    0  501 -0.11834641861E+03 -0.73366199333E+02  0.12077799376E+04  0.12278863349E+04  0.17200000000E+03 0.  1.
</event>
<event>
 4    1  0.4363334E-001  0.3558114E+03  0.7818608E-02  0.1060255E+00
          2   -1    0    0  502    0  0.00000000000E+00  0.00000000000E+00  0.39058409591E+04  0.39058409591E+04  0.00000000000E+00 0.  1.
         -2   -1    0    0    0  501 -0.00000000000E+00 -0.00000000000E+00 -0.52348227775E+02  0.52348227775E+02  0.00000000000E+00 0. -1.
          6    1    1    2  502    0  0.10729350398E+03  0.29241379879E+03  0.31480437111E+04  0.31680878985E+04  0.17200000000E+03 0.  1.
         -6    1    1    2    0  501 -0.10729350398E+03 -0.29241379879E+03  0.70544902015E+03  0.79010128829E+03  0.17200000000E+03 0. -1.
</event>
<event>
 4    1  0.4363334E-001  0.1885516E+03  0.7818608E-02  0.1159774E+00
         -1   -1    0    0    0  501 -0.00000000000E+00  0.00000000000E+00  0.23296868683E+02  0.23296868683E+02  0.00000000000E+00 0. -1.
          1   -1    0    0  502    0  0.00000000000E+00 -0.00000000000E+00 -0.15568229536E+04  0.15568229536E+04  0.00000000000E+00 0.  1.
          6    1    1    2  502    0 -0.30293206269E+02 -0.71063599521E+02 -0.87787689436E+03  0.89789729656E+03  0.17200000000E+03 0.  1.
         -6    1    1    2    0  501  0.30293206269E+02  0.71063599521E+02 -0.65564919059E+03  0.68222252575E+03  0.17200000000E+03 0. -1.
</event>
<event>
 4    1  0.4363334E-001  0.1772993E+03  0.7818608E-02  0.1170443E+00
          1   -1    0    0  502    0  0.00000000000E+00  0.00000000000E+00  0.24736543381E+04  0.24736543381E+04  0.00000000000E+00 0. -1.
         -1   -1    0    0    0  501 -0.00000000000E+00 -0.00000000000E+00 -0.12717504725E+02  0.12717504725E+02  0.00000000000E+00 0.  1.
          6    1    1    2  502    0  0.11051974112E+02  0.41580164257E+02  0.12645580950E+04  0.12769268702E+04  0.17200000000E+03 0.  1.
         -6    1    1    2    0  501 -0.11051974112E+02 -0.41580164257E+02  0.11963787384E+04  0.12094449727E+04  0.17200000000E+03 0. -1.
</event>
<event>
 4    1  0.4363334E-001  0.3230880E+03  0.7818608E-02  0.1074237E+00
          1   -1    0    0  502    0  0.00000000000E+00  0.00000000000E+00  0.23978379515E+03  0.23978379515E+03  0.00000000000E+00 0. -1.
         -1   -1    0    0    0  501 -0.00000000000E+00 -0.00000000000E+00 -0.44214023309E+03  0.44214023309E+03  0.00000000000E+00 0.  1.
          6    1    1    2  502    0 -0.91709747330E+02  0.25766482332E+03 -0.14348460850E+03  0.35351615495E+03  0.17200000000E+03 0.  1.
         -6    1    1    2    0  501  0.91709747330E+02 -0.25766482332E+03 -0.58871829436E+02  0.32840787329E+03  0.17200000000E+03 0. -1.
</event>
<event>
 4    1  0.4363334E-001  0.2209128E+03  0.7818608E-02  0.1133204E+00
          2   -1    0    0  502    0  0.00000000000E+00  0.00000000000E+00  0.37590291344E+02  0.37590291344E+02  0.00000000000E+00 0.  1.
         -2   -1    0    0    0  501 -0.00000000000E+00 -0.00000000000E+00 -0.13998278882E+04  0.13998278882E+04  0.00000000000E+00 0. -1.
          6    1    1    2  502    0 -0.41876853407E+02 -0.13215446270E+03 -0.87470104208E+03  0.90216649565E+03  0.17200000000E+03 0. -1.
         -6    1    1    2    0  501  0.41876853407E+02  0.13215446270E+03 -0.48753655477E+03  0.53525168389E+03  0.17200000000E+03 0.  1.
</event>
<event>
 4    1  0.4363334E-001  0.2420315E+03  0.7818608E-02  0.1118447E+00
         -1   -1    0    0    0  501 -0.00000000000E+00  0.00000000000E+00  0.18890486331E+03  0.18890486331E+03  0.00000000000E+00 0. -1.
          1   -1    0    0  502    0  0.00000000000E+00 -0.00000000000E+00 -0.36740262020E+03  0.36740262020E+03  0.00000000000E+00 0.  1.
          6    1    1    2  502    0 -0.44069139472E+02 -0.16447851269E+03 -0.19909977059E+03  0.31340068417E+03  0.17200000000E+03 0.  1.
         -6    1    1    2    0  501  0.44069139472E+02  0.16447851269E+03  0.20602013703E+02  0.24290679933E+03  0.17200000000E+03 0. -1.
</event>
<event>
 4    1  0.4363334E-001  0.2211034E+03  0.7818608E-02  0.1133063E+00
          1   -1    0    0  502    0  0.00000000000E+00  0.00000000000E+00  0.60117380082E+03  0.60117380082E+03  0.00000000000E+00 0.  1.
         -1   -1    0    0    0  501 -0.00000000000E+00 -0.00000000000E+00 -0.10479787439E+03  0.10479787439E+03  0.00000000000E+00 0. -1.
          6    1    1    2  502    0 -0.24181113391E+02 -0.13681377600E+03  0.41526681291E+03  0.47046069066E+03  0.17200000000E+03 0.  1.
         -6    1    1    2    0  501  0.24181113391E+02  0.13681377600E+03  0.81109113520E+02  0.23551098455E+03  0.17200000000E+03 0.  1.
</event>
<event>
 4    1  0.4363334E-001  0.1821701E+03  0.7818608E-02  0.1165719E+00
          4   -1    0    0  502    0  0.00000000000E+00  0.00000000000E+00  0.12079352303E+03  0.12079352303E+03  0.00000000000E+00 0.  1.
         -4   -1    0    0    0  501 -0.00000000000E+00 -0.00000000000E+00 -0.32461203922E+03  0.32461203922E+03  0.00000000000E+00 0. -1.
          6    1    1    2  502    0 -0.55577274804E+02 -0.22651650530E+02 -0.18920713347E+03  0.26265047136E+03  0.17200000000E+03 0. -1.
         -6    1    1    2    0  501  0.55577274804E+02  0.22651650530E+02 -0.14611382717E+02  0.18275509090E+03  0.17200000000E+03 0.  1.
</event>
<event>
 4    1  0.4363334E-001  0.2455544E+03  0.7818608E-02  0.1116147E+00
          1   -1    0    0  502    0  0.00000000000E+00  0.00000000000E+00  0.20198404129E+04  0.20198404129E+04  0.00000000000E+00 0. -1.
         -1   -1    0    0    0  501 -0.00000000000E+00 -0.00000000000E+00 -0.40213720469E+02  0.40213720469E+02  0.00000000000E+00 0.  1.
          6    1    1    2  502    0 -0.28493962022E+02 -0.17291920239E+03  0.46697144409E+03  0.52759765543E+03  0.17200000000E+03 0.  1.
         -6    1    1    2    0  501  0.28493962022E+02  0.17291920239E+03  0.15126552483E+04  0.15324564779E+04  0.17200000000E+03 0. -1.
</event>
<event>
 4    1  0.4363334E-001  0.2343335E+03  0.7818608E-02  0.1123626E+00
          2   -1    0    0  502    0  0.00000000000E+00  0.00000000000E+00  0.13682797475E+04  0.13682797475E+04  0.00000000000E+00 0. -1.
         -2   -1    0    0    0  501 -0.00000000000E+00 -0.00000000000E+00 -0.40150376040E+02  0.40150376040E+02  0.00000000000E+00 0.  1.
          6    1    1    2  502    0  0.14664575381E+03 -0.61832194527E+02  0.67901161061E+03  0.71830979718E+03  0.17200000000E+03 0. -1.
         -6    1    1    2    0  501 -0.14664575381E+03  0.61832194527E+02  0.64911776082E+03  0.69012032633E+03  0.17200000000E+03 0. -1.
</event>
<event>
 4    1  0.4363334E-001  0.1833224E+03  0.7818608E-02  0.1164626E+00
         -2   -1    0    0    0  501 -0.00000000000E+00  0.00000000000E+00  0.99927954188E+02  0.99927954188E+02  0.00000000000E+00 0. -1.
          2   -1    0    0  502    0  0.00000000000E+00 -0.00000000000E+00 -0.51314035276E+03  0.51314035276E+03  0.00000000000E+00 0.  1.
          6    1    1    2  502    0  0.56915310057E+02  0.27995483737E+02 -0.26663121340E+02  0.18525123932E+03  0.17200000000E+03 0. -1.
         -6    1    1    2    0  501 -0.56915310057E+02 -0.27995483737E+02 -0.38654927723E+03  0.42781706763E+03  0.17200000000E+03 0.  1.
</event>
<event>
 4    1  0.4363334E-001  0.3240303E+03  0.7818608E-02  0.1073809E+00
         -2   -1    0    0    0  501 -0.00000000000E+00  0.00000000000E+00  0.18339581126E+03  0.18339581126E+03  0.00000000000E+00 0. -1.
          2   -1    0    0  502    0  0.00000000000E+00 -0.00000000000E+00 -0.70042786638E+03  0.70042786638E+03  0.00000000000E+00 0.  1.
          6    1    1    2  502    0  0.23228065067E+03 -0.14648318310E+03 -0.44736839025E+03  0.55238944613E+03  0.17200000000E+03 0.  1.
         -6    1    1    2    0  501 -0.23228065067E+03  0.14648318310E+03 -0.69663664872E+02  0.33143423150E+03  0.17200000000E+03 0. -1.
</event>
<event>
 4    1  0.4363334E-001  0.1748195E+03  0.7818608E-02  0.1172913E+00
         -1   -1    0    0    0  501 -0.00000000000E+00  0.00000000000E+00  0.22874705967E+03  0.22874705967E+03  0.00000000000E+00 0.  1.
          1   -1    0    0  502    0  0.00000000000E+00 -0.00000000000E+00 -0.13941825956E+03  0.13941825956E+03  0.00000000000E+00 0. -1.
          6    1    1    2  502    0  0.25086719668E+02  0.18668547406E+02  0.82252068998E+02  0.19320264237E+03  0.17200000000E+03 0.  1.
         -6    1    1    2    0  501 -0.25086719668E+02 -0.18668547406E+02  0.70767311115E+01  0.17496267685E+03  0.17200000000E+03 0. -1.
</event>
<event>
 4    1  0.4363334E-001  0.2054404E+03  0.7818608E-02  0.1145228E+00
          2   -1    0    0  502    0  0.00000000000E+00  0.00000000000E+00  0.15106727996E+04  0.15106727996E+04  0.00000000000E+00 0. -1.
         -2   -1    0    0    0  501 -0.00000000000E+00 -0.00000000000E+00 -0.27992757545E+02  0.27992757545E+02  0.00000000000E+00 0.  1.
          6    1    1    2  502    0 -0.56354796912E+02  0.97190066543E+02  0.77524351924E+03  0.80200267224E+03  0.17200000000E+03 0.  1.
         -6    1    1    2    0  501  0.56354796912E+02 -0.97190066543E+02  0.70743652278E+03  0.73666288487E+03  0.17200000000E+03 0. -1.
</event>
<event>
 4    1  0.4363334E-001  0.1820626E+03  0.7818608E-02  0.1165822E+00
         -3   -1    0    0    0  501 -0.00000000000E+00  0.00000000000E+00  0.23595400193E+03  0.23595400193E+03  0.00000000000E+00 0. -1.
          3   -1    0    0  502    0  0.00000000000E+00 -0.00000000000E+00 -0.14800141190E+03  0.14800141190E+03  0.00000000000E+00 0.  1.
          6    1    1    2  502    0  0.14915819266E+02 -0.57795437077E+02  0.69796530263E+00  0.18206394856E+03  0.17200000000E+03 0.  1.
         -6    1    1    2    0  501 -0.14915819266E+02  0.57795437077E+02  0.87254624720E+02  0.20189146526E+03  0.17200000000E+03 0. -1.
</event>
<event>
 4    1  0.4363334E-001  0.1953435E+03  0.7818608E-02  0.1153728E+00
         -2   -1    0    0    0  501 -0.00000000000E+00  0.00000000000E+00  0.18431720391E+03  0.18431720391E+03  0.00000000000E+00 0. -1.
          2   -1    0    0  502    0  0.00000000000E+00 -0.00000000000E+00 -0.21893760103E+03  0.21893760103E+03  0.00000000000E+00 0.  1.
          6    1    1    2  502    0 -0.86360233423E+02 -0.33421329781E+02 -0.64333481345E+02  0.20566446466E+03  0.17200000000E+03 0.  1.
         -6    1    1    2    0  501  0.86360233423E+02  0.33421329781E+02  0.29713084225E+02  0.19759034029E+03  0.17200000000E+03 0. -1.
</event>
<event>
 4    1  0.4363334E-001  0.1763365E+03  0.7818608E-02  0.1171396E+00
          2   -1    0    0  502    0  0.00000000000E+00  0.00000000000E+00  0.10093742025E+04  0.10093742025E+04  0.00000000000E+00 0. -1.
         -2   -1    0    0    0  501 -0.00000000000E+00 -0.00000000000E+00 -0.34007176330E+02  0.34007176330E+02  0.00000000000E+00 0.  1.
          6    1    1    2  502    0 -0.13826981976E+01  0.38841560611E+02  0.32761856445E+03  0.37205981033E+03  0.17200000000E+03 0.  1.
         -6    1    1    2    0  501  0.13826981976E+01 -0.38841560611E+02  0.64774846175E+03  0.67132156854E+03  0.17200000000E+03 0. -1.
</event>
<event>
 4    1  0.4363334E-001  0.1776276E+03  0.7818608E-02  0.1170119E+00
          1   -1    0    0  502    0  0.00000000000E+00  0.00000000000E+00  0.10354540431E+03  0.10354540431E+03  0.00000000000E+00 0.  1.
         -1   -1    0    0    0  501 -0.00000000000E+00 -0.00000000000E+00 -0.56898153785E+03  0.56898153785E+03  0.00000000000E+00 0. -1.
          6    1    1    2  502    0  0.40602989545E+02  0.17859182712E+02 -0.35500791333E+01  0.17766304126E+03  0.17200000000E+03 0.  1.
         -6    1    1    2    0  501 -0.40602989545E+02 -0.17859182712E+02 -0.46188605440E+03  0.49486390091E+03  0.17200000000E+03 0. -1.
</event>
<event>
 4    1  0.4363334E-001  0.1794733E+03  0.7818608E-02  0.1168314E+00
         -2   -1    0    0    0  501 -0.00000000000E+00  0.00000000000E+00  0.38650057409E+02  0.38650057409E+02  0.00000000000E+00 0. -1.
          2   -1    0    0  502    0  0.00000000000E+00 -0.00000000000E+00 -0.83523037299E+03  0.83523037299E+03  0.00000000000E+00 0.  1.
          6    1    1    2  502    0 -0.34720723501E+02 -0.37698000178E+02 -0.37779378716E+03  0.41825687499E+03  0.17200000000E+03 0.  1.
         -6    1    1    2    0  501  0.34720723501E+02  0.37698000178E+02 -0.41878652841E+03  0.45562355540E+03  0.17200000000E+03 0. -1.
</event>
<event>
 4    1  0.4363334E-001  0.1858776E+03  0.7818608E-02  0.1162233E+00
         -1   -1    0    0    0  501 -0.00000000000E+00  0.00000000000E+00  0.39243739380E+03  0.39243739380E+03  0.00000000000E+00 0. -1.
          1   -1    0    0  502    0  0.00000000000E+00 -0.00000000000E+00 -0.90941129127E+02  0.90941129127E+02  0.00000000000E+00 0.  1.
          6    1    1    2  502    0 -0.48826116724E+02  0.50818225412E+02  0.19391044594E+03  0.26861076440E+03  0.17200000000E+03 0. -1.
         -6    1    1    2    0  501  0.48826116724E+02 -0.50818225412E+02  0.10758581873E+03  0.21476775852E+03  0.17200000000E+03 0.  1.
</event>
<event>
 4    1  0.4363334E-001  0.1748107E+03  0.7818608E-02  0.1172922E+00
          2   -1    0    0  502    0  0.00000000000E+00  0.00000000000E+00  0.30069831580E+03  0.30069831580E+03  0.00000000000E+00 0. -1.
         -2   -1    0    0    0  501 -0.00000000000E+00 -0.00000000000E+00 -0.11915449742E+03  0.11915449742E+03  0.00000000000E+00 0.  1.
          6    1    1    2  502    0  0.16013727493E+02 -0.26801802778E+02  0.10255606551E+02  0.17511126053E+03  0.17200000000E+03 0.  1.
         -6    1    1    2    0  501 -0.16013727493E+02  0.26801802778E+02  0.17128821182E+03  0.24474155268E+03  0.17200000000E+03 0. -1.
</event>
<event>
 4    1  0.4363334E-001  0.1838459E+03  0.7818608E-02  0.1164132E+00
         -1   -1    0    0    0  501 -0.00000000000E+00  0.00000000000E+00  0.49566759159E+02  0.49566759159E+02  0.00000000000E+00 0.  1.
          1   -1    0    0  502    0  0.00000000000E+00 -0.00000000000E+00 -0.68369291823E+03  0.68369291823E+03  0.00000000000E+00 0. -1.
          6    1    1    2  502    0  0.59812716781E+02  0.25254149862E+02 -0.29826286114E+03  0.35037132804E+03  0.17200000000E+03 0.  1.
         -6    1    1    2    0  501 -0.59812716781E+02 -0.25254149862E+02 -0.33586329793E+03  0.38288834935E+03  0.17200000000E+03 0.  1.
</event>
<event>
 4    1  0.4363334E-001  0.1906396E+03  0.7818608E-02  0.1157886E+00
         -2   -1    0    0    0  501 -0.00000000000E+00  0.00000000000E+00  0.23428386481E+02  0.23428386481E+02  0.00000000000E+00 0. -1.
          2   -1    0    0  502    0  0.00000000000E+00 -0.00000000000E+00 -0.15594877201E+04  0.15594877201E+04  0.00000000000E+00 0.  1.
          6    1    1    2  502    0  0.38003770628E+02 -0.72905206033E+02 -0.71053231814E+03  0.73566271536E+03  0.17200000000E+03 0. -1.
         -6    1    1    2    0  501 -0.38003770628E+02  0.72905206033E+02 -0.82552701543E+03  0.84725339118E+03  0.17200000000E+03 0.  1.
</event>
<event>
 4    1  0.4363334E-001  0.2082416E+03  0.7818608E-02  0.1142966E+00
          2   -1    0    0  502    0  0.00000000000E+00  0.00000000000E+00  0.26571975789E+03  0.26571975789E+03  0.00000000000E+00 0. -1.
         -2   -1    0    0    0  501 -0.00000000000E+00 -0.00000000000E+00 -0.16736871606E+03  0.16736871606E+03  0.00000000000E+00 0.  1.
          6    1    1    2  502    0 -0.10202653003E+03 -0.58061785705E+02  0.83364270908E+02  0.22430823759E+03  0.17200000000E+03 0.  1.
         -6    1    1    2    0  501  0.10202653003E+03  0.58061785705E+02  0.14986770919E+02  0.20878023635E+03  0.17200000000E+03 0.  1.
</event>
<event>
 4    1  0.4363334E-001  0.1920056E+03  0.7818608E-02  0.1156665E+00
          2   -1    0    0  502    0  0.00000000000E+00  0.00000000000E+00  0.33706234154E+04  0.33706234154E+04  0.00000000000E+00 0. -1.
         -2   -1    0    0    0  501 -0.00000000000E+00 -0.00000000000E+00 -0.28796757289E+02  0.28796757289E+02  0.00000000000E+00 0.  1.
          6    1    1    2  502    0  0.83868623611E+02 -0.15754468009E+02  0.30094643062E+04  0.30155831210E+04  0.17200000000E+03 0. -1.
         -6    1    1    2    0  501 -0.83868623611E+02  0.15754468009E+02  0.33236235188E+03  0.38383705167E+03  0.17200000000E+03 0.  1.
</event>
<event>
 4    1  0.4363334E-001  0.1762930E+03  0.7818608E-02  0.1171440E+00
          2   -1    0    0  502    0  0.00000000000E+00  0.00000000000E+00  0.25580257939E+04  0.25580257939E+04  0.00000000000E+00 0. -1.
         -2   -1    0    0    0  501 -0.00000000000E+00 -0.00000000000E+00 -0.20598263501E+02  0.20598263501E+02  0.00000000000E+00 0.  1.
          6    1    1    2  502    0  0.37089710597E+02 -0.10935829788E+02  0.20944364884E+04  0.21018428683E+04  0.17200000000E+03 0. -1.
         -6    1    1    2    0  501 -0.37089710597E+02  0.10935829788E+02  0.44299104199E+03  0.47678118911E+03  0.17200000000E+03 0.  1.
</event>
<event>
 4    1  0.4363334E-001  0.2402526E+03  0.7818608E-02  0.1119625E+00
         -1   -1    0    0    0  501 -0.00000000000E+00  0.00000000000E+00  0.19907927961E+02  0.19907927961E+02  0.00000000000E+00 0.  1.
          1   -1    0    0  502    0  0.00000000000E+00 -0.00000000000E+00 -0.29087573419E+04  0.29087573419E+04  0.00000000000E+00 0. -1.
          6    1    1    2  502    0 -0.10181384118E+03  0.13330887394E+03 -0.13614301032E+04  0.13824663613E+04  0.17200000000E+03 0.  1.
         -6    1    1    2    0  501  0.10181384118E+03 -0.13330887394E+03 -0.15274193107E+04  0.15461989086E+04  0.17200000000E+03 0. -1.
</event>
<event>
 4    1  0.4363334E-001  0.1982096E+03  0.7818608E-02  0.1151258E+00
          1   -1    0    0  502    0  0.00000000000E+00  0.00000000000E+00  0.47941362614E+03  0.47941362614E+03  0.00000000000E+00 0.  1.
         -1   -1    0    0    0  501 -0.00000000000E+00 -0.00000000000E+00 -0.82534975310E+02  0.82534975310E+02  0.00000000000E+00 0. -1.
          6    1    1    2  502    0 -0.53708408680E+02  0.82573900376E+02  0.22213208016E+03  0.29770741211E+03  0.17200000000E+03 0.  1.
         -6    1    1    2    0  501  0.53708408680E+02 -0.82573900376E+02  0.17474657067E+03  0.26424118935E+03  0.17200000000E+03 0.  1.
</event>
<event>
 4    1  0.4363334E-001  0.1777865E+03  0.7818608E-02  0.1169963E+00
         -1   -1    0    0    0  501 -0.00000000000E+00  0.00000000000E+00  0.20852185137E+03  0.20852185137E+03  0.00000000000E+00 0.  1.
          1   -1    0    0  502    0  0.00000000000E+00 -0.00000000000E+00 -0.15214888778E+03  0.15214888778E+03  0.00000000000E+00 0. -1.
          6    1    1    2  502    0  0.30622019431E+02  0.32959553558E+02  0.17173279494E+02  0.17861400218E+03  0.17200000000E+03 0.  1.
         -6    1    1    2    0  501 -0.30622019431E+02 -0.32959553558E+02  0.39199684095E+02  0.18205673697E+03  0.17200000000E+03 0.  1.
</event>
<event>
 4    1  0.4363334E-001  0.1727929E+03  0.7818608E-02  0.1174966E+00
          1   -1    0    0  502    0  0.00000000000E+00  0.00000000000E+00  0.83126178544E+03  0.83126178544E+03  0.00000000000E+00 0.  1.
         -1   -1    0    0    0  501 -0.00000000000E+00 -0.00000000000E+00 -0.45072130329E+02  0.45072130329E+02  0.00000000000E+00 0. -1.
          6    1    1    2  502    0  0.14128163595E+02 -0.85893210125E+01  0.59056008003E+03  0.61531990832E+03  0.17200000000E+03 0.  1.
         -6    1    1    2    0  501 -0.14128163595E+02  0.85893210125E+01  0.19562957508E+03  0.26101400746E+03  0.17200000000E+03 0. -1.
</event>
<event>
 4    1  0.4363334E-001  0.1905340E+03  0.7818608E-02  0.1157981E+00
          1   -1    0    0  502    0  0.00000000000E+00  0.00000000000E+00  0.11612830672E+04  0.11612830672E+04  0.00000000000E+00 0.  1.
         -1   -1    0    0    0  501 -0.00000000000E+00 -0.00000000000E+00 -0.38512022878E+02  0.38512022878E+02  0.00000000000E+00 0. -1.
          6    1    1    2  502    0 -0.81511113987E+02 -0.86678879874E+01  0.30108789995E+03  0.35631042292E+03  0.17200000000E+03 0. -1.
         -6    1    1    2    0  501  0.81511113987E+02  0.86678879874E+01  0.82168314441E+03  0.84348466719E+03  0.17200000000E+03 0.  1.
</event>
<event>
 4    1  0.4363334E-001  0.2545087E+03  0.7818608E-02  0.1110488E+00
          2   -1    0    0  502    0  0.00000000000E+00  0.00000000000E+00  0.33608700721E+04  0.33608700721E+04  0.00000000000E+00 0.  1.
         -2   -1    0    0    0  501 -0.00000000000E+00 -0.00000000000E+00 -0.19286584934E+02  0.19286584934E+02  0.00000000000E+00 0. -1.
          6    1    1    2  502    0 -0.10348975384E+02 -0.18730612308E+03  0.17153328678E+04  0.17341111649E+04  0.17200000000E+03 0.  1.
         -6    1    1    2    0  501  0.10348975384E+02  0.18730612308E+03  0.16262506194E+04  0.16460454921E+04  0.17200000000E+03 0.  1.
</event>
<event>
 4    1  0.4363334E-001  0.1828246E+03  0.7818608E-02  0.1165097E+00
         -1   -1    0    0    0  501 -0.00000000000E+00  0.00000000000E+00  0.45704506426E+03  0.45704506426E+03  0.00000000000E+00 0.  1.
          1   -1    0    0  502    0  0.00000000000E+00 -0.00000000000E+00 -0.76882054940E+02  0.76882054940E+02  0.00000000000E+00 0. -1.
          6    1    1    2  502    0  0.56725582731E+02 -0.24961041374E+02  0.24903773588E+03  0.30894115818E+03  0.17200000000E+03 0.  1.
         -6    1    1    2    0  501 -0.56725582731E+02  0.24961041374E+02  0.13112527343E+03  0.22498596102E+03  0.17200000000E+03 0. -1.
</event>
<event>
 4    1  0.4363334E-001  0.2604094E+03  0.7818608E-02  0.1106897E+00
          2   -1    0    0  502    0  0.00000000000E+00  0.00000000000E+00  0.35556333704E+03  0.35556333704E+03  0.00000000000E+00 0. -1.
         -2   -1    0    0    0  501 -0.00000000000E+00 -0.00000000000E+00 -0.19670610743E+03  0.19670610743E+03  0.00000000000E+00 0.  1.
          6    1    1    2  502    0  0.74864294942E+02  0.18062229437E+03  0.31258170320E+02  0.26227876218E+03  0.17200000000E+03 0. -1.
         -6    1    1    2    0  501 -0.74864294942E+02 -0.18062229437E+03  0.12759905930E+03  0.28999068229E+03  0.17200000000E+03 0. -1.
</event>
<event>
 4    1  0.4363334E-001  0.2083104E+03  0.7818608E-02  0.1142911E+00
         -2   -1    0    0    0  501 -0.00000000000E+00  0.00000000000E+00  0.10419857022E+03  0.10419857022E+03  0.00000000000E+00 0.  1.
          2   -1    0    0  502    0  0.00000000000E+00 -0.00000000000E+00 -0.43626147572E+03  0.43626147572E+03  0.00000000000E+00 0. -1.
          6    1    1    2  502    0 -0.85880176820E+02  0.80211076606E+02 -0.10844142427E+03  0.23484625626E+03  0.17200000000E+03 0. -1.
         -6    1    1    2    0  501  0.85880176820E+02 -0.80211076606E+02 -0.22362148123E+03  0.30561378969E+03  0.17200000000E+03 0.  1.
</event>
<event>
 4    1  0.4363334E-001  0.2387413E+03  0.7818608E-02  0.1120634E+00
         -2   -1    0    0    0  501 -0.00000000000E+00  0.00000000000E+00  0.15584731064E+02  0.15584731064E+02  0.00000000000E+00 0. -1.
          2   -1    0    0  502    0  0.00000000000E+00 -0.00000000000E+00 -0.37216886103E+04  0.37216886103E+04  0.00000000000E+00 0.  1.
          6    1    1    2  502    0 -0.48262791984E+02  0.15837968182E+03 -0.20989146592E+04  0.21124488555E+04  0.17200000000E+03 0. -1.
         -6    1    1    2    0  501  0.48262791984E+02 -0.15837968182E+03 -0.16071892201E+04  0.16248244859E+04  0.17200000000E+03 0.  1.
</event>
<event>
 4    1  0.4363334E-001  0.2723907E+03  0.7818608E-02  0.1099919E+00
         -2   -1    0    0    0  501 -0.00000000000E+00  0.00000000000E+00  0.89224572965E+02  0.89224572965E+02  0.00000000000E+00 0.  1.
          2   -1    0    0  502    0  0.00000000000E+00 -0.00000000000E+00 -0.10894291482E+04  0.10894291482E+04  0.00000000000E+00 0. -1.
          6    1    1    2  502    0  0.11379994070E+03 -0.17793901778E+03 -0.78681419144E+03  0.83263034559E+03  0.17200000000E+03 0. -1.
         -6    1    1    2    0  501 -0.11379994070E+03  0.17793901778E+03 -0.21339038383E+03  0.34602337560E+03  0.17200000000E+03 0.  1.
</event>
<event>
 4    1  0.4363334E-001  0.3974491E+03  0.7818608E-02  0.1044667E+00
          2   -1    0    0  502    0  0.00000000000E+00  0.00000000000E+00  0.23688966128E+04  0.23688966128E+04  0.00000000000E+00 0. -1.
         -2   -1    0    0    0  501 -0.00000000000E+00 -0.00000000000E+00 -0.74821852228E+02  0.74821852228E+02  0.00000000000E+00 0.  1.
          6    1    1    2  502    0  0.30509797084E+03 -0.18787502390E+03  0.15500151184E+04  0.16001601994E+04  0.17200000000E+03 0. -1.
         -6    1    1    2    0  501 -0.30509797084E+03  0.18787502390E+03  0.74405964209E+03  0.84355826556E+03  0.17200000000E+03 0.  1.
</event>
<event>
 4    1  0.4363334E-001  0.2075478E+03  0.7818608E-02  0.1143523E+00
          2   -1    0    0  502    0  0.00000000000E+00  0.00000000000E+00  0.14852735790E+04  0.14852735790E+04  0.00000000000E+00 0. -1.
         -2   -1    0    0    0  501 -0.00000000000E+00 -0.00000000000E+00 -0.29603005363E+02  0.29603005363E+02  0.00000000000E+00 0.  1.
          6    1    1    2  502    0  0.72287606816E+02  0.90920735613E+02  0.83574889547E+03  0.86113430691E+03  0.17200000000E+03 0.  1.
         -6    1    1    2    0  501 -0.72287606816E+02 -0.90920735613E+02  0.61992167814E+03  0.65374227743E+03  0.17200000000E+03 0. -1.
</event>
<event>
 4    1  0.4363334E-001  0.2518782E+03  0.7818608E-02  0.1112124E+00
          1   -1    0    0  502    0  0.00000000000E+00  0.00000000000E+00  0.14186655825E+04  0.14186655825E+04  0.00000000000E+00 0. -1.
         -1   -1    0    0    0  501 -0.00000000000E+00 -0.00000000000E+00 -0.47805464403E+02  0.47805464403E+02  0.00000000000E+00 0.  1.
          6    1    1    2  502    0  0.13306209421E+03 -0.12709487080E+03  0.87171161024E+03  0.90737189649E+03  0.17200000000E+03 0. -1.
         -6    1    1    2    0  501 -0.13306209421E+03  0.12709487080E+03  0.49914850781E+03  0.55909915037E+03  0.17200000000E+03 0.  1.
</event>
<event>
 4    1  0.4363334E-001  0.2745555E+03  0.7818608E-02  0.1098700E+00
         -2   -1    0    0    0  501 -0.00000000000E+00  0.00000000000E+00  0.41162182010E+02  0.41162182010E+02  0.00000000000E+00 0.  1.
          2   -1    0    0  502    0  0.00000000000E+00 -0.00000000000E+00 -0.18895921968E+04  0.18895921968E+04  0.00000000000E+00 0. -1.
          6    1    1    2  502    0 -0.20632978619E+03  0.56786738876E+02 -0.75467154397E+03  0.80306279559E+03  0.17200000000E+03 0.  1.
         -6    1    1    2    0  501  0.20632978619E+03 -0.56786738876E+02 -0.10937584708E+04  0.11276915832E+04  0.17200000000E+03 0. -1.
</event>
<event>
 4    1  0.4363334E-001  0.4896122E+03  0.7818608E-02  0.1016526E+00
          2   -1    0    0  502    0  0.00000000000E+00  0.00000000000E+00  0.11034807888E+04  0.11034807888E+04  0.00000000000E+00 0.  1.
         -2   -1    0    0    0  501 -0.00000000000E+00 -0.00000000000E+00 -0.24290381234E+03  0.24290381234E+03  0.00000000000E+00 0. -1.
          6    1    1    2  502    0  0.45760388780E+03 -0.27106158063E+02  0.64910664853E+03  0.81305565806E+03  0.17200000000E+03 0.  1.
         -6    1    1    2    0  501 -0.45760388780E+03  0.27106158063E+02  0.21147032791E+03  0.53332894308E+03  0.17200000000E+03 0. -1.
</event>
<event>
 4    1  0.4363334E-001  0.2144316E+03  0.7818608E-02  0.1138104E+00
          2   -1    0    0  502    0  0.00000000000E+00  0.00000000000E+00  0.13663333883E+04  0.13663333883E+04  0.00000000000E+00 0. -1.
         -2   -1    0    0    0  501 -0.00000000000E+00 -0.00000000000E+00 -0.33840670328E+02  0.33840670328E+02  0.00000000000E+00 0.  1.
          6    1    1    2  502    0  0.12761200154E+03  0.10587043796E+02  0.71841288859E+03  0.74973194338E+03  0.17200000000E+03 0. -1.
         -6    1    1    2    0  501 -0.12761200154E+03 -0.10587043796E+02  0.61407982942E+03  0.65044211528E+03  0.17200000000E+03 0.  1.
</event>
<event>
 4    1  0.4363334E-001  0.2371634E+03  0.7818608E-02  0.1121697E+00
         -2   -1    0    0    0  501 -0.00000000000E+00  0.00000000000E+00  0.36347495724E+02  0.36347495724E+02  0.00000000000E+00 0. -1.
          2   -1    0    0  502    0  0.00000000000E+00 -0.00000000000E+00 -0.24213732806E+04  0.24213732806E+04  0.00000000000E+00 0.  1.
          6    1    1    2  502    0  0.49084129360E+02  0.15573445856E+03 -0.19307648849E+04  0.19452762051E+04  0.17200000000E+03 0.  1.
         -6    1    1    2    0  501 -0.49084129360E+02 -0.15573445856E+03 -0.45426090000E+03  0.51244457125E+03  0.17200000000E+03 0. -1.
</event>
<event>
 4    1  0.4363334E-001  0.2878385E+03  0.7818608E-02  0.1091483E+00
          2   -1    0    0  502    0  0.00000000000E+00  0.00000000000E+00  0.29198356501E+03  0.29198356501E+03  0.00000000000E+00 0. -1.
         -2   -1    0    0    0  501 -0.00000000000E+00 -0.00000000000E+00 -0.37544852684E+03  0.37544852684E+03  0.00000000000E+00 0.  1.
          6    1    1    2  502    0  0.23019359794E+03 -0.16670393927E+02  0.12318919129E+03  0.31309195361E+03  0.17200000000E+03 0. -1.
         -6    1    1    2    0  501 -0.23019359794E+03  0.16670393927E+02 -0.20665415312E+03  0.35434013824E+03  0.17200000000E+03 0.  1.
</event>
<event>
 4    1  0.4363334E-001  0.1970187E+03  0.7818608E-02  0.1152279E+00
          2   -1    0    0  502    0  0.00000000000E+00  0.00000000000E+00  0.47891582206E+03  0.47891582206E+03  0.00000000000E+00 0. -1.
         -2   -1    0    0    0  501 -0.00000000000E+00 -0.00000000000E+00 -0.82824612514E+02  0.82824612514E+02  0.00000000000E+00 0.  1.
          6    1    1    2  502    0 -0.84483615126E+02 -0.45769886478E+02  0.15693845583E+03  0.25188497901E+03  0.17200000000E+03 0.  1.
         -6    1    1    2    0  501  0.84483615126E+02  0.45769886478E+02  0.23915275371E+03  0.30985545556E+03  0.17200000000E+03 0. -1.
</event>
<event>
 4    1  0.4363334E-001  0.2489280E+03  0.7818608E-02  0.1113984E+00
          2   -1    0    0  502    0  0.00000000000E+00  0.00000000000E+00  0.26131988543E+04  0.26131988543E+04  0.00000000000E+00 0.  1.
         -2   -1    0    0    0  501 -0.00000000000E+00 -0.00000000000E+00 -0.23915571239E+02  0.23915571239E+02  0.00000000000E+00 0. -1.
          6    1    1    2  502    0 -0.17960748330E+03 -0.11059779000E+02  0.14161790742E+04  0.14378902382E+04  0.17200000000E+03 0.  1.
         -6    1    1    2    0  501  0.17960748330E+03  0.11059779000E+02  0.11731042089E+04  0.11992241874E+04  0.17200000000E+03 0. -1.
</event>
<event>
 4    1  0.4363334E-001  0.1964693E+03  0.7818608E-02  0.1152753E+00
          1   -1    0    0  502    0  0.00000000000E+00  0.00000000000E+00  0.71473159482E+02  0.71473159482E+02  0.00000000000E+00 0.  1.
         -1   -1    0    0    0  501 -0.00000000000E+00 -0.00000000000E+00 -0.54487810410E+03  0.54487810410E+03  0.00000000000E+00 0. -1.
          6    1    1    2  502    0  0.67574375147E+02  0.66707490383E+02 -0.20773970531E+03  0.28593000999E+03  0.17200000000E+03 0.  1.
         -6    1    1    2    0  501 -0.67574375147E+02 -0.66707490383E+02 -0.26566523930E+03  0.33042125359E+03  0.17200000000E+03 0. -1.
</event>
<event>
 4    1  0.4363334E-001  0.2160401E+03  0.7818608E-02  0.1136870E+00
         -1   -1    0    0    0  501 -0.00000000000E+00  0.00000000000E+00  0.49037223558E+02  0.49037223558E+02  0.00000000000E+00 0.  1.
          1   -1    0    0  502    0  0.00000000000E+00 -0.00000000000E+00 -0.96175281218E+03  0.96175281218E+03  0.00000000000E+00 0. -1.
          6    1    1    2  502    0  0.76647869351E+02 -0.10589828411E+03 -0.40492978055E+03  0.45895693658E+03  0.17200000000E+03 0.  1.
         -6    1    1    2    0  501 -0.76647869351E+02  0.10589828411E+03 -0.50778580807E+03  0.55183309916E+03  0.17200000000E+03 0. -1.
</event>
<event>
 4    1  0.4363334E-001  0.2726182E+03  0.7818608E-02  0.1099790E+00
          1   -1    0    0  502    0  0.00000000000E+00  0.00000000000E+00  0.19129898874E+04  0.19129898874E+04  0.00000000000E+00 0. -1.
         -1   -1    0    0    0  501 -0.00000000000E+00 -0.00000000000E+00 -0.42479859774E+02  0.42479859774E+02  0.00000000000E+00 0.  1.
          6    1    1    2  502    0 -0.20395705246E+03 -0.56019500235E+02  0.12210423724E+04  0.12511055666E+04  0.17200000000E+03 0. -1.
         -6    1    1    2    0  501  0.20395705246E+03  0.56019500235E+02  0.64946765527E+03  0.70436418059E+03  0.17200000000E+03 0.  1.
</event>
<event>
 4    1  0.4363334E-001  0.1947066E+03  0.7818608E-02  0.1154283E+00
          2   -1    0    0  502    0  0.00000000000E+00  0.00000000000E+00  0.13159480770E+04  0.13159480770E+04  0.00000000000E+00 0. -1.
         -2   -1    0    0    0  501 -0.00000000000E+00 -0.00000000000E+00 -0.28842738058E+02  0.28842738058E+02  0.00000000000E+00 0.  1.
          6    1    1    2  502    0  0.60591110440E+02  0.68230409177E+02  0.66667256562E+03  0.69452356414E+03  0.17200000000E+03 0.  1.
         -6    1    1    2    0  501 -0.60591110440E+02 -0.68230409177E+02  0.62043277334E+03  0.65026725093E+03  0.17200000000E+03 0. -1.
</event>
<event>
 4    1  0.4363334E-001  0.1966224E+03  0.7818608E-02  0.1152620E+00
         -2   -1    0    0    0  501 -0.00000000000E+00  0.00000000000E+00  0.16627659167E+03  0.16627659167E+03  0.00000000000E+00 0.  1.
          2   -1    0    0  502    0  0.00000000000E+00 -0.00000000000E+00 -0.23256747580E+03  0.23256747580E+03  0.00000000000E+00 0. -1.
          6    1    1    2  502    0  0.11093563932E+02 -0.94621881738E+02 -0.29913078068E+02  0.19888479053E+03  0.17200000000E+03 0. -1.
         -6    1    1    2    0  501 -0.11093563932E+02  0.94621881738E+02 -0.36377806061E+02  0.19995927695E+03  0.17200000000E+03 0.  1.
</event>
<event>
 4    1  0.4363334E-001  0.1824483E+03  0.7818608E-02  0.1165454E+00
          2   -1    0    0  502    0  0.00000000000E+00  0.00000000000E+00  0.13948107139E+03  0.13948107139E+03  0.00000000000E+00 0.  1.
         -2   -1    0    0    0  501 -0.00000000000E+00 -0.00000000000E+00 -0.29066304824E+03  0.29066304824E+03  0.00000000000E+00 0. -1.
          6    1    1    2  502    0  0.38687093706E+02 -0.46975427949E+02  0.15387458799E+02  0.18309602928E+03  0.17200000000E+03 0.  1.
         -6    1    1    2    0  501 -0.38687093706E+02  0.46975427949E+02 -0.16656943565E+03  0.24704809035E+03  0.17200000000E+03 0. -1.
</event>
<event>
 4    1  0.4363334E-001  0.2864299E+03  0.7818608E-02  0.1092228E+00
          2   -1    0    0  502    0  0.00000000000E+00  0.00000000000E+00  0.91732706729E+03  0.91732706729E+03  0.00000000000E+00 0.  1.
         -2   -1    0    0    0  501 -0.00000000000E+00 -0.00000000000E+00 -0.14498851186E+03  0.14498851186E+03  0.00000000000E+00 0. -1.
          6    1    1    2  502    0  0.17720293752E+03  0.14511105837E+03  0.57386960058E+02  0.29212217224E+03  0.17200000000E+03 0. -1.
         -6    1    1    2    0  501 -0.17720293752E+03 -0.14511105837E+03  0.71495159537E+03  0.77019340692E+03  0.17200000000E+03 0.  1.
</event>
<event>
 4    1  0.4363334E-001  0.1824521E+03  0.7818608E-02  0.1165451E+00
         -1   -1    0    0    0  501 -0.00000000000E+00  0.00000000000E+00  0.66872226904E+02  0.66872226904E+02  0.00000000000E+00 0. -1.
          1   -1    0    0  502    0  0.00000000000E+00 -0.00000000000E+00 -0.17243833492E+04  0.17243833492E+04  0.00000000000E+00 0.  1.
          6    1    1    2  502    0  0.25348624853E+01  0.60814095646E+02 -0.15841255923E+04  0.15945979656E+04  0.17200000000E+03 0.  1.
         -6    1    1    2    0  501 -0.25348624853E+01 -0.60814095646E+02 -0.73385530019E+02  0.19665761051E+03  0.17200000000E+03 0. -1.
</event>
<event>
 4    1  0.4363334E-001  0.1909951E+03  0.7818608E-02  0.1157567E+00
          1   -1    0    0  502    0  0.00000000000E+00  0.00000000000E+00  0.82604702083E+03  0.82604702083E+03  0.00000000000E+00 0. -1.
         -1   -1    0    0    0  501 -0.00000000000E+00 -0.00000000000E+00 -0.94147347535E+02  0.94147347535E+02  0.00000000000E+00 0.  1.
          6    1    1    2  502    0  0.24754227754E+02  0.79261214526E+02  0.30698148718E+02  0.19344634464E+03  0.17200000000E+03 0.  1.
         -6    1    1    2    0  501 -0.24754227754E+02 -0.79261214526E+02  0.70120152458E+03  0.72674802373E+03  0.17200000000E+03 0. -1.
</event>
<event>
 4    1  0.4363334E-001  0.2123272E+03  0.7818608E-02  0.1139736E+00
         -1   -1    0    0    0  501 -0.00000000000E+00  0.00000000000E+00  0.88863865879E+02  0.88863865879E+02  0.00000000000E+00 0.  1.
          1   -1    0    0  502    0  0.00000000000E+00 -0.00000000000E+00 -0.51376906521E+03  0.51376906521E+03  0.00000000000E+00 0. -1.
          6    1    1    2  502    0  0.58589374982E+02 -0.10984588563E+03 -0.17870606319E+03  0.27752241436E+03  0.17200000000E+03 0.  1.
         -6    1    1    2    0  501 -0.58589374982E+02  0.10984588563E+03 -0.24619913615E+03  0.32511051673E+03  0.17200000000E+03 0.  1.
</event>
<event>
 4    1  0.4363334E-001  0.1801864E+03  0.7818608E-02  0.1167623E+00
         -2   -1    0    0    0  501 -0.00000000000E+00  0.00000000000E+00  0.55698052341E+02  0.55698052341E+02  0.00000000000E+00 0. -1.
          2   -1    0    0  502    0  0.00000000000E+00 -0.00000000000E+00 -0.78190868199E+03  0.78190868199E+03  0.00000000000E+00 0.  1.
          6    1    1    2  502    0 -0.19546941863E+02 -0.50010733660E+02 -0.57438280841E+03  0.60198236437E+03  0.17200000000E+03 0. -1.
         -6    1    1    2    0  501  0.19546941863E+02  0.50010733660E+02 -0.15182782124E+03  0.23562436996E+03  0.17200000000E+03 0. -1.
</event>
<event>
 4    1  0.4363334E-001  0.2033864E+03  0.7818608E-02  0.1146913E+00
          2   -1    0    0  502    0  0.00000000000E+00  0.00000000000E+00  0.28300033284E+02  0.28300033284E+02  0.00000000000E+00 0. -1.
         -2   -1    0    0    0  501 -0.00000000000E+00 -0.00000000000E+00 -0.20990423914E+04  0.20990423914E+04  0.00000000000E+00 0.  1.
          6    1    1    2  502    0 -0.54358417940E+02  0.93953132857E+02 -0.16214887851E+04  0.16341945750E+04  0.17200000000E+03 0.  1.
         -6    1    1    2    0  501  0.54358417940E+02 -0.93953132857E+02 -0.44925357302E+03  0.49314784968E+03  0.17200000000E+03 0. -1.
</event>
<event>
 4    1  0.4363334E-001  0.3799379E+03  0.7818608E-02  0.1050957E+00
          2   -1    0    0  502    0  0.00000000000E+00  0.00000000000E+00  0.13365841379E+04  0.13365841379E+04  0.00000000000E+00 0.  1.
         -2   -1    0    0    0  501 -0.00000000000E+00 -0.00000000000E+00 -0.12133125035E+03  0.12133125035E+03  0.00000000000E+00 0. -1.
          6    1    1    2  502    0  0.79325265485E+02 -0.32935742082E+03  0.36600779607E+03  0.52755522477E+03  0.17200000000E+03 0.  1.
         -6    1    1    2    0  501 -0.79325265485E+02  0.32935742082E+03  0.84924509143E+03  0.93036016344E+03  0.17200000000E+03 0. -1.
</event>
<event>
 4    1  0.4363334E-001  0.2194529E+03  0.7818608E-02  0.1134292E+00
         -2   -1    0    0    0  501 -0.00000000000E+00  0.00000000000E+00  0.46098689122E+02  0.46098689122E+02  0.00000000000E+00 0.  1.
          2   -1    0    0  502    0  0.00000000000E+00 -0.00000000000E+00 -0.24837804232E+04  0.24837804232E+04  0.00000000000E+00 0. -1.
          6    1    1    2  502    0 -0.13243635174E+03 -0.32190139437E+02 -0.25599947686E+03  0.33718737297E+03  0.17200000000E+03 0.  1.
         -6    1    1    2    0  501  0.13243635174E+03  0.32190139437E+02 -0.21816822572E+04  0.21926917394E+04  0.17200000000E+03 0. -1.
</event>
<event>
 4    1  0.4363334E-001  0.1823636E+03  0.7818608E-02  0.1165535E+00
         -2   -1    0    0    0  501 -0.00000000000E+00  0.00000000000E+00  0.21504942369E+03  0.21504942369E+03  0.00000000000E+00 0. -1.
          2   -1    0    0  502    0  0.00000000000E+00 -0.00000000000E+00 -0.18113421340E+03  0.18113421340E+03  0.00000000000E+00 0.  1.
          6    1    1    2  502    0 -0.44065688428E+01  0.60440711116E+02  0.92709585523E+02  0.20457654963E+03  0.17200000000E+03 0. -1.
         -6    1    1    2    0  501  0.44065688428E+01 -0.60440711116E+02 -0.58794375233E+02  0.19160708747E+03  0.17200000000E+03 0.  1.
</event>
<event>
 4    1  0.4363334E-001  0.1809544E+03  0.7818608E-02  0.1166883E+00
          2   -1    0    0  502    0  0.00000000000E+00  0.00000000000E+00  0.38765424851E+03  0.38765424851E+03  0.00000000000E+00 0.  1.
         -2   -1    0    0    0  501 -0.00000000000E+00 -0.00000000000E+00 -0.12447121300E+03  0.12447121300E+03  0.00000000000E+00 0. -1.
          6    1    1    2  502    0  0.56209506236E+02 -0.98495266673E+00 -0.13572156959E+02  0.18146261920E+03  0.17200000000E+03 0. -1.
         -6    1    1    2    0  501 -0.56209506236E+02  0.98495266673E+00  0.27675519247E+03  0.33066284231E+03  0.17200000000E+03 0.  1.
</event>
<event>
 4    1  0.4363334E-001  0.3402423E+03  0.7818608E-02  0.1066693E+00
         -2   -1    0    0    0  501 -0.00000000000E+00  0.00000000000E+00  0.17076430118E+03  0.17076430118E+03  0.00000000000E+00 0. -1.
          2   -1    0    0  502    0  0.00000000000E+00 -0.00000000000E+00 -0.67818371189E+03  0.67818371189E+03  0.00000000000E+00 0.  1.
          6    1    1    2  502    0  0.26454083460E+03 -0.12727509281E+03 -0.24536426604E+03  0.41948590616E+03  0.17200000000E+03 0. -1.
         -6    1    1    2    0  501 -0.26454083460E+03  0.12727509281E+03 -0.26205514466E+03  0.42946210690E+03  0.17200000000E+03 0.  1.
</event>
<event>
 4    1  0.4363334E-001  0.1848744E+03  0.7818608E-02  0.1163167E+00
          1   -1    0    0  502    0  0.00000000000E+00  0.00000000000E+00  0.85814364762E+03  0.85814364762E+03  0.00000000000E+00 0. -1.
         -1   -1    0    0    0  501 -0.00000000000E+00 -0.00000000000E+00 -0.45295426255E+02  0.45295426255E+02  0.00000000000E+00 0.  1.
          6    1    1    2  502    0 -0.46400652371E+02  0.49411934318E+02  0.24949121923E+03  0.31052283050E+03  0.17200000000E+03 0.  1.
         -6    1    1    2    0  501  0.46400652371E+02 -0.49411934318E+02  0.56335700214E+03  0.59291624337E+03  0.17200000000E+03 0. -1.
</event>
<event>
 4    1  0.4363334E-001  0.2149654E+03  0.7818608E-02  0.1137693E+00
          2   -1    0    0  502    0  0.00000000000E+00  0.00000000000E+00  0.20906458501E+03  0.20906458501E+03  0.00000000000E+00 0.  1.
         -2   -1    0    0    0  501 -0.00000000000E+00 -0.00000000000E+00 -0.27061707368E+03  0.27061707368E+03  0.00000000000E+00 0. -1.
          6    1    1    2  502    0 -0.70717888430E+02 -0.10781986916E+03 -0.13344001697E+03  0.25301458863E+03  0.17200000000E+03 0. -1.
         -6    1    1    2    0  501  0.70717888430E+02  0.10781986916E+03  0.71887528298E+02  0.22666707007E+03  0.17200000000E+03 0.  1.
</event>
<event>
 4    1  0.4363334E-001  0.2113894E+03  0.7818608E-02  0.1140470E+00
          2   -1    0    0  502    0  0.00000000000E+00  0.00000000000E+00  0.28738082366E+03  0.28738082366E+03  0.00000000000E+00 0. -1.
         -2   -1    0    0    0  501 -0.00000000000E+00 -0.00000000000E+00 -0.15828816802E+03  0.15828816802E+03  0.00000000000E+00 0.  1.
          6    1    1    2  502    0  0.74146841936E+01 -0.12266419388E+03  0.94162082996E+02  0.23141300715E+03  0.17200000000E+03 0.  1.
         -6    1    1    2    0  501 -0.74146841936E+01  0.12266419388E+03  0.34930572646E+02  0.21425598453E+03  0.17200000000E+03 0.  1.
</event>
<event>
 4    1  0.4363334E-001  0.1772118E+03  0.7818608E-02  0.1170529E+00
          1   -1    0    0  502    0  0.00000000000E+00  0.00000000000E+00  0.64790535797E+02  0.64790535797E+02  0.00000000000E+00 0.  1.
         -1   -1    0    0    0  501 -0.00000000000E+00 -0.00000000000E+00 -0.52219047529E+03  0.52219047529E+03  0.00000000000E+00 0. -1.
          6    1    1    2  502    0  0.36810945717E+02 -0.21563079488E+02 -0.15006123229E+03  0.23221194103E+03  0.17200000000E+03 0.  1.
         -6    1    1    2    0  501 -0.36810945717E+02  0.21563079488E+02 -0.30733870720E+03  0.35476907005E+03  0.17200000000E+03 0. -1.
</event>
<event>
 4    1  0.4363334E-001  0.2865815E+03  0.7818608E-02  0.1092148E+00
          2   -1    0    0  502    0  0.00000000000E+00  0.00000000000E+00  0.58788071052E+03  0.58788071052E+03  0.00000000000E+00 0.  1.
         -2   -1    0    0    0  501 -0.00000000000E+00 -0.00000000000E+00 -0.15242507077E+03  0.15242507077E+03  0.00000000000E+00 0. -1.
          6    1    1    2  502    0 -0.16405959409E+03 -0.16009192722E+03  0.11079184991E+03  0.30725202942E+03  0.17200000000E+03 0. -1.
         -6    1    1    2    0  501  0.16405959409E+03  0.16009192722E+03  0.32466378984E+03  0.43305375187E+03  0.17200000000E+03 0.  1.
</event>
<event>
 4    1  0.4363334E-001  0.1791283E+03  0.7818608E-02  0.1168649E+00
          2   -1    0    0  502    0  0.00000000000E+00  0.00000000000E+00  0.17269354666E+03  0.17269354666E+03  0.00000000000E+00 0. -1.
         -2   -1    0    0    0  501 -0.00000000000E+00 -0.00000000000E+00 -0.18581944553E+03  0.18581944553E+03  0.00000000000E+00 0.  1.
          6    1    1    2  502    0  0.15751628281E+02  0.47485193614E+02 -0.82557345212E+01  0.17931847244E+03  0.17200000000E+03 0.  1.
         -6    1    1    2    0  501 -0.15751628281E+02 -0.47485193614E+02 -0.48701643474E+01  0.17919451975E+03  0.17200000000E+03 0. -1.
</event>
<event>
 4    1  0.4363334E-001  0.1868748E+03  0.7818608E-02  0.1161311E+00
          2   -1    0    0  502    0  0.00000000000E+00  0.00000000000E+00  0.18898211627E+04  0.18898211627E+04  0.00000000000E+00 0. -1.
         -2   -1    0    0    0  501 -0.00000000000E+00 -0.00000000000E+00 -0.58635512933E+02  0.58635512933E+02  0.00000000000E+00 0.  1.
          6    1    1    2  502    0 -0.72809877152E+02  0.60764214453E+01  0.17218207372E+04  0.17319321153E+04  0.17200000000E+03 0. -1.
         -6    1    1    2    0  501  0.72809877152E+02 -0.60764214453E+01  0.10936491257E+03  0.21652456029E+03  0.17200000000E+03 0.  1.
</event>
<event>
 4    1  0.4363334E-001  0.1855413E+03  0.7818608E-02  0.1162545E+00
         -2   -1    0    0    0  501 -0.00000000000E+00  0.00000000000E+00  0.41926761320E+03  0.41926761320E+03  0.00000000000E+00 0. -1.
          2   -1    0    0  502    0  0.00000000000E+00 -0.00000000000E+00 -0.31364510875E+03  0.31364510875E+03  0.00000000000E+00 0.  1.
          6    1    1    2  502    0 -0.49239704971E+02 -0.49163368235E+02 -0.26204513100E+03  0.32108135418E+03  0.17200000000E+03 0.  1.
         -6    1    1    2    0  501  0.49239704971E+02  0.49163368235E+02  0.36766763545E+03  0.41183136777E+03  0.17200000000E+03 0. -1.
</event>
<event>
 4    1  0.4363334E-001  0.1831975E+03  0.7818608E-02  0.1164744E+00
          2   -1    0    0  502    0  0.00000000000E+00  0.00000000000E+00  0.10889407405E+03  0.10889407405E+03  0.00000000000E+00 0.  1.
         -2   -1    0    0    0  501 -0.00000000000E+00 -0.00000000000E+00 -0.35615662826E+03  0.35615662826E+03  0.00000000000E+00 0. -1.
          6    1    1    2  502    0  0.59092377000E+02  0.22032016172E+02 -0.38308055070E+02  0.18715989378E+03  0.17200000000E+03 0.  1.
         -6    1    1    2    0  501 -0.59092377000E+02 -0.22032016172E+02 -0.20895449914E+03  0.27789080853E+03  0.17200000000E+03 0. -1.
</event>
<event>
 4    1  0.4363334E-001  0.3021392E+03  0.7818608E-02  0.1084176E+00
         -1   -1    0    0    0  501 -0.00000000000E+00  0.00000000000E+00  0.63056659382E+02  0.63056659382E+02  0.00000000000E+00 0.  1.
          1   -1    0    0  502    0  0.00000000000E+00 -0.00000000000E+00 -0.15275202362E+04  0.15275202362E+04  0.00000000000E+00 0. -1.
          6    1    1    2  502    0 -0.12677645135E+03 -0.21361602233E+03 -0.91401208023E+03  0.96265578294E+03  0.17200000000E+03 0.  1.
         -6    1    1    2    0  501  0.12677645135E+03  0.21361602233E+03 -0.55045149660E+03  0.62792111266E+03  0.17200000000E+03 0.  1.
</event>
<event>
 4    1  0.4363334E-001  0.2814704E+03  0.7818608E-02  0.1094889E+00
         -2   -1    0    0    0  501 -0.00000000000E+00  0.00000000000E+00  0.78230662757E+02  0.78230662757E+02  0.00000000000E+00 0.  1.
          2   -1    0    0  502    0  0.00000000000E+00 -0.00000000000E+00 -0.11174966422E+04  0.11174966422E+04  0.00000000000E+00 0. -1.
          6    1    1    2  502    0 -0.11297447927E+03  0.19203740085E+03 -0.33656368693E+03  0.43874903037E+03  0.17200000000E+03 0. -1.
         -6    1    1    2    0  501  0.11297447927E+03 -0.19203740085E+03 -0.70270229251E+03  0.75697827459E+03  0.17200000000E+03 0. -1.
</event>
<event>
 4    1  0.4363334E-001  0.4218749E+03  0.7818608E-02  0.1036458E+00
          4   -1    0    0  502    0  0.00000000000E+00  0.00000000000E+00  0.22740513089E+03  0.22740513089E+03  0.00000000000E+00 0. -1.
         -4   -1    0    0    0  501 -0.00000000000E+00 -0.00000000000E+00 -0.99297172413E+03  0.99297172413E+03  0.00000000000E+00 0.  1.
          6    1    1    2  502    0  0.38520950041E+03 -0.28417386022E+01 -0.66361003750E+03  0.78635660902E+03  0.17200000000E+03 0.  1.
         -6    1    1    2    0  501 -0.38520950041E+03  0.28417386022E+01 -0.10195655574E+03  0.43402024600E+03  0.17200000000E+03 0. -1.
</event>
<event>
 4    1  0.4363334E-001  0.2321007E+03  0.7818608E-02  0.1125170E+00
         -1   -1    0    0    0  501 -0.00000000000E+00  0.00000000000E+00  0.79685022395E+02  0.79685022395E+02  0.00000000000E+00 0.  1.
          1   -1    0    0  502    0  0.00000000000E+00 -0.00000000000E+00 -0.70921404322E+03  0.70921404322E+03  0.00000000000E+00 0. -1.
          6    1    1    2  502    0 -0.10459776382E+03 -0.11552501885E+03 -0.22946152595E+03  0.32637909563E+03  0.17200000000E+03 0. -1.
         -6    1    1    2    0  501  0.10459776382E+03  0.11552501885E+03 -0.40006749488E+03  0.46251996999E+03  0.17200000000E+03 0.  1.
</event>
<event>
 4    1  0.4363334E-001  0.1837360E+03  0.7818608E-02  0.1164236E+00
          1   -1    0    0  502    0  0.00000000000E+00  0.00000000000E+00  0.48213562619E+03  0.48213562619E+03  0.00000000000E+00 0. -1.
         -1   -1    0    0    0  501 -0.00000000000E+00 -0.00000000000E+00 -0.70184938493E+02  0.70184938493E+02  0.00000000000E+00 0.  1.
          6    1    1    2  502    0 -0.51422882950E+02 -0.39122731364E+02  0.21938268023E+03  0.28616020231E+03  0.17200000000E+03 0.  1.
         -6    1    1    2    0  501  0.51422882950E+02  0.39122731364E+02  0.19256800747E+03  0.26616036238E+03  0.17200000000E+03 0.  1.
</event>
<event>
 4    1  0.4363334E-001  0.1801872E+03  0.7818608E-02  0.1167622E+00
         -2   -1    0    0    0  501 -0.00000000000E+00  0.00000000000E+00  0.19161344049E+03  0.19161344049E+03  0.00000000000E+00 0.  1.
          2   -1    0    0  502    0  0.00000000000E+00 -0.00000000000E+00 -0.37550010920E+03  0.37550010920E+03  0.00000000000E+00 0. -1.
          6    1    1    2  502    0 -0.53461630182E+02  0.50268246408E+01  0.11810999664E+03  0.21544694515E+03  0.17200000000E+03 0.  1.
         -6    1    1    2    0  501  0.53461630182E+02 -0.50268246408E+01 -0.30199666535E+03  0.35166660454E+03  0.17200000000E+03 0. -1.
</event>
<event>
 4    1  0.4363334E-001  0.1835550E+03  0.7818608E-02  0.1164406E+00
          2   -1    0    0  502    0  0.00000000000E+00  0.00000000000E+00  0.11030688061E+04  0.11030688061E+04  0.00000000000E+00 0. -1.
         -2   -1    0    0    0  501 -0.00000000000E+00 -0.00000000000E+00 -0.45477759588E+02  0.45477759588E+02  0.00000000000E+00 0.  1.
          6    1    1    2  502    0  0.54310131022E+02 -0.34042008790E+02  0.19971702597E+03  0.27125511821E+03  0.17200000000E+03 0.  1.
         -6    1    1    2    0  501 -0.54310131022E+02  0.34042008790E+02  0.85787402058E+03  0.87729144752E+03  0.17200000000E+03 0. -1.
</event>
<event>
 4    1  0.4363334E-001  0.2173968E+03  0.7818608E-02  0.1135839E+00
         -1   -1    0    0    0  501 -0.00000000000E+00  0.00000000000E+00  0.33060195227E+03  0.33060195227E+03  0.00000000000E+00 0. -1.
          1   -1    0    0  502    0  0.00000000000E+00 -0.00000000000E+00 -0.17616749407E+03  0.17616749407E+03  0.00000000000E+00 0.  1.
          6    1    1    2  502    0  0.90518370467E+02  0.97384813230E+02  0.18723550123E+03  0.28691202513E+03  0.17200000000E+03 0. -1.
         -6    1    1    2    0  501 -0.90518370467E+02 -0.97384813230E+02 -0.32801043027E+02  0.21985742122E+03  0.17200000000E+03 0.  1.
</event>
<event>
 4    1  0.4363334E-001  0.2144647E+03  0.7818608E-02  0.1138078E+00
         -2   -1    0    0    0  501 -0.00000000000E+00  0.00000000000E+00  0.42961672954E+02  0.42961672954E+02  0.00000000000E+00 0. -1.
          2   -1    0    0  502    0  0.00000000000E+00 -0.00000000000E+00 -0.11205840914E+04  0.11205840914E+04  0.00000000000E+00 0.  1.
          6    1    1    2  502    0 -0.72504653782E+02 -0.10561342944E+03 -0.41595097890E+03  0.46798540377E+03  0.17200000000E+03 0.  1.
         -6    1    1    2    0  501  0.72504653782E+02  0.10561342944E+03 -0.66167143958E+03  0.69556036061E+03  0.17200000000E+03 0. -1.
</event>
<event>
 4    1  0.4363334E-001  0.1830280E+03  0.7818608E-02  0.1164904E+00
         -1   -1    0    0    0  501 -0.00000000000E+00  0.00000000000E+00  0.13292814736E+02  0.13292814736E+02  0.00000000000E+00 0.  1.
          1   -1    0    0  502    0  0.00000000000E+00 -0.00000000000E+00 -0.30402944101E+04  0.30402944101E+04  0.00000000000E+00 0. -1.
          6    1    1    2  502    0  0.54969778111E+02  0.29892601196E+02 -0.21450463386E+04  0.21528406905E+04  0.17200000000E+03 0. -1.
         -6    1    1    2    0  501 -0.54969778111E+02 -0.29892601196E+02 -0.88195525681E+03  0.90074653434E+03  0.17200000000E+03 0.  1.
</event>
<event>
 4    1  0.4363334E-001  0.2459996E+03  0.7818608E-02  0.1115859E+00
         -4   -1    0    0    0  501 -0.00000000000E+00  0.00000000000E+00  0.16283230212E+04  0.16283230212E+04  0.00000000000E+00 0. -1.
          4   -1    0    0  502    0  0.00000000000E+00 -0.00000000000E+00 -0.37667664163E+02  0.37667664163E+02  0.00000000000E+00 0.  1.
          6    1    1    2  502    0 -0.60631795539E+02  0.16509265608E+03  0.69905211979E+03  0.74107332020E+03  0.17200000000E+03 0.  1.
         -6    1    1    2    0  501  0.60631795539E+02 -0.16509265608E+03  0.89160323727E+03  0.92491736519E+03  0.17200000000E+03 0. -1.
</event>
<event>
 4    1  0.4363334E-001  0.1735369E+03  0.7818608E-02  0.1174209E+00
          1   -1    0    0  502    0  0.00000000000E+00  0.00000000000E+00  0.16879918721E+04  0.16879918721E+04  0.00000000000E+00 0.  1.
         -1   -1    0    0    0  501 -0.00000000000E+00 -0.00000000000E+00 -0.18392652297E+02  0.18392652297E+02  0.00000000000E+00 0. -1.
          6    1    1    2  502    0 -0.75261861703E+01  0.21781280657E+02  0.68700805744E+03  0.70858671922E+03  0.17200000000E+03 0. -1.
         -6    1    1    2    0  501  0.75261861703E+01 -0.21781280657E+02  0.98259116231E+03  0.99779780513E+03  0.17200000000E+03 0. -1.
</event>
<event>
 4    1  0.4363334E-001  0.1754950E+03  0.7818608E-02  0.1172236E+00
          3   -1    0    0  502    0  0.00000000000E+00  0.00000000000E+00  0.51607386477E+02  0.51607386477E+02  0.00000000000E+00 0.  1.
         -3   -1    0    0    0  501 -0.00000000000E+00 -0.00000000000E+00 -0.86881058444E+03  0.86881058444E+03  0.00000000000E+00 0. -1.
          6    1    1    2  502    0 -0.34528748880E+02  0.47174728817E+01 -0.66611379735E+03  0.68884401723E+03  0.17200000000E+03 0. -1.
         -6    1    1    2    0  501  0.34528748880E+02 -0.47174728817E+01 -0.15108940061E+03  0.23157395369E+03  0.17200000000E+03 0.  1.
</event>
<event>
 4    1  0.4363334E-001  0.1933409E+03  0.7818608E-02  0.1155482E+00
          1   -1    0    0  502    0  0.00000000000E+00  0.00000000000E+00  0.14095515739E+04  0.14095515739E+04  0.00000000000E+00 0.  1.
         -1   -1    0    0    0  501 -0.00000000000E+00 -0.00000000000E+00 -0.26991497325E+02  0.26991497325E+02  0.00000000000E+00 0. -1.
          6    1    1    2  502    0  0.24786068905E+02 -0.84748735695E+02  0.78625608889E+03  0.80967853790E+03  0.17200000000E+03 0.  1.
         -6    1    1    2    0  501 -0.24786068905E+02  0.84748735695E+02  0.59630398765E+03  0.62686453330E+03  0.17200000000E+03 0. -1.
</event>
<event>
 4    1  0.4363334E-001  0.1771547E+03  0.7818608E-02  0.1170585E+00
          3   -1    0    0  502    0  0.00000000000E+00  0.00000000000E+00  0.85800247681E+03  0.85800247681E+03  0.00000000000E+00 0. -1.
         -3   -1    0    0    0  501 -0.00000000000E+00 -0.00000000000E+00 -0.38171086118E+02  0.38171086118E+02  0.00000000000E+00 0.  1.
          6    1    1    2  502    0  0.10927360637E+02  0.40992653572E+02  0.50146347546E+03  0.53183589769E+03  0.17200000000E+03 0. -1.
         -6    1    1    2    0  501 -0.10927360637E+02 -0.40992653572E+02  0.31836791523E+03  0.36433766523E+03  0.17200000000E+03 0.  1.
</event>
<event>
 4    1  0.4363334E-001  0.1921968E+03  0.7818608E-02  0.1156495E+00
         -2   -1    0    0    0  501 -0.00000000000E+00  0.00000000000E+00  0.10964011068E+03  0.10964011068E+03  0.00000000000E+00 0. -1.
          2   -1    0    0  502    0  0.00000000000E+00 -0.00000000000E+00 -0.48328676199E+03  0.48328676199E+03  0.00000000000E+00 0.  1.
          6    1    1    2  502    0  0.37379096586E+02  0.77190854789E+02 -0.23670625008E+02  0.19364896956E+03  0.17200000000E+03 0. -1.
         -6    1    1    2    0  501 -0.37379096586E+02 -0.77190854789E+02 -0.34997602630E+03  0.39927790311E+03  0.17200000000E+03 0.  1.
</event>
<event>
 4    1  0.4363334E-001  0.2180856E+03  0.7818608E-02  0.1135318E+00
          2   -1    0    0  502    0  0.00000000000E+00  0.00000000000E+00  0.49186400655E+03  0.49186400655E+03  0.00000000000E+00 0.  1.
         -2   -1    0    0    0  501 -0.00000000000E+00 -0.00000000000E+00 -0.16400698839E+03  0.16400698839E+03  0.00000000000E+00 0. -1.
          6    1    1    2  502    0 -0.42315927026E+02 -0.12722699054E+03  0.37401582107E+03  0.43295401513E+03  0.17200000000E+03 0.  1.
         -6    1    1    2    0  501  0.42315927026E+02  0.12722699054E+03 -0.46158802918E+02  0.22291697981E+03  0.17200000000E+03 0. -1.
</event>
<event>
 4    1  0.4363334E-001  0.1879389E+03  0.7818608E-02  0.1160334E+00
          2   -1    0    0  502    0  0.00000000000E+00  0.00000000000E+00  0.63029924203E+03  0.63029924203E+03  0.00000000000E+00 0.  1.
         -2   -1    0    0    0  501 -0.00000000000E+00 -0.00000000000E+00 -0.66010473137E+02  0.66010473137E+02  0.00000000000E+00 0. -1.
          6    1    1    2  502    0 -0.52652366112E+02  0.54449702508E+02  0.14682625831E+03  0.23849316948E+03  0.17200000000E+03 0. -1.
         -6    1    1    2    0  501  0.52652366112E+02 -0.54449702508E+02  0.41746251058E+03  0.45781654568E+03  0.17200000000E+03 0.  1.
</event>
<event>
 4    1  0.4363334E-001  0.2157433E+03  0.7818608E-02  0.1137097E+00
         -2   -1    0    0    0  501 -0.00000000000E+00  0.00000000000E+00  0.68795387937E+02  0.68795387937E+02  0.00000000000E+00 0. -1.
          2   -1    0    0  502    0  0.00000000000E+00 -0.00000000000E+00 -0.11663077597E+04  0.11663077597E+04  0.00000000000E+00 0.  1.
          6    1    1    2  502    0  0.10260732522E+03 -0.80205504660E+02 -0.94892807067E+03  0.97314421823E+03  0.17200000000E+03 0.  1.
         -6    1    1    2    0  501 -0.10260732522E+03  0.80205504660E+02 -0.14858430110E+03  0.26195892942E+03  0.17200000000E+03 0. -1.
</event>
<event>
 4    1  0.4363334E-001  0.1849227E+03  0.7818608E-02  0.1163122E+00
         -2   -1    0    0    0  501 -0.00000000000E+00  0.00000000000E+00  0.84405924995E+02  0.84405924995E+02  0.00000000000E+00 0. -1.
          2   -1    0    0  502    0  0.00000000000E+00 -0.00000000000E+00 -0.41006622109E+03  0.41006622109E+03  0.00000000000E+00 0.  1.
          6    1    1    2  502    0  0.60260054198E+02  0.31323208577E+02 -0.13573841708E+03  0.22939340749E+03  0.17200000000E+03 0. -1.
         -6    1    1    2    0  501 -0.60260054198E+02 -0.31323208577E+02 -0.18992187902E+03  0.26507873860E+03  0.17200000000E+03 0. -1.
</event>
<event>
 4    1  0.4363334E-001  0.2180687E+03  0.7818608E-02  0.1135331E+00
         -2   -1    0    0    0  501 -0.00000000000E+00  0.00000000000E+00  0.33037231362E+02  0.33037231362E+02  0.00000000000E+00 0. -1.
          2   -1    0    0  502    0  0.00000000000E+00 -0.00000000000E+00 -0.15238011087E+04  0.15238011087E+04  0.00000000000E+00 0.  1.
          6    1    1    2  502    0  0.12470164330E+03 -0.49188130167E+02 -0.92857513767E+03  0.95383738566E+03  0.17200000000E+03 0.  1.
         -6    1    1    2    0  501 -0.12470164330E+03  0.49188130167E+02 -0.56218873964E+03  0.60300095437E+03  0.17200000000E+03 0. -1.
</event>
<event>
 4    1  0.4363334E-001  0.1742304E+03  0.7818608E-02  0.1173507E+00
         -2   -1    0    0    0  501 -0.00000000000E+00  0.00000000000E+00  0.35430360813E+03  0.35430360813E+03  0.00000000000E+00 0.  1.
          2   -1    0    0  502    0  0.00000000000E+00 -0.00000000000E+00 -0.86453101610E+02  0.86453101610E+02  0.00000000000E+00 0. -1.
          6    1    1    2  502    0  0.24215467898E+02  0.13631876560E+02  0.15478484356E+03  0.23305485350E+03  0.17200000000E+03 0.  1.
         -6    1    1    2    0  501 -0.24215467898E+02 -0.13631876560E+02  0.11306566295E+03  0.20770185623E+03  0.17200000000E+03 0. -1.
</event>
<event>
 4    1  0.4363334E-001  0.1968549E+03  0.7818608E-02  0.1152420E+00
          1   -1    0    0  502    0  0.00000000000E+00  0.00000000000E+00  0.15070967064E+04  0.15070967064E+04  0.00000000000E+00 0. -1.
         -1   -1    0    0    0  501 -0.00000000000E+00 -0.00000000000E+00 -0.30050681191E+02  0.30050681191E+02  0.00000000000E+00 0.  1.
          6    1    1    2  502    0 -0.71867758651E+02 -0.63268301631E+02  0.44651732000E+03  0.48798521472E+03  0.17200000000E+03 0. -1.
         -6    1    1    2    0  501  0.71867758651E+02  0.63268301631E+02  0.10305287052E+04  0.10491621728E+04  0.17200000000E+03 0. -1.
</event>
<event>
 4    1  0.4363334E-001  0.2343620E+03  0.7818608E-02  0.1123607E+00
         -3   -1    0    0    0  501 -0.00000000000E+00  0.00000000000E+00  0.22950862155E+02  0.22950862155E+02  0.00000000000E+00 0.  1.
          3   -1    0    0  502    0  0.00000000000E+00 -0.00000000000E+00 -0.24137494681E+04  0.24137494681E+04  0.00000000000E+00 0. -1.
          6    1    1    2  502    0 -0.11716596311E+03  0.10776676361E+03 -0.13078702470E+04  0.13287024202E+04  0.17200000000E+03 0.  1.
         -6    1    1    2    0  501  0.11716596311E+03 -0.10776676361E+03 -0.10829283589E+04  0.11079979101E+04  0.17200000000E+03 0.  1.
</event>
<event>
 4    1  0.4363334E-001  0.2036000E+03  0.7818608E-02  0.1146737E+00
          1   -1    0    0  502    0  0.00000000000E+00  0.00000000000E+00  0.17505027783E+04  0.17505027783E+04  0.00000000000E+00 0. -1.
         -1   -1    0    0    0  501 -0.00000000000E+00 -0.00000000000E+00 -0.31403801069E+02  0.31403801069E+02  0.00000000000E+00 0.  1.
          6    1    1    2  502    0  0.96489603821E+02  0.50583845476E+02  0.13013867001E+04  0.13172168812E+04  0.17200000000E+03 0. -1.
         -6    1    1    2    0  501 -0.96489603821E+02 -0.50583845476E+02  0.41771227716E+03  0.46468969814E+03  0.17200000000E+03 0.  1.
</event>
<event>
 4    1  0.4363334E-001  0.1901563E+03  0.7818608E-02  0.1158320E+00
          2   -1    0    0  502    0  0.00000000000E+00  0.00000000000E+00  0.18199053177E+04  0.18199053177E+04  0.00000000000E+00 0.  1.
         -2   -1    0    0    0  501 -0.00000000000E+00 -0.00000000000E+00 -0.40286324208E+02  0.40286324208E+02  0.00000000000E+00 0. -1.
          6    1    1    2  502    0  0.74473911972E+02 -0.32078927546E+02  0.22766937230E+03  0.29663574336E+03  0.17200000000E+03 0. -1.
         -6    1    1    2    0  501 -0.74473911972E+02  0.32078927546E+02  0.15519496212E+04  0.15635558986E+04  0.17200000000E+03 0.  1.
</event>
<event>
 4    1  0.4363334E-001  0.2102277E+03  0.7818608E-02  0.1141386E+00
         -1   -1    0    0    0  501 -0.00000000000E+00  0.00000000000E+00  0.23669011284E+03  0.23669011284E+03  0.00000000000E+00 0. -1.
          1   -1    0    0  502    0  0.00000000000E+00 -0.00000000000E+00 -0.78774437790E+03  0.78774437790E+03  0.00000000000E+00 0.  1.
          6    1    1    2  502    0 -0.11897083942E+02  0.12029186171E+03 -0.72293767997E+03  0.75288416222E+03  0.17200000000E+03 0.  1.
         -6    1    1    2    0  501  0.11897083942E+02 -0.12029186171E+03  0.17188341491E+03  0.27155032853E+03  0.17200000000E+03 0. -1.
</event>
<event>
 4    1  0.4363334E-001  0.2148383E+03  0.7818608E-02  0.1137791E+00
          2   -1    0    0  502    0  0.00000000000E+00  0.00000000000E+00  0.33447070445E+04  0.33447070445E+04  0.00000000000E+00 0.  1.
         -2   -1    0    0    0  501 -0.00000000000E+00 -0.00000000000E+00 -0.16970830546E+02  0.16970830546E+02  0.00000000000E+00 0. -1.
          6    1    1    2  502    0 -0.23610459849E+02 -0.12654661545E+03  0.93727560999E+03  0.96158258552E+03  0.17200000000E+03 0. -1.
         -6    1    1    2    0  501  0.23610459849E+02  0.12654661545E+03  0.23904606039E+04  0.24000952895E+04  0.17200000000E+03 0.  1.
</event>
<event>
 4    1  0.4363334E-001  0.2229114E+03  0.7818608E-02  0.1131731E+00
          2   -1    0    0  502    0  0.00000000000E+00  0.00000000000E+00  0.15249634219E+03  0.15249634219E+03  0.00000000000E+00 0.  1.
         -2   -1    0    0    0  501 -0.00000000000E+00 -0.00000000000E+00 -0.36818542627E+03  0.36818542627E+03  0.00000000000E+00 0. -1.
          6    1    1    2  502    0  0.34344658839E+02 -0.13757153075E+03 -0.19554878733E+02  0.22376745730E+03  0.17200000000E+03 0.  1.
         -6    1    1    2    0  501 -0.34344658839E+02  0.13757153075E+03 -0.19613420536E+03  0.29691431116E+03  0.17200000000E+03 0. -1.
</event>
<event>
 4    1  0.4363334E-001  0.2067458E+03  0.7818608E-02  0.1144169E+00
         -2   -1    0    0    0  501 -0.00000000000E+00  0.00000000000E+00  0.10306207876E+03  0.10306207876E+03  0.00000000000E+00 0.  1.
          2   -1    0    0  502    0  0.00000000000E+00 -0.00000000000E+00 -0.68519348911E+03  0.68519348911E+03  0.00000000000E+00 0. -1.
          6    1    1    2  502    0  0.96970975027E+02  0.61289979411E+02 -0.43450229858E+02  0.21126228733E+03  0.17200000000E+03 0.  1.
         -6    1    1    2    0  501 -0.96970975027E+02 -0.61289979411E+02 -0.53868118048E+03  0.57699328053E+03  0.17200000000E+03 0. -1.
</event>
<event>
 4    1  0.4363334E-001  0.1938980E+03  0.7818608E-02  0.1154992E+00
         -1   -1    0    0    0  501 -0.00000000000E+00  0.00000000000E+00  0.66168897785E+03  0.66168897785E+03  0.00000000000E+00 0.  1.
          1   -1    0    0  502    0  0.00000000000E+00 -0.00000000000E+00 -0.85979175450E+02  0.85979175450E+02  0.00000000000E+00 0. -1.
          6    1    1    2  502    0  0.84943331307E+02 -0.28232166332E+02  0.50556482707E+03  0.54147226995E+03  0.17200000000E+03 0.  1.
         -6    1    1    2    0  501 -0.84943331307E+02  0.28232166332E+02  0.70144975334E+02  0.20619588336E+03  0.17200000000E+03 0. -1.
</event>
<event>
 4    1  0.4363334E-001  0.2104177E+03  0.7818608E-02  0.1141236E+00
         -1   -1    0    0    0  501 -0.00000000000E+00  0.00000000000E+00  0.62187569053E+02  0.62187569053E+02  0.00000000000E+00 0. -1.
          1   -1    0    0  502    0  0.00000000000E+00 -0.00000000000E+00 -0.10367796523E+04  0.10367796523E+04  0.00000000000E+00 0.  1.
          6    1    1    2  502    0 -0.72964335038E+02 -0.96787504093E+02 -0.79485381595E+03  0.82223366743E+03  0.17200000000E+03 0.  1.
         -6    1    1    2    0  501  0.72964335038E+02  0.96787504093E+02 -0.17973826732E+03  0.27673355394E+03  0.17200000000E+03 0. -1.
</event>
<event>
 4    1  0.4363334E-001  0.1829974E+03  0.7818608E-02  0.1164933E+00
         -1   -1    0    0    0  501 -0.00000000000E+00  0.00000000000E+00  0.19256276681E+03  0.19256276681E+03  0.00000000000E+00 0. -1.
          1   -1    0    0  502    0  0.00000000000E+00 -0.00000000000E+00 -0.17995248034E+03  0.17995248034E+03  0.00000000000E+00 0.  1.
          6    1    1    2  502    0 -0.19012781410E+02  0.59519492837E+02 -0.27833209581E+02  0.18510198119E+03  0.17200000000E+03 0.  1.
         -6    1    1    2    0  501  0.19012781410E+02 -0.59519492837E+02  0.40443496055E+02  0.18741326596E+03  0.17200000000E+03 0. -1.
</event>
<event>
 4    1  0.4363334E-001  0.2226978E+03  0.7818608E-02  0.1131888E+00
         -2   -1    0    0    0  501 -0.00000000000E+00  0.00000000000E+00  0.66547254592E+02  0.66547254592E+02  0.00000000000E+00 0.  1.
          2   -1    0    0  502    0  0.00000000000E+00 -0.00000000000E+00 -0.83967339029E+03  0.83967339029E+03  0.00000000000E+00 0. -1.
          6    1    1    2  502    0 -0.93900312253E+02 -0.10579727267E+03 -0.23461719816E+03  0.32348038769E+03  0.17200000000E+03 0.  1.
         -6    1    1    2    0  501  0.93900312253E+02  0.10579727267E+03 -0.53850893754E+03  0.58274025719E+03  0.17200000000E+03 0. -1.
</event>
<event>
 4    1  0.4363334E-001  0.1943897E+03  0.7818608E-02  0.1154561E+00
          1   -1    0    0  502    0  0.00000000000E+00  0.00000000000E+00  0.70696315520E+03  0.70696315520E+03  0.00000000000E+00 0.  1.
         -1   -1    0    0    0  501 -0.00000000000E+00 -0.00000000000E+00 -0.20899176681E+03  0.20899176681E+03  0.00000000000E+00 0. -1.
          6    1    1    2  502    0  0.67961305756E+02 -0.59871756745E+02 -0.14611033372E+03  0.24317811570E+03  0.17200000000E+03 0. -1.
         -6    1    1    2    0  501 -0.67961305756E+02  0.59871756745E+02  0.64408172212E+03  0.67277680631E+03  0.17200000000E+03 0.  1.
</event>
<event>
 4    1  0.4363334E-001  0.1730316E+03  0.7818608E-02  0.1174723E+00
          2   -1    0    0  502    0  0.00000000000E+00  0.00000000000E+00  0.14597562320E+03  0.14597562320E+03  0.00000000000E+00 0. -1.
         -2   -1    0    0    0  501 -0.00000000000E+00 -0.00000000000E+00 -0.20563917385E+03  0.20563917385E+03  0.00000000000E+00 0.  1.
          6    1    1    2  502    0 -0.10373949869E+02  0.15757573329E+02 -0.38815676718E+02  0.17733182656E+03  0.17200000000E+03 0.  1.
         -6    1    1    2    0  501  0.10373949869E+02 -0.15757573329E+02 -0.20847873934E+02  0.17428297048E+03  0.17200000000E+03 0. -1.
</event>
<event>
 4    1  0.4363334E-001  0.2140129E+03  0.7818608E-02  0.1138427E+00
          1   -1    0    0  502    0  0.00000000000E+00  0.00000000000E+00  0.32911671077E+03  0.32911671077E+03  0.00000000000E+00 0.  1.
         -1   -1    0    0    0  501 -0.00000000000E+00 -0.00000000000E+00 -0.21215293735E+03  0.21215293735E+03  0.00000000000E+00 0. -1.
          6    1    1    2  502    0  0.79612000270E+02 -0.99395495135E+02  0.21722124760E+03  0.30493705161E+03  0.17200000000E+03 0.  1.
         -6    1    1    2    0  501 -0.79612000270E+02  0.99395495135E+02 -0.10025747418E+03  0.23633259650E+03  0.17200000000E+03 0. -1.
</event>
<event>
 4    1  0.4363334E-001  0.1798523E+03  0.7818608E-02  0.1167946E+00
         -2   -1    0    0    0  501 -0.00000000000E+00  0.00000000000E+00  0.27502319039E+02  0.27502319039E+02  0.00000000000E+00 0. -1.
          2   -1    0    0  502    0  0.00000000000E+00 -0.00000000000E+00 -0.11987535659E+04  0.11987535659E+04  0.00000000000E+00 0.  1.
          6    1    1    2  502    0 -0.81523709010E+01  0.51926707434E+02 -0.66981893289E+03  0.69354469716E+03  0.17200000000E+03 0.  1.
         -6    1    1    2    0  501  0.81523709010E+01 -0.51926707434E+02 -0.50143231400E+03  0.53271118781E+03  0.17200000000E+03 0. -1.
</event>
<event>
 4    1  0.4363334E-001  0.1772456E+03  0.7818608E-02  0.1170496E+00
          2   -1    0    0  502    0  0.00000000000E+00  0.00000000000E+00  0.31780836275E+02  0.31780836275E+02  0.00000000000E+00 0.  1.
         -2   -1    0    0    0  501 -0.00000000000E+00 -0.00000000000E+00 -0.12812634479E+04  0.12812634479E+04  0.00000000000E+00 0. -1.
          6    1    1    2  502    0 -0.40545564720E+02 -0.13714019382E+02 -0.31092668716E+03  0.35789861963E+03  0.17200000000E+03 0.  1.
         -6    1    1    2    0  501  0.40545564720E+02  0.13714019382E+02 -0.93855592447E+03  0.95514566454E+03  0.17200000000E+03 0. -1.
</event>
<event>
 4    1  0.4363334E-001  0.1913971E+03  0.7818608E-02  0.1157207E+00
         -2   -1    0    0    0  501 -0.00000000000E+00  0.00000000000E+00  0.43838910607E+02  0.43838910607E+02  0.00000000000E+00 0. -1.
          2   -1    0    0  502    0  0.00000000000E+00 -0.00000000000E+00 -0.13834140270E+04  0.13834140270E+04  0.00000000000E+00 0.  1.
          6    1    1    2  502    0  0.83460001917E+02  0.91249108246E+01 -0.11188451188E+04  0.11350978970E+04  0.17200000000E+03 0.  1.
         -6    1    1    2    0  501 -0.83460001917E+02 -0.91249108246E+01 -0.22072999762E+03  0.29215504064E+03  0.17200000000E+03 0. -1.
</event>
<event>
 4    1  0.4363334E-001  0.2232508E+03  0.7818608E-02  0.1131482E+00
         -1   -1    0    0    0  501 -0.00000000000E+00  0.00000000000E+00  0.29845427298E+03  0.29845427298E+03  0.00000000000E+00 0. -1.
          1   -1    0    0  502    0  0.00000000000E+00 -0.00000000000E+00 -0.18590387376E+03  0.18590387376E+03  0.00000000000E+00 0.  1.
          6    1    1    2  502    0  0.13873756774E+03 -0.31761397032E+02 -0.20958158404E+02  0.22423234255E+03  0.17200000000E+03 0.  1.
         -6    1    1    2    0  501 -0.13873756774E+03  0.31761397032E+02  0.13350855762E+03  0.26012580418E+03  0.17200000000E+03 0. -1.
</event>
<event>
 4    1  0.4363334E-001  0.1904587E+03  0.7818608E-02  0.1158048E+00
          2   -1    0    0  502    0  0.00000000000E+00  0.00000000000E+00  0.29475269471E+02  0.29475269471E+02  0.00000000000E+00 0.  1.
         -2   -1    0    0    0  501 -0.00000000000E+00 -0.00000000000E+00 -0.13528559779E+04  0.13528559779E+04  0.00000000000E+00 0. -1.
          6    1    1    2  502    0 -0.14348258546E+01  0.81782969544E+02 -0.86939968210E+03  0.89001703358E+03  0.17200000000E+03 0. -1.
         -6    1    1    2    0  501  0.14348258546E+01 -0.81782969544E+02 -0.45398102634E+03  0.49231421380E+03  0.17200000000E+03 0.  1.
</event>
<event>
 4    1  0.4363334E-001  0.1916817E+03  0.7818608E-02  0.1156953E+00
          1   -1    0    0  502    0  0.00000000000E+00  0.00000000000E+00  0.19355888167E+03  0.19355888167E+03  0.00000000000E+00 0. -1.
         -1   -1    0    0    0  501 -0.00000000000E+00 -0.00000000000E+00 -0.19366883876E+03  0.19366883876E+03  0.00000000000E+00 0.  1.
          6    1    1    2  502    0 -0.46050165960E+02  0.70973765741E+02 -0.27339235846E+02  0.19362160785E+03  0.17200000000E+03 0.  1.
         -6    1    1    2    0  501  0.46050165960E+02 -0.70973765741E+02  0.27229278748E+02  0.19360611258E+03  0.17200000000E+03 0.  1.
</event>
<event>
 4    1  0.4363334E-001  0.1756062E+03  0.7818608E-02  0.1172124E+00
          1   -1    0    0  502    0  0.00000000000E+00  0.00000000000E+00  0.13710342796E+03  0.13710342796E+03  0.00000000000E+00 0. -1.
         -1   -1    0    0    0  501 -0.00000000000E+00 -0.00000000000E+00 -0.24849768662E+03  0.24849768662E+03  0.00000000000E+00 0.  1.
          6    1    1    2  502    0  0.30695381708E+02  0.17644862304E+02 -0.11508274637E+03  0.20995615289E+03  0.17200000000E+03 0.  1.
         -6    1    1    2    0  501 -0.30695381708E+02 -0.17644862304E+02  0.36884877210E+01  0.17564496169E+03  0.17200000000E+03 0. -1.
</event>
<event>
 4    1  0.4363334E-001  0.2404146E+03  0.7818608E-02  0.1119517E+00
          2   -1    0    0  502    0  0.00000000000E+00  0.00000000000E+00  0.17702319106E+04  0.17702319106E+04  0.00000000000E+00 0.  1.
         -2   -1    0    0    0  501 -0.00000000000E+00 -0.00000000000E+00 -0.61451859662E+02  0.61451859662E+02  0.00000000000E+00 0. -1.
          6    1    1    2  502    0  0.16792538540E+03  0.40316636275E+01  0.14813769619E+04  0.15007587723E+04  0.17200000000E+03 0.  1.
         -6    1    1    2    0  501 -0.16792538540E+03 -0.40316636275E+01  0.22740308902E+03  0.33092499795E+03  0.17200000000E+03 0.  1.
</event>
<event>
 4    1  0.4363334E-001  0.1786499E+03  0.7818608E-02  0.1169116E+00
         -3   -1    0    0    0  501 -0.00000000000E+00  0.00000000000E+00  0.48605745448E+03  0.48605745448E+03  0.00000000000E+00 0. -1.
          3   -1    0    0  502    0  0.00000000000E+00 -0.00000000000E+00 -0.70406803221E+02  0.70406803221E+02  0.00000000000E+00 0.  1.
          6    1    1    2  502    0  0.16246919698E+02 -0.45473311484E+02  0.13560112986E+03  0.22428430814E+03  0.17200000000E+03 0.  1.
         -6    1    1    2    0  501 -0.16246919698E+02  0.45473311484E+02  0.28004952140E+03  0.33217994956E+03  0.17200000000E+03 0. -1.
</event>
<event>
 4    1  0.4363334E-001  0.2330945E+03  0.7818608E-02  0.1124480E+00
          1   -1    0    0  502    0  0.00000000000E+00  0.00000000000E+00  0.41966554997E+03  0.41966554997E+03  0.00000000000E+00 0.  1.
         -1   -1    0    0    0  501 -0.00000000000E+00 -0.00000000000E+00 -0.13954038216E+03  0.13954038216E+03  0.00000000000E+00 0. -1.
          6    1    1    2  502    0  0.88677681920E+02  0.12994358149E+03  0.21518471028E+03  0.31723418035E+03  0.17200000000E+03 0.  1.
         -6    1    1    2    0  501 -0.88677681920E+02 -0.12994358149E+03  0.64940457525E+02  0.24197175179E+03  0.17200000000E+03 0. -1.
</event>
<event>
 4    1  0.4363334E-001  0.3090301E+03  0.7818608E-02  0.1080812E+00
          2   -1    0    0  502    0  0.00000000000E+00  0.00000000000E+00  0.83067526510E+03  0.83067526510E+03  0.00000000000E+00 0.  1.
         -2   -1    0    0    0  501 -0.00000000000E+00 -0.00000000000E+00 -0.12158875440E+03  0.12158875440E+03  0.00000000000E+00 0. -1.
          6    1    1    2  502    0 -0.24668666267E+03  0.71142954128E+02  0.24342345900E+03  0.39338862446E+03  0.17200000000E+03 0. -1.
         -6    1    1    2    0  501  0.24668666267E+03 -0.71142954128E+02  0.46566305170E+03  0.55887539504E+03  0.17200000000E+03 0.  1.
</event>
<event>
 4    1  0.4363334E-001  0.2852600E+03  0.7818608E-02  0.1092850E+00
         -1   -1    0    0    0  501 -0.00000000000E+00  0.00000000000E+00  0.10483314178E+03  0.10483314178E+03  0.00000000000E+00 0. -1.
          1   -1    0    0  502    0  0.00000000000E+00 -0.00000000000E+00 -0.79824769534E+03  0.79824769534E+03  0.00000000000E+00 0.  1.
          6    1    1    2  502    0  0.65663375204E+02 -0.21789353937E+03 -0.42172109696E+03  0.50913844578E+03  0.17200000000E+03 0.  1.
         -6    1    1    2    0  501 -0.65663375204E+02  0.21789353937E+03 -0.27169345659E+03  0.39394239134E+03  0.17200000000E+03 0. -1.
</event>
<event>
 4    1  0.4363334E-001  0.1790549E+03  0.7818608E-02  0.1168721E+00
          1   -1    0    0  502    0  0.00000000000E+00  0.00000000000E+00  0.91111941239E+02  0.91111941239E+02  0.00000000000E+00 0. -1.
         -1   -1    0    0    0  501 -0.00000000000E+00 -0.00000000000E+00 -0.52062940453E+03  0.52062940453E+03  0.00000000000E+00 0.  1.
          6    1    1    2  502    0 -0.46394665326E+02  0.18005633067E+02 -0.40621425654E+02  0.18360492372E+03  0.17200000000E+03 0. -1.
         -6    1    1    2    0  501  0.46394665326E+02 -0.18005633067E+02 -0.38889603764E+03  0.42813642205E+03  0.17200000000E+03 0.  1.
</event>
<event>
 4    1  0.4363334E-001  0.1851670E+03  0.7818608E-02  0.1162894E+00
          1   -1    0    0  502    0  0.00000000000E+00  0.00000000000E+00  0.17618966643E+04  0.17618966643E+04  0.00000000000E+00 0. -1.
         -1   -1    0    0    0  501 -0.00000000000E+00 -0.00000000000E+00 -0.44313035567E+02  0.44313035567E+02  0.00000000000E+00 0.  1.
          6    1    1    2  502    0  0.64412238232E+02 -0.23534551882E+02  0.18245871119E+03  0.25995767513E+03  0.17200000000E+03 0.  1.
         -6    1    1    2    0  501 -0.64412238232E+02  0.23534551882E+02  0.15351249175E+04  0.15462520247E+04  0.17200000000E+03 0. -1.
</event>
<event>
 4    1  0.4363334E-001  0.1770680E+03  0.7818608E-02  0.1170671E+00
         -1   -1    0    0    0  501 -0.00000000000E+00  0.00000000000E+00  0.93269994938E+02  0.93269994938E+02  0.00000000000E+00 0.  1.
          1   -1    0    0  502    0  0.00000000000E+00 -0.00000000000E+00 -0.57058519798E+03  0.57058519798E+03  0.00000000000E+00 0. -1.
          6    1    1    2  502    0  0.28655409903E+02  0.30788778297E+02 -0.25897191333E+02  0.17895179771E+03  0.17200000000E+03 0.  1.
         -6    1    1    2    0  501 -0.28655409903E+02 -0.30788778297E+02 -0.45141801171E+03  0.48490339521E+03  0.17200000000E+03 0. -1.
</event>
<event>
 4    1  0.4363334E-001  0.1786414E+03  0.7818608E-02  0.1169124E+00
         -2   -1    0    0    0  501 -0.00000000000E+00  0.00000000000E+00  0.77755349056E+02  0.77755349056E+02  0.00000000000E+00 0.  1.
          2   -1    0    0  502    0  0.00000000000E+00 -0.00000000000E+00 -0.41853702600E+03  0.41853702600E+03  0.00000000000E+00 0. -1.
          6    1    1    2  502    0 -0.19417168748E+02 -0.44178111349E+02 -0.20493763651E+03  0.27186792165E+03  0.17200000000E+03 0. -1.
         -6    1    1    2    0  501  0.19417168748E+02  0.44178111349E+02 -0.13584404043E+03  0.22442445340E+03  0.17200000000E+03 0. -1.
</event>
<event>
 4    1  0.4363334E-001  0.2274456E+03  0.7818608E-02  0.1128451E+00
          2   -1    0    0  502    0  0.00000000000E+00  0.00000000000E+00  0.12203558039E+04  0.12203558039E+04  0.00000000000E+00 0. -1.
         -2   -1    0    0    0  501 -0.00000000000E+00 -0.00000000000E+00 -0.52198262328E+02  0.52198262328E+02  0.00000000000E+00 0.  1.
          6    1    1    2  502    0  0.68990097982E+02  0.13186312536E+03  0.30827338530E+03  0.38309789549E+03  0.17200000000E+03 0.  1.
         -6    1    1    2    0  501 -0.68990097982E+02 -0.13186312536E+03  0.85988415631E+03  0.88945617077E+03  0.17200000000E+03 0. -1.
</event>
<event>
 4    1  0.4363334E-001  0.1897111E+03  0.7818608E-02  0.1158722E+00
          1   -1    0    0  502    0  0.00000000000E+00  0.00000000000E+00  0.16343821541E+03  0.16343821541E+03  0.00000000000E+00 0. -1.
         -1   -1    0    0    0  501 -0.00000000000E+00 -0.00000000000E+00 -0.22069204004E+03  0.22069204004E+03  0.00000000000E+00 0.  1.
          6    1    1    2  502    0 -0.21608833738E+02 -0.77067140970E+02 -0.19625395144E+02  0.19072347010E+03  0.17200000000E+03 0. -1.
         -6    1    1    2    0  501  0.21608833738E+02  0.77067140970E+02 -0.37628429481E+02  0.19340678535E+03  0.17200000000E+03 0. -1.
</event>
<event>
 4    1  0.4363334E-001  0.2272638E+03  0.7818608E-02  0.1128581E+00
         -4   -1    0    0    0  501 -0.00000000000E+00  0.00000000000E+00  0.26973354327E+03  0.26973354327E+03  0.00000000000E+00 0.  1.
          4   -1    0    0  502    0  0.00000000000E+00 -0.00000000000E+00 -0.25853114386E+03  0.25853114386E+03  0.00000000000E+00 0. -1.
          6    1    1    2  502    0 -0.81483416117E+02  0.12419857048E+03  0.14011449343E+03  0.26698483717E+03  0.17200000000E+03 0.  1.
         -6    1    1    2    0  501  0.81483416117E+02 -0.12419857048E+03 -0.12891209401E+03  0.26127984996E+03  0.17200000000E+03 0.  1.
</event>
<event>
 4    1  0.4363334E-001  0.1771111E+03  0.7818608E-02  0.1170629E+00
          2   -1    0    0  502    0  0.00000000000E+00  0.00000000000E+00  0.18840040603E+02  0.18840040603E+02  0.00000000000E+00 0. -1.
         -2   -1    0    0    0  501 -0.00000000000E+00 -0.00000000000E+00 -0.17591755332E+04  0.17591755332E+04  0.00000000000E+00 0.  1.
          6    1    1    2  502    0 -0.35950795467E+02  0.22178811538E+02 -0.10758788530E+04  0.10903594204E+04  0.17200000000E+03 0. -1.
         -6    1    1    2    0  501  0.35950795467E+02 -0.22178811538E+02 -0.66445663966E+03  0.68765615344E+03  0.17200000000E+03 0. -1.
</event>
<event>
 4    1  0.4363334E-001  0.2098131E+03  0.7818608E-02  0.1141714E+00
         -1   -1    0    0    0  501 -0.00000000000E+00  0.00000000000E+00  0.28504211963E+03  0.28504211963E+03  0.00000000000E+00 0.  1.
          1   -1    0    0  502    0  0.00000000000E+00 -0.00000000000E+00 -0.17257443854E+03  0.17257443854E+03  0.00000000000E+00 0. -1.
          6    1    1    2  502    0 -0.60791433952E+02  0.10364334718E+03  0.13040768853E+03  0.24703786569E+03  0.17200000000E+03 0. -1.
         -6    1    1    2    0  501  0.60791433952E+02 -0.10364334718E+03 -0.17940007446E+02  0.21057869247E+03  0.17200000000E+03 0.  1.
</event>
<event>
 4    1  0.4363334E-001  0.1859498E+03  0.7818608E-02  0.1162166E+00
          1   -1    0    0  502    0  0.00000000000E+00  0.00000000000E+00  0.15909994795E+03  0.15909994795E+03  0.00000000000E+00 0.  1.
         -1   -1    0    0    0  501 -0.00000000000E+00 -0.00000000000E+00 -0.24003341474E+03  0.24003341474E+03  0.00000000000E+00 0. -1.
          6    1    1    2  502    0  0.55172175307E+02  0.44151528959E+02  0.20908007848E+02  0.18712154133E+03  0.17200000000E+03 0.  1.
         -6    1    1    2    0  501 -0.55172175307E+02 -0.44151528959E+02 -0.10184147465E+03  0.21201182136E+03  0.17200000000E+03 0. -1.
</event>
<event>
 4    1  0.4363334E-001  0.2084896E+03  0.7818608E-02  0.1142768E+00
          4   -1    0    0  502    0  0.00000000000E+00  0.00000000000E+00  0.20466394657E+04  0.20466394657E+04  0.00000000000E+00 0. -1.
         -4   -1    0    0    0  501 -0.00000000000E+00 -0.00000000000E+00 -0.27035801159E+02  0.27035801159E+02  0.00000000000E+00 0.  1.
          6    1    1    2  502    0 -0.76558387914E+02  0.89569617923E+02  0.52968421883E+03  0.56923920709E+03  0.17200000000E+03 0.  1.
         -6    1    1    2    0  501  0.76558387914E+02 -0.89569617923E+02  0.14899194457E+04  0.15044360597E+04  0.17200000000E+03 0. -1.
</event>
<event>
 4    1  0.4363334E-001  0.2625747E+03  0.7818608E-02  0.1105606E+00
          2   -1    0    0  502    0  0.00000000000E+00  0.00000000000E+00  0.26595886944E+04  0.26595886944E+04  0.00000000000E+00 0.  1.
         -2   -1    0    0    0  501 -0.00000000000E+00 -0.00000000000E+00 -0.47844777640E+02  0.47844777640E+02  0.00000000000E+00 0. -1.
          6    1    1    2  502    0  0.12852599479E+03  0.15113750588E+03  0.38955686742E+03  0.46978721777E+03  0.17200000000E+03 0. -1.
         -6    1    1    2    0  501 -0.12852599479E+03 -0.15113750588E+03  0.22221870493E+04  0.22376462543E+04  0.17200000000E+03 0.  1.
</event>
<event>
 4    1  0.4363334E-001  0.2389745E+03  0.7818608E-02  0.1120478E+00
         -2   -1    0    0    0  501 -0.00000000000E+00  0.00000000000E+00  0.10612019179E+03  0.10612019179E+03  0.00000000000E+00 0. -1.
          2   -1    0    0  502    0  0.00000000000E+00 -0.00000000000E+00 -0.87798350349E+03  0.87798350349E+03  0.00000000000E+00 0.  1.
          6    1    1    2  502    0  0.36282007450E+02  0.16189019614E+03 -0.69205704450E+03  0.73215556578E+03  0.17200000000E+03 0.  1.
         -6    1    1    2    0  501 -0.36282007450E+02 -0.16189019614E+03 -0.79806267200E+02  0.25194812950E+03  0.17200000000E+03 0.  1.
</event>
<event>
 4    1  0.4363334E-001  0.1919513E+03  0.7818608E-02  0.1156713E+00
         -2   -1    0    0    0  501 -0.00000000000E+00  0.00000000000E+00  0.23512998202E+03  0.23512998202E+03  0.00000000000E+00 0. -1.
          2   -1    0    0  502    0  0.00000000000E+00 -0.00000000000E+00 -0.15735458336E+03  0.15735458336E+03  0.00000000000E+00 0.  1.
          6    1    1    2  502    0 -0.80300708476E+02  0.28514657972E+02  0.51527497383E+02  0.19874700624E+03  0.17200000000E+03 0. -1.
         -6    1    1    2    0  501  0.80300708476E+02 -0.28514657972E+02  0.26247901280E+02  0.19373755914E+03  0.17200000000E+03 0. -1.
</event>
<event>
 4    1  0.4363334E-001  0.1947118E+03  0.7818608E-02  0.1154279E+00
         -2   -1    0    0    0  501 -0.00000000000E+00  0.00000000000E+00  0.42677599041E+03  0.42677599041E+03  0.00000000000E+00 0. -1.
          2   -1    0    0  502    0  0.00000000000E+00 -0.00000000000E+00 -0.11301382935E+03  0.11301382935E+03  0.00000000000E+00 0.  1.
          6    1    1    2  502    0 -0.45315555881E+02 -0.79216066817E+02  0.28171876293E+03  0.34245897014E+03  0.17200000000E+03 0. -1.
         -6    1    1    2    0  501  0.45315555881E+02  0.79216066817E+02  0.32043398128E+02  0.19733084962E+03  0.17200000000E+03 0.  1.
</event>
<event>
 4    1  0.4363334E-001  0.2068410E+03  0.7818608E-02  0.1144092E+00
          2   -1    0    0  502    0  0.00000000000E+00  0.00000000000E+00  0.18016801097E+04  0.18016801097E+04  0.00000000000E+00 0. -1.
         -2   -1    0    0    0  501 -0.00000000000E+00 -0.00000000000E+00 -0.49214480546E+02  0.49214480546E+02  0.00000000000E+00 0.  1.
          6    1    1    2  502    0  0.11396825204E+03  0.14506535975E+02  0.21049326156E+03  0.29511119129E+03  0.17200000000E+03 0.  1.
         -6    1    1    2    0  501 -0.11396825204E+03 -0.14506535975E+02  0.15419723676E+04  0.15557833990E+04  0.17200000000E+03 0. -1.
</event>
<event>
 4    1  0.4363334E-001  0.2746541E+03  0.7818608E-02  0.1098645E+00
         -1   -1    0    0    0  501 -0.00000000000E+00  0.00000000000E+00  0.86695613436E+02  0.86695613436E+02  0.00000000000E+00 0.  1.
          1   -1    0    0  502    0  0.00000000000E+00 -0.00000000000E+00 -0.91388222488E+03  0.91388222488E+03  0.00000000000E+00 0. -1.
          6    1    1    2  502    0  0.21153483985E+03  0.33225183863E+02 -0.52308085032E+03  0.59080324753E+03  0.17200000000E+03 0. -1.
         -6    1    1    2    0  501 -0.21153483985E+03 -0.33225183863E+02 -0.30410576112E+03  0.40977459079E+03  0.17200000000E+03 0.  1.
</event>
<event>
 4    1  0.4363334E-001  0.1781919E+03  0.7818608E-02  0.1169565E+00
         -1   -1    0    0    0  501 -0.00000000000E+00  0.00000000000E+00  0.24172242632E+03  0.24172242632E+03  0.00000000000E+00 0. -1.
          1   -1    0    0  502    0  0.00000000000E+00 -0.00000000000E+00 -0.15445773919E+03  0.15445773919E+03  0.00000000000E+00 0.  1.
          6    1    1    2  502    0 -0.18169365791E+02  0.42874403474E+02  0.12023696750E+03  0.21496341242E+03  0.17200000000E+03 0. -1.
         -6    1    1    2    0  501  0.18169365791E+02 -0.42874403474E+02 -0.32972280375E+02  0.18121675309E+03  0.17200000000E+03 0. -1.
</event>
<event>
 4    1  0.4363334E-001  0.1940560E+03  0.7818608E-02  0.1154853E+00
         -1   -1    0    0    0  501 -0.00000000000E+00  0.00000000000E+00  0.67055841547E+02  0.67055841547E+02  0.00000000000E+00 0. -1.
          1   -1    0    0  502    0  0.00000000000E+00 -0.00000000000E+00 -0.60422825820E+03  0.60422825820E+03  0.00000000000E+00 0.  1.
          6    1    1    2  502    0  0.11512384514E+02  0.89113416543E+02 -0.35774974279E+03  0.40699215530E+03  0.17200000000E+03 0.  1.
         -6    1    1    2    0  501 -0.11512384514E+02 -0.89113416543E+02 -0.17942267386E+03  0.26429194445E+03  0.17200000000E+03 0. -1.
</event>
<event>
 4    1  0.4363334E-001  0.2628576E+03  0.7818608E-02  0.1105438E+00
          2   -1    0    0  502    0  0.00000000000E+00  0.00000000000E+00  0.19517192619E+04  0.19517192619E+04  0.00000000000E+00 0.  1.
         -2   -1    0    0    0  501 -0.00000000000E+00 -0.00000000000E+00 -0.37986311878E+02  0.37986311878E+02  0.00000000000E+00 0. -1.
          6    1    1    2  502    0  0.10772170473E+03  0.16705137868E+03  0.69736183978E+03  0.74525677748E+03  0.17200000000E+03 0. -1.
         -6    1    1    2    0  501 -0.10772170473E+03 -0.16705137868E+03  0.12163711103E+04  0.12444487963E+04  0.17200000000E+03 0.  1.
</event>
<event>
 4    1  0.4363334E-001  0.2174039E+03  0.7818608E-02  0.1135833E+00
         -2   -1    0    0    0  501 -0.00000000000E+00  0.00000000000E+00  0.33642867871E+02  0.33642867871E+02  0.00000000000E+00 0. -1.
          2   -1    0    0  502    0  0.00000000000E+00 -0.00000000000E+00 -0.16760090650E+04  0.16760090650E+04  0.00000000000E+00 0.  1.
          6    1    1    2  502    0 -0.10043859176E+03  0.87135166331E+02 -0.11649954502E+04  0.11851071036E+04  0.17200000000E+03 0.  1.
         -6    1    1    2    0  501  0.10043859176E+03 -0.87135166331E+02 -0.47737074688E+03  0.52454482926E+03  0.17200000000E+03 0. -1.
</event>
<event>
 4    1  0.4363334E-001  0.1889096E+03  0.7818608E-02  0.1159448E+00
          2   -1    0    0  502    0  0.00000000000E+00  0.00000000000E+00  0.12980878231E+04  0.12980878231E+04  0.00000000000E+00 0.  1.
         -2   -1    0    0    0  501 -0.00000000000E+00 -0.00000000000E+00 -0.33848861199E+02  0.33848861199E+02  0.00000000000E+00 0. -1.
          6    1    1    2  502    0  0.18556850581E+02 -0.75884641202E+02  0.34351169143E+03  0.39202948566E+03  0.17200000000E+03 0. -1.
         -6    1    1    2    0  501 -0.18556850581E+02  0.75884641202E+02  0.92072727043E+03  0.93990719861E+03  0.17200000000E+03 0.  1.
</event>
<event>
 4    1  0.4363334E-001  0.1879288E+03  0.7818608E-02  0.1160343E+00
         -1   -1    0    0    0  501 -0.00000000000E+00  0.00000000000E+00  0.32268052877E+03  0.32268052877E+03  0.00000000000E+00 0. -1.
          1   -1    0    0  502    0  0.00000000000E+00 -0.00000000000E+00 -0.11589955052E+03  0.11589955052E+03  0.00000000000E+00 0.  1.
          6    1    1    2  502    0  0.70330525151E+02  0.28051044282E+02  0.51658716011E+02  0.19489963261E+03  0.17200000000E+03 0.  1.
         -6    1    1    2    0  501 -0.70330525151E+02 -0.28051044282E+02  0.15512226223E+03  0.24368044668E+03  0.17200000000E+03 0. -1.
</event>
<event>
 4    1  0.4363334E-001  0.6825728E+03  0.7818608E-02  0.9747508E-01
          2   -1    0    0  502    0  0.00000000000E+00  0.00000000000E+00  0.74090197976E+03  0.74090197976E+03  0.00000000000E+00 0. -1.
         -2   -1    0    0    0  501 -0.00000000000E+00 -0.00000000000E+00 -0.11087615728E+04  0.11087615728E+04  0.00000000000E+00 0.  1.
          6    1    1    2  502    0 -0.45455283403E+02  0.65898066086E+03  0.42452832695E+03  0.80382211624E+03  0.17200000000E+03 0. -1.
         -6    1    1    2    0  501  0.45455283403E+02 -0.65898066086E+03 -0.79238791995E+03  0.10458414363E+04  0.17200000000E+03 0.  1.
</event>
<event>
 4    1  0.4363334E-001  0.1956235E+03  0.7818608E-02  0.1153485E+00
         -2   -1    0    0    0  501 -0.00000000000E+00  0.00000000000E+00  0.69852823625E+03  0.69852823625E+03  0.00000000000E+00 0.  1.
          2   -1    0    0  502    0  0.00000000000E+00 -0.00000000000E+00 -0.69271855906E+02  0.69271855906E+02  0.00000000000E+00 0. -1.
          6    1    1    2  502    0  0.73325731912E+01 -0.92901999886E+02  0.49019148202E+03  0.52778427151E+03  0.17200000000E+03 0.  1.
         -6    1    1    2    0  501 -0.73325731912E+01  0.92901999886E+02  0.13906489832E+03  0.24001582064E+03  0.17200000000E+03 0. -1.
</event>
<event>
 4    1  0.4363334E-001  0.1976007E+03  0.7818608E-02  0.1151779E+00
          4   -1    0    0  502    0  0.00000000000E+00  0.00000000000E+00  0.50929597263E+02  0.50929597263E+02  0.00000000000E+00 0.  1.
         -4   -1    0    0    0  501 -0.00000000000E+00 -0.00000000000E+00 -0.81693266743E+03  0.81693266743E+03  0.00000000000E+00 0. -1.
          6    1    1    2  502    0 -0.92155396686E+02  0.31135635837E+02 -0.27536415572E+03  0.33892692902E+03  0.17200000000E+03 0. -1.
         -6    1    1    2    0  501  0.92155396686E+02 -0.31135635837E+02 -0.49063891445E+03  0.52893533567E+03  0.17200000000E+03 0.  1.
</event>
<event>
 4    1  0.4363334E-001  0.2790211E+03  0.7818608E-02  0.1096225E+00
          2   -1    0    0  502    0  0.00000000000E+00  0.00000000000E+00  0.64217518916E+03  0.64217518916E+03  0.00000000000E+00 0.  1.
         -2   -1    0    0    0  501 -0.00000000000E+00 -0.00000000000E+00 -0.12156659710E+03  0.12156659710E+03  0.00000000000E+00 0. -1.
          6    1    1    2  502    0  0.19444055083E+03 -0.10228205511E+03  0.28031211325E+03  0.39550932662E+03  0.17200000000E+03 0. -1.
         -6    1    1    2    0  501 -0.19444055083E+03  0.10228205511E+03  0.24029647881E+03  0.36823245964E+03  0.17200000000E+03 0. -1.
</event>
<event>
 4    1  0.4363334E-001  0.4872818E+03  0.7818608E-02  0.1017153E+00
          2   -1    0    0  502    0  0.00000000000E+00  0.00000000000E+00  0.65581613351E+03  0.65581613351E+03  0.00000000000E+00 0.  1.
         -2   -1    0    0    0  501 -0.00000000000E+00 -0.00000000000E+00 -0.37862376263E+03  0.37862376263E+03  0.00000000000E+00 0. -1.
          6    1    1    2  502    0  0.30323936729E+03 -0.34044885161E+03  0.24678339395E+03  0.54621019578E+03  0.17200000000E+03 0.  1.
         -6    1    1    2    0  501 -0.30323936729E+03  0.34044885161E+03  0.30408976929E+02  0.48822970036E+03  0.17200000000E+03 0. -1.
</event>
<event>
 4    1  0.4363334E-001  0.2171659E+03  0.7818608E-02  0.1136014E+00
          1   -1    0    0  502    0  0.00000000000E+00  0.00000000000E+00  0.12731726553E+04  0.12731726553E+04  0.00000000000E+00 0. -1.
         -1   -1    0    0    0  501 -0.00000000000E+00 -0.00000000000E+00 -0.43785511873E+02  0.43785511873E+02  0.00000000000E+00 0.  1.
          6    1    1    2  502    0  0.13226465953E+03 -0.91154000856E+01  0.87310728276E+03  0.89970959642E+03  0.17200000000E+03 0. -1.
         -6    1    1    2    0  501 -0.13226465953E+03  0.91154000856E+01  0.35627986067E+03  0.41724857076E+03  0.17200000000E+03 0.  1.
</event>
<event>
 4    1  0.4363334E-001  0.2459037E+03  0.7818608E-02  0.1115921E+00
         -3   -1    0    0    0  501 -0.00000000000E+00  0.00000000000E+00  0.45144784375E+03  0.45144784375E+03  0.00000000000E+00 0. -1.
          3   -1    0    0  502    0  0.00000000000E+00 -0.00000000000E+00 -0.13435358855E+03  0.13435358855E+03  0.00000000000E+00 0.  1.
          6    1    1    2  502    0 -0.47671842080E+02 -0.16915091690E+03  0.17472340617E+03  0.30165693408E+03  0.17200000000E+03 0.  1.
         -6    1    1    2    0  501  0.47671842080E+02  0.16915091690E+03  0.14237084903E+03  0.28414449822E+03  0.17200000000E+03 0.  1.
</event>
<event>
 4    1  0.4363334E-001  0.1995632E+03  0.7818608E-02  0.1150108E+00
          1   -1    0    0  502    0  0.00000000000E+00  0.00000000000E+00  0.19844800973E+04  0.19844800973E+04  0.00000000000E+00 0. -1.
         -1   -1    0    0    0  501 -0.00000000000E+00 -0.00000000000E+00 -0.22819027895E+02  0.22819027895E+02  0.00000000000E+00 0.  1.
          6    1    1    2  502    0 -0.98569394248E+02 -0.22924871367E+02  0.63237763092E+03  0.66311910190E+03  0.17200000000E+03 0.  1.
         -6    1    1    2    0  501  0.98569394248E+02  0.22924871367E+02  0.13292834385E+04  0.13441800233E+04  0.17200000000E+03 0.  1.
</event>
<event>
 4    1  0.4363334E-001  0.1754594E+03  0.7818608E-02  0.1172271E+00
          1   -1    0    0  502    0  0.00000000000E+00  0.00000000000E+00  0.20322909389E+04  0.20322909389E+04  0.00000000000E+00 0. -1.
         -1   -1    0    0    0  501 -0.00000000000E+00 -0.00000000000E+00 -0.43091135305E+02  0.43091135305E+02  0.00000000000E+00 0.  1.
          6    1    1    2  502    0 -0.66802520803E+00  0.34663702848E+02  0.18302189222E+04  0.18386101603E+04  0.17200000000E+03 0. -1.
         -6    1    1    2    0  501  0.66802520803E+00 -0.34663702848E+02  0.15898088146E+03  0.23677191392E+03  0.17200000000E+03 0.  1.
</event>
<event>
 4    1  0.4363334E-001  0.2409675E+03  0.7818608E-02  0.1119150E+00
         -2   -1    0    0    0  501 -0.00000000000E+00  0.00000000000E+00  0.11356876449E+03  0.11356876449E+03  0.00000000000E+00 0.  1.
          2   -1    0    0  502    0  0.00000000000E+00 -0.00000000000E+00 -0.55628154568E+03  0.55628154568E+03  0.00000000000E+00 0. -1.
          6    1    1    2  502    0  0.13390389322E+03 -0.10271850974E+03 -0.12609473842E+03  0.27196549031E+03  0.17200000000E+03 0. -1.
         -6    1    1    2    0  501 -0.13390389322E+03  0.10271850974E+03 -0.31661804277E+03  0.39788481985E+03  0.17200000000E+03 0.  1.
</event>
<event>
 4    1  0.4363334E-001  0.2516684E+03  0.7818608E-02  0.1112255E+00
         -2   -1    0    0    0  501 -0.00000000000E+00  0.00000000000E+00  0.41777956436E+03  0.41777956436E+03  0.00000000000E+00 0. -1.
          2   -1    0    0  502    0  0.00000000000E+00 -0.00000000000E+00 -0.24687985463E+03  0.24687985463E+03  0.00000000000E+00 0.  1.
          6    1    1    2  502    0 -0.16249114017E+03 -0.85729850579E+02  0.29190141921E+03  0.38541330601E+03  0.17200000000E+03 0. -1.
         -6    1    1    2    0  501  0.16249114017E+03  0.85729850579E+02 -0.12100170949E+03  0.27924611298E+03  0.17200000000E+03 0.  1.
</event>
<event>
 4    1  0.4363334E-001  0.1754801E+03  0.7818608E-02  0.1172251E+00
         -1   -1    0    0    0  501 -0.00000000000E+00  0.00000000000E+00  0.83188422613E+03  0.83188422613E+03  0.00000000000E+00 0.  1.
          1   -1    0    0  502    0  0.00000000000E+00 -0.00000000000E+00 -0.37972439054E+02  0.37972439054E+02  0.00000000000E+00 0. -1.
          6    1    1    2  502    0  0.77532592581E+01  0.33899021226E+02  0.46597181342E+03  0.49791865557E+03  0.17200000000E+03 0.  1.
         -6    1    1    2    0  501 -0.77532592581E+01 -0.33899021226E+02  0.32793997366E+03  0.37193800961E+03  0.17200000000E+03 0. -1.
</event>
<event>
 4    1  0.4363334E-001  0.1896300E+03  0.7818608E-02  0.1158795E+00
          1   -1    0    0  502    0  0.00000000000E+00  0.00000000000E+00  0.11105769784E+04  0.11105769784E+04  0.00000000000E+00 0.  1.
         -1   -1    0    0    0  501 -0.00000000000E+00 -0.00000000000E+00 -0.49304984199E+02  0.49304984199E+02  0.00000000000E+00 0. -1.
          6    1    1    2  502    0  0.36724721008E+02  0.70900140559E+02  0.87042824673E+03  0.89084503017E+03  0.17200000000E+03 0.  1.
         -6    1    1    2    0  501 -0.36724721008E+02 -0.70900140559E+02  0.19084374747E+03  0.26903693243E+03  0.17200000000E+03 0. -1.
</event>
<event>
 4    1  0.4363334E-001  0.1741062E+03  0.7818608E-02  0.1173632E+00
         -2   -1    0    0    0  501 -0.00000000000E+00  0.00000000000E+00  0.19456495716E+03  0.19456495716E+03  0.00000000000E+00 0.  1.
          2   -1    0    0  502    0  0.00000000000E+00 -0.00000000000E+00 -0.15885470574E+03  0.15885470574E+03  0.00000000000E+00 0. -1.
          6    1    1    2  502    0  0.14088228895E+02 -0.23032339128E+02 -0.66545719701E+01  0.17423332106E+03  0.17200000000E+03 0. -1.
         -6    1    1    2    0  501 -0.14088228895E+02  0.23032339128E+02  0.42364823391E+02  0.17918634183E+03  0.17200000000E+03 0.  1.
</event>
<event>
 4    1  0.4363334E-001  0.1816866E+03  0.7818608E-02  0.1166181E+00
         -2   -1    0    0    0  501 -0.00000000000E+00  0.00000000000E+00  0.14542265598E+02  0.14542265598E+02  0.00000000000E+00 0.  1.
          2   -1    0    0  502    0  0.00000000000E+00 -0.00000000000E+00 -0.26134537426E+04  0.26134537426E+04  0.00000000000E+00 0. -1.
          6    1    1    2  502    0  0.49269754378E+02 -0.31599408688E+02 -0.17758440005E+04  0.17851139866E+04  0.17200000000E+03 0. -1.
         -6    1    1    2    0  501 -0.49269754378E+02  0.31599408688E+02 -0.82306747651E+03  0.84288202153E+03  0.17200000000E+03 0.  1.
</event>
<event>
 4    1  0.4363334E-001  0.1787577E+03  0.7818608E-02  0.1169011E+00
         -2   -1    0    0    0  501 -0.00000000000E+00  0.00000000000E+00  0.81122597948E+02  0.81122597948E+02  0.00000000000E+00 0.  1.
          2   -1    0    0  502    0  0.00000000000E+00 -0.00000000000E+00 -0.39409108792E+03  0.39409108792E+03  0.00000000000E+00 0. -1.
          6    1    1    2  502    0  0.18905093856E+02 -0.44865379783E+02 -0.15127132747E+03  0.23417369491E+03  0.17200000000E+03 0.  1.
         -6    1    1    2    0  501 -0.18905093856E+02  0.44865379783E+02 -0.16169716251E+03  0.24103999096E+03  0.17200000000E+03 0. -1.
</event>
<event>
 4    1  0.4363334E-001  0.1851847E+03  0.7818608E-02  0.1162878E+00
         -2   -1    0    0    0  501 -0.00000000000E+00  0.00000000000E+00  0.35755366470E+02  0.35755366470E+02  0.00000000000E+00 0. -1.
          2   -1    0    0  502    0  0.00000000000E+00 -0.00000000000E+00 -0.17400050804E+04  0.17400050804E+04  0.00000000000E+00 0.  1.
          6    1    1    2  502    0  0.68424136046E+02 -0.52439205113E+01 -0.25731901897E+03  0.31702750452E+03  0.17200000000E+03 0. -1.
         -6    1    1    2    0  501 -0.68424136046E+02  0.52439205113E+01 -0.14469306950E+04  0.14587329424E+04  0.17200000000E+03 0.  1.
</event>
<event>
 4    1  0.4363334E-001  0.2181184E+03  0.7818608E-02  0.1135294E+00
          2   -1    0    0  502    0  0.00000000000E+00  0.00000000000E+00  0.32630829312E+03  0.32630829312E+03  0.00000000000E+00 0.  1.
         -2   -1    0    0    0  501 -0.00000000000E+00 -0.00000000000E+00 -0.17928281791E+03  0.17928281791E+03  0.00000000000E+00 0. -1.
          6    1    1    2  502    0 -0.11997984014E+03  0.59970719111E+02  0.18276063477E+03  0.28456475328E+03  0.17200000000E+03 0.  1.
         -6    1    1    2    0  501  0.11997984014E+03 -0.59970719111E+02 -0.35735159565E+02  0.22102635775E+03  0.17200000000E+03 0. -1.
</event>
<event>
 4    1  0.4363334E-001  0.2385304E+03  0.7818608E-02  0.1120776E+00
          2   -1    0    0  502    0  0.00000000000E+00  0.00000000000E+00  0.38466365750E+03  0.38466365750E+03  0.00000000000E+00 0. -1.
         -2   -1    0    0    0  501 -0.00000000000E+00 -0.00000000000E+00 -0.14977410299E+03  0.14977410299E+03  0.00000000000E+00 0.  1.
          6    1    1    2  502    0  0.12250761613E+03 -0.11092634436E+03  0.14723197432E+03  0.28031058514E+03  0.17200000000E+03 0.  1.
         -6    1    1    2    0  501 -0.12250761613E+03  0.11092634436E+03  0.87657580195E+02  0.25412717534E+03  0.17200000000E+03 0. -1.
</event>
<event>
 4    1  0.4363334E-001  0.2423370E+03  0.7818608E-02  0.1118246E+00
          2   -1    0    0  502    0  0.00000000000E+00  0.00000000000E+00  0.15630291199E+04  0.15630291199E+04  0.00000000000E+00 0.  1.
         -2   -1    0    0    0  501 -0.00000000000E+00 -0.00000000000E+00 -0.51736621280E+02  0.51736621280E+02  0.00000000000E+00 0. -1.
          6    1    1    2  502    0 -0.30460868323E+02  0.16797432695E+03  0.33319936966E+03  0.41200613947E+03  0.17200000000E+03 0. -1.
         -6    1    1    2    0  501  0.30460868323E+02 -0.16797432695E+03  0.11780931289E+04  0.12027596017E+04  0.17200000000E+03 0.  1.
</event>
<event>
 4    1  0.4363334E-001  0.1723723E+03  0.7818608E-02  0.1175396E+00
          1   -1    0    0  502    0  0.00000000000E+00  0.00000000000E+00  0.36938504507E+02  0.36938504507E+02  0.00000000000E+00 0. -1.
         -1   -1    0    0    0  501 -0.00000000000E+00 -0.00000000000E+00 -0.84329851943E+03  0.84329851943E+03  0.00000000000E+00 0.  1.
          6    1    1    2  502    0 -0.66127547502E+01  0.91922914330E+01 -0.49774113168E+03  0.52674325901E+03  0.17200000000E+03 0.  1.
         -6    1    1    2    0  501  0.66127547502E+01 -0.91922914330E+01 -0.30861888324E+03  0.35349376492E+03  0.17200000000E+03 0. -1.
</event>
<event>
 4    1  0.4363334E-001  0.1768091E+03  0.7818608E-02  0.1170927E+00
         -2   -1    0    0    0  501 -0.00000000000E+00  0.00000000000E+00  0.58218556258E+02  0.58218556258E+02  0.00000000000E+00 0. -1.
          2   -1    0    0  502    0  0.00000000000E+00 -0.00000000000E+00 -0.54629759211E+03  0.54629759211E+03  0.00000000000E+00 0.  1.
          6    1    1    2  502    0 -0.40668788566E+02 -0.48488782402E+01 -0.28354073533E+03  0.33415087995E+03  0.17200000000E+03 0.  1.
         -6    1    1    2    0  501  0.40668788566E+02  0.48488782402E+01 -0.20453830052E+03  0.27036526841E+03  0.17200000000E+03 0.  1.
</event>
<event>
 4    1  0.4363334E-001  0.2117266E+03  0.7818608E-02  0.1140206E+00
          4   -1    0    0  502    0  0.00000000000E+00  0.00000000000E+00  0.10683336851E+04  0.10683336851E+04  0.00000000000E+00 0.  1.
         -4   -1    0    0    0  501 -0.00000000000E+00 -0.00000000000E+00 -0.42576376996E+02  0.42576376996E+02  0.00000000000E+00 0. -1.
          6    1    1    2  502    0 -0.30787471411E+02  0.11956713335E+03  0.57966616883E+03  0.61712319277E+03  0.17200000000E+03 0.  1.
         -6    1    1    2    0  501  0.30787471411E+02 -0.11956713335E+03  0.44609113926E+03  0.49378686931E+03  0.17200000000E+03 0.  1.
</event>
<event>
 4    1  0.4363334E-001  0.2075281E+03  0.7818608E-02  0.1143539E+00
          2   -1    0    0  502    0  0.00000000000E+00  0.00000000000E+00  0.47705721644E+03  0.47705721644E+03  0.00000000000E+00 0.  1.
         -2   -1    0    0    0  501 -0.00000000000E+00 -0.00000000000E+00 -0.10125260494E+03  0.10125260494E+03  0.00000000000E+00 0. -1.
          6    1    1    2  502    0 -0.72199482990E+02  0.90945931529E+02  0.28309758884E+03  0.35101591504E+03  0.17200000000E+03 0.  1.
         -6    1    1    2    0  501  0.72199482990E+02 -0.90945931529E+02  0.92707022660E+02  0.22729390633E+03  0.17200000000E+03 0. -1.
</event>
<event>
 4    1  0.4363334E-001  0.1743197E+03  0.7818608E-02  0.1173416E+00
         -2   -1    0    0    0  501 -0.00000000000E+00  0.00000000000E+00  0.13122952416E+02  0.13122952416E+02  0.00000000000E+00 0. -1.
          2   -1    0    0  502    0  0.00000000000E+00 -0.00000000000E+00 -0.24366758966E+04  0.24366758966E+04  0.00000000000E+00 0.  1.
          6    1    1    2  502    0  0.13319662988E+02 -0.25019013175E+02 -0.14848314489E+04  0.14950290285E+04  0.17200000000E+03 0.  1.
         -6    1    1    2    0  501 -0.13319662988E+02  0.25019013175E+02 -0.93872149525E+03  0.95476982047E+03  0.17200000000E+03 0. -1.
</event>
<event>
 4    1  0.4363334E-001  0.2728812E+03  0.7818608E-02  0.1099642E+00
         -1   -1    0    0    0  501 -0.00000000000E+00  0.00000000000E+00  0.11264366220E+03  0.11264366220E+03  0.00000000000E+00 0. -1.
          1   -1    0    0  502    0  0.00000000000E+00 -0.00000000000E+00 -0.94608779418E+03  0.94608779418E+03  0.00000000000E+00 0.  1.
          6    1    1    2  502    0 -0.49374461089E+02  0.20601532863E+03 -0.70728094789E+03  0.75809662464E+03  0.17200000000E+03 0.  1.
         -6    1    1    2    0  501  0.49374461089E+02 -0.20601532863E+03 -0.12616318409E+03  0.30063483174E+03  0.17200000000E+03 0. -1.
</event>
<event>
 4    1  0.4363334E-001  0.2362974E+03  0.7818608E-02  0.1122284E+00
          1   -1    0    0  502    0  0.00000000000E+00  0.00000000000E+00  0.43660620391E+03  0.43660620391E+03  0.00000000000E+00 0. -1.
         -1   -1    0    0    0  501 -0.00000000000E+00 -0.00000000000E+00 -0.21891902786E+03  0.21891902786E+03  0.00000000000E+00 0.  1.
          6    1    1    2  502    0 -0.62207589757E+02  0.14960835029E+03  0.32019918791E+03  0.39794969863E+03  0.17200000000E+03 0. -1.
         -6    1    1    2    0  501  0.62207589757E+02 -0.14960835029E+03 -0.10251201186E+03  0.25757553314E+03  0.17200000000E+03 0.  1.
</event>
<event>
 4    1  0.4363334E-001  0.2140185E+03  0.7818608E-02  0.1138423E+00
          2   -1    0    0  502    0  0.00000000000E+00  0.00000000000E+00  0.58188860639E+02  0.58188860639E+02  0.00000000000E+00 0. -1.
         -2   -1    0    0    0  501 -0.00000000000E+00 -0.00000000000E+00 -0.79718370297E+03  0.79718370297E+03  0.00000000000E+00 0.  1.
          6    1    1    2  502    0  0.45331197685E+02  0.11901677657E+03 -0.32153816086E+03  0.38625211906E+03  0.17200000000E+03 0.  1.
         -6    1    1    2    0  501 -0.45331197685E+02 -0.11901677657E+03 -0.41745668147E+03  0.46912044455E+03  0.17200000000E+03 0. -1.
</event>
<event>
 4    1  0.4363334E-001  0.2006229E+03  0.7818608E-02  0.1149215E+00
         -3   -1    0    0    0  501 -0.00000000000E+00  0.00000000000E+00  0.21335148659E+03  0.21335148659E+03  0.00000000000E+00 0. -1.
          3   -1    0    0  502    0  0.00000000000E+00 -0.00000000000E+00 -0.32218747492E+03  0.32218747492E+03  0.00000000000E+00 0.  1.
          6    1    1    2  502    0 -0.80707866421E+02  0.64434460661E+02 -0.22680408486E+03  0.30280299261E+03  0.17200000000E+03 0.  1.
         -6    1    1    2    0  501  0.80707866421E+02 -0.64434460661E+02  0.11796809653E+03  0.23273596891E+03  0.17200000000E+03 0. -1.
</event>
<event>
 4    1  0.4363334E-001  0.1865354E+03  0.7818608E-02  0.1161624E+00
          2   -1    0    0  502    0  0.00000000000E+00  0.00000000000E+00  0.18069611396E+04  0.18069611396E+04  0.00000000000E+00 0. -1.
         -2   -1    0    0    0  501 -0.00000000000E+00 -0.00000000000E+00 -0.19256347031E+02  0.19256347031E+02  0.00000000000E+00 0.  1.
          6    1    1    2  502    0 -0.32681179091E+02 -0.64369261633E+02  0.89432865068E+03  0.91357495409E+03  0.17200000000E+03 0. -1.
         -6    1    1    2    0  501  0.32681179091E+02  0.64369261633E+02  0.89337614194E+03  0.91264253259E+03  0.17200000000E+03 0.  1.
</event>
<event>
 4    1  0.4363334E-001  0.2773420E+03  0.7818608E-02  0.1097150E+00
          2   -1    0    0  502    0  0.00000000000E+00  0.00000000000E+00  0.20575813046E+03  0.20575813046E+03  0.00000000000E+00 0. -1.
         -2   -1    0    0    0  501 -0.00000000000E+00 -0.00000000000E+00 -0.47608152209E+03  0.47608152209E+03  0.00000000000E+00 0.  1.
          6    1    1    2  502    0 -0.80720037592E+02 -0.20203673537E+03  0.22834428862E+02  0.27828039466E+03  0.17200000000E+03 0. -1.
         -6    1    1    2    0  501  0.80720037592E+02  0.20203673537E+03 -0.29315782049E+03  0.40355925789E+03  0.17200000000E+03 0.  1.
</event>
<event>
 4    1  0.4363334E-001  0.2066858E+03  0.7818608E-02  0.1144218E+00
          2   -1    0    0  502    0  0.00000000000E+00  0.00000000000E+00  0.10396327608E+04  0.10396327608E+04  0.00000000000E+00 0.  1.
         -2   -1    0    0    0  501 -0.00000000000E+00 -0.00000000000E+00 -0.74534997129E+02  0.74534997129E+02  0.00000000000E+00 0. -1.
          6    1    1    2  502    0  0.62547025283E+02 -0.96035804659E+02  0.10938211891E+03  0.23384493598E+03  0.17200000000E+03 0. -1.
         -6    1    1    2    0  501 -0.62547025283E+02  0.96035804659E+02  0.85571564477E+03  0.88032282196E+03  0.17200000000E+03 0.  1.
</event>
<event>
 4    1  0.4363334E-001  0.1731223E+03  0.7818608E-02  0.1174630E+00
          2   -1    0    0  502    0  0.00000000000E+00  0.00000000000E+00  0.35296826386E+03  0.35296826386E+03  0.00000000000E+00 0.  1.
         -2   -1    0    0    0  501 -0.00000000000E+00 -0.00000000000E+00 -0.85006381312E+02  0.85006381312E+02  0.00000000000E+00 0. -1.
          6    1    1    2  502    0 -0.19341354417E+02  0.36366965214E+01  0.14126987880E+03  0.22344684425E+03  0.17200000000E+03 0.  1.
         -6    1    1    2    0  501  0.19341354417E+02 -0.36366965214E+01  0.12669200375E+03  0.21452780092E+03  0.17200000000E+03 0.  1.
</event>
<event>
 4    1  0.4363334E-001  0.2070177E+03  0.7818608E-02  0.1143950E+00
          2   -1    0    0  502    0  0.00000000000E+00  0.00000000000E+00  0.31251875603E+02  0.31251875603E+02  0.00000000000E+00 0. -1.
         -2   -1    0    0    0  501 -0.00000000000E+00 -0.00000000000E+00 -0.13759787125E+04  0.13759787125E+04  0.00000000000E+00 0.  1.
          6    1    1    2  502    0 -0.11502131666E+03 -0.65135132020E+01 -0.63142304560E+03  0.66449333454E+03  0.17200000000E+03 0. -1.
         -6    1    1    2    0  501  0.11502131666E+03  0.65135132020E+01 -0.71330379126E+03  0.74273725352E+03  0.17200000000E+03 0.  1.
</event>
<event>
 4    1  0.4363334E-001  0.1807725E+03  0.7818608E-02  0.1167057E+00
         -3   -1    0    0    0  501 -0.00000000000E+00  0.00000000000E+00  0.35539689636E+03  0.35539689636E+03  0.00000000000E+00 0. -1.
          3   -1    0    0  502    0  0.00000000000E+00 -0.00000000000E+00 -0.93022512014E+02  0.93022512014E+02  0.00000000000E+00 0.  1.
          6    1    1    2  502    0 -0.55623835876E+02 -0.83372147125E+00  0.15526313693E+03  0.23829676435E+03  0.17200000000E+03 0. -1.
         -6    1    1    2    0  501  0.55623835876E+02  0.83372147125E+00  0.10711124741E+03  0.21012264402E+03  0.17200000000E+03 0.  1.
</event>
<event>
 4    1  0.4363334E-001  0.2501213E+03  0.7818608E-02  0.1113228E+00
         -1   -1    0    0    0  501 -0.00000000000E+00  0.00000000000E+00  0.10058397483E+03  0.10058397483E+03  0.00000000000E+00 0. -1.
          1   -1    0    0  502    0  0.00000000000E+00 -0.00000000000E+00 -0.63124465690E+03  0.63124465690E+03  0.00000000000E+00 0.  1.
          6    1    1    2  502    0  0.12727405260E+03 -0.12952993960E+03 -0.30967271094E+03  0.39806767969E+03  0.17200000000E+03 0. -1.
         -6    1    1    2    0  501 -0.12727405260E+03  0.12952993960E+03 -0.22098797113E+03  0.33376095203E+03  0.17200000000E+03 0.  1.
</event>
<event>
 4    1  0.4363334E-001  0.1903972E+03  0.7818608E-02  0.1158104E+00
         -2   -1    0    0    0  501 -0.00000000000E+00  0.00000000000E+00  0.32336353679E+02  0.32336353679E+02  0.00000000000E+00 0.  1.
          2   -1    0    0  502    0  0.00000000000E+00 -0.00000000000E+00 -0.14326367233E+04  0.14326367233E+04  0.00000000000E+00 0. -1.
          6    1    1    2  502    0 -0.64732193127E+02 -0.49768005730E+02 -0.10417452243E+04  0.10590015220E+04  0.17200000000E+03 0. -1.
         -6    1    1    2    0  501  0.64732193127E+02  0.49768005730E+02 -0.35855514528E+03  0.40597155495E+03  0.17200000000E+03 0.  1.
</event>
<event>
 4    1  0.4363334E-001  0.1816098E+03  0.7818608E-02  0.1166254E+00
          2   -1    0    0  502    0  0.00000000000E+00  0.00000000000E+00  0.77772721782E+03  0.77772721782E+03  0.00000000000E+00 0. -1.
         -2   -1    0    0    0  501 -0.00000000000E+00 -0.00000000000E+00 -0.49728004542E+02  0.49728004542E+02  0.00000000000E+00 0.  1.
          6    1    1    2  502    0  0.38499459145E+02 -0.43771145363E+02  0.52272979479E+03  0.55337921888E+03  0.17200000000E+03 0. -1.
         -6    1    1    2    0  501 -0.38499459145E+02  0.43771145363E+02  0.20526941848E+03  0.27407600348E+03  0.17200000000E+03 0.  1.
</event>
<event>
 4    1  0.4363334E-001  0.2448110E+03  0.7818608E-02  0.1116629E+00
         -2   -1    0    0    0  501 -0.00000000000E+00  0.00000000000E+00  0.67929235178E+03  0.67929235178E+03  0.00000000000E+00 0.  1.
          2   -1    0    0  502    0  0.00000000000E+00 -0.00000000000E+00 -0.16746612719E+03  0.16746612719E+03  0.00000000000E+00 0. -1.
          6    1    1    2  502    0  0.83658889598E+01 -0.17400699573E+03 -0.35315411755E+02  0.24734510500E+03  0.17200000000E+03 0. -1.
         -6    1    1    2    0  501 -0.83658889598E+01  0.17400699573E+03  0.54714163635E+03  0.59941337396E+03  0.17200000000E+03 0.  1.
</event>
<event>
 4    1  0.4363334E-001  0.1897405E+03  0.7818608E-02  0.1158696E+00
         -2   -1    0    0    0  501 -0.00000000000E+00  0.00000000000E+00  0.55061826840E+02  0.55061826840E+02  0.00000000000E+00 0. -1.
          2   -1    0    0  502    0  0.00000000000E+00 -0.00000000000E+00 -0.66057435690E+03  0.66057435690E+03  0.00000000000E+00 0.  1.
          6    1    1    2  502    0 -0.57953349885E+02  0.55306959399E+02 -0.33889322176E+03  0.38839421504E+03  0.17200000000E+03 0.  1.
         -6    1    1    2    0  501  0.57953349885E+02 -0.55306959399E+02 -0.26661930829E+03  0.32724196870E+03  0.17200000000E+03 0. -1.
</event>
<event>
 4    1  0.4363334E-001  0.1834125E+03  0.7818608E-02  0.1164541E+00
         -1   -1    0    0    0  501 -0.00000000000E+00  0.00000000000E+00  0.20325068291E+02  0.20325068291E+02  0.00000000000E+00 0.  1.
          1   -1    0    0  502    0  0.00000000000E+00 -0.00000000000E+00 -0.21186930434E+04  0.21186930434E+04  0.00000000000E+00 0. -1.
          6    1    1    2  502    0  0.62691327388E+02 -0.11221866025E+02 -0.15494676420E+04  0.15602852645E+04  0.17200000000E+03 0. -1.
         -6    1    1    2    0  501 -0.62691327388E+02  0.11221866025E+02 -0.54890033311E+03  0.57873284726E+03  0.17200000000E+03 0.  1.
</event>
<event>
 4    1  0.4363334E-001  0.1799165E+03  0.7818608E-02  0.1167884E+00
          1   -1    0    0  502    0  0.00000000000E+00  0.00000000000E+00  0.89116226320E+02  0.89116226320E+02  0.00000000000E+00 0.  1.
         -1   -1    0    0    0  501 -0.00000000000E+00 -0.00000000000E+00 -0.60636291080E+03  0.60636291080E+03  0.00000000000E+00 0. -1.
          6    1    1    2  502    0  0.49144882709E+02  0.19254446809E+02 -0.47881811348E+03  0.51150438807E+03  0.17200000000E+03 0. -1.
         -6    1    1    2    0  501 -0.49144882709E+02 -0.19254446809E+02 -0.38428570997E+02  0.18397474905E+03  0.17200000000E+03 0.  1.
</event>
<event>
 4    1  0.4363334E-001  0.2904154E+03  0.7818608E-02  0.1090132E+00
          2   -1    0    0  502    0  0.00000000000E+00  0.00000000000E+00  0.38309514216E+03  0.38309514216E+03  0.00000000000E+00 0. -1.
         -2   -1    0    0    0  501 -0.00000000000E+00 -0.00000000000E+00 -0.24814951546E+03  0.24814951546E+03  0.00000000000E+00 0.  1.
          6    1    1    2  502    0  0.22908063214E+03  0.47740645466E+02  0.17347904585E+03  0.33828402948E+03  0.17200000000E+03 0. -1.
         -6    1    1    2    0  501 -0.22908063214E+03 -0.47740645466E+02 -0.38533419154E+02  0.29296062814E+03  0.17200000000E+03 0.  1.
</event>
<event>
 4    1  0.4363334E-001  0.1910158E+03  0.7818608E-02  0.1157548E+00
         -1   -1    0    0    0  501 -0.00000000000E+00  0.00000000000E+00  0.16940726099E+02  0.16940726099E+02  0.00000000000E+00 0. -1.
          1   -1    0    0  502    0  0.00000000000E+00 -0.00000000000E+00 -0.22037163167E+04  0.22037163167E+04  0.00000000000E+00 0.  1.
          6    1    1    2  502    0  0.83078112999E+02 -0.10252219528E+01 -0.92628939128E+03  0.94577960453E+03  0.17200000000E+03 0. -1.
         -6    1    1    2    0  501 -0.83078112999E+02  0.10252219528E+01 -0.12604861993E+04  0.12748774383E+04  0.17200000000E+03 0.  1.
</event>
<event>
 4    1  0.4363334E-001  0.2111767E+03  0.7818608E-02  0.1140638E+00
          1   -1    0    0  502    0  0.00000000000E+00  0.00000000000E+00  0.64138970296E+03  0.64138970296E+03  0.00000000000E+00 0. -1.
         -1   -1    0    0    0  501 -0.00000000000E+00 -0.00000000000E+00 -0.83105991135E+02  0.83105991135E+02  0.00000000000E+00 0.  1.
          6    1    1    2  502    0  0.11285721605E+03 -0.47695456677E+02  0.13272844385E+03  0.24942423220E+03  0.17200000000E+03 0.  1.
         -6    1    1    2    0  501 -0.11285721605E+03  0.47695456677E+02  0.42555526798E+03  0.47507146190E+03  0.17200000000E+03 0. -1.
</event>
<event>
 4    1  0.4363334E-001  0.2555402E+03  0.7818608E-02  0.1109853E+00
         -2   -1    0    0    0  501 -0.00000000000E+00  0.00000000000E+00  0.80672106233E+02  0.80672106233E+02  0.00000000000E+00 0.  1.
          2   -1    0    0  502    0  0.00000000000E+00 -0.00000000000E+00 -0.87374593641E+03  0.87374593641E+03  0.00000000000E+00 0. -1.
          6    1    1    2  502    0 -0.18755196513E+03  0.23260876451E+02 -0.52597900552E+03  0.58476894775E+03  0.17200000000E+03 0.  1.
         -6    1    1    2    0  501  0.18755196513E+03 -0.23260876451E+02 -0.26709482465E+03  0.36964909489E+03  0.17200000000E+03 0.  1.
</event>
<event>
 4    1  0.4363334E-001  0.2669732E+03  0.7818608E-02  0.1103025E+00
         -2   -1    0    0    0  501 -0.00000000000E+00  0.00000000000E+00  0.54829625282E+02  0.54829625282E+02  0.00000000000E+00 0.  1.
          2   -1    0    0  502    0  0.00000000000E+00 -0.00000000000E+00 -0.15858873525E+04  0.15858873525E+04  0.00000000000E+00 0. -1.
          6    1    1    2  502    0  0.18915412922E+03  0.76885585686E+02 -0.41717703105E+03  0.49528916112E+03  0.17200000000E+03 0. -1.
         -6    1    1    2    0  501 -0.18915412922E+03 -0.76885585686E+02 -0.11138806962E+04  0.11454278167E+04  0.17200000000E+03 0. -1.
</event>
<event>
 4    1  0.4363334E-001  0.1725793E+03  0.7818608E-02  0.1175184E+00
          1   -1    0    0  502    0  0.00000000000E+00  0.00000000000E+00  0.25259257806E+03  0.25259257806E+03  0.00000000000E+00 0. -1.
         -1   -1    0    0    0  501 -0.00000000000E+00 -0.00000000000E+00 -0.15715842706E+03  0.15715842706E+03  0.00000000000E+00 0.  1.
          6    1    1    2  502    0  0.14128392894E+02  0.84535752663E-01  0.15009892105E+03  0.22872101944E+03  0.17200000000E+03 0. -1.
         -6    1    1    2    0  501 -0.14128392894E+02 -0.84535752663E-01 -0.54664770051E+02  0.18102998568E+03  0.17200000000E+03 0.  1.
</event>
<event>
 4    1  0.4363334E-001  0.2732268E+03  0.7818608E-02  0.1099447E+00
         -2   -1    0    0    0  501 -0.00000000000E+00  0.00000000000E+00  0.62740944772E+02  0.62740944772E+02  0.00000000000E+00 0.  1.
          2   -1    0    0  502    0  0.00000000000E+00 -0.00000000000E+00 -0.12611122782E+04  0.12611122782E+04  0.00000000000E+00 0. -1.
          6    1    1    2  502    0  0.11977257540E+03  0.17528095700E+03 -0.75652420196E+03  0.80435175878E+03  0.17200000000E+03 0.  1.
         -6    1    1    2    0  501 -0.11977257540E+03 -0.17528095700E+03 -0.44184713145E+03  0.51950146417E+03  0.17200000000E+03 0. -1.
</event>
<event>
 4    1  0.4363334E-001  0.1757102E+03  0.7818608E-02  0.1172020E+00
         -1   -1    0    0    0  501 -0.00000000000E+00  0.00000000000E+00  0.28766235456E+03  0.28766235456E+03  0.00000000000E+00 0.  1.
          1   -1    0    0  502    0  0.00000000000E+00 -0.00000000000E+00 -0.13448827213E+03  0.13448827213E+03  0.00000000000E+00 0. -1.
          6    1    1    2  502    0  0.11937951808E+02  0.33875890737E+02 -0.18269226604E+02  0.17665745189E+03  0.17200000000E+03 0. -1.
         -6    1    1    2    0  501 -0.11937951808E+02 -0.33875890737E+02  0.17144330903E+03  0.24549317481E+03  0.17200000000E+03 0.  1.
</event>
<event>
 4    1  0.4363334E-001  0.1744284E+03  0.7818608E-02  0.1173307E+00
          2   -1    0    0  502    0  0.00000000000E+00  0.00000000000E+00  0.69002226578E+02  0.69002226578E+02  0.00000000000E+00 0. -1.
         -2   -1    0    0    0  501 -0.00000000000E+00 -0.00000000000E+00 -0.70599140215E+03  0.70599140215E+03  0.00000000000E+00 0.  1.
          6    1    1    2  502    0  0.11725849857E+02  0.26528893851E+02 -0.81062079760E+02  0.19234432287E+03  0.17200000000E+03 0. -1.
         -6    1    1    2    0  501 -0.11725849857E+02 -0.26528893851E+02 -0.55592709581E+03  0.58264930586E+03  0.17200000000E+03 0.  1.
</event>
<event>
 4    1  0.4363334E-001  0.1792910E+03  0.7818608E-02  0.1168491E+00
          1   -1    0    0  502    0  0.00000000000E+00  0.00000000000E+00  0.16234094438E+03  0.16234094438E+03  0.00000000000E+00 0. -1.
         -1   -1    0    0    0  501 -0.00000000000E+00 -0.00000000000E+00 -0.19867744932E+03  0.19867744932E+03  0.00000000000E+00 0.  1.
          6    1    1    2  502    0 -0.26860870437E+02  0.42892555156E+02 -0.77128948135E+01  0.17945686500E+03  0.17200000000E+03 0. -1.
         -6    1    1    2    0  501  0.26860870437E+02 -0.42892555156E+02 -0.28623610130E+02  0.18156152870E+03  0.17200000000E+03 0.  1.
</event>
<event>
 4    1  0.4363334E-001  0.1729976E+03  0.7818608E-02  0.1174757E+00
          2   -1    0    0  502    0  0.00000000000E+00  0.00000000000E+00  0.88482423919E+03  0.88482423919E+03  0.00000000000E+00 0.  1.
         -2   -1    0    0    0  501 -0.00000000000E+00 -0.00000000000E+00 -0.68327990459E+02  0.68327990459E+02  0.00000000000E+00 0. -1.
          6    1    1    2  502    0  0.10016036940E+02 -0.15615659133E+02  0.69584539042E+02  0.18646763226E+03  0.17200000000E+03 0. -1.
         -6    1    1    2    0  501 -0.10016036940E+02  0.15615659133E+02  0.74691170969E+03  0.76668459739E+03  0.17200000000E+03 0.  1.
</event>
<event>
 4    1  0.4363334E-001  0.1734710E+03  0.7818608E-02  0.1174276E+00
          2   -1    0    0  502    0  0.00000000000E+00  0.00000000000E+00  0.22068589261E+04  0.22068589261E+04  0.00000000000E+00 0.  1.
         -2   -1    0    0    0  501 -0.00000000000E+00 -0.00000000000E+00 -0.13642830630E+02  0.13642830630E+02  0.00000000000E+00 0. -1.
          6    1    1    2  502    0 -0.12252535715E+02  0.18922145166E+02  0.11219048645E+04  0.11352368463E+04  0.17200000000E+03 0.  1.
         -6    1    1    2    0  501  0.12252535715E+02 -0.18922145166E+02  0.10713112310E+04  0.10852649105E+04  0.17200000000E+03 0. -1.
</event>
<event>
 4    1  0.4363334E-001  0.1953145E+03  0.7818608E-02  0.1153753E+00
          1   -1    0    0  502    0  0.00000000000E+00  0.00000000000E+00  0.86791532583E+03  0.86791532583E+03  0.00000000000E+00 0.  1.
         -1   -1    0    0    0  501 -0.00000000000E+00 -0.00000000000E+00 -0.45041264162E+02  0.45041264162E+02  0.00000000000E+00 0. -1.
          6    1    1    2  502    0 -0.77206487040E+02  0.51018924992E+02  0.48238097362E+03  0.52042211334E+03  0.17200000000E+03 0.  1.
         -6    1    1    2    0  501  0.77206487040E+02 -0.51018924992E+02  0.34049308805E+03  0.39253447665E+03  0.17200000000E+03 0. -1.
</event>
<event>
 4    1  0.4363334E-001  0.1919445E+03  0.7818608E-02  0.1156719E+00
         -4   -1    0    0    0  501 -0.00000000000E+00  0.00000000000E+00  0.61135947946E+02  0.61135947946E+02  0.00000000000E+00 0. -1.
          4   -1    0    0  502    0  0.00000000000E+00 -0.00000000000E+00 -0.61049370520E+03  0.61049370520E+03  0.00000000000E+00 0.  1.
          6    1    1    2  502    0  0.68058405097E+02 -0.51251923998E+02 -0.31277798420E+03  0.36697789255E+03  0.17200000000E+03 0.  1.
         -6    1    1    2    0  501 -0.68058405097E+02  0.51251923998E+02 -0.23657977305E+03  0.30465176060E+03  0.17200000000E+03 0.  1.
</event>
<event>
 4    1  0.4363334E-001  0.1789185E+03  0.7818608E-02  0.1168854E+00
          2   -1    0    0  502    0  0.00000000000E+00  0.00000000000E+00  0.11461378728E+04  0.11461378728E+04  0.00000000000E+00 0. -1.
         -2   -1    0    0    0  501 -0.00000000000E+00 -0.00000000000E+00 -0.36966299299E+02  0.36966299299E+02  0.00000000000E+00 0.  1.
          6    1    1    2  502    0  0.49180659142E+02 -0.30132481509E+01  0.26211573370E+03  0.31735859016E+03  0.17200000000E+03 0.  1.
         -6    1    1    2    0  501 -0.49180659142E+02  0.30132481509E+01  0.84705583983E+03  0.86574558197E+03  0.17200000000E+03 0. -1.
</event>
<event>
 4    1  0.4363334E-001  0.4668860E+03  0.7818608E-02  0.1022803E+00
         -2   -1    0    0    0  501 -0.00000000000E+00  0.00000000000E+00  0.29923417139E+03  0.29923417139E+03  0.00000000000E+00 0.  1.
          2   -1    0    0  502    0  0.00000000000E+00 -0.00000000000E+00 -0.14153087255E+04  0.14153087255E+04  0.00000000000E+00 0. -1.
          6    1    1    2  502    0 -0.11742840222E+03 -0.41786259553E+03  0.39163993986E+02  0.46852576964E+03  0.17200000000E+03 0. -1.
         -6    1    1    2    0  501  0.11742840222E+03  0.41786259553E+03 -0.11552385481E+04  0.12460171272E+04  0.17200000000E+03 0.  1.
</event>
<event>
 4    1  0.4363334E-001  0.2480583E+03  0.7818608E-02  0.1114538E+00
          2   -1    0    0  502    0  0.00000000000E+00  0.00000000000E+00  0.32211084453E+04  0.32211084453E+04  0.00000000000E+00 0.  1.
         -2   -1    0    0    0  501 -0.00000000000E+00 -0.00000000000E+00 -0.19118452263E+02  0.19118452263E+02  0.00000000000E+00 0. -1.
          6    1    1    2  502    0 -0.90411203489E+02 -0.15419058231E+03  0.15549760925E+04  0.15746375994E+04  0.17200000000E+03 0. -1.
         -6    1    1    2    0  501  0.90411203489E+02  0.15419058231E+03  0.16470139006E+04  0.16655892981E+04  0.17200000000E+03 0.  1.
</event>
<event>
 4    1  0.4363334E-001  0.1946664E+03  0.7818608E-02  0.1154319E+00
          1   -1    0    0  502    0  0.00000000000E+00  0.00000000000E+00  0.88654788251E+03  0.88654788251E+03  0.00000000000E+00 0.  1.
         -1   -1    0    0    0  501 -0.00000000000E+00 -0.00000000000E+00 -0.42744550601E+02  0.42744550601E+02  0.00000000000E+00 0. -1.
          6    1    1    2  502    0  0.82702889364E+02 -0.38356856287E+02  0.42125021656E+03  0.46405469644E+03  0.17200000000E+03 0.  1.
         -6    1    1    2    0  501 -0.82702889364E+02  0.38356856287E+02  0.42255311535E+03  0.46523773667E+03  0.17200000000E+03 0. -1.
</event>
<event>
 4    1  0.4363334E-001  0.2402973E+03  0.7818608E-02  0.1119595E+00
         -1   -1    0    0    0  501 -0.00000000000E+00  0.00000000000E+00  0.91568598739E+03  0.91568598739E+03  0.00000000000E+00 0.  1.
          1   -1    0    0  502    0  0.00000000000E+00 -0.00000000000E+00 -0.80133262190E+02  0.80133262190E+02  0.00000000000E+00 0. -1.
          6    1    1    2  502    0 -0.49754363645E+02 -0.16026015838E+03  0.64760658274E+03  0.69075111370E+03  0.17200000000E+03 0.  1.
         -6    1    1    2    0  501  0.49754363645E+02  0.16026015838E+03  0.18794614246E+03  0.30506813588E+03  0.17200000000E+03 0. -1.
</event>
<event>
 4    1  0.4363334E-001  0.2243858E+03  0.7818608E-02  0.1130655E+00
          1   -1    0    0  502    0  0.00000000000E+00  0.00000000000E+00  0.22249663998E+03  0.22249663998E+03  0.00000000000E+00 0. -1.
         -1   -1    0    0    0  501 -0.00000000000E+00 -0.00000000000E+00 -0.26282876718E+03  0.26282876718E+03  0.00000000000E+00 0.  1.
          6    1    1    2  502    0 -0.53458718134E+02  0.13381762962E+03  0.70310779983E+02  0.23514378223E+03  0.17200000000E+03 0. -1.
         -6    1    1    2    0  501  0.53458718134E+02 -0.13381762962E+03 -0.11064290718E+03  0.25018162492E+03  0.17200000000E+03 0.  1.
</event>
<event>
 4    1  0.4363334E-001  0.2153548E+03  0.7818608E-02  0.1137394E+00
          2   -1    0    0  502    0  0.00000000000E+00  0.00000000000E+00  0.82353585663E+03  0.82353585663E+03  0.00000000000E+00 0.  1.
         -2   -1    0    0    0  501 -0.00000000000E+00 -0.00000000000E+00 -0.10894355336E+03  0.10894355336E+03  0.00000000000E+00 0. -1.
          6    1    1    2  502    0 -0.12927360553E+03 -0.90575357529E+01  0.33241851296E+02  0.21790531136E+03  0.17200000000E+03 0. -1.
         -6    1    1    2    0  501  0.12927360553E+03  0.90575357529E+01  0.68135045197E+03  0.71457409863E+03  0.17200000000E+03 0.  1.
</event>
<event>
 4    1  0.4363334E-001  0.3021875E+03  0.7818608E-02  0.1084152E+00
          1   -1    0    0  502    0  0.00000000000E+00  0.00000000000E+00  0.18089230407E+03  0.18089230407E+03  0.00000000000E+00 0. -1.
         -1   -1    0    0    0  501 -0.00000000000E+00 -0.00000000000E+00 -0.58118941812E+03  0.58118941812E+03  0.00000000000E+00 0.  1.
          6    1    1    2  502    0 -0.21666669946E+03 -0.12160939775E+03 -0.33827734758E+03  0.45359548957E+03  0.17200000000E+03 0.  1.
         -6    1    1    2    0  501  0.21666669946E+03  0.12160939775E+03 -0.62019766476E+02  0.30848623261E+03  0.17200000000E+03 0. -1.
</event>
<event>
 4    1  0.4363334E-001  0.2299210E+03  0.7818608E-02  0.1126695E+00
          2   -1    0    0  502    0  0.00000000000E+00  0.00000000000E+00  0.52705681229E+03  0.52705681229E+03  0.00000000000E+00 0.  1.
         -2   -1    0    0    0  501 -0.00000000000E+00 -0.00000000000E+00 -0.10594594695E+03  0.10594594695E+03  0.00000000000E+00 0. -1.
          6    1    1    2  502    0  0.14877106327E+03  0.33865170328E+02  0.28362062503E+03  0.36510866598E+03  0.17200000000E+03 0. -1.
         -6    1    1    2    0  501 -0.14877106327E+03 -0.33865170328E+02  0.13749024031E+03  0.26789409327E+03  0.17200000000E+03 0.  1.
</event>
<event>
 4    1  0.4363334E-001  0.2097865E+03  0.7818608E-02  0.1141735E+00
         -2   -1    0    0    0  501 -0.00000000000E+00  0.00000000000E+00  0.65394386643E+02  0.65394386643E+02  0.00000000000E+00 0. -1.
          2   -1    0    0  502    0  0.00000000000E+00 -0.00000000000E+00 -0.93244871976E+03  0.93244871976E+03  0.00000000000E+00 0.  1.
          6    1    1    2  502    0 -0.75897952092E+02 -0.93090762580E+02 -0.69670298097E+03  0.72760252398E+03  0.17200000000E+03 0.  1.
         -6    1    1    2    0  501  0.75897952092E+02  0.93090762580E+02 -0.17035135214E+03  0.27024058242E+03  0.17200000000E+03 0. -1.
</event>
<event>
 4    1  0.4363334E-001  0.1908615E+03  0.7818608E-02  0.1157687E+00
          1   -1    0    0  502    0  0.00000000000E+00  0.00000000000E+00  0.29537166995E+03  0.29537166995E+03  0.00000000000E+00 0.  1.
         -1   -1    0    0    0  501 -0.00000000000E+00 -0.00000000000E+00 -0.14888199678E+03  0.14888199678E+03  0.00000000000E+00 0. -1.
          6    1    1    2  502    0 -0.46835209828E+02  0.68195182660E+02 -0.18777724990E+02  0.19178300961E+03  0.17200000000E+03 0. -1.
         -6    1    1    2    0  501  0.46835209828E+02 -0.68195182660E+02  0.16526739816E+03  0.25247065713E+03  0.17200000000E+03 0.  1.
</event>
<event>
 4    1  0.4363334E-001  0.1728897E+03  0.7818608E-02  0.1174867E+00
         -2   -1    0    0    0  501 -0.00000000000E+00  0.00000000000E+00  0.17631966185E+04  0.17631966185E+04  0.00000000000E+00 0. -1.
          2   -1    0    0  502    0  0.00000000000E+00 -0.00000000000E+00 -0.10573899978E+03  0.10573899978E+03  0.00000000000E+00 0.  1.
          6    1    1    2  502    0 -0.14687276730E+02  0.95459346562E+01  0.16850168267E+04  0.16938632021E+04  0.17200000000E+03 0. -1.
         -6    1    1    2    0  501  0.14687276730E+02 -0.95459346562E+01 -0.27559208026E+02  0.17507241620E+03  0.17200000000E+03 0.  1.
</event>
<event>
 4    1  0.4363334E-001  0.2327168E+03  0.7818608E-02  0.1124742E+00
         -2   -1    0    0    0  501 -0.00000000000E+00  0.00000000000E+00  0.58379323265E+03  0.58379323265E+03  0.00000000000E+00 0.  1.
          2   -1    0    0  502    0  0.00000000000E+00 -0.00000000000E+00 -0.96417440035E+02  0.96417440035E+02  0.00000000000E+00 0. -1.
          6    1    1    2  502    0 -0.88398285721E+02 -0.12945604115E+03  0.30985922740E+03  0.38751756645E+03  0.17200000000E+03 0.  1.
         -6    1    1    2    0  501  0.88398285721E+02  0.12945604115E+03  0.17751656522E+03  0.29269310623E+03  0.17200000000E+03 0.  1.
</event>
<event>
 4    1  0.4363334E-001  0.2913165E+03  0.7818608E-02  0.1089664E+00
          2   -1    0    0  502    0  0.00000000000E+00  0.00000000000E+00  0.14900288790E+04  0.14900288790E+04  0.00000000000E+00 0. -1.
         -2   -1    0    0    0  501 -0.00000000000E+00 -0.00000000000E+00 -0.57109534739E+02  0.57109534739E+02  0.00000000000E+00 0.  1.
          6    1    1    2  502    0  0.17840620469E+02  0.23444191986E+03  0.67628147685E+03  0.73635720779E+03  0.17200000000E+03 0. -1.
         -6    1    1    2    0  501 -0.17840620469E+02 -0.23444191986E+03  0.75663786736E+03  0.81078120591E+03  0.17200000000E+03 0.  1.
</event>
<event>
 4    1  0.4363334E-001  0.1723925E+03  0.7818608E-02  0.1175376E+00
          1   -1    0    0  502    0  0.00000000000E+00  0.00000000000E+00  0.12206911176E+04  0.12206911176E+04  0.00000000000E+00 0.  1.
         -1   -1    0    0    0  501 -0.00000000000E+00 -0.00000000000E+00 -0.11843417471E+03  0.11843417471E+03  0.00000000000E+00 0. -1.
          6    1    1    2  502    0 -0.63848444898E+01 -0.97154987189E+01  0.11479161121E+04  0.11607887652E+04  0.17200000000E+03 0.  1.
         -6    1    1    2    0  501  0.63848444898E+01  0.97154987189E+01 -0.45659169190E+02  0.17833652707E+03  0.17200000000E+03 0. -1.
</event>
<event>
 4    1  0.4363334E-001  0.1833517E+03  0.7818608E-02  0.1164598E+00
          1   -1    0    0  502    0  0.00000000000E+00  0.00000000000E+00  0.27552124134E+03  0.27552124134E+03  0.00000000000E+00 0.  1.
         -1   -1    0    0    0  501 -0.00000000000E+00 -0.00000000000E+00 -0.13465593787E+03  0.13465593787E+03  0.00000000000E+00 0. -1.
          6    1    1    2  502    0 -0.22151433178E+01 -0.63473809745E+02  0.75961912925E+01  0.18350894666E+03  0.17200000000E+03 0. -1.
         -6    1    1    2    0  501  0.22151433178E+01  0.63473809745E+02  0.13326911218E+03  0.22666823254E+03  0.17200000000E+03 0.  1.
</event>
<event>
 4    1  0.4363334E-001  0.2190795E+03  0.7818608E-02  0.1134571E+00
          2   -1    0    0  502    0  0.00000000000E+00  0.00000000000E+00  0.54845570792E+03  0.54845570792E+03  0.00000000000E+00 0. -1.
         -2   -1    0    0    0  501 -0.00000000000E+00 -0.00000000000E+00 -0.13333329476E+03  0.13333329476E+03  0.00000000000E+00 0.  1.
          6    1    1    2  502    0 -0.10372016853E+03 -0.87486908485E+02  0.77178316392E+01  0.21921541333E+03  0.17200000000E+03 0.  1.
         -6    1    1    2    0  501  0.10372016853E+03  0.87486908485E+02  0.40740458153E+03  0.46257358935E+03  0.17200000000E+03 0. -1.
</event>
<event>
 4    1  0.4363334E-001  0.2889347E+03  0.7818608E-02  0.1090907E+00
         -1   -1    0    0    0  501 -0.00000000000E+00  0.00000000000E+00  0.68428866078E+03  0.68428866078E+03  0.00000000000E+00 0. -1.
          1   -1    0    0  502    0  0.00000000000E+00 -0.00000000000E+00 -0.13449743241E+03  0.13449743241E+03  0.00000000000E+00 0.  1.
          6    1    1    2  502    0 -0.23113831852E+03 -0.21778881641E+02  0.15010175372E+03  0.32559757131E+03  0.17200000000E+03 0. -1.
         -6    1    1    2    0  501  0.23113831852E+03  0.21778881641E+02  0.39968947465E+03  0.49318852188E+03  0.17200000000E+03 0. -1.
</event>
<event>
 4    1  0.4363334E-001  0.1935294E+03  0.7818608E-02  0.1155316E+00
          2   -1    0    0  502    0  0.00000000000E+00  0.00000000000E+00  0.62210615339E+03  0.62210615339E+03  0.00000000000E+00 0.  1.
         -2   -1    0    0    0  501 -0.00000000000E+00 -0.00000000000E+00 -0.61866944242E+02  0.61866944242E+02  0.00000000000E+00 0. -1.
          6    1    1    2  502    0  0.48847174734E+02  0.74051255001E+02  0.22406080408E+03  0.29606904393E+03  0.17200000000E+03 0. -1.
         -6    1    1    2    0  501 -0.48847174734E+02 -0.74051255001E+02  0.33617840506E+03  0.38790405370E+03  0.17200000000E+03 0. -1.
</event>
<event>
 4    1  0.4363334E-001  0.2319193E+03  0.7818608E-02  0.1125296E+00
         -2   -1    0    0    0  501 -0.00000000000E+00  0.00000000000E+00  0.12592891510E+03  0.12592891510E+03  0.00000000000E+00 0. -1.
          2   -1    0    0  502    0  0.00000000000E+00 -0.00000000000E+00 -0.49815105229E+03  0.49815105229E+03  0.00000000000E+00 0.  1.
          6    1    1    2  502    0 -0.82779039720E+02 -0.13172019997E+03 -0.30394168757E+03  0.38231810047E+03  0.17200000000E+03 0.  1.
         -6    1    1    2    0  501  0.82779039720E+02  0.13172019997E+03 -0.68280449623E+02  0.24176186692E+03  0.17200000000E+03 0. -1.
</event>
<event>
 4    1  0.4363334E-001  0.1890171E+03  0.7818608E-02  0.1159351E+00
         -2   -1    0    0    0  501 -0.00000000000E+00  0.00000000000E+00  0.22638936327E+02  0.22638936327E+02  0.00000000000E+00 0.  1.
          2   -1    0    0  502    0  0.00000000000E+00 -0.00000000000E+00 -0.17692342040E+04  0.17692342040E+04  0.00000000000E+00 0. -1.
          6    1    1    2  502    0 -0.53270498819E+02 -0.57495408856E+02 -0.11677435202E+04  0.11829422628E+04  0.17200000000E+03 0. -1.
         -6    1    1    2    0  501  0.53270498819E+02  0.57495408856E+02 -0.57885174745E+03  0.60893087753E+03  0.17200000000E+03 0.  1.
</event>
<event>
 4    1  0.4363334E-001  0.1870474E+03  0.7818608E-02  0.1161152E+00
         -2   -1    0    0    0  501 -0.00000000000E+00  0.00000000000E+00  0.15153620156E+03  0.15153620156E+03  0.00000000000E+00 0.  1.
          2   -1    0    0  502    0  0.00000000000E+00 -0.00000000000E+00 -0.23088884900E+03  0.23088884900E+03  0.00000000000E+00 0. -1.
          6    1    1    2  502    0 -0.17808864799E+02  0.71313314252E+02 -0.38522175719E+02  0.19097304123E+03  0.17200000000E+03 0.  1.
         -6    1    1    2    0  501  0.17808864799E+02 -0.71313314252E+02 -0.40830471719E+02  0.19145200933E+03  0.17200000000E+03 0. -1.
</event>
<event>
 4    1  0.4363334E-001  0.1784936E+03  0.7818608E-02  0.1169269E+00
         -1   -1    0    0    0  501 -0.00000000000E+00  0.00000000000E+00  0.77209815335E+02  0.77209815335E+02  0.00000000000E+00 0.  1.
          1   -1    0    0  502    0  0.00000000000E+00 -0.00000000000E+00 -0.69767193586E+03  0.69767193586E+03  0.00000000000E+00 0. -1.
          6    1    1    2  502    0  0.45561195342E+02 -0.14147248601E+02 -0.55787374108E+03  0.58573294098E+03  0.17200000000E+03 0. -1.
         -6    1    1    2    0  501 -0.45561195342E+02  0.14147248601E+02 -0.62588379446E+02  0.18914881021E+03  0.17200000000E+03 0.  1.
</event>
<event>
 4    1  0.4363334E-001  0.1808928E+03  0.7818608E-02  0.1166942E+00
          1   -1    0    0  502    0  0.00000000000E+00  0.00000000000E+00  0.11030710851E+04  0.11030710851E+04  0.00000000000E+00 0.  1.
         -1   -1    0    0    0  501 -0.00000000000E+00 -0.00000000000E+00 -0.31308069823E+02  0.31308069823E+02  0.00000000000E+00 0. -1.
          6    1    1    2  502    0  0.36672840679E+02  0.42347608289E+02  0.40593206697E+03  0.44441316381E+03  0.17200000000E+03 0. -1.
         -6    1    1    2    0  501 -0.36672840679E+02 -0.42347608289E+02  0.66583094831E+03  0.68996599111E+03  0.17200000000E+03 0.  1.
</event>
<event>
 4    1  0.4363334E-001  0.2325792E+03  0.7818608E-02  0.1124837E+00
          2   -1    0    0  502    0  0.00000000000E+00  0.00000000000E+00  0.41823410776E+03  0.41823410776E+03  0.00000000000E+00 0. -1.
         -2   -1    0    0    0  501 -0.00000000000E+00 -0.00000000000E+00 -0.18462589425E+03  0.18462589425E+03  0.00000000000E+00 0.  1.
          6    1    1    2  502    0 -0.14690268992E+03 -0.54117206437E+02  0.28175694845E+03  0.36534921696E+03  0.17200000000E+03 0. -1.
         -6    1    1    2    0  501  0.14690268992E+03  0.54117206437E+02 -0.48148734937E+02  0.23751078505E+03  0.17200000000E+03 0.  1.
</event>
<event>
 4    1  0.4363334E-001  0.1737252E+03  0.7818608E-02  0.1174018E+00
          2   -1    0    0  502    0  0.00000000000E+00  0.00000000000E+00  0.74386298696E+03  0.74386298696E+03  0.00000000000E+00 0. -1.
         -2   -1    0    0    0  501 -0.00000000000E+00 -0.00000000000E+00 -0.40791543087E+02  0.40791543087E+02  0.00000000000E+00 0.  1.
          6    1    1    2  502    0  0.24298450616E+02  0.24554252612E+01  0.38027954429E+03  0.41808249858E+03  0.17200000000E+03 0. -1.
         -6    1    1    2    0  501 -0.24298450616E+02 -0.24554252612E+01  0.32279189958E+03  0.36657203146E+03  0.17200000000E+03 0.  1.
</event>
<event>
 4    1  0.4363334E-001  0.1900828E+03  0.7818608E-02  0.1158387E+00
          2   -1    0    0  502    0  0.00000000000E+00  0.00000000000E+00  0.16690808060E+04  0.16690808060E+04  0.00000000000E+00 0. -1.
         -2   -1    0    0    0  501 -0.00000000000E+00 -0.00000000000E+00 -0.22800828584E+02  0.22800828584E+02  0.00000000000E+00 0.  1.
          6    1    1    2  502    0 -0.19834536889E+02  0.78447934069E+02  0.10133942412E+04  0.10310671052E+04  0.17200000000E+03 0. -1.
         -6    1    1    2    0  501  0.19834536889E+02 -0.78447934069E+02  0.63288573621E+03  0.66081452943E+03  0.17200000000E+03 0.  1.
</event>
<event>
 4    1  0.4363334E-001  0.2081907E+03  0.7818608E-02  0.1143007E+00
          2   -1    0    0  502    0  0.00000000000E+00  0.00000000000E+00  0.10823908733E+04  0.10823908733E+04  0.00000000000E+00 0.  1.
         -2   -1    0    0    0  501 -0.00000000000E+00 -0.00000000000E+00 -0.44282434644E+02  0.44282434644E+02  0.00000000000E+00 0. -1.
          6    1    1    2  502    0 -0.60228533928E+02 -0.10065733357E+03  0.34477340996E+03  0.40275560743E+03  0.17200000000E+03 0. -1.
         -6    1    1    2    0  501  0.60228533928E+02  0.10065733357E+03  0.69333502867E+03  0.72391770049E+03  0.17200000000E+03 0.  1.
</event>
<event>
 4    1  0.4363334E-001  0.2047249E+03  0.7818608E-02  0.1145813E+00
         -2   -1    0    0    0  501 -0.00000000000E+00  0.00000000000E+00  0.32523799445E+02  0.32523799445E+02  0.00000000000E+00 0. -1.
          2   -1    0    0  502    0  0.00000000000E+00 -0.00000000000E+00 -0.14302598571E+04  0.14302598571E+04  0.00000000000E+00 0.  1.
          6    1    1    2  502    0  0.40119963210E+02  0.10353110878E+03 -0.46874216624E+03  0.51149928675E+03  0.17200000000E+03 0. -1.
         -6    1    1    2    0  501 -0.40119963210E+02 -0.10353110878E+03 -0.92899389143E+03  0.95128436981E+03  0.17200000000E+03 0. -1.
</event>
<event>
 4    1  0.4363334E-001  0.2721206E+03  0.7818608E-02  0.1100072E+00
          2   -1    0    0  502    0  0.00000000000E+00  0.00000000000E+00  0.24574951920E+03  0.24574951920E+03  0.00000000000E+00 0.  1.
         -2   -1    0    0    0  501 -0.00000000000E+00 -0.00000000000E+00 -0.30272149389E+03  0.30272149389E+03  0.00000000000E+00 0. -1.
          6    1    1    2  502    0  0.19752074482E+03 -0.73832078325E+02 -0.47135217709E+02  0.27617267999E+03  0.17200000000E+03 0. -1.
         -6    1    1    2    0  501 -0.19752074482E+03  0.73832078325E+02 -0.98367569813E+01  0.27229833311E+03  0.17200000000E+03 0.  1.
</event>
<event>
 4    1  0.4363334E-001  0.2072888E+03  0.7818608E-02  0.1143731E+00
          2   -1    0    0  502    0  0.00000000000E+00  0.00000000000E+00  0.22912412217E+04  0.22912412217E+04  0.00000000000E+00 0. -1.
         -2   -1    0    0    0  501 -0.00000000000E+00 -0.00000000000E+00 -0.24861057664E+02  0.24861057664E+02  0.00000000000E+00 0.  1.
          6    1    1    2  502    0 -0.42626477955E+02  0.10755282975E+03  0.17071800176E+04  0.17197186515E+04  0.17200000000E+03 0. -1.
         -6    1    1    2    0  501  0.42626477955E+02 -0.10755282975E+03  0.55920014636E+03  0.59638362779E+03  0.17200000000E+03 0.  1.
</event>
<event>
 4    1  0.4363334E-001  0.1910567E+03  0.7818608E-02  0.1157512E+00
         -1   -1    0    0    0  501 -0.00000000000E+00  0.00000000000E+00  0.17744637895E+03  0.17744637895E+03  0.00000000000E+00 0.  1.
          1   -1    0    0  502    0  0.00000000000E+00 -0.00000000000E+00 -0.28692650503E+03  0.28692650503E+03  0.00000000000E+00 0. -1.
          6    1    1    2  502    0 -0.82153492083E+02 -0.13017670148E+02  0.68789594941E+02  0.20306320289E+03  0.17200000000E+03 0.  1.
         -6    1    1    2    0  501  0.82153492083E+02  0.13017670148E+02 -0.17826972102E+03  0.26130968109E+03  0.17200000000E+03 0. -1.
</event>
<event>
 4    1  0.4363334E-001  0.2677823E+03  0.7818608E-02  0.1102556E+00
          2   -1    0    0  502    0  0.00000000000E+00  0.00000000000E+00  0.20535984085E+04  0.20535984085E+04  0.00000000000E+00 0.  1.
         -2   -1    0    0    0  501 -0.00000000000E+00 -0.00000000000E+00 -0.39047542284E+02  0.39047542284E+02  0.00000000000E+00 0. -1.
          6    1    1    2  502    0  0.12671158581E+03  0.16145445563E+03  0.13475461130E+04  0.13738951539E+04  0.17200000000E+03 0.  1.
         -6    1    1    2    0  501 -0.12671158581E+03 -0.16145445563E+03  0.66700475318E+03  0.71875079686E+03  0.17200000000E+03 0. -1.
</event>
<event>
 4    1  0.4363334E-001  0.1911875E+03  0.7818608E-02  0.1157395E+00
         -1   -1    0    0    0  501 -0.00000000000E+00  0.00000000000E+00  0.47420803342E+02  0.47420803342E+02  0.00000000000E+00 0.  1.
          1   -1    0    0  502    0  0.00000000000E+00 -0.00000000000E+00 -0.10103902890E+04  0.10103902890E+04  0.00000000000E+00 0. -1.
          6    1    1    2  502    0  0.74968163041E+02  0.36721125645E+02 -0.73903058881E+03  0.76336025423E+03  0.17200000000E+03 0. -1.
         -6    1    1    2    0  501 -0.74968163041E+02 -0.36721125645E+02 -0.22393889680E+03  0.29445083807E+03  0.17200000000E+03 0.  1.
</event>
<event>
 4    1  0.4363334E-001  0.2157633E+03  0.7818608E-02  0.1137082E+00
          1   -1    0    0  502    0  0.00000000000E+00  0.00000000000E+00  0.86392654998E+02  0.86392654998E+02  0.00000000000E+00 0.  1.
         -1   -1    0    0    0  501 -0.00000000000E+00 -0.00000000000E+00 -0.67448564303E+03  0.67448564303E+03  0.00000000000E+00 0. -1.
          6    1    1    2  502    0 -0.11137310855E+03 -0.67571072607E+02 -0.46464086256E+03  0.51229381250E+03  0.17200000000E+03 0. -1.
         -6    1    1    2    0  501  0.11137310855E+03  0.67571072607E+02 -0.12345212547E+03  0.24858448552E+03  0.17200000000E+03 0.  1.
</event>
<event>
 4    1  0.4363334E-001  0.1956474E+03  0.7818608E-02  0.1153464E+00
         -2   -1    0    0    0  501 -0.00000000000E+00  0.00000000000E+00  0.35656489848E+02  0.35656489848E+02  0.00000000000E+00 0. -1.
          2   -1    0    0  502    0  0.00000000000E+00 -0.00000000000E+00 -0.13885544727E+04  0.13885544727E+04  0.00000000000E+00 0.  1.
          6    1    1    2  502    0 -0.81270260686E+02  0.45706171091E+02 -0.33725918695E+03  0.38989956211E+03  0.17200000000E+03 0. -1.
         -6    1    1    2    0  501  0.81270260686E+02 -0.45706171091E+02 -0.10156387959E+04  0.10343114005E+04  0.17200000000E+03 0.  1.
</event>
<event>
 4    1  0.4363334E-001  0.1736608E+03  0.7818608E-02  0.1174083E+00
         -2   -1    0    0    0  501 -0.00000000000E+00  0.00000000000E+00  0.13815756738E+03  0.13815756738E+03  0.00000000000E+00 0.  1.
          2   -1    0    0  502    0  0.00000000000E+00 -0.00000000000E+00 -0.27699124610E+03  0.27699124610E+03  0.00000000000E+00 0. -1.
          6    1    1    2  502    0  0.14094632734E+02  0.19375254297E+02 -0.16497636418E+03  0.23953133384E+03  0.17200000000E+03 0. -1.
         -6    1    1    2    0  501 -0.14094632734E+02 -0.19375254297E+02  0.26142685462E+02  0.17561747964E+03  0.17200000000E+03 0.  1.
</event>
<event>
 4    1  0.4363334E-001  0.1939979E+03  0.7818608E-02  0.1154904E+00
          2   -1    0    0  502    0  0.00000000000E+00  0.00000000000E+00  0.36326482767E+04  0.36326482767E+04  0.00000000000E+00 0.  1.
         -2   -1    0    0    0  501 -0.00000000000E+00 -0.00000000000E+00 -0.11373885976E+02  0.11373885976E+02  0.00000000000E+00 0. -1.
          6    1    1    2  502    0  0.66013381642E+02  0.60773462577E+02  0.12667166495E+04  0.12814859541E+04  0.17200000000E+03 0. -1.
         -6    1    1    2    0  501 -0.66013381642E+02 -0.60773462577E+02  0.23545577412E+04  0.23625362086E+04  0.17200000000E+03 0. -1.
</event>
<event>
 4    1  0.4363334E-001  0.1958537E+03  0.7818608E-02  0.1153285E+00
          1   -1    0    0  502    0  0.00000000000E+00  0.00000000000E+00  0.62427373077E+03  0.62427373077E+03  0.00000000000E+00 0.  1.
         -1   -1    0    0    0  501 -0.00000000000E+00 -0.00000000000E+00 -0.62242660984E+02  0.62242660984E+02  0.00000000000E+00 0. -1.
          6    1    1    2  502    0  0.46499780156E+02 -0.81316852411E+02  0.31986776449E+03  0.37506539003E+03  0.17200000000E+03 0.  1.
         -6    1    1    2    0  501 -0.46499780156E+02  0.81316852411E+02  0.24216330530E+03  0.31145100172E+03  0.17200000000E+03 0.  1.
</event>
<event>
 4    1  0.4363334E-001  0.1838304E+03  0.7818608E-02  0.1164147E+00
          1   -1    0    0  502    0  0.00000000000E+00  0.00000000000E+00  0.89637030500E+03  0.89637030500E+03  0.00000000000E+00 0. -1.
         -1   -1    0    0    0  501 -0.00000000000E+00 -0.00000000000E+00 -0.50748935485E+02  0.50748935485E+02  0.00000000000E+00 0.  1.
          6    1    1    2  502    0 -0.56399248562E+02  0.32073998466E+02  0.66293728342E+03  0.68795309314E+03  0.17200000000E+03 0. -1.
         -6    1    1    2    0  501  0.56399248562E+02 -0.32073998466E+02  0.18268408609E+03  0.25916614734E+03  0.17200000000E+03 0.  1.
</event>
<event>
 4    1  0.4363334E-001  0.2842651E+03  0.7818608E-02  0.1093382E+00
         -1   -1    0    0    0  501 -0.00000000000E+00  0.00000000000E+00  0.38113299478E+03  0.38113299478E+03  0.00000000000E+00 0.  1.
          1   -1    0    0  502    0  0.00000000000E+00 -0.00000000000E+00 -0.31919711145E+03  0.31919711145E+03  0.00000000000E+00 0. -1.
          6    1    1    2  502    0 -0.16137231437E+03 -0.15868722794E+03  0.23387656348E+03  0.36810991172E+03  0.17200000000E+03 0.  1.
         -6    1    1    2    0  501  0.16137231437E+03  0.15868722794E+03 -0.17194068014E+03  0.33222019452E+03  0.17200000000E+03 0. -1.
</event>
<event>
 4    1  0.4363334E-001  0.1805226E+03  0.7818608E-02  0.1167298E+00
          2   -1    0    0  502    0  0.00000000000E+00  0.00000000000E+00  0.18667656389E+04  0.18667656389E+04  0.00000000000E+00 0. -1.
         -2   -1    0    0    0  501 -0.00000000000E+00 -0.00000000000E+00 -0.20634350198E+02  0.20634350198E+02  0.00000000000E+00 0.  1.
          6    1    1    2  502    0  0.35896836190E+02  0.41422699377E+02  0.55276003417E+03  0.58149125380E+03  0.17200000000E+03 0.  1.
         -6    1    1    2    0  501 -0.35896836190E+02 -0.41422699377E+02  0.12933712545E+04  0.13059087353E+04  0.17200000000E+03 0. -1.
</event>
<event>
 4    1  0.4363334E-001  0.2021493E+03  0.7818608E-02  0.1147938E+00
          2   -1    0    0  502    0  0.00000000000E+00  0.00000000000E+00  0.25134147816E+03  0.25134147816E+03  0.00000000000E+00 0.  1.
         -2   -1    0    0    0  501 -0.00000000000E+00 -0.00000000000E+00 -0.38874305220E+03  0.38874305220E+03  0.00000000000E+00 0. -1.
          6    1    1    2  502    0  0.70825124962E+02 -0.79146302799E+02 -0.31280884424E+03  0.37244289308E+03  0.17200000000E+03 0. -1.
         -6    1    1    2    0  501 -0.70825124962E+02  0.79146302799E+02  0.17540727019E+03  0.26764163729E+03  0.17200000000E+03 0.  1.
</event>
<event>
 4    1  0.4363334E-001  0.2130588E+03  0.7818608E-02  0.1139166E+00
          1   -1    0    0  502    0  0.00000000000E+00  0.00000000000E+00  0.53605039267E+03  0.53605039267E+03  0.00000000000E+00 0. -1.
         -1   -1    0    0    0  501 -0.00000000000E+00 -0.00000000000E+00 -0.94596030763E+02  0.94596030763E+02  0.00000000000E+00 0.  1.
          6    1    1    2  502    0 -0.11016402867E+03  0.60612978765E+02  0.32280592968E+03  0.38677863778E+03  0.17200000000E+03 0.  1.
         -6    1    1    2    0  501  0.11016402867E+03 -0.60612978765E+02  0.11864843223E+03  0.24386778565E+03  0.17200000000E+03 0. -1.
</event>
<event>
 4    1  0.4363334E-001  0.1846880E+03  0.7818608E-02  0.1163342E+00
         -2   -1    0    0    0  501 -0.00000000000E+00  0.00000000000E+00  0.25179622225E+02  0.25179622225E+02  0.00000000000E+00 0.  1.
          2   -1    0    0  502    0  0.00000000000E+00 -0.00000000000E+00 -0.16016427280E+04  0.16016427280E+04  0.00000000000E+00 0. -1.
          6    1    1    2  502    0  0.58739218964E+02 -0.32792514893E+02 -0.46880797953E+03  0.50387554669E+03  0.17200000000E+03 0.  1.
         -6    1    1    2    0  501 -0.58739218964E+02  0.32792514893E+02 -0.11076551262E+04  0.11229468035E+04  0.17200000000E+03 0. -1.
</event>
<event>
 4    1  0.4363334E-001  0.2626795E+03  0.7818608E-02  0.1105544E+00
          2   -1    0    0  502    0  0.00000000000E+00  0.00000000000E+00  0.53758582639E+03  0.53758582639E+03  0.00000000000E+00 0.  1.
         -2   -1    0    0    0  501 -0.00000000000E+00 -0.00000000000E+00 -0.28800448391E+03  0.28800448391E+03  0.00000000000E+00 0. -1.
          6    1    1    2  502    0  0.19850095052E+03 -0.37240844479E+01 -0.18255145952E+03  0.31988362186E+03  0.17200000000E+03 0. -1.
         -6    1    1    2    0  501 -0.19850095052E+03  0.37240844479E+01  0.43213280200E+03  0.50570668844E+03  0.17200000000E+03 0.  1.
</event>
<event>
 4    1  0.4363334E-001  0.1984419E+03  0.7818608E-02  0.1151060E+00
         -2   -1    0    0    0  501 -0.00000000000E+00  0.00000000000E+00  0.29922231903E+02  0.29922231903E+02  0.00000000000E+00 0.  1.
          2   -1    0    0  502    0  0.00000000000E+00 -0.00000000000E+00 -0.21013553845E+04  0.21013553845E+04  0.00000000000E+00 0. -1.
          6    1    1    2  502    0  0.51124959090E+02 -0.84743286196E+02 -0.16871638337E+04  0.16987939803E+04  0.17200000000E+03 0. -1.
         -6    1    1    2    0  501 -0.51124959090E+02  0.84743286196E+02 -0.38426931898E+03  0.43248363611E+03  0.17200000000E+03 0.  1.
</event>
<event>
 4    1  0.4363334E-001  0.2142184E+03  0.7818608E-02  0.1138268E+00
          1   -1    0    0  502    0  0.00000000000E+00  0.00000000000E+00  0.34346132872E+03  0.34346132872E+03  0.00000000000E+00 0. -1.
         -1   -1    0    0    0  501 -0.00000000000E+00 -0.00000000000E+00 -0.14140753524E+03  0.14140753524E+03  0.00000000000E+00 0.  1.
          6    1    1    2  502    0  0.34374032326E+01 -0.12764681075E+03  0.44093827697E+02  0.21870937263E+03  0.17200000000E+03 0.  1.
         -6    1    1    2    0  501 -0.34374032326E+01  0.12764681075E+03  0.15795996578E+03  0.26615949133E+03  0.17200000000E+03 0. -1.
</event>
<event>
 4    1  0.4363334E-001  0.1913368E+03  0.7818608E-02  0.1157261E+00
         -1   -1    0    0    0  501 -0.00000000000E+00  0.00000000000E+00  0.47435331268E+02  0.47435331268E+02  0.00000000000E+00 0.  1.
          1   -1    0    0  502    0  0.00000000000E+00 -0.00000000000E+00 -0.78188961379E+03  0.78188961379E+03  0.00000000000E+00 0. -1.
          6    1    1    2  502    0 -0.69660126769E+02 -0.46618039403E+02 -0.41437133396E+03  0.45641360329E+03  0.17200000000E+03 0.  1.
         -6    1    1    2    0  501  0.69660126769E+02  0.46618039403E+02 -0.32008294856E+03  0.37291134177E+03  0.17200000000E+03 0. -1.
</event>
<event>
 4    1  0.4363334E-001  0.2970805E+03  0.7818608E-02  0.1086709E+00
          2   -1    0    0  502    0  0.00000000000E+00  0.00000000000E+00  0.13793137281E+04  0.13793137281E+04  0.00000000000E+00 0.  1.
         -2   -1    0    0    0  501 -0.00000000000E+00 -0.00000000000E+00 -0.10233039933E+03  0.10233039933E+03  0.00000000000E+00 0. -1.
          6    1    1    2  502    0  0.23436489289E+03 -0.61203944321E+02  0.18500731135E+03  0.34997790083E+03  0.17200000000E+03 0. -1.
         -6    1    1    2    0  501 -0.23436489289E+03  0.61203944321E+02  0.10919760174E+04  0.11316662266E+04  0.17200000000E+03 0.  1.
</event>
<event>
 4    1  0.4363334E-001  0.2347187E+03  0.7818608E-02  0.1123362E+00
          2   -1    0    0  502    0  0.00000000000E+00  0.00000000000E+00  0.37548251471E+03  0.37548251471E+03  0.00000000000E+00 0.  1.
         -2   -1    0    0    0  501 -0.00000000000E+00 -0.00000000000E+00 -0.17200642174E+03  0.17200642174E+03  0.00000000000E+00 0. -1.
          6    1    1    2  502    0 -0.53372559736E+02  0.15053314757E+03  0.20668491821E+03  0.31274832384E+03  0.17200000000E+03 0.  1.
         -6    1    1    2    0  501  0.53372559736E+02 -0.15053314757E+03 -0.32088252508E+01  0.23474061261E+03  0.17200000000E+03 0.  1.
</event>
<event>
 4    1  0.4363334E-001  0.5799007E+03  0.7818608E-02  0.9948006E-01
          1   -1    0    0  502    0  0.00000000000E+00  0.00000000000E+00  0.57950676428E+03  0.57950676428E+03  0.00000000000E+00 0. -1.
         -1   -1    0    0    0  501 -0.00000000000E+00 -0.00000000000E+00 -0.60156594817E+03  0.60156594817E+03  0.00000000000E+00 0.  1.
          6    1    1    2  502    0 -0.56148245791E+02  0.55095208947E+03 -0.12207466056E+03  0.59261037213E+03  0.17200000000E+03 0.  1.
         -6    1    1    2    0  501  0.56148245791E+02 -0.55095208947E+03  0.10001547667E+03  0.58846234032E+03  0.17200000000E+03 0. -1.
</event>
<event>
 4    1  0.4363334E-001  0.1987845E+03  0.7818608E-02  0.1150769E+00
         -3   -1    0    0    0  501 -0.00000000000E+00  0.00000000000E+00  0.86512515243E+02  0.86512515243E+02  0.00000000000E+00 0. -1.
          3   -1    0    0  502    0  0.00000000000E+00 -0.00000000000E+00 -0.46471090787E+03  0.46471090787E+03  0.00000000000E+00 0.  1.
          6    1    1    2  502    0  0.56848859045E+02  0.81850293109E+02 -0.22515503315E+03  0.30034988299E+03  0.17200000000E+03 0. -1.
         -6    1    1    2    0  501 -0.56848859045E+02 -0.81850293109E+02 -0.15304335948E+03  0.25087354013E+03  0.17200000000E+03 0. -1.
</event>
<event>
 4    1  0.4363334E-001  0.2261036E+03  0.7818608E-02  0.1129413E+00
          1   -1    0    0  502    0  0.00000000000E+00  0.00000000000E+00  0.27028051420E+02  0.27028051420E+02  0.00000000000E+00 0. -1.
         -1   -1    0    0    0  501 -0.00000000000E+00 -0.00000000000E+00 -0.19266099569E+04  0.19266099569E+04  0.00000000000E+00 0.  1.
          6    1    1    2  502    0  0.14322927582E+03  0.32003036169E+02 -0.81787373074E+03  0.84855186006E+03  0.17200000000E+03 0. -1.
         -6    1    1    2    0  501 -0.14322927582E+03 -0.32003036169E+02 -0.10817081747E+04  0.11050861483E+04  0.17200000000E+03 0.  1.
</event>
<event>
 4    1  0.4363334E-001  0.2174486E+03  0.7818608E-02  0.1135800E+00
         -1   -1    0    0    0  501 -0.00000000000E+00  0.00000000000E+00  0.93315935068E+02  0.93315935068E+02  0.00000000000E+00 0. -1.
          1   -1    0    0  502    0  0.00000000000E+00 -0.00000000000E+00 -0.65726482795E+03  0.65726482795E+03  0.00000000000E+00 0.  1.
          6    1    1    2  502    0 -0.13189379903E+03  0.17433439443E+02 -0.46159166091E+03  0.51024578436E+03  0.17200000000E+03 0.  1.
         -6    1    1    2    0  501  0.13189379903E+03 -0.17433439443E+02 -0.10235723198E+03  0.24033497867E+03  0.17200000000E+03 0.  1.
</event>
<event>
 4    1  0.4363334E-001  0.2804478E+03  0.7818608E-02  0.1095445E+00
          2   -1    0    0  502    0  0.00000000000E+00  0.00000000000E+00  0.20861375064E+03  0.20861375064E+03  0.00000000000E+00 0. -1.
         -2   -1    0    0    0  501 -0.00000000000E+00 -0.00000000000E+00 -0.40711111562E+03  0.40711111562E+03  0.00000000000E+00 0.  1.
          6    1    1    2  502    0 -0.21655197194E+03  0.46607143045E+02 -0.18295133373E+03  0.33484649147E+03  0.17200000000E+03 0.  1.
         -6    1    1    2    0  501  0.21655197194E+03 -0.46607143045E+02 -0.15546031251E+02  0.28087837478E+03  0.17200000000E+03 0. -1.
</event>
<event>
 4    1  0.4363334E-001  0.2005190E+03  0.7818608E-02  0.1149302E+00
         -2   -1    0    0    0  501 -0.00000000000E+00  0.00000000000E+00  0.26835077441E+03  0.26835077441E+03  0.00000000000E+00 0.  1.
          2   -1    0    0  502    0  0.00000000000E+00 -0.00000000000E+00 -0.21955676578E+03  0.21955676578E+03  0.00000000000E+00 0. -1.
          6    1    1    2  502    0  0.46980418182E+02  0.91742706096E+02  0.16187195897E+03  0.25770218260E+03  0.17200000000E+03 0.  1.
         -6    1    1    2    0  501 -0.46980418182E+02 -0.91742706096E+02 -0.11307795033E+03  0.23020535760E+03  0.17200000000E+03 0. -1.
</event>
<event>
 4    1  0.4363334E-001  0.3128197E+03  0.7818608E-02  0.1079002E+00
         -2   -1    0    0    0  501 -0.00000000000E+00  0.00000000000E+00  0.33667479826E+03  0.33667479826E+03  0.00000000000E+00 0.  1.
          2   -1    0    0  502    0  0.00000000000E+00 -0.00000000000E+00 -0.29065776861E+03  0.29065776861E+03  0.00000000000E+00 0. -1.
          6    1    1    2  502    0 -0.20437511394E+03 -0.16279726044E+03  0.22000611832E+02  0.31359235024E+03  0.17200000000E+03 0.  1.
         -6    1    1    2    0  501  0.20437511394E+03  0.16279726044E+03  0.24016417820E+02  0.31374021663E+03  0.17200000000E+03 0.  1.
</event>
<event>
 4    1  0.4363334E-001  0.1816317E+03  0.7818608E-02  0.1166233E+00
         -2   -1    0    0    0  501 -0.00000000000E+00  0.00000000000E+00  0.32673296268E+02  0.32673296268E+02  0.00000000000E+00 0.  1.
          2   -1    0    0  502    0  0.00000000000E+00 -0.00000000000E+00 -0.13045557009E+04  0.13045557009E+04  0.00000000000E+00 0. -1.
          6    1    1    2  502    0  0.89891945670E+01  0.57665180081E+02 -0.95381343392E+03  0.97095321481E+03  0.17200000000E+03 0. -1.
         -6    1    1    2    0  501 -0.89891945670E+01 -0.57665180081E+02 -0.31806897068E+03  0.36627578233E+03  0.17200000000E+03 0.  1.
</event>
<event>
 4    1  0.4363334E-001  0.1779648E+03  0.7818608E-02  0.1169787E+00
         -1   -1    0    0    0  501 -0.00000000000E+00  0.00000000000E+00  0.38546903237E+03  0.38546903237E+03  0.00000000000E+00 0. -1.
          1   -1    0    0  502    0  0.00000000000E+00 -0.00000000000E+00 -0.10198911881E+03  0.10198911881E+03  0.00000000000E+00 0.  1.
          6    1    1    2  502    0  0.44442810274E+02  0.10598052193E+02  0.34280689382E+02  0.18123644159E+03  0.17200000000E+03 0.  1.
         -6    1    1    2    0  501 -0.44442810274E+02 -0.10598052193E+02  0.24919922418E+03  0.30622170960E+03  0.17200000000E+03 0. -1.
</event>
<event>
 4    1  0.4363334E-001  0.2267869E+03  0.7818608E-02  0.1128922E+00
          1   -1    0    0  502    0  0.00000000000E+00  0.00000000000E+00  0.95348706363E+02  0.95348706363E+02  0.00000000000E+00 0. -1.
         -1   -1    0    0    0  501 -0.00000000000E+00 -0.00000000000E+00 -0.88447031899E+03  0.88447031899E+03  0.00000000000E+00 0.  1.
          6    1    1    2  502    0 -0.10131466892E+03 -0.10762734577E+03 -0.88561796507E+02  0.24346560229E+03  0.17200000000E+03 0. -1.
         -6    1    1    2    0  501  0.10131466892E+03  0.10762734577E+03 -0.70055981612E+03  0.73635342307E+03  0.17200000000E+03 0.  1.
</event>
<event>
 4    1  0.4363334E-001  0.1736630E+03  0.7818608E-02  0.1174081E+00
          1   -1    0    0  502    0  0.00000000000E+00  0.00000000000E+00  0.13989626093E+03  0.13989626093E+03  0.00000000000E+00 0. -1.
         -1   -1    0    0    0  501 -0.00000000000E+00 -0.00000000000E+00 -0.22805054594E+03  0.22805054594E+03  0.00000000000E+00 0.  1.
          6    1    1    2  502    0 -0.75477571680E+01  0.22756621314E+02 -0.87098355479E+02  0.19428061143E+03  0.17200000000E+03 0.  1.
         -6    1    1    2    0  501  0.75477571680E+01 -0.22756621314E+02 -0.10559295354E+01  0.17366619544E+03  0.17200000000E+03 0. -1.
</event>
<event>
 4    1  0.4363334E-001  0.2283540E+03  0.7818608E-02  0.1127804E+00
         -2   -1    0    0    0  501 -0.00000000000E+00  0.00000000000E+00  0.39927890015E+02  0.39927890015E+02  0.00000000000E+00 0.  1.
          2   -1    0    0  502    0  0.00000000000E+00 -0.00000000000E+00 -0.13689259761E+04  0.13689259761E+04  0.00000000000E+00 0. -1.
          6    1    1    2  502    0  0.79768642162E+02 -0.12727344619E+03 -0.81553600663E+03  0.84690291326E+03  0.17200000000E+03 0. -1.
         -6    1    1    2    0  501 -0.79768642162E+02  0.12727344619E+03 -0.51346207944E+03  0.56195095284E+03  0.17200000000E+03 0. -1.
</event>
<event>
 4    1  0.4363334E-001  0.2904485E+03  0.7818608E-02  0.1090115E+00
          2   -1    0    0  502    0  0.00000000000E+00  0.00000000000E+00  0.84555098307E+03  0.84555098307E+03  0.00000000000E+00 0. -1.
         -2   -1    0    0    0  501 -0.00000000000E+00 -0.00000000000E+00 -0.14028604554E+03  0.14028604554E+03  0.00000000000E+00 0.  1.
          6    1    1    2  502    0 -0.18975029487E+03  0.13700791413E+03  0.61753321740E+03  0.68242773796E+03  0.17200000000E+03 0. -1.
         -6    1    1    2    0  501  0.18975029487E+03 -0.13700791413E+03  0.87731720119E+02  0.30340929065E+03  0.17200000000E+03 0.  1.
</event>
<event>
 4    1  0.4363334E-001  0.1783293E+03  0.7818608E-02  0.1169430E+00
          2   -1    0    0  502    0  0.00000000000E+00  0.00000000000E+00  0.42576681102E+03  0.42576681102E+03  0.00000000000E+00 0. -1.
         -2   -1    0    0    0  501 -0.00000000000E+00 -0.00000000000E+00 -0.81736019801E+02  0.81736019801E+02  0.00000000000E+00 0.  1.
          6    1    1    2  502    0 -0.33418267015E+02  0.33174406544E+02  0.24650845993E+03  0.30424947434E+03  0.17200000000E+03 0. -1.
         -6    1    1    2    0  501  0.33418267015E+02 -0.33174406544E+02  0.97522331286E+02  0.20325335648E+03  0.17200000000E+03 0. -1.
</event>
<event>
 4    1  0.4363334E-001  0.1836683E+03  0.7818608E-02  0.1164299E+00
         -1   -1    0    0    0  501 -0.00000000000E+00  0.00000000000E+00  0.15236248458E+02  0.15236248458E+02  0.00000000000E+00 0. -1.
          1   -1    0    0  502    0  0.00000000000E+00 -0.00000000000E+00 -0.24155440706E+04  0.24155440706E+04  0.00000000000E+00 0.  1.
          6    1    1    2  502    0 -0.64401713418E+02  0.15690738103E+01 -0.84914080945E+03  0.86877739206E+03  0.17200000000E+03 0. -1.
         -6    1    1    2    0  501  0.64401713418E+02 -0.15690738103E+01 -0.15511670127E+04  0.15620029270E+04  0.17200000000E+03 0.  1.
</event>
<event>
 4    1  0.4363334E-001  0.1738320E+03  0.7818608E-02  0.1173910E+00
         -2   -1    0    0    0  501 -0.00000000000E+00  0.00000000000E+00  0.18327808265E+03  0.18327808265E+03  0.00000000000E+00 0. -1.
          2   -1    0    0  502    0  0.00000000000E+00 -0.00000000000E+00 -0.18055406393E+03  0.18055406393E+03  0.00000000000E+00 0.  1.
          6    1    1    2  502    0 -0.19875469978E+02  0.15444304785E+02  0.54973602415E+02  0.18231746438E+03  0.17200000000E+03 0. -1.
         -6    1    1    2    0  501  0.19875469978E+02 -0.15444304785E+02 -0.52249583688E+02  0.18151468220E+03  0.17200000000E+03 0.  1.
</event>
<event>
 4    1  0.4363334E-001  0.1823950E+03  0.7818608E-02  0.1165505E+00
         -2   -1    0    0    0  501 -0.00000000000E+00  0.00000000000E+00  0.18107765659E+03  0.18107765659E+03  0.00000000000E+00 0.  1.
          2   -1    0    0  502    0  0.00000000000E+00 -0.00000000000E+00 -0.18747875672E+03  0.18747875672E+03  0.00000000000E+00 0. -1.
          6    1    1    2  502    0  0.33777543626E+02 -0.50428173058E+02 -0.29286870371E+02  0.18473127474E+03  0.17200000000E+03 0. -1.
         -6    1    1    2    0  501 -0.33777543626E+02  0.50428173058E+02  0.22885770246E+02  0.18382513857E+03  0.17200000000E+03 0. -1.
</event>
<event>
 4    1  0.4363334E-001  0.1771122E+03  0.7818608E-02  0.1170627E+00
          2   -1    0    0  502    0  0.00000000000E+00  0.00000000000E+00  0.23630942596E+04  0.23630942596E+04  0.00000000000E+00 0. -1.
         -2   -1    0    0    0  501 -0.00000000000E+00 -0.00000000000E+00 -0.23689955324E+02  0.23689955324E+02  0.00000000000E+00 0.  1.
          6    1    1    2  502    0 -0.19490619122E+02 -0.37481248275E+02  0.37840128805E+03  0.41779930948E+03  0.17200000000E+03 0.  1.
         -6    1    1    2    0  501  0.19490619122E+02  0.37481248275E+02  0.19610030162E+04  0.19689849054E+04  0.17200000000E+03 0. -1.
</event>
<event>
 4    1  0.4363334E-001  0.1788200E+03  0.7818608E-02  0.1168950E+00
          2   -1    0    0  502    0  0.00000000000E+00  0.00000000000E+00  0.17983262074E+04  0.17983262074E+04  0.00000000000E+00 0.  1.
         -2   -1    0    0    0  501 -0.00000000000E+00 -0.00000000000E+00 -0.17807714833E+02  0.17807714833E+02  0.00000000000E+00 0. -1.
          6    1    1    2  502    0  0.24038381404E+01 -0.48855028915E+02  0.85529119481E+03  0.87378465322E+03  0.17200000000E+03 0. -1.
         -6    1    1    2    0  501 -0.24038381404E+01  0.48855028915E+02  0.92522729773E+03  0.94234926898E+03  0.17200000000E+03 0.  1.
</event>
<event>
 4    1  0.4363334E-001  0.1781753E+03  0.7818608E-02  0.1169581E+00
          2   -1    0    0  502    0  0.00000000000E+00  0.00000000000E+00  0.15834044054E+04  0.15834044054E+04  0.00000000000E+00 0.  1.
         -2   -1    0    0    0  501 -0.00000000000E+00 -0.00000000000E+00 -0.20065013596E+02  0.20065013596E+02  0.00000000000E+00 0. -1.
          6    1    1    2  502    0 -0.45556272098E+02  0.93298612315E+01  0.80398366768E+03  0.82349022953E+03  0.17200000000E+03 0. -1.
         -6    1    1    2    0  501  0.45556272098E+02 -0.93298612315E+01  0.75935572417E+03  0.77997918951E+03  0.17200000000E+03 0.  1.
</event>
<event>
 4    1  0.4363334E-001  0.1957873E+03  0.7818608E-02  0.1153343E+00
         -2   -1    0    0    0  501 -0.00000000000E+00  0.00000000000E+00  0.68075604940E+02  0.68075604940E+02  0.00000000000E+00 0. -1.
          2   -1    0    0  502    0  0.00000000000E+00 -0.00000000000E+00 -0.60521689311E+03  0.60521689311E+03  0.00000000000E+00 0.  1.
          6    1    1    2  502    0  0.58440021449E+02 -0.73030436429E+02 -0.35738820760E+03  0.40750338856E+03  0.17200000000E+03 0.  1.
         -6    1    1    2    0  501 -0.58440021449E+02  0.73030436429E+02 -0.17975308057E+03  0.26578910950E+03  0.17200000000E+03 0. -1.
</event>
<event>
 4    1  0.4363334E-001  0.2325057E+03  0.7818608E-02  0.1124888E+00
         -2   -1    0    0    0  501 -0.00000000000E+00  0.00000000000E+00  0.63242261025E+02  0.63242261025E+02  0.00000000000E+00 0.  1.
          2   -1    0    0  502    0  0.00000000000E+00 -0.00000000000E+00 -0.89145783078E+03  0.89145783078E+03  0.00000000000E+00 0. -1.
          6    1    1    2  502    0  0.15636141385E+03  0.51015316889E+01 -0.51091842307E+03  0.56133461714E+03  0.17200000000E+03 0. -1.
         -6    1    1    2    0  501 -0.15636141385E+03 -0.51015316889E+01 -0.31729714669E+03  0.39336547467E+03  0.17200000000E+03 0.  1.
</event>
<event>
 4    1  0.4363334E-001  0.1759828E+03  0.7818608E-02  0.1171749E+00
         -2   -1    0    0    0  501 -0.00000000000E+00  0.00000000000E+00  0.10246620233E+03  0.10246620233E+03  0.00000000000E+00 0. -1.
          2   -1    0    0  502    0  0.00000000000E+00 -0.00000000000E+00 -0.51794107242E+03  0.51794107242E+03  0.00000000000E+00 0.  1.
          6    1    1    2  502    0 -0.88197032483E+01  0.36168271978E+02 -0.75542950256E+01  0.17614482234E+03  0.17200000000E+03 0. -1.
         -6    1    1    2    0  501  0.88197032483E+01 -0.36168271978E+02 -0.40792057506E+03  0.44426245241E+03  0.17200000000E+03 0.  1.
</event>
<event>
 4    1  0.4363334E-001  0.1858869E+03  0.7818608E-02  0.1162224E+00
         -2   -1    0    0    0  501 -0.00000000000E+00  0.00000000000E+00  0.13249192641E+02  0.13249192641E+02  0.00000000000E+00 0. -1.
          2   -1    0    0  502    0  0.00000000000E+00 -0.00000000000E+00 -0.26358253924E+04  0.26358253924E+04  0.00000000000E+00 0.  1.
          6    1    1    2  502    0 -0.34384136645E+01 -0.70413814174E+02 -0.11752041885E+04  0.11898146127E+04  0.17200000000E+03 0.  1.
         -6    1    1    2    0  501  0.34384136645E+01  0.70413814174E+02 -0.14473720113E+04  0.14592599724E+04  0.17200000000E+03 0.  1.
</event>
<event>
 4    1  0.4363334E-001  0.1760859E+03  0.7818608E-02  0.1171646E+00
         -2   -1    0    0    0  501 -0.00000000000E+00  0.00000000000E+00  0.31441124848E+02  0.31441124848E+02  0.00000000000E+00 0. -1.
          2   -1    0    0  502    0  0.00000000000E+00 -0.00000000000E+00 -0.13033220268E+04  0.13033220268E+04  0.00000000000E+00 0.  1.
          6    1    1    2  502    0  0.37066480588E+02 -0.69524326025E+01 -0.30672301601E+03  0.35367395840E+03  0.17200000000E+03 0. -1.
         -6    1    1    2    0  501 -0.37066480588E+02  0.69524326025E+01 -0.96515788590E+03  0.98108919320E+03  0.17200000000E+03 0.  1.
</event>
<event>
 4    1  0.4363334E-001  0.3569374E+03  0.7818608E-02  0.1059803E+00
         -2   -1    0    0    0  501 -0.00000000000E+00  0.00000000000E+00  0.19381638747E+03  0.19381638747E+03  0.00000000000E+00 0. -1.
          2   -1    0    0  502    0  0.00000000000E+00 -0.00000000000E+00 -0.75808141090E+03  0.75808141090E+03  0.00000000000E+00 0.  1.
          6    1    1    2  502    0 -0.19708136587E+03 -0.24285647163E+03 -0.45563054530E+03  0.57879488974E+03  0.17200000000E+03 0.  1.
         -6    1    1    2    0  501  0.19708136587E+03  0.24285647163E+03 -0.10863447814E+03  0.37310290863E+03  0.17200000000E+03 0. -1.
</event>
<event>
 4    1  0.4363334E-001  0.2246868E+03  0.7818608E-02  0.1130436E+00
         -2   -1    0    0    0  501 -0.00000000000E+00  0.00000000000E+00  0.43322167718E+02  0.43322167718E+02  0.00000000000E+00 0. -1.
          2   -1    0    0  502    0  0.00000000000E+00 -0.00000000000E+00 -0.12258626391E+04  0.12258626391E+04  0.00000000000E+00 0.  1.
          6    1    1    2  502    0  0.14385789992E+03 -0.14319322673E+02 -0.73229935284E+03  0.76599378623E+03  0.17200000000E+03 0.  1.
         -6    1    1    2    0  501 -0.14385789992E+03  0.14319322673E+02 -0.45024111850E+03  0.50319102055E+03  0.17200000000E+03 0. -1.
</event>
<event>
 4    1  0.4363334E-001  0.3366006E+03  0.7818608E-02  0.1068253E+00
          2   -1    0    0  502    0  0.00000000000E+00  0.00000000000E+00  0.73066253652E+03  0.73066253652E+03  0.00000000000E+00 0. -1.
         -2   -1    0    0    0  501 -0.00000000000E+00 -0.00000000000E+00 -0.15540243337E+03  0.15540243337E+03  0.00000000000E+00 0.  1.
          6    1    1    2  502    0 -0.20468032388E+03  0.20450406623E+03  0.26697575916E+03  0.42962309535E+03  0.17200000000E+03 0.  1.
         -6    1    1    2    0  501  0.20468032388E+03 -0.20450406623E+03  0.30828434399E+03  0.45644187454E+03  0.17200000000E+03 0.  1.
</event>
<event>
 4    1  0.4363334E-001  0.3022800E+03  0.7818608E-02  0.1084106E+00
          1   -1    0    0  502    0  0.00000000000E+00  0.00000000000E+00  0.43506292612E+03  0.43506292612E+03  0.00000000000E+00 0. -1.
         -1   -1    0    0    0  501 -0.00000000000E+00 -0.00000000000E+00 -0.21075535768E+03  0.21075535768E+03  0.00000000000E+00 0.  1.
          6    1    1    2  502    0 -0.16091585951E+03 -0.18946049305E+03  0.13118963021E+03  0.32952072976E+03  0.17200000000E+03 0.  1.
         -6    1    1    2    0  501  0.16091585951E+03  0.18946049305E+03  0.93117938220E+02  0.31629755403E+03  0.17200000000E+03 0. -1.
</event>
<event>
 4    1  0.4363334E-001  0.2508889E+03  0.7818608E-02  0.1112744E+00
         -2   -1    0    0    0  501 -0.00000000000E+00  0.00000000000E+00  0.60414169372E+02  0.60414169372E+02  0.00000000000E+00 0. -1.
          2   -1    0    0  502    0  0.00000000000E+00 -0.00000000000E+00 -0.11207565184E+04  0.11207565184E+04  0.00000000000E+00 0.  1.
          6    1    1    2  502    0 -0.16077440561E+02  0.18194167669E+03 -0.68683110078E+03  0.73121967890E+03  0.17200000000E+03 0.  1.
         -6    1    1    2    0  501  0.16077440561E+02 -0.18194167669E+03 -0.37351124820E+03  0.44995100882E+03  0.17200000000E+03 0. -1.
</event>
<event>
 4    1  0.4363334E-001  0.1849799E+03  0.7818608E-02  0.1163069E+00
         -1   -1    0    0    0  501 -0.00000000000E+00  0.00000000000E+00  0.11501492300E+03  0.11501492300E+03  0.00000000000E+00 0.  1.
          1   -1    0    0  502    0  0.00000000000E+00 -0.00000000000E+00 -0.30039459569E+03  0.30039459569E+03  0.00000000000E+00 0. -1.
          6    1    1    2  502    0 -0.10371426448E+02 -0.67275579776E+02 -0.72320227194E+02  0.19861466558E+03  0.17200000000E+03 0.  1.
         -6    1    1    2    0  501  0.10371426448E+02  0.67275579776E+02 -0.11305944550E+03  0.21679485311E+03  0.17200000000E+03 0. -1.
</event>
<event>
 4    1  0.4363334E-001  0.1729417E+03  0.7818608E-02  0.1174814E+00
         -2   -1    0    0    0  501 -0.00000000000E+00  0.00000000000E+00  0.13271175692E+04  0.13271175692E+04  0.00000000000E+00 0. -1.
          2   -1    0    0  502    0  0.00000000000E+00 -0.00000000000E+00 -0.36363472717E+02  0.36363472717E+02  0.00000000000E+00 0.  1.
          6    1    1    2  502    0 -0.14639422725E+02 -0.10512141437E+02  0.22499202886E+03  0.28377848909E+03  0.17200000000E+03 0.  1.
         -6    1    1    2    0  501  0.14639422725E+02  0.10512141437E+02  0.10657620676E+04  0.10797025528E+04  0.17200000000E+03 0. -1.
</event>
<event>
 4    1  0.4363334E-001  0.2164803E+03  0.7818608E-02  0.1136535E+00
          2   -1    0    0  502    0  0.00000000000E+00  0.00000000000E+00  0.47321723082E+03  0.47321723082E+03  0.00000000000E+00 0. -1.
         -2   -1    0    0    0  501 -0.00000000000E+00 -0.00000000000E+00 -0.10209253783E+03  0.10209253783E+03  0.00000000000E+00 0.  1.
          6    1    1    2  502    0  0.12915599712E+03  0.24462870961E+02  0.13575821104E+03  0.25552689782E+03  0.17200000000E+03 0. -1.
         -6    1    1    2    0  501 -0.12915599712E+03 -0.24462870961E+02  0.23536648196E+03  0.31978287083E+03  0.17200000000E+03 0. -1.
</event>
<event>
 4    1  0.4363334E-001  0.2791517E+03  0.7818608E-02  0.1096153E+00
         -3   -1    0    0    0  501 -0.00000000000E+00  0.00000000000E+00  0.12168858308E+03  0.12168858308E+03  0.00000000000E+00 0. -1.
          3   -1    0    0  502    0  0.00000000000E+00 -0.00000000000E+00 -0.76570685487E+03  0.76570685487E+03  0.00000000000E+00 0.  1.
          6    1    1    2  502    0 -0.29550459689E+02 -0.21787256013E+03 -0.50152210694E+03  0.57397744370E+03  0.17200000000E+03 0.  1.
         -6    1    1    2    0  501  0.29550459689E+02  0.21787256013E+03 -0.14249616485E+03  0.31341799426E+03  0.17200000000E+03 0. -1.
</event>
<event>
 4    1  0.4363334E-001  0.1985883E+03  0.7818608E-02  0.1150936E+00
         -2   -1    0    0    0  501 -0.00000000000E+00  0.00000000000E+00  0.16106024859E+02  0.16106024859E+02  0.00000000000E+00 0.  1.
          2   -1    0    0  502    0  0.00000000000E+00 -0.00000000000E+00 -0.26284689791E+04  0.26284689791E+04  0.00000000000E+00 0. -1.
          6    1    1    2  502    0 -0.92401461521E+02 -0.36266733576E+02 -0.96028544113E+03  0.98060462700E+03  0.17200000000E+03 0. -1.
         -6    1    1    2    0  501  0.92401461521E+02  0.36266733576E+02 -0.16520775131E+04  0.16639703770E+04  0.17200000000E+03 0. -1.
</event>
<event>
 4    1  0.4363334E-001  0.2293442E+03  0.7818608E-02  0.1127102E+00
          2   -1    0    0  502    0  0.00000000000E+00  0.00000000000E+00  0.36152815736E+03  0.36152815736E+03  0.00000000000E+00 0.  1.
         -2   -1    0    0    0  501 -0.00000000000E+00 -0.00000000000E+00 -0.14569018227E+03  0.14569018227E+03  0.00000000000E+00 0. -1.
          6    1    1    2  502    0  0.14852194280E+03  0.30918979472E+02  0.98519480399E+02  0.24960937243E+03  0.17200000000E+03 0.  1.
         -6    1    1    2    0  501 -0.14852194280E+03 -0.30918979472E+02  0.11731849470E+03  0.25760896720E+03  0.17200000000E+03 0.  1.
</event>
<event>
 4    1  0.4363334E-001  0.1768242E+03  0.7818608E-02  0.1170912E+00
         -1   -1    0    0    0  501 -0.00000000000E+00  0.00000000000E+00  0.18328164608E+02  0.18328164608E+02  0.00000000000E+00 0.  1.
          1   -1    0    0  502    0  0.00000000000E+00 -0.00000000000E+00 -0.17077192143E+04  0.17077192143E+04  0.00000000000E+00 0. -1.
          6    1    1    2  502    0 -0.74227100837E+01  0.40344843476E+02 -0.87252913068E+03  0.89026618879E+03  0.17200000000E+03 0. -1.
         -6    1    1    2    0  501  0.74227100837E+01 -0.40344843476E+02 -0.81686191900E+03  0.83578119011E+03  0.17200000000E+03 0.  1.
</event>
<event>
 4    1  0.4363334E-001  0.1758772E+03  0.7818608E-02  0.1171854E+00
         -2   -1    0    0    0  501 -0.00000000000E+00  0.00000000000E+00  0.81365740950E+02  0.81365740950E+02  0.00000000000E+00 0. -1.
          2   -1    0    0  502    0  0.00000000000E+00 -0.00000000000E+00 -0.41077758637E+03  0.41077758637E+03  0.00000000000E+00 0.  1.
          6    1    1    2  502    0 -0.14702865479E+02  0.33654494776E+02 -0.23187572024E+03  0.29103118203E+03  0.17200000000E+03 0.  1.
         -6    1    1    2    0  501  0.14702865479E+02 -0.33654494776E+02 -0.97536125180E+02  0.20111214530E+03  0.17200000000E+03 0. -1.
</event>
<event>
 4    1  0.4363334E-001  0.1777981E+03  0.7818608E-02  0.1169951E+00
         -2   -1    0    0    0  501 -0.00000000000E+00  0.00000000000E+00  0.29424370237E+02  0.29424370237E+02  0.00000000000E+00 0.  1.
          2   -1    0    0  502    0  0.00000000000E+00 -0.00000000000E+00 -0.10854352790E+04  0.10854352790E+04  0.00000000000E+00 0. -1.
          6    1    1    2  502    0  0.41819264202E+02  0.16712917857E+02 -0.47168129031E+03  0.50407877570E+03  0.17200000000E+03 0. -1.
         -6    1    1    2    0  501 -0.41819264202E+02 -0.16712917857E+02 -0.58432961850E+03  0.61078087358E+03  0.17200000000E+03 0. -1.
</event>
<event>
 4    1  0.4363334E-001  0.2327956E+03  0.7818608E-02  0.1124687E+00
         -1   -1    0    0    0  501 -0.00000000000E+00  0.00000000000E+00  0.24670344984E+03  0.24670344984E+03  0.00000000000E+00 0.  1.
          1   -1    0    0  502    0  0.00000000000E+00 -0.00000000000E+00 -0.31858315397E+03  0.31858315397E+03  0.00000000000E+00 0. -1.
          6    1    1    2  502    0  0.14193637999E+03  0.66811948116E+02 -0.19342896341E+03  0.30266902098E+03  0.17200000000E+03 0. -1.
         -6    1    1    2    0  501 -0.14193637999E+03 -0.66811948116E+02  0.12154925929E+03  0.26261758283E+03  0.17200000000E+03 0.  1.
</event>
<event>
 4    1  0.4363334E-001  0.1746893E+03  0.7818608E-02  0.1173044E+00
          2   -1    0    0  502    0  0.00000000000E+00  0.00000000000E+00  0.23964477741E+04  0.23964477741E+04  0.00000000000E+00 0.  1.
         -2   -1    0    0    0  501 -0.00000000000E+00 -0.00000000000E+00 -0.14741966117E+02  0.14741966117E+02  0.00000000000E+00 0. -1.
          6    1    1    2  502    0  0.25346139876E+02  0.17027294106E+02  0.16357938221E+04  0.16450950684E+04  0.17200000000E+03 0.  1.
         -6    1    1    2    0  501 -0.25346139876E+02 -0.17027294106E+02  0.74591198591E+03  0.76609467188E+03  0.17200000000E+03 0. -1.
</event>
<event>
 4    1  0.4363334E-001  0.1729547E+03  0.7818608E-02  0.1174801E+00
         -2   -1    0    0    0  501 -0.00000000000E+00  0.00000000000E+00  0.10499541698E+04  0.10499541698E+04  0.00000000000E+00 0.  1.
          2   -1    0    0  502    0  0.00000000000E+00 -0.00000000000E+00 -0.45573947941E+02  0.45573947941E+02  0.00000000000E+00 0. -1.
          6    1    1    2  502    0  0.17620119878E+02 -0.43419977806E+01  0.16681735019E+03  0.24029429851E+03  0.17200000000E+03 0. -1.
         -6    1    1    2    0  501 -0.17620119878E+02  0.43419977806E+01  0.83756287168E+03  0.85523381925E+03  0.17200000000E+03 0.  1.
</event>
<event>
 4    1  0.4363334E-001  0.3249812E+03  0.7818608E-02  0.1073379E+00
         -2   -1    0    0    0  501 -0.00000000000E+00  0.00000000000E+00  0.38583482003E+02  0.38583482003E+02  0.00000000000E+00 0.  1.
          2   -1    0    0  502    0  0.00000000000E+00 -0.00000000000E+00 -0.27695009775E+04  0.27695009775E+04  0.00000000000E+00 0. -1.
          6    1    1    2  502    0  0.23067292010E+03  0.15105881513E+03 -0.12139530611E+04  0.12566999627E+04  0.17200000000E+03 0.  1.
         -6    1    1    2    0  501 -0.23067292010E+03 -0.15105881513E+03 -0.15169644345E+04  0.15513844969E+04  0.17200000000E+03 0. -1.
</event>
<event>
 4    1  0.4363334E-001  0.1984772E+03  0.7818608E-02  0.1151030E+00
         -2   -1    0    0    0  501 -0.00000000000E+00  0.00000000000E+00  0.46202065056E+03  0.46202065056E+03  0.00000000000E+00 0. -1.
          2   -1    0    0  502    0  0.00000000000E+00 -0.00000000000E+00 -0.12628617818E+03  0.12628617818E+03  0.00000000000E+00 0.  1.
          6    1    1    2  502    0 -0.81493946751E+02  0.56284357779E+02  0.21417481177E+00  0.19847729885E+03  0.17200000000E+03 0.  1.
         -6    1    1    2    0  501  0.81493946751E+02 -0.56284357779E+02  0.33552029757E+03  0.38982952988E+03  0.17200000000E+03 0. -1.
</event>
<event>
 4    1  0.4363334E-001  0.4214040E+03  0.7818608E-02  0.1036610E+00
         -2   -1    0    0    0  501 -0.00000000000E+00  0.00000000000E+00  0.11814512514E+03  0.11814512514E+03  0.00000000000E+00 0. -1.
          2   -1    0    0  502    0  0.00000000000E+00 -0.00000000000E+00 -0.15116808337E+04  0.15116808337E+04  0.00000000000E+00 0.  1.
          6    1    1    2  502    0  0.32841098874E+03  0.20035850827E+03 -0.75824421493E+03  0.86747656962E+03  0.17200000000E+03 0.  1.
         -6    1    1    2    0  501 -0.32841098874E+03 -0.20035850827E+03 -0.63529149363E+03  0.76234938922E+03  0.17200000000E+03 0. -1.
</event>
<event>
 4    1  0.4363334E-001  0.2082886E+03  0.7818608E-02  0.1142928E+00
          2   -1    0    0  502    0  0.00000000000E+00  0.00000000000E+00  0.36686563448E+04  0.36686563448E+04  0.00000000000E+00 0.  1.
         -2   -1    0    0    0  501 -0.00000000000E+00 -0.00000000000E+00 -0.12238106424E+02  0.12238106424E+02  0.00000000000E+00 0. -1.
          6    1    1    2  502    0 -0.84700154510E+02 -0.81400473039E+02  0.14903243641E+04  0.15048092448E+04  0.17200000000E+03 0. -1.
         -6    1    1    2    0  501  0.84700154510E+02  0.81400473039E+02  0.21660938743E+04  0.21760852064E+04  0.17200000000E+03 0.  1.
</event>
<event>
 4    1  0.4363334E-001  0.2283342E+03  0.7818608E-02  0.1127818E+00
         -2   -1    0    0    0  501 -0.00000000000E+00  0.00000000000E+00  0.17111421156E+02  0.17111421156E+02  0.00000000000E+00 0. -1.
          2   -1    0    0  502    0  0.00000000000E+00 -0.00000000000E+00 -0.31875749838E+04  0.31875749838E+04  0.00000000000E+00 0.  1.
          6    1    1    2  502    0  0.10966663660E+03 -0.10259503228E+03 -0.19218664088E+04  0.19353829092E+04  0.17200000000E+03 0.  1.
         -6    1    1    2    0  501 -0.10966663660E+03  0.10259503228E+03 -0.12485971539E+04  0.12693034958E+04  0.17200000000E+03 0.  1.
</event>
<event>
 4    1  0.4363334E-001  0.1734821E+03  0.7818608E-02  0.1174264E+00
         -1   -1    0    0    0  501 -0.00000000000E+00  0.00000000000E+00  0.31236264980E+02  0.31236264980E+02  0.00000000000E+00 0. -1.
          1   -1    0    0  502    0  0.00000000000E+00 -0.00000000000E+00 -0.11003106963E+04  0.11003106963E+04  0.00000000000E+00 0.  1.
          6    1    1    2  502    0  0.92239504338E+01 -0.20663180506E+02 -0.73404032678E+03  0.75426205633E+03  0.17200000000E+03 0.  1.
         -6    1    1    2    0  501 -0.92239504338E+01  0.20663180506E+02 -0.33503410451E+03  0.37728490491E+03  0.17200000000E+03 0. -1.
</event>
<event>
 4    1  0.4363334E-001  0.1930896E+03  0.7818608E-02  0.1155704E+00
          2   -1    0    0  502    0  0.00000000000E+00  0.00000000000E+00  0.54408625046E+03  0.54408625046E+03  0.00000000000E+00 0.  1.
         -2   -1    0    0    0  501 -0.00000000000E+00 -0.00000000000E+00 -0.68755318223E+02  0.68755318223E+02  0.00000000000E+00 0. -1.
          6    1    1    2  502    0  0.68627910938E+02  0.54679002224E+02  0.25539520994E+03  0.32017229222E+03  0.17200000000E+03 0. -1.
         -6    1    1    2    0  501 -0.68627910938E+02 -0.54679002224E+02  0.21993572229E+03  0.29266927646E+03  0.17200000000E+03 0.  1.
</event>
<event>
 4    1  0.4363334E-001  0.2227731E+03  0.7818608E-02  0.1131832E+00
         -1   -1    0    0    0  501 -0.00000000000E+00  0.00000000000E+00  0.92115786948E+02  0.92115786948E+02  0.00000000000E+00 0.  1.
          1   -1    0    0  502    0  0.00000000000E+00 -0.00000000000E+00 -0.55679105399E+03  0.55679105399E+03  0.00000000000E+00 0. -1.
          6    1    1    2  502    0 -0.23758720689E+01  0.14155636370E+03 -0.29073267088E+03  0.36626948383E+03  0.17200000000E+03 0. -1.
         -6    1    1    2    0  501  0.23758720689E+01 -0.14155636370E+03 -0.17394259616E+03  0.28263735710E+03  0.17200000000E+03 0.  1.
</event>
<event>
 4    1  0.4363334E-001  0.1789574E+03  0.7818608E-02  0.1168816E+00
          2   -1    0    0  502    0  0.00000000000E+00  0.00000000000E+00  0.91064162354E+03  0.91064162354E+03  0.00000000000E+00 0. -1.
         -2   -1    0    0    0  501 -0.00000000000E+00 -0.00000000000E+00 -0.36220602903E+02  0.36220602903E+02  0.00000000000E+00 0.  1.
          6    1    1    2  502    0 -0.46058018722E+02  0.17899745851E+02  0.51790499693E+03  0.54795193935E+03  0.17200000000E+03 0. -1.
         -6    1    1    2    0  501  0.46058018722E+02 -0.17899745851E+02  0.35651602370E+03  0.39891028709E+03  0.17200000000E+03 0.  1.
</event>
<event>
 4    1  0.4363334E-001  0.1922294E+03  0.7818608E-02  0.1156466E+00
          2   -1    0    0  502    0  0.00000000000E+00  0.00000000000E+00  0.11307096854E+04  0.11307096854E+04  0.00000000000E+00 0. -1.
         -2   -1    0    0    0  501 -0.00000000000E+00 -0.00000000000E+00 -0.32766829998E+02  0.32766829998E+02  0.00000000000E+00 0.  1.
          6    1    1    2  502    0  0.78618251714E+02 -0.34457551479E+02  0.57883237311E+03  0.60991726367E+03  0.17200000000E+03 0. -1.
         -6    1    1    2    0  501 -0.78618251714E+02  0.34457551479E+02  0.51911048233E+03  0.55355925177E+03  0.17200000000E+03 0.  1.
</event>
<event>
 4    1  0.4363334E-001  0.2206037E+03  0.7818608E-02  0.1133434E+00
         -2   -1    0    0    0  501 -0.00000000000E+00  0.00000000000E+00  0.54990873271E+03  0.54990873271E+03  0.00000000000E+00 0.  1.
          2   -1    0    0  502    0  0.00000000000E+00 -0.00000000000E+00 -0.92374113453E+02  0.92374113453E+02  0.00000000000E+00 0. -1.
          6    1    1    2  502    0 -0.12586471852E+03 -0.56921552853E+02  0.16298602369E+03  0.27428166994E+03  0.17200000000E+03 0.  1.
         -6    1    1    2    0  501  0.12586471852E+03  0.56921552853E+02  0.29454859557E+03  0.36800117622E+03  0.17200000000E+03 0.  1.
</event>
<event>
 4    1  0.4363334E-001  0.3043439E+03  0.7818608E-02  0.1083089E+00
          2   -1    0    0  502    0  0.00000000000E+00  0.00000000000E+00  0.43301988664E+04  0.43301988664E+04  0.00000000000E+00 0.  1.
         -2   -1    0    0    0  501 -0.00000000000E+00 -0.00000000000E+00 -0.26864128166E+02  0.26864128166E+02  0.00000000000E+00 0. -1.
          6    1    1    2  502    0 -0.10274686848E+03  0.22909455233E+03  0.31350308344E+04  0.31497688115E+04  0.17200000000E+03 0.  1.
         -6    1    1    2    0  501  0.10274686848E+03 -0.22909455233E+03  0.11683039038E+04  0.12072941831E+04  0.17200000000E+03 0. -1.
</event>
<event>
 4    1  0.4363334E-001  0.2702052E+03  0.7818608E-02  0.1101162E+00
          2   -1    0    0  502    0  0.00000000000E+00  0.00000000000E+00  0.75883473388E+03  0.75883473388E+03  0.00000000000E+00 0. -1.
         -2   -1    0    0    0  501 -0.00000000000E+00 -0.00000000000E+00 -0.13419884468E+03  0.13419884468E+03  0.00000000000E+00 0.  1.
          6    1    1    2  502    0  0.12197250922E+03  0.16896610750E+03  0.54987406340E+03  0.61267636163E+03  0.17200000000E+03 0. -1.
         -6    1    1    2    0  501 -0.12197250922E+03 -0.16896610750E+03  0.74761825797E+02  0.28035721694E+03  0.17200000000E+03 0. -1.
</event>
<event>
 4    1  0.4363334E-001  0.2398782E+03  0.7818608E-02  0.1119874E+00
         -2   -1    0    0    0  501 -0.00000000000E+00  0.00000000000E+00  0.26445054925E+02  0.26445054925E+02  0.00000000000E+00 0.  1.
          2   -1    0    0  502    0  0.00000000000E+00 -0.00000000000E+00 -0.21760686742E+04  0.21760686742E+04  0.00000000000E+00 0. -1.
          6    1    1    2  502    0  0.10433706400E+03  0.13065721673E+03 -0.10648335817E+04  0.10915182491E+04  0.17200000000E+03 0. -1.
         -6    1    1    2    0  501 -0.10433706400E+03 -0.13065721673E+03 -0.10847900375E+04  0.11109954800E+04  0.17200000000E+03 0.  1.
</event>
<event>
 4    1  0.4363334E-001  0.2094800E+03  0.7818608E-02  0.1141978E+00
          1   -1    0    0  502    0  0.00000000000E+00  0.00000000000E+00  0.42880646168E+03  0.42880646168E+03  0.00000000000E+00 0. -1.
         -1   -1    0    0    0  501 -0.00000000000E+00 -0.00000000000E+00 -0.11330219466E+03  0.11330219466E+03  0.00000000000E+00 0.  1.
          6    1    1    2  502    0  0.40922778992E+02  0.11235306367E+03  0.24208290870E+03  0.32013437716E+03  0.17200000000E+03 0. -1.
         -6    1    1    2    0  501 -0.40922778992E+02 -0.11235306367E+03  0.73421358321E+02  0.22197427917E+03  0.17200000000E+03 0.  1.
</event>
<event>
 4    1  0.4363334E-001  0.1946835E+03  0.7818608E-02  0.1154304E+00
         -3   -1    0    0    0  501 -0.00000000000E+00  0.00000000000E+00  0.22010315853E+03  0.22010315853E+03  0.00000000000E+00 0.  1.
          3   -1    0    0  502    0  0.00000000000E+00 -0.00000000000E+00 -0.28511819755E+03  0.28511819755E+03  0.00000000000E+00 0. -1.
          6    1    1    2  502    0 -0.46209406850E+02 -0.78627979511E+02 -0.19148003221E+03  0.27306825370E+03  0.17200000000E+03 0. -1.
         -6    1    1    2    0  501  0.46209406850E+02  0.78627979511E+02  0.12646499319E+03  0.23215310238E+03  0.17200000000E+03 0.  1.
</event>
<event>
 4    1  0.4363334E-001  0.2671210E+03  0.7818608E-02  0.1102939E+00
          3   -1    0    0  502    0  0.00000000000E+00  0.00000000000E+00  0.79332460219E+02  0.79332460219E+02  0.00000000000E+00 0.  1.
         -3   -1    0    0    0  501 -0.00000000000E+00 -0.00000000000E+00 -0.11583384786E+04  0.11583384786E+04  0.00000000000E+00 0. -1.
          6    1    1    2  502    0  0.18261820112E+03  0.91761860941E+02 -0.83207602854E+03  0.87390169000E+03  0.17200000000E+03 0. -1.
         -6    1    1    2    0  501 -0.18261820112E+03 -0.91761860941E+02 -0.24692998982E+03  0.36376924880E+03  0.17200000000E+03 0.  1.
</event>
<event>
 4    1  0.4363334E-001  0.2235566E+03  0.7818608E-02  0.1131259E+00
         -2   -1    0    0    0  501 -0.00000000000E+00  0.00000000000E+00  0.10911368386E+03  0.10911368386E+03  0.00000000000E+00 0. -1.
          2   -1    0    0  502    0  0.00000000000E+00 -0.00000000000E+00 -0.46211135561E+03  0.46211135561E+03  0.00000000000E+00 0.  1.
          6    1    1    2  502    0  0.98649768616E+02  0.10325590316E+03 -0.20333373256E+03  0.30219557439E+03  0.17200000000E+03 0.  1.
         -6    1    1    2    0  501 -0.98649768616E+02 -0.10325590316E+03 -0.14966393919E+03  0.26902946508E+03  0.17200000000E+03 0.  1.
</event>
<event>
 4    1  0.4363334E-001  0.2343011E+03  0.7818608E-02  0.1123649E+00
         -1   -1    0    0    0  501 -0.00000000000E+00  0.00000000000E+00  0.40123900721E+03  0.40123900721E+03  0.00000000000E+00 0.  1.
          1   -1    0    0  502    0  0.00000000000E+00 -0.00000000000E+00 -0.24963017925E+03  0.24963017925E+03  0.00000000000E+00 0. -1.
          6    1    1    2  502    0  0.13606549534E+03 -0.82457240589E+02 -0.14296758796E+03  0.27447540282E+03  0.17200000000E+03 0. -1.
         -6    1    1    2    0  501 -0.13606549534E+03  0.82457240589E+02  0.29457641592E+03  0.37639378364E+03  0.17200000000E+03 0.  1.
</event>
<event>
 4    1  0.4363334E-001  0.2136054E+03  0.7818608E-02  0.1138742E+00
          1   -1    0    0  502    0  0.00000000000E+00  0.00000000000E+00  0.52575451194E+03  0.52575451194E+03  0.00000000000E+00 0. -1.
         -1   -1    0    0    0  501 -0.00000000000E+00 -0.00000000000E+00 -0.87487165154E+02  0.87487165154E+02  0.00000000000E+00 0.  1.
          6    1    1    2  502    0 -0.23678248441E+02  0.12442912905E+03  0.24661563234E+03  0.32626145608E+03  0.17200000000E+03 0. -1.
         -6    1    1    2    0  501  0.23678248441E+02 -0.12442912905E+03  0.19165171445E+03  0.28698022102E+03  0.17200000000E+03 0.  1.
</event>
<event>
 4    1  0.4363334E-001  0.1752695E+03  0.7818608E-02  0.1172461E+00
         -2   -1    0    0    0  501 -0.00000000000E+00  0.00000000000E+00  0.26561851248E+02  0.26561851248E+02  0.00000000000E+00 0.  1.
          2   -1    0    0  502    0  0.00000000000E+00 -0.00000000000E+00 -0.23369493215E+04  0.23369493215E+04  0.00000000000E+00 0. -1.
          6    1    1    2  502    0  0.19294676054E+02  0.27624260838E+02 -0.19950839310E+04  0.20027679036E+04  0.17200000000E+03 0. -1.
         -6    1    1    2    0  501 -0.19294676054E+02 -0.27624260838E+02 -0.31530353929E+03  0.36074326910E+03  0.17200000000E+03 0.  1.
</event>
<event>
 4    1  0.4363334E-001  0.1908829E+03  0.7818608E-02  0.1157667E+00
          2   -1    0    0  502    0  0.00000000000E+00  0.00000000000E+00  0.50230193882E+03  0.50230193882E+03  0.00000000000E+00 0. -1.
         -2   -1    0    0    0  501 -0.00000000000E+00 -0.00000000000E+00 -0.96542303399E+02  0.96542303399E+02  0.00000000000E+00 0.  1.
          6    1    1    2  502    0 -0.75368838553E+02  0.34231771014E+02  0.53578293183E+02  0.19825970209E+03  0.17200000000E+03 0.  1.
         -6    1    1    2    0  501  0.75368838553E+02 -0.34231771014E+02  0.35218134224E+03  0.40058454013E+03  0.17200000000E+03 0. -1.
</event>
<event>
 4    1  0.4363334E-001  0.2973364E+03  0.7818608E-02  0.1086580E+00
          2   -1    0    0  502    0  0.00000000000E+00  0.00000000000E+00  0.33527866020E+04  0.33527866020E+04  0.00000000000E+00 0.  1.
         -2   -1    0    0    0  501 -0.00000000000E+00 -0.00000000000E+00 -0.48733389680E+02  0.48733389680E+02  0.00000000000E+00 0. -1.
          6    1    1    2  502    0 -0.15408307281E+03  0.18730543336E+03  0.28041800098E+04  0.28198997227E+04  0.17200000000E+03 0.  1.
         -6    1    1    2    0  501  0.15408307281E+03 -0.18730543336E+03  0.49987320251E+03  0.58162026897E+03  0.17200000000E+03 0. -1.
</event>
<event>
 4    1  0.4363334E-001  0.2027530E+03  0.7818608E-02  0.1147437E+00
         -2   -1    0    0    0  501 -0.00000000000E+00  0.00000000000E+00  0.21520789889E+02  0.21520789889E+02  0.00000000000E+00 0.  1.
          2   -1    0    0  502    0  0.00000000000E+00 -0.00000000000E+00 -0.23497905326E+04  0.23497905326E+04  0.00000000000E+00 0. -1.
          6    1    1    2  502    0  0.72034724886E+02  0.79597556539E+02 -0.65130456294E+03  0.68213371586E+03  0.17200000000E+03 0.  1.
         -6    1    1    2    0  501 -0.72034724886E+02 -0.79597556539E+02 -0.16769651797E+04  0.16891776066E+04  0.17200000000E+03 0.  1.
</event>
<event>
 4    1  0.4363334E-001  0.1763823E+03  0.7818608E-02  0.1171351E+00
          2   -1    0    0  502    0  0.00000000000E+00  0.00000000000E+00  0.14396230192E+04  0.14396230192E+04  0.00000000000E+00 0. -1.
         -2   -1    0    0    0  501 -0.00000000000E+00 -0.00000000000E+00 -0.23083441384E+02  0.23083441384E+02  0.00000000000E+00 0.  1.
          6    1    1    2  502    0 -0.15313400057E+02  0.35947515324E+02  0.89302434351E+03  0.91027644273E+03  0.17200000000E+03 0. -1.
         -6    1    1    2    0  501  0.15313400057E+02 -0.35947515324E+02  0.52351523426E+03  0.55243001781E+03  0.17200000000E+03 0.  1.
</event>
<event>
 4    1  0.4363334E-001  0.2057597E+03  0.7818608E-02  0.1144969E+00
          2   -1    0    0  502    0  0.00000000000E+00  0.00000000000E+00  0.13914010237E+04  0.13914010237E+04  0.00000000000E+00 0. -1.
         -2   -1    0    0    0  501 -0.00000000000E+00 -0.00000000000E+00 -0.49499619067E+02  0.49499619067E+02  0.00000000000E+00 0.  1.
          6    1    1    2  502    0  0.43083425826E+01 -0.11284722034E+03  0.22375159260E+03  0.30397669671E+03  0.17200000000E+03 0.  1.
         -6    1    1    2    0  501 -0.43083425826E+01  0.11284722034E+03  0.11181498120E+04  0.11369239461E+04  0.17200000000E+03 0. -1.
</event>
<event>
 4    1  0.4363334E-001  0.2057124E+03  0.7818608E-02  0.1145007E+00
          1   -1    0    0  502    0  0.00000000000E+00  0.00000000000E+00  0.12491155889E+04  0.12491155889E+04  0.00000000000E+00 0. -1.
         -1   -1    0    0    0  501 -0.00000000000E+00 -0.00000000000E+00 -0.34013364491E+02  0.34013364491E+02  0.00000000000E+00 0.  1.
          6    1    1    2  502    0 -0.11259213105E+03  0.75244887414E+01  0.64801620692E+03  0.67988426246E+03  0.17200000000E+03 0. -1.
         -6    1    1    2    0  501  0.11259213105E+03 -0.75244887414E+01  0.56708601745E+03  0.60324469090E+03  0.17200000000E+03 0. -1.
</event>
<event>
 4    1  0.4363334E-001  0.1843408E+03  0.7818608E-02  0.1163667E+00
         -3   -1    0    0    0  501 -0.00000000000E+00  0.00000000000E+00  0.16418984495E+03  0.16418984495E+03  0.00000000000E+00 0.  1.
          3   -1    0    0  502    0  0.00000000000E+00 -0.00000000000E+00 -0.20712600745E+03  0.20712600745E+03  0.00000000000E+00 0. -1.
          6    1    1    2  502    0  0.65890591169E+02  0.74797812199E+01 -0.16288444395E+02  0.18505899209E+03  0.17200000000E+03 0. -1.
         -6    1    1    2    0  501 -0.65890591169E+02 -0.74797812199E+01 -0.26647718109E+02  0.18625686031E+03  0.17200000000E+03 0.  1.
</event>
<event>
 4    1  0.4363334E-001  0.1919530E+03  0.7818608E-02  0.1156712E+00
         -1   -1    0    0    0  501 -0.00000000000E+00  0.00000000000E+00  0.19059267936E+03  0.19059267936E+03  0.00000000000E+00 0.  1.
          1   -1    0    0  502    0  0.00000000000E+00 -0.00000000000E+00 -0.20794133708E+03  0.20794133708E+03  0.00000000000E+00 0. -1.
          6    1    1    2  502    0  0.27828149933E+02  0.80545272086E+02 -0.61508403823E+02  0.20156693808E+03  0.17200000000E+03 0. -1.
         -6    1    1    2    0  501 -0.27828149933E+02 -0.80545272086E+02  0.44159746095E+02  0.19696707836E+03  0.17200000000E+03 0.  1.
</event>
<event>
 4    1  0.4363334E-001  0.1874988E+03  0.7818608E-02  0.1160737E+00
          2   -1    0    0  502    0  0.00000000000E+00  0.00000000000E+00  0.42076739915E+02  0.42076739915E+02  0.00000000000E+00 0.  1.
         -2   -1    0    0    0  501 -0.00000000000E+00 -0.00000000000E+00 -0.99291683950E+03  0.99291683950E+03  0.00000000000E+00 0. -1.
          6    1    1    2  502    0 -0.72203141689E+02  0.18934502545E+02 -0.68146126396E+03  0.70678516066E+03  0.17200000000E+03 0. -1.
         -6    1    1    2    0  501  0.72203141689E+02 -0.18934502545E+02 -0.26937883563E+03  0.32820841875E+03  0.17200000000E+03 0. -1.
</event>
<event>
 4    1  0.4363334E-001  0.2155502E+03  0.7818608E-02  0.1137245E+00
          1   -1    0    0  502    0  0.00000000000E+00  0.00000000000E+00  0.15523224253E+04  0.15523224253E+04  0.00000000000E+00 0.  1.
         -1   -1    0    0    0  501 -0.00000000000E+00 -0.00000000000E+00 -0.29930841044E+02  0.29930841044E+02  0.00000000000E+00 0. -1.
          6    1    1    2  502    0  0.12977516302E+03  0.60230531913E+01  0.75874563179E+03  0.78876917020E+03  0.17200000000E+03 0. -1.
         -6    1    1    2    0  501 -0.12977516302E+03 -0.60230531913E+01  0.76364595248E+03  0.79348409615E+03  0.17200000000E+03 0.  1.
</event>
<event>
 4    1  0.4363334E-001  0.2112926E+03  0.7818608E-02  0.1140546E+00
          4   -1    0    0  502    0  0.00000000000E+00  0.00000000000E+00  0.15742220554E+03  0.15742220554E+03  0.00000000000E+00 0.  1.
         -4   -1    0    0    0  501 -0.00000000000E+00 -0.00000000000E+00 -0.29044944275E+03  0.29044944275E+03  0.00000000000E+00 0. -1.
          6    1    1    2  502    0 -0.76536372069E+02 -0.95930853582E+02 -0.10090859112E+03  0.23415184962E+03  0.17200000000E+03 0.  1.
         -6    1    1    2    0  501  0.76536372069E+02  0.95930853582E+02 -0.32118646095E+02  0.21371979867E+03  0.17200000000E+03 0. -1.
</event>
<event>
 4    1  0.4363334E-001  0.2239995E+03  0.7818608E-02  0.1130936E+00
          1   -1    0    0  502    0  0.00000000000E+00  0.00000000000E+00  0.20581892369E+04  0.20581892369E+04  0.00000000000E+00 0.  1.
         -1   -1    0    0    0  501 -0.00000000000E+00 -0.00000000000E+00 -0.31291768861E+02  0.31291768861E+02  0.00000000000E+00 0. -1.
          6    1    1    2  502    0  0.97962169121E+02  0.10485790399E+03  0.52239158066E+03  0.56839135299E+03  0.17200000000E+03 0. -1.
         -6    1    1    2    0  501 -0.97962169121E+02 -0.10485790399E+03  0.15045058873E+04  0.15210896527E+04  0.17200000000E+03 0.  1.
</event>
<event>
 4    1  0.4363334E-001  0.1927267E+03  0.7818608E-02  0.1156025E+00
         -4   -1    0    0    0  501 -0.00000000000E+00  0.00000000000E+00  0.25650707899E+04  0.25650707899E+04  0.00000000000E+00 0. -1.
          4   -1    0    0  502    0  0.00000000000E+00 -0.00000000000E+00 -0.14491984603E+02  0.14491984603E+02  0.00000000000E+00 0.  1.
          6    1    1    2  502    0 -0.62672873824E+02 -0.60263652621E+02  0.13115429418E+04  0.13256275816E+04  0.17200000000E+03 0.  1.
         -6    1    1    2    0  501  0.62672873824E+02  0.60263652621E+02  0.12390358635E+04  0.12539351929E+04  0.17200000000E+03 0. -1.
</event>
<event>
 4    1  0.4363334E-001  0.1900530E+03  0.7818608E-02  0.1158414E+00
          2   -1    0    0  502    0  0.00000000000E+00  0.00000000000E+00  0.35207029103E+03  0.35207029103E+03  0.00000000000E+00 0.  1.
         -2   -1    0    0    0  501 -0.00000000000E+00 -0.00000000000E+00 -0.10430878897E+03  0.10430878897E+03  0.00000000000E+00 0. -1.
          6    1    1    2  502    0  0.55407735497E+02  0.58873665963E+02  0.94618811807E+02  0.21230366281E+03  0.17200000000E+03 0. -1.
         -6    1    1    2    0  501 -0.55407735497E+02 -0.58873665963E+02  0.15314269025E+03  0.24407541718E+03  0.17200000000E+03 0.  1.
</event>
<event>
 4    1  0.4363334E-001  0.1769340E+03  0.7818608E-02  0.1170804E+00
          1   -1    0    0  502    0  0.00000000000E+00  0.00000000000E+00  0.62281571415E+03  0.62281571415E+03  0.00000000000E+00 0. -1.
         -1   -1    0    0    0  501 -0.00000000000E+00 -0.00000000000E+00 -0.50316150677E+02  0.50316150677E+02  0.00000000000E+00 0.  1.
          6    1    1    2  502    0  0.47943388856E+01 -0.41214689173E+02  0.29701372011E+03  0.34572067659E+03  0.17200000000E+03 0. -1.
         -6    1    1    2    0  501 -0.47943388856E+01  0.41214689173E+02  0.27548584336E+03  0.32741118824E+03  0.17200000000E+03 0.  1.
</event>
<event>
 4    1  0.4363334E-001  0.2371198E+03  0.7818608E-02  0.1121727E+00
         -3   -1    0    0    0  501 -0.00000000000E+00  0.00000000000E+00  0.31316692471E+02  0.31316692471E+02  0.00000000000E+00 0.  1.
          3   -1    0    0  502    0  0.00000000000E+00 -0.00000000000E+00 -0.18457126476E+04  0.18457126476E+04  0.00000000000E+00 0. -1.
          6    1    1    2  502    0  0.16029834498E+02 -0.16243408888E+03 -0.75223595207E+03  0.78872347271E+03  0.17200000000E+03 0.  1.
         -6    1    1    2    0  501 -0.16029834498E+02  0.16243408888E+03 -0.10621600030E+04  0.10883058673E+04  0.17200000000E+03 0. -1.
</event>
<event>
 4    1  0.4363334E-001  0.1835864E+03  0.7818608E-02  0.1164377E+00
          2   -1    0    0  502    0  0.00000000000E+00  0.00000000000E+00  0.94330137171E+03  0.94330137171E+03  0.00000000000E+00 0. -1.
         -2   -1    0    0    0  501 -0.00000000000E+00 -0.00000000000E+00 -0.55696814279E+02  0.55696814279E+02  0.00000000000E+00 0.  1.
          6    1    1    2  502    0 -0.63864851741E+02  0.64218984174E+01  0.14472997394E+03  0.23377494610E+03  0.17200000000E+03 0.  1.
         -6    1    1    2    0  501  0.63864851741E+02 -0.64218984174E+01  0.74287458350E+03  0.76522323989E+03  0.17200000000E+03 0. -1.
</event>
<event>
 4    1  0.4363334E-001  0.2695282E+03  0.7818608E-02  0.1101550E+00
         -3   -1    0    0    0  501 -0.00000000000E+00  0.00000000000E+00  0.22515410288E+04  0.22515410288E+04  0.00000000000E+00 0. -1.
          3   -1    0    0  502    0  0.00000000000E+00 -0.00000000000E+00 -0.47846480499E+02  0.47846480499E+02  0.00000000000E+00 0.  1.
          6    1    1    2  502    0 -0.17386917444E+03 -0.11327376959E+03  0.17579394259E+04  0.17784815045E+04  0.17200000000E+03 0.  1.
         -6    1    1    2    0  501  0.17386917444E+03  0.11327376959E+03  0.44575512240E+03  0.52090600481E+03  0.17200000000E+03 0.  1.
</event>
<event>
 4    1  0.4363334E-001  0.1768819E+03  0.7818608E-02  0.1170855E+00
         -2   -1    0    0    0  501 -0.00000000000E+00  0.00000000000E+00  0.12709616023E+02  0.12709616023E+02  0.00000000000E+00 0.  1.
          2   -1    0    0  502    0  0.00000000000E+00 -0.00000000000E+00 -0.24696410892E+04  0.24696410892E+04  0.00000000000E+00 0. -1.
          6    1    1    2  502    0 -0.24766578218E+02 -0.33012500424E+02 -0.12988654111E+04  0.13108541355E+04  0.17200000000E+03 0.  1.
         -6    1    1    2    0  501  0.24766578218E+02  0.33012500424E+02 -0.11580660621E+04  0.11714965696E+04  0.17200000000E+03 0.  1.
</event>
<event>
 4    1  0.4363334E-001  0.2211401E+03  0.7818608E-02  0.1133036E+00
         -2   -1    0    0    0  501 -0.00000000000E+00  0.00000000000E+00  0.55070719022E+03  0.55070719022E+03  0.00000000000E+00 0. -1.
          2   -1    0    0  502    0  0.00000000000E+00 -0.00000000000E+00 -0.90902365469E+02  0.90902365469E+02  0.00000000000E+00 0.  1.
          6    1    1    2  502    0  0.12587646105E+03  0.58941183523E+02  0.18111816942E+03  0.28584390470E+03  0.17200000000E+03 0. -1.
         -6    1    1    2    0  501 -0.12587646105E+03 -0.58941183523E+02  0.27868665533E+03  0.35576565098E+03  0.17200000000E+03 0.  1.
</event>
<event>
 4    1  0.4363334E-001  0.2089591E+03  0.7818608E-02  0.1142393E+00
          1   -1    0    0  502    0  0.00000000000E+00  0.00000000000E+00  0.33867862009E+04  0.33867862009E+04  0.00000000000E+00 0. -1.
         -1   -1    0    0    0  501 -0.00000000000E+00 -0.00000000000E+00 -0.14895604290E+02  0.14895604290E+02  0.00000000000E+00 0.  1.
          6    1    1    2  502    0  0.49090158148E+02  0.10802797949E+03  0.10622183471E+04  0.10825764199E+04  0.17200000000E+03 0.  1.
         -6    1    1    2    0  501 -0.49090158148E+02 -0.10802797949E+03  0.23096722495E+04  0.23191053853E+04  0.17200000000E+03 0. -1.
</event>
<event>
 4    1  0.4363334E-001  0.1865757E+03  0.7818608E-02  0.1161587E+00
          2   -1    0    0  502    0  0.00000000000E+00  0.00000000000E+00  0.28953337898E+04  0.28953337898E+04  0.00000000000E+00 0. -1.
         -2   -1    0    0    0  501 -0.00000000000E+00 -0.00000000000E+00 -0.16632409513E+02  0.16632409513E+02  0.00000000000E+00 0.  1.
          6    1    1    2  502    0 -0.72176125675E+02  0.41332006072E+01  0.22058351888E+04  0.22137116697E+04  0.17200000000E+03 0. -1.
         -6    1    1    2    0  501  0.72176125675E+02 -0.41332006072E+01  0.67286619151E+03  0.69825452963E+03  0.17200000000E+03 0. -1.
</event>
<event>
 4    1  0.4363334E-001  0.1766752E+03  0.7818608E-02  0.1171060E+00
          1   -1    0    0  502    0  0.00000000000E+00  0.00000000000E+00  0.22574539830E+04  0.22574539830E+04  0.00000000000E+00 0.  1.
         -1   -1    0    0    0  501 -0.00000000000E+00 -0.00000000000E+00 -0.14503680500E+02  0.14503680500E+02  0.00000000000E+00 0. -1.
          6    1    1    2  502    0  0.39455546107E+02 -0.85665532798E+01  0.13668211187E+04  0.13781923293E+04  0.17200000000E+03 0.  1.
         -6    1    1    2    0  501 -0.39455546107E+02  0.85665532798E+01  0.87612918378E+03  0.89376533420E+03  0.17200000000E+03 0. -1.
</event>
<event>
 4    1  0.4363334E-001  0.1732185E+03  0.7818608E-02  0.1174532E+00
         -2   -1    0    0    0  501 -0.00000000000E+00  0.00000000000E+00  0.31258628858E+03  0.31258628858E+03  0.00000000000E+00 0. -1.
          2   -1    0    0  502    0  0.00000000000E+00 -0.00000000000E+00 -0.95998827228E+02  0.95998827228E+02  0.00000000000E+00 0.  1.
          6    1    1    2  502    0 -0.27146893608E+01 -0.20328882172E+02  0.10615653503E+03  0.20315964884E+03  0.17200000000E+03 0. -1.
         -6    1    1    2    0  501  0.27146893608E+01  0.20328882172E+02  0.11043092632E+03  0.20542546696E+03  0.17200000000E+03 0.  1.
</event>
<event>
 4    1  0.4363334E-001  0.1852394E+03  0.7818608E-02  0.1162827E+00
          2   -1    0    0  502    0  0.00000000000E+00  0.00000000000E+00  0.15551939546E+03  0.15551939546E+03  0.00000000000E+00 0. -1.
         -2   -1    0    0    0  501 -0.00000000000E+00 -0.00000000000E+00 -0.24654920590E+03  0.24654920590E+03  0.00000000000E+00 0.  1.
          6    1    1    2  502    0  0.60417842812E+02  0.32852859878E+02  0.19656149376E+02  0.18627933417E+03  0.17200000000E+03 0. -1.
         -6    1    1    2    0  501 -0.60417842812E+02 -0.32852859878E+02 -0.11068595981E+03  0.21578926718E+03  0.17200000000E+03 0.  1.
</event>
<event>
 4    1  0.4363334E-001  0.1823392E+03  0.7818608E-02  0.1165558E+00
         -2   -1    0    0    0  501 -0.00000000000E+00  0.00000000000E+00  0.11642005870E+02  0.11642005870E+02  0.00000000000E+00 0.  1.
          2   -1    0    0  502    0  0.00000000000E+00 -0.00000000000E+00 -0.28801122223E+04  0.28801122223E+04  0.00000000000E+00 0. -1.
          6    1    1    2  502    0  0.49247438099E+02  0.35188928750E+02 -0.13014695881E+04  0.13141806039E+04  0.17200000000E+03 0.  1.
         -6    1    1    2    0  501 -0.49247438099E+02 -0.35188928750E+02 -0.15670006283E+04  0.15775736242E+04  0.17200000000E+03 0.  1.
</event>
<event>
 4    1  0.4363334E-001  0.3296880E+03  0.7818608E-02  0.1071275E+00
          1   -1    0    0  502    0  0.00000000000E+00  0.00000000000E+00  0.19942731023E+03  0.19942731023E+03  0.00000000000E+00 0. -1.
         -1   -1    0    0    0  501 -0.00000000000E+00 -0.00000000000E+00 -0.67617768494E+03  0.67617768494E+03  0.00000000000E+00 0.  1.
          6    1    1    2  502    0 -0.27745617291E+03  0.46133081950E+02 -0.43118336802E+03  0.54278290871E+03  0.17200000000E+03 0. -1.
         -6    1    1    2    0  501  0.27745617291E+03 -0.46133081950E+02 -0.45567006694E+02  0.33282208646E+03  0.17200000000E+03 0. -1.
</event>
<event>
 4    1  0.4363334E-001  0.1730578E+03  0.7818608E-02  0.1174696E+00
         -2   -1    0    0    0  501 -0.00000000000E+00  0.00000000000E+00  0.12588277498E+02  0.12588277498E+02  0.00000000000E+00 0. -1.
          2   -1    0    0  502    0  0.00000000000E+00 -0.00000000000E+00 -0.23869817120E+04  0.23869817120E+04  0.00000000000E+00 0.  1.
          6    1    1    2  502    0 -0.23527989679E+01  0.18959849890E+02 -0.12560559213E+04  0.12679217204E+04  0.17200000000E+03 0. -1.
         -6    1    1    2    0  501  0.23527989679E+01 -0.18959849890E+02 -0.11183375132E+04  0.11316482691E+04  0.17200000000E+03 0. -1.
</event>
<event>
 4    1  0.4363334E-001  0.1968546E+03  0.7818608E-02  0.1152420E+00
          1   -1    0    0  502    0  0.00000000000E+00  0.00000000000E+00  0.63259379474E+03  0.63259379474E+03  0.00000000000E+00 0. -1.
         -1   -1    0    0    0  501 -0.00000000000E+00 -0.00000000000E+00 -0.15160053183E+03  0.15160053183E+03  0.00000000000E+00 0.  1.
          6    1    1    2  502    0 -0.84087671066E+02 -0.45793185454E+02  0.54317978126E+03  0.57775083473E+03  0.17200000000E+03 0. -1.
         -6    1    1    2    0  501  0.84087671066E+02  0.45793185454E+02 -0.62186518350E+02  0.20644349184E+03  0.17200000000E+03 0.  1.
</event>
<event>
 4    1  0.4363334E-001  0.2178299E+03  0.7818608E-02  0.1135511E+00
          2   -1    0    0  502    0  0.00000000000E+00  0.00000000000E+00  0.27009493239E+03  0.27009493239E+03  0.00000000000E+00 0. -1.
         -2   -1    0    0    0  501 -0.00000000000E+00 -0.00000000000E+00 -0.19060053991E+03  0.19060053991E+03  0.00000000000E+00 0.  1.
          6    1    1    2  502    0  0.13286863737E+03 -0.14553544235E+02  0.10419907179E+03  0.24146910156E+03  0.17200000000E+03 0. -1.
         -6    1    1    2    0  501 -0.13286863737E+03  0.14553544235E+02 -0.24704679307E+02  0.21922637074E+03  0.17200000000E+03 0. -1.
</event>
<event>
 4    1  0.4363334E-001  0.1760681E+03  0.7818608E-02  0.1171663E+00
         -1   -1    0    0    0  501 -0.00000000000E+00  0.00000000000E+00  0.92957160524E+03  0.92957160524E+03  0.00000000000E+00 0. -1.
          1   -1    0    0  502    0  0.00000000000E+00 -0.00000000000E+00 -0.87259872882E+02  0.87259872882E+02  0.00000000000E+00 0.  1.
          6    1    1    2  502    0  0.87235926716E+01  0.36604467388E+02  0.21532236369E+02  0.17737988980E+03  0.17200000000E+03 0.  1.
         -6    1    1    2    0  501 -0.87235926716E+01 -0.36604467388E+02  0.82077949599E+03  0.83945158832E+03  0.17200000000E+03 0. -1.
</event>
<event>
 4    1  0.4363334E-001  0.2364924E+03  0.7818608E-02  0.1122152E+00
         -2   -1    0    0    0  501 -0.00000000000E+00  0.00000000000E+00  0.31119083846E+02  0.31119083846E+02  0.00000000000E+00 0. -1.
          2   -1    0    0  502    0  0.00000000000E+00 -0.00000000000E+00 -0.27841137117E+04  0.27841137117E+04  0.00000000000E+00 0.  1.
          6    1    1    2  502    0  0.31350610139E+01 -0.16228002711E+03 -0.22145482121E+04  0.22271399640E+04  0.17200000000E+03 0.  1.
         -6    1    1    2    0  501 -0.31350610139E+01  0.16228002711E+03 -0.53844641576E+03  0.58809283149E+03  0.17200000000E+03 0. -1.
</event>
<event>
 4    1  0.4363334E-001  0.2133094E+03  0.7818608E-02  0.1138972E+00
          1   -1    0    0  502    0  0.00000000000E+00  0.00000000000E+00  0.24798544086E+03  0.24798544086E+03  0.00000000000E+00 0.  1.
         -1   -1    0    0    0  501 -0.00000000000E+00 -0.00000000000E+00 -0.28544611940E+03  0.28544611940E+03  0.00000000000E+00 0. -1.
          6    1    1    2  502    0 -0.81597773556E+02 -0.96222091313E+02 -0.17813834549E+03  0.27791034101E+03  0.17200000000E+03 0. -1.
         -6    1    1    2    0  501  0.81597773556E+02  0.96222091313E+02  0.14067766696E+03  0.25552121925E+03  0.17200000000E+03 0.  1.
</event>
<event>
 4    1  0.4363334E-001  0.2266014E+03  0.7818608E-02  0.1129055E+00
         -1   -1    0    0    0  501 -0.00000000000E+00  0.00000000000E+00  0.15171490787E+03  0.15171490787E+03  0.00000000000E+00 0.  1.
          1   -1    0    0  502    0  0.00000000000E+00 -0.00000000000E+00 -0.33848294738E+03  0.33848294738E+03  0.00000000000E+00 0. -1.
          6    1    1    2  502    0 -0.61434093885E+02 -0.13412690017E+03 -0.95737777774E+02  0.24599572219E+03  0.17200000000E+03 0.  1.
         -6    1    1    2    0  501  0.61434093885E+02  0.13412690017E+03 -0.91030261732E+02  0.24420213306E+03  0.17200000000E+03 0. -1.
</event>
<event>
 4    1  0.4363334E-001  0.2780496E+03  0.7818608E-02  0.1096759E+00
          2   -1    0    0  502    0  0.00000000000E+00  0.00000000000E+00  0.12762843081E+04  0.12762843081E+04  0.00000000000E+00 0. -1.
         -2   -1    0    0    0  501 -0.00000000000E+00 -0.00000000000E+00 -0.60608291324E+02  0.60608291324E+02  0.00000000000E+00 0.  1.
          6    1    1    2  502    0 -0.11258808526E+02  0.21817612915E+03  0.62338174561E+03  0.68258068011E+03  0.17200000000E+03 0.  1.
         -6    1    1    2    0  501  0.11258808526E+02 -0.21817612915E+03  0.59229427115E+03  0.65431191930E+03  0.17200000000E+03 0.  1.
</event>
<event>
 4    1  0.4363334E-001  0.2004381E+03  0.7818608E-02  0.1149370E+00
          1   -1    0    0  502    0  0.00000000000E+00  0.00000000000E+00  0.78814272562E+03  0.78814272562E+03  0.00000000000E+00 0.  1.
         -1   -1    0    0    0  501 -0.00000000000E+00 -0.00000000000E+00 -0.79308093679E+02  0.79308093679E+02  0.00000000000E+00 0. -1.
          6    1    1    2  502    0 -0.48968039954E+02 -0.90518380805E+02  0.61365872062E+03  0.64556368516E+03  0.17200000000E+03 0.  1.
         -6    1    1    2    0  501  0.48968039954E+02  0.90518380805E+02  0.95175911316E+02  0.22188713414E+03  0.17200000000E+03 0. -1.
</event>
<event>
 4    1  0.4363334E-001  0.2051714E+03  0.7818608E-02  0.1145448E+00
         -1   -1    0    0    0  501 -0.00000000000E+00  0.00000000000E+00  0.10302509477E+03  0.10302509477E+03  0.00000000000E+00 0.  1.
          1   -1    0    0  502    0  0.00000000000E+00 -0.00000000000E+00 -0.75943012206E+03  0.75943012206E+03  0.00000000000E+00 0. -1.
          6    1    1    2  502    0  0.98975664091E+02  0.52106901309E+02 -0.62130232992E+03  0.65430260309E+03  0.17200000000E+03 0. -1.
         -6    1    1    2    0  501 -0.98975664091E+02 -0.52106901309E+02 -0.35102697375E+02  0.20815261375E+03  0.17200000000E+03 0.  1.
</event>
<event>
 4    1  0.4363334E-001  0.2274773E+03  0.7818608E-02  0.1128428E+00
          2   -1    0    0  502    0  0.00000000000E+00  0.00000000000E+00  0.36071447336E+03  0.36071447336E+03  0.00000000000E+00 0.  1.
         -2   -1    0    0    0  501 -0.00000000000E+00 -0.00000000000E+00 -0.19758214236E+03  0.19758214236E+03  0.00000000000E+00 0. -1.
          6    1    1    2  502    0  0.58239912889E+02 -0.13700370900E+03 -0.64541517316E+02  0.23645615067E+03  0.17200000000E+03 0. -1.
         -6    1    1    2    0  501 -0.58239912889E+02  0.13700370900E+03  0.22767384832E+03  0.32184046504E+03  0.17200000000E+03 0. -1.
</event>
<event>
 4    1  0.4363334E-001  0.1729177E+03  0.7818608E-02  0.1174839E+00
          2   -1    0    0  502    0  0.00000000000E+00  0.00000000000E+00  0.77083587840E+02  0.77083587840E+02  0.00000000000E+00 0. -1.
         -2   -1    0    0    0  501 -0.00000000000E+00 -0.00000000000E+00 -0.39617226989E+03  0.39617226989E+03  0.00000000000E+00 0.  1.
          6    1    1    2  502    0  0.30356104170E+01  0.17530858405E+02 -0.12534664471E+03  0.21357042695E+03  0.17200000000E+03 0. -1.
         -6    1    1    2    0  501 -0.30356104170E+01 -0.17530858405E+02 -0.19374203734E+03  0.25968543078E+03  0.17200000000E+03 0.  1.
</event>
<event>
 4    1  0.4363334E-001  0.2066889E+03  0.7818608E-02  0.1144215E+00
          1   -1    0    0  502    0  0.00000000000E+00  0.00000000000E+00  0.39815153224E+03  0.39815153224E+03  0.00000000000E+00 0. -1.
         -1   -1    0    0    0  501 -0.00000000000E+00 -0.00000000000E+00 -0.16255499671E+03  0.16255499671E+03  0.00000000000E+00 0.  1.
          6    1    1    2  502    0 -0.88361517388E+02 -0.72996971278E+02  0.28125563446E+03  0.34903445029E+03  0.17200000000E+03 0.  1.
         -6    1    1    2    0  501  0.88361517388E+02  0.72996971278E+02 -0.45659098922E+02  0.21167207866E+03  0.17200000000E+03 0.  1.
</event>
<event>
 4    1  0.4363334E-001  0.1864051E+03  0.7818608E-02  0.1161744E+00
         -2   -1    0    0    0  501 -0.00000000000E+00  0.00000000000E+00  0.15039109529E+02  0.15039109529E+02  0.00000000000E+00 0.  1.
          2   -1    0    0  502    0  0.00000000000E+00 -0.00000000000E+00 -0.23192823143E+04  0.23192823143E+04  0.00000000000E+00 0. -1.
          6    1    1    2  502    0  0.17349982421E+02 -0.69726972863E+02 -0.12242123947E+04  0.12383225993E+04  0.17200000000E+03 0. -1.
         -6    1    1    2    0  501 -0.17349982421E+02  0.69726972863E+02 -0.10800308101E+04  0.10959988245E+04  0.17200000000E+03 0.  1.
</event>
<event>
 4    1  0.4363334E-001  0.2053547E+03  0.7818608E-02  0.1145298E+00
          2   -1    0    0  502    0  0.00000000000E+00  0.00000000000E+00  0.69542479231E+03  0.69542479231E+03  0.00000000000E+00 0.  1.
         -2   -1    0    0    0  501 -0.00000000000E+00 -0.00000000000E+00 -0.81970788335E+02  0.81970788335E+02  0.00000000000E+00 0. -1.
          6    1    1    2  502    0  0.10478215424E+03  0.40090376053E+02  0.50501036711E+03  0.54516603800E+03  0.17200000000E+03 0.  1.
         -6    1    1    2    0  501 -0.10478215424E+03 -0.40090376053E+02  0.10844363686E+03  0.23222954264E+03  0.17200000000E+03 0. -1.
</event>
<event>
 4    1  0.4363334E-001  0.1840702E+03  0.7818608E-02  0.1163921E+00
          2   -1    0    0  502    0  0.00000000000E+00  0.00000000000E+00  0.51292005825E+03  0.51292005825E+03  0.00000000000E+00 0.  1.
         -2   -1    0    0    0  501 -0.00000000000E+00 -0.00000000000E+00 -0.67231595402E+02  0.67231595402E+02  0.00000000000E+00 0. -1.
          6    1    1    2  502    0 -0.28712872456E+02  0.58935668860E+02  0.18449898182E+03  0.26061795104E+03  0.17200000000E+03 0.  1.
         -6    1    1    2    0  501  0.28712872456E+02 -0.58935668860E+02  0.26118948102E+03  0.31953370261E+03  0.17200000000E+03 0.  1.
</event>
<event>
 4    1  0.4363334E-001  0.1752761E+03  0.7818608E-02  0.1172455E+00
          1   -1    0    0  502    0  0.00000000000E+00  0.00000000000E+00  0.22256456525E+03  0.22256456525E+03  0.00000000000E+00 0. -1.
         -1   -1    0    0    0  501 -0.00000000000E+00 -0.00000000000E+00 -0.13899300953E+03  0.13899300953E+03  0.00000000000E+00 0.  1.
          6    1    1    2  502    0 -0.33728404108E+02 -0.33504406347E+00  0.56793605786E+02  0.18424774397E+03  0.17200000000E+03 0. -1.
         -6    1    1    2    0  501  0.33728404108E+02  0.33504406347E+00  0.26777949937E+02  0.17730983081E+03  0.17200000000E+03 0.  1.
</event>
<event>
 4    1  0.4363334E-001  0.1896948E+03  0.7818608E-02  0.1158737E+00
          1   -1    0    0  502    0  0.00000000000E+00  0.00000000000E+00  0.10435703396E+04  0.10435703396E+04  0.00000000000E+00 0.  1.
         -1   -1    0    0    0  501 -0.00000000000E+00 -0.00000000000E+00 -0.52423252004E+02  0.52423252004E+02  0.00000000000E+00 0. -1.
          6    1    1    2  502    0 -0.45313338609E+02  0.65930497477E+02  0.17498686906E+03  0.25807854134E+03  0.17200000000E+03 0. -1.
         -6    1    1    2    0  501  0.45313338609E+02 -0.65930497477E+02  0.81616021858E+03  0.83791505031E+03  0.17200000000E+03 0.  1.
</event>
<event>
 4    1  0.4363334E-001  0.2007980E+03  0.7818608E-02  0.1149067E+00
          1   -1    0    0  502    0  0.00000000000E+00  0.00000000000E+00  0.30279986380E+02  0.30279986380E+02  0.00000000000E+00 0.  1.
         -1   -1    0    0    0  501 -0.00000000000E+00 -0.00000000000E+00 -0.13666942599E+04  0.13666942599E+04  0.00000000000E+00 0. -1.
          6    1    1    2  502    0  0.79234557735E+02  0.66766202401E+02 -0.78018772727E+03  0.80561326374E+03  0.17200000000E+03 0. -1.
         -6    1    1    2    0  501 -0.79234557735E+02 -0.66766202401E+02 -0.55622654622E+03  0.59136098252E+03  0.17200000000E+03 0. -1.
</event>
<event>
 4    1  0.4363334E-001  0.2091397E+03  0.7818608E-02  0.1142249E+00
          2   -1    0    0  502    0  0.00000000000E+00  0.00000000000E+00  0.84947642762E+03  0.84947642762E+03  0.00000000000E+00 0. -1.
         -2   -1    0    0    0  501 -0.00000000000E+00 -0.00000000000E+00 -0.53045999851E+02  0.53045999851E+02  0.00000000000E+00 0.  1.
          6    1    1    2  502    0  0.79882733030E+02 -0.88171103754E+02  0.47550650451E+03  0.51946687133E+03  0.17200000000E+03 0. -1.
         -6    1    1    2    0  501 -0.79882733030E+02  0.88171103754E+02  0.32092392326E+03  0.38305555615E+03  0.17200000000E+03 0.  1.
</event>
<event>
 4    1  0.4363334E-001  0.2272488E+03  0.7818608E-02  0.1128591E+00
          2   -1    0    0  502    0  0.00000000000E+00  0.00000000000E+00  0.43010575194E+03  0.43010575194E+03  0.00000000000E+00 0.  1.
         -2   -1    0    0    0  501 -0.00000000000E+00 -0.00000000000E+00 -0.12135505410E+03  0.12135505410E+03  0.00000000000E+00 0. -1.
          6    1    1    2  502    0  0.27798218119E+02  0.14589467476E+03  0.12598107744E+03  0.25983307897E+03  0.17200000000E+03 0. -1.
         -6    1    1    2    0  501 -0.27798218119E+02 -0.14589467476E+03  0.18276962041E+03  0.29162772707E+03  0.17200000000E+03 0.  1.
</event>
<event>
 4    1  0.4363334E-001  0.1792660E+03  0.7818608E-02  0.1168515E+00
          2   -1    0    0  502    0  0.00000000000E+00  0.00000000000E+00  0.79123961357E+03  0.79123961357E+03  0.00000000000E+00 0.  1.
         -2   -1    0    0    0  501 -0.00000000000E+00 -0.00000000000E+00 -0.51094353127E+02  0.51094353127E+02  0.00000000000E+00 0. -1.
          6    1    1    2  502    0  0.44716214212E+02  0.23510446457E+02  0.56080873236E+03  0.58876371763E+03  0.17200000000E+03 0.  1.
         -6    1    1    2    0  501 -0.44716214212E+02 -0.23510446457E+02  0.17933652808E+03  0.25357024906E+03  0.17200000000E+03 0.  1.
</event>
<event>
 4    1  0.4363334E-001  0.2028351E+03  0.7818608E-02  0.1147369E+00
         -1   -1    0    0    0  501 -0.00000000000E+00  0.00000000000E+00  0.84579256004E+02  0.84579256004E+02  0.00000000000E+00 0.  1.
          1   -1    0    0  502    0  0.00000000000E+00 -0.00000000000E+00 -0.60395522498E+03  0.60395522498E+03  0.00000000000E+00 0. -1.
          6    1    1    2  502    0  0.36570295796E+02  0.10109738524E+03 -0.41155201886E+03  0.45882145990E+03  0.17200000000E+03 0. -1.
         -6    1    1    2    0  501 -0.36570295796E+02 -0.10109738524E+03 -0.10782395011E+03  0.22971302108E+03  0.17200000000E+03 0.  1.
</event>
<event>
 4    1  0.4363334E-001  0.1730303E+03  0.7818608E-02  0.1174724E+00
         -2   -1    0    0    0  501 -0.00000000000E+00  0.00000000000E+00  0.53574583047E+03  0.53574583047E+03  0.00000000000E+00 0. -1.
          2   -1    0    0  502    0  0.00000000000E+00 -0.00000000000E+00 -0.84428102448E+02  0.84428102448E+02  0.00000000000E+00 0.  1.
          6    1    1    2  502    0  0.18573156774E+02  0.32434627948E+01  0.40596070054E+03  0.44129760093E+03  0.17200000000E+03 0. -1.
         -6    1    1    2    0  501 -0.18573156774E+02 -0.32434627948E+01  0.45357027482E+02  0.17887633199E+03  0.17200000000E+03 0.  1.
</event>
<event>
 4    1  0.4363334E-001  0.1967969E+03  0.7818608E-02  0.1152470E+00
         -2   -1    0    0    0  501 -0.00000000000E+00  0.00000000000E+00  0.95342390297E+02  0.95342390297E+02  0.00000000000E+00 0. -1.
          2   -1    0    0  502    0  0.00000000000E+00 -0.00000000000E+00 -0.72279430331E+03  0.72279430331E+03  0.00000000000E+00 0.  1.
          6    1    1    2  502    0 -0.26730484435E+02 -0.91817807035E+02 -0.58445399213E+03  0.61669724939E+03  0.17200000000E+03 0.  1.
         -6    1    1    2    0  501  0.26730484435E+02  0.91817807035E+02 -0.42997920883E+02  0.20143944422E+03  0.17200000000E+03 0. -1.
</event>
<event>
 4    1  0.4363334E-001  0.1863899E+03  0.7818608E-02  0.1161758E+00
         -2   -1    0    0    0  501 -0.00000000000E+00  0.00000000000E+00  0.14910106454E+03  0.14910106454E+03  0.00000000000E+00 0. -1.
          2   -1    0    0  502    0  0.00000000000E+00 -0.00000000000E+00 -0.23356012843E+03  0.23356012843E+03  0.00000000000E+00 0.  1.
          6    1    1    2  502    0  0.71753171824E+02  0.29458170429E+01 -0.51562910011E+02  0.19339061299E+03  0.17200000000E+03 0. -1.
         -6    1    1    2    0  501 -0.71753171824E+02 -0.29458170429E+01 -0.32896153876E+02  0.18927057998E+03  0.17200000000E+03 0. -1.
</event>
<event>
 4    1  0.4363334E-001  0.1878599E+03  0.7818608E-02  0.1160406E+00
         -2   -1    0    0    0  501 -0.00000000000E+00  0.00000000000E+00  0.72809509611E+02  0.72809509611E+02  0.00000000000E+00 0.  1.
          2   -1    0    0  502    0  0.00000000000E+00 -0.00000000000E+00 -0.51636245494E+03  0.51636245494E+03  0.00000000000E+00 0. -1.
          6    1    1    2  502    0 -0.73629905514E+02  0.16910848994E+02 -0.29471437986E+03  0.34949664590E+03  0.17200000000E+03 0. -1.
         -6    1    1    2    0  501  0.73629905514E+02 -0.16910848994E+02 -0.14883856547E+03  0.23967531865E+03  0.17200000000E+03 0.  1.
</event>
<event>
 4    1  0.4363334E-001  0.2737374E+03  0.7818608E-02  0.1099159E+00
         -2   -1    0    0    0  501 -0.00000000000E+00  0.00000000000E+00  0.18792052298E+03  0.18792052298E+03  0.00000000000E+00 0. -1.
          2   -1    0    0  502    0  0.00000000000E+00 -0.00000000000E+00 -0.51768949569E+03  0.51768949569E+03  0.00000000000E+00 0.  1.
          6    1    1    2  502    0  0.20596437699E+03  0.54100282124E+02  0.42274339661E+01  0.27377004276E+03  0.17200000000E+03 0. -1.
         -6    1    1    2    0  501 -0.20596437699E+03 -0.54100282124E+02 -0.33399640668E+03  0.43183997591E+03  0.17200000000E+03 0.  1.
</event>
<event>
 4    1  0.4363334E-001  0.1893920E+03  0.7818608E-02  0.1159011E+00
         -3   -1    0    0    0  501 -0.00000000000E+00  0.00000000000E+00  0.94095263901E+02  0.94095263901E+02  0.00000000000E+00 0. -1.
          3   -1    0    0  502    0  0.00000000000E+00 -0.00000000000E+00 -0.38148341396E+03  0.38148341396E+03  0.00000000000E+00 0.  1.
          6    1    1    2  502    0  0.75129303329E+02  0.25316583191E+02 -0.13724037397E+03  0.23388942227E+03  0.17200000000E+03 0. -1.
         -6    1    1    2    0  501 -0.75129303329E+02 -0.25316583191E+02 -0.15014777610E+03  0.24168925559E+03  0.17200000000E+03 0.  1.
</event>
<event>
 4    1  0.4363334E-001  0.2148591E+03  0.7818608E-02  0.1137775E+00
         -2   -1    0    0    0  501 -0.00000000000E+00  0.00000000000E+00  0.24587262497E+02  0.24587262497E+02  0.00000000000E+00 0. -1.
          2   -1    0    0  502    0  0.00000000000E+00 -0.00000000000E+00 -0.21804163800E+04  0.21804163800E+04  0.00000000000E+00 0.  1.
          6    1    1    2  502    0 -0.11790506926E+03  0.51757427660E+02 -0.14887964425E+04  0.15042204904E+04  0.17200000000E+03 0.  1.
         -6    1    1    2    0  501  0.11790506926E+03 -0.51757427660E+02 -0.66703267498E+03  0.70078315203E+03  0.17200000000E+03 0. -1.
</event>
<event>
 4    1  0.4363334E-001  0.1875416E+03  0.7818608E-02  0.1160697E+00
          1   -1    0    0  502    0  0.00000000000E+00  0.00000000000E+00  0.55437033962E+03  0.55437033962E+03  0.00000000000E+00 0.  1.
         -1   -1    0    0    0  501 -0.00000000000E+00 -0.00000000000E+00 -0.80573789623E+02  0.80573789623E+02  0.00000000000E+00 0. -1.
          6    1    1    2  502    0 -0.74556485025E+02  0.54033571082E+01  0.90520335835E+02  0.20824456038E+03  0.17200000000E+03 0. -1.
         -6    1    1    2    0  501  0.74556485025E+02 -0.54033571082E+01  0.38327621417E+03  0.42669956887E+03  0.17200000000E+03 0.  1.
</event>
<event>
 4    1  0.4363334E-001  0.2539803E+03  0.7818608E-02  0.1110815E+00
          1   -1    0    0  502    0  0.00000000000E+00  0.00000000000E+00  0.45033537490E+04  0.45033537490E+04  0.00000000000E+00 0. -1.
         -1   -1    0    0    0  501 -0.00000000000E+00 -0.00000000000E+00 -0.14704291213E+02  0.14704291213E+02  0.00000000000E+00 0.  1.
          6    1    1    2  502    0 -0.17017727460E+03  0.77211822258E+02  0.18810236957E+04  0.18980927570E+04  0.17200000000E+03 0.  1.
         -6    1    1    2    0  501  0.17017727460E+03 -0.77211822258E+02  0.26076257621E+04  0.26199652833E+04  0.17200000000E+03 0. -1.
</event>
<event>
 4    1  0.4363334E-001  0.2267945E+03  0.7818608E-02  0.1128917E+00
         -1   -1    0    0    0  501 -0.00000000000E+00  0.00000000000E+00  0.24484696009E+03  0.24484696009E+03  0.00000000000E+00 0.  1.
          1   -1    0    0  502    0  0.00000000000E+00 -0.00000000000E+00 -0.43263266641E+03  0.43263266641E+03  0.00000000000E+00 0. -1.
          6    1    1    2  502    0 -0.11437476554E+03  0.93649077894E+02  0.14906436996E+03  0.27139624753E+03  0.17200000000E+03 0.  1.
         -6    1    1    2    0  501  0.11437476554E+03 -0.93649077894E+02 -0.33685007628E+03  0.40608337897E+03  0.17200000000E+03 0. -1.
</event>
<event>
 4    1  0.4363334E-001  0.2022768E+03  0.7818608E-02  0.1147832E+00
          1   -1    0    0  502    0  0.00000000000E+00  0.00000000000E+00  0.13749622225E+04  0.13749622225E+04  0.00000000000E+00 0.  1.
         -1   -1    0    0    0  501 -0.00000000000E+00 -0.00000000000E+00 -0.31164790823E+02  0.31164790823E+02  0.00000000000E+00 0. -1.
          6    1    1    2  502    0 -0.93323212193E+02  0.51212295691E+02  0.52251605716E+03  0.56030255323E+03  0.17200000000E+03 0.  1.
         -6    1    1    2    0  501  0.93323212193E+02 -0.51212295691E+02  0.82128137451E+03  0.84582446009E+03  0.17200000000E+03 0.  1.
</event>
<event>
 4    1  0.4363334E-001  0.1983414E+03  0.7818608E-02  0.1151146E+00
         -2   -1    0    0    0  501 -0.00000000000E+00  0.00000000000E+00  0.40486226745E+02  0.40486226745E+02  0.00000000000E+00 0. -1.
          2   -1    0    0  502    0  0.00000000000E+00 -0.00000000000E+00 -0.19154588544E+04  0.19154588544E+04  0.00000000000E+00 0.  1.
          6    1    1    2  502    0  0.25288143382E+02 -0.95476902182E+02 -0.16239652740E+04  0.16360325609E+04  0.17200000000E+03 0.  1.
         -6    1    1    2    0  501 -0.25288143382E+02  0.95476902182E+02 -0.25100735367E+03  0.31991252030E+03  0.17200000000E+03 0. -1.
</event>
<event>
 4    1  0.4363334E-001  0.2566832E+03  0.7818608E-02  0.1109153E+00
          1   -1    0    0  502    0  0.00000000000E+00  0.00000000000E+00  0.90591158504E+03  0.90591158504E+03  0.00000000000E+00 0.  1.
         -1   -1    0    0    0  501 -0.00000000000E+00 -0.00000000000E+00 -0.73264431788E+02  0.73264431788E+02  0.00000000000E+00 0. -1.
          6    1    1    2  502    0  0.19052648383E+03 -0.13926893295E+01  0.37447986991E+03  0.45400600612E+03  0.17200000000E+03 0.  1.
         -6    1    1    2    0  501 -0.19052648383E+03  0.13926893295E+01  0.45816728334E+03  0.52517001071E+03  0.17200000000E+03 0.  1.
</event>
<event>
 4    1  0.4363334E-001  0.3089745E+03  0.7818608E-02  0.1080838E+00
          2   -1    0    0  502    0  0.00000000000E+00  0.00000000000E+00  0.23684654599E+04  0.23684654599E+04  0.00000000000E+00 0. -1.
         -2   -1    0    0    0  501 -0.00000000000E+00 -0.00000000000E+00 -0.42735430391E+02  0.42735430391E+02  0.00000000000E+00 0.  1.
          6    1    1    2  502    0 -0.25611227675E+03 -0.16962755933E+02  0.14502679582E+04  0.14828156945E+04  0.17200000000E+03 0.  1.
         -6    1    1    2    0  501  0.25611227675E+03  0.16962755933E+02  0.87546207133E+03  0.92838519577E+03  0.17200000000E+03 0. -1.
</event>
<event>
 4    1  0.4363334E-001  0.2024090E+03  0.7818608E-02  0.1147722E+00
          2   -1    0    0  502    0  0.00000000000E+00  0.00000000000E+00  0.18923878256E+04  0.18923878256E+04  0.00000000000E+00 0. -1.
         -2   -1    0    0    0  501 -0.00000000000E+00 -0.00000000000E+00 -0.28005775015E+02  0.28005775015E+02  0.00000000000E+00 0.  1.
          6    1    1    2  502    0  0.96304849270E+02 -0.45943306395E+02  0.13896318140E+04  0.14042955494E+04  0.17200000000E+03 0.  1.
         -6    1    1    2    0  501 -0.96304849270E+02  0.45943306395E+02  0.47475023654E+03  0.51609805124E+03  0.17200000000E+03 0.  1.
</event>
<event>
 4    1  0.4363334E-001  0.2591607E+03  0.7818608E-02  0.1107649E+00
          1   -1    0    0  502    0  0.00000000000E+00  0.00000000000E+00  0.29086500672E+03  0.29086500672E+03  0.00000000000E+00 0.  1.
         -1   -1    0    0    0  501 -0.00000000000E+00 -0.00000000000E+00 -0.35313976169E+03  0.35313976169E+03  0.00000000000E+00 0. -1.
          6    1    1    2  502    0 -0.10812316906E+03 -0.16090255751E+03 -0.22057686486E+03  0.34032103375E+03  0.17200000000E+03 0. -1.
         -6    1    1    2    0  501  0.10812316906E+03  0.16090255751E+03  0.15830210989E+03  0.30368373466E+03  0.17200000000E+03 0.  1.
</event>
<event>
 4    1  0.4363334E-001  0.1743137E+03  0.7818608E-02  0.1173423E+00
          2   -1    0    0  502    0  0.00000000000E+00  0.00000000000E+00  0.17509753171E+04  0.17509753171E+04  0.00000000000E+00 0. -1.
         -2   -1    0    0    0  501 -0.00000000000E+00 -0.00000000000E+00 -0.30696264905E+02  0.30696264905E+02  0.00000000000E+00 0.  1.
          6    1    1    2  502    0  0.24854899723E+01 -0.28197119773E+02  0.27281173858E+03  0.32374604234E+03  0.17200000000E+03 0.  1.
         -6    1    1    2    0  501 -0.24854899723E+01  0.28197119773E+02  0.14474673137E+04  0.14579255397E+04  0.17200000000E+03 0. -1.
</event>
<event>
 4    1  0.4363334E-001  0.1745085E+03  0.7818608E-02  0.1173226E+00
          2   -1    0    0  502    0  0.00000000000E+00  0.00000000000E+00  0.26726393004E+04  0.26726393004E+04  0.00000000000E+00 0.  1.
         -2   -1    0    0    0  501 -0.00000000000E+00 -0.00000000000E+00 -0.16118588998E+02  0.16118588998E+02  0.00000000000E+00 0. -1.
          6    1    1    2  502    0 -0.16710274673E+02 -0.24289654576E+02  0.20560738684E+04  0.20634662520E+04  0.17200000000E+03 0.  1.
         -6    1    1    2    0  501  0.16710274673E+02  0.24289654576E+02  0.60044684302E+03  0.62529163747E+03  0.17200000000E+03 0. -1.
</event>
<event>
 4    1  0.4363334E-001  0.1726794E+03  0.7818608E-02  0.1175082E+00
          1   -1    0    0  502    0  0.00000000000E+00  0.00000000000E+00  0.12498140932E+03  0.12498140932E+03  0.00000000000E+00 0.  1.
         -1   -1    0    0    0  501 -0.00000000000E+00 -0.00000000000E+00 -0.26842644912E+03  0.26842644912E+03  0.00000000000E+00 0. -1.
          6    1    1    2  502    0  0.44779724923E+01  0.14632557250E+02 -0.13731301882E+03  0.22061964805E+03  0.17200000000E+03 0. -1.
         -6    1    1    2    0  501 -0.44779724923E+01 -0.14632557250E+02 -0.61320209805E+01  0.17278821039E+03  0.17200000000E+03 0.  1.
</event>
<event>
 4    1  0.4363334E-001  0.2453866E+03  0.7818608E-02  0.1116256E+00
          2   -1    0    0  502    0  0.00000000000E+00  0.00000000000E+00  0.62120551111E+02  0.62120551111E+02  0.00000000000E+00 0.  1.
         -2   -1    0    0    0  501 -0.00000000000E+00 -0.00000000000E+00 -0.10075442049E+04  0.10075442049E+04  0.00000000000E+00 0. -1.
          6    1    1    2  502    0 -0.98230288533E+02  0.14484958669E+03 -0.57688695285E+03  0.62690760780E+03  0.17200000000E+03 0. -1.
         -6    1    1    2    0  501  0.98230288533E+02 -0.14484958669E+03 -0.36853670091E+03  0.44275714818E+03  0.17200000000E+03 0. -1.
</event>
<event>
 4    1  0.4363334E-001  0.2192552E+03  0.7818608E-02  0.1134440E+00
          2   -1    0    0  502    0  0.00000000000E+00  0.00000000000E+00  0.21610368834E+04  0.21610368834E+04  0.00000000000E+00 0.  1.
         -2   -1    0    0    0  501 -0.00000000000E+00 -0.00000000000E+00 -0.23995989303E+02  0.23995989303E+02  0.00000000000E+00 0. -1.
          6    1    1    2  502    0 -0.13032567461E+03 -0.38782009512E+02  0.77342110394E+03  0.80389864395E+03  0.17200000000E+03 0. -1.
         -6    1    1    2    0  501  0.13032567461E+03  0.38782009512E+02  0.13636197901E+04  0.13811342287E+04  0.17200000000E+03 0.  1.
</event>
<event>
 4    1  0.4363334E-001  0.1783214E+03  0.7818608E-02  0.1169438E+00
         -2   -1    0    0    0  501 -0.00000000000E+00  0.00000000000E+00  0.47580731577E+02  0.47580731577E+02  0.00000000000E+00 0. -1.
          2   -1    0    0  502    0  0.00000000000E+00 -0.00000000000E+00 -0.67065055280E+03  0.67065055280E+03  0.00000000000E+00 0.  1.
          6    1    1    2  502    0 -0.23322086076E+02  0.40872835600E+02 -0.29030357728E+03  0.34069733690E+03  0.17200000000E+03 0. -1.
         -6    1    1    2    0  501  0.23322086076E+02 -0.40872835600E+02 -0.33276624393E+03  0.37753394747E+03  0.17200000000E+03 0.  1.
</event>
<event>
 4    1  0.4363334E-001  0.1770750E+03  0.7818608E-02  0.1170664E+00
         -2   -1    0    0    0  501 -0.00000000000E+00  0.00000000000E+00  0.29720677443E+03  0.29720677443E+03  0.00000000000E+00 0. -1.
          2   -1    0    0  502    0  0.00000000000E+00 -0.00000000000E+00 -0.17739942024E+03  0.17739942024E+03  0.00000000000E+00 0.  1.
          6    1    1    2  502    0 -0.28805019759E+02 -0.30688940798E+02  0.21097697536E+03  0.27543932977E+03  0.17200000000E+03 0. -1.
         -6    1    1    2    0  501  0.28805019759E+02  0.30688940798E+02 -0.91169621169E+02  0.19916686490E+03  0.17200000000E+03 0. -1.
</event>
<event>
 4    1  0.4363334E-001  0.1985517E+03  0.7818608E-02  0.1150967E+00
         -2   -1    0    0    0  501 -0.00000000000E+00  0.00000000000E+00  0.10698309343E+03  0.10698309343E+03  0.00000000000E+00 0. -1.
          2   -1    0    0  502    0  0.00000000000E+00 -0.00000000000E+00 -0.38351294551E+03  0.38351294551E+03  0.00000000000E+00 0.  1.
          6    1    1    2  502    0  0.99190696832E+02 -0.25678226445E-01 -0.89734662477E+02  0.21788782583E+03  0.17200000000E+03 0. -1.
         -6    1    1    2    0  501 -0.99190696832E+02  0.25678226445E-01 -0.18679518960E+03  0.27260821311E+03  0.17200000000E+03 0.  1.
</event>
<event>
 4    1  0.4363334E-001  0.2191057E+03  0.7818608E-02  0.1134552E+00
          1   -1    0    0  502    0  0.00000000000E+00  0.00000000000E+00  0.96415189717E+03  0.96415189717E+03  0.00000000000E+00 0. -1.
         -1   -1    0    0    0  501 -0.00000000000E+00 -0.00000000000E+00 -0.17910394530E+03  0.17910394530E+03  0.00000000000E+00 0.  1.
          6    1    1    2  502    0 -0.14895521555E+02  0.13491260668E+03 -0.93189069122E+02  0.23809974928E+03  0.17200000000E+03 0.  1.
         -6    1    1    2    0  501  0.14895521555E+02 -0.13491260668E+03  0.87823702099E+03  0.90515609319E+03  0.17200000000E+03 0. -1.
</event>
<event>
 4    1  0.4363334E-001  0.1868161E+03  0.7818608E-02  0.1161365E+00
         -1   -1    0    0    0  501 -0.00000000000E+00  0.00000000000E+00  0.28336092051E+03  0.28336092051E+03  0.00000000000E+00 0. -1.
          1   -1    0    0  502    0  0.00000000000E+00 -0.00000000000E+00 -0.13372457329E+03  0.13372457329E+03  0.00000000000E+00 0.  1.
          6    1    1    2  502    0  0.35866762500E+02  0.63480864787E+02  0.16217093759E+02  0.18751863634E+03  0.17200000000E+03 0. -1.
         -6    1    1    2    0  501 -0.35866762500E+02 -0.63480864787E+02  0.13341925347E+03  0.22956685746E+03  0.17200000000E+03 0. -1.
</event>
<event>
 4    1  0.4363334E-001  0.1770783E+03  0.7818608E-02  0.1170661E+00
         -1   -1    0    0    0  501 -0.00000000000E+00  0.00000000000E+00  0.20172864470E+03  0.20172864470E+03  0.00000000000E+00 0. -1.
          1   -1    0    0  502    0  0.00000000000E+00 -0.00000000000E+00 -0.20056882721E+03  0.20056882721E+03  0.00000000000E+00 0.  1.
          6    1    1    2  502    0  0.16569638597E+02  0.38706362801E+02 -0.94834020549E+02  0.20087365904E+03  0.17200000000E+03 0.  1.
         -6    1    1    2    0  501 -0.16569638597E+02 -0.38706362801E+02  0.95993838039E+02  0.20142381286E+03  0.17200000000E+03 0. -1.
</event>
<event>
 4    1  0.4363334E-001  0.2022902E+03  0.7818608E-02  0.1147821E+00
          1   -1    0    0  502    0  0.00000000000E+00  0.00000000000E+00  0.30348807428E+03  0.30348807428E+03  0.00000000000E+00 0. -1.
         -1   -1    0    0    0  501 -0.00000000000E+00 -0.00000000000E+00 -0.15324343581E+03  0.15324343581E+03  0.00000000000E+00 0.  1.
          6    1    1    2  502    0  0.11688811630E+02 -0.10583338321E+03 -0.40235614221E+01  0.20233023098E+03  0.17200000000E+03 0. -1.
         -6    1    1    2    0  501 -0.11688811630E+02  0.10583338321E+03  0.15426819989E+03  0.25440127912E+03  0.17200000000E+03 0.  1.
</event>
<event>
 4    1  0.4363334E-001  0.1822411E+03  0.7818608E-02  0.1165652E+00
          3   -1    0    0  502    0  0.00000000000E+00  0.00000000000E+00  0.19823007248E+03  0.19823007248E+03  0.00000000000E+00 0.  1.
         -3   -1    0    0    0  501 -0.00000000000E+00 -0.00000000000E+00 -0.39184330653E+03  0.39184330653E+03  0.00000000000E+00 0. -1.
          6    1    1    2  502    0  0.18097126499E+01  0.60204272154E+02 -0.32002804120E+03  0.36827948164E+03  0.17200000000E+03 0. -1.
         -6    1    1    2    0  501 -0.18097126499E+01 -0.60204272154E+02  0.12641480715E+03  0.22179389737E+03  0.17200000000E+03 0.  1.
</event>
<event>
 4    1  0.4363334E-001  0.3177741E+03  0.7818608E-02  0.1076678E+00
          1   -1    0    0  502    0  0.00000000000E+00  0.00000000000E+00  0.12103033785E+04  0.12103033785E+04  0.00000000000E+00 0. -1.
         -1   -1    0    0    0  501 -0.00000000000E+00 -0.00000000000E+00 -0.91229235356E+02  0.91229235356E+02  0.00000000000E+00 0.  1.
          6    1    1    2  502    0  0.72717813988E+02  0.25711573318E+03  0.36930913346E+03  0.48720592852E+03  0.17200000000E+03 0. -1.
         -6    1    1    2    0  501 -0.72717813988E+02 -0.25711573318E+03  0.74976500972E+03  0.81432668538E+03  0.17200000000E+03 0.  1.
</event>
<event>
 4    1  0.4363334E-001  0.2040350E+03  0.7818608E-02  0.1146379E+00
         -3   -1    0    0    0  501 -0.00000000000E+00  0.00000000000E+00  0.50123364664E+02  0.50123364664E+02  0.00000000000E+00 0. -1.
          3   -1    0    0  502    0  0.00000000000E+00 -0.00000000000E+00 -0.86628282656E+03  0.86628282656E+03  0.00000000000E+00 0.  1.
          6    1    1    2  502    0  0.58999295572E+02  0.92549179534E+02 -0.31502796286E+03  0.37533036767E+03  0.17200000000E+03 0.  1.
         -6    1    1    2    0  501 -0.58999295572E+02 -0.92549179534E+02 -0.50113149903E+03  0.54107582355E+03  0.17200000000E+03 0.  1.
</event>
<event>
 4    1  0.4363334E-001  0.3259638E+03  0.7818608E-02  0.1072937E+00
         -2   -1    0    0    0  501 -0.00000000000E+00  0.00000000000E+00  0.99596163158E+02  0.99596163158E+02  0.00000000000E+00 0.  1.
          2   -1    0    0  502    0  0.00000000000E+00 -0.00000000000E+00 -0.10671740381E+04  0.10671740381E+04  0.00000000000E+00 0. -1.
          6    1    1    2  502    0 -0.22012913540E+03 -0.16796290984E+03 -0.49423291815E+03  0.59204607313E+03  0.17200000000E+03 0. -1.
         -6    1    1    2    0  501  0.22012913540E+03  0.16796290984E+03 -0.47334495683E+03  0.57472412816E+03  0.17200000000E+03 0.  1.
</event>
<event>
 4    1  0.4363334E-001  0.2008710E+03  0.7818608E-02  0.1149006E+00
         -1   -1    0    0    0  501 -0.00000000000E+00  0.00000000000E+00  0.26250775221E+03  0.26250775221E+03  0.00000000000E+00 0.  1.
          1   -1    0    0  502    0  0.00000000000E+00 -0.00000000000E+00 -0.15410653607E+03  0.15410653607E+03  0.00000000000E+00 0. -1.
          6    1    1    2  502    0 -0.72771647770E+02  0.73955609456E+02  0.43587336904E+02  0.20554561739E+03  0.17200000000E+03 0. -1.
         -6    1    1    2    0  501  0.72771647770E+02 -0.73955609456E+02  0.64813879239E+02  0.21106867089E+03  0.17200000000E+03 0. -1.
</event>
<event>
 4    1  0.4363334E-001  0.2218583E+03  0.7818608E-02  0.1132505E+00
          2   -1    0    0  502    0  0.00000000000E+00  0.00000000000E+00  0.15875685282E+04  0.15875685282E+04  0.00000000000E+00 0.  1.
         -2   -1    0    0    0  501 -0.00000000000E+00 -0.00000000000E+00 -0.31384924103E+02  0.31384924103E+02  0.00000000000E+00 0. -1.
          6    1    1    2  502    0 -0.40432923453E+02 -0.13417264449E+03  0.86726019004E+03  0.89518788925E+03  0.17200000000E+03 0.  1.
         -6    1    1    2    0  501  0.40432923453E+02  0.13417264449E+03  0.68892341404E+03  0.72376556303E+03  0.17200000000E+03 0.  1.
</event>
<event>
 4    1  0.4363334E-001  0.1799879E+03  0.7818608E-02  0.1167815E+00
          4   -1    0    0  502    0  0.00000000000E+00  0.00000000000E+00  0.18989942215E+02  0.18989942215E+02  0.00000000000E+00 0. -1.
         -4   -1    0    0    0  501 -0.00000000000E+00 -0.00000000000E+00 -0.17545067651E+04  0.17545067651E+04  0.00000000000E+00 0.  1.
          6    1    1    2  502    0 -0.22780935575E+02  0.47881852085E+02 -0.10152972644E+04  0.10311276245E+04  0.17200000000E+03 0.  1.
         -6    1    1    2    0  501  0.22780935575E+02 -0.47881852085E+02 -0.72021955847E+03  0.74236908286E+03  0.17200000000E+03 0.  1.
</event>
<event>
 4    1  0.4363334E-001  0.2081706E+03  0.7818608E-02  0.1143023E+00
          2   -1    0    0  502    0  0.00000000000E+00  0.00000000000E+00  0.13846288358E+04  0.13846288358E+04  0.00000000000E+00 0. -1.
         -2   -1    0    0    0  501 -0.00000000000E+00 -0.00000000000E+00 -0.34426238253E+02  0.34426238253E+02  0.00000000000E+00 0.  1.
          6    1    1    2  502    0  0.96292734932E+02 -0.66923240238E+02  0.88901058654E+03  0.91305795756E+03  0.17200000000E+03 0. -1.
         -6    1    1    2    0  501 -0.96292734932E+02  0.66923240238E+02  0.46119201103E+03  0.50599711652E+03  0.17200000000E+03 0.  1.
</event>
<event>
 4    1  0.4363334E-001  0.1955982E+03  0.7818608E-02  0.1153507E+00
          1   -1    0    0  502    0  0.00000000000E+00  0.00000000000E+00  0.27891716592E+03  0.27891716592E+03  0.00000000000E+00 0. -1.
         -1   -1    0    0    0  501 -0.00000000000E+00 -0.00000000000E+00 -0.22357329468E+03  0.22357329468E+03  0.00000000000E+00 0.  1.
          6    1    1    2  502    0 -0.75306331794E+02 -0.54805233286E+02 -0.12851931854E+03  0.23404245863E+03  0.17200000000E+03 0.  1.
         -6    1    1    2    0  501  0.75306331794E+02  0.54805233286E+02  0.18386318979E+03  0.26844800197E+03  0.17200000000E+03 0. -1.
</event>
<event>
 4    1  0.4363334E-001  0.1766317E+03  0.7818608E-02  0.1171103E+00
         -2   -1    0    0    0  501 -0.00000000000E+00  0.00000000000E+00  0.47957228401E+02  0.47957228401E+02  0.00000000000E+00 0.  1.
          2   -1    0    0  502    0  0.00000000000E+00 -0.00000000000E+00 -0.66845404046E+03  0.66845404046E+03  0.00000000000E+00 0. -1.
          6    1    1    2  502    0 -0.29521358944E+02 -0.27262368170E+02 -0.36886607627E+03  0.40897546329E+03  0.17200000000E+03 0. -1.
         -6    1    1    2    0  501  0.29521358944E+02  0.27262368170E+02 -0.25163073579E+03  0.30743580557E+03  0.17200000000E+03 0.  1.
</event>
<event>
 4    1  0.4363334E-001  0.2218701E+03  0.7818608E-02  0.1132496E+00
         -1   -1    0    0    0  501 -0.00000000000E+00  0.00000000000E+00  0.56500959118E+03  0.56500959118E+03  0.00000000000E+00 0.  1.
          1   -1    0    0  502    0  0.00000000000E+00 -0.00000000000E+00 -0.87124769536E+02  0.87124769536E+02  0.00000000000E+00 0. -1.
          6    1    1    2  502    0 -0.21821244013E+02  0.13844189779E+03  0.23884204728E+03  0.32599363384E+03  0.17200000000E+03 0. -1.
         -6    1    1    2    0  501  0.21821244013E+02 -0.13844189779E+03  0.23904277437E+03  0.32614072688E+03  0.17200000000E+03 0. -1.
</event>
<event>
 4    1  0.4363334E-001  0.1765906E+03  0.7818608E-02  0.1171144E+00
         -2   -1    0    0    0  501 -0.00000000000E+00  0.00000000000E+00  0.35751971918E+02  0.35751971918E+02  0.00000000000E+00 0. -1.
          2   -1    0    0  502    0  0.00000000000E+00 -0.00000000000E+00 -0.88260896563E+03  0.88260896563E+03  0.00000000000E+00 0.  1.
          6    1    1    2  502    0  0.30101210270E+02 -0.26346618532E+02 -0.37365368733E+03  0.41328114550E+03  0.17200000000E+03 0.  1.
         -6    1    1    2    0  501 -0.30101210270E+02  0.26346618532E+02 -0.47320330638E+03  0.50507979205E+03  0.17200000000E+03 0.  1.
</event>
<event>
 4    1  0.4363334E-001  0.2828760E+03  0.7818608E-02  0.1094128E+00
          2   -1    0    0  502    0  0.00000000000E+00  0.00000000000E+00  0.14592657663E+04  0.14592657663E+04  0.00000000000E+00 0.  1.
         -2   -1    0    0    0  501 -0.00000000000E+00 -0.00000000000E+00 -0.54932610319E+02  0.54932610319E+02  0.00000000000E+00 0. -1.
          6    1    1    2  502    0 -0.19934114930E+03 -0.10343096735E+03  0.73407859486E+03  0.78669577490E+03  0.17200000000E+03 0. -1.
         -6    1    1    2    0  501  0.19934114930E+03  0.10343096735E+03  0.67025456113E+03  0.72750260173E+03  0.17200000000E+03 0.  1.
</event>
<event>
 4    1  0.4363334E-001  0.1779814E+03  0.7818608E-02  0.1169771E+00
         -1   -1    0    0    0  501 -0.00000000000E+00  0.00000000000E+00  0.36587902985E+02  0.36587902985E+02  0.00000000000E+00 0.  1.
          1   -1    0    0  502    0  0.00000000000E+00 -0.00000000000E+00 -0.12782748203E+04  0.12782748203E+04  0.00000000000E+00 0. -1.
          6    1    1    2  502    0  0.27224216656E+02 -0.36772334998E+02 -0.24738404831E+03  0.30475601709E+03  0.17200000000E+03 0.  1.
         -6    1    1    2    0  501 -0.27224216656E+02  0.36772334998E+02 -0.99430286904E+03  0.10101067062E+04  0.17200000000E+03 0. -1.
</event>
<event>
 4    1  0.4363334E-001  0.1762375E+03  0.7818608E-02  0.1171495E+00
         -2   -1    0    0    0  501 -0.00000000000E+00  0.00000000000E+00  0.25699284784E+02  0.25699284784E+02  0.00000000000E+00 0. -1.
          2   -1    0    0  502    0  0.00000000000E+00 -0.00000000000E+00 -0.12183396161E+04  0.12183396161E+04  0.00000000000E+00 0.  1.
          6    1    1    2  502    0 -0.38408530149E+02  0.67094898741E+00 -0.54065088871E+03  0.56865019900E+03  0.17200000000E+03 0. -1.
         -6    1    1    2    0  501  0.38408530149E+02 -0.67094898741E+00 -0.65198944256E+03  0.67538870184E+03  0.17200000000E+03 0.  1.
</event>
<event>
 4    1  0.4363334E-001  0.2144137E+03  0.7818608E-02  0.1138118E+00
          1   -1    0    0  502    0  0.00000000000E+00  0.00000000000E+00  0.12314777448E+04  0.12314777448E+04  0.00000000000E+00 0.  1.
         -1   -1    0    0    0  501 -0.00000000000E+00 -0.00000000000E+00 -0.38415517517E+02  0.38415517517E+02  0.00000000000E+00 0. -1.
          6    1    1    2  502    0  0.89790978572E+02 -0.91251316519E+02  0.48988343484E+03  0.53475134626E+03  0.17200000000E+03 0. -1.
         -6    1    1    2    0  501 -0.89790978572E+02  0.91251316519E+02  0.70317879245E+03  0.73514191606E+03  0.17200000000E+03 0. -1.
</event>
<event>
 4    1  0.4363334E-001  0.1839878E+03  0.7818608E-02  0.1163999E+00
         -1   -1    0    0    0  501 -0.00000000000E+00  0.00000000000E+00  0.16670136861E+03  0.16670136861E+03  0.00000000000E+00 0.  1.
          1   -1    0    0  502    0  0.00000000000E+00 -0.00000000000E+00 -0.20612007706E+03  0.20612007706E+03  0.00000000000E+00 0. -1.
          6    1    1    2  502    0 -0.63756169364E+02  0.14235511057E+02  0.29788470609E+01  0.18401188124E+03  0.17200000000E+03 0.  1.
         -6    1    1    2    0  501  0.63756169364E+02 -0.14235511057E+02 -0.42397555508E+02  0.18880956443E+03  0.17200000000E+03 0. -1.
</event>
<event>
 4    1  0.4363334E-001  0.1895498E+03  0.7818608E-02  0.1158868E+00
         -1   -1    0    0    0  501 -0.00000000000E+00  0.00000000000E+00  0.51238282987E+02  0.51238282987E+02  0.00000000000E+00 0.  1.
          1   -1    0    0  502    0  0.00000000000E+00 -0.00000000000E+00 -0.91168505602E+03  0.91168505602E+03  0.00000000000E+00 0. -1.
          6    1    1    2  502    0  0.78471024595E+02 -0.13691012857E+02 -0.19889305165E+03  0.27475005282E+03  0.17200000000E+03 0.  1.
         -6    1    1    2    0  501 -0.78471024595E+02  0.13691012857E+02 -0.66155372138E+03  0.68817328618E+03  0.17200000000E+03 0. -1.
</event>
<event>
 4    1  0.4363334E-001  0.1873156E+03  0.7818608E-02  0.1160905E+00
          2   -1    0    0  502    0  0.00000000000E+00  0.00000000000E+00  0.17431626301E+04  0.17431626301E+04  0.00000000000E+00 0.  1.
         -2   -1    0    0    0  501 -0.00000000000E+00 -0.00000000000E+00 -0.20495516560E+02  0.20495516560E+02  0.00000000000E+00 0. -1.
          6    1    1    2  502    0  0.68768132011E+02  0.27822376424E+02  0.97934784587E+03  0.99710046827E+03  0.17200000000E+03 0.  1.
         -6    1    1    2    0  501 -0.68768132011E+02 -0.27822376424E+02  0.74331926763E+03  0.76655767836E+03  0.17200000000E+03 0. -1.
</event>
<event>
 4    1  0.4363334E-001  0.1943692E+03  0.7818608E-02  0.1154579E+00
          1   -1    0    0  502    0  0.00000000000E+00  0.00000000000E+00  0.32465480966E+04  0.32465480966E+04  0.00000000000E+00 0. -1.
         -1   -1    0    0    0  501 -0.00000000000E+00 -0.00000000000E+00 -0.19249143492E+02  0.19249143492E+02  0.00000000000E+00 0.  1.
          6    1    1    2  502    0  0.84396913890E+02  0.32749715445E+02  0.58678500787E+03  0.61813916588E+03  0.17200000000E+03 0.  1.
         -6    1    1    2    0  501 -0.84396913890E+02 -0.32749715445E+02  0.26405139452E+04  0.26476580742E+04  0.17200000000E+03 0. -1.
</event>
<event>
 4    1  0.4363334E-001  0.1780471E+03  0.7818608E-02  0.1169707E+00
         -1   -1    0    0    0  501 -0.00000000000E+00  0.00000000000E+00  0.33454958771E+02  0.33454958771E+02  0.00000000000E+00 0.  1.
          1   -1    0    0  502    0  0.00000000000E+00 -0.00000000000E+00 -0.97447039543E+03  0.97447039543E+03  0.00000000000E+00 0. -1.
          6    1    1    2  502    0  0.18600324627E+01 -0.45970854740E+02 -0.38676901870E+03  0.42578287076E+03  0.17200000000E+03 0. -1.
         -6    1    1    2    0  501 -0.18600324627E+01  0.45970854740E+02 -0.55424641796E+03  0.58214248344E+03  0.17200000000E+03 0. -1.
</event>
<event>
 4    1  0.4363334E-001  0.1980772E+03  0.7818608E-02  0.1151372E+00
         -1   -1    0    0    0  501 -0.00000000000E+00  0.00000000000E+00  0.16425139740E+03  0.16425139740E+03  0.00000000000E+00 0.  1.
          1   -1    0    0  502    0  0.00000000000E+00 -0.00000000000E+00 -0.31140880288E+03  0.31140880288E+03  0.00000000000E+00 0. -1.
          6    1    1    2  502    0 -0.76407044546E+01  0.97939683450E+02  0.41207490830E+02  0.20231811402E+03  0.17200000000E+03 0.  1.
         -6    1    1    2    0  501  0.76407044546E+01 -0.97939683450E+02 -0.18836489632E+03  0.27334208626E+03  0.17200000000E+03 0. -1.
</event>
<event>
 4    1  0.4363334E-001  0.1939583E+03  0.7818608E-02  0.1154939E+00
         -1   -1    0    0    0  501 -0.00000000000E+00  0.00000000000E+00  0.14223482570E+03  0.14223482570E+03  0.00000000000E+00 0. -1.
          1   -1    0    0  502    0  0.00000000000E+00 -0.00000000000E+00 -0.26611110271E+03  0.26611110271E+03  0.00000000000E+00 0.  1.
          6    1    1    2  502    0  0.47037915680E+02 -0.76310336364E+02 -0.46007380420E+02  0.19934019163E+03  0.17200000000E+03 0. -1.
         -6    1    1    2    0  501 -0.47037915680E+02  0.76310336364E+02 -0.77868896590E+02  0.20900573677E+03  0.17200000000E+03 0. -1.
</event>
<event>
 4    1  0.4363334E-001  0.2136974E+03  0.7818608E-02  0.1138671E+00
          1   -1    0    0  502    0  0.00000000000E+00  0.00000000000E+00  0.10520099079E+04  0.10520099079E+04  0.00000000000E+00 0.  1.
         -1   -1    0    0    0  501 -0.00000000000E+00 -0.00000000000E+00 -0.45345317774E+02  0.45345317774E+02  0.00000000000E+00 0. -1.
          6    1    1    2  502    0  0.38107211844E+01  0.12675991366E+03  0.61671585148E+03  0.65269061490E+03  0.17200000000E+03 0.  1.
         -6    1    1    2    0  501 -0.38107211844E+01 -0.12675991366E+03  0.38994873865E+03  0.44466461078E+03  0.17200000000E+03 0. -1.
</event>
<event>
 4    1  0.4363334E-001  0.1738487E+03  0.7818608E-02  0.1173893E+00
         -1   -1    0    0    0  501 -0.00000000000E+00  0.00000000000E+00  0.25279694539E+02  0.25279694539E+02  0.00000000000E+00 0.  1.
          1   -1    0    0  502    0  0.00000000000E+00 -0.00000000000E+00 -0.16739379087E+04  0.16739379087E+04  0.00000000000E+00 0. -1.
          6    1    1    2  502    0 -0.47512368465E+01 -0.24835711483E+02 -0.12785163947E+04  0.12902819685E+04  0.17200000000E+03 0. -1.
         -6    1    1    2    0  501  0.47512368465E+01  0.24835711483E+02 -0.37014181949E+03  0.40893563473E+03  0.17200000000E+03 0.  1.
</event>
<event>
 4    1  0.4363334E-001  0.2066989E+03  0.7818608E-02  0.1144207E+00
         -2   -1    0    0    0  501 -0.00000000000E+00  0.00000000000E+00  0.45463805075E+02  0.45463805075E+02  0.00000000000E+00 0. -1.
          2   -1    0    0  502    0  0.00000000000E+00 -0.00000000000E+00 -0.11098999926E+04  0.11098999926E+04  0.00000000000E+00 0.  1.
          6    1    1    2  502    0 -0.10382206765E+03 -0.48594589539E+02 -0.30603134801E+03  0.36929614381E+03  0.17200000000E+03 0. -1.
         -6    1    1    2    0  501  0.10382206765E+03  0.48594589539E+02 -0.75840483947E+03  0.78606765383E+03  0.17200000000E+03 0.  1.
</event>
<event>
 4    1  0.4363334E-001  0.2379680E+03  0.7818608E-02  0.1121154E+00
          2   -1    0    0  502    0  0.00000000000E+00  0.00000000000E+00  0.41205845471E+03  0.41205845471E+03  0.00000000000E+00 0. -1.
         -2   -1    0    0    0  501 -0.00000000000E+00 -0.00000000000E+00 -0.18223356036E+03  0.18223356036E+03  0.00000000000E+00 0.  1.
          6    1    1    2  502    0 -0.14988304591E+03  0.67674683855E+02 -0.32426215814E+02  0.24016712880E+03  0.17200000000E+03 0.  1.
         -6    1    1    2    0  501  0.14988304591E+03 -0.67674683855E+02  0.26225111017E+03  0.35412488626E+03  0.17200000000E+03 0.  1.
</event>
<event>
 4    1  0.4363334E-001  0.1721190E+03  0.7818608E-02  0.1175656E+00
         -3   -1    0    0    0  501 -0.00000000000E+00  0.00000000000E+00  0.29895843654E+03  0.29895843654E+03  0.00000000000E+00 0.  1.
          3   -1    0    0  502    0  0.00000000000E+00 -0.00000000000E+00 -0.18694369381E+03  0.18694369381E+03  0.00000000000E+00 0. -1.
          6    1    1    2  502    0  0.37040613781E+01 -0.52190238975E+01 -0.11053845884E+03  0.20455734933E+03  0.17200000000E+03 0. -1.
         -6    1    1    2    0  501 -0.37040613781E+01  0.52190238975E+01  0.22255320156E+03  0.28134478102E+03  0.17200000000E+03 0.  1.
</event>
<event>
 4    1  0.4363334E-001  0.1785381E+03  0.7818608E-02  0.1169225E+00
          3   -1    0    0  502    0  0.00000000000E+00  0.00000000000E+00  0.12375593024E+04  0.12375593024E+04  0.00000000000E+00 0. -1.
         -3   -1    0    0    0  501 -0.00000000000E+00 -0.00000000000E+00 -0.52365006241E+02  0.52365006241E+02  0.00000000000E+00 0.  1.
          6    1    1    2  502    0  0.47770438454E+02 -0.31348501885E+01  0.13284936933E+03  0.22254167476E+03  0.17200000000E+03 0.  1.
         -6    1    1    2    0  501 -0.47770438454E+02  0.31348501885E+01  0.10523449269E+04  0.10673826339E+04  0.17200000000E+03 0. -1.
</event>
<event>
 4    1  0.4363334E-001  0.2487966E+03  0.7818608E-02  0.1114068E+00
         -1   -1    0    0    0  501 -0.00000000000E+00  0.00000000000E+00  0.55561482759E+02  0.55561482759E+02  0.00000000000E+00 0. -1.
          1   -1    0    0  502    0  0.00000000000E+00 -0.00000000000E+00 -0.13219379676E+04  0.13219379676E+04  0.00000000000E+00 0.  1.
          6    1    1    2  502    0  0.11266825167E+03  0.14007710811E+03 -0.36007478274E+03  0.43766834511E+03  0.17200000000E+03 0.  1.
         -6    1    1    2    0  501 -0.11266825167E+03 -0.14007710811E+03 -0.90630170210E+03  0.93983110524E+03  0.17200000000E+03 0. -1.
</event>
<event>
 4    1  0.4363334E-001  0.2126948E+03  0.7818608E-02  0.1139450E+00
          3   -1    0    0  502    0  0.00000000000E+00  0.00000000000E+00  0.13739651079E+04  0.13739651079E+04  0.00000000000E+00 0.  1.
         -3   -1    0    0    0  501 -0.00000000000E+00 -0.00000000000E+00 -0.40260734101E+02  0.40260734101E+02  0.00000000000E+00 0. -1.
          6    1    1    2  502    0 -0.11178566248E+03  0.56205369565E+02  0.36503622041E+03  0.42248138434E+03  0.17200000000E+03 0. -1.
         -6    1    1    2    0  501  0.11178566248E+03 -0.56205369565E+02  0.96866815340E+03  0.99174445767E+03  0.17200000000E+03 0.  1.
</event>
<event>
 4    1  0.4363334E-001  0.2417717E+03  0.7818608E-02  0.1118618E+00
          1   -1    0    0  502    0  0.00000000000E+00  0.00000000000E+00  0.16491208139E+03  0.16491208139E+03  0.00000000000E+00 0. -1.
         -1   -1    0    0    0  501 -0.00000000000E+00 -0.00000000000E+00 -0.35445473251E+03  0.35445473251E+03  0.00000000000E+00 0.  1.
          6    1    1    2  502    0 -0.74149093558E+01 -0.16974851652E+03 -0.94156228886E+02  0.25945892773E+03  0.17200000000E+03 0. -1.
         -6    1    1    2    0  501  0.74149093558E+01  0.16974851652E+03 -0.95386422236E+02  0.25990788616E+03  0.17200000000E+03 0.  1.
</event>
<event>
 4    1  0.4363334E-001  0.2436986E+03  0.7818608E-02  0.1117353E+00
          1   -1    0    0  502    0  0.00000000000E+00  0.00000000000E+00  0.25502887097E+03  0.25502887097E+03  0.00000000000E+00 0.  1.
         -1   -1    0    0    0  501 -0.00000000000E+00 -0.00000000000E+00 -0.23401630926E+03  0.23401630926E+03  0.00000000000E+00 0. -1.
          6    1    1    2  502    0 -0.17919097116E+02 -0.17170875955E+03  0.27607827997E+02  0.24525738381E+03  0.17200000000E+03 0.  1.
         -6    1    1    2    0  501  0.17919097116E+02  0.17170875955E+03 -0.65952662871E+01  0.24378779642E+03  0.17200000000E+03 0. -1.
</event>
<event>
 4    1  0.4363334E-001  0.1806277E+03  0.7818608E-02  0.1167197E+00
         -2   -1    0    0    0  501 -0.00000000000E+00  0.00000000000E+00  0.41284543853E+02  0.41284543853E+02  0.00000000000E+00 0. -1.
          2   -1    0    0  502    0  0.00000000000E+00 -0.00000000000E+00 -0.89208124834E+03  0.89208124834E+03  0.00000000000E+00 0.  1.
          6    1    1    2  502    0 -0.30161638313E+02 -0.46180486941E+02 -0.26774776754E+03  0.32297868168E+03  0.17200000000E+03 0. -1.
         -6    1    1    2    0  501  0.30161638313E+02  0.46180486941E+02 -0.58304893695E+03  0.61038711051E+03  0.17200000000E+03 0.  1.
</event>
<event>
 4    1  0.4363334E-001  0.1958355E+03  0.7818608E-02  0.1153301E+00
          2   -1    0    0  502    0  0.00000000000E+00  0.00000000000E+00  0.13588401492E+04  0.13588401492E+04  0.00000000000E+00 0. -1.
         -2   -1    0    0    0  501 -0.00000000000E+00 -0.00000000000E+00 -0.34451875635E+02  0.34451875635E+02  0.00000000000E+00 0.  1.
          6    1    1    2  502    0  0.51576239245E+02  0.78150100920E+02  0.95839400614E+03  0.97819763735E+03  0.17200000000E+03 0. -1.
         -6    1    1    2    0  501 -0.51576239245E+02 -0.78150100920E+02  0.36599426744E+03  0.41509438749E+03  0.17200000000E+03 0.  1.
</event>
<event>
 4    1  0.4363334E-001  0.2079235E+03  0.7818608E-02  0.1143221E+00
          1   -1    0    0  502    0  0.00000000000E+00  0.00000000000E+00  0.10951171213E+04  0.10951171213E+04  0.00000000000E+00 0.  1.
         -1   -1    0    0    0  501 -0.00000000000E+00 -0.00000000000E+00 -0.70308131421E+02  0.70308131421E+02  0.00000000000E+00 0. -1.
          6    1    1    2  502    0 -0.71526289071E+02 -0.92369720768E+02  0.89827791054E+03  0.92202786287E+03  0.17200000000E+03 0.  1.
         -6    1    1    2    0  501  0.71526289071E+02  0.92369720768E+02  0.12653107932E+03  0.24339738983E+03  0.17200000000E+03 0. -1.
</event>
<event>
 4    1  0.4363334E-001  0.1789211E+03  0.7818608E-02  0.1168851E+00
         -2   -1    0    0    0  501 -0.00000000000E+00  0.00000000000E+00  0.24467063896E+02  0.24467063896E+02  0.00000000000E+00 0. -1.
          2   -1    0    0  502    0  0.00000000000E+00 -0.00000000000E+00 -0.17488960613E+04  0.17488960613E+04  0.00000000000E+00 0.  1.
          6    1    1    2  502    0  0.36708340677E+02  0.32882449329E+02 -0.41721895863E+03  0.45396521583E+03  0.17200000000E+03 0. -1.
         -6    1    1    2    0  501 -0.36708340677E+02 -0.32882449329E+02 -0.13072100388E+04  0.13193979094E+04  0.17200000000E+03 0.  1.
</event>
<event>
 4    1  0.4363334E-001  0.2103536E+03  0.7818608E-02  0.1141286E+00
         -2   -1    0    0    0  501 -0.00000000000E+00  0.00000000000E+00  0.92697715813E+02  0.92697715813E+02  0.00000000000E+00 0. -1.
          2   -1    0    0  502    0  0.00000000000E+00 -0.00000000000E+00 -0.79436397457E+03  0.79436397457E+03  0.00000000000E+00 0.  1.
          6    1    1    2  502    0 -0.48607857389E+02  0.11091405461E+03 -0.63102641234E+03  0.66516387784E+03  0.17200000000E+03 0.  1.
         -6    1    1    2    0  501  0.48607857389E+02 -0.11091405461E+03 -0.70639846415E+02  0.22189781254E+03  0.17200000000E+03 0. -1.
</event>
<event>
 4    1  0.4363334E-001  0.2057896E+03  0.7818608E-02  0.1144944E+00
          2   -1    0    0  502    0  0.00000000000E+00  0.00000000000E+00  0.21416922486E+03  0.21416922486E+03  0.00000000000E+00 0.  1.
         -2   -1    0    0    0  501 -0.00000000000E+00 -0.00000000000E+00 -0.19837173751E+03  0.19837173751E+03  0.00000000000E+00 0. -1.
          6    1    1    2  502    0 -0.11184021432E+03 -0.16035494984E+02 -0.37610149554E+01  0.20582399246E+03  0.17200000000E+03 0.  1.
         -6    1    1    2    0  501  0.11184021432E+03  0.16035494984E+02  0.19558502298E+02  0.20671696991E+03  0.17200000000E+03 0. -1.
</event>
<event>
 4    1  0.4363334E-001  0.3099505E+03  0.7818608E-02  0.1080370E+00
         -2   -1    0    0    0  501 -0.00000000000E+00  0.00000000000E+00  0.69724563710E+02  0.69724563710E+02  0.00000000000E+00 0.  1.
          2   -1    0    0  502    0  0.00000000000E+00 -0.00000000000E+00 -0.17935657767E+04  0.17935657767E+04  0.00000000000E+00 0. -1.
          6    1    1    2  502    0 -0.25470083468E+03  0.40159567386E+02 -0.13104544943E+04  0.13466106667E+04  0.17200000000E+03 0. -1.
         -6    1    1    2    0  501  0.25470083468E+03 -0.40159567386E+02 -0.41338671870E+03  0.51667967372E+03  0.17200000000E+03 0.  1.
</event>
<event>
 4    1  0.4363334E-001  0.1754077E+03  0.7818608E-02  0.1172323E+00
         -2   -1    0    0    0  501 -0.00000000000E+00  0.00000000000E+00  0.30904502840E+03  0.30904502840E+03  0.00000000000E+00 0. -1.
          2   -1    0    0  502    0  0.00000000000E+00 -0.00000000000E+00 -0.10341747625E+03  0.10341747625E+03  0.00000000000E+00 0.  1.
          6    1    1    2  502    0 -0.26554086817E+02  0.21880156885E+02  0.62972821602E+02  0.18636908824E+03  0.17200000000E+03 0.  1.
         -6    1    1    2    0  501  0.26554086817E+02 -0.21880156885E+02  0.14265473055E+03  0.22609341640E+03  0.17200000000E+03 0. -1.
</event>
<event>
 4    1  0.4363334E-001  0.1803866E+03  0.7818608E-02  0.1167429E+00
          2   -1    0    0  502    0  0.00000000000E+00  0.00000000000E+00  0.79087042093E+03  0.79087042093E+03  0.00000000000E+00 0. -1.
         -2   -1    0    0    0  501 -0.00000000000E+00 -0.00000000000E+00 -0.41325721225E+02  0.41325721225E+02  0.00000000000E+00 0.  1.
          6    1    1    2  502    0  0.29723328858E+02 -0.45517439001E+02  0.34715516612E+03  0.39122375043E+03  0.17200000000E+03 0.  1.
         -6    1    1    2    0  501 -0.29723328858E+02  0.45517439001E+02  0.40238953359E+03  0.44097239173E+03  0.17200000000E+03 0.  1.
</event>
<event>
 4    1  0.4363334E-001  0.2597049E+03  0.7818608E-02  0.1107321E+00
          1   -1    0    0  502    0  0.00000000000E+00  0.00000000000E+00  0.15201917906E+03  0.15201917906E+03  0.00000000000E+00 0.  1.
         -1   -1    0    0    0  501 -0.00000000000E+00 -0.00000000000E+00 -0.44400037325E+03  0.44400037325E+03  0.00000000000E+00 0. -1.
          6    1    1    2  502    0 -0.40312818056E+02  0.19036155532E+03 -0.15409569500E+03  0.30198034416E+03  0.17200000000E+03 0.  1.
         -6    1    1    2    0  501  0.40312818056E+02 -0.19036155532E+03 -0.13788549919E+03  0.29403920815E+03  0.17200000000E+03 0. -1.
</event>
<event>
 4    1  0.4363334E-001  0.1791705E+03  0.7818608E-02  0.1168608E+00
         -2   -1    0    0    0  501 -0.00000000000E+00  0.00000000000E+00  0.18439919024E+02  0.18439919024E+02  0.00000000000E+00 0. -1.
          2   -1    0    0  502    0  0.00000000000E+00 -0.00000000000E+00 -0.20132926393E+04  0.20132926393E+04  0.00000000000E+00 0.  1.
          6    1    1    2  502    0  0.38961357753E+02  0.31624024460E+02 -0.13710895245E+04  0.13827467412E+04  0.17200000000E+03 0.  1.
         -6    1    1    2    0  501 -0.38961357753E+02 -0.31624024460E+02 -0.62376319578E+03  0.64898581705E+03  0.17200000000E+03 0. -1.
</event>
<event>
 4    1  0.4363334E-001  0.2735766E+03  0.7818608E-02  0.1099250E+00
         -2   -1    0    0    0  501 -0.00000000000E+00  0.00000000000E+00  0.49576324826E+02  0.49576324826E+02  0.00000000000E+00 0. -1.
          2   -1    0    0  502    0  0.00000000000E+00 -0.00000000000E+00 -0.16297902809E+04  0.16297902809E+04  0.00000000000E+00 0.  1.
          6    1    1    2  502    0 -0.21014076859E+03  0.33181184621E+02 -0.56215206762E+03  0.62518723657E+03  0.17200000000E+03 0.  1.
         -6    1    1    2    0  501  0.21014076859E+03 -0.33181184621E+02 -0.10180618885E+04  0.10541793692E+04  0.17200000000E+03 0. -1.
</event>
<event>
 4    1  0.4363334E-001  0.1841457E+03  0.7818608E-02  0.1163850E+00
          1   -1    0    0  502    0  0.00000000000E+00  0.00000000000E+00  0.25085214298E+04  0.25085214298E+04  0.00000000000E+00 0. -1.
         -1   -1    0    0    0  501 -0.00000000000E+00 -0.00000000000E+00 -0.13536403183E+02  0.13536403183E+02  0.00000000000E+00 0.  1.
          6    1    1    2  502    0  0.25422618314E+02  0.60657557858E+02  0.12007229829E+04  0.12147614295E+04  0.17200000000E+03 0. -1.
         -6    1    1    2    0  501 -0.25422618314E+02 -0.60657557858E+02  0.12942620437E+04  0.13072964035E+04  0.17200000000E+03 0.  1.
</event>
<event>
 4    1  0.4363334E-001  0.5945925E+03  0.7818608E-02  0.9916689E-01
          2   -1    0    0  502    0  0.00000000000E+00  0.00000000000E+00  0.18945974915E+04  0.18945974915E+04  0.00000000000E+00 0.  1.
         -2   -1    0    0    0  501 -0.00000000000E+00 -0.00000000000E+00 -0.36764979468E+03  0.36764979468E+03  0.00000000000E+00 0. -1.
          6    1    1    2  502    0  0.17606106688E+03 -0.54125658687E+03 -0.30281528379E+02  0.59536305147E+03  0.17200000000E+03 0. -1.
         -6    1    1    2    0  501 -0.17606106688E+03  0.54125658687E+03  0.15572292252E+04  0.16668842347E+04  0.17200000000E+03 0.  1.
</event>
<event>
 4    1  0.4363334E-001  0.2272503E+03  0.7818608E-02  0.1128590E+00
         -1   -1    0    0    0  501 -0.00000000000E+00  0.00000000000E+00  0.49598665912E+03  0.49598665912E+03  0.00000000000E+00 0. -1.
          1   -1    0    0  502    0  0.00000000000E+00 -0.00000000000E+00 -0.22836665617E+03  0.22836665617E+03  0.00000000000E+00 0.  1.
          6    1    1    2  502    0  0.14851429045E+03  0.14923041042E+01 -0.13333335857E+03  0.26347771433E+03  0.17200000000E+03 0.  1.
         -6    1    1    2    0  501 -0.14851429045E+03 -0.14923041042E+01  0.40095336153E+03  0.46087560096E+03  0.17200000000E+03 0. -1.
</event>
<event>
 4    1  0.4363334E-001  0.1724240E+03  0.7818608E-02  0.1175343E+00
          1   -1    0    0  502    0  0.00000000000E+00  0.00000000000E+00  0.55266804198E+03  0.55266804198E+03  0.00000000000E+00 0. -1.
         -1   -1    0    0    0  501 -0.00000000000E+00 -0.00000000000E+00 -0.59765328353E+02  0.59765328353E+02  0.00000000000E+00 0.  1.
          6    1    1    2  502    0  0.15471474703E+00 -0.12084106266E+02  0.14965674270E+03  0.22831379764E+03  0.17200000000E+03 0.  1.
         -6    1    1    2    0  501 -0.15471474703E+00  0.12084106266E+02  0.34324597093E+03  0.38411957269E+03  0.17200000000E+03 0. -1.
</event>
<event>
 4    1  0.4363334E-001  0.4119611E+03  0.7818608E-02  0.1039715E+00
         -1   -1    0    0    0  501 -0.00000000000E+00  0.00000000000E+00  0.93932312133E+02  0.93932312133E+02  0.00000000000E+00 0. -1.
          1   -1    0    0  502    0  0.00000000000E+00 -0.00000000000E+00 -0.30707092650E+04  0.30707092650E+04  0.00000000000E+00 0.  1.
          6    1    1    2  502    0  0.29887071632E+03 -0.22539790857E+03 -0.25035665758E+04  0.25372342269E+04  0.17200000000E+03 0.  1.
         -6    1    1    2    0  501 -0.29887071632E+03  0.22539790857E+03 -0.47321037704E+03  0.62740735029E+03  0.17200000000E+03 0. -1.
</event>
<event>
 4    1  0.4363334E-001  0.1815854E+03  0.7818608E-02  0.1166277E+00
          1   -1    0    0  502    0  0.00000000000E+00  0.00000000000E+00  0.95646452440E+03  0.95646452440E+03  0.00000000000E+00 0.  1.
         -1   -1    0    0    0  501 -0.00000000000E+00 -0.00000000000E+00 -0.83866272776E+02  0.83866272776E+02  0.00000000000E+00 0. -1.
          6    1    1    2  502    0 -0.52844307453E+02 -0.24428268231E+02  0.37111730361E+02  0.18533899117E+03  0.17200000000E+03 0. -1.
         -6    1    1    2    0  501  0.52844307453E+02  0.24428268231E+02  0.83548652126E+03  0.85499180600E+03  0.17200000000E+03 0.  1.
</event>
<event>
 4    1  0.4363334E-001  0.1771229E+03  0.7818608E-02  0.1170617E+00
          2   -1    0    0  502    0  0.00000000000E+00  0.00000000000E+00  0.33443378367E+03  0.33443378367E+03  0.00000000000E+00 0. -1.
         -2   -1    0    0    0  501 -0.00000000000E+00 -0.00000000000E+00 -0.96815546614E+02  0.96815546614E+02  0.00000000000E+00 0.  1.
          6    1    1    2  502    0  0.39174494594E+02  0.15933223993E+02  0.80803824153E+02  0.19468376063E+03  0.17200000000E+03 0.  1.
         -6    1    1    2    0  501 -0.39174494594E+02 -0.15933223993E+02  0.15681441290E+03  0.23656556966E+03  0.17200000000E+03 0. -1.
</event>
<event>
 4    1  0.4363334E-001  0.2026559E+03  0.7818608E-02  0.1147517E+00
          1   -1    0    0  502    0  0.00000000000E+00  0.00000000000E+00  0.14865751923E+04  0.14865751923E+04  0.00000000000E+00 0. -1.
         -1   -1    0    0    0  501 -0.00000000000E+00 -0.00000000000E+00 -0.31865070242E+02  0.31865070242E+02  0.00000000000E+00 0.  1.
          6    1    1    2  502    0  0.25412713715E+02  0.10411336632E+03  0.45046860143E+03  0.49395481568E+03  0.17200000000E+03 0.  1.
         -6    1    1    2    0  501 -0.25412713715E+02 -0.10411336632E+03  0.10042415207E+04  0.10244854469E+04  0.17200000000E+03 0. -1.
</event>
<event>
 4    1  0.4363334E-001  0.1789222E+03  0.7818608E-02  0.1168850E+00
          1   -1    0    0  502    0  0.00000000000E+00  0.00000000000E+00  0.12654444138E+04  0.12654444138E+04  0.00000000000E+00 0. -1.
         -1   -1    0    0    0  501 -0.00000000000E+00 -0.00000000000E+00 -0.26279288190E+02  0.26279288190E+02  0.00000000000E+00 0.  1.
          6    1    1    2  502    0 -0.11536280018E+02  0.47917254422E+02  0.74439051816E+03  0.76559153114E+03  0.17200000000E+03 0. -1.
         -6    1    1    2    0  501  0.11536280018E+02 -0.47917254422E+02  0.49477460748E+03  0.52613217088E+03  0.17200000000E+03 0.  1.
</event>
<event>
 4    1  0.4363334E-001  0.2457346E+03  0.7818608E-02  0.1116030E+00
         -1   -1    0    0    0  501 -0.00000000000E+00  0.00000000000E+00  0.33857973825E+02  0.33857973825E+02  0.00000000000E+00 0. -1.
          1   -1    0    0  502    0  0.00000000000E+00 -0.00000000000E+00 -0.21464551512E+04  0.21464551512E+04  0.00000000000E+00 0.  1.
          6    1    1    2  502    0 -0.15230090389E+03 -0.87212075879E+02 -0.15045872065E+04  0.15245222771E+04  0.17200000000E+03 0.  1.
         -6    1    1    2    0  501  0.15230090389E+03  0.87212075879E+02 -0.60800997093E+03  0.65579084795E+03  0.17200000000E+03 0. -1.
</event>
<event>
 4    1  0.4363334E-001  0.2207463E+03  0.7818608E-02  0.1133328E+00
         -2   -1    0    0    0  501 -0.00000000000E+00  0.00000000000E+00  0.35229805090E+03  0.35229805090E+03  0.00000000000E+00 0. -1.
          2   -1    0    0  502    0  0.00000000000E+00 -0.00000000000E+00 -0.13873147500E+03  0.13873147500E+03  0.00000000000E+00 0.  1.
          6    1    1    2  502    0  0.67054236995E+01  0.13820262662E+03  0.12019740027E+03  0.25134904763E+03  0.17200000000E+03 0. -1.
         -6    1    1    2    0  501 -0.67054236995E+01 -0.13820262662E+03  0.93369175629E+02  0.23968047828E+03  0.17200000000E+03 0.  1.
</event>
<event>
 4    1  0.4363334E-001  0.2388796E+03  0.7818608E-02  0.1120541E+00
         -4   -1    0    0    0  501 -0.00000000000E+00  0.00000000000E+00  0.17009091597E+04  0.17009091597E+04  0.00000000000E+00 0. -1.
          4   -1    0    0  502    0  0.00000000000E+00 -0.00000000000E+00 -0.34943058944E+02  0.34943058944E+02  0.00000000000E+00 0.  1.
          6    1    1    2  502    0  0.14177525443E+02 -0.16516197806E+03  0.65961375649E+03  0.70153673387E+03  0.17200000000E+03 0.  1.
         -6    1    1    2    0  501 -0.14177525443E+02  0.16516197806E+03  0.10063523443E+04  0.10343154848E+04  0.17200000000E+03 0. -1.
</event>
<event>
 4    1  0.4363334E-001  0.1905228E+03  0.7818608E-02  0.1157991E+00
         -2   -1    0    0    0  501 -0.00000000000E+00  0.00000000000E+00  0.24324400077E+02  0.24324400077E+02  0.00000000000E+00 0. -1.
          2   -1    0    0  502    0  0.00000000000E+00 -0.00000000000E+00 -0.15240283377E+04  0.15240283377E+04  0.00000000000E+00 0.  1.
          6    1    1    2  502    0 -0.17403164384E+02 -0.80075445192E+02 -0.63812269900E+03  0.66595760078E+03  0.17200000000E+03 0.  1.
         -6    1    1    2    0  501  0.17403164384E+02  0.80075445192E+02 -0.86158123863E+03  0.88239513700E+03  0.17200000000E+03 0.  1.
</event>
<event>
 4    1  0.4363334E-001  0.1782793E+03  0.7818608E-02  0.1169479E+00
          2   -1    0    0  502    0  0.00000000000E+00  0.00000000000E+00  0.75301069749E+03  0.75301069749E+03  0.00000000000E+00 0. -1.
         -2   -1    0    0    0  501 -0.00000000000E+00 -0.00000000000E+00 -0.62795298014E+02  0.62795298014E+02  0.00000000000E+00 0.  1.
          6    1    1    2  502    0 -0.22188944024E+02 -0.41317663502E+02  0.11155382107E+03  0.21030395514E+03  0.17200000000E+03 0.  1.
         -6    1    1    2    0  501  0.22188944024E+02  0.41317663502E+02  0.57866157841E+03  0.60550204036E+03  0.17200000000E+03 0. -1.
</event>
<event>
 4    1  0.4363334E-001  0.2401925E+03  0.7818608E-02  0.1119665E+00
          2   -1    0    0  502    0  0.00000000000E+00  0.00000000000E+00  0.18474744145E+04  0.18474744145E+04  0.00000000000E+00 0. -1.
         -2   -1    0    0    0  501 -0.00000000000E+00 -0.00000000000E+00 -0.61720249376E+02  0.61720249376E+02  0.00000000000E+00 0.  1.
          6    1    1    2  502    0 -0.16632630346E+03 -0.21071410644E+02  0.15638469092E+04  0.15821850711E+04  0.17200000000E+03 0. -1.
         -6    1    1    2    0  501  0.16632630346E+03  0.21071410644E+02  0.22190725585E+03  0.32700959278E+03  0.17200000000E+03 0.  1.
</event>
<event>
 4    1  0.4363334E-001  0.1770757E+03  0.7818608E-02  0.1170664E+00
          2   -1    0    0  502    0  0.00000000000E+00  0.00000000000E+00  0.14552123571E+04  0.14552123571E+04  0.00000000000E+00 0.  1.
         -2   -1    0    0    0  501 -0.00000000000E+00 -0.00000000000E+00 -0.34645289593E+02  0.34645289593E+02  0.00000000000E+00 0. -1.
          6    1    1    2  502    0  0.32973924816E+02  0.26163388965E+02  0.11683158060E+04  0.11816588446E+04  0.17200000000E+03 0.  1.
         -6    1    1    2    0  501 -0.32973924816E+02 -0.26163388965E+02  0.25225126155E+03  0.30819880206E+03  0.17200000000E+03 0. -1.
</event>
<event>
 4    1  0.4363334E-001  0.2672555E+03  0.7818608E-02  0.1102861E+00
         -3   -1    0    0    0  501 -0.00000000000E+00  0.00000000000E+00  0.13617936708E+04  0.13617936708E+04  0.00000000000E+00 0. -1.
          3   -1    0    0  502    0  0.00000000000E+00 -0.00000000000E+00 -0.59529171046E+02  0.59529171046E+02  0.00000000000E+00 0.  1.
          6    1    1    2  502    0  0.22375733130E+02  0.20332447068E+03  0.40605571350E+03  0.48611393344E+03  0.17200000000E+03 0. -1.
         -6    1    1    2    0  501 -0.22375733130E+02 -0.20332447068E+03  0.89620878621E+03  0.93520890836E+03  0.17200000000E+03 0. -1.
</event>
<event>
 4    1  0.4363334E-001  0.1842748E+03  0.7818608E-02  0.1163729E+00
          1   -1    0    0  502    0  0.00000000000E+00  0.00000000000E+00  0.25527790473E+04  0.25527790473E+04  0.00000000000E+00 0. -1.
         -1   -1    0    0    0  501 -0.00000000000E+00 -0.00000000000E+00 -0.29729874190E+02  0.29729874190E+02  0.00000000000E+00 0.  1.
          6    1    1    2  502    0  0.60983964443E+02  0.25576860444E+02  0.22213786151E+04  0.22290087867E+04  0.17200000000E+03 0. -1.
         -6    1    1    2    0  501 -0.60983964443E+02 -0.25576860444E+02  0.30167055807E+03  0.35350013482E+03  0.17200000000E+03 0.  1.
</event>
<event>
 4    1  0.4363334E-001  0.2012061E+03  0.7818608E-02  0.1148725E+00
         -1   -1    0    0    0  501 -0.00000000000E+00  0.00000000000E+00  0.17631385870E+03  0.17631385870E+03  0.00000000000E+00 0. -1.
          1   -1    0    0  502    0  0.00000000000E+00 -0.00000000000E+00 -0.26512091825E+03  0.26512091825E+03  0.00000000000E+00 0.  1.
          6    1    1    2  502    0  0.20923914980E+02  0.10228423347E+03 -0.12517907740E+03  0.23696766880E+03  0.17200000000E+03 0.  1.
         -6    1    1    2    0  501 -0.20923914980E+02 -0.10228423347E+03  0.36372017857E+02  0.20446710816E+03  0.17200000000E+03 0. -1.
</event>
<event>
 4    1  0.4363334E-001  0.2108861E+03  0.7818608E-02  0.1140866E+00
          1   -1    0    0  502    0  0.00000000000E+00  0.00000000000E+00  0.23238527880E+04  0.23238527880E+04  0.00000000000E+00 0. -1.
         -1   -1    0    0    0  501 -0.00000000000E+00 -0.00000000000E+00 -0.23285116843E+02  0.23285116843E+02  0.00000000000E+00 0.  1.
          6    1    1    2  502    0 -0.67886720842E+02 -0.10139206020E+03  0.16455785216E+04  0.16590363551E+04  0.17200000000E+03 0. -1.
         -6    1    1    2    0  501  0.67886720842E+02  0.10139206020E+03  0.65498914950E+03  0.68810154970E+03  0.17200000000E+03 0.  1.
</event>
<event>
 4    1  0.4363334E-001  0.2169493E+03  0.7818608E-02  0.1136178E+00
          1   -1    0    0  502    0  0.00000000000E+00  0.00000000000E+00  0.83280814099E+03  0.83280814099E+03  0.00000000000E+00 0. -1.
         -1   -1    0    0    0  501 -0.00000000000E+00 -0.00000000000E+00 -0.89621648367E+02  0.89621648367E+02  0.00000000000E+00 0.  1.
          6    1    1    2  502    0 -0.12825076260E+03 -0.32167549941E+02  0.65190913610E+03  0.68706079142E+03  0.17200000000E+03 0. -1.
         -6    1    1    2    0  501  0.12825076260E+03  0.32167549941E+02  0.91277356522E+02  0.23536899794E+03  0.17200000000E+03 0.  1.
</event>
<event>
 4    1  0.4363334E-001  0.1996260E+03  0.7818608E-02  0.1150055E+00
         -1   -1    0    0    0  501 -0.00000000000E+00  0.00000000000E+00  0.36048119322E+03  0.36048119322E+03  0.00000000000E+00 0.  1.
          1   -1    0    0  502    0  0.00000000000E+00 -0.00000000000E+00 -0.14440361596E+03  0.14440361596E+03  0.00000000000E+00 0. -1.
          6    1    1    2  502    0  0.22434714576E+01 -0.10129915283E+03  0.23027145102E+03  0.30475480748E+03  0.17200000000E+03 0.  1.
         -6    1    1    2    0  501 -0.22434714576E+01  0.10129915283E+03 -0.14193873759E+02  0.20013000170E+03  0.17200000000E+03 0. -1.
</event>
<event>
 4    1  0.4363334E-001  0.1847802E+03  0.7818608E-02  0.1163255E+00
         -2   -1    0    0    0  501 -0.00000000000E+00  0.00000000000E+00  0.28525369854E+02  0.28525369854E+02  0.00000000000E+00 0. -1.
          2   -1    0    0  502    0  0.00000000000E+00 -0.00000000000E+00 -0.12490929788E+04  0.12490929788E+04  0.00000000000E+00 0.  1.
          6    1    1    2  502    0 -0.43867662147E+01 -0.67382949876E+02 -0.47977701528E+03  0.51413003223E+03  0.17200000000E+03 0.  1.
         -6    1    1    2    0  501  0.43867662147E+01  0.67382949876E+02 -0.74079059372E+03  0.76348831647E+03  0.17200000000E+03 0.  1.
</event>
<event>
 4    1  0.4363334E-001  0.1852468E+03  0.7818608E-02  0.1162820E+00
          2   -1    0    0  502    0  0.00000000000E+00  0.00000000000E+00  0.19020521456E+04  0.19020521456E+04  0.00000000000E+00 0.  1.
         -2   -1    0    0    0  501 -0.00000000000E+00 -0.00000000000E+00 -0.26843872662E+02  0.26843872662E+02  0.00000000000E+00 0. -1.
          6    1    1    2  502    0  0.64632285829E+02 -0.23559189682E+02  0.14898719134E+04  0.15013442930E+04  0.17200000000E+03 0.  1.
         -6    1    1    2    0  501 -0.64632285829E+02  0.23559189682E+02  0.38533635952E+03  0.42755172525E+03  0.17200000000E+03 0. -1.
</event>
<event>
 4    1  0.4363334E-001  0.1873210E+03  0.7818608E-02  0.1160900E+00
         -1   -1    0    0    0  501 -0.00000000000E+00  0.00000000000E+00  0.24437856003E+03  0.24437856003E+03  0.00000000000E+00 0. -1.
          1   -1    0    0  502    0  0.00000000000E+00 -0.00000000000E+00 -0.25891017816E+03  0.25891017816E+03  0.00000000000E+00 0.  1.
          6    1    1    2  502    0 -0.67968266700E+02 -0.29756852480E+02 -0.17521358609E+03  0.25649357945E+03  0.17200000000E+03 0.  1.
         -6    1    1    2    0  501  0.67968266700E+02  0.29756852480E+02  0.16068196797E+03  0.24679515874E+03  0.17200000000E+03 0. -1.
</event>
<event>
 4    1  0.4363334E-001  0.1899786E+03  0.7818608E-02  0.1158481E+00
          2   -1    0    0  502    0  0.00000000000E+00  0.00000000000E+00  0.12907463138E+04  0.12907463138E+04  0.00000000000E+00 0. -1.
         -2   -1    0    0    0  501 -0.00000000000E+00 -0.00000000000E+00 -0.44785710677E+02  0.44785710677E+02  0.00000000000E+00 0.  1.
          6    1    1    2  502    0  0.33713145141E+02 -0.73289067910E+02  0.10322553976E+04  0.10495918585E+04  0.17200000000E+03 0. -1.
         -6    1    1    2    0  501 -0.33713145141E+02  0.73289067910E+02  0.21370520552E+03  0.28594016594E+03  0.17200000000E+03 0.  1.
</event>
<event>
 4    1  0.4363334E-001  0.2006452E+03  0.7818608E-02  0.1149196E+00
          2   -1    0    0  502    0  0.00000000000E+00  0.00000000000E+00  0.48999785516E+03  0.48999785516E+03  0.00000000000E+00 0. -1.
         -2   -1    0    0    0  501 -0.00000000000E+00 -0.00000000000E+00 -0.92795968641E+02  0.92795968641E+02  0.00000000000E+00 0.  1.
          6    1    1    2  502    0  0.76177703479E+02 -0.69795804454E+02  0.99950841572E+02  0.22416214568E+03  0.17200000000E+03 0.  1.
         -6    1    1    2    0  501 -0.76177703479E+02  0.69795804454E+02  0.29725104494E+03  0.35863167811E+03  0.17200000000E+03 0. -1.
</event>
<event>
 4    1  0.4363334E-001  0.2061702E+03  0.7818608E-02  0.1144635E+00
         -1   -1    0    0    0  501 -0.00000000000E+00  0.00000000000E+00  0.18213623940E+02  0.18213623940E+02  0.00000000000E+00 0. -1.
          1   -1    0    0  502    0  0.00000000000E+00 -0.00000000000E+00 -0.24374255012E+04  0.24374255012E+04  0.00000000000E+00 0.  1.
          6    1    1    2  502    0 -0.54457509722E+02  0.99782353675E+02 -0.95638700164E+03  0.97835690593E+03  0.17200000000E+03 0. -1.
         -6    1    1    2    0  501  0.54457509722E+02 -0.99782353675E+02 -0.14628248756E+04  0.14772822192E+04  0.17200000000E+03 0. -1.
</event>
<event>
 4    1  0.4363334E-001  0.1775819E+03  0.7818608E-02  0.1170164E+00
          4   -1    0    0  502    0  0.00000000000E+00  0.00000000000E+00  0.65407017457E+03  0.65407017457E+03  0.00000000000E+00 0. -1.
         -4   -1    0    0    0  501 -0.00000000000E+00 -0.00000000000E+00 -0.52108975577E+02  0.52108975577E+02  0.00000000000E+00 0.  1.
          6    1    1    2  502    0 -0.21469232458E+02  0.38605872128E+02  0.39751471781E+03  0.43537718381E+03  0.17200000000E+03 0. -1.
         -6    1    1    2    0  501  0.21469232458E+02 -0.38605872128E+02  0.20444648118E+03  0.27080196634E+03  0.17200000000E+03 0.  1.
</event>
<event>
 4    1  0.4363334E-001  0.1855596E+03  0.7818608E-02  0.1162528E+00
         -2   -1    0    0    0  501 -0.00000000000E+00  0.00000000000E+00  0.35417036749E+02  0.35417036749E+02  0.00000000000E+00 0. -1.
          2   -1    0    0  502    0  0.00000000000E+00 -0.00000000000E+00 -0.98187105044E+03  0.98187105044E+03  0.00000000000E+00 0.  1.
          6    1    1    2  502    0  0.69307237694E+02  0.66974844972E+01 -0.52371439586E+03  0.55561598063E+03  0.17200000000E+03 0.  1.
         -6    1    1    2    0  501 -0.69307237694E+02 -0.66974844972E+01 -0.42273961782E+03  0.46167210656E+03  0.17200000000E+03 0. -1.
</event>
<event>
 4    1  0.4363334E-001  0.2291198E+03  0.7818608E-02  0.1127261E+00
         -1   -1    0    0    0  501 -0.00000000000E+00  0.00000000000E+00  0.15699053512E+03  0.15699053512E+03  0.00000000000E+00 0.  1.
          1   -1    0    0  502    0  0.00000000000E+00 -0.00000000000E+00 -0.33507119111E+03  0.33507119111E+03  0.00000000000E+00 0. -1.
          6    1    1    2  502    0  0.15106902628E+03  0.94889500474E+01 -0.77938131911E+02  0.24201289900E+03  0.17200000000E+03 0.  1.
         -6    1    1    2    0  501 -0.15106902628E+03 -0.94889500474E+01 -0.10014252408E+03  0.25004882724E+03  0.17200000000E+03 0. -1.
</event>
<event>
 4    1  0.4363334E-001  0.2085628E+03  0.7818608E-02  0.1142709E+00
         -2   -1    0    0    0  501 -0.00000000000E+00  0.00000000000E+00  0.15715555582E+02  0.15715555582E+02  0.00000000000E+00 0.  1.
          2   -1    0    0  502    0  0.00000000000E+00 -0.00000000000E+00 -0.49020129852E+04  0.49020129852E+04  0.00000000000E+00 0. -1.
          6    1    1    2  502    0 -0.11552575920E+03  0.23837960397E+02 -0.40655569996E+04  0.40709031143E+04  0.17200000000E+03 0. -1.
         -6    1    1    2    0  501  0.11552575920E+03 -0.23837960397E+02 -0.82074043006E+03  0.84682542648E+03  0.17200000000E+03 0.  1.
</event>
<event>
 4    1  0.4363334E-001  0.3130670E+03  0.7818608E-02  0.1078885E+00
         -1   -1    0    0    0  501 -0.00000000000E+00  0.00000000000E+00  0.56852196559E+02  0.56852196559E+02  0.00000000000E+00 0.  1.
          1   -1    0    0  502    0  0.00000000000E+00 -0.00000000000E+00 -0.17319812450E+04  0.17319812450E+04  0.00000000000E+00 0. -1.
          6    1    1    2  502    0  0.17890611201E+03  0.19083907881E+03 -0.77669904459E+03  0.83742005993E+03  0.17200000000E+03 0.  1.
         -6    1    1    2    0  501 -0.17890611201E+03 -0.19083907881E+03 -0.89843000387E+03  0.95141338164E+03  0.17200000000E+03 0.  1.
</event>
<event>
 4    1  0.4363334E-001  0.2416951E+03  0.7818608E-02  0.1118669E+00
          2   -1    0    0  502    0  0.00000000000E+00  0.00000000000E+00  0.13621452002E+04  0.13621452002E+04  0.00000000000E+00 0. -1.
         -2   -1    0    0    0  501 -0.00000000000E+00 -0.00000000000E+00 -0.65989398263E+02  0.65989398263E+02  0.00000000000E+00 0.  1.
          6    1    1    2  502    0  0.14398059437E+03  0.90011644524E+02  0.10705938503E+04  0.10975371064E+04  0.17200000000E+03 0. -1.
         -6    1    1    2    0  501 -0.14398059437E+03 -0.90011644524E+02  0.22556195163E+03  0.33059749202E+03  0.17200000000E+03 0. -1.
</event>
<event>
 4    1  0.4363334E-001  0.1853268E+03  0.7818608E-02  0.1162745E+00
          2   -1    0    0  502    0  0.00000000000E+00  0.00000000000E+00  0.12402292528E+04  0.12402292528E+04  0.00000000000E+00 0. -1.
         -2   -1    0    0    0  501 -0.00000000000E+00 -0.00000000000E+00 -0.28706932884E+02  0.28706932884E+02  0.00000000000E+00 0.  1.
          6    1    1    2  502    0  0.38361542479E+02  0.57362175642E+02  0.48653842240E+03  0.52063966772E+03  0.17200000000E+03 0.  1.
         -6    1    1    2    0  501 -0.38361542479E+02 -0.57362175642E+02  0.72498389756E+03  0.74829651801E+03  0.17200000000E+03 0. -1.
</event>
<event>
 4    1  0.4363334E-001  0.1851562E+03  0.7818608E-02  0.1162904E+00
         -2   -1    0    0    0  501 -0.00000000000E+00  0.00000000000E+00  0.28698707519E+02  0.28698707519E+02  0.00000000000E+00 0. -1.
          2   -1    0    0  502    0  0.00000000000E+00 -0.00000000000E+00 -0.13918652994E+04  0.13918652994E+04  0.00000000000E+00 0.  1.
          6    1    1    2  502    0  0.16940079595E+02  0.66421814575E+02 -0.94899633029E+03  0.96689030332E+03  0.17200000000E+03 0. -1.
         -6    1    1    2    0  501 -0.16940079595E+02 -0.66421814575E+02 -0.41417026154E+03  0.45367370355E+03  0.17200000000E+03 0. -1.
</event>
<event>
 4    1  0.4363334E-001  0.2071283E+03  0.7818608E-02  0.1143860E+00
         -2   -1    0    0    0  501 -0.00000000000E+00  0.00000000000E+00  0.59069556756E+02  0.59069556756E+02  0.00000000000E+00 0.  1.
          2   -1    0    0  502    0  0.00000000000E+00 -0.00000000000E+00 -0.80978297804E+03  0.80978297804E+03  0.00000000000E+00 0. -1.
          6    1    1    2  502    0  0.65788027836E+02 -0.94815984218E+02 -0.51484392554E+03  0.55494720752E+03  0.17200000000E+03 0. -1.
         -6    1    1    2    0  501 -0.65788027836E+02  0.94815984218E+02 -0.23586949575E+03  0.31390532728E+03  0.17200000000E+03 0.  1.
</event>
<event>
 4    1  0.4363334E-001  0.2054845E+03  0.7818608E-02  0.1145192E+00
          1   -1    0    0  502    0  0.00000000000E+00  0.00000000000E+00  0.21227696534E+03  0.21227696534E+03  0.00000000000E+00 0. -1.
         -1   -1    0    0    0  501 -0.00000000000E+00 -0.00000000000E+00 -0.23699893148E+03  0.23699893148E+03  0.00000000000E+00 0.  1.
          6    1    1    2  502    0 -0.10075390602E+03  0.49885295957E+02 -0.10241695477E+03  0.22959339049E+03  0.17200000000E+03 0.  1.
         -6    1    1    2    0  501  0.10075390602E+03 -0.49885295957E+02  0.77694988637E+02  0.21968250633E+03  0.17200000000E+03 0.  1.
</event>
<event>
 4    1  0.4363334E-001  0.2866047E+03  0.7818608E-02  0.1092135E+00
          2   -1    0    0  502    0  0.00000000000E+00  0.00000000000E+00  0.29811112852E+04  0.29811112852E+04  0.00000000000E+00 0. -1.
         -2   -1    0    0    0  501 -0.00000000000E+00 -0.00000000000E+00 -0.44688712158E+02  0.44688712158E+02  0.00000000000E+00 0.  1.
          6    1    1    2  502    0  0.16227723461E+03 -0.16193930948E+03  0.53141161098E+03  0.60377192806E+03  0.17200000000E+03 0.  1.
         -6    1    1    2    0  501 -0.16227723461E+03  0.16193930948E+03  0.24050109620E+04  0.24220280693E+04  0.17200000000E+03 0. -1.
</event>
<event>
 4    1  0.4363334E-001  0.1992065E+03  0.7818608E-02  0.1150410E+00
          2   -1    0    0  502    0  0.00000000000E+00  0.00000000000E+00  0.40035010795E+03  0.40035010795E+03  0.00000000000E+00 0.  1.
         -2   -1    0    0    0  501 -0.00000000000E+00 -0.00000000000E+00 -0.10170618969E+03  0.10170618969E+03  0.00000000000E+00 0. -1.
          6    1    1    2  502    0  0.46678145778E+02 -0.88996505668E+02  0.10930271647E+03  0.22722304272E+03  0.17200000000E+03 0. -1.
         -6    1    1    2    0  501 -0.46678145778E+02  0.88996505668E+02  0.18934120179E+03  0.27483325492E+03  0.17200000000E+03 0.  1.
</event>
<event>
 4    1  0.4363334E-001  0.1841141E+03  0.7818608E-02  0.1163880E+00
          1   -1    0    0  502    0  0.00000000000E+00  0.00000000000E+00  0.22678119912E+03  0.22678119912E+03  0.00000000000E+00 0.  1.
         -1   -1    0    0    0  501 -0.00000000000E+00 -0.00000000000E+00 -0.33494044843E+03  0.33494044843E+03  0.00000000000E+00 0. -1.
          6    1    1    2  502    0  0.63597517015E+02  0.16411740714E+02  0.15491713197E+03  0.24061859276E+03  0.17200000000E+03 0.  1.
         -6    1    1    2    0  501 -0.63597517015E+02 -0.16411740714E+02 -0.26307638129E+03  0.32110305479E+03  0.17200000000E+03 0. -1.
</event>
<event>
 4    1  0.4363334E-001  0.1925879E+03  0.7818608E-02  0.1156148E+00
         -2   -1    0    0    0  501 -0.00000000000E+00  0.00000000000E+00  0.17728323784E+03  0.17728323784E+03  0.00000000000E+00 0.  1.
          2   -1    0    0  502    0  0.00000000000E+00 -0.00000000000E+00 -0.46248383031E+03  0.46248383031E+03  0.00000000000E+00 0. -1.
          6    1    1    2  502    0  0.29063553192E+02  0.81617426265E+02  0.94120022262E+02  0.21435641578E+03  0.17200000000E+03 0.  1.
         -6    1    1    2    0  501 -0.29063553192E+02 -0.81617426265E+02 -0.37932061473E+03  0.42541065238E+03  0.17200000000E+03 0. -1.
</event>
<event>
 4    1  0.4363334E-001  0.1807091E+03  0.7818608E-02  0.1167119E+00
          2   -1    0    0  502    0  0.00000000000E+00  0.00000000000E+00  0.19721410918E+03  0.19721410918E+03  0.00000000000E+00 0. -1.
         -2   -1    0    0    0  501 -0.00000000000E+00 -0.00000000000E+00 -0.17471736501E+03  0.17471736501E+03  0.00000000000E+00 0.  1.
          6    1    1    2  502    0  0.55208751561E+02  0.48753775518E+01 -0.31267120224E+02  0.18339413394E+03  0.17200000000E+03 0.  1.
         -6    1    1    2    0  501 -0.55208751561E+02 -0.48753775518E+01  0.53763864395E+02  0.18853734025E+03  0.17200000000E+03 0. -1.
</event>
<event>
 4    1  0.4363334E-001  0.3315528E+03  0.7818608E-02  0.1070452E+00
          2   -1    0    0  502    0  0.00000000000E+00  0.00000000000E+00  0.45625041857E+03  0.45625041857E+03  0.00000000000E+00 0.  1.
         -2   -1    0    0    0  501 -0.00000000000E+00 -0.00000000000E+00 -0.25092270894E+03  0.25092270894E+03  0.00000000000E+00 0. -1.
          6    1    1    2  502    0  0.78620048877E+02  0.27232722681E+03  0.32124226393E+02  0.33310538343E+03  0.17200000000E+03 0. -1.
         -6    1    1    2    0  501 -0.78620048877E+02 -0.27232722681E+03  0.17320348324E+03  0.37406774408E+03  0.17200000000E+03 0. -1.
</event>
<event>
 4    1  0.4363334E-001  0.2038116E+03  0.7818608E-02  0.1146562E+00
          1   -1    0    0  502    0  0.00000000000E+00  0.00000000000E+00  0.26841163834E+03  0.26841163834E+03  0.00000000000E+00 0. -1.
         -1   -1    0    0    0  501 -0.00000000000E+00 -0.00000000000E+00 -0.28558286895E+03  0.28558286895E+03  0.00000000000E+00 0.  1.
          6    1    1    2  502    0 -0.40519700212E+01  0.10926457682E+03 -0.19606459249E+03  0.28280822237E+03  0.17200000000E+03 0.  1.
         -6    1    1    2    0  501  0.40519700212E+01 -0.10926457682E+03  0.17889336188E+03  0.27118628493E+03  0.17200000000E+03 0. -1.
</event>
<event>
 4    1  0.4363334E-001  0.2018832E+03  0.7818608E-02  0.1148160E+00
          2   -1    0    0  502    0  0.00000000000E+00  0.00000000000E+00  0.15396525415E+04  0.15396525415E+04  0.00000000000E+00 0.  1.
         -2   -1    0    0    0  501 -0.00000000000E+00 -0.00000000000E+00 -0.31929879125E+02  0.31929879125E+02  0.00000000000E+00 0. -1.
          6    1    1    2  502    0  0.61772757199E+02 -0.85772653956E+02  0.10787560993E+04  0.10974841883E+04  0.17200000000E+03 0. -1.
         -6    1    1    2    0  501 -0.61772757199E+02  0.85772653956E+02  0.42896656308E+03  0.47409823238E+03  0.17200000000E+03 0. -1.
</event>
<event>
 4    1  0.4363334E-001  0.2087425E+03  0.7818608E-02  0.1142566E+00
          1   -1    0    0  502    0  0.00000000000E+00  0.00000000000E+00  0.31065499970E+03  0.31065499970E+03  0.00000000000E+00 0. -1.
         -1   -1    0    0    0  501 -0.00000000000E+00 -0.00000000000E+00 -0.38766793371E+03  0.38766793371E+03  0.00000000000E+00 0.  1.
          6    1    1    2  502    0  0.40952171473E+01 -0.11820599282E+03 -0.31743983829E+03  0.37992299019E+03  0.17200000000E+03 0.  1.
         -6    1    1    2    0  501 -0.40952171473E+01  0.11820599282E+03  0.24042690427E+03  0.31839994322E+03  0.17200000000E+03 0. -1.
</event>
<event>
 4    1  0.4363334E-001  0.1920244E+03  0.7818608E-02  0.1156648E+00
          2   -1    0    0  502    0  0.00000000000E+00  0.00000000000E+00  0.18798933740E+03  0.18798933740E+03  0.00000000000E+00 0. -1.
         -2   -1    0    0    0  501 -0.00000000000E+00 -0.00000000000E+00 -0.19653618697E+03  0.19653618697E+03  0.00000000000E+00 0.  1.
          6    1    1    2  502    0  0.75223590291E+02 -0.40383073846E+02 -0.12838622839E+02  0.19245314086E+03  0.17200000000E+03 0.  1.
         -6    1    1    2    0  501 -0.75223590291E+02  0.40383073846E+02  0.42917732681E+01  0.19207238351E+03  0.17200000000E+03 0.  1.
</event>
<event>
 4    1  0.4363334E-001  0.1940056E+03  0.7818608E-02  0.1154897E+00
         -2   -1    0    0    0  501 -0.00000000000E+00  0.00000000000E+00  0.32560572581E+03  0.32560572581E+03  0.00000000000E+00 0. -1.
          2   -1    0    0  502    0  0.00000000000E+00 -0.00000000000E+00 -0.11560289950E+03  0.11560289950E+03  0.00000000000E+00 0.  1.
          6    1    1    2  502    0 -0.59784729864E+02 -0.66932429970E+02  0.10690472223E+03  0.22151023394E+03  0.17200000000E+03 0. -1.
         -6    1    1    2    0  501  0.59784729864E+02  0.66932429970E+02  0.10309810408E+03  0.21969839137E+03  0.17200000000E+03 0. -1.
</event>
<event>
 4    1  0.4363334E-001  0.1810315E+03  0.7818608E-02  0.1166808E+00
         -1   -1    0    0    0  501 -0.00000000000E+00  0.00000000000E+00  0.20651016729E+03  0.20651016729E+03  0.00000000000E+00 0.  1.
          1   -1    0    0  502    0  0.00000000000E+00 -0.00000000000E+00 -0.16553562521E+03  0.16553562521E+03  0.00000000000E+00 0. -1.
          6    1    1    2  502    0  0.16235270975E+02 -0.54081700926E+02 -0.17324323837E+02  0.18185858956E+03  0.17200000000E+03 0. -1.
         -6    1    1    2    0  501 -0.16235270975E+02  0.54081700926E+02  0.58298865914E+02  0.19018720295E+03  0.17200000000E+03 0.  1.
</event>
<event>
 4    1  0.4363334E-001  0.1913492E+03  0.7818608E-02  0.1157250E+00
         -2   -1    0    0    0  501 -0.00000000000E+00  0.00000000000E+00  0.77884587216E+03  0.77884587216E+03  0.00000000000E+00 0. -1.
          2   -1    0    0  502    0  0.00000000000E+00 -0.00000000000E+00 -0.49491752021E+02  0.49491752021E+02  0.00000000000E+00 0.  1.
          6    1    1    2  502    0  0.10526924686E+02 -0.83184646009E+02  0.45739902556E+03  0.49581082083E+03  0.17200000000E+03 0. -1.
         -6    1    1    2    0  501 -0.10526924686E+02  0.83184646009E+02  0.27195509458E+03  0.33252680335E+03  0.17200000000E+03 0.  1.
</event>
<event>
 4    1  0.4363334E-001  0.1781665E+03  0.7818608E-02  0.1169589E+00
          2   -1    0    0  502    0  0.00000000000E+00  0.00000000000E+00  0.53139097143E+03  0.53139097143E+03  0.00000000000E+00 0.  1.
         -2   -1    0    0    0  501 -0.00000000000E+00 -0.00000000000E+00 -0.75279751468E+02  0.75279751468E+02  0.00000000000E+00 0. -1.
          6    1    1    2  502    0 -0.38279695206E+02  0.26343443478E+02  0.90221036180E+02  0.19970765496E+03  0.17200000000E+03 0. -1.
         -6    1    1    2    0  501  0.38279695206E+02 -0.26343443478E+02  0.36589018379E+03  0.40696306794E+03  0.17200000000E+03 0.  1.
</event>
<event>
 4    1  0.4363334E-001  0.2248658E+03  0.7818608E-02  0.1130307E+00
         -1   -1    0    0    0  501 -0.00000000000E+00  0.00000000000E+00  0.24794593909E+03  0.24794593909E+03  0.00000000000E+00 0. -1.
          1   -1    0    0  502    0  0.00000000000E+00 -0.00000000000E+00 -0.31378332567E+03  0.31378332567E+03  0.00000000000E+00 0.  1.
          6    1    1    2  502    0  0.17523318853E+02  0.14378299036E+03 -0.19909946007E+03  0.30034182197E+03  0.17200000000E+03 0.  1.
         -6    1    1    2    0  501 -0.17523318853E+02 -0.14378299036E+03  0.13326207349E+03  0.26138744280E+03  0.17200000000E+03 0. -1.
</event>
<event>
 4    1  0.4363334E-001  0.1855139E+03  0.7818608E-02  0.1162571E+00
          3   -1    0    0  502    0  0.00000000000E+00  0.00000000000E+00  0.78377713747E+02  0.78377713747E+02  0.00000000000E+00 0. -1.
         -3   -1    0    0    0  501 -0.00000000000E+00 -0.00000000000E+00 -0.45794641038E+03  0.45794641038E+03  0.00000000000E+00 0.  1.
          6    1    1    2  502    0  0.56603469826E+02  0.40341507553E+02 -0.24418989094E+03  0.30666609344E+03  0.17200000000E+03 0.  1.
         -6    1    1    2    0  501 -0.56603469826E+02 -0.40341507553E+02 -0.13537880569E+03  0.22965803069E+03  0.17200000000E+03 0. -1.
</event>
<event>
 4    1  0.4363334E-001  0.2581148E+03  0.7818608E-02  0.1108281E+00
          2   -1    0    0  502    0  0.00000000000E+00  0.00000000000E+00  0.14758487851E+04  0.14758487851E+04  0.00000000000E+00 0. -1.
         -2   -1    0    0    0  501 -0.00000000000E+00 -0.00000000000E+00 -0.45210869658E+02  0.45210869658E+02  0.00000000000E+00 0.  1.
          6    1    1    2  502    0 -0.16342698803E+03  0.10164092382E+03  0.68570781156E+03  0.73267896152E+03  0.17200000000E+03 0. -1.
         -6    1    1    2    0  501  0.16342698803E+03 -0.10164092382E+03  0.74493010388E+03  0.78838069325E+03  0.17200000000E+03 0.  1.
</event>
<event>
 4    1  0.4363334E-001  0.2463476E+03  0.7818608E-02  0.1115635E+00
          2   -1    0    0  502    0  0.00000000000E+00  0.00000000000E+00  0.10319659024E+04  0.10319659024E+04  0.00000000000E+00 0. -1.
         -2   -1    0    0    0  501 -0.00000000000E+00 -0.00000000000E+00 -0.69977841399E+02  0.69977841399E+02  0.00000000000E+00 0.  1.
          6    1    1    2  502    0  0.17254506638E+03 -0.36487354717E+02  0.70112760983E+03  0.74314672324E+03  0.17200000000E+03 0. -1.
         -6    1    1    2    0  501 -0.17254506638E+03  0.36487354717E+02  0.26086045119E+03  0.35879702058E+03  0.17200000000E+03 0.  1.
</event>
<event>
 4    1  0.4363334E-001  0.2566802E+03  0.7818608E-02  0.1109154E+00
         -2   -1    0    0    0  501 -0.00000000000E+00  0.00000000000E+00  0.59382639548E+02  0.59382639548E+02  0.00000000000E+00 0. -1.
          2   -1    0    0  502    0  0.00000000000E+00 -0.00000000000E+00 -0.11260662037E+04  0.11260662037E+04  0.00000000000E+00 0.  1.
          6    1    1    2  502    0  0.92251860573E+02 -0.16670424175E+03 -0.46143748002E+03  0.52802391799E+03  0.17200000000E+03 0. -1.
         -6    1    1    2    0  501 -0.92251860573E+02  0.16670424175E+03 -0.60524608410E+03  0.65742492523E+03  0.17200000000E+03 0.  1.
</event>
<event>
 4    1  0.4363334E-001  0.2451074E+03  0.7818608E-02  0.1116436E+00
          1   -1    0    0  502    0  0.00000000000E+00  0.00000000000E+00  0.16660223152E+03  0.16660223152E+03  0.00000000000E+00 0.  1.
         -1   -1    0    0    0  501 -0.00000000000E+00 -0.00000000000E+00 -0.36485941268E+03  0.36485941268E+03  0.00000000000E+00 0. -1.
          6    1    1    2  502    0  0.16906628095E+03  0.43706046088E+02 -0.12782254113E+03  0.27643485280E+03  0.17200000000E+03 0.  1.
         -6    1    1    2    0  501 -0.16906628095E+03 -0.43706046088E+02 -0.70434640027E+02  0.25502679141E+03  0.17200000000E+03 0. -1.
</event>
<event>
 4    1  0.4363334E-001  0.2155138E+03  0.7818608E-02  0.1137273E+00
         -2   -1    0    0    0  501 -0.00000000000E+00  0.00000000000E+00  0.56615150224E+02  0.56615150224E+02  0.00000000000E+00 0.  1.
          2   -1    0    0  502    0  0.00000000000E+00 -0.00000000000E+00 -0.82290044943E+03  0.82290044943E+03  0.00000000000E+00 0. -1.
          6    1    1    2  502    0 -0.52511440486E+02  0.11876334667E+03 -0.35882605418E+03  0.41857176333E+03  0.17200000000E+03 0.  1.
         -6    1    1    2    0  501  0.52511440486E+02 -0.11876334667E+03 -0.40745924502E+03  0.46094383632E+03  0.17200000000E+03 0. -1.
</event>
<event>
 4    1  0.4363334E-001  0.1931469E+03  0.7818608E-02  0.1155653E+00
         -1   -1    0    0    0  501 -0.00000000000E+00  0.00000000000E+00  0.17348983253E+02  0.17348983253E+02  0.00000000000E+00 0.  1.
          1   -1    0    0  502    0  0.00000000000E+00 -0.00000000000E+00 -0.22229014955E+04  0.22229014955E+04  0.00000000000E+00 0. -1.
          6    1    1    2  502    0  0.43356945471E+02 -0.76432239999E+02 -0.90035975058E+03  0.92084384805E+03  0.17200000000E+03 0.  1.
         -6    1    1    2    0  501 -0.43356945471E+02  0.76432239999E+02 -0.13051927617E+04  0.13194066308E+04  0.17200000000E+03 0. -1.
</event>
<event>
 4    1  0.4363334E-001  0.2304643E+03  0.7818608E-02  0.1126313E+00
         -3   -1    0    0    0  501 -0.00000000000E+00  0.00000000000E+00  0.10337583089E+03  0.10337583089E+03  0.00000000000E+00 0. -1.
          3   -1    0    0  502    0  0.00000000000E+00 -0.00000000000E+00 -0.55650043302E+03  0.55650043302E+03  0.00000000000E+00 0.  1.
          6    1    1    2  502    0  0.14598983854E+03 -0.47082481827E+02 -0.31796326285E+03  0.39270145094E+03  0.17200000000E+03 0.  1.
         -6    1    1    2    0  501 -0.14598983854E+03  0.47082481827E+02 -0.13516133928E+03  0.26717481297E+03  0.17200000000E+03 0. -1.
</event>
<event>
 4    1  0.4363334E-001  0.3216469E+03  0.7818608E-02  0.1074894E+00
          2   -1    0    0  502    0  0.00000000000E+00  0.00000000000E+00  0.18329840865E+04  0.18329840865E+04  0.00000000000E+00 0. -1.
         -2   -1    0    0    0  501 -0.00000000000E+00 -0.00000000000E+00 -0.72222225621E+02  0.72222225621E+02  0.00000000000E+00 0.  1.
          6    1    1    2  502    0  0.15214025811E+03  0.22522444178E+03  0.43509646491E+03  0.54107822086E+03  0.17200000000E+03 0.  1.
         -6    1    1    2    0  501 -0.15214025811E+03 -0.22522444178E+03  0.13256653960E+04  0.13641280913E+04  0.17200000000E+03 0. -1.
</event>
<event>
 4    1  0.4363334E-001  0.3025010E+03  0.7818608E-02  0.1083997E+00
          1   -1    0    0  502    0  0.00000000000E+00  0.00000000000E+00  0.14742829847E+03  0.14742829847E+03  0.00000000000E+00 0. -1.
         -1   -1    0    0    0  501 -0.00000000000E+00 -0.00000000000E+00 -0.62823780647E+03  0.62823780647E+03  0.00000000000E+00 0.  1.
          6    1    1    2  502    0  0.73551689947E+01  0.24873431707E+03 -0.28292281627E+03  0.41418857899E+03  0.17200000000E+03 0.  1.
         -6    1    1    2    0  501 -0.73551689947E+01 -0.24873431707E+03 -0.19788669173E+03  0.36147752595E+03  0.17200000000E+03 0. -1.
</event>
<event>
 4    1  0.4363334E-001  0.1919472E+03  0.7818608E-02  0.1156717E+00
          2   -1    0    0  502    0  0.00000000000E+00  0.00000000000E+00  0.24101550796E+04  0.24101550796E+04  0.00000000000E+00 0. -1.
         -2   -1    0    0    0  501 -0.00000000000E+00 -0.00000000000E+00 -0.15320402380E+02  0.15320402380E+02  0.00000000000E+00 0.  1.
          6    1    1    2  502    0 -0.32538776380E+02 -0.78746124061E+02  0.11406794692E+04  0.11567166358E+04  0.17200000000E+03 0.  1.
         -6    1    1    2    0  501  0.32538776380E+02  0.78746124061E+02  0.12541552080E+04  0.12687588462E+04  0.17200000000E+03 0. -1.
</event>
<event>
 4    1  0.4363334E-001  0.2405650E+03  0.7818608E-02  0.1119417E+00
         -3   -1    0    0    0  501 -0.00000000000E+00  0.00000000000E+00  0.11553695385E+03  0.11553695385E+03  0.00000000000E+00 0.  1.
          3   -1    0    0  502    0  0.00000000000E+00 -0.00000000000E+00 -0.52952027531E+03  0.52952027531E+03  0.00000000000E+00 0. -1.
          6    1    1    2  502    0  0.10199233295E+03  0.13373505569E+03 -0.13199760685E+03  0.27439910589E+03  0.17200000000E+03 0.  1.
         -6    1    1    2    0  501 -0.10199233295E+03 -0.13373505569E+03 -0.28198571462E+03  0.37065812327E+03  0.17200000000E+03 0. -1.
</event>
<event>
 4    1  0.4363334E-001  0.1795319E+03  0.7818608E-02  0.1168257E+00
         -1   -1    0    0    0  501 -0.00000000000E+00  0.00000000000E+00  0.11908674695E+03  0.11908674695E+03  0.00000000000E+00 0.  1.
          1   -1    0    0  502    0  0.00000000000E+00 -0.00000000000E+00 -0.27870444661E+03  0.27870444661E+03  0.00000000000E+00 0. -1.
          6    1    1    2  502    0 -0.36208264928E+02 -0.36560348863E+02 -0.46012162067E+02  0.18533433739E+03  0.17200000000E+03 0.  1.
         -6    1    1    2    0  501  0.36208264928E+02  0.36560348863E+02 -0.11360553759E+03  0.21245685616E+03  0.17200000000E+03 0. -1.
</event>
<event>
 4    1  0.4363334E-001  0.1786751E+03  0.7818608E-02  0.1169091E+00
         -2   -1    0    0    0  501 -0.00000000000E+00  0.00000000000E+00  0.15122634394E+02  0.15122634394E+02  0.00000000000E+00 0.  1.
          2   -1    0    0  502    0  0.00000000000E+00 -0.00000000000E+00 -0.24227445848E+04  0.24227445848E+04  0.00000000000E+00 0. -1.
          6    1    1    2  502    0 -0.41221167344E+02 -0.25330276064E+02 -0.76660808468E+03  0.78715485326E+03  0.17200000000E+03 0.  1.
         -6    1    1    2    0  501  0.41221167344E+02  0.25330276064E+02 -0.16410138658E+04  0.16507123660E+04  0.17200000000E+03 0. -1.
</event>
<event>
 4    1  0.4363334E-001  0.1820443E+03  0.7818608E-02  0.1165839E+00
          1   -1    0    0  502    0  0.00000000000E+00  0.00000000000E+00  0.45968925348E+02  0.45968925348E+02  0.00000000000E+00 0. -1.
         -1   -1    0    0    0  501 -0.00000000000E+00 -0.00000000000E+00 -0.73171507786E+03  0.73171507786E+03  0.00000000000E+00 0.  1.
          6    1    1    2  502    0 -0.55207873183E+02 -0.22543928840E+02 -0.29565387637E+03  0.34720505843E+03  0.17200000000E+03 0. -1.
         -6    1    1    2    0  501  0.55207873183E+02  0.22543928840E+02 -0.39009227615E+03  0.43047894478E+03  0.17200000000E+03 0. -1.
</event>
<event>
 4    1  0.4363334E-001  0.2480142E+03  0.7818608E-02  0.1114566E+00
          2   -1    0    0  502    0  0.00000000000E+00  0.00000000000E+00  0.16617387323E+03  0.16617387323E+03  0.00000000000E+00 0.  1.
         -2   -1    0    0    0  501 -0.00000000000E+00 -0.00000000000E+00 -0.69287870276E+03  0.69287870276E+03  0.00000000000E+00 0. -1.
          6    1    1    2  502    0 -0.16356343960E+03 -0.71930966478E+02  0.29785933187E+02  0.24979644619E+03  0.17200000000E+03 0.  1.
         -6    1    1    2    0  501  0.16356343960E+03  0.71930966478E+02 -0.55649076271E+03  0.60925612980E+03  0.17200000000E+03 0. -1.
</event>
<event>
 4    1  0.4363334E-001  0.2376313E+03  0.7818608E-02  0.1121381E+00
          2   -1    0    0  502    0  0.00000000000E+00  0.00000000000E+00  0.12779476901E+04  0.12779476901E+04  0.00000000000E+00 0.  1.
         -2   -1    0    0    0  501 -0.00000000000E+00 -0.00000000000E+00 -0.76137485692E+02  0.76137485692E+02  0.00000000000E+00 0. -1.
          6    1    1    2  502    0 -0.10627053552E+03  0.12486477689E+03  0.16231821539E+03  0.28777741794E+03  0.17200000000E+03 0. -1.
         -6    1    1    2    0  501  0.10627053552E+03 -0.12486477689E+03  0.10394919890E+04  0.10663077578E+04  0.17200000000E+03 0.  1.
</event>
<event>
 4    1  0.4363334E-001  0.1802543E+03  0.7818608E-02  0.1167557E+00
         -1   -1    0    0    0  501 -0.00000000000E+00  0.00000000000E+00  0.98895974531E+02  0.98895974531E+02  0.00000000000E+00 0.  1.
          1   -1    0    0  502    0  0.00000000000E+00 -0.00000000000E+00 -0.72996214998E+03  0.72996214998E+03  0.00000000000E+00 0. -1.
          6    1    1    2  502    0 -0.53686066431E+02  0.50418480584E+01 -0.82073796421E+01  0.18044105697E+03  0.17200000000E+03 0.  1.
         -6    1    1    2    0  501  0.53686066431E+02 -0.50418480584E+01 -0.62285879581E+03  0.64841706754E+03  0.17200000000E+03 0. -1.
</event>
<event>
 4    1  0.4363334E-001  0.2595239E+03  0.7818608E-02  0.1107430E+00
         -1   -1    0    0    0  501 -0.00000000000E+00  0.00000000000E+00  0.17210352095E+03  0.17210352095E+03  0.00000000000E+00 0.  1.
          1   -1    0    0  502    0  0.00000000000E+00 -0.00000000000E+00 -0.50790936789E+03  0.50790936789E+03  0.00000000000E+00 0. -1.
          6    1    1    2  502    0 -0.19199161584E+03 -0.30130762272E+02 -0.33078315636E+03  0.42044041185E+03  0.17200000000E+03 0. -1.
         -6    1    1    2    0  501  0.19199161584E+03  0.30130762272E+02 -0.50226905751E+01  0.25957247699E+03  0.17200000000E+03 0.  1.
</event>
<event>
 4    1  0.4363334E-001  0.2633484E+03  0.7818608E-02  0.1105148E+00
         -2   -1    0    0    0  501 -0.00000000000E+00  0.00000000000E+00  0.11068215331E+03  0.11068215331E+03  0.00000000000E+00 0. -1.
          2   -1    0    0  502    0  0.00000000000E+00 -0.00000000000E+00 -0.64732590154E+03  0.64732590154E+03  0.00000000000E+00 0.  1.
          6    1    1    2  502    0  0.99179681808E+02 -0.17300803140E+03 -0.33615445287E+03  0.42702717056E+03  0.17200000000E+03 0.  1.
         -6    1    1    2    0  501 -0.99179681808E+02  0.17300803140E+03 -0.20048929535E+03  0.33098088429E+03  0.17200000000E+03 0. -1.
</event>
<event>
 4    1  0.4363334E-001  0.2286381E+03  0.7818608E-02  0.1127602E+00
          1   -1    0    0  502    0  0.00000000000E+00  0.00000000000E+00  0.60882458928E+03  0.60882458928E+03  0.00000000000E+00 0.  1.
         -1   -1    0    0    0  501 -0.00000000000E+00 -0.00000000000E+00 -0.90914815308E+02  0.90914815308E+02  0.00000000000E+00 0. -1.
          6    1    1    2  502    0  0.63297123445E+02 -0.13669261845E+03  0.17648026047E+03  0.28882638403E+03  0.17200000000E+03 0.  1.
         -6    1    1    2    0  501 -0.63297123445E+02  0.13669261845E+03  0.34142951350E+03  0.41091302056E+03  0.17200000000E+03 0. -1.
</event>
<event>
 4    1  0.4363334E-001  0.1728382E+03  0.7818608E-02  0.1174920E+00
         -1   -1    0    0    0  501 -0.00000000000E+00  0.00000000000E+00  0.57543130567E+02  0.57543130567E+02  0.00000000000E+00 0.  1.
          1   -1    0    0  502    0  0.00000000000E+00 -0.00000000000E+00 -0.89513873445E+03  0.89513873445E+03  0.00000000000E+00 0. -1.
          6    1    1    2  502    0  0.63940973234E+01  0.15753079157E+02 -0.11007771819E+03  0.20491497755E+03  0.17200000000E+03 0.  1.
         -6    1    1    2    0  501 -0.63940973234E+01 -0.15753079157E+02 -0.72751788570E+03  0.74776688747E+03  0.17200000000E+03 0. -1.
</event>
<event>
 4    1  0.4363334E-001  0.1826982E+03  0.7818608E-02  0.1165217E+00
         -2   -1    0    0    0  501 -0.00000000000E+00  0.00000000000E+00  0.73188157307E+02  0.73188157307E+02  0.00000000000E+00 0. -1.
          2   -1    0    0  502    0  0.00000000000E+00 -0.00000000000E+00 -0.47909947832E+03  0.47909947832E+03  0.00000000000E+00 0.  1.
          6    1    1    2  502    0  0.22711531544E+02  0.57260840446E+02 -0.14240709383E+03  0.23164282395E+03  0.17200000000E+03 0. -1.
         -6    1    1    2    0  501 -0.22711531544E+02 -0.57260840446E+02 -0.26350422718E+03  0.32064481168E+03  0.17200000000E+03 0.  1.
</event>
<event>
 4    1  0.4363334E-001  0.4904604E+03  0.7818608E-02  0.1016299E+00
         -2   -1    0    0    0  501 -0.00000000000E+00  0.00000000000E+00  0.91334157316E+03  0.91334157316E+03  0.00000000000E+00 0.  1.
          2   -1    0    0  502    0  0.00000000000E+00 -0.00000000000E+00 -0.31169941541E+03  0.31169941541E+03  0.00000000000E+00 0. -1.
          6    1    1    2  502    0  0.15165101184E+03  0.43355436028E+03  0.59644260484E+02  0.49407372984E+03  0.17200000000E+03 0. -1.
         -6    1    1    2    0  501 -0.15165101184E+03 -0.43355436028E+03  0.54199789727E+03  0.73096725874E+03  0.17200000000E+03 0.  1.
</event>
<event>
 4    1  0.4363334E-001  0.2155497E+03  0.7818608E-02  0.1137245E+00
         -2   -1    0    0    0  501 -0.00000000000E+00  0.00000000000E+00  0.90927158397E+02  0.90927158397E+02  0.00000000000E+00 0.  1.
          2   -1    0    0  502    0  0.00000000000E+00 -0.00000000000E+00 -0.52921604090E+03  0.52921604090E+03  0.00000000000E+00 0. -1.
          6    1    1    2  502    0 -0.41785790013E+02 -0.12301058145E+03 -0.16158049271E+03  0.26938803058E+03  0.17200000000E+03 0.  1.
         -6    1    1    2    0  501  0.41785790013E+02  0.12301058145E+03 -0.27670838979E+03  0.35075516871E+03  0.17200000000E+03 0. -1.
</event>
<event>
 4    1  0.4363334E-001  0.2512077E+03  0.7818608E-02  0.1112544E+00
          2   -1    0    0  502    0  0.00000000000E+00  0.00000000000E+00  0.46284416315E+03  0.46284416315E+03  0.00000000000E+00 0.  1.
         -2   -1    0    0    0  501 -0.00000000000E+00 -0.00000000000E+00 -0.13672639685E+03  0.13672639685E+03  0.00000000000E+00 0. -1.
          6    1    1    2  502    0  0.45649464699E+02 -0.17730603770E+03  0.17894518377E+03  0.30842613934E+03  0.17200000000E+03 0. -1.
         -6    1    1    2    0  501 -0.45649464699E+02  0.17730603770E+03  0.14717258252E+03  0.29114442065E+03  0.17200000000E+03 0.  1.
</event>
<event>
 4    1  0.4363334E-001  0.2339934E+03  0.7818608E-02  0.1123860E+00
          2   -1    0    0  502    0  0.00000000000E+00  0.00000000000E+00  0.65011833945E+03  0.65011833945E+03  0.00000000000E+00 0. -1.
         -2   -1    0    0    0  501 -0.00000000000E+00 -0.00000000000E+00 -0.13982936373E+03  0.13982936373E+03  0.00000000000E+00 0.  1.
          6    1    1    2  502    0 -0.47587767912E+01  0.15857575261E+03  0.60618678356E+01  0.23407191526E+03  0.17200000000E+03 0.  1.
         -6    1    1    2    0  501  0.47587767912E+01 -0.15857575261E+03  0.50422710789E+03  0.55587578792E+03  0.17200000000E+03 0. -1.
</event>
<event>
 4    1  0.4363334E-001  0.1988874E+03  0.7818608E-02  0.1150681E+00
          2   -1    0    0  502    0  0.00000000000E+00  0.00000000000E+00  0.12087830496E+04  0.12087830496E+04  0.00000000000E+00 0.  1.
         -2   -1    0    0    0  501 -0.00000000000E+00 -0.00000000000E+00 -0.34108729499E+02  0.34108729499E+02  0.00000000000E+00 0. -1.
          6    1    1    2  502    0 -0.91640437753E+02 -0.39676592946E+02  0.46212257413E+03  0.50310384155E+03  0.17200000000E+03 0. -1.
         -6    1    1    2    0  501  0.91640437753E+02  0.39676592946E+02  0.71255174593E+03  0.73978793751E+03  0.17200000000E+03 0.  1.
</event>
<event>
 4    1  0.4363334E-001  0.1866485E+03  0.7818608E-02  0.1161519E+00
          2   -1    0    0  502    0  0.00000000000E+00  0.00000000000E+00  0.37588527128E+03  0.37588527128E+03  0.00000000000E+00 0. -1.
         -2   -1    0    0    0  501 -0.00000000000E+00 -0.00000000000E+00 -0.92681740904E+02  0.92681740904E+02  0.00000000000E+00 0.  1.
          6    1    1    2  502    0  0.27131288270E+02  0.67212741877E+02  0.14134498743E+03  0.23412830872E+03  0.17200000000E+03 0. -1.
         -6    1    1    2    0  501 -0.27131288270E+02 -0.67212741877E+02  0.14185854295E+03  0.23443870346E+03  0.17200000000E+03 0.  1.
</event>
<event>
 4    1  0.4363334E-001  0.2046264E+03  0.7818608E-02  0.1145893E+00
          1   -1    0    0  502    0  0.00000000000E+00  0.00000000000E+00  0.64149370027E+03  0.64149370027E+03  0.00000000000E+00 0. -1.
         -1   -1    0    0    0  501 -0.00000000000E+00 -0.00000000000E+00 -0.67946328216E+02  0.67946328216E+02  0.00000000000E+00 0.  1.
          6    1    1    2  502    0 -0.41192688673E+02  0.10291326290E+03  0.21640825472E+03  0.29783302367E+03  0.17200000000E+03 0. -1.
         -6    1    1    2    0  501  0.41192688673E+02 -0.10291326290E+03  0.35713911734E+03  0.41160700481E+03  0.17200000000E+03 0. -1.
</event>
<event>
 4    1  0.4363334E-001  0.3000125E+03  0.7818608E-02  0.1085234E+00
          1   -1    0    0  502    0  0.00000000000E+00  0.00000000000E+00  0.37644919208E+03  0.37644919208E+03  0.00000000000E+00 0.  1.
         -1   -1    0    0    0  501 -0.00000000000E+00 -0.00000000000E+00 -0.29293702246E+03  0.29293702246E+03  0.00000000000E+00 0. -1.
          6    1    1    2  502    0 -0.12013318200E+02 -0.24551823951E+03  0.18524421227E+03  0.35259458862E+03  0.17200000000E+03 0.  1.
         -6    1    1    2    0  501  0.12013318200E+02  0.24551823951E+03 -0.10173204265E+03  0.31679162591E+03  0.17200000000E+03 0. -1.
</event>
<event>
 4    1  0.4363334E-001  0.2372520E+03  0.7818608E-02  0.1121637E+00
          2   -1    0    0  502    0  0.00000000000E+00  0.00000000000E+00  0.18538802027E+04  0.18538802027E+04  0.00000000000E+00 0. -1.
         -2   -1    0    0    0  501 -0.00000000000E+00 -0.00000000000E+00 -0.63729405485E+02  0.63729405485E+02  0.00000000000E+00 0.  1.
          6    1    1    2  502    0 -0.13381737175E+03  0.93794592071E+02  0.15888493085E+04  0.16064652625E+04  0.17200000000E+03 0. -1.
         -6    1    1    2    0  501  0.13381737175E+03 -0.93794592071E+02  0.20130148866E+03  0.31114434564E+03  0.17200000000E+03 0.  1.
</event>
<event>
 4    1  0.4363334E-001  0.2050035E+03  0.7818608E-02  0.1145585E+00
         -2   -1    0    0    0  501 -0.00000000000E+00  0.00000000000E+00  0.37696501397E+02  0.37696501397E+02  0.00000000000E+00 0.  1.
          2   -1    0    0  502    0  0.00000000000E+00 -0.00000000000E+00 -0.11563131362E+04  0.11563131362E+04  0.00000000000E+00 0. -1.
          6    1    1    2  502    0  0.68851529558E+02  0.87760552672E+02 -0.67234028009E+03  0.70289963719E+03  0.17200000000E+03 0. -1.
         -6    1    1    2    0  501 -0.68851529558E+02 -0.87760552672E+02 -0.44627635472E+03  0.49111000042E+03  0.17200000000E+03 0.  1.
</event>
<event>
 4    1  0.4363334E-001  0.1734892E+03  0.7818608E-02  0.1174257E+00
         -1   -1    0    0    0  501 -0.00000000000E+00  0.00000000000E+00  0.76185025553E+02  0.76185025553E+02  0.00000000000E+00 0.  1.
          1   -1    0    0  502    0  0.00000000000E+00 -0.00000000000E+00 -0.46887620632E+03  0.46887620632E+03  0.00000000000E+00 0. -1.
          6    1    1    2  502    0 -0.22621079899E+02 -0.16718644286E+01 -0.88219835350E+02  0.19463105542E+03  0.17200000000E+03 0.  1.
         -6    1    1    2    0  501  0.22621079899E+02  0.16718644286E+01 -0.30447134542E+03  0.35043017645E+03  0.17200000000E+03 0. -1.
</event>
<event>
 4    1  0.4363334E-001  0.2256841E+03  0.7818608E-02  0.1129715E+00
          2   -1    0    0  502    0  0.00000000000E+00  0.00000000000E+00  0.10434687466E+04  0.10434687466E+04  0.00000000000E+00 0.  1.
         -2   -1    0    0    0  501 -0.00000000000E+00 -0.00000000000E+00 -0.53256153437E+02  0.53256153437E+02  0.00000000000E+00 0. -1.
          6    1    1    2  502    0 -0.10342798030E+03 -0.10320841072E+03  0.33669013184E+03  0.40533142986E+03  0.17200000000E+03 0. -1.
         -6    1    1    2    0  501  0.10342798030E+03  0.10320841072E+03  0.65352246134E+03  0.69139347019E+03  0.17200000000E+03 0.  1.
</event>
<event>
 4    1  0.4363334E-001  0.4714596E+03  0.7818608E-02  0.1021509E+00
         -2   -1    0    0    0  501 -0.00000000000E+00  0.00000000000E+00  0.89994706047E+02  0.89994706047E+02  0.00000000000E+00 0.  1.
          2   -1    0    0  502    0  0.00000000000E+00 -0.00000000000E+00 -0.28302038213E+04  0.28302038213E+04  0.00000000000E+00 0. -1.
          6    1    1    2  502    0 -0.61511728495E+02 -0.43463374131E+03 -0.84911019768E+03  0.97121692203E+03  0.17200000000E+03 0.  1.
         -6    1    1    2    0  501  0.61511728495E+02  0.43463374131E+03 -0.18910989175E+04  0.19489816053E+04  0.17200000000E+03 0. -1.
</event>
<event>
 4    1  0.4363334E-001  0.1871180E+03  0.7818608E-02  0.1161087E+00
          2   -1    0    0  502    0  0.00000000000E+00  0.00000000000E+00  0.12448708569E+03  0.12448708569E+03  0.00000000000E+00 0.  1.
         -2   -1    0    0    0  501 -0.00000000000E+00 -0.00000000000E+00 -0.36109512468E+03  0.36109512468E+03  0.00000000000E+00 0. -1.
          6    1    1    2  502    0  0.67453516392E+02 -0.29650983406E+02 -0.41422446282E+01  0.18716387440E+03  0.17200000000E+03 0.  1.
         -6    1    1    2    0  501 -0.67453516392E+02  0.29650983406E+02 -0.23246579436E+03  0.29841833596E+03  0.17200000000E+03 0. -1.
</event>
<event>
 4    1  0.4363334E-001  0.4037585E+03  0.7818608E-02  0.1042486E+00
          1   -1    0    0  502    0  0.00000000000E+00  0.00000000000E+00  0.32478988891E+03  0.32478988891E+03  0.00000000000E+00 0. -1.
         -1   -1    0    0    0  501 -0.00000000000E+00 -0.00000000000E+00 -0.53636253409E+03  0.53636253409E+03  0.00000000000E+00 0.  1.
          6    1    1    2  502    0  0.10135507571E+03 -0.35094737169E+03 -0.21488573010E+03  0.45738035165E+03  0.17200000000E+03 0.  1.
         -6    1    1    2    0  501 -0.10135507571E+03  0.35094737169E+03  0.33130849181E+01  0.40377207135E+03  0.17200000000E+03 0. -1.
</event>
<event>
 4    1  0.4363334E-001  0.2730872E+03  0.7818608E-02  0.1099526E+00
          1   -1    0    0  502    0  0.00000000000E+00  0.00000000000E+00  0.28702496166E+03  0.28702496166E+03  0.00000000000E+00 0.  1.
         -1   -1    0    0    0  501 -0.00000000000E+00 -0.00000000000E+00 -0.27114985841E+03  0.27114985841E+03  0.00000000000E+00 0. -1.
          6    1    1    2  502    0 -0.20713218223E+03 -0.45704385134E+02  0.64970674781E+02  0.28070949453E+03  0.17200000000E+03 0. -1.
         -6    1    1    2    0  501  0.20713218223E+03  0.45704385134E+02 -0.49095571531E+02  0.27746532555E+03  0.17200000000E+03 0.  1.
</event>
<event>
 4    1  0.4363334E-001  0.2051427E+03  0.7818608E-02  0.1145471E+00
          2   -1    0    0  502    0  0.00000000000E+00  0.00000000000E+00  0.10761975224E+04  0.10761975224E+04  0.00000000000E+00 0.  1.
         -2   -1    0    0    0  501 -0.00000000000E+00 -0.00000000000E+00 -0.40257404179E+02  0.40257404179E+02  0.00000000000E+00 0. -1.
          6    1    1    2  502    0  0.84779868585E+02  0.72882656281E+02  0.61246316056E+03  0.64590605412E+03  0.17200000000E+03 0.  1.
         -6    1    1    2    0  501 -0.84779868585E+02 -0.72882656281E+02  0.42347695766E+03  0.47054887246E+03  0.17200000000E+03 0. -1.
</event>
<event>
 4    1  0.4363334E-001  0.3128001E+03  0.7818608E-02  0.1079011E+00
          2   -1    0    0  502    0  0.00000000000E+00  0.00000000000E+00  0.31503842042E+03  0.31503842042E+03  0.00000000000E+00 0. -1.
         -2   -1    0    0    0  501 -0.00000000000E+00 -0.00000000000E+00 -0.31742079421E+03  0.31742079421E+03  0.00000000000E+00 0.  1.
          6    1    1    2  502    0  0.24108198491E+03  0.10069458658E+03  0.45239977098E+02  0.31605470847E+03  0.17200000000E+03 0. -1.
         -6    1    1    2    0  501 -0.24108198491E+03 -0.10069458658E+03 -0.47622350892E+02  0.31640450617E+03  0.17200000000E+03 0.  1.
</event>
<event>
 4    1  0.4363334E-001  0.3844304E+03  0.7818608E-02  0.1049308E+00
          2   -1    0    0  502    0  0.00000000000E+00  0.00000000000E+00  0.57288754236E+03  0.57288754236E+03  0.00000000000E+00 0.  1.
         -2   -1    0    0    0  501 -0.00000000000E+00 -0.00000000000E+00 -0.58704712865E+03  0.58704712865E+03  0.00000000000E+00 0. -1.
          6    1    1    2  502    0 -0.14171263297E+03  0.31324154427E+03 -0.44130709414E+03  0.58526804691E+03  0.17200000000E+03 0. -1.
         -6    1    1    2    0  501  0.14171263297E+03 -0.31324154427E+03  0.42714750785E+03  0.57466662410E+03  0.17200000000E+03 0.  1.
</event>
<event>
 4    1  0.4363334E-001  0.2441070E+03  0.7818608E-02  0.1117087E+00
          2   -1    0    0  502    0  0.00000000000E+00  0.00000000000E+00  0.23493507791E+03  0.23493507791E+03  0.00000000000E+00 0. -1.
         -2   -1    0    0    0  501 -0.00000000000E+00 -0.00000000000E+00 -0.29644855004E+03  0.29644855004E+03  0.00000000000E+00 0.  1.
          6    1    1    2  502    0  0.89917435141E+02 -0.14805102549E+03  0.70211202518E+02  0.25400366976E+03  0.17200000000E+03 0.  1.
         -6    1    1    2    0  501 -0.89917435141E+02  0.14805102549E+03 -0.13172467465E+03  0.27737995819E+03  0.17200000000E+03 0.  1.
</event>
<event>
 4    1  0.4363334E-001  0.1747444E+03  0.7818608E-02  0.1172989E+00
         -1   -1    0    0    0  501 -0.00000000000E+00  0.00000000000E+00  0.69744185939E+02  0.69744185939E+02  0.00000000000E+00 0. -1.
          1   -1    0    0  502    0  0.00000000000E+00 -0.00000000000E+00 -0.78180643870E+03  0.78180643870E+03  0.00000000000E+00 0.  1.
          6    1    1    2  502    0  0.28072991389E+02 -0.12786971110E+02 -0.63845389445E+03  0.66193577846E+03  0.17200000000E+03 0.  1.
         -6    1    1    2    0  501 -0.28072991389E+02  0.12786971110E+02 -0.73608358310E+02  0.18961484617E+03  0.17200000000E+03 0. -1.
</event>
<event>
 4    1  0.4363334E-001  0.1966062E+03  0.7818608E-02  0.1152634E+00
          1   -1    0    0  502    0  0.00000000000E+00  0.00000000000E+00  0.13020020563E+04  0.13020020563E+04  0.00000000000E+00 0.  1.
         -1   -1    0    0    0  501 -0.00000000000E+00 -0.00000000000E+00 -0.30022584252E+02  0.30022584252E+02  0.00000000000E+00 0. -1.
          6    1    1    2  502    0  0.92311255020E+02  0.23422536054E+02  0.70628696570E+03  0.73314068289E+03  0.17200000000E+03 0. -1.
         -6    1    1    2    0  501 -0.92311255020E+02 -0.23422536054E+02  0.56569250633E+03  0.59888395764E+03  0.17200000000E+03 0.  1.
</event>
<event>
 4    1  0.4363334E-001  0.2748455E+03  0.7818608E-02  0.1098538E+00
         -2   -1    0    0    0  501 -0.00000000000E+00  0.00000000000E+00  0.25347080249E+03  0.25347080249E+03  0.00000000000E+00 0.  1.
          2   -1    0    0  502    0  0.00000000000E+00 -0.00000000000E+00 -0.29804187276E+03  0.29804187276E+03  0.00000000000E+00 0. -1.
          6    1    1    2  502    0 -0.13333728299E+03  0.16786075802E+03 -0.24494474562E+02  0.27593485536E+03  0.17200000000E+03 0. -1.
         -6    1    1    2    0  501  0.13333728299E+03 -0.16786075802E+03 -0.20076595717E+02  0.27557781989E+03  0.17200000000E+03 0.  1.
</event>
<event>
 4    1  0.4363334E-001  0.1907020E+03  0.7818608E-02  0.1157830E+00
          1   -1    0    0  502    0  0.00000000000E+00  0.00000000000E+00  0.63202289010E+03  0.63202289010E+03  0.00000000000E+00 0.  1.
         -1   -1    0    0    0  501 -0.00000000000E+00 -0.00000000000E+00 -0.58157286430E+02  0.58157286430E+02  0.00000000000E+00 0. -1.
          6    1    1    2  502    0 -0.64219986424E+02 -0.51566010796E+02  0.32245537636E+03  0.37462612011E+03  0.17200000000E+03 0.  1.
         -6    1    1    2    0  501  0.64219986424E+02  0.51566010796E+02  0.25141022731E+03  0.31555405641E+03  0.17200000000E+03 0.  1.
</event>
<event>
 4    1  0.4363334E-001  0.1912309E+03  0.7818608E-02  0.1157356E+00
          2   -1    0    0  502    0  0.00000000000E+00  0.00000000000E+00  0.49383597602E+03  0.49383597602E+03  0.00000000000E+00 0.  1.
         -2   -1    0    0    0  501 -0.00000000000E+00 -0.00000000000E+00 -0.74357583881E+02  0.74357583881E+02  0.00000000000E+00 0. -1.
          6    1    1    2  502    0 -0.52951581837E+02 -0.64663600647E+02  0.19150920717E+03  0.27063818596E+03  0.17200000000E+03 0. -1.
         -6    1    1    2    0  501  0.52951581837E+02  0.64663600647E+02  0.22796918497E+03  0.29755537394E+03  0.17200000000E+03 0.  1.
</event>
<event>
 4    1  0.4363334E-001  0.1971503E+03  0.7818608E-02  0.1152166E+00
          4   -1    0    0  502    0  0.00000000000E+00  0.00000000000E+00  0.10390920867E+03  0.10390920867E+03  0.00000000000E+00 0. -1.
         -4   -1    0    0    0  501 -0.00000000000E+00 -0.00000000000E+00 -0.40121001523E+03  0.40121001523E+03  0.00000000000E+00 0.  1.
          6    1    1    2  502    0 -0.57625718597E+02  0.77223876011E+02 -0.21435038101E+03  0.29122901007E+03  0.17200000000E+03 0.  1.
         -6    1    1    2    0  501  0.57625718597E+02 -0.77223876011E+02 -0.82950425549E+02  0.21389021382E+03  0.17200000000E+03 0.  1.
</event>
<event>
 4    1  0.4363334E-001  0.2156228E+03  0.7818608E-02  0.1137189E+00
         -1   -1    0    0    0  501 -0.00000000000E+00  0.00000000000E+00  0.48314311333E+03  0.48314311333E+03  0.00000000000E+00 0. -1.
          1   -1    0    0  502    0  0.00000000000E+00 -0.00000000000E+00 -0.96353389141E+02  0.96353389141E+02  0.00000000000E+00 0.  1.
          6    1    1    2  502    0 -0.11574552462E+03 -0.59263473452E+02  0.18305433799E+03  0.28284638306E+03  0.17200000000E+03 0. -1.
         -6    1    1    2    0  501  0.11574552462E+03  0.59263473452E+02  0.20373538620E+03  0.29665011941E+03  0.17200000000E+03 0.  1.
</event>
<event>
 4    1  0.4363334E-001  0.2872637E+03  0.7818608E-02  0.1091787E+00
          2   -1    0    0  502    0  0.00000000000E+00  0.00000000000E+00  0.13075096708E+04  0.13075096708E+04  0.00000000000E+00 0.  1.
         -2   -1    0    0    0  501 -0.00000000000E+00 -0.00000000000E+00 -0.81088684560E+02  0.81088684560E+02  0.00000000000E+00 0. -1.
          6    1    1    2  502    0 -0.22598984804E+03  0.43185777131E+02  0.94010924486E+03  0.98301872568E+03  0.17200000000E+03 0.  1.
         -6    1    1    2    0  501  0.22598984804E+03 -0.43185777131E+02  0.28631174139E+03  0.40557962969E+03  0.17200000000E+03 0. -1.
</event>
<event>
 4    1  0.4363334E-001  0.2215924E+03  0.7818608E-02  0.1132701E+00
         -2   -1    0    0    0  501 -0.00000000000E+00  0.00000000000E+00  0.66286758452E+02  0.66286758452E+02  0.00000000000E+00 0.  1.
          2   -1    0    0  502    0  0.00000000000E+00 -0.00000000000E+00 -0.76418137800E+03  0.76418137800E+03  0.00000000000E+00 0. -1.
          6    1    1    2  502    0  0.62450201912E+02 -0.12497673466E+03 -0.42162689803E+03  0.47631129849E+03  0.17200000000E+03 0. -1.
         -6    1    1    2    0  501 -0.62450201912E+02  0.12497673466E+03 -0.27626772152E+03  0.35415683797E+03  0.17200000000E+03 0. -1.
</event>
<event>
 4    1  0.4363334E-001  0.1970928E+03  0.7818608E-02  0.1152215E+00
         -1   -1    0    0    0  501 -0.00000000000E+00  0.00000000000E+00  0.45851932944E+02  0.45851932944E+02  0.00000000000E+00 0.  1.
          1   -1    0    0  502    0  0.00000000000E+00 -0.00000000000E+00 -0.85489763879E+03  0.85489763879E+03  0.00000000000E+00 0. -1.
          6    1    1    2  502    0  0.90272062936E+02 -0.33354452107E+02 -0.44727070904E+03  0.48877055147E+03  0.17200000000E+03 0. -1.
         -6    1    1    2    0  501 -0.90272062936E+02  0.33354452107E+02 -0.36177499681E+03  0.41197902027E+03  0.17200000000E+03 0. -1.
</event>
<event>
 4    1  0.4363334E-001  0.1870295E+03  0.7818608E-02  0.1161168E+00
          1   -1    0    0  502    0  0.00000000000E+00  0.00000000000E+00  0.17048853169E+03  0.17048853169E+03  0.00000000000E+00 0. -1.
         -1   -1    0    0    0  501 -0.00000000000E+00 -0.00000000000E+00 -0.63759956459E+03  0.63759956459E+03  0.00000000000E+00 0.  1.
          6    1    1    2  502    0  0.49547154389E+02 -0.54231911521E+02  0.99188135971E+02  0.21170334682E+03  0.17200000000E+03 0. -1.
         -6    1    1    2    0  501 -0.49547154389E+02  0.54231911521E+02 -0.56629916887E+03  0.59638474947E+03  0.17200000000E+03 0.  1.
</event>
<event>
 4    1  0.4363334E-001  0.2298305E+03  0.7818608E-02  0.1126759E+00
         -1   -1    0    0    0  501 -0.00000000000E+00  0.00000000000E+00  0.16688775359E+03  0.16688775359E+03  0.00000000000E+00 0. -1.
          1   -1    0    0  502    0  0.00000000000E+00 -0.00000000000E+00 -0.36012767645E+03  0.36012767645E+03  0.00000000000E+00 0.  1.
          6    1    1    2  502    0 -0.46012032676E+02  0.14533047622E+03 -0.18832307276E+03  0.29713235132E+03  0.17200000000E+03 0. -1.
         -6    1    1    2    0  501  0.46012032676E+02 -0.14533047622E+03 -0.49168501025E+01  0.22988307873E+03  0.17200000000E+03 0. -1.
</event>
<event>
 4    1  0.4363334E-001  0.1835866E+03  0.7818608E-02  0.1164376E+00
          2   -1    0    0  502    0  0.00000000000E+00  0.00000000000E+00  0.51864103389E+03  0.51864103389E+03  0.00000000000E+00 0. -1.
         -2   -1    0    0    0  501 -0.00000000000E+00 -0.00000000000E+00 -0.65009072636E+02  0.65009072636E+02  0.00000000000E+00 0.  1.
          6    1    1    2  502    0  0.56022297370E+02  0.31329532557E+02  0.22123416094E+03  0.28748668035E+03  0.17200000000E+03 0.  1.
         -6    1    1    2    0  501 -0.56022297370E+02 -0.31329532557E+02  0.23239780031E+03  0.29616342617E+03  0.17200000000E+03 0. -1.
</event>
<event>
 4    1  0.4363334E-001  0.1797801E+03  0.7818608E-02  0.1168016E+00
         -2   -1    0    0    0  501 -0.00000000000E+00  0.00000000000E+00  0.29610864610E+02  0.29610864610E+02  0.00000000000E+00 0.  1.
          2   -1    0    0  502    0  0.00000000000E+00 -0.00000000000E+00 -0.14521820646E+04  0.14521820646E+04  0.00000000000E+00 0. -1.
          6    1    1    2  502    0  0.47706854489E+02 -0.21469462169E+02 -0.34205592889E+03  0.38642352446E+03  0.17200000000E+03 0.  1.
         -6    1    1    2    0  501 -0.47706854489E+02  0.21469462169E+02 -0.10805152711E+04  0.10953694048E+04  0.17200000000E+03 0. -1.
</event>
<event>
 4    1  0.4363334E-001  0.2218488E+03  0.7818608E-02  0.1132512E+00
         -1   -1    0    0    0  501 -0.00000000000E+00  0.00000000000E+00  0.17669374547E+03  0.17669374547E+03  0.00000000000E+00 0.  1.
          1   -1    0    0  502    0  0.00000000000E+00 -0.00000000000E+00 -0.31644982746E+03  0.31644982746E+03  0.00000000000E+00 0. -1.
          6    1    1    2  502    0  0.56151189479E+02  0.12837412844E+03  0.15460948813E+02  0.22238685633E+03  0.17200000000E+03 0.  1.
         -6    1    1    2    0  501 -0.56151189479E+02 -0.12837412844E+03 -0.15521703080E+03  0.27075671660E+03  0.17200000000E+03 0.  1.
</event>
<event>
 4    1  0.4363334E-001  0.1751861E+03  0.7818608E-02  0.1172545E+00
          2   -1    0    0  502    0  0.00000000000E+00  0.00000000000E+00  0.38090997709E+03  0.38090997709E+03  0.00000000000E+00 0.  1.
         -2   -1    0    0    0  501 -0.00000000000E+00 -0.00000000000E+00 -0.80655469021E+02  0.80655469021E+02  0.00000000000E+00 0. -1.
          6    1    1    2  502    0 -0.31053863248E+02 -0.11908894971E+02  0.14264323909E+03  0.22591427104E+03  0.17200000000E+03 0. -1.
         -6    1    1    2    0  501  0.31053863248E+02  0.11908894971E+02  0.15761126898E+03  0.23565117507E+03  0.17200000000E+03 0. -1.
</event>
<event>
 4    1  0.4363334E-001  0.2113217E+03  0.7818608E-02  0.1140524E+00
         -2   -1    0    0    0  501 -0.00000000000E+00  0.00000000000E+00  0.21535709241E+02  0.21535709241E+02  0.00000000000E+00 0.  1.
          2   -1    0    0  502    0  0.00000000000E+00 -0.00000000000E+00 -0.24244400392E+04  0.24244400392E+04  0.00000000000E+00 0. -1.
          6    1    1    2  502    0  0.11806732234E+03  0.33659736942E+02 -0.16666726417E+04  0.16800162395E+04  0.17200000000E+03 0.  1.
         -6    1    1    2    0  501 -0.11806732234E+03 -0.33659736942E+02 -0.73623168829E+03  0.76595950894E+03  0.17200000000E+03 0. -1.
</event>
<event>
 4    1  0.4363334E-001  0.2711847E+03  0.7818608E-02  0.1100603E+00
          2   -1    0    0  502    0  0.00000000000E+00  0.00000000000E+00  0.78275166102E+03  0.78275166102E+03  0.00000000000E+00 0.  1.
         -2   -1    0    0    0  501 -0.00000000000E+00 -0.00000000000E+00 -0.94159296999E+02  0.94159296999E+02  0.00000000000E+00 0. -1.
          6    1    1    2  502    0  0.18542727685E+03  0.97846127580E+02  0.32372705073E+03  0.42230361478E+03  0.17200000000E+03 0.  1.
         -6    1    1    2    0  501 -0.18542727685E+03 -0.97846127580E+02  0.36486531329E+03  0.45460734324E+03  0.17200000000E+03 0. -1.
</event>
<event>
 4    1  0.4363334E-001  0.2682833E+03  0.7818608E-02  0.1102266E+00
          2   -1    0    0  502    0  0.00000000000E+00  0.00000000000E+00  0.13385775659E+03  0.13385775659E+03  0.00000000000E+00 0. -1.
         -2   -1    0    0    0  501 -0.00000000000E+00 -0.00000000000E+00 -0.62839168326E+03  0.62839168326E+03  0.00000000000E+00 0.  1.
          6    1    1    2  502    0  0.13885398084E+03 -0.15202469809E+03 -0.39205228158E+03  0.47505886827E+03  0.17200000000E+03 0.  1.
         -6    1    1    2    0  501 -0.13885398084E+03  0.15202469809E+03 -0.10248164509E+03  0.28719057158E+03  0.17200000000E+03 0. -1.
</event>
<event>
 4    1  0.4363334E-001  0.2407255E+03  0.7818608E-02  0.1119310E+00
         -2   -1    0    0    0  501 -0.00000000000E+00  0.00000000000E+00  0.11966773388E+03  0.11966773388E+03  0.00000000000E+00 0.  1.
          2   -1    0    0  502    0  0.00000000000E+00 -0.00000000000E+00 -0.55162888309E+03  0.55162888309E+03  0.00000000000E+00 0. -1.
          6    1    1    2  502    0  0.77698674227E+01  0.16823906303E+03 -0.98671337154E+02  0.26016299880E+03  0.17200000000E+03 0.  1.
         -6    1    1    2    0  501 -0.77698674227E+01 -0.16823906303E+03 -0.33328981205E+03  0.41113361817E+03  0.17200000000E+03 0. -1.
</event>
<event>
 4    1  0.4363334E-001  0.1734767E+03  0.7818608E-02  0.1174270E+00
         -2   -1    0    0    0  501 -0.00000000000E+00  0.00000000000E+00  0.10368629547E+03  0.10368629547E+03  0.00000000000E+00 0.  1.
          2   -1    0    0  502    0  0.00000000000E+00 -0.00000000000E+00 -0.33010014412E+03  0.33010014412E+03  0.00000000000E+00 0. -1.
          6    1    1    2  502    0  0.22207412246E+02  0.41223024998E+01 -0.37840258411E+02  0.17755575939E+03  0.17200000000E+03 0.  1.
         -6    1    1    2    0  501 -0.22207412246E+02 -0.41223024998E+01 -0.18857359024E+03  0.25623068019E+03  0.17200000000E+03 0. -1.
</event>
<event>
 4    1  0.4363334E-001  0.1798196E+03  0.7818608E-02  0.1167978E+00
         -1   -1    0    0    0  501 -0.00000000000E+00  0.00000000000E+00  0.75267853442E+03  0.75267853442E+03  0.00000000000E+00 0. -1.
          1   -1    0    0  502    0  0.00000000000E+00 -0.00000000000E+00 -0.13147132338E+03  0.13147132338E+03  0.00000000000E+00 0.  1.
          6    1    1    2  502    0 -0.33451756519E+02  0.40398926961E+02 -0.52123248372E+02  0.18722159687E+03  0.17200000000E+03 0.  1.
         -6    1    1    2    0  501  0.33451756519E+02 -0.40398926961E+02  0.67333045942E+03  0.69692826094E+03  0.17200000000E+03 0. -1.
</event>
<event>
 4    1  0.4363334E-001  0.1762297E+03  0.7818608E-02  0.1171503E+00
          2   -1    0    0  502    0  0.00000000000E+00  0.00000000000E+00  0.82403522835E+03  0.82403522835E+03  0.00000000000E+00 0.  1.
         -2   -1    0    0    0  501 -0.00000000000E+00 -0.00000000000E+00 -0.14718447915E+03  0.14718447915E+03  0.00000000000E+00 0. -1.
          6    1    1    2  502    0  0.22381991262E+02 -0.31176052622E+02  0.75727195271E+03  0.77750736984E+03  0.17200000000E+03 0.  1.
         -6    1    1    2    0  501 -0.22381991262E+02  0.31176052622E+02 -0.80421203507E+02  0.19371233766E+03  0.17200000000E+03 0. -1.
</event>
<event>
 4    1  0.4363334E-001  0.1817169E+03  0.7818608E-02  0.1166152E+00
         -2   -1    0    0    0  501 -0.00000000000E+00  0.00000000000E+00  0.16483742034E+02  0.16483742034E+02  0.00000000000E+00 0.  1.
          2   -1    0    0  502    0  0.00000000000E+00 -0.00000000000E+00 -0.20146290337E+04  0.20146290337E+04  0.00000000000E+00 0. -1.
          6    1    1    2  502    0  0.51597821676E+02  0.27833542010E+02 -0.10753993512E+04  0.10906442159E+04  0.17200000000E+03 0. -1.
         -6    1    1    2    0  501 -0.51597821676E+02 -0.27833542010E+02 -0.92274594045E+03  0.94046855975E+03  0.17200000000E+03 0.  1.
</event>
<event>
 4    1  0.4363334E-001  0.1890711E+03  0.7818608E-02  0.1159302E+00
         -2   -1    0    0    0  501 -0.00000000000E+00  0.00000000000E+00  0.16468385067E+02  0.16468385067E+02  0.00000000000E+00 0.  1.
          2   -1    0    0  502    0  0.00000000000E+00 -0.00000000000E+00 -0.26215822359E+04  0.26215822359E+04  0.00000000000E+00 0. -1.
          6    1    1    2  502    0 -0.66779316456E+02 -0.41284349883E+02 -0.18495784007E+04  0.18592170758E+04  0.17200000000E+03 0. -1.
         -6    1    1    2    0  501  0.66779316456E+02  0.41284349883E+02 -0.75553545011E+03  0.77883354513E+03  0.17200000000E+03 0.  1.
</event>
<event>
 4    1  0.4363334E-001  0.2129985E+03  0.7818608E-02  0.1139213E+00
         -3   -1    0    0    0  501 -0.00000000000E+00  0.00000000000E+00  0.61253443353E+03  0.61253443353E+03  0.00000000000E+00 0. -1.
          3   -1    0    0  502    0  0.00000000000E+00 -0.00000000000E+00 -0.10183901804E+03  0.10183901804E+03  0.00000000000E+00 0.  1.
          6    1    1    2  502    0 -0.74019277891E+02  0.10151594338E+03  0.68819254276E+02  0.22384018857E+03  0.17200000000E+03 0.  1.
         -6    1    1    2    0  501  0.74019277891E+02 -0.10151594338E+03  0.44187616121E+03  0.49053326300E+03  0.17200000000E+03 0. -1.
</event>
<event>
 4    1  0.4363334E-001  0.2085804E+03  0.7818608E-02  0.1142695E+00
          2   -1    0    0  502    0  0.00000000000E+00  0.00000000000E+00  0.94648925277E+03  0.94648925277E+03  0.00000000000E+00 0.  1.
         -2   -1    0    0    0  501 -0.00000000000E+00 -0.00000000000E+00 -0.48824559895E+02  0.48824559895E+02  0.00000000000E+00 0. -1.
          6    1    1    2  502    0 -0.39425554358E+02  0.11120878633E+03  0.56926081796E+03  0.60627027583E+03  0.17200000000E+03 0.  1.
         -6    1    1    2    0  501  0.39425554358E+02 -0.11120878633E+03  0.32840387492E+03  0.38904353684E+03  0.17200000000E+03 0. -1.
</event>
<event>
 4    1  0.4363334E-001  0.2201726E+03  0.7818608E-02  0.1133754E+00
          2   -1    0    0  502    0  0.00000000000E+00  0.00000000000E+00  0.90113128346E+02  0.90113128346E+02  0.00000000000E+00 0.  1.
         -2   -1    0    0    0  501 -0.00000000000E+00 -0.00000000000E+00 -0.54342654533E+03  0.54342654533E+03  0.00000000000E+00 0. -1.
          6    1    1    2  502    0  0.69485726157E+02  0.11859046513E+03 -0.19484408240E+03  0.29400711047E+03  0.17200000000E+03 0.  1.
         -6    1    1    2    0  501 -0.69485726157E+02 -0.11859046513E+03 -0.25846933458E+03  0.33953256321E+03  0.17200000000E+03 0. -1.
</event>
<event>
 4    1  0.4363334E-001  0.2547618E+03  0.7818608E-02  0.1110332E+00
         -1   -1    0    0    0  501 -0.00000000000E+00  0.00000000000E+00  0.44519464334E+03  0.44519464334E+03  0.00000000000E+00 0.  1.
          1   -1    0    0  502    0  0.00000000000E+00 -0.00000000000E+00 -0.14623582087E+03  0.14623582087E+03  0.00000000000E+00 0. -1.
          6    1    1    2  502    0  0.16432931792E+03 -0.91188985536E+02  0.13309533040E+03  0.28743333625E+03  0.17200000000E+03 0.  1.
         -6    1    1    2    0  501 -0.16432931792E+03  0.91188985536E+02  0.16586349207E+03  0.30399712797E+03  0.17200000000E+03 0. -1.
</event>
<event>
 4    1  0.4363334E-001  0.2268213E+03  0.7818608E-02  0.1128897E+00
         -1   -1    0    0    0  501 -0.00000000000E+00  0.00000000000E+00  0.43979595192E+02  0.43979595192E+02  0.00000000000E+00 0. -1.
          1   -1    0    0  502    0  0.00000000000E+00 -0.00000000000E+00 -0.14204298250E+04  0.14204298250E+04  0.00000000000E+00 0.  1.
          6    1    1    2  502    0 -0.24959313946E+02  0.14574268605E+03 -0.38066655161E+03  0.44311953400E+03  0.17200000000E+03 0. -1.
         -6    1    1    2    0  501  0.24959313946E+02 -0.14574268605E+03 -0.99578367818E+03  0.10212898862E+04  0.17200000000E+03 0.  1.
</event>
<event>
 4    1  0.4363334E-001  0.1872874E+03  0.7818608E-02  0.1160931E+00
         -2   -1    0    0    0  501 -0.00000000000E+00  0.00000000000E+00  0.98040736252E+02  0.98040736252E+02  0.00000000000E+00 0. -1.
          2   -1    0    0  502    0  0.00000000000E+00 -0.00000000000E+00 -0.36233276109E+03  0.36233276109E+03  0.00000000000E+00 0.  1.
          6    1    1    2  502    0 -0.63642169769E+02  0.37976703354E+02 -0.15796189970E+03  0.24500717852E+03  0.17200000000E+03 0. -1.
         -6    1    1    2    0  501  0.63642169769E+02 -0.37976703354E+02 -0.10633012514E+03  0.21536631882E+03  0.17200000000E+03 0.  1.
</event>
<event>
 4    1  0.4363334E-001  0.1794949E+03  0.7818608E-02  0.1168293E+00
         -2   -1    0    0    0  501 -0.00000000000E+00  0.00000000000E+00  0.11349523081E+02  0.11349523081E+02  0.00000000000E+00 0.  1.
          2   -1    0    0  502    0  0.00000000000E+00 -0.00000000000E+00 -0.28414227461E+04  0.28414227461E+04  0.00000000000E+00 0. -1.
          6    1    1    2  502    0  0.50243106187E+02  0.10491046092E+02 -0.13712702596E+04  0.13829680245E+04  0.17200000000E+03 0.  1.
         -6    1    1    2    0  501 -0.50243106187E+02 -0.10491046092E+02 -0.14588029634E+04  0.14698042447E+04  0.17200000000E+03 0. -1.
</event>
<event>
 4    1  0.4363334E-001  0.2598667E+03  0.7818608E-02  0.1107223E+00
          1   -1    0    0  502    0  0.00000000000E+00  0.00000000000E+00  0.49938755068E+03  0.49938755068E+03  0.00000000000E+00 0.  1.
         -1   -1    0    0    0  501 -0.00000000000E+00 -0.00000000000E+00 -0.13524935970E+03  0.13524935970E+03  0.00000000000E+00 0. -1.
          6    1    1    2  502    0  0.92075111397E+02  0.17166496802E+03  0.17799038234E+03  0.31497819542E+03  0.17200000000E+03 0. -1.
         -6    1    1    2    0  501 -0.92075111397E+02 -0.17166496802E+03  0.18614780864E+03  0.31965871495E+03  0.17200000000E+03 0.  1.
</event>
<event>
 4    1  0.4363334E-001  0.1720508E+03  0.7818608E-02  0.1175726E+00
          1   -1    0    0  502    0  0.00000000000E+00  0.00000000000E+00  0.73030041066E+03  0.73030041066E+03  0.00000000000E+00 0. -1.
         -1   -1    0    0    0  501 -0.00000000000E+00 -0.00000000000E+00 -0.44931916370E+02  0.44931916370E+02  0.00000000000E+00 0.  1.
          6    1    1    2  502    0 -0.18211745451E+01  0.37612632305E+01  0.22140571599E+03  0.28039606782E+03  0.17200000000E+03 0.  1.
         -6    1    1    2    0  501  0.18211745451E+01 -0.37612632305E+01  0.46396277830E+03  0.49483625921E+03  0.17200000000E+03 0. -1.
</event>
<event>
 4    1  0.4363334E-001  0.5481968E+03  0.7818608E-02  0.1001912E+00
         -1   -1    0    0    0  501 -0.00000000000E+00  0.00000000000E+00  0.55343005681E+03  0.55343005681E+03  0.00000000000E+00 0. -1.
          1   -1    0    0  502    0  0.00000000000E+00 -0.00000000000E+00 -0.77441222240E+03  0.77441222240E+03  0.00000000000E+00 0.  1.
          6    1    1    2  502    0 -0.51772328554E+03  0.53836249590E+02 -0.47341141518E+03  0.72431906656E+03  0.17200000000E+03 0.  1.
         -6    1    1    2    0  501  0.51772328554E+03 -0.53836249590E+02  0.25242924958E+03  0.60352321265E+03  0.17200000000E+03 0. -1.
</event>
<event>
 4    1  0.4363334E-001  0.2463326E+03  0.7818608E-02  0.1115645E+00
          1   -1    0    0  502    0  0.00000000000E+00  0.00000000000E+00  0.10025399324E+04  0.10025399324E+04  0.00000000000E+00 0. -1.
         -1   -1    0    0    0  501 -0.00000000000E+00 -0.00000000000E+00 -0.87432574022E+02  0.87432574022E+02  0.00000000000E+00 0.  1.
          6    1    1    2  502    0 -0.11259098741E+03 -0.13571668455E+03  0.15522595098E+03  0.29116120066E+03  0.17200000000E+03 0.  1.
         -6    1    1    2    0  501  0.11259098741E+03  0.13571668455E+03  0.75988140743E+03  0.79881130580E+03  0.17200000000E+03 0. -1.
</event>
<event>
 4    1  0.4363334E-001  0.2076300E+03  0.7818608E-02  0.1143457E+00
          1   -1    0    0  502    0  0.00000000000E+00  0.00000000000E+00  0.12889850684E+03  0.12889850684E+03  0.00000000000E+00 0.  1.
         -1   -1    0    0    0  501 -0.00000000000E+00 -0.00000000000E+00 -0.35459185068E+03  0.35459185068E+03  0.00000000000E+00 0. -1.
          6    1    1    2  502    0  0.11208295495E+03 -0.31042216988E+02 -0.55231804535E+02  0.21485055331E+03  0.17200000000E+03 0.  1.
         -6    1    1    2    0  501 -0.11208295495E+03  0.31042216988E+02 -0.17046153930E+03  0.26863980421E+03  0.17200000000E+03 0. -1.
</event>
<event>
 4    1  0.4363334E-001  0.2743376E+03  0.7818608E-02  0.1098822E+00
         -2   -1    0    0    0  501 -0.00000000000E+00  0.00000000000E+00  0.11816433851E+03  0.11816433851E+03  0.00000000000E+00 0.  1.
          2   -1    0    0  502    0  0.00000000000E+00 -0.00000000000E+00 -0.68141807978E+03  0.68141807978E+03  0.00000000000E+00 0. -1.
          6    1    1    2  502    0 -0.89256976959E+01  0.21353555431E+03 -0.38379193089E+03  0.47175984065E+03  0.17200000000E+03 0. -1.
         -6    1    1    2    0  501  0.89256976959E+01 -0.21353555431E+03 -0.17946181038E+03  0.32782257765E+03  0.17200000000E+03 0.  1.
</event>
<event>
 4    1  0.4363334E-001  0.4311418E+03  0.7818608E-02  0.1033500E+00
          1   -1    0    0  502    0  0.00000000000E+00  0.00000000000E+00  0.29258984250E+03  0.29258984250E+03  0.00000000000E+00 0.  1.
         -1   -1    0    0    0  501 -0.00000000000E+00 -0.00000000000E+00 -0.63977990343E+03  0.63977990343E+03  0.00000000000E+00 0. -1.
          6    1    1    2  502    0 -0.34372367052E+03  0.19532860709E+03 -0.13459830469E+03  0.45166351418E+03  0.17200000000E+03 0. -1.
         -6    1    1    2    0  501  0.34372367052E+03 -0.19532860709E+03 -0.21259175624E+03  0.48070623175E+03  0.17200000000E+03 0.  1.
</event>
<event>
 4    1  0.4363334E-001  0.2448446E+03  0.7818608E-02  0.1116607E+00
          2   -1    0    0  502    0  0.00000000000E+00  0.00000000000E+00  0.84106102873E+03  0.84106102873E+03  0.00000000000E+00 0. -1.
         -2   -1    0    0    0  501 -0.00000000000E+00 -0.00000000000E+00 -0.10955399575E+03  0.10955399575E+03  0.00000000000E+00 0.  1.
          6    1    1    2  502    0  0.13021265856E+02 -0.17376804256E+03  0.84805750182E+02  0.25911561366E+03  0.17200000000E+03 0. -1.
         -6    1    1    2    0  501 -0.13021265856E+02  0.17376804256E+03  0.64670128280E+03  0.69149941081E+03  0.17200000000E+03 0. -1.
</event>
<event>
 4    1  0.4363334E-001  0.2204237E+03  0.7818608E-02  0.1133568E+00
          2   -1    0    0  502    0  0.00000000000E+00  0.00000000000E+00  0.11983192500E+04  0.11983192500E+04  0.00000000000E+00 0. -1.
         -2   -1    0    0    0  501 -0.00000000000E+00 -0.00000000000E+00 -0.40757766341E+02  0.40757766341E+02  0.00000000000E+00 0.  1.
          6    1    1    2  502    0  0.27813529944E+02  0.13501487011E+03  0.53408441898E+03  0.57778263577E+03  0.17200000000E+03 0. -1.
         -6    1    1    2    0  501 -0.27813529944E+02 -0.13501487011E+03  0.62347706471E+03  0.66129438060E+03  0.17200000000E+03 0. -1.
</event>
<event>
 4    1  0.4363334E-001  0.1832045E+03  0.7818608E-02  0.1164737E+00
          2   -1    0    0  502    0  0.00000000000E+00  0.00000000000E+00  0.10276609631E+04  0.10276609631E+04  0.00000000000E+00 0. -1.
         -2   -1    0    0    0  501 -0.00000000000E+00 -0.00000000000E+00 -0.34632828280E+02  0.34632828280E+02  0.00000000000E+00 0.  1.
          6    1    1    2  502    0  0.14317249942E+02  0.61440296370E+02  0.36975962623E+03  0.41265733346E+03  0.17200000000E+03 0.  1.
         -6    1    1    2    0  501 -0.14317249942E+02 -0.61440296370E+02  0.62326850856E+03  0.64963645790E+03  0.17200000000E+03 0. -1.
</event>
<event>
 4    1  0.4363334E-001  0.2915537E+03  0.7818608E-02  0.1089541E+00
          2   -1    0    0  502    0  0.00000000000E+00  0.00000000000E+00  0.18255844855E+03  0.18255844855E+03  0.00000000000E+00 0.  1.
         -2   -1    0    0    0  501 -0.00000000000E+00 -0.00000000000E+00 -0.51962412349E+03  0.51962412349E+03  0.00000000000E+00 0. -1.
          6    1    1    2  502    0 -0.58900717360E+02  0.22792605038E+03 -0.55351941094E+02  0.29676154793E+03  0.17200000000E+03 0.  1.
         -6    1    1    2    0  501  0.58900717360E+02 -0.22792605038E+03 -0.28171373385E+03  0.40542102411E+03  0.17200000000E+03 0. -1.
</event>
<event>
 4    1  0.4363334E-001  0.1802809E+03  0.7818608E-02  0.1167532E+00
          2   -1    0    0  502    0  0.00000000000E+00  0.00000000000E+00  0.12163778982E+04  0.12163778982E+04  0.00000000000E+00 0. -1.
         -2   -1    0    0    0  501 -0.00000000000E+00 -0.00000000000E+00 -0.31753855245E+02  0.31753855245E+02  0.00000000000E+00 0.  1.
          6    1    1    2  502    0  0.26730806364E+02  0.46932424770E+02  0.84079564910E+03  0.85990610654E+03  0.17200000000E+03 0. -1.
         -6    1    1    2    0  501 -0.26730806364E+02 -0.46932424770E+02  0.34382839389E+03  0.38822564695E+03  0.17200000000E+03 0.  1.
</event>
<event>
 4    1  0.4363334E-001  0.2314712E+03  0.7818608E-02  0.1125609E+00
          1   -1    0    0  502    0  0.00000000000E+00  0.00000000000E+00  0.15353715607E+04  0.15353715607E+04  0.00000000000E+00 0.  1.
         -1   -1    0    0    0  501 -0.00000000000E+00 -0.00000000000E+00 -0.37021243352E+02  0.37021243352E+02  0.00000000000E+00 0. -1.
          6    1    1    2  502    0 -0.15458320252E+03 -0.99467095011E+01  0.56082263347E+03  0.60671321870E+03  0.17200000000E+03 0. -1.
         -6    1    1    2    0  501  0.15458320252E+03  0.99467095011E+01  0.93752768384E+03  0.96567958532E+03  0.17200000000E+03 0. -1.
</event>
<event>
 4    1  0.4363334E-001  0.1838382E+03  0.7818608E-02  0.1164139E+00
          1   -1    0    0  502    0  0.00000000000E+00  0.00000000000E+00  0.78633393543E+03  0.78633393543E+03  0.00000000000E+00 0.  1.
         -1   -1    0    0    0  501 -0.00000000000E+00 -0.00000000000E+00 -0.50040839644E+02  0.50040839644E+02  0.00000000000E+00 0. -1.
          6    1    1    2  502    0  0.22213974441E+02  0.60983881678E+02  0.21105883739E+03  0.27989699413E+03  0.17200000000E+03 0. -1.
         -6    1    1    2    0  501 -0.22213974441E+02 -0.60983881678E+02  0.52523425840E+03  0.55647778094E+03  0.17200000000E+03 0. -1.
</event>
<event>
 4    1  0.4363334E-001  0.2479543E+03  0.7818608E-02  0.1114605E+00
         -1   -1    0    0    0  501 -0.00000000000E+00  0.00000000000E+00  0.13263817923E+04  0.13263817923E+04  0.00000000000E+00 0. -1.
          1   -1    0    0  502    0  0.00000000000E+00 -0.00000000000E+00 -0.82046395432E+02  0.82046395432E+02  0.00000000000E+00 0.  1.
          6    1    1    2  502    0  0.10189175512E+03  0.14668129066E+03  0.10866518816E+04  0.11145822727E+04  0.17200000000E+03 0. -1.
         -6    1    1    2    0  501 -0.10189175512E+03 -0.14668129066E+03  0.15768351521E+03  0.29384591500E+03  0.17200000000E+03 0.  1.
</event>
<event>
 4    1  0.4363334E-001  0.1841428E+03  0.7818608E-02  0.1163853E+00
          3   -1    0    0  502    0  0.00000000000E+00  0.00000000000E+00  0.83138727059E+03  0.83138727059E+03  0.00000000000E+00 0. -1.
         -3   -1    0    0    0  501 -0.00000000000E+00 -0.00000000000E+00 -0.23514084939E+03  0.23514084939E+03  0.00000000000E+00 0.  1.
          6    1    1    2  502    0 -0.15528665983E+02  0.63901770203E+02 -0.18669227383E+03  0.26222620161E+03  0.17200000000E+03 0.  1.
         -6    1    1    2    0  501  0.15528665983E+02 -0.63901770203E+02  0.78293869504E+03  0.80430191837E+03  0.17200000000E+03 0. -1.
</event>
<event>
 4    1  0.4363334E-001  0.2967010E+03  0.7818608E-02  0.1086901E+00
          2   -1    0    0  502    0  0.00000000000E+00  0.00000000000E+00  0.13686834688E+04  0.13686834688E+04  0.00000000000E+00 0. -1.
         -2   -1    0    0    0  501 -0.00000000000E+00 -0.00000000000E+00 -0.70567874549E+02  0.70567874549E+02  0.00000000000E+00 0.  1.
          6    1    1    2  502    0  0.23851352545E+03  0.39481076751E+02  0.43490352175E+03  0.52647177557E+03  0.17200000000E+03 0.  1.
         -6    1    1    2    0  501 -0.23851352545E+03 -0.39481076751E+02  0.86321207250E+03  0.91277956778E+03  0.17200000000E+03 0. -1.
</event>
<event>
 4    1  0.4363334E-001  0.1756162E+03  0.7818608E-02  0.1172114E+00
         -2   -1    0    0    0  501 -0.00000000000E+00  0.00000000000E+00  0.13206789633E+03  0.13206789633E+03  0.00000000000E+00 0. -1.
          2   -1    0    0  502    0  0.00000000000E+00 -0.00000000000E+00 -0.23566085556E+03  0.23566085556E+03  0.00000000000E+00 0.  1.
          6    1    1    2  502    0  0.21688152817E+02 -0.28047789747E+02 -0.69303714181E+02  0.18879634340E+03  0.17200000000E+03 0.  1.
         -6    1    1    2    0  501 -0.21688152817E+02  0.28047789747E+02 -0.34289245047E+02  0.17893240849E+03  0.17200000000E+03 0. -1.
</event>
<event>
 4    1  0.4363334E-001  0.1794637E+03  0.7818608E-02  0.1168323E+00
         -1   -1    0    0    0  501 -0.00000000000E+00  0.00000000000E+00  0.14732036031E+03  0.14732036031E+03  0.00000000000E+00 0. -1.
          1   -1    0    0  502    0  0.00000000000E+00 -0.00000000000E+00 -0.21897438228E+03  0.21897438228E+03  0.00000000000E+00 0.  1.
          6    1    1    2  502    0 -0.35933246349E+02 -0.36496816395E+02 -0.43192122135E+02  0.18458812317E+03  0.17200000000E+03 0. -1.
         -6    1    1    2    0  501  0.35933246349E+02  0.36496816395E+02 -0.28461899826E+02  0.18170661942E+03  0.17200000000E+03 0. -1.
</event>
<event>
 4    1  0.4363334E-001  0.2212801E+03  0.7818608E-02  0.1132932E+00
          1   -1    0    0  502    0  0.00000000000E+00  0.00000000000E+00  0.52665171916E+03  0.52665171916E+03  0.00000000000E+00 0. -1.
         -1   -1    0    0    0  501 -0.00000000000E+00 -0.00000000000E+00 -0.10801926548E+03  0.10801926548E+03  0.00000000000E+00 0.  1.
          6    1    1    2  502    0 -0.13840247654E+03 -0.15021542479E+02  0.90884341566E+02  0.23921717286E+03  0.17200000000E+03 0. -1.
         -6    1    1    2    0  501  0.13840247654E+03  0.15021542479E+02  0.32774811212E+03  0.39545381178E+03  0.17200000000E+03 0. -1.
</event>
<event>
 4    1  0.4363334E-001  0.3133525E+03  0.7818608E-02  0.1078750E+00
         -1   -1    0    0    0  501 -0.00000000000E+00  0.00000000000E+00  0.80747880086E+02  0.80747880086E+02  0.00000000000E+00 0. -1.
          1   -1    0    0  502    0  0.00000000000E+00 -0.00000000000E+00 -0.20723755433E+04  0.20723755433E+04  0.00000000000E+00 0.  1.
          6    1    1    2  502    0  0.17786503154E+03  0.19227533067E+03 -0.16878610534E+04  0.17167016944E+04  0.17200000000E+03 0.  1.
         -6    1    1    2    0  501 -0.17786503154E+03 -0.19227533067E+03 -0.30376660983E+03  0.43642172893E+03  0.17200000000E+03 0. -1.
</event>
<event>
 4    1  0.4363334E-001  0.2056806E+03  0.7818608E-02  0.1145033E+00
         -1   -1    0    0    0  501 -0.00000000000E+00  0.00000000000E+00  0.66100322821E+02  0.66100322821E+02  0.00000000000E+00 0. -1.
          1   -1    0    0  502    0  0.00000000000E+00 -0.00000000000E+00 -0.68477667816E+03  0.68477667816E+03  0.00000000000E+00 0.  1.
          6    1    1    2  502    0 -0.10231391111E+03  0.47459248991E+02 -0.40533735437E+03  0.45453590350E+03  0.17200000000E+03 0.  1.
         -6    1    1    2    0  501  0.10231391111E+03 -0.47459248991E+02 -0.21333900097E+03  0.29634109748E+03  0.17200000000E+03 0. -1.
</event>
<event>
 4    1  0.4363334E-001  0.1854850E+03  0.7818608E-02  0.1162598E+00
          1   -1    0    0  502    0  0.00000000000E+00  0.00000000000E+00  0.23788425821E+03  0.23788425821E+03  0.00000000000E+00 0. -1.
         -1   -1    0    0    0  501 -0.00000000000E+00 -0.00000000000E+00 -0.20258971671E+03  0.20258971671E+03  0.00000000000E+00 0.  1.
          6    1    1    2  502    0  0.55679500479E+02 -0.41478556324E+02  0.13544934046E+03  0.22967629664E+03  0.17200000000E+03 0. -1.
         -6    1    1    2    0  501 -0.55679500479E+02  0.41478556324E+02 -0.10015479896E+03  0.21079767827E+03  0.17200000000E+03 0.  1.
</event>
<event>
 4    1  0.4363334E-001  0.1734604E+03  0.7818608E-02  0.1174287E+00
         -2   -1    0    0    0  501 -0.00000000000E+00  0.00000000000E+00  0.23739251780E+02  0.23739251780E+02  0.00000000000E+00 0. -1.
          2   -1    0    0  502    0  0.00000000000E+00 -0.00000000000E+00 -0.13291243625E+04  0.13291243625E+04  0.00000000000E+00 0.  1.
          6    1    1    2  502    0 -0.12692281084E+02  0.18531274572E+02 -0.50699047925E+03  0.53584311900E+03  0.17200000000E+03 0. -1.
         -6    1    1    2    0  501  0.12692281084E+02 -0.18531274572E+02 -0.79839463147E+03  0.81702049527E+03  0.17200000000E+03 0. -1.
</event>
<event>
 4    1  0.4363334E-001  0.2438372E+03  0.7818608E-02  0.1117263E+00
         -2   -1    0    0    0  501 -0.00000000000E+00  0.00000000000E+00  0.92167288248E+02  0.92167288248E+02  0.00000000000E+00 0.  1.
          2   -1    0    0  502    0  0.00000000000E+00 -0.00000000000E+00 -0.69559892106E+03  0.69559892106E+03  0.00000000000E+00 0. -1.
          6    1    1    2  502    0 -0.14624175942E+03 -0.92119024664E+02 -0.19558178874E+03  0.31258407347E+03  0.17200000000E+03 0.  1.
         -6    1    1    2    0  501  0.14624175942E+03  0.92119024664E+02 -0.40784984408E+03  0.47518213584E+03  0.17200000000E+03 0.  1.
</event>
<event>
 4    1  0.4363334E-001  0.2560354E+03  0.7818608E-02  0.1109549E+00
          2   -1    0    0  502    0  0.00000000000E+00  0.00000000000E+00  0.11241956982E+04  0.11241956982E+04  0.00000000000E+00 0.  1.
         -2   -1    0    0    0  501 -0.00000000000E+00 -0.00000000000E+00 -0.59051147861E+02  0.59051147861E+02  0.00000000000E+00 0. -1.
          6    1    1    2  502    0  0.11723560003E+03  0.14908362882E+03  0.46638218130E+03  0.53203989825E+03  0.17200000000E+03 0. -1.
         -6    1    1    2    0  501 -0.11723560003E+03 -0.14908362882E+03  0.59876236902E+03  0.65120694779E+03  0.17200000000E+03 0. -1.
</event>
<event>
 4    1  0.4363334E-001  0.1769995E+03  0.7818608E-02  0.1170739E+00
          1   -1    0    0  502    0  0.00000000000E+00  0.00000000000E+00  0.18329193887E+04  0.18329193887E+04  0.00000000000E+00 0.  1.
         -1   -1    0    0    0  501 -0.00000000000E+00 -0.00000000000E+00 -0.17700474797E+02  0.17700474797E+02  0.00000000000E+00 0. -1.
          6    1    1    2  502    0  0.16635629115E+02 -0.38315388220E+02  0.73609213428E+03  0.75707360493E+03  0.17200000000E+03 0. -1.
         -6    1    1    2    0  501 -0.16635629115E+02  0.38315388220E+02  0.10791267797E+04  0.10935462586E+04  0.17200000000E+03 0. -1.
</event>
<event>
 4    1  0.4363334E-001  0.2042447E+03  0.7818608E-02  0.1146206E+00
         -2   -1    0    0    0  501 -0.00000000000E+00  0.00000000000E+00  0.48660787035E+02  0.48660787035E+02  0.00000000000E+00 0.  1.
          2   -1    0    0  502    0  0.00000000000E+00 -0.00000000000E+00 -0.11639176489E+04  0.11639176489E+04  0.00000000000E+00 0. -1.
          6    1    1    2  502    0 -0.30467752965E+02  0.10584711364E+03 -0.86882285493E+03  0.89250717010E+03  0.17200000000E+03 0. -1.
         -6    1    1    2    0  501  0.30467752965E+02 -0.10584711364E+03 -0.24643400692E+03  0.32007126582E+03  0.17200000000E+03 0.  1.
</event>
<event>
 4    1  0.4363334E-001  0.3247948E+03  0.7818608E-02  0.1073463E+00
         -2   -1    0    0    0  501 -0.00000000000E+00  0.00000000000E+00  0.27051245504E+03  0.27051245504E+03  0.00000000000E+00 0.  1.
          2   -1    0    0  502    0  0.00000000000E+00 -0.00000000000E+00 -0.41374250454E+03  0.41374250454E+03  0.00000000000E+00 0. -1.
          6    1    1    2  502    0  0.18332570273E+03  0.20566810354E+03 -0.15362418865E+03  0.35929385388E+03  0.17200000000E+03 0.  1.
         -6    1    1    2    0  501 -0.18332570273E+03 -0.20566810354E+03  0.10394139161E+02  0.32496110571E+03  0.17200000000E+03 0. -1.
</event>
<event>
 4    1  0.4363334E-001  0.2121282E+03  0.7818608E-02  0.1139892E+00
         -2   -1    0    0    0  501 -0.00000000000E+00  0.00000000000E+00  0.20258741107E+02  0.20258741107E+02  0.00000000000E+00 0.  1.
          2   -1    0    0  502    0  0.00000000000E+00 -0.00000000000E+00 -0.28020227482E+04  0.28020227482E+04  0.00000000000E+00 0. -1.
          6    1    1    2  502    0 -0.59932542574E+02 -0.10873114852E+03 -0.20333664959E+04  0.20444015455E+04  0.17200000000E+03 0. -1.
         -6    1    1    2    0  501  0.59932542574E+02  0.10873114852E+03 -0.74839751113E+03  0.77787994381E+03  0.17200000000E+03 0.  1.
</event>
<event>
 4    1  0.4363334E-001  0.2107837E+03  0.7818608E-02  0.1140947E+00
          3   -1    0    0  502    0  0.00000000000E+00  0.00000000000E+00  0.76796179711E+02  0.76796179711E+02  0.00000000000E+00 0.  1.
         -3   -1    0    0    0  501 -0.00000000000E+00 -0.00000000000E+00 -0.91808399867E+03  0.91808399867E+03  0.00000000000E+00 0. -1.
          6    1    1    2  502    0 -0.11041095798E+03  0.51528489399E+02 -0.72315879179E+03  0.75325188550E+03  0.17200000000E+03 0.  1.
         -6    1    1    2    0  501  0.11041095798E+03 -0.51528489399E+02 -0.11812902717E+03  0.24162829289E+03  0.17200000000E+03 0.  1.
</event>
<event>
 4    1  0.4363334E-001  0.1788878E+03  0.7818608E-02  0.1168884E+00
         -2   -1    0    0    0  501 -0.00000000000E+00  0.00000000000E+00  0.83536603593E+02  0.83536603593E+02  0.00000000000E+00 0.  1.
          2   -1    0    0  502    0  0.00000000000E+00 -0.00000000000E+00 -0.40688317509E+03  0.40688317509E+03  0.00000000000E+00 0. -1.
          6    1    1    2  502    0 -0.36338072842E+02  0.33111704689E+02 -0.22098767236E+03  0.28431741393E+03  0.17200000000E+03 0. -1.
         -6    1    1    2    0  501  0.36338072842E+02 -0.33111704689E+02 -0.10235889913E+03  0.20610236475E+03  0.17200000000E+03 0.  1.
</event>
<event>
 4    1  0.4363334E-001  0.2272259E+03  0.7818608E-02  0.1128608E+00
         -2   -1    0    0    0  501 -0.00000000000E+00  0.00000000000E+00  0.64012935692E+02  0.64012935692E+02  0.00000000000E+00 0. -1.
          2   -1    0    0  502    0  0.00000000000E+00 -0.00000000000E+00 -0.82789960306E+03  0.82789960306E+03  0.00000000000E+00 0.  1.
          6    1    1    2  502    0  0.12231106821E+03  0.84187837489E+02 -0.45350613141E+03  0.50724688329E+03  0.17200000000E+03 0.  1.
         -6    1    1    2    0  501 -0.12231106821E+03 -0.84187837489E+02 -0.31038053596E+03  0.38466565546E+03  0.17200000000E+03 0. -1.
</event>
<event>
 4    1  0.4363334E-001  0.2287007E+03  0.7818608E-02  0.1127558E+00
         -2   -1    0    0    0  501 -0.00000000000E+00  0.00000000000E+00  0.14943464585E+03  0.14943464585E+03  0.00000000000E+00 0.  1.
          2   -1    0    0  502    0  0.00000000000E+00 -0.00000000000E+00 -0.35141649200E+03  0.35141649200E+03  0.00000000000E+00 0. -1.
          6    1    1    2  502    0  0.68175787281E+02 -0.13443247745E+03 -0.85163372695E+02  0.24404267867E+03  0.17200000000E+03 0. -1.
         -6    1    1    2    0  501 -0.68175787281E+02  0.13443247745E+03 -0.11681847346E+03  0.25680845918E+03  0.17200000000E+03 0.  1.
</event>
<event>
 4    1  0.4363334E-001  0.2100971E+03  0.7818608E-02  0.1141489E+00
         -1   -1    0    0    0  501 -0.00000000000E+00  0.00000000000E+00  0.62736340384E+02  0.62736340384E+02  0.00000000000E+00 0. -1.
          1   -1    0    0  502    0  0.00000000000E+00 -0.00000000000E+00 -0.82267076978E+03  0.82267076978E+03  0.00000000000E+00 0.  1.
          6    1    1    2  502    0 -0.60174763555E+01  0.12050145957E+03 -0.54839604456E+03  0.58726402364E+03  0.17200000000E+03 0.  1.
         -6    1    1    2    0  501  0.60174763555E+01 -0.12050145957E+03 -0.21153838484E+03  0.29814308652E+03  0.17200000000E+03 0. -1.
</event>
<event>
 4    1  0.4363334E-001  0.2269577E+03  0.7818608E-02  0.1128800E+00
          2   -1    0    0  502    0  0.00000000000E+00  0.00000000000E+00  0.15010820548E+03  0.15010820548E+03  0.00000000000E+00 0. -1.
         -2   -1    0    0    0  501 -0.00000000000E+00 -0.00000000000E+00 -0.45007627649E+03  0.45007627649E+03  0.00000000000E+00 0.  1.
          6    1    1    2  502    0  0.11307514183E+03  0.95602287253E+02 -0.29625288311E+03  0.37319640376E+03  0.17200000000E+03 0.  1.
         -6    1    1    2    0  501 -0.11307514183E+03 -0.95602287253E+02 -0.37151878973E+01  0.22698807821E+03  0.17200000000E+03 0. -1.
</event>
<event>
 4    1  0.4363334E-001  0.2003423E+03  0.7818608E-02  0.1149451E+00
          1   -1    0    0  502    0  0.00000000000E+00  0.00000000000E+00  0.29954574872E+03  0.29954574872E+03  0.00000000000E+00 0.  1.
         -1   -1    0    0    0  501 -0.00000000000E+00 -0.00000000000E+00 -0.15081051091E+03  0.15081051091E+03  0.00000000000E+00 0. -1.
          6    1    1    2  502    0 -0.75945486256E+01 -0.10244678631E+03 -0.82787081077E+00  0.20034397062E+03  0.17200000000E+03 0. -1.
         -6    1    1    2    0  501  0.75945486256E+01  0.10244678631E+03  0.14956310862E+03  0.25001228901E+03  0.17200000000E+03 0.  1.
</event>
<event>
 4    1  0.4363334E-001  0.3273673E+03  0.7818608E-02  0.1072308E+00
          2   -1    0    0  502    0  0.00000000000E+00  0.00000000000E+00  0.53475469705E+03  0.53475469705E+03  0.00000000000E+00 0. -1.
         -2   -1    0    0    0  501 -0.00000000000E+00 -0.00000000000E+00 -0.36015801103E+03  0.36015801103E+03  0.00000000000E+00 0.  1.
          6    1    1    2  502    0 -0.12011227201E+03  0.25131329992E+03 -0.21070699692E+03  0.38931577307E+03  0.17200000000E+03 0.  1.
         -6    1    1    2    0  501  0.12011227201E+03 -0.25131329992E+03  0.38530368294E+03  0.50559693501E+03  0.17200000000E+03 0. -1.
</event>
<event>
 4    1  0.4363334E-001  0.1745518E+03  0.7818608E-02  0.1173182E+00
         -1   -1    0    0    0  501 -0.00000000000E+00  0.00000000000E+00  0.25141639787E+02  0.25141639787E+02  0.00000000000E+00 0.  1.
          1   -1    0    0  502    0  0.00000000000E+00 -0.00000000000E+00 -0.24049946414E+04  0.24049946414E+04  0.00000000000E+00 0. -1.
          6    1    1    2  502    0  0.24525453732E+02  0.16817608591E+02 -0.20457554750E+04  0.20531886892E+04  0.17200000000E+03 0. -1.
         -6    1    1    2    0  501 -0.24525453732E+02 -0.16817608591E+02 -0.33409752662E+03  0.37694759203E+03  0.17200000000E+03 0.  1.
</event>
<event>
 4    1  0.4363334E-001  0.2083190E+03  0.7818608E-02  0.1142904E+00
          1   -1    0    0  502    0  0.00000000000E+00  0.00000000000E+00  0.40344602162E+02  0.40344602162E+02  0.00000000000E+00 0. -1.
         -1   -1    0    0    0  501 -0.00000000000E+00 -0.00000000000E+00 -0.16658643908E+04  0.16658643908E+04  0.00000000000E+00 0.  1.
          6    1    1    2  502    0 -0.94263699658E+02 -0.70193834572E+02 -0.30496777733E+03  0.36932663686E+03  0.17200000000E+03 0. -1.
         -6    1    1    2    0  501  0.94263699658E+02  0.70193834572E+02 -0.13205520113E+04  0.13368823561E+04  0.17200000000E+03 0.  1.
</event>
<event>
 4    1  0.4363334E-001  0.1729533E+03  0.7818608E-02  0.1174803E+00
         -2   -1    0    0    0  501 -0.00000000000E+00  0.00000000000E+00  0.21625714153E+03  0.21625714153E+03  0.00000000000E+00 0.  1.
          2   -1    0    0  502    0  0.00000000000E+00 -0.00000000000E+00 -0.22228824271E+03  0.22228824271E+03  0.00000000000E+00 0. -1.
          6    1    1    2  502    0  0.13887088588E+02  0.11661118171E+02 -0.13778209714E+03  0.22112607083E+03  0.17200000000E+03 0. -1.
         -6    1    1    2    0  501 -0.13887088588E+02 -0.11661118171E+02  0.13175099597E+03  0.21741931341E+03  0.17200000000E+03 0.  1.
</event>
<event>
 4    1  0.4363334E-001  0.3431488E+03  0.7818608E-02  0.1065463E+00
          2   -1    0    0  502    0  0.00000000000E+00  0.00000000000E+00  0.11910475953E+04  0.11910475953E+04  0.00000000000E+00 0.  1.
         -2   -1    0    0    0  501 -0.00000000000E+00 -0.00000000000E+00 -0.10155229751E+03  0.10155229751E+03  0.00000000000E+00 0. -1.
          6    1    1    2  502    0 -0.23378265613E+03  0.18306484097E+03  0.64991304887E+03  0.73494083938E+03  0.17200000000E+03 0.  1.
         -6    1    1    2    0  501  0.23378265613E+03 -0.18306484097E+03  0.43958224896E+03  0.55765905346E+03  0.17200000000E+03 0. -1.
</event>
<event>
 4    1  0.4363334E-001  0.1892167E+03  0.7818608E-02  0.1159170E+00
          2   -1    0    0  502    0  0.00000000000E+00  0.00000000000E+00  0.10333785567E+04  0.10333785567E+04  0.00000000000E+00 0.  1.
         -2   -1    0    0    0  501 -0.00000000000E+00 -0.00000000000E+00 -0.41514667479E+02  0.41514667479E+02  0.00000000000E+00 0. -1.
          6    1    1    2  502    0 -0.73495819089E+02  0.28588690633E+02  0.27732949095E+03  0.33572994386E+03  0.17200000000E+03 0. -1.
         -6    1    1    2    0  501  0.73495819089E+02 -0.28588690633E+02  0.71453439825E+03  0.73916328030E+03  0.17200000000E+03 0.  1.
</event>
<event>
 4    1  0.4363334E-001  0.1928769E+03  0.7818608E-02  0.1155892E+00
          2   -1    0    0  502    0  0.00000000000E+00  0.00000000000E+00  0.22876087303E+04  0.22876087303E+04  0.00000000000E+00 0. -1.
         -2   -1    0    0    0  501 -0.00000000000E+00 -0.00000000000E+00 -0.67490941827E+02  0.67490941827E+02  0.00000000000E+00 0.  1.
          6    1    1    2  502    0 -0.63407605901E-01 -0.87278186475E+02  0.21359789430E+04  0.21446695622E+04  0.17200000000E+03 0. -1.
         -6    1    1    2    0  501  0.63407605901E-01  0.87278186475E+02  0.84138845418E+02  0.21043010993E+03  0.17200000000E+03 0.  1.
</event>
<event>
 4    1  0.4363334E-001  0.2057565E+03  0.7818608E-02  0.1144971E+00
         -2   -1    0    0    0  501 -0.00000000000E+00  0.00000000000E+00  0.16377030427E+03  0.16377030427E+03  0.00000000000E+00 0. -1.
          2   -1    0    0  502    0  0.00000000000E+00 -0.00000000000E+00 -0.41331174082E+03  0.41331174082E+03  0.00000000000E+00 0.  1.
          6    1    1    2  502    0 -0.91901765317E+02  0.65618675443E+02 -0.30135865730E+03  0.36490106243E+03  0.17200000000E+03 0. -1.
         -6    1    1    2    0  501  0.91901765317E+02 -0.65618675443E+02  0.51817220745E+02  0.21218098266E+03  0.17200000000E+03 0. -1.
</event>
<event>
 4    1  0.4363334E-001  0.2987616E+03  0.7818608E-02  0.1085861E+00
         -1   -1    0    0    0  501 -0.00000000000E+00  0.00000000000E+00  0.68526022787E+02  0.68526022787E+02  0.00000000000E+00 0.  1.
          1   -1    0    0  502    0  0.00000000000E+00 -0.00000000000E+00 -0.13644354907E+04  0.13644354907E+04  0.00000000000E+00 0. -1.
          6    1    1    2  502    0 -0.11366052063E+02 -0.24401904572E+03 -0.80054506391E+03  0.85447696350E+03  0.17200000000E+03 0. -1.
         -6    1    1    2    0  501  0.11366052063E+02  0.24401904572E+03 -0.49536440399E+03  0.57848454997E+03  0.17200000000E+03 0.  1.
</event>
<event>
 4    1  0.4363334E-001  0.2174148E+03  0.7818608E-02  0.1135825E+00
          1   -1    0    0  502    0  0.00000000000E+00  0.00000000000E+00  0.15072307262E+03  0.15072307262E+03  0.00000000000E+00 0.  1.
         -1   -1    0    0    0  501 -0.00000000000E+00 -0.00000000000E+00 -0.31665466271E+03  0.31665466271E+03  0.00000000000E+00 0. -1.
          6    1    1    2  502    0 -0.56651014275E+01 -0.13286493427E+03 -0.10585750704E+03  0.24181603737E+03  0.17200000000E+03 0.  1.
         -6    1    1    2    0  501  0.56651014275E+01  0.13286493427E+03 -0.60074083052E+02  0.22556169796E+03  0.17200000000E+03 0. -1.
</event>
<event>
 4    1  0.4363334E-001  0.2257210E+03  0.7818608E-02  0.1129688E+00
         -2   -1    0    0    0  501 -0.00000000000E+00  0.00000000000E+00  0.69562842689E+02  0.69562842689E+02  0.00000000000E+00 0. -1.
          2   -1    0    0  502    0  0.00000000000E+00 -0.00000000000E+00 -0.17096214233E+04  0.17096214233E+04  0.00000000000E+00 0.  1.
          6    1    1    2  502    0 -0.87845821745E+02 -0.11682918679E+03 -0.14925887280E+04  0.15095598889E+04  0.17200000000E+03 0.  1.
         -6    1    1    2    0  501  0.87845821745E+02  0.11682918679E+03 -0.14746985263E+03  0.26962437709E+03  0.17200000000E+03 0. -1.
</event>
<event>
 4    1  0.4363334E-001  0.1842247E+03  0.7818608E-02  0.1163776E+00
          2   -1    0    0  502    0  0.00000000000E+00  0.00000000000E+00  0.13038288008E+04  0.13038288008E+04  0.00000000000E+00 0.  1.
         -2   -1    0    0    0  501 -0.00000000000E+00 -0.00000000000E+00 -0.26260488120E+02  0.26260488120E+02  0.00000000000E+00 0. -1.
          6    1    1    2  502    0  0.55114160521E+02 -0.36292986266E+02  0.57648815338E+03  0.60520851161E+03  0.17200000000E+03 0.  1.
         -6    1    1    2    0  501 -0.55114160521E+02  0.36292986266E+02  0.70108015929E+03  0.72488077729E+03  0.17200000000E+03 0. -1.
</event>
<event>
 4    1  0.4363334E-001  0.2016040E+03  0.7818608E-02  0.1148393E+00
         -1   -1    0    0    0  501 -0.00000000000E+00  0.00000000000E+00  0.10884875011E+04  0.10884875011E+04  0.00000000000E+00 0.  1.
          1   -1    0    0  502    0  0.00000000000E+00 -0.00000000000E+00 -0.42202974520E+02  0.42202974520E+02  0.00000000000E+00 0. -1.
          6    1    1    2  502    0 -0.78737854927E+02 -0.69717450552E+02  0.71504942266E+03  0.74292654385E+03  0.17200000000E+03 0.  1.
         -6    1    1    2    0  501  0.78737854927E+02  0.69717450552E+02  0.33123510388E+03  0.38776393174E+03  0.17200000000E+03 0.  1.
</event>
<event>
 4    1  0.4363334E-001  0.2015073E+03  0.7818608E-02  0.1148473E+00
         -1   -1    0    0    0  501 -0.00000000000E+00  0.00000000000E+00  0.60642101396E+03  0.60642101396E+03  0.00000000000E+00 0.  1.
          1   -1    0    0  502    0  0.00000000000E+00 -0.00000000000E+00 -0.11386816099E+03  0.11386816099E+03  0.00000000000E+00 0. -1.
          6    1    1    2  502    0 -0.96593256627E+02  0.41121017696E+02  0.47743271440E+03  0.51821539161E+03  0.17200000000E+03 0.  1.
         -6    1    1    2    0  501  0.96593256627E+02 -0.41121017696E+02  0.15120138577E+02  0.20207378334E+03  0.17200000000E+03 0. -1.
</event>
<event>
 4    1  0.4363334E-001  0.3115321E+03  0.7818608E-02  0.1079614E+00
         -2   -1    0    0    0  501 -0.00000000000E+00  0.00000000000E+00  0.44706277914E+02  0.44706277914E+02  0.00000000000E+00 0.  1.
          2   -1    0    0  502    0  0.00000000000E+00 -0.00000000000E+00 -0.24429852165E+04  0.24429852165E+04  0.00000000000E+00 0. -1.
          6    1    1    2  502    0 -0.12116265828E+03  0.22975608923E+03 -0.78402350063E+03  0.84364986803E+03  0.17200000000E+03 0. -1.
         -6    1    1    2    0  501  0.12116265828E+03 -0.22975608923E+03 -0.16142554380E+04  0.16440416264E+04  0.17200000000E+03 0. -1.
</event>
<event>
 4    1  0.4363334E-001  0.1774270E+03  0.7818608E-02  0.1170317E+00
         -1   -1    0    0    0  501 -0.00000000000E+00  0.00000000000E+00  0.12203413656E+03  0.12203413656E+03  0.00000000000E+00 0. -1.
          1   -1    0    0  502    0  0.00000000000E+00 -0.00000000000E+00 -0.25873768343E+03  0.25873768343E+03  0.00000000000E+00 0.  1.
          6    1    1    2  502    0  0.43238805714E+02  0.51713133889E+01 -0.57936657898E+02  0.18664670672E+03  0.17200000000E+03 0. -1.
         -6    1    1    2    0  501 -0.43238805714E+02 -0.51713133889E+01 -0.78766888970E+02  0.19412511326E+03  0.17200000000E+03 0. -1.
</event>
<event>
 4    1  0.4363334E-001  0.1772717E+03  0.7818608E-02  0.1170470E+00
         -1   -1    0    0    0  501 -0.00000000000E+00  0.00000000000E+00  0.18719710035E+02  0.18719710035E+02  0.00000000000E+00 0.  1.
          1   -1    0    0  502    0  0.00000000000E+00 -0.00000000000E+00 -0.16787371000E+04  0.16787371000E+04  0.00000000000E+00 0. -1.
          6    1    1    2  502    0  0.25238988420E+02 -0.34702092023E+02 -0.83230484969E+03  0.85097391531E+03  0.17200000000E+03 0.  1.
         -6    1    1    2    0  501 -0.25238988420E+02  0.34702092023E+02 -0.82771254029E+03  0.84648289474E+03  0.17200000000E+03 0. -1.
</event>
<event>
 4    1  0.4363334E-001  0.2927331E+03  0.7818608E-02  0.1088931E+00
         -1   -1    0    0    0  501 -0.00000000000E+00  0.00000000000E+00  0.31081134723E+03  0.31081134723E+03  0.00000000000E+00 0. -1.
          1   -1    0    0  502    0  0.00000000000E+00 -0.00000000000E+00 -0.27572049151E+03  0.27572049151E+03  0.00000000000E+00 0.  1.
          6    1    1    2  502    0  0.23392514346E+03 -0.37251851033E+02  0.19643051366E+02  0.29339141538E+03  0.17200000000E+03 0. -1.
         -6    1    1    2    0  501 -0.23392514346E+03  0.37251851033E+02  0.15447804351E+02  0.29314042336E+03  0.17200000000E+03 0.  1.
</event>
<event>
 4    1  0.4363334E-001  0.2428961E+03  0.7818608E-02  0.1117878E+00
         -2   -1    0    0    0  501 -0.00000000000E+00  0.00000000000E+00  0.63593271091E+02  0.63593271091E+02  0.00000000000E+00 0.  1.
          2   -1    0    0  502    0  0.00000000000E+00 -0.00000000000E+00 -0.92776354136E+03  0.92776354136E+03  0.00000000000E+00 0. -1.
          6    1    1    2  502    0  0.16902351741E+03  0.29078808790E+02 -0.43005279655E+03  0.49390680738E+03  0.17200000000E+03 0. -1.
         -6    1    1    2    0  501 -0.16902351741E+03 -0.29078808790E+02 -0.43411747372E+03  0.49745000507E+03  0.17200000000E+03 0. -1.
</event>
<event>
 4    1  0.4363334E-001  0.1819225E+03  0.7818608E-02  0.1165955E+00
          2   -1    0    0  502    0  0.00000000000E+00  0.00000000000E+00  0.16847399239E+04  0.16847399239E+04  0.00000000000E+00 0. -1.
         -2   -1    0    0    0  501 -0.00000000000E+00 -0.00000000000E+00 -0.22812297909E+02  0.22812297909E+02  0.00000000000E+00 0.  1.
          6    1    1    2  502    0  0.48669984372E+02  0.33808482233E+02  0.11491211790E+04  0.11634325356E+04  0.17200000000E+03 0. -1.
         -6    1    1    2    0  501 -0.48669984372E+02 -0.33808482233E+02  0.51280644695E+03  0.54411968617E+03  0.17200000000E+03 0.  1.
</event>
<event>
 4    1  0.4363334E-001  0.1736528E+03  0.7818608E-02  0.1174091E+00
          2   -1    0    0  502    0  0.00000000000E+00  0.00000000000E+00  0.86002599107E+03  0.86002599107E+03  0.00000000000E+00 0.  1.
         -2   -1    0    0    0  501 -0.00000000000E+00 -0.00000000000E+00 -0.46517011737E+02  0.46517011737E+02  0.00000000000E+00 0. -1.
          6    1    1    2  502    0  0.21014054056E+02  0.11389128697E+02  0.18183522112E+03  0.25143458466E+03  0.17200000000E+03 0. -1.
         -6    1    1    2    0  501 -0.21014054056E+02 -0.11389128697E+02  0.63167375821E+03  0.65510841815E+03  0.17200000000E+03 0.  1.
</event>
<event>
 4    1  0.4363334E-001  0.1736541E+03  0.7818608E-02  0.1174090E+00
         -2   -1    0    0    0  501 -0.00000000000E+00  0.00000000000E+00  0.60352690311E+03  0.60352690311E+03  0.00000000000E+00 0. -1.
          2   -1    0    0  502    0  0.00000000000E+00 -0.00000000000E+00 -0.18921882212E+03  0.18921882212E+03  0.00000000000E+00 0.  1.
          6    1    1    2  502    0 -0.77859169801E+01  0.22607724087E+02 -0.13288125224E+03  0.21866219812E+03  0.17200000000E+03 0.  1.
         -6    1    1    2    0  501  0.77859169801E+01 -0.22607724087E+02  0.54718933323E+03  0.57408352710E+03  0.17200000000E+03 0. -1.
</event>
<event>
 4    1  0.4363334E-001  0.2427310E+03  0.7818608E-02  0.1117987E+00
          2   -1    0    0  502    0  0.00000000000E+00  0.00000000000E+00  0.14402896082E+04  0.14402896082E+04  0.00000000000E+00 0. -1.
         -2   -1    0    0    0  501 -0.00000000000E+00 -0.00000000000E+00 -0.41533792414E+02  0.41533792414E+02  0.00000000000E+00 0.  1.
          6    1    1    2  502    0  0.17041293444E+03  0.17139132948E+02  0.79037623958E+03  0.82680887646E+03  0.17200000000E+03 0. -1.
         -6    1    1    2    0  501 -0.17041293444E+03 -0.17139132948E+02  0.60837957620E+03  0.65501452414E+03  0.17200000000E+03 0.  1.
</event>
<event>
 4    1  0.4363334E-001  0.1949941E+03  0.7818608E-02  0.1154033E+00
         -1   -1    0    0    0  501 -0.00000000000E+00  0.00000000000E+00  0.12263386970E+03  0.12263386970E+03  0.00000000000E+00 0.  1.
          1   -1    0    0  502    0  0.00000000000E+00 -0.00000000000E+00 -0.45409289847E+03  0.45409289847E+03  0.00000000000E+00 0. -1.
          6    1    1    2  502    0  0.16786683954E+02  0.90315601427E+02 -0.32813953904E+03  0.38170441142E+03  0.17200000000E+03 0. -1.
         -6    1    1    2    0  501 -0.16786683954E+02 -0.90315601427E+02 -0.33194897246E+01  0.19502235675E+03  0.17200000000E+03 0.  1.
</event>
<event>
 4    1  0.4363334E-001  0.3249807E+03  0.7818608E-02  0.1073380E+00
         -3   -1    0    0    0  501 -0.00000000000E+00  0.00000000000E+00  0.49525806810E+03  0.49525806810E+03  0.00000000000E+00 0.  1.
          3   -1    0    0  502    0  0.00000000000E+00 -0.00000000000E+00 -0.34667962940E+03  0.34667962940E+03  0.00000000000E+00 0. -1.
          6    1    1    2  502    0  0.87646622986E+01  0.27559322031E+03 -0.18687660361E+03  0.37488039074E+03  0.17200000000E+03 0. -1.
         -6    1    1    2    0  501 -0.87646622986E+01 -0.27559322031E+03  0.33545504231E+03  0.46705730676E+03  0.17200000000E+03 0.  1.
</event>
<event>
 4    1  0.4363334E-001  0.1772085E+03  0.7818608E-02  0.1170532E+00
         -2   -1    0    0    0  501 -0.00000000000E+00  0.00000000000E+00  0.35814038254E+02  0.35814038254E+02  0.00000000000E+00 0.  1.
          2   -1    0    0  502    0  0.00000000000E+00 -0.00000000000E+00 -0.12189231219E+04  0.12189231219E+04  0.00000000000E+00 0. -1.
          6    1    1    2  502    0  0.22423299153E+02 -0.36277591296E+02 -0.92391242466E+03  0.94075344082E+03  0.17200000000E+03 0. -1.
         -6    1    1    2    0  501 -0.22423299153E+02  0.36277591296E+02 -0.25919665897E+03  0.31398371932E+03  0.17200000000E+03 0.  1.
</event>
<event>
 4    1  0.4363334E-001  0.1827389E+03  0.7818608E-02  0.1165178E+00
          2   -1    0    0  502    0  0.00000000000E+00  0.00000000000E+00  0.79770821922E+02  0.79770821922E+02  0.00000000000E+00 0. -1.
         -2   -1    0    0    0  501 -0.00000000000E+00 -0.00000000000E+00 -0.45029800405E+03  0.45029800405E+03  0.00000000000E+00 0.  1.
          6    1    1    2  502    0  0.55136431450E+02 -0.27739336220E+02 -0.11496521251E+03  0.21589464314E+03  0.17200000000E+03 0. -1.
         -6    1    1    2    0  501 -0.55136431450E+02  0.27739336220E+02 -0.25556196962E+03  0.31417418284E+03  0.17200000000E+03 0.  1.
</event>
<event>
 4    1  0.4363334E-001  0.2611890E+03  0.7818608E-02  0.1106431E+00
          1   -1    0    0  502    0  0.00000000000E+00  0.00000000000E+00  0.13558705808E+04  0.13558705808E+04  0.00000000000E+00 0. -1.
         -1   -1    0    0    0  501 -0.00000000000E+00 -0.00000000000E+00 -0.17963425076E+03  0.17963425076E+03  0.00000000000E+00 0.  1.
          6    1    1    2  502    0  0.17510695491E+03  0.89292929777E+02  0.12395356196E+04  0.12667549981E+04  0.17200000000E+03 0. -1.
         -6    1    1    2    0  501 -0.17510695491E+03 -0.89292929777E+02 -0.63299289494E+02  0.26874983352E+03  0.17200000000E+03 0.  1.
</event>
<event>
 4    1  0.4363334E-001  0.1870570E+03  0.7818608E-02  0.1161143E+00
          2   -1    0    0  502    0  0.00000000000E+00  0.00000000000E+00  0.64014529465E+03  0.64014529465E+03  0.00000000000E+00 0. -1.
         -2   -1    0    0    0  501 -0.00000000000E+00 -0.00000000000E+00 -0.58731256395E+02  0.58731256395E+02  0.00000000000E+00 0.  1.
          6    1    1    2  502    0  0.19318876320E+02  0.70944284723E+02  0.19870387663E+03  0.27289840803E+03  0.17200000000E+03 0.  1.
         -6    1    1    2    0  501 -0.19318876320E+02 -0.70944284723E+02  0.38271016162E+03  0.42597814302E+03  0.17200000000E+03 0. -1.
</event>
<event>
 4    1  0.4363334E-001  0.2060875E+03  0.7818608E-02  0.1144702E+00
         -2   -1    0    0    0  501 -0.00000000000E+00  0.00000000000E+00  0.34364753699E+02  0.34364753699E+02  0.00000000000E+00 0. -1.
          2   -1    0    0  502    0  0.00000000000E+00 -0.00000000000E+00 -0.12492912747E+04  0.12492912747E+04  0.00000000000E+00 0.  1.
          6    1    1    2  502    0  0.78930398088E+02  0.81596828738E+02 -0.54105985962E+03  0.57897998402E+03  0.17200000000E+03 0. -1.
         -6    1    1    2    0  501 -0.78930398088E+02 -0.81596828738E+02 -0.67386666135E+03  0.70467604435E+03  0.17200000000E+03 0. -1.
</event>
<event>
 4    1  0.4363334E-001  0.1751279E+03  0.7818608E-02  0.1172603E+00
          2   -1    0    0  502    0  0.00000000000E+00  0.00000000000E+00  0.10989753178E+04  0.10989753178E+04  0.00000000000E+00 0. -1.
         -2   -1    0    0    0  501 -0.00000000000E+00 -0.00000000000E+00 -0.29333514496E+02  0.29333514496E+02  0.00000000000E+00 0.  1.
          6    1    1    2  502    0  0.21751948037E+02 -0.24751710434E+02  0.65920315258E+03  0.68206934455E+03  0.17200000000E+03 0. -1.
         -6    1    1    2    0  501 -0.21751948037E+02  0.24751710434E+02  0.41043865078E+03  0.44623948779E+03  0.17200000000E+03 0.  1.
</event>
<event>
 4    1  0.4363334E-001  0.2271774E+03  0.7818608E-02  0.1128642E+00
          2   -1    0    0  502    0  0.00000000000E+00  0.00000000000E+00  0.21624390659E+04  0.21624390659E+04  0.00000000000E+00 0. -1.
         -2   -1    0    0    0  501 -0.00000000000E+00 -0.00000000000E+00 -0.25857966868E+02  0.25857966868E+02  0.00000000000E+00 0.  1.
          6    1    1    2  502    0  0.23494935642E+02  0.14653865959E+03  0.76463669239E+03  0.79767089837E+03  0.17200000000E+03 0.  1.
         -6    1    1    2    0  501 -0.23494935642E+02 -0.14653865959E+03  0.13719444067E+04  0.13906261344E+04  0.17200000000E+03 0. -1.
</event>
<event>
 4    1  0.4363334E-001  0.1720360E+03  0.7818608E-02  0.1175741E+00
          2   -1    0    0  502    0  0.00000000000E+00  0.00000000000E+00  0.10705825692E+04  0.10705825692E+04  0.00000000000E+00 0.  1.
         -2   -1    0    0    0  501 -0.00000000000E+00 -0.00000000000E+00 -0.33671920535E+02  0.33671920535E+02  0.00000000000E+00 0. -1.
          6    1    1    2  502    0 -0.32599643483E+01  0.13281376808E+01  0.75204217066E+03  0.77146861100E+03  0.17200000000E+03 0.  1.
         -6    1    1    2    0  501  0.32599643483E+01 -0.13281376808E+01  0.28486847798E+03  0.33278587870E+03  0.17200000000E+03 0. -1.
</event>
<event>
 4    1  0.4363334E-001  0.1838603E+03  0.7818608E-02  0.1164118E+00
          4   -1    0    0  502    0  0.00000000000E+00  0.00000000000E+00  0.22574967280E+03  0.22574967280E+03  0.00000000000E+00 0. -1.
         -4   -1    0    0    0  501 -0.00000000000E+00 -0.00000000000E+00 -0.16507914734E+03  0.16507914734E+03  0.00000000000E+00 0.  1.
          6    1    1    2  502    0  0.27027862395E+02  0.59077024628E+02 -0.29225210990E+02  0.18616850738E+03  0.17200000000E+03 0. -1.
         -6    1    1    2    0  501 -0.27027862395E+02 -0.59077024628E+02  0.89895736445E+02  0.20466031275E+03  0.17200000000E+03 0. -1.
</event>
<event>
 4    1  0.4363334E-001  0.1773542E+03  0.7818608E-02  0.1170389E+00
         -2   -1    0    0    0  501 -0.00000000000E+00  0.00000000000E+00  0.14056753367E+03  0.14056753367E+03  0.00000000000E+00 0.  1.
          2   -1    0    0  502    0  0.00000000000E+00 -0.00000000000E+00 -0.28100749879E+03  0.28100749879E+03  0.00000000000E+00 0. -1.
          6    1    1    2  502    0  0.20722681260E+02 -0.37961526908E+02  0.24913650264E+02  0.17909549691E+03  0.17200000000E+03 0.  1.
         -6    1    1    2    0  501 -0.20722681260E+02  0.37961526908E+02 -0.16535361538E+03  0.24247953555E+03  0.17200000000E+03 0. -1.
</event>
<event>
 4    1  0.4363334E-001  0.2223089E+03  0.7818608E-02  0.1132173E+00
         -2   -1    0    0    0  501 -0.00000000000E+00  0.00000000000E+00  0.12501151505E+03  0.12501151505E+03  0.00000000000E+00 0. -1.
          2   -1    0    0  502    0  0.00000000000E+00 -0.00000000000E+00 -0.11557169194E+04  0.11557169194E+04  0.00000000000E+00 0.  1.
          6    1    1    2  502    0  0.13437739667E+03 -0.42189677070E+02  0.40660302259E+01  0.22234609551E+03  0.17200000000E+03 0. -1.
         -6    1    1    2    0  501 -0.13437739667E+03  0.42189677070E+02 -0.10347714346E+04  0.10583823390E+04  0.17200000000E+03 0.  1.
</event>
<event>
 4    1  0.4363334E-001  0.2089426E+03  0.7818608E-02  0.1142406E+00
         -1   -1    0    0    0  501 -0.00000000000E+00  0.00000000000E+00  0.59720850566E+03  0.59720850566E+03  0.00000000000E+00 0.  1.
          1   -1    0    0  502    0  0.00000000000E+00 -0.00000000000E+00 -0.75117152488E+02  0.75117152488E+02  0.00000000000E+00 0. -1.
          6    1    1    2  502    0 -0.11319715378E+03  0.35488389868E+02  0.31610803279E+03  0.37892124490E+03  0.17200000000E+03 0. -1.
         -6    1    1    2    0  501  0.11319715378E+03 -0.35488389868E+02  0.20598332037E+03  0.29340441325E+03  0.17200000000E+03 0.  1.
</event>
<event>
 4    1  0.4363334E-001  0.1862365E+03  0.7818608E-02  0.1161900E+00
          1   -1    0    0  502    0  0.00000000000E+00  0.00000000000E+00  0.29819674729E+03  0.29819674729E+03  0.00000000000E+00 0.  1.
         -1   -1    0    0    0  501 -0.00000000000E+00 -0.00000000000E+00 -0.13072141989E+03  0.13072141989E+03  0.00000000000E+00 0. -1.
          6    1    1    2  502    0 -0.63062025534E+02  0.33514471729E+02  0.12536797119E+02  0.18665800321E+03  0.17200000000E+03 0.  1.
         -6    1    1    2    0  501  0.63062025534E+02 -0.33514471729E+02  0.15493853028E+03  0.24226016397E+03  0.17200000000E+03 0.  1.
</event>
<event>
 4    1  0.4363334E-001  0.2482460E+03  0.7818608E-02  0.1114418E+00
          1   -1    0    0  502    0  0.00000000000E+00  0.00000000000E+00  0.43093438595E+03  0.43093438595E+03  0.00000000000E+00 0. -1.
         -1   -1    0    0    0  501 -0.00000000000E+00 -0.00000000000E+00 -0.15970281726E+03  0.15970281726E+03  0.00000000000E+00 0.  1.
          6    1    1    2  502    0  0.23893947387E+02 -0.17740116688E+03  0.23110506526E+03  0.33916905213E+03  0.17200000000E+03 0. -1.
         -6    1    1    2    0  501 -0.23893947387E+02  0.17740116688E+03  0.40126503435E+02  0.25146815108E+03  0.17200000000E+03 0.  1.
</event>
<event>
 4    1  0.4363334E-001  0.2135629E+03  0.7818608E-02  0.1138775E+00
         -2   -1    0    0    0  501 -0.00000000000E+00  0.00000000000E+00  0.26362145443E+02  0.26362145443E+02  0.00000000000E+00 0. -1.
          2   -1    0    0  502    0  0.00000000000E+00 -0.00000000000E+00 -0.17305803711E+04  0.17305803711E+04  0.00000000000E+00 0.  1.
          6    1    1    2  502    0  0.11428716380E+03 -0.54438403170E+02 -0.83744300882E+03  0.86424527107E+03  0.17200000000E+03 0. -1.
         -6    1    1    2    0  501 -0.11428716380E+03  0.54438403170E+02 -0.86677521684E+03  0.89269724547E+03  0.17200000000E+03 0.  1.
</event>
<event>
 4    1  0.4363334E-001  0.1886401E+03  0.7818608E-02  0.1159694E+00
         -2   -1    0    0    0  501 -0.00000000000E+00  0.00000000000E+00  0.47867502957E+02  0.47867502957E+02  0.00000000000E+00 0.  1.
          2   -1    0    0  502    0  0.00000000000E+00 -0.00000000000E+00 -0.10672107678E+04  0.10672107678E+04  0.00000000000E+00 0. -1.
          6    1    1    2  502    0 -0.54282778905E+02 -0.55267388194E+02 -0.20256424664E+03  0.27679844346E+03  0.17200000000E+03 0.  1.
         -6    1    1    2    0  501  0.54282778905E+02  0.55267388194E+02 -0.81677901825E+03  0.83827982735E+03  0.17200000000E+03 0. -1.
</event>
<event>
 4    1  0.4363334E-001  0.2227001E+03  0.7818608E-02  0.1131886E+00
          2   -1    0    0  502    0  0.00000000000E+00  0.00000000000E+00  0.27708681510E+04  0.27708681510E+04  0.00000000000E+00 0.  1.
         -2   -1    0    0    0  501 -0.00000000000E+00 -0.00000000000E+00 -0.18278551317E+02  0.18278551317E+02  0.00000000000E+00 0. -1.
          6    1    1    2  502    0 -0.10026303318E+03 -0.99793107725E+02  0.15772939673E+04  0.15929380401E+04  0.17200000000E+03 0.  1.
         -6    1    1    2    0  501  0.10026303318E+03  0.99793107725E+02  0.11752956324E+04  0.11962086623E+04  0.17200000000E+03 0. -1.
</event>
<event>
 4    1  0.4363334E-001  0.2427481E+03  0.7818608E-02  0.1117976E+00
         -1   -1    0    0    0  501 -0.00000000000E+00  0.00000000000E+00  0.58083824393E+02  0.58083824393E+02  0.00000000000E+00 0.  1.
          1   -1    0    0  502    0  0.00000000000E+00 -0.00000000000E+00 -0.10988407486E+04  0.10988407486E+04  0.00000000000E+00 0. -1.
          6    1    1    2  502    0 -0.37451002903E+02 -0.16715285120E+03 -0.36012803173E+03  0.43430271991E+03  0.17200000000E+03 0.  1.
         -6    1    1    2    0  501  0.37451002903E+02  0.16715285120E+03 -0.68062889251E+03  0.72262185312E+03  0.17200000000E+03 0. -1.
</event>
<event>
 4    1  0.4363334E-001  0.2661615E+03  0.7818608E-02  0.1103497E+00
         -2   -1    0    0    0  501 -0.00000000000E+00  0.00000000000E+00  0.18771215000E+03  0.18771215000E+03  0.00000000000E+00 0. -1.
          2   -1    0    0  502    0  0.00000000000E+00 -0.00000000000E+00 -0.38594470696E+03  0.38594470696E+03  0.00000000000E+00 0.  1.
          6    1    1    2  502    0 -0.24184679261E+02  0.20167565292E+03 -0.14180264028E+03  0.30157910485E+03  0.17200000000E+03 0. -1.
         -6    1    1    2    0  501  0.24184679261E+02 -0.20167565292E+03 -0.56429916684E+02  0.27207775210E+03  0.17200000000E+03 0.  1.
</event>
<event>
 4    1  0.4363334E-001  0.2035186E+03  0.7818608E-02  0.1146804E+00
         -1   -1    0    0    0  501 -0.00000000000E+00  0.00000000000E+00  0.13506677022E+03  0.13506677022E+03  0.00000000000E+00 0.  1.
          1   -1    0    0  502    0  0.00000000000E+00 -0.00000000000E+00 -0.40377685589E+03  0.40377685589E+03  0.00000000000E+00 0. -1.
          6    1    1    2  502    0 -0.96934794828E+02 -0.49391132628E+02 -0.26648612803E+03  0.33531283135E+03  0.17200000000E+03 0. -1.
         -6    1    1    2    0  501  0.96934794828E+02  0.49391132628E+02 -0.22239576421E+01  0.20353079477E+03  0.17200000000E+03 0. -1.
</event>
<event>
 4    1  0.4363334E-001  0.2081104E+03  0.7818608E-02  0.1143071E+00
         -2   -1    0    0    0  501 -0.00000000000E+00  0.00000000000E+00  0.33409539084E+02  0.33409539084E+02  0.00000000000E+00 0.  1.
          2   -1    0    0  502    0  0.00000000000E+00 -0.00000000000E+00 -0.18074372265E+04  0.18074372265E+04  0.00000000000E+00 0. -1.
          6    1    1    2  502    0 -0.28946921811E+02 -0.11352532077E+03 -0.39756159691E+03  0.44873727957E+03  0.17200000000E+03 0.  1.
         -6    1    1    2    0  501  0.28946921811E+02  0.11352532077E+03 -0.13764660905E+04  0.13921094860E+04  0.17200000000E+03 0. -1.
</event>
<event>
 4    1  0.4363334E-001  0.2002168E+03  0.7818608E-02  0.1149556E+00
          1   -1    0    0  502    0  0.00000000000E+00  0.00000000000E+00  0.14879731468E+04  0.14879731468E+04  0.00000000000E+00 0.  1.
         -1   -1    0    0    0  501 -0.00000000000E+00 -0.00000000000E+00 -0.31414983376E+02  0.31414983376E+02  0.00000000000E+00 0. -1.
          6    1    1    2  502    0  0.10104577733E+03  0.17103222062E+02  0.10149877529E+04  0.10345467161E+04  0.17200000000E+03 0.  1.
         -6    1    1    2    0  501 -0.10104577733E+03 -0.17103222062E+02  0.44157041049E+03  0.48484141402E+03  0.17200000000E+03 0. -1.
</event>
<event>
 4    1  0.4363334E-001  0.2164266E+03  0.7818608E-02  0.1136576E+00
         -3   -1    0    0    0  501 -0.00000000000E+00  0.00000000000E+00  0.23199834542E+04  0.23199834542E+04  0.00000000000E+00 0. -1.
          3   -1    0    0  502    0  0.00000000000E+00 -0.00000000000E+00 -0.20944937378E+02  0.20944937378E+02  0.00000000000E+00 0.  1.
          6    1    1    2  502    0  0.99813758313E+02 -0.85403002958E+02  0.92730348019E+03  0.95222487031E+03  0.17200000000E+03 0.  1.
         -6    1    1    2    0  501 -0.99813758313E+02  0.85403002958E+02  0.13717350367E+04  0.13887035213E+04  0.17200000000E+03 0.  1.
</event>
<event>
 4    1  0.4363334E-001  0.1886609E+03  0.7818608E-02  0.1159675E+00
         -2   -1    0    0    0  501 -0.00000000000E+00  0.00000000000E+00  0.14471698727E+03  0.14471698727E+03  0.00000000000E+00 0.  1.
          2   -1    0    0  502    0  0.00000000000E+00 -0.00000000000E+00 -0.30946612858E+03  0.30946612858E+03  0.00000000000E+00 0. -1.
          6    1    1    2  502    0  0.55827479942E+02 -0.53779326912E+02 -0.18525709786E+03  0.26441088447E+03  0.17200000000E+03 0. -1.
         -6    1    1    2    0  501 -0.55827479942E+02  0.53779326912E+02  0.20507956547E+02  0.18977223138E+03  0.17200000000E+03 0.  1.
</event>
<event>
 4    1  0.4363334E-001  0.1767099E+03  0.7818608E-02  0.1171026E+00
         -4   -1    0    0    0  501 -0.00000000000E+00  0.00000000000E+00  0.10444185646E+04  0.10444185646E+04  0.00000000000E+00 0. -1.
          4   -1    0    0  502    0  0.00000000000E+00 -0.00000000000E+00 -0.59309933871E+02  0.59309933871E+02  0.00000000000E+00 0.  1.
          6    1    1    2  502    0  0.40444489951E+02 -0.25771200632E+01  0.10393203041E+03  0.20500796389E+03  0.17200000000E+03 0.  1.
         -6    1    1    2    0  501 -0.40444489951E+02  0.25771200632E+01  0.88117660030E+03  0.89872053455E+03  0.17200000000E+03 0. -1.
</event>
<event>
 4    1  0.4363334E-001  0.2354740E+03  0.7818608E-02  0.1122845E+00
         -2   -1    0    0    0  501 -0.00000000000E+00  0.00000000000E+00  0.18752608598E+04  0.18752608598E+04  0.00000000000E+00 0. -1.
          2   -1    0    0  502    0  0.00000000000E+00 -0.00000000000E+00 -0.30180270177E+02  0.30180270177E+02  0.00000000000E+00 0.  1.
          6    1    1    2  502    0 -0.54016505968E+01  0.16073214138E+03  0.10582220442E+04  0.10841041896E+04  0.17200000000E+03 0. -1.
         -6    1    1    2    0  501  0.54016505968E+01 -0.16073214138E+03  0.78685854539E+03  0.82133694033E+03  0.17200000000E+03 0.  1.
</event>
<event>
 4    1  0.4363334E-001  0.2413728E+03  0.7818608E-02  0.1118882E+00
         -1   -1    0    0    0  501 -0.00000000000E+00  0.00000000000E+00  0.46545907087E+03  0.46545907087E+03  0.00000000000E+00 0.  1.
          1   -1    0    0  502    0  0.00000000000E+00 -0.00000000000E+00 -0.12846117570E+03  0.12846117570E+03  0.00000000000E+00 0. -1.
          6    1    1    2  502    0  0.11412760233E+03 -0.12510684010E+03  0.12095620719E+03  0.26998376824E+03  0.17200000000E+03 0. -1.
         -6    1    1    2    0  501 -0.11412760233E+03  0.12510684010E+03  0.21604168797E+03  0.32393647833E+03  0.17200000000E+03 0.  1.
</event>
<event>
 4    1  0.4363334E-001  0.4069839E+03  0.7818608E-02  0.1041388E+00
          2   -1    0    0  502    0  0.00000000000E+00  0.00000000000E+00  0.25649769122E+04  0.25649769122E+04  0.00000000000E+00 0.  1.
         -2   -1    0    0    0  501 -0.00000000000E+00 -0.00000000000E+00 -0.64689521584E+02  0.64689521584E+02  0.00000000000E+00 0. -1.
          6    1    1    2  502    0 -0.40568457089E+02 -0.36661433879E+03  0.11950566390E+04  0.12624564323E+04  0.17200000000E+03 0.  1.
         -6    1    1    2    0  501  0.40568457089E+02  0.36661433879E+03  0.13052307517E+04  0.13672100015E+04  0.17200000000E+03 0. -1.
</event>
<event>
 4    1  0.4363334E-001  0.1856116E+03  0.7818608E-02  0.1162480E+00
         -1   -1    0    0    0  501 -0.00000000000E+00  0.00000000000E+00  0.16413092876E+03  0.16413092876E+03  0.00000000000E+00 0.  1.
          1   -1    0    0  502    0  0.00000000000E+00 -0.00000000000E+00 -0.21145416379E+03  0.21145416379E+03  0.00000000000E+00 0. -1.
          6    1    1    2  502    0 -0.41109364886E+02  0.56370967294E+02 -0.75803229202E+01  0.18576632399E+03  0.17200000000E+03 0. -1.
         -6    1    1    2    0  501  0.41109364886E+02 -0.56370967294E+02 -0.39742912113E+02  0.18981876856E+03  0.17200000000E+03 0.  1.
</event>
<event>
 4    1  0.4363334E-001  0.2726245E+03  0.7818608E-02  0.1099787E+00
          2   -1    0    0  502    0  0.00000000000E+00  0.00000000000E+00  0.43392907133E+04  0.43392907133E+04  0.00000000000E+00 0. -1.
         -2   -1    0    0    0  501 -0.00000000000E+00 -0.00000000000E+00 -0.27146096674E+02  0.27146096674E+02  0.00000000000E+00 0.  1.
          6    1    1    2  502    0 -0.18856721168E+03 -0.95825575050E+02  0.34823433491E+04  0.34929986165E+04  0.17200000000E+03 0. -1.
         -6    1    1    2    0  501  0.18856721168E+03  0.95825575050E+02  0.82980126755E+03  0.87343819345E+03  0.17200000000E+03 0.  1.
</event>
<event>
 4    1  0.4363334E-001  0.2009880E+03  0.7818608E-02  0.1148908E+00
         -2   -1    0    0    0  501 -0.00000000000E+00  0.00000000000E+00  0.88390545606E+02  0.88390545606E+02  0.00000000000E+00 0. -1.
          2   -1    0    0  502    0  0.00000000000E+00 -0.00000000000E+00 -0.60544813733E+03  0.60544813733E+03  0.00000000000E+00 0.  1.
          6    1    1    2  502    0  0.69677362380E+02  0.77183155868E+02 -0.86757986168E+02  0.21891350470E+03  0.17200000000E+03 0. -1.
         -6    1    1    2    0  501 -0.69677362380E+02 -0.77183155868E+02 -0.43029960556E+03  0.47492517823E+03  0.17200000000E+03 0.  1.
</event>
<event>
 4    1  0.4363334E-001  0.1904693E+03  0.7818608E-02  0.1158039E+00
          1   -1    0    0  502    0  0.00000000000E+00  0.00000000000E+00  0.33452641381E+03  0.33452641381E+03  0.00000000000E+00 0. -1.
         -1   -1    0    0    0  501 -0.00000000000E+00 -0.00000000000E+00 -0.10935769461E+03  0.10935769461E+03  0.00000000000E+00 0.  1.
          6    1    1    2  502    0  0.81425664669E+02  0.80253888583E+01  0.13283260650E+03  0.23221336542E+03  0.17200000000E+03 0. -1.
         -6    1    1    2    0  501 -0.81425664669E+02 -0.80253888583E+01  0.92336112698E+02  0.21167074300E+03  0.17200000000E+03 0.  1.
</event>
<event>
 4    1  0.4363334E-001  0.4250963E+03  0.7818608E-02  0.1035420E+00
          1   -1    0    0  502    0  0.00000000000E+00  0.00000000000E+00  0.19692049401E+04  0.19692049401E+04  0.00000000000E+00 0.  1.
         -1   -1    0    0    0  501 -0.00000000000E+00 -0.00000000000E+00 -0.96702419517E+02  0.96702419517E+02  0.00000000000E+00 0. -1.
          6    1    1    2  502    0  0.38226106910E+03 -0.70706177862E+02  0.70287874336E+03  0.82142888701E+03  0.17200000000E+03 0.  1.
         -6    1    1    2    0  501 -0.38226106910E+03  0.70706177862E+02  0.11696237772E+04  0.12444784726E+04  0.17200000000E+03 0. -1.
</event>
<event>
 4    1  0.4363334E-001  0.2137421E+03  0.7818608E-02  0.1138636E+00
         -1   -1    0    0    0  501 -0.00000000000E+00  0.00000000000E+00  0.19175107082E+02  0.19175107082E+02  0.00000000000E+00 0.  1.
          1   -1    0    0  502    0  0.00000000000E+00 -0.00000000000E+00 -0.24253344841E+04  0.24253344841E+04  0.00000000000E+00 0. -1.
          6    1    1    2  502    0  0.10522368820E+03 -0.70920208455E+02 -0.13654124102E+04  0.13820407919E+04  0.17200000000E+03 0. -1.
         -6    1    1    2    0  501 -0.10522368820E+03  0.70920208455E+02 -0.10407469669E+04  0.10624687994E+04  0.17200000000E+03 0.  1.
</event>
<event>
 4    1  0.4363334E-001  0.4514988E+03  0.7818608E-02  0.1027276E+00
         -2   -1    0    0    0  501 -0.00000000000E+00  0.00000000000E+00  0.70044060267E+03  0.70044060267E+03  0.00000000000E+00 0. -1.
          2   -1    0    0  502    0  0.00000000000E+00 -0.00000000000E+00 -0.39510148102E+03  0.39510148102E+03  0.00000000000E+00 0.  1.
          6    1    1    2  502    0  0.37101701354E+03  0.19134664328E+03 -0.12845892140E+03  0.46941757180E+03  0.17200000000E+03 0.  1.
         -6    1    1    2    0  501 -0.37101701354E+03 -0.19134664328E+03  0.43379804305E+03  0.62612451189E+03  0.17200000000E+03 0. -1.
</event>
<event>
 4    1  0.4363334E-001  0.1875743E+03  0.7818608E-02  0.1160668E+00
          2   -1    0    0  502    0  0.00000000000E+00  0.00000000000E+00  0.13938883056E+04  0.13938883056E+04  0.00000000000E+00 0. -1.
         -2   -1    0    0    0  501 -0.00000000000E+00 -0.00000000000E+00 -0.25643113101E+02  0.25643113101E+02  0.00000000000E+00 0.  1.
          6    1    1    2  502    0 -0.34393729305E+02  0.66461941062E+02  0.59532066899E+03  0.62417210540E+03  0.17200000000E+03 0.  1.
         -6    1    1    2    0  501  0.34393729305E+02 -0.66461941062E+02  0.77292452355E+03  0.79535931335E+03  0.17200000000E+03 0. -1.
</event>
<event>
 4    1  0.4363334E-001  0.1992402E+03  0.7818608E-02  0.1150382E+00
         -2   -1    0    0    0  501 -0.00000000000E+00  0.00000000000E+00  0.51967596691E+02  0.51967596691E+02  0.00000000000E+00 0. -1.
          2   -1    0    0  502    0  0.00000000000E+00 -0.00000000000E+00 -0.13324537049E+04  0.13324537049E+04  0.00000000000E+00 0.  1.
          6    1    1    2  502    0 -0.10041979258E+03  0.53401755039E+01 -0.10924197867E+04  0.11104402922E+04  0.17200000000E+03 0. -1.
         -6    1    1    2    0  501  0.10041979258E+03 -0.53401755039E+01 -0.18806632156E+03  0.27398100942E+03  0.17200000000E+03 0. -1.
</event>
<event>
 4    1  0.4363334E-001  0.3307221E+03  0.7818608E-02  0.1070818E+00
          1   -1    0    0  502    0  0.00000000000E+00  0.00000000000E+00  0.12453512565E+04  0.12453512565E+04  0.00000000000E+00 0. -1.
         -1   -1    0    0    0  501 -0.00000000000E+00 -0.00000000000E+00 -0.17383415352E+03  0.17383415352E+03  0.00000000000E+00 0.  1.
          6    1    1    2  502    0 -0.21079918359E+03 -0.18803408456E+03  0.36637905414E+02  0.33274532134E+03  0.17200000000E+03 0.  1.
         -6    1    1    2    0  501  0.21079918359E+03  0.18803408456E+03  0.10348791976E+04  0.10864400887E+04  0.17200000000E+03 0. -1.
</event>
<event>
 4    1  0.4363334E-001  0.1748774E+03  0.7818608E-02  0.1172855E+00
          2   -1    0    0  502    0  0.00000000000E+00  0.00000000000E+00  0.13122427360E+04  0.13122427360E+04  0.00000000000E+00 0. -1.
         -2   -1    0    0    0  501 -0.00000000000E+00 -0.00000000000E+00 -0.25443477733E+02  0.25443477733E+02  0.00000000000E+00 0.  1.
          6    1    1    2  502    0 -0.22977198465E+02 -0.21682683223E+02  0.83729490401E+03  0.85536240663E+03  0.17200000000E+03 0. -1.
         -6    1    1    2    0  501  0.22977198465E+02  0.21682683223E+02  0.44950435429E+03  0.48232380714E+03  0.17200000000E+03 0. -1.
</event>
<event>
 4    1  0.4363334E-001  0.1801866E+03  0.7818608E-02  0.1167623E+00
         -1   -1    0    0    0  501 -0.00000000000E+00  0.00000000000E+00  0.42714598403E+02  0.42714598403E+02  0.00000000000E+00 0.  1.
          1   -1    0    0  502    0  0.00000000000E+00 -0.00000000000E+00 -0.76524553870E+03  0.76524553870E+03  0.00000000000E+00 0. -1.
          6    1    1    2  502    0  0.53560706355E+02  0.38029273238E+01 -0.39440358280E+03  0.43361434207E+03  0.17200000000E+03 0. -1.
         -6    1    1    2    0  501 -0.53560706355E+02 -0.38029273238E+01 -0.32812735749E+03  0.37434579503E+03  0.17200000000E+03 0. -1.
</event>
<event>
 4    1  0.4363334E-001  0.1847107E+03  0.7818608E-02  0.1163320E+00
          3   -1    0    0  502    0  0.00000000000E+00  0.00000000000E+00  0.49369316305E+02  0.49369316305E+02  0.00000000000E+00 0.  1.
         -3   -1    0    0    0  501 -0.00000000000E+00 -0.00000000000E+00 -0.77763309176E+03  0.77763309176E+03  0.00000000000E+00 0. -1.
          6    1    1    2  502    0  0.39342529597E+02  0.54646157545E+02 -0.22617725426E+03  0.29201744385E+03  0.17200000000E+03 0.  1.
         -6    1    1    2    0  501 -0.39342529597E+02 -0.54646157545E+02 -0.50208652120E+03  0.53498496422E+03  0.17200000000E+03 0. -1.
</event>
<event>
 4    1  0.4363334E-001  0.2672549E+03  0.7818608E-02  0.1102861E+00
          1   -1    0    0  502    0  0.00000000000E+00  0.00000000000E+00  0.12732864387E+04  0.12732864387E+04  0.00000000000E+00 0.  1.
         -1   -1    0    0    0  501 -0.00000000000E+00 -0.00000000000E+00 -0.56488052903E+02  0.56488052903E+02  0.00000000000E+00 0. -1.
          6    1    1    2  502    0  0.15319778043E+03  0.13554202404E+03  0.66385021096E+03  0.71562720938E+03  0.17200000000E+03 0. -1.
         -6    1    1    2    0  501 -0.15319778043E+03 -0.13554202404E+03  0.55294817485E+03  0.61414728224E+03  0.17200000000E+03 0.  1.
</event>
<event>
 4    1  0.4363334E-001  0.1915770E+03  0.7818608E-02  0.1157047E+00
          1   -1    0    0  502    0  0.00000000000E+00  0.00000000000E+00  0.29828313674E+03  0.29828313674E+03  0.00000000000E+00 0.  1.
         -1   -1    0    0    0  501 -0.00000000000E+00 -0.00000000000E+00 -0.13470428189E+03  0.13470428189E+03  0.00000000000E+00 0. -1.
          6    1    1    2  502    0 -0.18942137974E+02  0.82212734592E+02  0.18091934594E+02  0.19242935435E+03  0.17200000000E+03 0. -1.
         -6    1    1    2    0  501  0.18942137974E+02 -0.82212734592E+02  0.14548692026E+03  0.24055806427E+03  0.17200000000E+03 0.  1.
</event>
<event>
 4    1  0.4363334E-001  0.1831001E+03  0.7818608E-02  0.1164836E+00
          2   -1    0    0  502    0  0.00000000000E+00  0.00000000000E+00  0.14696333919E+04  0.14696333919E+04  0.00000000000E+00 0. -1.
         -2   -1    0    0    0  501 -0.00000000000E+00 -0.00000000000E+00 -0.23562584249E+02  0.23562584249E+02  0.00000000000E+00 0.  1.
          6    1    1    2  502    0  0.58999425135E+02  0.21464410952E+02  0.58980571445E+03  0.61757301909E+03  0.17200000000E+03 0. -1.
         -6    1    1    2    0  501 -0.58999425135E+02 -0.21464410952E+02  0.85626509319E+03  0.87562295706E+03  0.17200000000E+03 0. -1.
</event>
<event>
 4    1  0.4363334E-001  0.1932423E+03  0.7818608E-02  0.1155569E+00
         -2   -1    0    0    0  501 -0.00000000000E+00  0.00000000000E+00  0.12147603190E+03  0.12147603190E+03  0.00000000000E+00 0. -1.
          2   -1    0    0  502    0  0.00000000000E+00 -0.00000000000E+00 -0.42251470915E+03  0.42251470915E+03  0.00000000000E+00 0.  1.
          6    1    1    2  502    0  0.87907920647E+02 -0.55492874518E+01 -0.29248802864E+03  0.35055933022E+03  0.17200000000E+03 0.  1.
         -6    1    1    2    0  501 -0.87907920647E+02  0.55492874518E+01 -0.85506486001E+01  0.19343141083E+03  0.17200000000E+03 0. -1.
</event>
<event>
 4    1  0.4363334E-001  0.1854588E+03  0.7818608E-02  0.1162622E+00
         -1   -1    0    0    0  501 -0.00000000000E+00  0.00000000000E+00  0.24559787221E+02  0.24559787221E+02  0.00000000000E+00 0.  1.
          1   -1    0    0  502    0  0.00000000000E+00 -0.00000000000E+00 -0.14516361865E+04  0.14516361865E+04  0.00000000000E+00 0. -1.
          6    1    1    2  502    0 -0.68490865924E+02 -0.10952817903E+02 -0.57495026438E+03  0.60412148567E+03  0.17200000000E+03 0.  1.
         -6    1    1    2    0  501  0.68490865924E+02  0.10952817903E+02 -0.85212613489E+03  0.87207448805E+03  0.17200000000E+03 0. -1.
</event>
<event>
 4    1  0.4363334E-001  0.2463101E+03  0.7818608E-02  0.1115659E+00
          2   -1    0    0  502    0  0.00000000000E+00  0.00000000000E+00  0.17829865104E+03  0.17829865104E+03  0.00000000000E+00 0. -1.
         -2   -1    0    0    0  501 -0.00000000000E+00 -0.00000000000E+00 -0.34188963025E+03  0.34188963025E+03  0.00000000000E+00 0.  1.
          6    1    1    2  502    0  0.14360299902E+02 -0.17572270016E+03 -0.63862879042E+02  0.25445461852E+03  0.17200000000E+03 0.  1.
         -6    1    1    2    0  501 -0.14360299902E+02  0.17572270016E+03 -0.99728100174E+02  0.26573366277E+03  0.17200000000E+03 0.  1.
</event>
<event>
 4    1  0.4363334E-001  0.2454692E+03  0.7818608E-02  0.1116202E+00
         -2   -1    0    0    0  501 -0.00000000000E+00  0.00000000000E+00  0.16726645462E+03  0.16726645462E+03  0.00000000000E+00 0.  1.
          2   -1    0    0  502    0  0.00000000000E+00 -0.00000000000E+00 -0.55323016319E+03  0.55323016319E+03  0.00000000000E+00 0. -1.
          6    1    1    2  502    0 -0.15779611079E+03 -0.75970627401E+02  0.19794220398E+02  0.24626603495E+03  0.17200000000E+03 0.  1.
         -6    1    1    2    0  501  0.15779611079E+03  0.75970627401E+02 -0.40575792897E+03  0.47423058287E+03  0.17200000000E+03 0. -1.
</event>
<event>
 4    1  0.4363334E-001  0.1750939E+03  0.7818608E-02  0.1172637E+00
         -1   -1    0    0    0  501 -0.00000000000E+00  0.00000000000E+00  0.45572470731E+02  0.45572470731E+02  0.00000000000E+00 0. -1.
          1   -1    0    0  502    0  0.00000000000E+00 -0.00000000000E+00 -0.74030307391E+03  0.74030307391E+03  0.00000000000E+00 0.  1.
          6    1    1    2  502    0 -0.25774959425E+02  0.20236791955E+02 -0.22864846270E+03  0.28798957581E+03  0.17200000000E+03 0. -1.
         -6    1    1    2    0  501  0.25774959425E+02 -0.20236791955E+02 -0.46608214048E+03  0.49788596883E+03  0.17200000000E+03 0.  1.
</event>
<event>
 4    1  0.4363334E-001  0.1995584E+03  0.7818608E-02  0.1150112E+00
          2   -1    0    0  502    0  0.00000000000E+00  0.00000000000E+00  0.18516036862E+04  0.18516036862E+04  0.00000000000E+00 0. -1.
         -2   -1    0    0    0  501 -0.00000000000E+00 -0.00000000000E+00 -0.23779869004E+02  0.23779869004E+02  0.00000000000E+00 0.  1.
          6    1    1    2  502    0 -0.65956804399E+02 -0.76741477667E+02  0.12037697784E+04  0.12201988501E+04  0.17200000000E+03 0. -1.
         -6    1    1    2    0  501  0.65956804399E+02  0.76741477667E+02  0.62405403881E+03  0.65518470510E+03  0.17200000000E+03 0.  1.
</event>
<event>
 4    1  0.4363334E-001  0.1763398E+03  0.7818608E-02  0.1171393E+00
         -2   -1    0    0    0  501 -0.00000000000E+00  0.00000000000E+00  0.65987838400E+02  0.65987838400E+02  0.00000000000E+00 0. -1.
          2   -1    0    0  502    0  0.00000000000E+00 -0.00000000000E+00 -0.54757372314E+03  0.54757372314E+03  0.00000000000E+00 0.  1.
          6    1    1    2  502    0  0.85994375796E+01  0.37917856661E+02 -0.35533951259E+03  0.39668864792E+03  0.17200000000E+03 0.  1.
         -6    1    1    2    0  501 -0.85994375796E+01 -0.37917856661E+02 -0.12624637214E+03  0.21687291362E+03  0.17200000000E+03 0. -1.
</event>
<event>
 4    1  0.4363334E-001  0.1995349E+03  0.7818608E-02  0.1150132E+00
          2   -1    0    0  502    0  0.00000000000E+00  0.00000000000E+00  0.10092572190E+04  0.10092572190E+04  0.00000000000E+00 0. -1.
         -2   -1    0    0    0  501 -0.00000000000E+00 -0.00000000000E+00 -0.49096480387E+02  0.49096480387E+02  0.00000000000E+00 0.  1.
          6    1    1    2  502    0  0.99777769385E+01  0.10065089328E+03  0.24550453437E+03  0.31636471792E+03  0.17200000000E+03 0.  1.
         -6    1    1    2    0  501 -0.99777769385E+01 -0.10065089328E+03  0.71465620424E+03  0.74198898146E+03  0.17200000000E+03 0. -1.
</event>
<event>
 4    1  0.4363334E-001  0.2110488E+03  0.7818608E-02  0.1140738E+00
         -1   -1    0    0    0  501 -0.00000000000E+00  0.00000000000E+00  0.24595962527E+02  0.24595962527E+02  0.00000000000E+00 0. -1.
          1   -1    0    0  502    0  0.00000000000E+00 -0.00000000000E+00 -0.18539867379E+04  0.18539867379E+04  0.00000000000E+00 0.  1.
          6    1    1    2  502    0 -0.42140320902E+02 -0.11481201415E+03 -0.10578349263E+04  0.10786826858E+04  0.17200000000E+03 0. -1.
         -6    1    1    2    0  501  0.42140320902E+02  0.11481201415E+03 -0.77155584909E+03  0.79990001469E+03  0.17200000000E+03 0.  1.
</event>
<event>
 4    1  0.4363334E-001  0.1936058E+03  0.7818608E-02  0.1155249E+00
         -2   -1    0    0    0  501 -0.00000000000E+00  0.00000000000E+00  0.32402520390E+02  0.32402520390E+02  0.00000000000E+00 0. -1.
          2   -1    0    0  502    0  0.00000000000E+00 -0.00000000000E+00 -0.13754598252E+04  0.13754598252E+04  0.00000000000E+00 0.  1.
          6    1    1    2  502    0  0.88737660641E+02 -0.49833843284E+01 -0.39086147209E+03  0.43618332946E+03  0.17200000000E+03 0. -1.
         -6    1    1    2    0  501 -0.88737660641E+02  0.49833843284E+01 -0.95219583271E+03  0.97167901612E+03  0.17200000000E+03 0.  1.
</event>
<event>
 4    1  0.4363334E-001  0.1816181E+03  0.7818608E-02  0.1166246E+00
          1   -1    0    0  502    0  0.00000000000E+00  0.00000000000E+00  0.15492027035E+03  0.15492027035E+03  0.00000000000E+00 0.  1.
         -1   -1    0    0    0  501 -0.00000000000E+00 -0.00000000000E+00 -0.24180557943E+03  0.24180557943E+03  0.00000000000E+00 0. -1.
          6    1    1    2  502    0 -0.27820211301E+02 -0.51255870817E+02  0.25120679802E+02  0.18334714888E+03  0.17200000000E+03 0.  1.
         -6    1    1    2    0  501  0.27820211301E+02  0.51255870817E+02 -0.11200598888E+03  0.21337870090E+03  0.17200000000E+03 0. -1.
</event>
<event>
 4    1  0.4363334E-001  0.1954749E+03  0.7818608E-02  0.1153614E+00
         -1   -1    0    0    0  501 -0.00000000000E+00  0.00000000000E+00  0.13282892622E+03  0.13282892622E+03  0.00000000000E+00 0. -1.
          1   -1    0    0  502    0  0.00000000000E+00 -0.00000000000E+00 -0.36989656761E+03  0.36989656761E+03  0.00000000000E+00 0.  1.
          6    1    1    2  502    0  0.17388739398E+02 -0.91236382194E+02 -0.18138558932E-01  0.19547492428E+03  0.17200000000E+03 0. -1.
         -6    1    1    2    0  501 -0.17388739398E+02  0.91236382194E+02 -0.23704950283E+03  0.30725056955E+03  0.17200000000E+03 0.  1.
</event>
<event>
 4    1  0.4363334E-001  0.1852715E+03  0.7818608E-02  0.1162797E+00
          1   -1    0    0  502    0  0.00000000000E+00  0.00000000000E+00  0.65627043304E+03  0.65627043304E+03  0.00000000000E+00 0.  1.
         -1   -1    0    0    0  501 -0.00000000000E+00 -0.00000000000E+00 -0.52324555999E+02  0.52324555999E+02  0.00000000000E+00 0. -1.
          6    1    1    2  502    0  0.47071220944E+02 -0.50257731229E+02  0.30900295544E+03  0.36028928080E+03  0.17200000000E+03 0. -1.
         -6    1    1    2    0  501 -0.47071220944E+02  0.50257731229E+02  0.29494292161E+03  0.34830570825E+03  0.17200000000E+03 0. -1.
</event>
<event>
 4    1  0.4363334E-001  0.1741596E+03  0.7818608E-02  0.1173578E+00
         -2   -1    0    0    0  501 -0.00000000000E+00  0.00000000000E+00  0.14452854836E+03  0.14452854836E+03  0.00000000000E+00 0.  1.
          2   -1    0    0  502    0  0.00000000000E+00 -0.00000000000E+00 -0.21280404196E+03  0.21280404196E+03  0.00000000000E+00 0. -1.
          6    1    1    2  502    0  0.10466586821E+02  0.25259325280E+02 -0.13143277723E+02  0.17465488457E+03  0.17200000000E+03 0.  1.
         -6    1    1    2    0  501 -0.10466586821E+02 -0.25259325280E+02 -0.55132215878E+02  0.18267770576E+03  0.17200000000E+03 0.  1.
</event>
<event>
 4    1  0.4363334E-001  0.1887327E+03  0.7818608E-02  0.1159609E+00
          3   -1    0    0  502    0  0.00000000000E+00  0.00000000000E+00  0.44726709366E+03  0.44726709366E+03  0.00000000000E+00 0.  1.
         -3   -1    0    0    0  501 -0.00000000000E+00 -0.00000000000E+00 -0.96889413780E+02  0.96889413780E+02  0.00000000000E+00 0. -1.
          6    1    1    2  502    0  0.37183117249E+02  0.68216164089E+02  0.60386192679E+02  0.19815781972E+03  0.17200000000E+03 0. -1.
         -6    1    1    2    0  501 -0.37183117249E+02 -0.68216164089E+02  0.28999148720E+03  0.34599868771E+03  0.17200000000E+03 0.  1.
</event>
<event>
 4    1  0.4363334E-001  0.1784732E+03  0.7818608E-02  0.1169289E+00
         -1   -1    0    0    0  501 -0.00000000000E+00  0.00000000000E+00  0.15989252417E+03  0.15989252417E+03  0.00000000000E+00 0. -1.
          1   -1    0    0  502    0  0.00000000000E+00 -0.00000000000E+00 -0.20559789003E+03  0.20559789003E+03  0.00000000000E+00 0.  1.
          6    1    1    2  502    0  0.46479682811E+02  0.10408355898E+02  0.93511810359E+01  0.17871804434E+03  0.17200000000E+03 0. -1.
         -6    1    1    2    0  501 -0.46479682811E+02 -0.10408355898E+02 -0.55056546888E+02  0.18677236986E+03  0.17200000000E+03 0. -1.
</event>
<event>
 4    1  0.4363334E-001  0.2682877E+03  0.7818608E-02  0.1102264E+00
          2   -1    0    0  502    0  0.00000000000E+00  0.00000000000E+00  0.61717329417E+03  0.61717329417E+03  0.00000000000E+00 0. -1.
         -2   -1    0    0    0  501 -0.00000000000E+00 -0.00000000000E+00 -0.43821900803E+03  0.43821900803E+03  0.00000000000E+00 0.  1.
          6    1    1    2  502    0 -0.10657518628E+03 -0.17617044084E+03  0.54153267967E+03  0.60434753057E+03  0.17200000000E+03 0. -1.
         -6    1    1    2    0  501  0.10657518628E+03  0.17617044084E+03 -0.36257839353E+03  0.45104477163E+03  0.17200000000E+03 0.  1.
</event>
<event>
 4    1  0.4363334E-001  0.1977816E+03  0.7818608E-02  0.1151624E+00
          1   -1    0    0  502    0  0.00000000000E+00  0.00000000000E+00  0.45343693095E+03  0.45343693095E+03  0.00000000000E+00 0.  1.
         -1   -1    0    0    0  501 -0.00000000000E+00 -0.00000000000E+00 -0.86803577243E+02  0.86803577243E+02  0.00000000000E+00 0. -1.
          6    1    1    2  502    0  0.73591830705E+02 -0.64170203929E+02  0.16211970408E+03  0.25573496255E+03  0.17200000000E+03 0. -1.
         -6    1    1    2    0  501 -0.73591830705E+02  0.64170203929E+02  0.20451364963E+03  0.28450554565E+03  0.17200000000E+03 0. -1.
</event>
<event>
 4    1  0.4363334E-001  0.2257514E+03  0.7818608E-02  0.1129666E+00
         -1   -1    0    0    0  501 -0.00000000000E+00  0.00000000000E+00  0.81857954315E+02  0.81857954315E+02  0.00000000000E+00 0.  1.
          1   -1    0    0  502    0  0.00000000000E+00 -0.00000000000E+00 -0.71288131919E+03  0.71288131919E+03  0.00000000000E+00 0. -1.
          6    1    1    2  502    0  0.10490830212E+03 -0.10185254358E+03 -0.17408985528E+03  0.28508063806E+03  0.17200000000E+03 0.  1.
         -6    1    1    2    0  501 -0.10490830212E+03  0.10185254358E+03 -0.45693350960E+03  0.50965863544E+03  0.17200000000E+03 0. -1.
</event>
<event>
 4    1  0.4363334E-001  0.1723633E+03  0.7818608E-02  0.1175406E+00
          2   -1    0    0  502    0  0.00000000000E+00  0.00000000000E+00  0.22235733653E+04  0.22235733653E+04  0.00000000000E+00 0. -1.
         -2   -1    0    0    0  501 -0.00000000000E+00 -0.00000000000E+00 -0.14442855781E+02  0.14442855781E+02  0.00000000000E+00 0.  1.
          6    1    1    2  502    0  0.10968653162E+02  0.21876210173E+01  0.79830023074E+03  0.81669599940E+03  0.17200000000E+03 0. -1.
         -6    1    1    2    0  501 -0.10968653162E+02 -0.21876210173E+01  0.14108302788E+04  0.14213202217E+04  0.17200000000E+03 0. -1.
</event>
<event>
 4    1  0.4363334E-001  0.2297137E+03  0.7818608E-02  0.1126841E+00
         -1   -1    0    0    0  501 -0.00000000000E+00  0.00000000000E+00  0.38219809483E+03  0.38219809483E+03  0.00000000000E+00 0. -1.
          1   -1    0    0  502    0  0.00000000000E+00 -0.00000000000E+00 -0.13822582620E+03  0.13822582620E+03  0.00000000000E+00 0.  1.
          6    1    1    2  502    0  0.12345350207E+03  0.89126871623E+02  0.13084853455E+03  0.26436661176E+03  0.17200000000E+03 0.  1.
         -6    1    1    2    0  501 -0.12345350207E+03 -0.89126871623E+02  0.11312373407E+03  0.25605730927E+03  0.17200000000E+03 0. -1.
</event>
<event>
 4    1  0.4363334E-001  0.2662067E+03  0.7818608E-02  0.1103470E+00
          2   -1    0    0  502    0  0.00000000000E+00  0.00000000000E+00  0.34194029147E+04  0.34194029147E+04  0.00000000000E+00 0.  1.
         -2   -1    0    0    0  501 -0.00000000000E+00 -0.00000000000E+00 -0.21164506809E+02  0.21164506809E+02  0.00000000000E+00 0. -1.
          6    1    1    2  502    0 -0.83722110226E+02  0.18512862545E+03  0.14511250762E+04  0.14753406341E+04  0.17200000000E+03 0. -1.
         -6    1    1    2    0  501  0.83722110226E+02 -0.18512862545E+03  0.19471133317E+04  0.19652267874E+04  0.17200000000E+03 0.  1.
</event>
<event>
 4    1  0.4363334E-001  0.2369210E+03  0.7818608E-02  0.1121861E+00
          2   -1    0    0  502    0  0.00000000000E+00  0.00000000000E+00  0.41049181576E+04  0.41049181576E+04  0.00000000000E+00 0. -1.
         -2   -1    0    0    0  501 -0.00000000000E+00 -0.00000000000E+00 -0.15170323099E+02  0.15170323099E+02  0.00000000000E+00 0.  1.
          6    1    1    2  502    0 -0.72779709059E+02 -0.14577614147E+03  0.13979408578E+04  0.14178752454E+04  0.17200000000E+03 0.  1.
         -6    1    1    2    0  501  0.72779709059E+02  0.14577614147E+03  0.26918069767E+04  0.27022132353E+04  0.17200000000E+03 0. -1.
</event>
<event>
 4    1  0.4363334E-001  0.2234656E+03  0.7818608E-02  0.1131325E+00
         -2   -1    0    0    0  501 -0.00000000000E+00  0.00000000000E+00  0.27981500482E+03  0.27981500482E+03  0.00000000000E+00 0.  1.
          2   -1    0    0  502    0  0.00000000000E+00 -0.00000000000E+00 -0.19082687690E+03  0.19082687690E+03  0.00000000000E+00 0. -1.
          6    1    1    2  502    0 -0.11088998813E+03 -0.89756776868E+02 -0.15402632800E+02  0.22399578022E+03  0.17200000000E+03 0. -1.
         -6    1    1    2    0  501  0.11088998813E+03  0.89756776868E+02  0.10439076071E+03  0.24664610150E+03  0.17200000000E+03 0.  1.
</event>
<event>
 4    1  0.4363334E-001  0.2172486E+03  0.7818608E-02  0.1135951E+00
         -2   -1    0    0    0  501 -0.00000000000E+00  0.00000000000E+00  0.30901896075E+02  0.30901896075E+02  0.00000000000E+00 0. -1.
          2   -1    0    0  502    0  0.00000000000E+00 -0.00000000000E+00 -0.25037117821E+04  0.25037117821E+04  0.00000000000E+00 0.  1.
          6    1    1    2  502    0  0.98075517446E+02 -0.89410057955E+02 -0.20278167430E+04  0.20394209249E+04  0.17200000000E+03 0.  1.
         -6    1    1    2    0  501 -0.98075517446E+02  0.89410057955E+02 -0.44499314297E+03  0.49519275325E+03  0.17200000000E+03 0. -1.
</event>
<event>
 4    1  0.4363334E-001  0.2323290E+03  0.7818608E-02  0.1125011E+00
          2   -1    0    0  502    0  0.00000000000E+00  0.00000000000E+00  0.34431576042E+03  0.34431576042E+03  0.00000000000E+00 0. -1.
         -2   -1    0    0    0  501 -0.00000000000E+00 -0.00000000000E+00 -0.16406651518E+03  0.16406651518E+03  0.00000000000E+00 0.  1.
          6    1    1    2  502    0  0.15540943158E+03  0.15513363535E+02  0.36501924903E+02  0.23517896673E+03  0.17200000000E+03 0.  1.
         -6    1    1    2    0  501 -0.15540943158E+03 -0.15513363535E+02  0.14374732033E+03  0.27320330886E+03  0.17200000000E+03 0.  1.
</event>
<event>
 4    1  0.4363334E-001  0.2427446E+03  0.7818608E-02  0.1117978E+00
          1   -1    0    0  502    0  0.00000000000E+00  0.00000000000E+00  0.15276572791E+03  0.15276572791E+03  0.00000000000E+00 0. -1.
         -1   -1    0    0    0  501 -0.00000000000E+00 -0.00000000000E+00 -0.39147654927E+03  0.39147654927E+03  0.00000000000E+00 0.  1.
          6    1    1    2  502    0 -0.12439405868E+03  0.11775848331E+03 -0.86359923343E+02  0.25764894447E+03  0.17200000000E+03 0.  1.
         -6    1    1    2    0  501  0.12439405868E+03 -0.11775848331E+03 -0.15235089801E+03  0.28659333271E+03  0.17200000000E+03 0.  1.
</event>
<event>
 4    1  0.4363334E-001  0.3764523E+03  0.7818608E-02  0.1052253E+00
         -2   -1    0    0    0  501 -0.00000000000E+00  0.00000000000E+00  0.25076937726E+03  0.25076937726E+03  0.00000000000E+00 0. -1.
          2   -1    0    0  502    0  0.00000000000E+00 -0.00000000000E+00 -0.64571447758E+03  0.64571447758E+03  0.00000000000E+00 0.  1.
          6    1    1    2  502    0 -0.17431302372E+03 -0.28591490822E+03 -0.35582614971E+03  0.51800445345E+03  0.17200000000E+03 0.  1.
         -6    1    1    2    0  501  0.17431302372E+03  0.28591490822E+03 -0.39118950607E+02  0.37847940139E+03  0.17200000000E+03 0. -1.
</event>
<event>
 4    1  0.4363334E-001  0.2878452E+03  0.7818608E-02  0.1091480E+00
          2   -1    0    0  502    0  0.00000000000E+00  0.00000000000E+00  0.10113345667E+04  0.10113345667E+04  0.00000000000E+00 0. -1.
         -2   -1    0    0    0  501 -0.00000000000E+00 -0.00000000000E+00 -0.98885349611E+02  0.98885349611E+02  0.00000000000E+00 0.  1.
          6    1    1    2  502    0  0.22973586504E+03  0.22187762776E+02  0.22633770263E+03  0.36617430295E+03  0.17200000000E+03 0.  1.
         -6    1    1    2    0  501 -0.22973586504E+03 -0.22187762776E+02  0.68611151449E+03  0.74404561340E+03  0.17200000000E+03 0. -1.
</event>
<event>
 4    1  0.4363334E-001  0.1790711E+03  0.7818608E-02  0.1168705E+00
         -1   -1    0    0    0  501 -0.00000000000E+00  0.00000000000E+00  0.16786788368E+02  0.16786788368E+02  0.00000000000E+00 0.  1.
          1   -1    0    0  502    0  0.00000000000E+00 -0.00000000000E+00 -0.19625625654E+04  0.19625625654E+04  0.00000000000E+00 0. -1.
          6    1    1    2  502    0  0.24138109043E+02 -0.43586770754E+02 -0.11345131310E+04  0.11485584440E+04  0.17200000000E+03 0. -1.
         -6    1    1    2    0  501 -0.24138109043E+02  0.43586770754E+02 -0.81126264605E+03  0.83079090978E+03  0.17200000000E+03 0.  1.
</event>
<event>
 4    1  0.4363334E-001  0.2231731E+03  0.7818608E-02  0.1131539E+00
         -1   -1    0    0    0  501 -0.00000000000E+00  0.00000000000E+00  0.12641729717E+03  0.12641729717E+03  0.00000000000E+00 0.  1.
          1   -1    0    0  502    0  0.00000000000E+00 -0.00000000000E+00 -0.53976428469E+03  0.53976428469E+03  0.00000000000E+00 0. -1.
          6    1    1    2  502    0  0.64066394755E+02  0.12695565221E+03 -0.33567645841E+02  0.22568346730E+03  0.17200000000E+03 0.  1.
         -6    1    1    2    0  501 -0.64066394755E+02 -0.12695565221E+03 -0.37977934168E+03  0.44049811456E+03  0.17200000000E+03 0. -1.
</event>
<event>
 4    1  0.4363334E-001  0.2357563E+03  0.7818608E-02  0.1122653E+00
         -2   -1    0    0    0  501 -0.00000000000E+00  0.00000000000E+00  0.26245918329E+02  0.26245918329E+02  0.00000000000E+00 0. -1.
          2   -1    0    0  502    0  0.00000000000E+00 -0.00000000000E+00 -0.22791855520E+04  0.22791855520E+04  0.00000000000E+00 0.  1.
          6    1    1    2  502    0  0.14866402349E+03  0.62418313237E+02 -0.81964087427E+03  0.85287290992E+03  0.17200000000E+03 0.  1.
         -6    1    1    2    0  501 -0.14866402349E+03 -0.62418313237E+02 -0.14332987594E+04  0.14525585604E+04  0.17200000000E+03 0.  1.
</event>
<event>
 4    1  0.4363334E-001  0.2050846E+03  0.7818608E-02  0.1145519E+00
          2   -1    0    0  502    0  0.00000000000E+00  0.00000000000E+00  0.84240907983E+03  0.84240907983E+03  0.00000000000E+00 0.  1.
         -2   -1    0    0    0  501 -0.00000000000E+00 -0.00000000000E+00 -0.63658818246E+02  0.63658818246E+02  0.00000000000E+00 0. -1.
          6    1    1    2  502    0  0.23193658216E+02  0.10926006481E+03  0.17897237833E+03  0.27219628900E+03  0.17200000000E+03 0. -1.
         -6    1    1    2    0  501 -0.23193658216E+02 -0.10926006481E+03  0.59977788326E+03  0.63387160907E+03  0.17200000000E+03 0.  1.
</event>
<event>
 4    1  0.4363334E-001  0.1886391E+03  0.7818608E-02  0.1159695E+00
         -2   -1    0    0    0  501 -0.00000000000E+00  0.00000000000E+00  0.12451462963E+03  0.12451462963E+03  0.00000000000E+00 0. -1.
          2   -1    0    0  502    0  0.00000000000E+00 -0.00000000000E+00 -0.28781674507E+03  0.28781674507E+03  0.00000000000E+00 0.  1.
          6    1    1    2  502    0 -0.62676340486E+02 -0.45523594005E+02 -0.98962313349E+02  0.21302173770E+03  0.17200000000E+03 0. -1.
         -6    1    1    2    0  501  0.62676340486E+02  0.45523594005E+02 -0.64339802090E+02  0.19930963700E+03  0.17200000000E+03 0.  1.
</event>
<event>
 4    1  0.4363334E-001  0.5772349E+03  0.7818608E-02  0.9953795E-01
          2   -1    0    0  502    0  0.00000000000E+00  0.00000000000E+00  0.10128016970E+04  0.10128016970E+04  0.00000000000E+00 0. -1.
         -2   -1    0    0    0  501 -0.00000000000E+00 -0.00000000000E+00 -0.37257819141E+03  0.37257819141E+03  0.00000000000E+00 0.  1.
          6    1    1    2  502    0  0.54706913200E+03  0.65814261881E+02  0.83180766260E+02  0.58319738693E+03  0.17200000000E+03 0. -1.
         -6    1    1    2    0  501 -0.54706913200E+03 -0.65814261881E+02  0.55704273938E+03  0.80218250152E+03  0.17200000000E+03 0. -1.
</event>
<event>
 4    1  0.4363334E-001  0.1784442E+03  0.7818608E-02  0.1169317E+00
         -1   -1    0    0    0  501 -0.00000000000E+00  0.00000000000E+00  0.24636491848E+02  0.24636491848E+02  0.00000000000E+00 0. -1.
          1   -1    0    0  502    0  0.00000000000E+00 -0.00000000000E+00 -0.13273150612E+04  0.13273150612E+04  0.00000000000E+00 0.  1.
          6    1    1    2  502    0 -0.35988004472E+02  0.31035184837E+02 -0.76083961292E+03  0.78148527546E+03  0.17200000000E+03 0.  1.
         -6    1    1    2    0  501  0.35988004472E+02 -0.31035184837E+02 -0.54183895642E+03  0.57046627758E+03  0.17200000000E+03 0.  1.
</event>
<event>
 4    1  0.4363334E-001  0.2071941E+03  0.7818608E-02  0.1143807E+00
         -1   -1    0    0    0  501 -0.00000000000E+00  0.00000000000E+00  0.16336261852E+03  0.16336261852E+03  0.00000000000E+00 0. -1.
          1   -1    0    0  502    0  0.00000000000E+00 -0.00000000000E+00 -0.26473874154E+03  0.26473874154E+03  0.00000000000E+00 0.  1.
          6    1    1    2  502    0 -0.19370315986E+02 -0.11388677939E+03 -0.32304434299E+02  0.20969736321E+03  0.17200000000E+03 0.  1.
         -6    1    1    2    0  501  0.19370315986E+02  0.11388677939E+03 -0.69071688715E+02  0.21840399686E+03  0.17200000000E+03 0.  1.
</event>
<event>
 4    1  0.4363334E-001  0.2063716E+03  0.7818608E-02  0.1144472E+00
         -2   -1    0    0    0  501 -0.00000000000E+00  0.00000000000E+00  0.72231020617E+02  0.72231020617E+02  0.00000000000E+00 0.  1.
          2   -1    0    0  502    0  0.00000000000E+00 -0.00000000000E+00 -0.66017958530E+03  0.66017958530E+03  0.00000000000E+00 0. -1.
          6    1    1    2  502    0 -0.43153429480E+02  0.10556057834E+03 -0.41369093324E+03  0.46230881716E+03  0.17200000000E+03 0. -1.
         -6    1    1    2    0  501  0.43153429480E+02 -0.10556057834E+03 -0.17425763144E+03  0.27010178876E+03  0.17200000000E+03 0. -1.
</event>
<event>
 4    1  0.4363334E-001  0.2178636E+03  0.7818608E-02  0.1135486E+00
          1   -1    0    0  502    0  0.00000000000E+00  0.00000000000E+00  0.15085669856E+03  0.15085669856E+03  0.00000000000E+00 0.  1.
         -1   -1    0    0    0  501 -0.00000000000E+00 -0.00000000000E+00 -0.31724789255E+03  0.31724789255E+03  0.00000000000E+00 0. -1.
          6    1    1    2  502    0  0.85816038330E+02 -0.10254826537E+03 -0.10444352049E+03  0.24160502507E+03  0.17200000000E+03 0.  1.
         -6    1    1    2    0  501 -0.85816038330E+02  0.10254826537E+03 -0.61947673493E+02  0.22649956604E+03  0.17200000000E+03 0. -1.
</event>
<event>
 4    1  0.4363334E-001  0.2138052E+03  0.7818608E-02  0.1138588E+00
          1   -1    0    0  502    0  0.00000000000E+00  0.00000000000E+00  0.35022024663E+04  0.35022024663E+04  0.00000000000E+00 0. -1.
         -1   -1    0    0    0  501 -0.00000000000E+00 -0.00000000000E+00 -0.14766268823E+02  0.14766268823E+02  0.00000000000E+00 0.  1.
          6    1    1    2  502    0 -0.35604902570E+02  0.12190548620E+03  0.23427824745E+04  0.23525183059E+04  0.17200000000E+03 0.  1.
         -6    1    1    2    0  501  0.35604902570E+02 -0.12190548620E+03  0.11446537230E+04  0.11644504292E+04  0.17200000000E+03 0. -1.
</event>
<event>
 4    1  0.4363334E-001  0.2142692E+03  0.7818608E-02  0.1138229E+00
          2   -1    0    0  502    0  0.00000000000E+00  0.00000000000E+00  0.14604251900E+04  0.14604251900E+04  0.00000000000E+00 0.  1.
         -2   -1    0    0    0  501 -0.00000000000E+00 -0.00000000000E+00 -0.34894855089E+02  0.34894855089E+02  0.00000000000E+00 0. -1.
          6    1    1    2  502    0 -0.68681728621E+02  0.10775015726E+03  0.94812459788E+03  0.97203473670E+03  0.17200000000E+03 0. -1.
         -6    1    1    2    0  501  0.68681728621E+02 -0.10775015726E+03  0.47740573707E+03  0.52328530843E+03  0.17200000000E+03 0.  1.
</event>
<event>
 4    1  0.4363334E-001  0.2274801E+03  0.7818608E-02  0.1128426E+00
          1   -1    0    0  502    0  0.00000000000E+00  0.00000000000E+00  0.64933690169E+02  0.64933690169E+02  0.00000000000E+00 0.  1.
         -1   -1    0    0    0  501 -0.00000000000E+00 -0.00000000000E+00 -0.10545901162E+04  0.10545901162E+04  0.00000000000E+00 0. -1.
          6    1    1    2  502    0  0.14737550610E+03  0.21063514524E+02 -0.77151613732E+03  0.80435338104E+03  0.17200000000E+03 0. -1.
         -6    1    1    2    0  501 -0.14737550610E+03 -0.21063514524E+02 -0.21814028870E+03  0.31517042532E+03  0.17200000000E+03 0.  1.
</event>
<event>
 4    1  0.4363334E-001  0.1812424E+03  0.7818608E-02  0.1166606E+00
         -2   -1    0    0    0  501 -0.00000000000E+00  0.00000000000E+00  0.10806267128E+02  0.10806267128E+02  0.00000000000E+00 0.  1.
          2   -1    0    0  502    0  0.00000000000E+00 -0.00000000000E+00 -0.33280738196E+04  0.33280738196E+04  0.00000000000E+00 0. -1.
          6    1    1    2  502    0  0.58627350832E+01 -0.56836970599E+02 -0.11672934792E+04  0.11812801867E+04  0.17200000000E+03 0.  1.
         -6    1    1    2    0  501 -0.58627350832E+01  0.56836970599E+02 -0.21499740733E+04  0.21575999000E+04  0.17200000000E+03 0. -1.
</event>
<event>
 4    1  0.4363334E-001  0.1724512E+03  0.7818608E-02  0.1175315E+00
          2   -1    0    0  502    0  0.00000000000E+00  0.00000000000E+00  0.74085016732E+03  0.74085016732E+03  0.00000000000E+00 0. -1.
         -2   -1    0    0    0  501 -0.00000000000E+00 -0.00000000000E+00 -0.50124892304E+02  0.50124892304E+02  0.00000000000E+00 0.  1.
          6    1    1    2  502    0  0.11941048564E+02 -0.35823589437E+01  0.52185583142E+03  0.54961161807E+03  0.17200000000E+03 0. -1.
         -6    1    1    2    0  501 -0.11941048564E+02  0.35823589437E+01  0.16886944360E+03  0.24136344155E+03  0.17200000000E+03 0.  1.
</event>
<event>
 4    1  0.4363334E-001  0.2029431E+03  0.7818608E-02  0.1147279E+00
         -2   -1    0    0    0  501 -0.00000000000E+00  0.00000000000E+00  0.17710205358E+03  0.17710205358E+03  0.00000000000E+00 0.  1.
          2   -1    0    0  502    0  0.00000000000E+00 -0.00000000000E+00 -0.24657937994E+03  0.24657937994E+03  0.00000000000E+00 0. -1.
          6    1    1    2  502    0  0.10424323219E+03 -0.27115162734E+02  0.15783307965E+02  0.20355588009E+03  0.17200000000E+03 0.  1.
         -6    1    1    2    0  501 -0.10424323219E+03  0.27115162734E+02 -0.85260634326E+02  0.22012555343E+03  0.17200000000E+03 0. -1.
</event>
<event>
 4    1  0.4363334E-001  0.2173674E+03  0.7818608E-02  0.1135861E+00
          2   -1    0    0  502    0  0.00000000000E+00  0.00000000000E+00  0.10798581921E+03  0.10798581921E+03  0.00000000000E+00 0. -1.
         -2   -1    0    0    0  501 -0.00000000000E+00 -0.00000000000E+00 -0.48373308988E+03  0.48373308988E+03  0.00000000000E+00 0.  1.
          6    1    1    2  502    0 -0.69230130509E+02 -0.11345377216E+03 -0.96451514047E+02  0.23780551707E+03  0.17200000000E+03 0. -1.
         -6    1    1    2    0  501  0.69230130509E+02  0.11345377216E+03 -0.27929575661E+03  0.35391339202E+03  0.17200000000E+03 0.  1.
</event>
<event>
 4    1  0.4363334E-001  0.2255859E+03  0.7818608E-02  0.1129786E+00
          1   -1    0    0  502    0  0.00000000000E+00  0.00000000000E+00  0.10212102611E+04  0.10212102611E+04  0.00000000000E+00 0. -1.
         -1   -1    0    0    0  501 -0.00000000000E+00 -0.00000000000E+00 -0.52606995458E+02  0.52606995458E+02  0.00000000000E+00 0.  1.
          6    1    1    2  502    0  0.12899550036E+03 -0.68302099961E+02  0.60761344961E+03  0.64813819524E+03  0.17200000000E+03 0.  1.
         -6    1    1    2    0  501 -0.12899550036E+03  0.68302099961E+02  0.36098981604E+03  0.42567906133E+03  0.17200000000E+03 0. -1.
</event>
<event>
 4    1  0.4363334E-001  0.2077692E+03  0.7818608E-02  0.1143345E+00
          3   -1    0    0  502    0  0.00000000000E+00  0.00000000000E+00  0.35454895391E+02  0.35454895391E+02  0.00000000000E+00 0.  1.
         -3   -1    0    0    0  501 -0.00000000000E+00 -0.00000000000E+00 -0.12822990479E+04  0.12822990479E+04  0.00000000000E+00 0. -1.
          6    1    1    2  502    0  0.74916733262E+02  0.89283384142E+02 -0.77148039746E+03  0.79896811155E+03  0.17200000000E+03 0. -1.
         -6    1    1    2    0  501 -0.74916733262E+02 -0.89283384142E+02 -0.47536375510E+03  0.51878583179E+03  0.17200000000E+03 0. -1.
</event>
<event>
 4    1  0.4363334E-001  0.1792017E+03  0.7818608E-02  0.1168578E+00
         -1   -1    0    0    0  501 -0.00000000000E+00  0.00000000000E+00  0.31411132964E+03  0.31411132964E+03  0.00000000000E+00 0.  1.
          1   -1    0    0  502    0  0.00000000000E+00 -0.00000000000E+00 -0.11710747491E+03  0.11710747491E+03  0.00000000000E+00 0. -1.
          6    1    1    2  502    0  0.37769204900E+02 -0.33207718893E+02  0.17533755739E+03  0.25071203494E+03  0.17200000000E+03 0.  1.
         -6    1    1    2    0  501 -0.37769204900E+02  0.33207718893E+02  0.21666297335E+02  0.18050676960E+03  0.17200000000E+03 0.  1.
</event>
<event>
 4    1  0.4363334E-001  0.2013257E+03  0.7818608E-02  0.1148625E+00
          2   -1    0    0  502    0  0.00000000000E+00  0.00000000000E+00  0.10254841898E+04  0.10254841898E+04  0.00000000000E+00 0. -1.
         -2   -1    0    0    0  501 -0.00000000000E+00 -0.00000000000E+00 -0.59107653126E+02  0.59107653126E+02  0.00000000000E+00 0.  1.
          6    1    1    2  502    0 -0.85200429717E+02 -0.60736506261E+02  0.17104592132E+03  0.26417559240E+03  0.17200000000E+03 0.  1.
         -6    1    1    2    0  501  0.85200429717E+02  0.60736506261E+02  0.79533061537E+03  0.82041625055E+03  0.17200000000E+03 0. -1.
</event>
<event>
 4    1  0.4363334E-001  0.2374083E+03  0.7818608E-02  0.1121531E+00
         -2   -1    0    0    0  501 -0.00000000000E+00  0.00000000000E+00  0.10911824620E+03  0.10911824620E+03  0.00000000000E+00 0.  1.
          2   -1    0    0  502    0  0.00000000000E+00 -0.00000000000E+00 -0.79747255517E+03  0.79747255517E+03  0.00000000000E+00 0. -1.
          6    1    1    2  502    0 -0.42309891676E+02  0.15807769915E+03 -0.75126935571E+02  0.24901153056E+03  0.17200000000E+03 0.  1.
         -6    1    1    2    0  501  0.42309891676E+02 -0.15807769915E+03 -0.61322737340E+03  0.65757927080E+03  0.17200000000E+03 0. -1.
</event>
<event>
 4    1  0.4363334E-001  0.2689892E+03  0.7818608E-02  0.1101860E+00
         -2   -1    0    0    0  501 -0.00000000000E+00  0.00000000000E+00  0.88002858011E+02  0.88002858011E+02  0.00000000000E+00 0.  1.
          2   -1    0    0  502    0  0.00000000000E+00 -0.00000000000E+00 -0.85087045116E+03  0.85087045116E+03  0.00000000000E+00 0. -1.
          6    1    1    2  502    0  0.20563696710E+03  0.22014194793E+02 -0.46761810160E+03  0.53946443437E+03  0.17200000000E+03 0. -1.
         -6    1    1    2    0  501 -0.20563696710E+03 -0.22014194793E+02 -0.29524949155E+03  0.39940887480E+03  0.17200000000E+03 0. -1.
</event>
<event>
 4    1  0.4363334E-001  0.1735595E+03  0.7818608E-02  0.1174186E+00
         -2   -1    0    0    0  501 -0.00000000000E+00  0.00000000000E+00  0.50753926374E+03  0.50753926374E+03  0.00000000000E+00 0.  1.
          2   -1    0    0  502    0  0.00000000000E+00 -0.00000000000E+00 -0.61815633399E+02  0.61815633399E+02  0.00000000000E+00 0. -1.
          6    1    1    2  502    0  0.23055569617E+02  0.27122367877E+01  0.27970629315E+03  0.32917856240E+03  0.17200000000E+03 0.  1.
         -6    1    1    2    0  501 -0.23055569617E+02 -0.27122367877E+01  0.16601733719E+03  0.24017633473E+03  0.17200000000E+03 0. -1.
</event>
<event>
 4    1  0.4363334E-001  0.1734364E+03  0.7818608E-02  0.1174311E+00
         -2   -1    0    0    0  501 -0.00000000000E+00  0.00000000000E+00  0.84400470169E+02  0.84400470169E+02  0.00000000000E+00 0.  1.
          2   -1    0    0  502    0  0.00000000000E+00 -0.00000000000E+00 -0.35902023315E+03  0.35902023315E+03  0.00000000000E+00 0. -1.
          6    1    1    2  502    0 -0.77245067042E+01 -0.20893164826E+02 -0.11836337176E+03  0.20997637990E+03  0.17200000000E+03 0.  1.
         -6    1    1    2    0  501  0.77245067042E+01  0.20893164826E+02 -0.15625639122E+03  0.23344432342E+03  0.17200000000E+03 0. -1.
</event>
<event>
 4    1  0.4363334E-001  0.1728108E+03  0.7818608E-02  0.1174948E+00
          2   -1    0    0  502    0  0.00000000000E+00  0.00000000000E+00  0.12153983588E+03  0.12153983588E+03  0.00000000000E+00 0. -1.
         -2   -1    0    0    0  501 -0.00000000000E+00 -0.00000000000E+00 -0.24601855418E+03  0.24601855418E+03  0.00000000000E+00 0.  1.
          6    1    1    2  502    0  0.11128404478E+02  0.12478865914E+02 -0.68746914519E+02  0.18598306841E+03  0.17200000000E+03 0. -1.
         -6    1    1    2    0  501 -0.11128404478E+02 -0.12478865914E+02 -0.55731803781E+02  0.18157532165E+03  0.17200000000E+03 0. -1.
</event>
<event>
 4    1  0.4363334E-001  0.2048148E+03  0.7818608E-02  0.1145739E+00
         -2   -1    0    0    0  501 -0.00000000000E+00  0.00000000000E+00  0.36304684784E+03  0.36304684784E+03  0.00000000000E+00 0. -1.
          2   -1    0    0  502    0  0.00000000000E+00 -0.00000000000E+00 -0.17554379813E+03  0.17554379813E+03  0.00000000000E+00 0.  1.
          6    1    1    2  502    0  0.10917631549E+03  0.21109983060E+02  0.25118564271E+03  0.32410388204E+03  0.17200000000E+03 0. -1.
         -6    1    1    2    0  501 -0.10917631549E+03 -0.21109983060E+02 -0.63682593000E+02  0.21448676393E+03  0.17200000000E+03 0.  1.
</event>
<event>
 4    1  0.4363334E-001  0.2798784E+03  0.7818608E-02  0.1095755E+00
          2   -1    0    0  502    0  0.00000000000E+00  0.00000000000E+00  0.60442840320E+03  0.60442840320E+03  0.00000000000E+00 0. -1.
         -2   -1    0    0    0  501 -0.00000000000E+00 -0.00000000000E+00 -0.18610215394E+03  0.18610215394E+03  0.00000000000E+00 0.  1.
          6    1    1    2  502    0  0.19906211639E+03 -0.95510065127E+02 -0.86371016493E+01  0.28001160378E+03  0.17200000000E+03 0.  1.
         -6    1    1    2    0  501 -0.19906211639E+03  0.95510065127E+02  0.42696335091E+03  0.51051895336E+03  0.17200000000E+03 0. -1.
</event>
<event>
 4    1  0.4363334E-001  0.1838353E+03  0.7818608E-02  0.1164142E+00
         -3   -1    0    0    0  501 -0.00000000000E+00  0.00000000000E+00  0.22352001100E+03  0.22352001100E+03  0.00000000000E+00 0.  1.
          3   -1    0    0  502    0  0.00000000000E+00 -0.00000000000E+00 -0.17060869066E+03  0.17060869066E+03  0.00000000000E+00 0. -1.
          6    1    1    2  502    0 -0.14292334025E+02  0.63302029735E+02  0.92928777403E+02  0.20598828959E+03  0.17200000000E+03 0.  1.
         -6    1    1    2    0  501  0.14292334025E+02 -0.63302029735E+02 -0.40017457070E+02  0.18814041206E+03  0.17200000000E+03 0. -1.
</event>
<event>
 4    1  0.4363334E-001  0.1738203E+03  0.7818608E-02  0.1173921E+00
         -3   -1    0    0    0  501 -0.00000000000E+00  0.00000000000E+00  0.48934792588E+03  0.48934792588E+03  0.00000000000E+00 0. -1.
          3   -1    0    0  502    0  0.00000000000E+00 -0.00000000000E+00 -0.61974783417E+02  0.61974783417E+02  0.00000000000E+00 0.  1.
          6    1    1    2  502    0 -0.24221348599E+02 -0.65442810228E+01  0.23056755477E+03  0.28874711887E+03  0.17200000000E+03 0.  1.
         -6    1    1    2    0  501  0.24221348599E+02  0.65442810228E+01  0.19680558769E+03  0.26257559043E+03  0.17200000000E+03 0.  1.
</event>
<event>
 4    1  0.4363334E-001  0.2702505E+03  0.7818608E-02  0.1101136E+00
         -1   -1    0    0    0  501 -0.00000000000E+00  0.00000000000E+00  0.26420315164E+03  0.26420315164E+03  0.00000000000E+00 0.  1.
          1   -1    0    0  502    0  0.00000000000E+00 -0.00000000000E+00 -0.29579576104E+03  0.29579576104E+03  0.00000000000E+00 0. -1.
          6    1    1    2  502    0  0.49600506789E+02  0.20246259449E+03  0.55836026974E+02  0.27595828371E+03  0.17200000000E+03 0. -1.
         -6    1    1    2    0  501 -0.49600506789E+02 -0.20246259449E+03 -0.87428636373E+02  0.28404062896E+03  0.17200000000E+03 0.  1.
</event>
<event>
 4    1  0.4363334E-001  0.5662841E+03  0.7818608E-02  0.9977935E-01
          2   -1    0    0  502    0  0.00000000000E+00  0.00000000000E+00  0.29352092476E+04  0.29352092476E+04  0.00000000000E+00 0.  1.
         -2   -1    0    0    0  501 -0.00000000000E+00 -0.00000000000E+00 -0.12074860327E+03  0.12074860327E+03  0.00000000000E+00 0. -1.
          6    1    1    2  502    0 -0.53605802338E+03 -0.61118185348E+02  0.18787068463E+04  0.19621969960E+04  0.17200000000E+03 0.  1.
         -6    1    1    2    0  501  0.53605802338E+03  0.61118185348E+02  0.93575379809E+03  0.10937608549E+04  0.17200000000E+03 0. -1.
</event>
<event>
 4    1  0.4363334E-001  0.3092242E+03  0.7818608E-02  0.1080718E+00
          2   -1    0    0  502    0  0.00000000000E+00  0.00000000000E+00  0.58733300632E+03  0.58733300632E+03  0.00000000000E+00 0.  1.
         -2   -1    0    0    0  501 -0.00000000000E+00 -0.00000000000E+00 -0.17104684293E+03  0.17104684293E+03  0.00000000000E+00 0. -1.
          6    1    1    2  502    0 -0.22829084498E+03  0.11797844421E+03  0.12489735100E+03  0.33349508465E+03  0.17200000000E+03 0.  1.
         -6    1    1    2    0  501  0.22829084498E+03 -0.11797844421E+03  0.29138881239E+03  0.42488476460E+03  0.17200000000E+03 0. -1.
</event>
<event>
 4    1  0.4363334E-001  0.2088453E+03  0.7818608E-02  0.1142484E+00
          1   -1    0    0  502    0  0.00000000000E+00  0.00000000000E+00  0.14332341585E+04  0.14332341585E+04  0.00000000000E+00 0. -1.
         -1   -1    0    0    0  501 -0.00000000000E+00 -0.00000000000E+00 -0.10477299613E+03  0.10477299613E+03  0.00000000000E+00 0.  1.
          6    1    1    2  502    0 -0.16607174473E+02  0.11728828408E+03  0.16465482587E+02  0.20949332195E+03  0.17200000000E+03 0.  1.
         -6    1    1    2    0  501  0.16607174473E+02 -0.11728828408E+03  0.13119956798E+04  0.13285138327E+04  0.17200000000E+03 0. -1.
</event>
<event>
 4    1  0.4363334E-001  0.2221894E+03  0.7818608E-02  0.1132261E+00
          1   -1    0    0  502    0  0.00000000000E+00  0.00000000000E+00  0.44121886797E+03  0.44121886797E+03  0.00000000000E+00 0.  1.
         -1   -1    0    0    0  501 -0.00000000000E+00 -0.00000000000E+00 -0.11563629288E+03  0.11563629288E+03  0.00000000000E+00 0. -1.
          6    1    1    2  502    0 -0.32789345753E+02  0.13678086659E+03  0.21290355201E+03  0.30772726418E+03  0.17200000000E+03 0.  1.
         -6    1    1    2    0  501  0.32789345753E+02 -0.13678086659E+03  0.11267902308E+03  0.24912789668E+03  0.17200000000E+03 0.  1.
</event>
<event>
 4    1  0.4363334E-001  0.2157707E+03  0.7818608E-02  0.1137076E+00
          2   -1    0    0  502    0  0.00000000000E+00  0.00000000000E+00  0.27036931624E+04  0.27036931624E+04  0.00000000000E+00 0.  1.
         -2   -1    0    0    0  501 -0.00000000000E+00 -0.00000000000E+00 -0.42805107140E+02  0.42805107140E+02  0.00000000000E+00 0. -1.
          6    1    1    2  502    0 -0.41962927262E+01 -0.13021277989E+03  0.23921325051E+04  0.24018440622E+04  0.17200000000E+03 0.  1.
         -6    1    1    2    0  501  0.41962927262E+01  0.13021277989E+03  0.26875555007E+03  0.34465420730E+03  0.17200000000E+03 0. -1.
</event>
<event>
 4    1  0.4363334E-001  0.2897103E+03  0.7818608E-02  0.1090501E+00
         -2   -1    0    0    0  501 -0.00000000000E+00  0.00000000000E+00  0.38201240977E+03  0.38201240977E+03  0.00000000000E+00 0.  1.
          2   -1    0    0  502    0  0.00000000000E+00 -0.00000000000E+00 -0.22406722379E+03  0.22406722379E+03  0.00000000000E+00 0. -1.
          6    1    1    2  502    0  0.12465946535E+03 -0.19699759102E+03  0.36715057883E+02  0.29202744502E+03  0.17200000000E+03 0. -1.
         -6    1    1    2    0  501 -0.12465946535E+03  0.19699759102E+03  0.12123012810E+03  0.31405218854E+03  0.17200000000E+03 0.  1.
</event>
<event>
 4    1  0.4363334E-001  0.2130469E+03  0.7818608E-02  0.1139176E+00
         -1   -1    0    0    0  501 -0.00000000000E+00  0.00000000000E+00  0.79827208300E+03  0.79827208300E+03  0.00000000000E+00 0. -1.
          1   -1    0    0  502    0  0.00000000000E+00 -0.00000000000E+00 -0.17928846794E+03  0.17928846794E+03  0.00000000000E+00 0.  1.
          6    1    1    2  502    0  0.42014185784E+02  0.11848962120E+03  0.71339790429E+03  0.74453042381E+03  0.17200000000E+03 0. -1.
         -6    1    1    2    0  501 -0.42014185784E+02 -0.11848962120E+03 -0.94414289225E+02  0.23303012713E+03  0.17200000000E+03 0.  1.
</event>
<event>
 4    1  0.4363334E-001  0.2248388E+03  0.7818608E-02  0.1130326E+00
          2   -1    0    0  502    0  0.00000000000E+00  0.00000000000E+00  0.35737433085E+03  0.35737433085E+03  0.00000000000E+00 0. -1.
         -2   -1    0    0    0  501 -0.00000000000E+00 -0.00000000000E+00 -0.14347999681E+03  0.14347999681E+03  0.00000000000E+00 0.  1.
          6    1    1    2  502    0 -0.14196805194E+03  0.28523244383E+02  0.13669550699E+03  0.26313145930E+03  0.17200000000E+03 0.  1.
         -6    1    1    2    0  501  0.14196805194E+03 -0.28523244383E+02  0.77198827046E+02  0.23772286835E+03  0.17200000000E+03 0. -1.
</event>
<event>
 4    1  0.4363334E-001  0.1749124E+03  0.7818608E-02  0.1172820E+00
         -2   -1    0    0    0  501 -0.00000000000E+00  0.00000000000E+00  0.46347315142E+02  0.46347315142E+02  0.00000000000E+00 0. -1.
          2   -1    0    0  502    0  0.00000000000E+00 -0.00000000000E+00 -0.66483660724E+03  0.66483660724E+03  0.00000000000E+00 0.  1.
          6    1    1    2  502    0 -0.26316139326E+02  0.17826758354E+02 -0.33922681043E+03  0.38166629589E+03  0.17200000000E+03 0.  1.
         -6    1    1    2    0  501  0.26316139326E+02 -0.17826758354E+02 -0.27926248166E+03  0.32951762649E+03  0.17200000000E+03 0.  1.
</event>
<event>
 4    1  0.4363334E-001  0.2119496E+03  0.7818608E-02  0.1140031E+00
          2   -1    0    0  502    0  0.00000000000E+00  0.00000000000E+00  0.52747339556E+02  0.52747339556E+02  0.00000000000E+00 0. -1.
         -2   -1    0    0    0  501 -0.00000000000E+00 -0.00000000000E+00 -0.90836388050E+03  0.90836388050E+03  0.00000000000E+00 0.  1.
          6    1    1    2  502    0  0.11989186789E+03  0.31057893264E+02 -0.54787723027E+03  0.58744541207E+03  0.17200000000E+03 0.  1.
         -6    1    1    2    0  501 -0.11989186789E+03 -0.31057893264E+02 -0.30773931067E+03  0.37366580798E+03  0.17200000000E+03 0. -1.
</event>
<event>
 4    1  0.4363334E-001  0.1755803E+03  0.7818608E-02  0.1172150E+00
         -1   -1    0    0    0  501 -0.00000000000E+00  0.00000000000E+00  0.25709159859E+02  0.25709159859E+02  0.00000000000E+00 0. -1.
          1   -1    0    0  502    0  0.00000000000E+00 -0.00000000000E+00 -0.12776642410E+04  0.12776642410E+04  0.00000000000E+00 0.  1.
          6    1    1    2  502    0 -0.28191495996E+02 -0.21205791199E+02 -0.46440065001E+03  0.49648404783E+03  0.17200000000E+03 0. -1.
         -6    1    1    2    0  501  0.28191495996E+02  0.21205791199E+02 -0.78755443118E+03  0.80688935307E+03  0.17200000000E+03 0.  1.
</event>
<event>
 4    1  0.4363334E-001  0.1802399E+03  0.7818608E-02  0.1167571E+00
         -2   -1    0    0    0  501 -0.00000000000E+00  0.00000000000E+00  0.21516511212E+03  0.21516511212E+03  0.00000000000E+00 0.  1.
          2   -1    0    0  502    0  0.00000000000E+00 -0.00000000000E+00 -0.30779703714E+03  0.30779703714E+03  0.00000000000E+00 0. -1.
          6    1    1    2  502    0  0.34086419134E+02  0.41719800741E+02 -0.23295373208E+03  0.29454009410E+03  0.17200000000E+03 0. -1.
         -6    1    1    2    0  501 -0.34086419134E+02 -0.41719800741E+02  0.14032180707E+03  0.22842205516E+03  0.17200000000E+03 0.  1.
</event>
<event>
 4    1  0.4363334E-001  0.1905592E+03  0.7818608E-02  0.1157958E+00
          1   -1    0    0  502    0  0.00000000000E+00  0.00000000000E+00  0.95400190638E+02  0.95400190638E+02  0.00000000000E+00 0. -1.
         -1   -1    0    0    0  501 -0.00000000000E+00 -0.00000000000E+00 -0.65355730388E+03  0.65355730388E+03  0.00000000000E+00 0.  1.
          6    1    1    2  502    0  0.19525224421E+02  0.79671660843E+02 -0.52107197215E+03  0.55482322238E+03  0.17200000000E+03 0.  1.
         -6    1    1    2    0  501 -0.19525224421E+02 -0.79671660843E+02 -0.37085141095E+02  0.19413427214E+03  0.17200000000E+03 0. -1.
</event>
<event>
 4    1  0.4363334E-001  0.1733402E+03  0.7818608E-02  0.1174409E+00
         -1   -1    0    0    0  501 -0.00000000000E+00  0.00000000000E+00  0.18782539847E+03  0.18782539847E+03  0.00000000000E+00 0.  1.
          1   -1    0    0  502    0  0.00000000000E+00 -0.00000000000E+00 -0.17716180935E+03  0.17716180935E+03  0.00000000000E+00 0. -1.
          6    1    1    2  502    0  0.30226776807E+01 -0.21300254181E+02  0.62177272288E+02  0.18415442052E+03  0.17200000000E+03 0.  1.
         -6    1    1    2    0  501 -0.30226776807E+01  0.21300254181E+02 -0.51513683163E+02  0.18083278730E+03  0.17200000000E+03 0. -1.
</event>
<event>
 4    1  0.4363334E-001  0.2060864E+03  0.7818608E-02  0.1144703E+00
          2   -1    0    0  502    0  0.00000000000E+00  0.00000000000E+00  0.11587087855E+04  0.11587087855E+04  0.00000000000E+00 0. -1.
         -2   -1    0    0    0  501 -0.00000000000E+00 -0.00000000000E+00 -0.45793692888E+02  0.45793692888E+02  0.00000000000E+00 0.  1.
          6    1    1    2  502    0 -0.10471909653E+03  0.43835313114E+02  0.28740675607E+03  0.35365840480E+03  0.17200000000E+03 0.  1.
         -6    1    1    2    0  501  0.10471909653E+03 -0.43835313114E+02  0.82550833657E+03  0.85084407361E+03  0.17200000000E+03 0. -1.
</event>
<event>
 4    1  0.4363334E-001  0.2948253E+03  0.7818608E-02  0.1087856E+00
          2   -1    0    0  502    0  0.00000000000E+00  0.00000000000E+00  0.11446354127E+04  0.11446354127E+04  0.00000000000E+00 0.  1.
         -2   -1    0    0    0  501 -0.00000000000E+00 -0.00000000000E+00 -0.94346343745E+02  0.94346343745E+02  0.00000000000E+00 0. -1.
          6    1    1    2  502    0  0.67102944442E+02 -0.22985895504E+03  0.79878060354E+03  0.85145310908E+03  0.17200000000E+03 0. -1.
         -6    1    1    2    0  501 -0.67102944442E+02  0.22985895504E+03  0.25150846544E+03  0.38752864740E+03  0.17200000000E+03 0. -1.
</event>
<event>
 4    1  0.4363334E-001  0.3301253E+03  0.7818608E-02  0.1071081E+00
          2   -1    0    0  502    0  0.00000000000E+00  0.00000000000E+00  0.11562858344E+04  0.11562858344E+04  0.00000000000E+00 0. -1.
         -2   -1    0    0    0  501 -0.00000000000E+00 -0.00000000000E+00 -0.98478056096E+02  0.98478056096E+02  0.00000000000E+00 0.  1.
          6    1    1    2  502    0  0.27565510991E+03 -0.58420922301E+02  0.65886340271E+03  0.73694214645E+03  0.17200000000E+03 0. -1.
         -6    1    1    2    0  501 -0.27565510991E+03  0.58420922301E+02  0.39894437557E+03  0.51782174402E+03  0.17200000000E+03 0.  1.
</event>
<event>
 4    1  0.4363334E-001  0.1800910E+03  0.7818608E-02  0.1167715E+00
         -1   -1    0    0    0  501 -0.00000000000E+00  0.00000000000E+00  0.66144255290E+03  0.66144255290E+03  0.00000000000E+00 0. -1.
          1   -1    0    0  502    0  0.00000000000E+00 -0.00000000000E+00 -0.55980519320E+02  0.55980519320E+02  0.00000000000E+00 0.  1.
          6    1    1    2  502    0  0.27437839313E+02  0.45781277706E+02  0.42909696427E+03  0.46535681489E+03  0.17200000000E+03 0. -1.
         -6    1    1    2    0  501 -0.27437839313E+02 -0.45781277706E+02  0.17636506931E+03  0.25206625734E+03  0.17200000000E+03 0.  1.
</event>
<event>
 4    1  0.4363334E-001  0.2089395E+03  0.7818608E-02  0.1142409E+00
         -2   -1    0    0    0  501 -0.00000000000E+00  0.00000000000E+00  0.43729601541E+02  0.43729601541E+02  0.00000000000E+00 0. -1.
          2   -1    0    0  502    0  0.00000000000E+00 -0.00000000000E+00 -0.11306311839E+04  0.11306311839E+04  0.00000000000E+00 0.  1.
          6    1    1    2  502    0 -0.81369000512E+02  0.86317966021E+02 -0.34257597514E+03  0.40126550343E+03  0.17200000000E+03 0. -1.
         -6    1    1    2    0  501  0.81369000512E+02 -0.86317966021E+02 -0.74432560724E+03  0.77309528203E+03  0.17200000000E+03 0.  1.
</event>
<event>
 4    1  0.4363334E-001  0.3019719E+03  0.7818608E-02  0.1084259E+00
         -1   -1    0    0    0  501 -0.00000000000E+00  0.00000000000E+00  0.59579712311E+02  0.59579712311E+02  0.00000000000E+00 0. -1.
          1   -1    0    0  502    0  0.00000000000E+00 -0.00000000000E+00 -0.15735956510E+04  0.15735956510E+04  0.00000000000E+00 0.  1.
          6    1    1    2  502    0 -0.13804664559E+02 -0.24781536097E+03 -0.62187853726E+03  0.69131753703E+03  0.17200000000E+03 0. -1.
         -6    1    1    2    0  501  0.13804664559E+02  0.24781536097E+03 -0.89213740139E+03  0.94185782625E+03  0.17200000000E+03 0. -1.
</event>
<event>
 4    1  0.4363334E-001  0.2003503E+03  0.7818608E-02  0.1149444E+00
         -2   -1    0    0    0  501 -0.00000000000E+00  0.00000000000E+00  0.15522973784E+03  0.15522973784E+03  0.00000000000E+00 0.  1.
          2   -1    0    0  502    0  0.00000000000E+00 -0.00000000000E+00 -0.11381076990E+04  0.11381076990E+04  0.00000000000E+00 0. -1.
          6    1    1    2  502    0 -0.56206836677E+01 -0.10258978224E+03  0.77038705431E+02  0.21465138630E+03  0.17200000000E+03 0.  1.
         -6    1    1    2    0  501  0.56206836677E+01  0.10258978224E+03 -0.10599166666E+04  0.10786860505E+04  0.17200000000E+03 0. -1.
</event>
<event>
 4    1  0.4363334E-001  0.2241060E+03  0.7818608E-02  0.1130858E+00
          2   -1    0    0  502    0  0.00000000000E+00  0.00000000000E+00  0.71161965293E+03  0.71161965293E+03  0.00000000000E+00 0. -1.
         -2   -1    0    0    0  501 -0.00000000000E+00 -0.00000000000E+00 -0.12936797528E+03  0.12936797528E+03  0.00000000000E+00 0.  1.
          6    1    1    2  502    0 -0.63304764640E+02  0.12896510241E+03  0.57459387376E+03  0.61675084972E+03  0.17200000000E+03 0. -1.
         -6    1    1    2    0  501  0.63304764640E+02 -0.12896510241E+03  0.76578038911E+01  0.22423677849E+03  0.17200000000E+03 0.  1.
</event>
<event>
 4    1  0.4363334E-001  0.2257810E+03  0.7818608E-02  0.1129645E+00
         -3   -1    0    0    0  501 -0.00000000000E+00  0.00000000000E+00  0.10259801932E+03  0.10259801932E+03  0.00000000000E+00 0.  1.
          3   -1    0    0  502    0  0.00000000000E+00 -0.00000000000E+00 -0.62792170909E+03  0.62792170909E+03  0.00000000000E+00 0. -1.
          6    1    1    2  502    0 -0.14539335645E+03 -0.15931841621E+02 -0.95789683455E+02  0.24526050464E+03  0.17200000000E+03 0.  1.
         -6    1    1    2    0  501  0.14539335645E+03  0.15931841621E+02 -0.42953400631E+03  0.48525922377E+03  0.17200000000E+03 0. -1.
</event>
<event>
 4    1  0.4363334E-001  0.2084242E+03  0.7818608E-02  0.1142820E+00
          1   -1    0    0  502    0  0.00000000000E+00  0.00000000000E+00  0.17910535897E+03  0.17910535897E+03  0.00000000000E+00 0.  1.
         -1   -1    0    0    0  501 -0.00000000000E+00 -0.00000000000E+00 -0.25296376840E+03  0.25296376840E+03  0.00000000000E+00 0. -1.
          6    1    1    2  502    0  0.11149496480E+03 -0.37755874481E+02  0.69195901063E+01  0.20853899866E+03  0.17200000000E+03 0.  1.
         -6    1    1    2    0  501 -0.11149496480E+03  0.37755874481E+02 -0.80777999537E+02  0.22353012871E+03  0.17200000000E+03 0. -1.
</event>
<event>
 4    1  0.4363334E-001  0.1757187E+03  0.7818608E-02  0.1172012E+00
          1   -1    0    0  502    0  0.00000000000E+00  0.00000000000E+00  0.61330836550E+03  0.61330836550E+03  0.00000000000E+00 0.  1.
         -1   -1    0    0    0  501 -0.00000000000E+00 -0.00000000000E+00 -0.54157390572E+02  0.54157390572E+02  0.00000000000E+00 0. -1.
          6    1    1    2  502    0 -0.33205627779E+02  0.13800618407E+02  0.19103067038E+03  0.25955690669E+03  0.17200000000E+03 0. -1.
         -6    1    1    2    0  501  0.33205627779E+02 -0.13800618407E+02  0.36812030455E+03  0.40790884938E+03  0.17200000000E+03 0.  1.
</event>
<event>
 4    1  0.4363334E-001  0.2811130E+03  0.7818608E-02  0.1095083E+00
          2   -1    0    0  502    0  0.00000000000E+00  0.00000000000E+00  0.48451331918E+03  0.48451331918E+03  0.00000000000E+00 0.  1.
         -2   -1    0    0    0  501 -0.00000000000E+00 -0.00000000000E+00 -0.16841605187E+03  0.16841605187E+03  0.00000000000E+00 0. -1.
          6    1    1    2  502    0 -0.95611449253E+02 -0.20074601315E+03  0.21604573705E+03  0.35454234095E+03  0.17200000000E+03 0.  1.
         -6    1    1    2    0  501  0.95611449253E+02  0.20074601315E+03  0.10005153026E+03  0.29838703010E+03  0.17200000000E+03 0. -1.
</event>
<event>
 4    1  0.4363334E-001  0.1782299E+03  0.7818608E-02  0.1169527E+00
          2   -1    0    0  502    0  0.00000000000E+00  0.00000000000E+00  0.23695863835E+03  0.23695863835E+03  0.00000000000E+00 0. -1.
         -2   -1    0    0    0  501 -0.00000000000E+00 -0.00000000000E+00 -0.20341896050E+03  0.20341896050E+03  0.00000000000E+00 0.  1.
          6    1    1    2  502    0  0.16199123233E+00 -0.46710497744E+02  0.14534618444E+03  0.22998132570E+03  0.17200000000E+03 0. -1.
         -6    1    1    2    0  501 -0.16199123233E+00  0.46710497744E+02 -0.11180650659E+03  0.21039627315E+03  0.17200000000E+03 0.  1.
</event>
<event>
 4    1  0.4363334E-001  0.3714748E+03  0.7818608E-02  0.1054130E+00
          1   -1    0    0  502    0  0.00000000000E+00  0.00000000000E+00  0.11372728088E+04  0.11372728088E+04  0.00000000000E+00 0.  1.
         -1   -1    0    0    0  501 -0.00000000000E+00 -0.00000000000E+00 -0.12658846295E+03  0.12658846295E+03  0.00000000000E+00 0. -1.
          6    1    1    2  502    0  0.17537697728E+03 -0.27866193171E+03  0.63404915815E+03  0.73485501379E+03  0.17200000000E+03 0. -1.
         -6    1    1    2    0  501 -0.17537697728E+03  0.27866193171E+03  0.37663518765E+03  0.52900625792E+03  0.17200000000E+03 0.  1.
</event>
<event>
 4    1  0.4363334E-001  0.1723588E+03  0.7818608E-02  0.1175410E+00
         -1   -1    0    0    0  501 -0.00000000000E+00  0.00000000000E+00  0.37689686017E+02  0.37689686017E+02  0.00000000000E+00 0.  1.
          1   -1    0    0  502    0  0.00000000000E+00 -0.00000000000E+00 -0.90857617513E+03  0.90857617513E+03  0.00000000000E+00 0. -1.
          6    1    1    2  502    0  0.35319325276E+01 -0.10540079876E+02 -0.26323810924E+03  0.31464562604E+03  0.17200000000E+03 0.  1.
         -6    1    1    2    0  501 -0.35319325276E+01  0.10540079876E+02 -0.60764837988E+03  0.63162023511E+03  0.17200000000E+03 0. -1.
</event>
<event>
 4    1  0.4363334E-001  0.1996646E+03  0.7818608E-02  0.1150022E+00
          1   -1    0    0  502    0  0.00000000000E+00  0.00000000000E+00  0.16392942298E+04  0.16392942298E+04  0.00000000000E+00 0.  1.
         -1   -1    0    0    0  501 -0.00000000000E+00 -0.00000000000E+00 -0.39430937560E+02  0.39430937560E+02  0.00000000000E+00 0. -1.
          6    1    1    2  502    0 -0.88783290407E+02 -0.48984428235E+02  0.13195584715E+04  0.13345787750E+04  0.17200000000E+03 0.  1.
         -6    1    1    2    0  501  0.88783290407E+02  0.48984428235E+02  0.28030482069E+03  0.34414639235E+03  0.17200000000E+03 0. -1.
</event>
<event>
 4    1  0.4363334E-001  0.2173529E+03  0.7818608E-02  0.1135872E+00
          1   -1    0    0  502    0  0.00000000000E+00  0.00000000000E+00  0.14150835663E+04  0.14150835663E+04  0.00000000000E+00 0.  1.
         -1   -1    0    0    0  501 -0.00000000000E+00 -0.00000000000E+00 -0.89796003036E+02  0.89796003036E+02  0.00000000000E+00 0. -1.
          6    1    1    2  502    0 -0.13272581460E+03 -0.64933017891E+01  0.66259943300E+02  0.22722826610E+03  0.17200000000E+03 0. -1.
         -6    1    1    2    0  501  0.13272581460E+03  0.64933017891E+01  0.12590276200E+04  0.12776513032E+04  0.17200000000E+03 0.  1.
</event>
<event>
 4    1  0.4363334E-001  0.1942501E+03  0.7818608E-02  0.1154683E+00
          2   -1    0    0  502    0  0.00000000000E+00  0.00000000000E+00  0.15876371710E+04  0.15876371710E+04  0.00000000000E+00 0. -1.
         -2   -1    0    0    0  501 -0.00000000000E+00 -0.00000000000E+00 -0.45430903626E+02  0.45430903626E+02  0.00000000000E+00 0.  1.
          6    1    1    2  502    0  0.71271616207E+02 -0.55402857751E+02  0.20724667612E+03  0.28404982782E+03  0.17200000000E+03 0.  1.
         -6    1    1    2    0  501 -0.71271616207E+02  0.55402857751E+02  0.13349595913E+04  0.13490182468E+04  0.17200000000E+03 0. -1.
</event>
<event>
 4    1  0.4363334E-001  0.2283769E+03  0.7818608E-02  0.1127787E+00
          2   -1    0    0  502    0  0.00000000000E+00  0.00000000000E+00  0.68737097288E+03  0.68737097288E+03  0.00000000000E+00 0. -1.
         -2   -1    0    0    0  501 -0.00000000000E+00 -0.00000000000E+00 -0.11459184691E+03  0.11459184691E+03  0.00000000000E+00 0.  1.
          6    1    1    2  502    0 -0.10960973705E+02 -0.14983946907E+03  0.51945785693E+03  0.56744380741E+03  0.17200000000E+03 0. -1.
         -6    1    1    2    0  501  0.10960973705E+02  0.14983946907E+03  0.53321269035E+02  0.23451901238E+03  0.17200000000E+03 0.  1.
</event>
<event>
 4    1  0.4363334E-001  0.1921152E+03  0.7818608E-02  0.1156567E+00
         -1   -1    0    0    0  501 -0.00000000000E+00  0.00000000000E+00  0.66510473294E+03  0.66510473294E+03  0.00000000000E+00 0.  1.
          1   -1    0    0  502    0  0.00000000000E+00 -0.00000000000E+00 -0.57203444539E+02  0.57203444539E+02  0.00000000000E+00 0. -1.
          6    1    1    2  502    0 -0.63944618671E+02 -0.56880140340E+02  0.24148937328E+03  0.30858610149E+03  0.17200000000E+03 0. -1.
         -6    1    1    2    0  501  0.63944618671E+02  0.56880140340E+02  0.36641191512E+03  0.41372207599E+03  0.17200000000E+03 0.  1.
</event>
<event>
 4    1  0.4363334E-001  0.2287767E+03  0.7818608E-02  0.1127504E+00
          2   -1    0    0  502    0  0.00000000000E+00  0.00000000000E+00  0.82119296557E+03  0.82119296557E+03  0.00000000000E+00 0.  1.
         -2   -1    0    0    0  501 -0.00000000000E+00 -0.00000000000E+00 -0.69592004783E+02  0.69592004783E+02  0.00000000000E+00 0. -1.
          6    1    1    2  502    0  0.39045035780E+02  0.14570605955E+03  0.50501143426E+03  0.55441439316E+03  0.17200000000E+03 0.  1.
         -6    1    1    2    0  501 -0.39045035780E+02 -0.14570605955E+03  0.24658952652E+03  0.33637057719E+03  0.17200000000E+03 0.  1.
</event>
<event>
 4    1  0.4363334E-001  0.1882832E+03  0.7818608E-02  0.1160019E+00
          1   -1    0    0  502    0  0.00000000000E+00  0.00000000000E+00  0.17868284127E+04  0.17868284127E+04  0.00000000000E+00 0.  1.
         -1   -1    0    0    0  501 -0.00000000000E+00 -0.00000000000E+00 -0.20604584006E+02  0.20604584006E+02  0.00000000000E+00 0. -1.
          6    1    1    2  502    0 -0.28655046214E+02  0.71031397126E+02  0.70901963005E+03  0.73359348883E+03  0.17200000000E+03 0. -1.
         -6    1    1    2    0  501  0.28655046214E+02 -0.71031397126E+02  0.10572041986E+04  0.10738395078E+04  0.17200000000E+03 0.  1.
</event>
<event>
 4    1  0.4363334E-001  0.2233378E+03  0.7818608E-02  0.1131419E+00
          1   -1    0    0  502    0  0.00000000000E+00  0.00000000000E+00  0.16359004342E+03  0.16359004342E+03  0.00000000000E+00 0.  1.
         -1   -1    0    0    0  501 -0.00000000000E+00 -0.00000000000E+00 -0.31036857080E+03  0.31036857080E+03  0.00000000000E+00 0. -1.
          6    1    1    2  502    0 -0.11724398186E+03  0.80929638035E+02 -0.10482534057E+03  0.24671463195E+03  0.17200000000E+03 0.  1.
         -6    1    1    2    0  501  0.11724398186E+03 -0.80929638035E+02 -0.41953186813E+02  0.22724398227E+03  0.17200000000E+03 0. -1.
</event>
<event>
 4    1  0.4363334E-001  0.2036929E+03  0.7818608E-02  0.1146660E+00
         -1   -1    0    0    0  501 -0.00000000000E+00  0.00000000000E+00  0.81935013355E+02  0.81935013355E+02  0.00000000000E+00 0.  1.
          1   -1    0    0  502    0  0.00000000000E+00 -0.00000000000E+00 -0.51765892731E+03  0.51765892731E+03  0.00000000000E+00 0. -1.
          6    1    1    2  502    0  0.88149388902E+01 -0.10876164661E+03 -0.17362240197E+03  0.26764815969E+03  0.17200000000E+03 0.  1.
         -6    1    1    2    0  501 -0.88149388902E+01  0.10876164661E+03 -0.26210151198E+03  0.33194578097E+03  0.17200000000E+03 0. -1.
</event>
<event>
 4    1  0.4363334E-001  0.1941556E+03  0.7818608E-02  0.1154766E+00
          2   -1    0    0  502    0  0.00000000000E+00  0.00000000000E+00  0.11702872727E+04  0.11702872727E+04  0.00000000000E+00 0.  1.
         -2   -1    0    0    0  501 -0.00000000000E+00 -0.00000000000E+00 -0.62697271907E+02  0.62697271907E+02  0.00000000000E+00 0. -1.
          6    1    1    2  502    0  0.62450933087E+02  0.64901982865E+02  0.98368156599E+03  0.10026593687E+04  0.17200000000E+03 0.  1.
         -6    1    1    2    0  501 -0.62450933087E+02 -0.64901982865E+02  0.12390843477E+03  0.23032517585E+03  0.17200000000E+03 0. -1.
</event>
<event>
 4    1  0.4363334E-001  0.2259041E+03  0.7818608E-02  0.1129556E+00
         -1   -1    0    0    0  501 -0.00000000000E+00  0.00000000000E+00  0.12670316241E+03  0.12670316241E+03  0.00000000000E+00 0. -1.
          1   -1    0    0  502    0  0.00000000000E+00 -0.00000000000E+00 -0.64002948397E+03  0.64002948397E+03  0.00000000000E+00 0.  1.
          6    1    1    2  502    0 -0.40400052532E+02  0.14077114493E+03 -0.23251508612E+02  0.22709758286E+03  0.17200000000E+03 0. -1.
         -6    1    1    2    0  501  0.40400052532E+02 -0.14077114493E+03 -0.49007481295E+03  0.53963506352E+03  0.17200000000E+03 0.  1.
</event>
<event>
 4    1  0.4363334E-001  0.1824648E+03  0.7818608E-02  0.1165439E+00
         -4   -1    0    0    0  501 -0.00000000000E+00  0.00000000000E+00  0.41498339046E+02  0.41498339046E+02  0.00000000000E+00 0. -1.
          4   -1    0    0  502    0  0.00000000000E+00 -0.00000000000E+00 -0.82609607879E+03  0.82609607879E+03  0.00000000000E+00 0.  1.
          6    1    1    2  502    0 -0.27119096829E+02  0.54533858679E+02 -0.46595089534E+03  0.50040346124E+03  0.17200000000E+03 0.  1.
         -6    1    1    2    0  501  0.27119096829E+02 -0.54533858679E+02 -0.31864684440E+03  0.36719095659E+03  0.17200000000E+03 0. -1.
</event>
<event>
 4    1  0.4363334E-001  0.1898450E+03  0.7818608E-02  0.1158601E+00
         -2   -1    0    0    0  501 -0.00000000000E+00  0.00000000000E+00  0.90351663836E+02  0.90351663836E+02  0.00000000000E+00 0.  1.
          2   -1    0    0  502    0  0.00000000000E+00 -0.00000000000E+00 -0.52596286043E+03  0.52596286043E+03  0.00000000000E+00 0. -1.
          6    1    1    2  502    0  0.74777542368E+02  0.29418609382E+02 -0.36926871588E+03  0.41521141597E+03  0.17200000000E+03 0. -1.
         -6    1    1    2    0  501 -0.74777542368E+02 -0.29418609382E+02 -0.66342480713E+02  0.20110310830E+03  0.17200000000E+03 0.  1.
</event>
<event>
 4    1  0.4363334E-001  0.1768930E+03  0.7818608E-02  0.1170844E+00
         -1   -1    0    0    0  501 -0.00000000000E+00  0.00000000000E+00  0.13967776635E+03  0.13967776635E+03  0.00000000000E+00 0.  1.
          1   -1    0    0  502    0  0.00000000000E+00 -0.00000000000E+00 -0.23299823384E+03  0.23299823384E+03  0.00000000000E+00 0. -1.
          6    1    1    2  502    0 -0.56987159767E+01  0.40922639416E+02 -0.10089832804E+02  0.17718053648E+03  0.17200000000E+03 0.  1.
         -6    1    1    2    0  501  0.56987159767E+01 -0.40922639416E+02 -0.83230634691E+02  0.19549546371E+03  0.17200000000E+03 0. -1.
</event>
<event>
 4    1  0.4363334E-001  0.1739129E+03  0.7818608E-02  0.1173828E+00
         -1   -1    0    0    0  501 -0.00000000000E+00  0.00000000000E+00  0.29114109600E+02  0.29114109600E+02  0.00000000000E+00 0. -1.
          1   -1    0    0  502    0  0.00000000000E+00 -0.00000000000E+00 -0.10548770728E+04  0.10548770728E+04  0.00000000000E+00 0.  1.
          6    1    1    2  502    0  0.21749397894E+02  0.13735340465E+02 -0.57965244850E+03  0.60517985503E+03  0.17200000000E+03 0.  1.
         -6    1    1    2    0  501 -0.21749397894E+02 -0.13735340465E+02 -0.44611051468E+03  0.47881132735E+03  0.17200000000E+03 0. -1.
</event>
<event>
 4    1  0.4363334E-001  0.1952074E+03  0.7818608E-02  0.1153847E+00
          2   -1    0    0  502    0  0.00000000000E+00  0.00000000000E+00  0.76343337647E+03  0.76343337647E+03  0.00000000000E+00 0. -1.
         -2   -1    0    0    0  501 -0.00000000000E+00 -0.00000000000E+00 -0.50272310463E+02  0.50272310463E+02  0.00000000000E+00 0.  1.
          6    1    1    2  502    0 -0.13564576738E+02  0.91312334921E+02  0.39093323160E+03  0.43696078980E+03  0.17200000000E+03 0. -1.
         -6    1    1    2    0  501  0.13564576738E+02 -0.91312334921E+02  0.32222783440E+03  0.37674489713E+03  0.17200000000E+03 0.  1.
</event>
<event>
 4    1  0.4363334E-001  0.1792781E+03  0.7818608E-02  0.1168504E+00
          2   -1    0    0  502    0  0.00000000000E+00  0.00000000000E+00  0.13230370641E+03  0.13230370641E+03  0.00000000000E+00 0.  1.
         -2   -1    0    0    0  501 -0.00000000000E+00 -0.00000000000E+00 -0.24845115705E+03  0.24845115705E+03  0.00000000000E+00 0. -1.
          6    1    1    2  502    0 -0.50549750638E+02 -0.11629589432E+01 -0.86451813761E+02  0.19903403193E+03  0.17200000000E+03 0.  1.
         -6    1    1    2    0  501  0.50549750638E+02  0.11629589432E+01 -0.29695636880E+02  0.18172083153E+03  0.17200000000E+03 0.  1.
</event>
<event>
 4    1  0.4363334E-001  0.1791736E+03  0.7818608E-02  0.1168605E+00
         -1   -1    0    0    0  501 -0.00000000000E+00  0.00000000000E+00  0.17398473616E+02  0.17398473616E+02  0.00000000000E+00 0. -1.
          1   -1    0    0  502    0  0.00000000000E+00 -0.00000000000E+00 -0.23713398403E+04  0.23713398403E+04  0.00000000000E+00 0.  1.
          6    1    1    2  502    0 -0.42540331696E+02  0.26636566834E+02 -0.61436568004E+03  0.63995966695E+03  0.17200000000E+03 0. -1.
         -6    1    1    2    0  501  0.42540331696E+02 -0.26636566834E+02 -0.17395756867E+04  0.17487786470E+04  0.17200000000E+03 0.  1.
</event>
<event>
 4    1  0.4363334E-001  0.1986516E+03  0.7818608E-02  0.1150882E+00
          2   -1    0    0  502    0  0.00000000000E+00  0.00000000000E+00  0.13658675227E+04  0.13658675227E+04  0.00000000000E+00 0. -1.
         -2   -1    0    0    0  501 -0.00000000000E+00 -0.00000000000E+00 -0.28900951649E+02  0.28900951649E+02  0.00000000000E+00 0.  1.
          6    1    1    2  502    0 -0.85059818401E+02  0.51412777334E+02  0.65611078719E+03  0.68552447911E+03  0.17200000000E+03 0. -1.
         -6    1    1    2    0  501  0.85059818401E+02 -0.51412777334E+02  0.68085578389E+03  0.70924399528E+03  0.17200000000E+03 0. -1.
</event>
<event>
 4    1  0.4363334E-001  0.2006893E+03  0.7818608E-02  0.1149159E+00
         -3   -1    0    0    0  501 -0.00000000000E+00  0.00000000000E+00  0.24830075694E+02  0.24830075694E+02  0.00000000000E+00 0. -1.
          3   -1    0    0  502    0  0.00000000000E+00 -0.00000000000E+00 -0.16297767515E+04  0.16297767515E+04  0.00000000000E+00 0.  1.
          6    1    1    2  502    0 -0.86526663062E+02 -0.56615707932E+02 -0.74559530275E+03  0.77213247393E+03  0.17200000000E+03 0. -1.
         -6    1    1    2    0  501  0.86526663062E+02  0.56615707932E+02 -0.85935137306E+03  0.88247435328E+03  0.17200000000E+03 0. -1.
</event>
<event>
 4    1  0.4363334E-001  0.1890121E+03  0.7818608E-02  0.1159355E+00
         -1   -1    0    0    0  501 -0.00000000000E+00  0.00000000000E+00  0.87304340623E+02  0.87304340623E+02  0.00000000000E+00 0.  1.
          1   -1    0    0  502    0  0.00000000000E+00 -0.00000000000E+00 -0.55570752440E+03  0.55570752440E+03  0.00000000000E+00 0. -1.
          6    1    1    2  502    0  0.59323695646E+02 -0.51208195627E+02 -0.39927795202E+03  0.44175611273E+03  0.17200000000E+03 0. -1.
         -6    1    1    2    0  501 -0.59323695646E+02  0.51208195627E+02 -0.69125231752E+02  0.20125575229E+03  0.17200000000E+03 0.  1.
</event>
<event>
 4    1  0.4363334E-001  0.2866809E+03  0.7818608E-02  0.1092095E+00
         -2   -1    0    0    0  501 -0.00000000000E+00  0.00000000000E+00  0.99204769891E+03  0.99204769891E+03  0.00000000000E+00 0.  1.
          2   -1    0    0  502    0  0.00000000000E+00 -0.00000000000E+00 -0.88266433563E+02  0.88266433563E+02  0.00000000000E+00 0. -1.
          6    1    1    2  502    0  0.22584290094E+03 -0.39961640016E+02  0.31801881666E+03  0.42816108689E+03  0.17200000000E+03 0. -1.
         -6    1    1    2    0  501 -0.22584290094E+03  0.39961640016E+02  0.58576244869E+03  0.65215304559E+03  0.17200000000E+03 0.  1.
</event>
<event>
 4    1  0.4363334E-001  0.2039513E+03  0.7818608E-02  0.1146447E+00
         -2   -1    0    0    0  501 -0.00000000000E+00  0.00000000000E+00  0.19441059640E+03  0.19441059640E+03  0.00000000000E+00 0.  1.
          2   -1    0    0  502    0  0.00000000000E+00 -0.00000000000E+00 -0.21770327693E+03  0.21770327693E+03  0.00000000000E+00 0. -1.
          6    1    1    2  502    0 -0.97428553812E+02 -0.50197724928E+02  0.15372565770E+02  0.20452982781E+03  0.17200000000E+03 0. -1.
         -6    1    1    2    0  501  0.97428553812E+02  0.50197724928E+02 -0.38665246298E+02  0.20758404553E+03  0.17200000000E+03 0.  1.
</event>
<event>
 4    1  0.4363334E-001  0.1940749E+03  0.7818608E-02  0.1154837E+00
         -2   -1    0    0    0  501 -0.00000000000E+00  0.00000000000E+00  0.41931326946E+03  0.41931326946E+03  0.00000000000E+00 0. -1.
          2   -1    0    0  502    0  0.00000000000E+00 -0.00000000000E+00 -0.10003879003E+03  0.10003879003E+03  0.00000000000E+00 0.  1.
          6    1    1    2  502    0  0.28411839358E+02 -0.85286706694E+02  0.24260873455E+03  0.31068320366E+03  0.17200000000E+03 0. -1.
         -6    1    1    2    0  501 -0.28411839358E+02  0.85286706694E+02  0.76665744885E+02  0.20866885583E+03  0.17200000000E+03 0.  1.
</event>
<event>
 4    1  0.4363334E-001  0.2148859E+03  0.7818608E-02  0.1137754E+00
          2   -1    0    0  502    0  0.00000000000E+00  0.00000000000E+00  0.13778038131E+03  0.13778038131E+03  0.00000000000E+00 0.  1.
         -2   -1    0    0    0  501 -0.00000000000E+00 -0.00000000000E+00 -0.34300724267E+03  0.34300724267E+03  0.00000000000E+00 0. -1.
          6    1    1    2  502    0  0.12873598577E+03 -0.43569537874E+01 -0.66210293018E+02  0.22485493096E+03  0.17200000000E+03 0. -1.
         -6    1    1    2    0  501 -0.12873598577E+03  0.43569537874E+01 -0.13901656834E+03  0.25593269301E+03  0.17200000000E+03 0. -1.
</event>
<event>
 4    1  0.4363334E-001  0.2698815E+03  0.7818608E-02  0.1101347E+00
         -2   -1    0    0    0  501 -0.00000000000E+00  0.00000000000E+00  0.12448867089E+03  0.12448867089E+03  0.00000000000E+00 0.  1.
          2   -1    0    0  502    0  0.00000000000E+00 -0.00000000000E+00 -0.60187979171E+03  0.60187979171E+03  0.00000000000E+00 0. -1.
          6    1    1    2  502    0 -0.91704308350E+02  0.18666101409E+03 -0.17802121881E+03  0.32330723576E+03  0.17200000000E+03 0. -1.
         -6    1    1    2    0  501  0.91704308350E+02 -0.18666101409E+03 -0.29936990201E+03  0.40306122684E+03  0.17200000000E+03 0. -1.
</event>
<event>
 4    1  0.4363334E-001  0.1772919E+03  0.7818608E-02  0.1170450E+00
          1   -1    0    0  502    0  0.00000000000E+00  0.00000000000E+00  0.79715527794E+02  0.79715527794E+02  0.00000000000E+00 0. -1.
         -1   -1    0    0    0  501 -0.00000000000E+00 -0.00000000000E+00 -0.39959753949E+03  0.39959753949E+03  0.00000000000E+00 0.  1.
          6    1    1    2  502    0  0.12696161851E+02 -0.41075775481E+02 -0.13236591734E+03  0.22125358286E+03  0.17200000000E+03 0. -1.
         -6    1    1    2    0  501 -0.12696161851E+02  0.41075775481E+02 -0.18751609436E+03  0.25805948442E+03  0.17200000000E+03 0. -1.
</event>
<event>
 4    1  0.4363334E-001  0.2308682E+03  0.7818608E-02  0.1126030E+00
         -2   -1    0    0    0  501 -0.00000000000E+00  0.00000000000E+00  0.42889502209E+02  0.42889502209E+02  0.00000000000E+00 0.  1.
          2   -1    0    0  502    0  0.00000000000E+00 -0.00000000000E+00 -0.15596537139E+04  0.15596537139E+04  0.00000000000E+00 0. -1.
          6    1    1    2  502    0 -0.13489863116E+03  0.74286369491E+02 -0.39718647949E+03  0.45940962644E+03  0.17200000000E+03 0.  1.
         -6    1    1    2    0  501  0.13489863116E+03 -0.74286369491E+02 -0.11195777322E+04  0.11431335897E+04  0.17200000000E+03 0. -1.
</event>
<event>
 4    1  0.4363334E-001  0.1977490E+03  0.7818608E-02  0.1151652E+00
          2   -1    0    0  502    0  0.00000000000E+00  0.00000000000E+00  0.94434722170E+03  0.94434722170E+03  0.00000000000E+00 0. -1.
         -2   -1    0    0    0  501 -0.00000000000E+00 -0.00000000000E+00 -0.64251274362E+02  0.64251274362E+02  0.00000000000E+00 0.  1.
          6    1    1    2  502    0 -0.95174624493E+02  0.21504828744E+02  0.74073533887E+03  0.76667692613E+03  0.17200000000E+03 0. -1.
         -6    1    1    2    0  501  0.95174624493E+02 -0.21504828744E+02  0.13936060847E+03  0.24192156993E+03  0.17200000000E+03 0.  1.
</event>
<event>
 4    1  0.4363334E-001  0.2015625E+03  0.7818608E-02  0.1148427E+00
         -1   -1    0    0    0  501 -0.00000000000E+00  0.00000000000E+00  0.16192104915E+03  0.16192104915E+03  0.00000000000E+00 0.  1.
          1   -1    0    0  502    0  0.00000000000E+00 -0.00000000000E+00 -0.26598400552E+03  0.26598400552E+03  0.00000000000E+00 0. -1.
          6    1    1    2  502    0  0.10337138580E+03  0.18915182229E+02 -0.10960140338E+01  0.20156544537E+03  0.17200000000E+03 0.  1.
         -6    1    1    2    0  501 -0.10337138580E+03 -0.18915182229E+02 -0.10296694234E+03  0.22633960929E+03  0.17200000000E+03 0. -1.
</event>
<event>
 4    1  0.4363334E-001  0.3223739E+03  0.7818608E-02  0.1074562E+00
          2   -1    0    0  502    0  0.00000000000E+00  0.00000000000E+00  0.64133188025E+03  0.64133188025E+03  0.00000000000E+00 0.  1.
         -2   -1    0    0    0  501 -0.00000000000E+00 -0.00000000000E+00 -0.19571866958E+03  0.19571866958E+03  0.00000000000E+00 0. -1.
          6    1    1    2  502    0 -0.10851655079E+03 -0.25013015312E+03  0.39640578205E+03  0.51094273586E+03  0.17200000000E+03 0.  1.
         -6    1    1    2    0  501  0.10851655079E+03  0.25013015312E+03  0.49207428624E+02  0.32610781396E+03  0.17200000000E+03 0. -1.
</event>
<event>
 4    1  0.4363334E-001  0.1803003E+03  0.7818608E-02  0.1167513E+00
         -2   -1    0    0    0  501 -0.00000000000E+00  0.00000000000E+00  0.27604160143E+02  0.27604160143E+02  0.00000000000E+00 0. -1.
          2   -1    0    0  502    0  0.00000000000E+00 -0.00000000000E+00 -0.22781497025E+04  0.22781497025E+04  0.00000000000E+00 0.  1.
          6    1    1    2  502    0 -0.37183292325E+02  0.39263161006E+02 -0.32399022181E+03  0.37078006536E+03  0.17200000000E+03 0. -1.
         -6    1    1    2    0  501  0.37183292325E+02 -0.39263161006E+02 -0.19265553206E+04  0.19349737973E+04  0.17200000000E+03 0.  1.
</event>
<event>
 4    1  0.4363334E-001  0.2157750E+03  0.7818608E-02  0.1137073E+00
         -1   -1    0    0    0  501 -0.00000000000E+00  0.00000000000E+00  0.67628825381E+02  0.67628825381E+02  0.00000000000E+00 0.  1.
          1   -1    0    0  502    0  0.00000000000E+00 -0.00000000000E+00 -0.76518896787E+03  0.76518896787E+03  0.00000000000E+00 0. -1.
          6    1    1    2  502    0 -0.12982054882E+03 -0.11022173393E+02 -0.48065191034E+03  0.52686347578E+03  0.17200000000E+03 0. -1.
         -6    1    1    2    0  501  0.12982054882E+03  0.11022173393E+02 -0.21690823216E+03  0.30595431747E+03  0.17200000000E+03 0. -1.
</event>
<event>
 4    1  0.4363334E-001  0.1820589E+03  0.7818608E-02  0.1165825E+00
          2   -1    0    0  502    0  0.00000000000E+00  0.00000000000E+00  0.24643765385E+04  0.24643765385E+04  0.00000000000E+00 0. -1.
         -2   -1    0    0    0  501 -0.00000000000E+00 -0.00000000000E+00 -0.14061074398E+02  0.14061074398E+02  0.00000000000E+00 0.  1.
          6    1    1    2  502    0  0.87545054560E+01 -0.59032117007E+02  0.96678415066E+03  0.98377691891E+03  0.17200000000E+03 0. -1.
         -6    1    1    2    0  501 -0.87545054560E+01  0.59032117007E+02  0.14835313134E+04  0.14946606939E+04  0.17200000000E+03 0.  1.
</event>
<event>
 4    1  0.4363334E-001  0.4336722E+03  0.7818608E-02  0.1032706E+00
          2   -1    0    0  502    0  0.00000000000E+00  0.00000000000E+00  0.10726709598E+04  0.10726709598E+04  0.00000000000E+00 0.  1.
         -2   -1    0    0    0  501 -0.00000000000E+00 -0.00000000000E+00 -0.24336391734E+03  0.24336391734E+03  0.00000000000E+00 0. -1.
          6    1    1    2  502    0 -0.39675968892E+03  0.32701071117E+02  0.66739910193E+02  0.43877765031E+03  0.17200000000E+03 0. -1.
         -6    1    1    2    0  501  0.39675968892E+03 -0.32701071117E+02  0.76256713230E+03  0.87725722685E+03  0.17200000000E+03 0.  1.
</event>
<event>
 4    1  0.4363334E-001  0.2133164E+03  0.7818608E-02  0.1138966E+00
          3   -1    0    0  502    0  0.00000000000E+00  0.00000000000E+00  0.20437762922E+03  0.20437762922E+03  0.00000000000E+00 0. -1.
         -3   -1    0    0    0  501 -0.00000000000E+00 -0.00000000000E+00 -0.22729372786E+03  0.22729372786E+03  0.00000000000E+00 0.  1.
          6    1    1    2  502    0  0.81638266351E+02 -0.96203331968E+02  0.19405361353E+02  0.21419723543E+03  0.17200000000E+03 0.  1.
         -6    1    1    2    0  501 -0.81638266351E+02  0.96203331968E+02 -0.42321459985E+02  0.21747412166E+03  0.17200000000E+03 0.  1.
</event>
<event>
 4    1  0.4363334E-001  0.2145864E+03  0.7818608E-02  0.1137985E+00
          2   -1    0    0  502    0  0.00000000000E+00  0.00000000000E+00  0.15376732110E+03  0.15376732110E+03  0.00000000000E+00 0.  1.
         -2   -1    0    0    0  501 -0.00000000000E+00 -0.00000000000E+00 -0.31279355885E+03  0.31279355885E+03  0.00000000000E+00 0. -1.
          6    1    1    2  502    0  0.12517374010E+02  0.12769752774E+03 -0.12767498065E+03  0.24969630339E+03  0.17200000000E+03 0. -1.
         -6    1    1    2    0  501 -0.12517374010E+02 -0.12769752774E+03 -0.31351257103E+02  0.21686457656E+03  0.17200000000E+03 0.  1.
</event>
<event>
 4    1  0.4363334E-001  0.1888700E+03  0.7818608E-02  0.1159485E+00
          1   -1    0    0  502    0  0.00000000000E+00  0.00000000000E+00  0.95691636138E+03  0.95691636138E+03  0.00000000000E+00 0. -1.
         -1   -1    0    0    0  501 -0.00000000000E+00 -0.00000000000E+00 -0.38664258565E+02  0.38664258565E+02  0.00000000000E+00 0.  1.
          6    1    1    2  502    0  0.52910363675E+02 -0.57344177112E+02  0.36486665270E+03  0.41085220638E+03  0.17200000000E+03 0. -1.
         -6    1    1    2    0  501 -0.52910363675E+02  0.57344177112E+02  0.55338545011E+03  0.58472841357E+03  0.17200000000E+03 0.  1.
</event>
<event>
 4    1  0.4363334E-001  0.1960394E+03  0.7818608E-02  0.1153124E+00
         -2   -1    0    0    0  501 -0.00000000000E+00  0.00000000000E+00  0.15743722776E+02  0.15743722776E+02  0.00000000000E+00 0.  1.
          2   -1    0    0  502    0  0.00000000000E+00 -0.00000000000E+00 -0.24610209268E+04  0.24610209268E+04  0.00000000000E+00 0. -1.
          6    1    1    2  502    0  0.94058810521E+02 -0.62730791116E+00 -0.11111241468E+04  0.11282855680E+04  0.17200000000E+03 0.  1.
         -6    1    1    2    0  501 -0.94058810521E+02  0.62730791116E+00 -0.13341530573E+04  0.13484790817E+04  0.17200000000E+03 0. -1.
</event>
<event>
 4    1  0.4363334E-001  0.2128149E+03  0.7818608E-02  0.1139356E+00
          1   -1    0    0  502    0  0.00000000000E+00  0.00000000000E+00  0.77472046482E+03  0.77472046482E+03  0.00000000000E+00 0.  1.
         -1   -1    0    0    0  501 -0.00000000000E+00 -0.00000000000E+00 -0.78255810925E+02  0.78255810925E+02  0.00000000000E+00 0. -1.
          6    1    1    2  502    0 -0.92408442696E+02  0.84657423635E+02  0.56273599462E+03  0.60163277778E+03  0.17200000000E+03 0. -1.
         -6    1    1    2    0  501  0.92408442696E+02 -0.84657423635E+02  0.13372865927E+03  0.25134349797E+03  0.17200000000E+03 0.  1.
</event>
<event>
 4    1  0.4363334E-001  0.1742396E+03  0.7818608E-02  0.1173497E+00
          2   -1    0    0  502    0  0.00000000000E+00  0.00000000000E+00  0.10366782140E+04  0.10366782140E+04  0.00000000000E+00 0. -1.
         -2   -1    0    0    0  501 -0.00000000000E+00 -0.00000000000E+00 -0.61208565772E+02  0.61208565772E+02  0.00000000000E+00 0.  1.
          6    1    1    2  502    0 -0.11943452283E+02 -0.25155179527E+02  0.91296951200E+02  0.19670933483E+03  0.17200000000E+03 0.  1.
         -6    1    1    2    0  501  0.11943452283E+02  0.25155179527E+02  0.88417269705E+03  0.90117744497E+03  0.17200000000E+03 0. -1.
</event>
<event>
 4    1  0.4363334E-001  0.2266431E+03  0.7818608E-02  0.1129025E+00
         -3   -1    0    0    0  501 -0.00000000000E+00  0.00000000000E+00  0.11317585431E+03  0.11317585431E+03  0.00000000000E+00 0. -1.
          3   -1    0    0  502    0  0.00000000000E+00 -0.00000000000E+00 -0.45635069979E+03  0.45635069979E+03  0.00000000000E+00 0.  1.
          6    1    1    2  502    0  0.36757139968E+02 -0.14294063262E+03 -0.19258319911E+03  0.29741452616E+03  0.17200000000E+03 0.  1.
         -6    1    1    2    0  501 -0.36757139968E+02  0.14294063262E+03 -0.15059164637E+03  0.27211202794E+03  0.17200000000E+03 0.  1.
</event>
<event>
 4    1  0.4363334E-001  0.1782129E+03  0.7818608E-02  0.1169544E+00
         -2   -1    0    0    0  501 -0.00000000000E+00  0.00000000000E+00  0.59347724826E+03  0.59347724826E+03  0.00000000000E+00 0.  1.
          2   -1    0    0  502    0  0.00000000000E+00 -0.00000000000E+00 -0.64162196428E+02  0.64162196428E+02  0.00000000000E+00 0. -1.
          6    1    1    2  502    0 -0.45607916053E+02  0.97854377004E+01  0.39860645718E+03  0.43663135996E+03  0.17200000000E+03 0.  1.
         -6    1    1    2    0  501  0.45607916053E+02 -0.97854377004E+01  0.13070859465E+03  0.22100808472E+03  0.17200000000E+03 0.  1.
</event>
<event>
 4    1  0.4363334E-001  0.2477315E+03  0.7818608E-02  0.1114747E+00
          1   -1    0    0  502    0  0.00000000000E+00  0.00000000000E+00  0.92727267922E+02  0.92727267922E+02  0.00000000000E+00 0.  1.
         -1   -1    0    0    0  501 -0.00000000000E+00 -0.00000000000E+00 -0.79109200770E+03  0.79109200770E+03  0.00000000000E+00 0. -1.
          6    1    1    2  502    0  0.70170939788E+02  0.16389916270E+03 -0.52780378545E+03  0.58305036855E+03  0.17200000000E+03 0. -1.
         -6    1    1    2    0  501 -0.70170939788E+02 -0.16389916270E+03 -0.17056095433E+03  0.30076890708E+03  0.17200000000E+03 0.  1.
</event>
<event>
 4    1  0.4363334E-001  0.1994389E+03  0.7818608E-02  0.1150213E+00
          4   -1    0    0  502    0  0.00000000000E+00  0.00000000000E+00  0.42129196354E+02  0.42129196354E+02  0.00000000000E+00 0. -1.
         -4   -1    0    0    0  501 -0.00000000000E+00 -0.00000000000E+00 -0.96020089059E+03  0.96020089059E+03  0.00000000000E+00 0.  1.
          6    1    1    2  502    0  0.40271270416E+01  0.10087442962E+03 -0.52385176685E+03  0.56053237367E+03  0.17200000000E+03 0.  1.
         -6    1    1    2    0  501 -0.40271270416E+01 -0.10087442962E+03 -0.39421992738E+03  0.44179771327E+03  0.17200000000E+03 0.  1.
</event>
<event>
 4    1  0.4363334E-001  0.2340907E+03  0.7818608E-02  0.1123793E+00
          1   -1    0    0  502    0  0.00000000000E+00  0.00000000000E+00  0.20108575107E+03  0.20108575107E+03  0.00000000000E+00 0. -1.
         -1   -1    0    0    0  501 -0.00000000000E+00 -0.00000000000E+00 -0.44036908266E+03  0.44036908266E+03  0.00000000000E+00 0.  1.
          6    1    1    2  502    0  0.14022083725E+03  0.74515473294E+02 -0.31765593635E+03  0.39459312318E+03  0.17200000000E+03 0.  1.
         -6    1    1    2    0  501 -0.14022083725E+03 -0.74515473294E+02  0.78372604759E+02  0.24686171055E+03  0.17200000000E+03 0. -1.
</event>
<event>
 4    1  0.4363334E-001  0.3725915E+03  0.7818608E-02  0.1053706E+00
          2   -1    0    0  502    0  0.00000000000E+00  0.00000000000E+00  0.95274850000E+03  0.95274850000E+03  0.00000000000E+00 0. -1.
         -2   -1    0    0    0  501 -0.00000000000E+00 -0.00000000000E+00 -0.14705646128E+03  0.14705646128E+03  0.00000000000E+00 0.  1.
          6    1    1    2  502    0 -0.32759352185E+03  0.43851106965E+02  0.35021601177E+03  0.51134693706E+03  0.17200000000E+03 0.  1.
         -6    1    1    2    0  501  0.32759352185E+03 -0.43851106965E+02  0.45547602695E+03  0.58845802422E+03  0.17200000000E+03 0. -1.
</event>
<event>
 4    1  0.4363334E-001  0.2038114E+03  0.7818608E-02  0.1146563E+00
         -2   -1    0    0    0  501 -0.00000000000E+00  0.00000000000E+00  0.80997393720E+02  0.80997393720E+02  0.00000000000E+00 0. -1.
          2   -1    0    0  502    0  0.00000000000E+00 -0.00000000000E+00 -0.53334706628E+03  0.53334706628E+03  0.00000000000E+00 0.  1.
          6    1    1    2  502    0  0.66701354357E+02 -0.86637266031E+02 -0.16594957841E+03  0.26282760341E+03  0.17200000000E+03 0.  1.
         -6    1    1    2    0  501 -0.66701354357E+02  0.86637266031E+02 -0.28640009415E+03  0.35151685659E+03  0.17200000000E+03 0. -1.
</event>
<event>
 4    1  0.4363334E-001  0.1744792E+03  0.7818608E-02  0.1173256E+00
          2   -1    0    0  502    0  0.00000000000E+00  0.00000000000E+00  0.17091308120E+03  0.17091308120E+03  0.00000000000E+00 0. -1.
         -2   -1    0    0    0  501 -0.00000000000E+00 -0.00000000000E+00 -0.17926956621E+03  0.17926956621E+03  0.00000000000E+00 0.  1.
          6    1    1    2  502    0 -0.56100477515E+01 -0.28766355355E+02  0.98449551728E+01  0.17475668508E+03  0.17200000000E+03 0.  1.
         -6    1    1    2    0  501  0.56100477515E+01  0.28766355355E+02 -0.18201440188E+02  0.17542596233E+03  0.17200000000E+03 0. -1.
</event>
<event>
 4    1  0.4363334E-001  0.2746958E+03  0.7818608E-02  0.1098622E+00
         -1   -1    0    0    0  501 -0.00000000000E+00  0.00000000000E+00  0.46708124114E+02  0.46708124114E+02  0.00000000000E+00 0.  1.
          1   -1    0    0  502    0  0.00000000000E+00 -0.00000000000E+00 -0.23638507077E+04  0.23638507077E+04  0.00000000000E+00 0. -1.
          6    1    1    2  502    0  0.15499987053E+03  0.14781350969E+03 -0.18367204331E+04  0.18571482824E+04  0.17200000000E+03 0. -1.
         -6    1    1    2    0  501 -0.15499987053E+03 -0.14781350969E+03 -0.48042215050E+03  0.55341054942E+03  0.17200000000E+03 0.  1.
</event>
<event>
 4    1  0.4363334E-001  0.1876458E+03  0.7818608E-02  0.1160602E+00
         -1   -1    0    0    0  501 -0.00000000000E+00  0.00000000000E+00  0.58097368082E+02  0.58097368082E+02  0.00000000000E+00 0.  1.
          1   -1    0    0  502    0  0.00000000000E+00 -0.00000000000E+00 -0.10349651017E+04  0.10349651017E+04  0.00000000000E+00 0. -1.
          6    1    1    2  502    0  0.15123709052E+02  0.73472455567E+02 -0.13660705829E+03  0.23210432283E+03  0.17200000000E+03 0.  1.
         -6    1    1    2    0  501 -0.15123709052E+02 -0.73472455567E+02 -0.84026067537E+03  0.86095814700E+03  0.17200000000E+03 0. -1.
</event>
<event>
 4    1  0.4363334E-001  0.1724479E+03  0.7818608E-02  0.1175319E+00
         -1   -1    0    0    0  501 -0.00000000000E+00  0.00000000000E+00  0.96956638489E+02  0.96956638489E+02  0.00000000000E+00 0.  1.
          1   -1    0    0  502    0  0.00000000000E+00 -0.00000000000E+00 -0.57102857538E+03  0.57102857538E+03  0.00000000000E+00 0. -1.
          6    1    1    2  502    0  0.11548684369E+02  0.45718628321E+01 -0.98058919702E+01  0.17272645877E+03  0.17200000000E+03 0.  1.
         -6    1    1    2    0  501 -0.11548684369E+02 -0.45718628321E+01 -0.46426604492E+03  0.49525875511E+03  0.17200000000E+03 0. -1.
</event>
<event>
 4    1  0.4363334E-001  0.3437502E+03  0.7818608E-02  0.1065210E+00
          1   -1    0    0  502    0  0.00000000000E+00  0.00000000000E+00  0.12010642398E+04  0.12010642398E+04  0.00000000000E+00 0.  1.
         -1   -1    0    0    0  501 -0.00000000000E+00 -0.00000000000E+00 -0.10100764348E+03  0.10100764348E+03  0.00000000000E+00 0. -1.
          6    1    1    2  502    0 -0.70172414742E+02 -0.28923352451E+03  0.44508127065E+03  0.56237135149E+03  0.17200000000E+03 0. -1.
         -6    1    1    2    0  501  0.70172414742E+02  0.28923352451E+03  0.65497532564E+03  0.73970053176E+03  0.17200000000E+03 0.  1.
</event>
<event>
 4    1  0.4363334E-001  0.2051588E+03  0.7818608E-02  0.1145458E+00
         -1   -1    0    0    0  501 -0.00000000000E+00  0.00000000000E+00  0.69797194808E+02  0.69797194808E+02  0.00000000000E+00 0. -1.
          1   -1    0    0  502    0  0.00000000000E+00 -0.00000000000E+00 -0.63306471107E+03  0.63306471107E+03  0.00000000000E+00 0.  1.
          6    1    1    2  502    0 -0.94978125914E+02 -0.59036302375E+02 -0.35817470149E+03  0.41277020991E+03  0.17200000000E+03 0.  1.
         -6    1    1    2    0  501  0.94978125914E+02  0.59036302375E+02 -0.20509281477E+03  0.29009169597E+03  0.17200000000E+03 0. -1.
</event>
<event>
 4    1  0.4363334E-001  0.1827648E+03  0.7818608E-02  0.1165154E+00
          1   -1    0    0  502    0  0.00000000000E+00  0.00000000000E+00  0.19447624842E+03  0.19447624842E+03  0.00000000000E+00 0.  1.
         -1   -1    0    0    0  501 -0.00000000000E+00 -0.00000000000E+00 -0.26826083994E+03  0.26826083994E+03  0.00000000000E+00 0. -1.
          6    1    1    2  502    0 -0.43161531158E+02 -0.44227273089E+02  0.10187731045E+03  0.20924138176E+03  0.17200000000E+03 0.  1.
         -6    1    1    2    0  501  0.43161531158E+02  0.44227273089E+02 -0.17566190198E+03  0.25349570660E+03  0.17200000000E+03 0. -1.
</event>
<event>
 4    1  0.4363334E-001  0.1983984E+03  0.7818608E-02  0.1151097E+00
         -2   -1    0    0    0  501 -0.00000000000E+00  0.00000000000E+00  0.90838486564E+02  0.90838486564E+02  0.00000000000E+00 0. -1.
          2   -1    0    0  502    0  0.00000000000E+00 -0.00000000000E+00 -0.60626487821E+03  0.60626487821E+03  0.00000000000E+00 0.  1.
          6    1    1    2  502    0 -0.98844095839E+02  0.27844263479E+01 -0.44387601047E+03  0.48619730664E+03  0.17200000000E+03 0.  1.
         -6    1    1    2    0  501  0.98844095839E+02 -0.27844263479E+01 -0.71550381178E+02  0.21090605814E+03  0.17200000000E+03 0. -1.
</event>
<event>
 4    1  0.4363334E-001  0.1915319E+03  0.7818608E-02  0.1157087E+00
         -2   -1    0    0    0  501 -0.00000000000E+00  0.00000000000E+00  0.46407099670E+02  0.46407099670E+02  0.00000000000E+00 0. -1.
          2   -1    0    0  502    0  0.00000000000E+00 -0.00000000000E+00 -0.81592056319E+03  0.81592056319E+03  0.00000000000E+00 0.  1.
          6    1    1    2  502    0  0.56416911526E+02 -0.62590803183E+02 -0.46087217108E+03  0.49908680069E+03  0.17200000000E+03 0.  1.
         -6    1    1    2    0  501 -0.56416911526E+02  0.62590803183E+02 -0.30864129244E+03  0.36324086216E+03  0.17200000000E+03 0. -1.
</event>
<event>
 4    1  0.4363334E-001  0.2440050E+03  0.7818608E-02  0.1117153E+00
          1   -1    0    0  502    0  0.00000000000E+00  0.00000000000E+00  0.97214936670E+03  0.97214936670E+03  0.00000000000E+00 0. -1.
         -1   -1    0    0    0  501 -0.00000000000E+00 -0.00000000000E+00 -0.87916592922E+02  0.87916592922E+02  0.00000000000E+00 0.  1.
          6    1    1    2  502    0 -0.14851818931E+03 -0.88863807885E+02  0.15017266537E+03  0.28651397581E+03  0.17200000000E+03 0.  1.
         -6    1    1    2    0  501  0.14851818931E+03  0.88863807885E+02  0.73406010840E+03  0.77355198381E+03  0.17200000000E+03 0. -1.
</event>
<event>
 4    1  0.4363334E-001  0.1785821E+03  0.7818608E-02  0.1169182E+00
         -4   -1    0    0    0  501 -0.00000000000E+00  0.00000000000E+00  0.17979627732E+03  0.17979627732E+03  0.00000000000E+00 0.  1.
          4   -1    0    0  502    0  0.00000000000E+00 -0.00000000000E+00 -0.17842681140E+03  0.17842681140E+03  0.00000000000E+00 0. -1.
          6    1    1    2  502    0 -0.39324395415E+02  0.27589416519E+02  0.14428649655E+02  0.17916408655E+03  0.17200000000E+03 0. -1.
         -6    1    1    2    0  501  0.39324395415E+02 -0.27589416519E+02 -0.13059183729E+02  0.17905900217E+03  0.17200000000E+03 0. -1.
</event>
<event>
 4    1  0.4363334E-001  0.2809900E+03  0.7818608E-02  0.1095149E+00
          1   -1    0    0  502    0  0.00000000000E+00  0.00000000000E+00  0.46491652214E+03  0.46491652214E+03  0.00000000000E+00 0.  1.
         -1   -1    0    0    0  501 -0.00000000000E+00 -0.00000000000E+00 -0.16982907187E+03  0.16982907187E+03  0.00000000000E+00 0. -1.
          6    1    1    2  502    0 -0.19488258693E+03 -0.10673408727E+03  0.14644089452E+03  0.31686010109E+03  0.17200000000E+03 0. -1.
         -6    1    1    2    0  501  0.19488258693E+03  0.10673408727E+03  0.14864655575E+03  0.31788549292E+03  0.17200000000E+03 0.  1.
</event>
<event>
 4    1  0.4363334E-001  0.1927589E+03  0.7818608E-02  0.1155996E+00
          2   -1    0    0  502    0  0.00000000000E+00  0.00000000000E+00  0.33123039663E+02  0.33123039663E+02  0.00000000000E+00 0. -1.
         -2   -1    0    0    0  501 -0.00000000000E+00 -0.00000000000E+00 -0.11295166645E+04  0.11295166645E+04  0.00000000000E+00 0.  1.
          6    1    1    2  502    0 -0.86916654960E+02 -0.41838480925E+01 -0.50001494378E+03  0.53588333945E+03  0.17200000000E+03 0. -1.
         -6    1    1    2    0  501  0.86916654960E+02  0.41838480925E+01 -0.59637868110E+03  0.62675636476E+03  0.17200000000E+03 0.  1.
</event>
<event>
 4    1  0.4363334E-001  0.1837372E+03  0.7818608E-02  0.1164234E+00
          2   -1    0    0  502    0  0.00000000000E+00  0.00000000000E+00  0.92412858095E+03  0.92412858095E+03  0.00000000000E+00 0. -1.
         -2   -1    0    0    0  501 -0.00000000000E+00 -0.00000000000E+00 -0.37240956739E+02  0.37240956739E+02  0.00000000000E+00 0.  1.
          6    1    1    2  502    0  0.64494694742E+02  0.39760344880E+01  0.50981122136E+03  0.54191037629E+03  0.17200000000E+03 0. -1.
         -6    1    1    2    0  501 -0.64494694742E+02 -0.39760344880E+01  0.37707640285E+03  0.41945916141E+03  0.17200000000E+03 0.  1.
</event>
<event>
 4    1  0.4363334E-001  0.1938900E+03  0.7818608E-02  0.1154999E+00
          1   -1    0    0  502    0  0.00000000000E+00  0.00000000000E+00  0.27780044485E+04  0.27780044485E+04  0.00000000000E+00 0. -1.
         -1   -1    0    0    0  501 -0.00000000000E+00 -0.00000000000E+00 -0.18059650778E+02  0.18059650778E+02  0.00000000000E+00 0.  1.
          6    1    1    2  502    0 -0.89366338371E+02 -0.47959238372E+01  0.20799352083E+04  0.20889528032E+04  0.17200000000E+03 0. -1.
         -6    1    1    2    0  501  0.89366338371E+02  0.47959238372E+01  0.68000958940E+03  0.70711129605E+03  0.17200000000E+03 0.  1.
</event>
<event>
 4    1  0.4363334E-001  0.2393901E+03  0.7818608E-02  0.1120200E+00
         -1   -1    0    0    0  501 -0.00000000000E+00  0.00000000000E+00  0.24139222472E+03  0.24139222472E+03  0.00000000000E+00 0. -1.
          1   -1    0    0  502    0  0.00000000000E+00 -0.00000000000E+00 -0.25269658424E+03  0.25269658424E+03  0.00000000000E+00 0.  1.
          6    1    1    2  502    0 -0.14878656479E+03  0.74740875528E+02 -0.66424571452E+02  0.24843482853E+03  0.17200000000E+03 0.  1.
         -6    1    1    2    0  501  0.14878656479E+03 -0.74740875528E+02  0.55120211938E+02  0.24565398043E+03  0.17200000000E+03 0. -1.
</event>
<event>
 4    1  0.4363334E-001  0.1763229E+03  0.7818608E-02  0.1171410E+00
         -4   -1    0    0    0  501 -0.00000000000E+00  0.00000000000E+00  0.77955100171E+02  0.77955100171E+02  0.00000000000E+00 0.  1.
          4   -1    0    0  502    0  0.00000000000E+00 -0.00000000000E+00 -0.70422100225E+03  0.70422100225E+03  0.00000000000E+00 0. -1.
          6    1    1    2  502    0  0.38190719943E+02 -0.68738792932E+01 -0.55585196199E+02  0.18487697353E+03  0.17200000000E+03 0.  1.
         -6    1    1    2    0  501 -0.38190719943E+02  0.68738792932E+01 -0.57068070588E+03  0.59729912889E+03  0.17200000000E+03 0. -1.
</event>
<event>
 4    1  0.4363334E-001  0.2163461E+03  0.7818608E-02  0.1136637E+00
         -2   -1    0    0    0  501 -0.00000000000E+00  0.00000000000E+00  0.27258713828E+03  0.27258713828E+03  0.00000000000E+00 0. -1.
          2   -1    0    0  502    0  0.00000000000E+00 -0.00000000000E+00 -0.18921089731E+03  0.18921089731E+03  0.00000000000E+00 0.  1.
          6    1    1    2  502    0 -0.13513991135E+02 -0.13053348451E+03  0.11191343454E+03  0.24357798621E+03  0.17200000000E+03 0. -1.
         -6    1    1    2    0  501  0.13513991135E+02  0.13053348451E+03 -0.28537193566E+02  0.21822004938E+03  0.17200000000E+03 0.  1.
</event>
<event>
 4    1  0.4363334E-001  0.2946816E+03  0.7818608E-02  0.1087930E+00
          2   -1    0    0  502    0  0.00000000000E+00  0.00000000000E+00  0.47446932187E+03  0.47446932187E+03  0.00000000000E+00 0.  1.
         -2   -1    0    0    0  501 -0.00000000000E+00 -0.00000000000E+00 -0.18716468178E+03  0.18716468178E+03  0.00000000000E+00 0. -1.
          6    1    1    2  502    0 -0.65701203057E+02 -0.23007951056E+03  0.94421440914E+02  0.30943923114E+03  0.17200000000E+03 0.  1.
         -6    1    1    2    0  501  0.65701203057E+02  0.23007951056E+03  0.19288319917E+03  0.35219477252E+03  0.17200000000E+03 0. -1.
</event>
<event>
 4    1  0.4363334E-001  0.1830766E+03  0.7818608E-02  0.1164858E+00
         -2   -1    0    0    0  501 -0.00000000000E+00  0.00000000000E+00  0.95676689316E+02  0.95676689316E+02  0.00000000000E+00 0. -1.
          2   -1    0    0  502    0  0.00000000000E+00 -0.00000000000E+00 -0.82355189967E+03  0.82355189967E+03  0.00000000000E+00 0.  1.
          6    1    1    2  502    0  0.22074895796E+02 -0.58700497616E+02 -0.15530498504E+02  0.18373417164E+03  0.17200000000E+03 0. -1.
         -6    1    1    2    0  501 -0.22074895796E+02  0.58700497616E+02 -0.71234471185E+03  0.73549441735E+03  0.17200000000E+03 0.  1.
</event>
<event>
 4    1  0.4363334E-001  0.1826073E+03  0.7818608E-02  0.1165303E+00
          1   -1    0    0  502    0  0.00000000000E+00  0.00000000000E+00  0.48388493821E+02  0.48388493821E+02  0.00000000000E+00 0.  1.
         -1   -1    0    0    0  501 -0.00000000000E+00 -0.00000000000E+00 -0.68941222523E+03  0.68941222523E+03  0.00000000000E+00 0. -1.
          6    1    1    2  502    0 -0.30936741861E+02 -0.52955971536E+02 -0.31290023684E+03  0.36228714459E+03  0.17200000000E+03 0. -1.
         -6    1    1    2    0  501  0.30936741861E+02  0.52955971536E+02 -0.32812349456E+03  0.37551357446E+03  0.17200000000E+03 0. -1.
</event>
<event>
 4    1  0.4363334E-001  0.2307420E+03  0.7818608E-02  0.1126119E+00
          4   -1    0    0  502    0  0.00000000000E+00  0.00000000000E+00  0.22956203902E+03  0.22956203902E+03  0.00000000000E+00 0.  1.
         -4   -1    0    0    0  501 -0.00000000000E+00 -0.00000000000E+00 -0.24296106445E+03  0.24296106445E+03  0.00000000000E+00 0. -1.
          6    1    1    2  502    0  0.14013816127E+03  0.63396857642E+02 -0.57046406871E+02  0.23768920535E+03  0.17200000000E+03 0.  1.
         -6    1    1    2    0  501 -0.14013816127E+03 -0.63396857642E+02  0.43647381440E+02  0.23483389813E+03  0.17200000000E+03 0.  1.
</event>
<event>
 4    1  0.4363334E-001  0.1853141E+03  0.7818608E-02  0.1162757E+00
         -2   -1    0    0    0  501 -0.00000000000E+00  0.00000000000E+00  0.24227552102E+02  0.24227552102E+02  0.00000000000E+00 0. -1.
          2   -1    0    0  502    0  0.00000000000E+00 -0.00000000000E+00 -0.14178271275E+04  0.14178271275E+04  0.00000000000E+00 0.  1.
          6    1    1    2  502    0 -0.67356814148E+02 -0.14845416782E+02 -0.68502953393E+03  0.70965258343E+03  0.17200000000E+03 0.  1.
         -6    1    1    2    0  501  0.67356814148E+02  0.14845416782E+02 -0.70857004148E+03  0.73240209618E+03  0.17200000000E+03 0.  1.
</event>
<event>
 4    1  0.4363334E-001  0.3494856E+03  0.7818608E-02  0.1062826E+00
         -2   -1    0    0    0  501 -0.00000000000E+00  0.00000000000E+00  0.20461012562E+03  0.20461012562E+03  0.00000000000E+00 0.  1.
          2   -1    0    0  502    0  0.00000000000E+00 -0.00000000000E+00 -0.59800412352E+03  0.59800412352E+03  0.00000000000E+00 0. -1.
          6    1    1    2  502    0  0.72013606872E+02  0.29558457046E+03 -0.21361666605E+03  0.40960014390E+03  0.17200000000E+03 0.  1.
         -6    1    1    2    0  501 -0.72013606872E+02 -0.29558457046E+03 -0.17977733185E+03  0.39301410524E+03  0.17200000000E+03 0. -1.
</event>
<event>
 4    1  0.4363334E-001  0.1728556E+03  0.7818608E-02  0.1174902E+00
          2   -1    0    0  502    0  0.00000000000E+00  0.00000000000E+00  0.85857726841E+03  0.85857726841E+03  0.00000000000E+00 0.  1.
         -2   -1    0    0    0  501 -0.00000000000E+00 -0.00000000000E+00 -0.36466892377E+02  0.36466892377E+02  0.00000000000E+00 0. -1.
          6    1    1    2  502    0  0.17122926317E+02  0.13622987427E+01  0.31539446594E+03  0.35965639103E+03  0.17200000000E+03 0. -1.
         -6    1    1    2    0  501 -0.17122926317E+02 -0.13622987427E+01  0.50671591009E+03  0.53538776975E+03  0.17200000000E+03 0.  1.
</event>
<event>
 4    1  0.4363334E-001  0.2037023E+03  0.7818608E-02  0.1146652E+00
          1   -1    0    0  502    0  0.00000000000E+00  0.00000000000E+00  0.57246884500E+03  0.57246884500E+03  0.00000000000E+00 0. -1.
         -1   -1    0    0    0  501 -0.00000000000E+00 -0.00000000000E+00 -0.73082298272E+02  0.73082298272E+02  0.00000000000E+00 0.  1.
          6    1    1    2  502    0 -0.10887869449E+03 -0.74860613143E+01  0.27890742008E+03  0.34537510073E+03  0.17200000000E+03 0.  1.
         -6    1    1    2    0  501  0.10887869449E+03  0.74860613143E+01  0.22047912665E+03  0.30017604255E+03  0.17200000000E+03 0. -1.
</event>
<event>
 4    1  0.4363334E-001  0.2272896E+03  0.7818608E-02  0.1128562E+00
         -2   -1    0    0    0  501 -0.00000000000E+00  0.00000000000E+00  0.95104714344E+02  0.95104714344E+02  0.00000000000E+00 0.  1.
          2   -1    0    0  502    0  0.00000000000E+00 -0.00000000000E+00 -0.54800684803E+03  0.54800684803E+03  0.00000000000E+00 0. -1.
          6    1    1    2  502    0 -0.17358430678E+02  0.14756434293E+03 -0.25657768708E+03  0.34277202326E+03  0.17200000000E+03 0.  1.
         -6    1    1    2    0  501  0.17358430678E+02 -0.14756434293E+03 -0.19632444660E+03  0.30033953911E+03  0.17200000000E+03 0.  1.
</event>
<event>
 4    1  0.4363334E-001  0.1894187E+03  0.7818608E-02  0.1158987E+00
         -1   -1    0    0    0  501 -0.00000000000E+00  0.00000000000E+00  0.87080076149E+02  0.87080076149E+02  0.00000000000E+00 0.  1.
          1   -1    0    0  502    0  0.00000000000E+00 -0.00000000000E+00 -0.42366658992E+03  0.42366658992E+03  0.00000000000E+00 0. -1.
          6    1    1    2  502    0  0.75256538956E+02 -0.25137266389E+02 -0.21061989650E+03  0.28326695822E+03  0.17200000000E+03 0.  1.
         -6    1    1    2    0  501 -0.75256538956E+02  0.25137266389E+02 -0.12596661728E+03  0.22747970785E+03  0.17200000000E+03 0. -1.
</event>
<event>
 4    1  0.4363334E-001  0.1832724E+03  0.7818608E-02  0.1164673E+00
          2   -1    0    0  502    0  0.00000000000E+00  0.00000000000E+00  0.57191392094E+03  0.57191392094E+03  0.00000000000E+00 0.  1.
         -2   -1    0    0    0  501 -0.00000000000E+00 -0.00000000000E+00 -0.59984029629E+02  0.59984029629E+02  0.00000000000E+00 0. -1.
          6    1    1    2  502    0 -0.63023612033E+02 -0.57268945797E+01  0.21029066183E+03  0.27894611567E+03  0.17200000000E+03 0.  1.
         -6    1    1    2    0  501  0.63023612033E+02  0.57268945797E+01  0.30163922947E+03  0.35295183489E+03  0.17200000000E+03 0.  1.
</event>
<event>
 4    1  0.4363334E-001  0.1922587E+03  0.7818608E-02  0.1156440E+00
         -4   -1    0    0    0  501 -0.00000000000E+00  0.00000000000E+00  0.21883817920E+03  0.21883817920E+03  0.00000000000E+00 0. -1.
          4   -1    0    0  502    0  0.00000000000E+00 -0.00000000000E+00 -0.17328308158E+03  0.17328308158E+03  0.00000000000E+00 0.  1.
          6    1    1    2  502    0  0.85000596872E+02  0.12421687007E+02 -0.83777892886E+01  0.19244112640E+03  0.17200000000E+03 0.  1.
         -6    1    1    2    0  501 -0.85000596872E+02 -0.12421687007E+02  0.53932886902E+02  0.19968013438E+03  0.17200000000E+03 0. -1.
</event>
<event>
 4    1  0.4363334E-001  0.3360958E+03  0.7818608E-02  0.1068471E+00
          2   -1    0    0  502    0  0.00000000000E+00  0.00000000000E+00  0.87942004063E+03  0.87942004063E+03  0.00000000000E+00 0.  1.
         -2   -1    0    0    0  501 -0.00000000000E+00 -0.00000000000E+00 -0.12853527590E+03  0.12853527590E+03  0.00000000000E+00 0. -1.
          6    1    1    2  502    0 -0.21321623601E+03  0.19471836483E+03  0.38851833412E+03  0.51371869817E+03  0.17200000000E+03 0.  1.
         -6    1    1    2    0  501  0.21321623601E+03 -0.19471836483E+03  0.36236643061E+03  0.49423661837E+03  0.17200000000E+03 0.  1.
</event>
<event>
 4    1  0.4363334E-001  0.1798670E+03  0.7818608E-02  0.1167932E+00
         -2   -1    0    0    0  501 -0.00000000000E+00  0.00000000000E+00  0.38768190543E+02  0.38768190543E+02  0.00000000000E+00 0. -1.
          2   -1    0    0  502    0  0.00000000000E+00 -0.00000000000E+00 -0.95073602404E+03  0.95073602404E+03  0.00000000000E+00 0.  1.
          6    1    1    2  502    0 -0.49831812994E+02  0.16880033881E+02 -0.28299283758E+03  0.33531640469E+03  0.17200000000E+03 0. -1.
         -6    1    1    2    0  501  0.49831812994E+02 -0.16880033881E+02 -0.62897499591E+03  0.65418780989E+03  0.17200000000E+03 0. -1.
</event>
<event>
 4    1  0.4363334E-001  0.1985866E+03  0.7818608E-02  0.1150937E+00
         -3   -1    0    0    0  501 -0.00000000000E+00  0.00000000000E+00  0.79930026809E+03  0.79930026809E+03  0.00000000000E+00 0. -1.
          3   -1    0    0  502    0  0.00000000000E+00 -0.00000000000E+00 -0.49802092714E+02  0.49802092714E+02  0.00000000000E+00 0.  1.
          6    1    1    2  502    0 -0.59483186434E+02  0.79463200439E+02  0.33380835402E+03  0.38841301073E+03  0.17200000000E+03 0.  1.
         -6    1    1    2    0  501  0.59483186434E+02 -0.79463200439E+02  0.41568982136E+03  0.46068935008E+03  0.17200000000E+03 0. -1.
</event>
<event>
 4    1  0.4363334E-001  0.1925965E+03  0.7818608E-02  0.1156140E+00
         -2   -1    0    0    0  501 -0.00000000000E+00  0.00000000000E+00  0.26471545526E+02  0.26471545526E+02  0.00000000000E+00 0. -1.
          2   -1    0    0  502    0  0.00000000000E+00 -0.00000000000E+00 -0.14013183167E+04  0.14013183167E+04  0.00000000000E+00 0.  1.
          6    1    1    2  502    0 -0.86601341037E+02 -0.30984686618E+01 -0.69221171092E+03  0.71850570319E+03  0.17200000000E+03 0. -1.
         -6    1    1    2    0  501  0.86601341037E+02  0.30984686618E+01 -0.68263506026E+03  0.70928415905E+03  0.17200000000E+03 0.  1.
</event>
<event>
 4    1  0.4363334E-001  0.1840589E+03  0.7818608E-02  0.1163932E+00
         -2   -1    0    0    0  501 -0.00000000000E+00  0.00000000000E+00  0.14137538911E+02  0.14137538911E+02  0.00000000000E+00 0. -1.
          2   -1    0    0  502    0  0.00000000000E+00 -0.00000000000E+00 -0.24052027451E+04  0.24052027451E+04  0.00000000000E+00 0.  1.
          6    1    1    2  502    0  0.10954643250E+02 -0.64604123276E+02 -0.12691540013E+04  0.12824311194E+04  0.17200000000E+03 0. -1.
         -6    1    1    2    0  501 -0.10954643250E+02  0.64604123276E+02 -0.11219112050E+04  0.11369091647E+04  0.17200000000E+03 0.  1.
</event>
<event>
 4    1  0.4363334E-001  0.2243914E+03  0.7818608E-02  0.1130651E+00
         -1   -1    0    0    0  501 -0.00000000000E+00  0.00000000000E+00  0.45495155318E+02  0.45495155318E+02  0.00000000000E+00 0. -1.
          1   -1    0    0  502    0  0.00000000000E+00 -0.00000000000E+00 -0.11640167049E+04  0.11640167049E+04  0.00000000000E+00 0.  1.
          6    1    1    2  502    0 -0.70910632562E+02 -0.12545584257E+03 -0.42511570853E+03  0.48070245671E+03  0.17200000000E+03 0. -1.
         -6    1    1    2    0  501  0.70910632562E+02  0.12545584257E+03 -0.69340584107E+03  0.72880940354E+03  0.17200000000E+03 0.  1.
</event>
<event>
 4    1  0.4363334E-001  0.2996188E+03  0.7818608E-02  0.1085431E+00
          2   -1    0    0  502    0  0.00000000000E+00  0.00000000000E+00  0.11867111491E+04  0.11867111491E+04  0.00000000000E+00 0. -1.
         -2   -1    0    0    0  501 -0.00000000000E+00 -0.00000000000E+00 -0.79401773597E+02  0.79401773597E+02  0.00000000000E+00 0.  1.
          6    1    1    2  502    0  0.91411882831E+02 -0.22766480508E+03  0.41599503408E+03  0.51266291477E+03  0.17200000000E+03 0. -1.
         -6    1    1    2    0  501 -0.91411882831E+02  0.22766480508E+03  0.69131434143E+03  0.75345000794E+03  0.17200000000E+03 0. -1.
</event>
<event>
 4    1  0.4363334E-001  0.1967162E+03  0.7818608E-02  0.1152539E+00
          2   -1    0    0  502    0  0.00000000000E+00  0.00000000000E+00  0.12363677089E+04  0.12363677089E+04  0.00000000000E+00 0. -1.
         -2   -1    0    0    0  501 -0.00000000000E+00 -0.00000000000E+00 -0.53659073373E+02  0.53659073373E+02  0.00000000000E+00 0.  1.
          6    1    1    2  502    0  0.84847966936E+02 -0.43750441753E+02  0.17498171717E+03  0.26327909144E+03  0.17200000000E+03 0.  1.
         -6    1    1    2    0  501 -0.84847966936E+02  0.43750441753E+02  0.10077269183E+04  0.10267476908E+04  0.17200000000E+03 0. -1.
</event>
<event>
 4    1  0.4363334E-001  0.2046777E+03  0.7818608E-02  0.1145851E+00
          2   -1    0    0  502    0  0.00000000000E+00  0.00000000000E+00  0.65237429230E+03  0.65237429230E+03  0.00000000000E+00 0. -1.
         -2   -1    0    0    0  501 -0.00000000000E+00 -0.00000000000E+00 -0.78169294408E+02  0.78169294408E+02  0.00000000000E+00 0.  1.
          6    1    1    2  502    0 -0.10522677190E+03  0.35160598460E+02  0.44142692226E+03  0.48657031240E+03  0.17200000000E+03 0. -1.
         -6    1    1    2    0  501  0.10522677190E+03 -0.35160598460E+02  0.13277807563E+03  0.24397327431E+03  0.17200000000E+03 0.  1.
</event>
<event>
 4    1  0.4363334E-001  0.1887060E+03  0.7818608E-02  0.1159634E+00
          2   -1    0    0  502    0  0.00000000000E+00  0.00000000000E+00  0.19566749967E+03  0.19566749967E+03  0.00000000000E+00 0. -1.
         -2   -1    0    0    0  501 -0.00000000000E+00 -0.00000000000E+00 -0.20893567896E+03  0.20893567896E+03  0.00000000000E+00 0.  1.
          6    1    1    2  502    0  0.66409935751E+02  0.40195586553E+02 -0.79281406444E+02  0.20468391767E+03  0.17200000000E+03 0.  1.
         -6    1    1    2    0  501 -0.66409935751E+02 -0.40195586553E+02  0.66013227154E+02  0.19991926096E+03  0.17200000000E+03 0. -1.
</event>
<event>
 4    1  0.4363334E-001  0.2097993E+03  0.7818608E-02  0.1141725E+00
         -2   -1    0    0    0  501 -0.00000000000E+00  0.00000000000E+00  0.59851731851E+02  0.59851731851E+02  0.00000000000E+00 0. -1.
          2   -1    0    0  502    0  0.00000000000E+00 -0.00000000000E+00 -0.13264803250E+04  0.13264803250E+04  0.00000000000E+00 0.  1.
          6    1    1    2  502    0  0.83867019803E+02 -0.86011986195E+02 -0.17060805555E+03  0.27041236547E+03  0.17200000000E+03 0. -1.
         -6    1    1    2    0  501 -0.83867019803E+02  0.86011986195E+02 -0.10960205376E+04  0.11159196914E+04  0.17200000000E+03 0.  1.
</event>
<event>
 4    1  0.4363334E-001  0.2140126E+03  0.7818608E-02  0.1138427E+00
         -2   -1    0    0    0  501 -0.00000000000E+00  0.00000000000E+00  0.16561168326E+03  0.16561168326E+03  0.00000000000E+00 0. -1.
          2   -1    0    0  502    0  0.00000000000E+00 -0.00000000000E+00 -0.29563980231E+03  0.29563980231E+03  0.00000000000E+00 0.  1.
          6    1    1    2  502    0  0.12593147357E+03  0.18938596230E+02 -0.64239504626E+01  0.21410902270E+03  0.17200000000E+03 0. -1.
         -6    1    1    2    0  501 -0.12593147357E+03 -0.18938596230E+02 -0.12360416858E+03  0.24714246287E+03  0.17200000000E+03 0.  1.
</event>
<event>
 4    1  0.4363334E-001  0.1787713E+03  0.7818608E-02  0.1168997E+00
         -2   -1    0    0    0  501 -0.00000000000E+00  0.00000000000E+00  0.19443880409E+02  0.19443880409E+02  0.00000000000E+00 0.  1.
          2   -1    0    0  502    0  0.00000000000E+00 -0.00000000000E+00 -0.17711649279E+04  0.17711649279E+04  0.00000000000E+00 0. -1.
          6    1    1    2  502    0  0.48623033231E+02  0.33158320940E+01 -0.11160748780E+04  0.11303018744E+04  0.17200000000E+03 0. -1.
         -6    1    1    2    0  501 -0.48623033231E+02 -0.33158320940E+01 -0.63564616955E+03  0.66030693391E+03  0.17200000000E+03 0.  1.
</event>
<event>
 4    1  0.4363334E-001  0.2680693E+03  0.7818608E-02  0.1102390E+00
         -1   -1    0    0    0  501 -0.00000000000E+00  0.00000000000E+00  0.12632448198E+03  0.12632448198E+03  0.00000000000E+00 0.  1.
          1   -1    0    0  502    0  0.00000000000E+00 -0.00000000000E+00 -0.11818785699E+04  0.11818785699E+04  0.00000000000E+00 0. -1.
          6    1    1    2  502    0 -0.70440718066E+02  0.19317154239E+03 -0.99885740857E+03  0.10342036851E+04  0.17200000000E+03 0. -1.
         -6    1    1    2    0  501  0.70440718066E+02 -0.19317154239E+03 -0.56696679326E+02  0.27399936678E+03  0.17200000000E+03 0.  1.
</event>
<event>
 4    1  0.4363334E-001  0.2331511E+03  0.7818608E-02  0.1124441E+00
          2   -1    0    0  502    0  0.00000000000E+00  0.00000000000E+00  0.51908727893E+03  0.51908727893E+03  0.00000000000E+00 0.  1.
         -2   -1    0    0    0  501 -0.00000000000E+00 -0.00000000000E+00 -0.13950226193E+03  0.13950226193E+03  0.00000000000E+00 0. -1.
          6    1    1    2  502    0 -0.79570777142E+02  0.13580833435E+03  0.35421680585E+03  0.42406244564E+03  0.17200000000E+03 0.  1.
         -6    1    1    2    0  501  0.79570777142E+02 -0.13580833435E+03  0.25368211157E+02  0.23452709522E+03  0.17200000000E+03 0. -1.
</event>
<event>
 4    1  0.4363334E-001  0.2261279E+03  0.7818608E-02  0.1129395E+00
         -4   -1    0    0    0  501 -0.00000000000E+00  0.00000000000E+00  0.54769028592E+03  0.54769028592E+03  0.00000000000E+00 0. -1.
          4   -1    0    0  502    0  0.00000000000E+00 -0.00000000000E+00 -0.10441044412E+03  0.10441044412E+03  0.00000000000E+00 0.  1.
          6    1    1    2  502    0  0.32916416980E+02  0.14306056732E+03  0.32769964842E+03  0.39814680208E+03  0.17200000000E+03 0. -1.
         -6    1    1    2    0  501 -0.32916416980E+02 -0.14306056732E+03  0.11558019338E+03  0.25395392797E+03  0.17200000000E+03 0.  1.
</event>
<event>
 4    1  0.4363334E-001  0.1954651E+03  0.7818608E-02  0.1153622E+00
          2   -1    0    0  502    0  0.00000000000E+00  0.00000000000E+00  0.52578736136E+03  0.52578736136E+03  0.00000000000E+00 0. -1.
         -2   -1    0    0    0  501 -0.00000000000E+00 -0.00000000000E+00 -0.73160074522E+02  0.73160074522E+02  0.00000000000E+00 0.  1.
          6    1    1    2  502    0 -0.81962345536E+02 -0.43643839828E+02  0.25093600590E+03  0.31808094866E+03  0.17200000000E+03 0. -1.
         -6    1    1    2    0  501  0.81962345536E+02  0.43643839828E+02  0.20169128094E+03  0.28086648723E+03  0.17200000000E+03 0.  1.
</event>
<event>
 4    1  0.4363334E-001  0.2024677E+03  0.7818608E-02  0.1147674E+00
          1   -1    0    0  502    0  0.00000000000E+00  0.00000000000E+00  0.31804243332E+03  0.31804243332E+03  0.00000000000E+00 0. -1.
         -1   -1    0    0    0  501 -0.00000000000E+00 -0.00000000000E+00 -0.13170031711E+03  0.13170031711E+03  0.00000000000E+00 0.  1.
          6    1    1    2  502    0  0.62639334346E+02  0.86518657499E+02  0.12600736903E+03  0.23847645869E+03  0.17200000000E+03 0.  1.
         -6    1    1    2    0  501 -0.62639334346E+02 -0.86518657499E+02  0.60334747184E+02  0.21126629173E+03  0.17200000000E+03 0. -1.
</event>
<event>
 4    1  0.4363334E-001  0.2089134E+03  0.7818608E-02  0.1142429E+00
          2   -1    0    0  502    0  0.00000000000E+00  0.00000000000E+00  0.20313894954E+03  0.20313894954E+03  0.00000000000E+00 0.  1.
         -2   -1    0    0    0  501 -0.00000000000E+00 -0.00000000000E+00 -0.21541561909E+03  0.21541561909E+03  0.00000000000E+00 0. -1.
          6    1    1    2  502    0 -0.95080155262E+02 -0.70856113624E+02 -0.16842370725E+02  0.20959124556E+03  0.17200000000E+03 0. -1.
         -6    1    1    2    0  501  0.95080155262E+02  0.70856113624E+02  0.45657011844E+01  0.20896332307E+03  0.17200000000E+03 0. -1.
</event>
<event>
 4    1  0.4363334E-001  0.2088788E+03  0.7818608E-02  0.1142457E+00
         -1   -1    0    0    0  501 -0.00000000000E+00  0.00000000000E+00  0.19258953916E+02  0.19258953916E+02  0.00000000000E+00 0.  1.
          1   -1    0    0  502    0  0.00000000000E+00 -0.00000000000E+00 -0.22735779954E+04  0.22735779954E+04  0.00000000000E+00 0. -1.
          6    1    1    2  502    0 -0.11135415348E+03 -0.40578436666E+02 -0.10586488708E+04  0.10790587512E+04  0.17200000000E+03 0.  1.
         -6    1    1    2    0  501  0.11135415348E+03  0.40578436666E+02 -0.11956701707E+04  0.12137781981E+04  0.17200000000E+03 0.  1.
</event>
<event>
 4    1  0.4363334E-001  0.1979308E+03  0.7818608E-02  0.1151497E+00
         -2   -1    0    0    0  501 -0.00000000000E+00  0.00000000000E+00  0.17224021670E+03  0.17224021670E+03  0.00000000000E+00 0. -1.
          2   -1    0    0  502    0  0.00000000000E+00 -0.00000000000E+00 -0.23222497059E+03  0.23222497059E+03  0.00000000000E+00 0.  1.
          6    1    1    2  502    0 -0.92452975091E+02  0.32327116762E+02 -0.10032776519E+01  0.19793332627E+03  0.17200000000E+03 0. -1.
         -6    1    1    2    0  501  0.92452975091E+02 -0.32327116762E+02 -0.58981476239E+02  0.20653186103E+03  0.17200000000E+03 0.  1.
</event>
<event>
 4    1  0.4363334E-001  0.2028085E+03  0.7818608E-02  0.1147391E+00
         -2   -1    0    0    0  501 -0.00000000000E+00  0.00000000000E+00  0.28664528244E+03  0.28664528244E+03  0.00000000000E+00 0. -1.
          2   -1    0    0  502    0  0.00000000000E+00 -0.00000000000E+00 -0.15409320887E+03  0.15409320887E+03  0.00000000000E+00 0.  1.
          6    1    1    2  502    0  0.10427905131E+03 -0.25945253636E+02  0.12407751457E+03  0.23775303646E+03  0.17200000000E+03 0.  1.
         -6    1    1    2    0  501 -0.10427905131E+03  0.25945253636E+02  0.84745590043E+01  0.20298545484E+03  0.17200000000E+03 0.  1.
</event>
<event>
 4    1  0.4363334E-001  0.1973860E+03  0.7818608E-02  0.1151963E+00
         -1   -1    0    0    0  501 -0.00000000000E+00  0.00000000000E+00  0.33708583773E+03  0.33708583773E+03  0.00000000000E+00 0.  1.
          1   -1    0    0  502    0  0.00000000000E+00 -0.00000000000E+00 -0.15454610226E+03  0.15454610226E+03  0.00000000000E+00 0. -1.
          6    1    1    2  502    0  0.74203979114E+02  0.62217436144E+02  0.21469691847E+03  0.29164362959E+03  0.17200000000E+03 0.  1.
         -6    1    1    2    0  501 -0.74203979114E+02 -0.62217436144E+02 -0.32157183002E+02  0.19998831040E+03  0.17200000000E+03 0. -1.
</event>
<event>
 4    1  0.4363334E-001  0.1766594E+03  0.7818608E-02  0.1171076E+00
          1   -1    0    0  502    0  0.00000000000E+00  0.00000000000E+00  0.19784829172E+04  0.19784829172E+04  0.00000000000E+00 0. -1.
         -1   -1    0    0    0  501 -0.00000000000E+00 -0.00000000000E+00 -0.38336199785E+02  0.38336199785E+02  0.00000000000E+00 0.  1.
          6    1    1    2  502    0 -0.99822522882E+01 -0.39049826178E+02  0.19646097564E+03  0.26420720890E+03  0.17200000000E+03 0.  1.
         -6    1    1    2    0  501  0.99822522882E+01  0.39049826178E+02  0.17436857417E+04  0.17526119080E+04  0.17200000000E+03 0. -1.
</event>
<event>
 4    1  0.4363334E-001  0.2563951E+03  0.7818608E-02  0.1109329E+00
          2   -1    0    0  502    0  0.00000000000E+00  0.00000000000E+00  0.14652156788E+04  0.14652156788E+04  0.00000000000E+00 0. -1.
         -2   -1    0    0    0  501 -0.00000000000E+00 -0.00000000000E+00 -0.52989239071E+02  0.52989239071E+02  0.00000000000E+00 0.  1.
          6    1    1    2  502    0  0.12566601882E+03  0.14269725778E+03  0.10033274165E+04  0.10355695826E+04  0.17200000000E+03 0. -1.
         -6    1    1    2    0  501 -0.12566601882E+03 -0.14269725778E+03  0.40889902316E+03  0.48263533523E+03  0.17200000000E+03 0. -1.
</event>
<event>
 4    1  0.4363334E-001  0.2214162E+03  0.7818608E-02  0.1132832E+00
         -2   -1    0    0    0  501 -0.00000000000E+00  0.00000000000E+00  0.38156198976E+03  0.38156198976E+03  0.00000000000E+00 0. -1.
          2   -1    0    0  502    0  0.00000000000E+00 -0.00000000000E+00 -0.13482701912E+03  0.13482701912E+03  0.00000000000E+00 0.  1.
          6    1    1    2  502    0  0.39905894016E+02  0.13359885312E+03  0.67371152338E+02  0.23143899002E+03  0.17200000000E+03 0.  1.
         -6    1    1    2    0  501 -0.39905894016E+02 -0.13359885312E+03  0.17936381830E+03  0.28495001886E+03  0.17200000000E+03 0. -1.
</event>
<event>
 4    1  0.4363334E-001  0.1843821E+03  0.7818608E-02  0.1163628E+00
         -2   -1    0    0    0  501 -0.00000000000E+00  0.00000000000E+00  0.16635744456E+02  0.16635744456E+02  0.00000000000E+00 0. -1.
          2   -1    0    0  502    0  0.00000000000E+00 -0.00000000000E+00 -0.21516656709E+04  0.21516656709E+04  0.00000000000E+00 0.  1.
          6    1    1    2  502    0  0.59564830973E+02 -0.29407438698E+02 -0.82454584866E+03  0.84490983133E+03  0.17200000000E+03 0. -1.
         -6    1    1    2    0  501 -0.59564830973E+02  0.29407438698E+02 -0.13104840778E+04  0.13233915841E+04  0.17200000000E+03 0.  1.
</event>
<event>
 4    1  0.4363334E-001  0.2545073E+03  0.7818608E-02  0.1110489E+00
          2   -1    0    0  502    0  0.00000000000E+00  0.00000000000E+00  0.37231245189E+03  0.37231245189E+03  0.00000000000E+00 0.  1.
         -2   -1    0    0    0  501 -0.00000000000E+00 -0.00000000000E+00 -0.31431997398E+03  0.31431997398E+03  0.00000000000E+00 0. -1.
          6    1    1    2  502    0 -0.29659315301E+02  0.18523037662E+03 -0.20040881399E+03  0.32394082814E+03  0.17200000000E+03 0. -1.
         -6    1    1    2    0  501  0.29659315301E+02 -0.18523037662E+03  0.25840129191E+03  0.36269159774E+03  0.17200000000E+03 0.  1.
</event>
<event>
 4    1  0.4363334E-001  0.2523248E+03  0.7818608E-02  0.1111844E+00
         -1   -1    0    0    0  501 -0.00000000000E+00  0.00000000000E+00  0.39219884550E+02  0.39219884550E+02  0.00000000000E+00 0.  1.
          1   -1    0    0  502    0  0.00000000000E+00 -0.00000000000E+00 -0.16268089243E+04  0.16268089243E+04  0.00000000000E+00 0. -1.
          6    1    1    2  502    0  0.18358046255E+03  0.19545301149E+02 -0.83217634934E+03  0.86958914519E+03  0.17200000000E+03 0. -1.
         -6    1    1    2    0  501 -0.18358046255E+03 -0.19545301149E+02 -0.75541269043E+03  0.79643966369E+03  0.17200000000E+03 0.  1.
</event>
<event>
 4    1  0.4363334E-001  0.2570959E+03  0.7818608E-02  0.1108901E+00
          2   -1    0    0  502    0  0.00000000000E+00  0.00000000000E+00  0.51743661941E+03  0.51743661941E+03  0.00000000000E+00 0. -1.
         -2   -1    0    0    0  501 -0.00000000000E+00 -0.00000000000E+00 -0.13129700295E+03  0.13129700295E+03  0.00000000000E+00 0.  1.
          6    1    1    2  502    0 -0.18871060927E+03  0.30043428533E+02  0.24644497636E+03  0.35613681082E+03  0.17200000000E+03 0. -1.
         -6    1    1    2    0  501  0.18871060927E+03 -0.30043428533E+02  0.13969464010E+03  0.29259681154E+03  0.17200000000E+03 0.  1.
</event>
<event>
 4    1  0.4363334E-001  0.1887576E+03  0.7818608E-02  0.1159587E+00
          3   -1    0    0  502    0  0.00000000000E+00  0.00000000000E+00  0.31804763219E+02  0.31804763219E+02  0.00000000000E+00 0. -1.
         -3   -1    0    0    0  501 -0.00000000000E+00 -0.00000000000E+00 -0.11496491445E+04  0.11496491445E+04  0.00000000000E+00 0.  1.
          6    1    1    2  502    0  0.58846332586E+02  0.50818870815E+02 -0.46446528072E+03  0.50135560782E+03  0.17200000000E+03 0. -1.
         -6    1    1    2    0  501 -0.58846332586E+02 -0.50818870815E+02 -0.65337910059E+03  0.68009829994E+03  0.17200000000E+03 0.  1.
</event>
<event>
 4    1  0.4363334E-001  0.2038339E+03  0.7818608E-02  0.1146544E+00
         -2   -1    0    0    0  501 -0.00000000000E+00  0.00000000000E+00  0.25321993785E+02  0.25321993785E+02  0.00000000000E+00 0. -1.
          2   -1    0    0  502    0  0.00000000000E+00 -0.00000000000E+00 -0.26243509266E+04  0.26243509266E+04  0.00000000000E+00 0.  1.
          6    1    1    2  502    0  0.10735690314E+03  0.20946354195E+02 -0.21105696045E+04  0.21203896599E+04  0.17200000000E+03 0.  1.
         -6    1    1    2    0  501 -0.10735690314E+03 -0.20946354195E+02 -0.48845932834E+03  0.52928326050E+03  0.17200000000E+03 0. -1.
</event>
<event>
 4    1  0.4363334E-001  0.3567838E+03  0.7818608E-02  0.1059865E+00
          1   -1    0    0  502    0  0.00000000000E+00  0.00000000000E+00  0.12239974856E+03  0.12239974856E+03  0.00000000000E+00 0. -1.
         -1   -1    0    0    0  501 -0.00000000000E+00 -0.00000000000E+00 -0.10509929269E+04  0.10509929269E+04  0.00000000000E+00 0.  1.
          6    1    1    2  502    0  0.25886987521E+03  0.17520585281E+03 -0.40427089701E+03  0.53919352863E+03  0.17200000000E+03 0.  1.
         -6    1    1    2    0  501 -0.25886987521E+03 -0.17520585281E+03 -0.52432228137E+03  0.63419914687E+03  0.17200000000E+03 0. -1.
</event>
<event>
 4    1  0.4363334E-001  0.2029192E+03  0.7818608E-02  0.1147299E+00
          1   -1    0    0  502    0  0.00000000000E+00  0.00000000000E+00  0.19703211229E+03  0.19703211229E+03  0.00000000000E+00 0.  1.
         -1   -1    0    0    0  501 -0.00000000000E+00 -0.00000000000E+00 -0.23169400385E+03  0.23169400385E+03  0.00000000000E+00 0. -1.
          6    1    1    2  502    0  0.10699454047E+03 -0.12015356113E+02  0.49783892282E+02  0.20893691968E+03  0.17200000000E+03 0. -1.
         -6    1    1    2    0  501 -0.10699454047E+03  0.12015356113E+02 -0.84445783835E+02  0.21978919646E+03  0.17200000000E+03 0.  1.
</event>
<event>
 4    1  0.4363334E-001  0.2590490E+03  0.7818608E-02  0.1107716E+00
          1   -1    0    0  502    0  0.00000000000E+00  0.00000000000E+00  0.52307299533E+02  0.52307299533E+02  0.00000000000E+00 0.  1.
         -1   -1    0    0    0  501 -0.00000000000E+00 -0.00000000000E+00 -0.12841901277E+04  0.12841901277E+04  0.00000000000E+00 0. -1.
          6    1    1    2  502    0  0.19357322631E+03  0.71958876062E+01 -0.63691071862E+03  0.68757664171E+03  0.17200000000E+03 0.  1.
         -6    1    1    2    0  501 -0.19357322631E+03 -0.71958876062E+01 -0.59497210958E+03  0.64892078555E+03  0.17200000000E+03 0.  1.
</event>
<event>
 4    1  0.4363334E-001  0.2144476E+03  0.7818608E-02  0.1138092E+00
          2   -1    0    0  502    0  0.00000000000E+00  0.00000000000E+00  0.94842804419E+03  0.94842804419E+03  0.00000000000E+00 0.  1.
         -2   -1    0    0    0  501 -0.00000000000E+00 -0.00000000000E+00 -0.50700235999E+02  0.50700235999E+02  0.00000000000E+00 0. -1.
          6    1    1    2  502    0 -0.90221861582E+02  0.90905340237E+02  0.34452121585E+03  0.40581108087E+03  0.17200000000E+03 0. -1.
         -6    1    1    2    0  501  0.90221861582E+02 -0.90905340237E+02  0.55320659234E+03  0.59331719932E+03  0.17200000000E+03 0.  1.
</event>
<event>
 4    1  0.4363334E-001  0.2453139E+03  0.7818608E-02  0.1116303E+00
         -1   -1    0    0    0  501 -0.00000000000E+00  0.00000000000E+00  0.61632830434E+03  0.61632830434E+03  0.00000000000E+00 0. -1.
          1   -1    0    0  502    0  0.00000000000E+00 -0.00000000000E+00 -0.10344358759E+03  0.10344358759E+03  0.00000000000E+00 0.  1.
          6    1    1    2  502    0  0.17358351199E+03 -0.21533608766E+02  0.34167829531E+03  0.42062214567E+03  0.17200000000E+03 0.  1.
         -6    1    1    2    0  501 -0.17358351199E+03  0.21533608766E+02  0.17120642145E+03  0.29914974626E+03  0.17200000000E+03 0.  1.
</event>
<event>
 4    1  0.4363334E-001  0.2242022E+03  0.7818608E-02  0.1130788E+00
          2   -1    0    0  502    0  0.00000000000E+00  0.00000000000E+00  0.16524425883E+03  0.16524425883E+03  0.00000000000E+00 0.  1.
         -2   -1    0    0    0  501 -0.00000000000E+00 -0.00000000000E+00 -0.31174526919E+03  0.31174526919E+03  0.00000000000E+00 0. -1.
          6    1    1    2  502    0 -0.11408717092E+03  0.87559941625E+02 -0.36136804526E+02  0.22709578285E+03  0.17200000000E+03 0. -1.
         -6    1    1    2    0  501  0.11408717092E+03 -0.87559941625E+02 -0.11036420584E+03  0.24989374517E+03  0.17200000000E+03 0. -1.
</event>
<event>
 4    1  0.4363334E-001  0.1781977E+03  0.7818608E-02  0.1169559E+00
         -1   -1    0    0    0  501 -0.00000000000E+00  0.00000000000E+00  0.17188795955E+03  0.17188795955E+03  0.00000000000E+00 0.  1.
          1   -1    0    0  502    0  0.00000000000E+00 -0.00000000000E+00 -0.41972579123E+03  0.41972579123E+03  0.00000000000E+00 0. -1.
          6    1    1    2  502    0  0.32581096856E+02  0.33300299112E+02 -0.34525234392E+03  0.38852750066E+03  0.17200000000E+03 0. -1.
         -6    1    1    2    0  501 -0.32581096856E+02 -0.33300299112E+02  0.97414512238E+02  0.20308625012E+03  0.17200000000E+03 0.  1.
</event>
<event>
 4    1  0.4363334E-001  0.2171802E+03  0.7818608E-02  0.1136003E+00
         -2   -1    0    0    0  501 -0.00000000000E+00  0.00000000000E+00  0.16438743448E+02  0.16438743448E+02  0.00000000000E+00 0.  1.
          2   -1    0    0  502    0  0.00000000000E+00 -0.00000000000E+00 -0.28693856187E+04  0.28693856187E+04  0.00000000000E+00 0. -1.
          6    1    1    2  502    0  0.83544070900E+02 -0.10297397502E+03 -0.14174547931E+04  0.14339962838E+04  0.17200000000E+03 0. -1.
         -6    1    1    2    0  501 -0.83544070900E+02  0.10297397502E+03 -0.14354920822E+04  0.14518280784E+04  0.17200000000E+03 0. -1.
</event>
<event>
 4    1  0.4363334E-001  0.3151985E+03  0.7818608E-02  0.1077881E+00
          2   -1    0    0  502    0  0.00000000000E+00  0.00000000000E+00  0.94117943468E+03  0.94117943468E+03  0.00000000000E+00 0. -1.
         -2   -1    0    0    0  501 -0.00000000000E+00 -0.00000000000E+00 -0.11870456758E+03  0.11870456758E+03  0.00000000000E+00 0.  1.
          6    1    1    2  502    0  0.15709535336E+03 -0.21233738999E+03  0.58758989946E+03  0.66679232688E+03  0.17200000000E+03 0. -1.
         -6    1    1    2    0  501 -0.15709535336E+03  0.21233738999E+03  0.23488496764E+03  0.39309167538E+03  0.17200000000E+03 0.  1.
</event>
<event>
 4    1  0.4363334E-001  0.1987236E+03  0.7818608E-02  0.1150820E+00
          2   -1    0    0  502    0  0.00000000000E+00  0.00000000000E+00  0.78027478976E+02  0.78027478976E+02  0.00000000000E+00 0.  1.
         -2   -1    0    0    0  501 -0.00000000000E+00 -0.00000000000E+00 -0.51890772324E+03  0.51890772324E+03  0.00000000000E+00 0. -1.
          6    1    1    2  502    0 -0.94731127913E+02  0.30546225505E+02 -0.17358098810E+03  0.26385870824E+03  0.17200000000E+03 0.  1.
         -6    1    1    2    0  501  0.94731127913E+02 -0.30546225505E+02 -0.26729925617E+03  0.33307649397E+03  0.17200000000E+03 0.  1.
</event>
<event>
 4    1  0.4363334E-001  0.1880817E+03  0.7818608E-02  0.1160203E+00
          2   -1    0    0  502    0  0.00000000000E+00  0.00000000000E+00  0.80565257272E+03  0.80565257272E+03  0.00000000000E+00 0. -1.
         -2   -1    0    0    0  501 -0.00000000000E+00 -0.00000000000E+00 -0.45132269800E+02  0.45132269800E+02  0.00000000000E+00 0.  1.
          6    1    1    2  502    0  0.52267972255E+02 -0.55306245710E+02  0.31020236353E+03  0.36276745730E+03  0.17200000000E+03 0.  1.
         -6    1    1    2    0  501 -0.52267972255E+02  0.55306245710E+02  0.45031793939E+03  0.48801738522E+03  0.17200000000E+03 0.  1.
</event>
<event>
 4    1  0.4363334E-001  0.2558544E+03  0.7818608E-02  0.1109660E+00
         -2   -1    0    0    0  501 -0.00000000000E+00  0.00000000000E+00  0.62355347250E+02  0.62355347250E+02  0.00000000000E+00 0.  1.
          2   -1    0    0  502    0  0.00000000000E+00 -0.00000000000E+00 -0.10533598675E+04  0.10533598675E+04  0.00000000000E+00 0. -1.
          6    1    1    2  502    0 -0.13745256123E+03 -0.13032377351E+03 -0.46313396836E+03  0.52910732860E+03  0.17200000000E+03 0.  1.
         -6    1    1    2    0  501  0.13745256123E+03  0.13032377351E+03 -0.52787055185E+03  0.58660788611E+03  0.17200000000E+03 0.  1.
</event>
<event>
 4    1  0.4363334E-001  0.4061931E+03  0.7818608E-02  0.1041656E+00
         -2   -1    0    0    0  501 -0.00000000000E+00  0.00000000000E+00  0.88574767868E+02  0.88574767868E+02  0.00000000000E+00 0. -1.
          2   -1    0    0  502    0  0.00000000000E+00 -0.00000000000E+00 -0.18979372578E+04  0.18979372578E+04  0.00000000000E+00 0.  1.
          6    1    1    2  502    0 -0.21001931000E+03  0.30216013564E+03 -0.10399191411E+04  0.11164339112E+04  0.17200000000E+03 0.  1.
         -6    1    1    2    0  501  0.21001931000E+03 -0.30216013564E+03 -0.76944334884E+03  0.87007811443E+03  0.17200000000E+03 0. -1.
</event>
<event>
 4    1  0.4363334E-001  0.1864737E+03  0.7818608E-02  0.1161681E+00
          1   -1    0    0  502    0  0.00000000000E+00  0.00000000000E+00  0.74340978613E+02  0.74340978613E+02  0.00000000000E+00 0.  1.
         -1   -1    0    0    0  501 -0.00000000000E+00 -0.00000000000E+00 -0.60923895551E+03  0.60923895551E+03  0.00000000000E+00 0. -1.
          6    1    1    2  502    0  0.34449149970E+02  0.63258952602E+02 -0.10273208123E+03  0.21289978754E+03  0.17200000000E+03 0.  1.
         -6    1    1    2    0  501 -0.34449149970E+02 -0.63258952602E+02 -0.43216589567E+03  0.47068014659E+03  0.17200000000E+03 0. -1.
</event>
<event>
 4    1  0.4363334E-001  0.2324500E+03  0.7818608E-02  0.1124927E+00
         -1   -1    0    0    0  501 -0.00000000000E+00  0.00000000000E+00  0.54831085617E+02  0.54831085617E+02  0.00000000000E+00 0. -1.
          1   -1    0    0  502    0  0.00000000000E+00 -0.00000000000E+00 -0.11907999930E+04  0.11907999930E+04  0.00000000000E+00 0.  1.
          6    1    1    2  502    0 -0.15627197804E+03  0.52979119689E+01 -0.30934602662E+03  0.38694697722E+03  0.17200000000E+03 0. -1.
         -6    1    1    2    0  501  0.15627197804E+03 -0.52979119689E+01 -0.82662288079E+03  0.85868410142E+03  0.17200000000E+03 0.  1.
</event>
<event>
 4    1  0.4363334E-001  0.1951233E+03  0.7818608E-02  0.1153920E+00
          2   -1    0    0  502    0  0.00000000000E+00  0.00000000000E+00  0.22866057208E+04  0.22866057208E+04  0.00000000000E+00 0.  1.
         -2   -1    0    0    0  501 -0.00000000000E+00 -0.00000000000E+00 -0.19574428330E+02  0.19574428330E+02  0.00000000000E+00 0. -1.
          6    1    1    2  502    0  0.89888126704E+02  0.20229809028E+02  0.68785702379E+03  0.71499678718E+03  0.17200000000E+03 0. -1.
         -6    1    1    2    0  501 -0.89888126704E+02 -0.20229809028E+02  0.15791742687E+04  0.15911833620E+04  0.17200000000E+03 0.  1.
</event>
<event>
 4    1  0.4363334E-001  0.1858078E+03  0.7818608E-02  0.1162298E+00
          1   -1    0    0  502    0  0.00000000000E+00  0.00000000000E+00  0.88564133593E+03  0.88564133593E+03  0.00000000000E+00 0.  1.
         -1   -1    0    0    0  501 -0.00000000000E+00 -0.00000000000E+00 -0.41161075724E+02  0.41161075724E+02  0.00000000000E+00 0. -1.
          6    1    1    2  502    0 -0.70289021898E+02 -0.18347327433E-02  0.31563051090E+03  0.36626106265E+03  0.17200000000E+03 0. -1.
         -6    1    1    2    0  501  0.70289021898E+02  0.18347327433E-02  0.52884974931E+03  0.56054134900E+03  0.17200000000E+03 0.  1.
</event>
<event>
 4    1  0.4363334E-001  0.2182008E+03  0.7818608E-02  0.1135232E+00
         -3   -1    0    0    0  501 -0.00000000000E+00  0.00000000000E+00  0.26322296681E+03  0.26322296681E+03  0.00000000000E+00 0. -1.
          3   -1    0    0  502    0  0.00000000000E+00 -0.00000000000E+00 -0.18089849883E+03  0.18089849883E+03  0.00000000000E+00 0.  1.
          6    1    1    2  502    0  0.12554512031E+02 -0.13367866091E+03  0.38877783363E+02  0.22163727618E+03  0.17200000000E+03 0.  1.
         -6    1    1    2    0  501 -0.12554512031E+02  0.13367866091E+03  0.43446684622E+02  0.22248418946E+03  0.17200000000E+03 0. -1.
</event>
<event>
 4    1  0.4363334E-001  0.1857110E+03  0.7818608E-02  0.1162388E+00
         -2   -1    0    0    0  501 -0.00000000000E+00  0.00000000000E+00  0.12101752549E+02  0.12101752549E+02  0.00000000000E+00 0.  1.
          2   -1    0    0  502    0  0.00000000000E+00 -0.00000000000E+00 -0.45391327259E+04  0.45391327259E+04  0.00000000000E+00 0. -1.
          6    1    1    2  502    0  0.10485366262E+02 -0.69243396300E+02 -0.87529139963E+03  0.89477574012E+03  0.17200000000E+03 0.  1.
         -6    1    1    2    0  501 -0.10485366262E+02  0.69243396300E+02 -0.36517395737E+04  0.36564587383E+04  0.17200000000E+03 0.  1.
</event>
<event>
 4    1  0.4363334E-001  0.1740518E+03  0.7818608E-02  0.1173687E+00
         -2   -1    0    0    0  501 -0.00000000000E+00  0.00000000000E+00  0.12137788554E+02  0.12137788554E+02  0.00000000000E+00 0. -1.
          2   -1    0    0  502    0  0.00000000000E+00 -0.00000000000E+00 -0.30850930962E+04  0.30850930962E+04  0.00000000000E+00 0.  1.
          6    1    1    2  502    0 -0.15250211626E+02 -0.21850681893E+02 -0.22132756709E+04  0.22201088299E+04  0.17200000000E+03 0.  1.
         -6    1    1    2    0  501  0.15250211626E+02  0.21850681893E+02 -0.85967963667E+03  0.87712205477E+03  0.17200000000E+03 0. -1.
</event>
<event>
 4    1  0.4363334E-001  0.2197330E+03  0.7818608E-02  0.1134082E+00
         -2   -1    0    0    0  501 -0.00000000000E+00  0.00000000000E+00  0.51715476945E+03  0.51715476945E+03  0.00000000000E+00 0. -1.
          2   -1    0    0  502    0  0.00000000000E+00 -0.00000000000E+00 -0.12286837627E+03  0.12286837627E+03  0.00000000000E+00 0.  1.
          6    1    1    2  502    0 -0.12525043964E+01  0.13673708181E+03  0.35396398687E+03  0.41662105361E+03  0.17200000000E+03 0.  1.
         -6    1    1    2    0  501  0.12525043964E+01 -0.13673708181E+03  0.40322406312E+02  0.22340209211E+03  0.17200000000E+03 0.  1.
</event>
<event>
 4    1  0.4363334E-001  0.1770126E+03  0.7818608E-02  0.1170726E+00
         -2   -1    0    0    0  501 -0.00000000000E+00  0.00000000000E+00  0.42979674181E+02  0.42979674181E+02  0.00000000000E+00 0. -1.
          2   -1    0    0  502    0  0.00000000000E+00 -0.00000000000E+00 -0.88639673321E+03  0.88639673321E+03  0.00000000000E+00 0.  1.
          6    1    1    2  502    0 -0.18607446088E+02 -0.37459488708E+02 -0.61750494203E+03  0.64237512699E+03  0.17200000000E+03 0.  1.
         -6    1    1    2    0  501  0.18607446088E+02  0.37459488708E+02 -0.22591211699E+03  0.28700128039E+03  0.17200000000E+03 0.  1.
</event>
<event>
 4    1  0.4363334E-001  0.1912813E+03  0.7818608E-02  0.1157311E+00
          2   -1    0    0  502    0  0.00000000000E+00  0.00000000000E+00  0.68923418608E+03  0.68923418608E+03  0.00000000000E+00 0.  1.
         -2   -1    0    0    0  501 -0.00000000000E+00 -0.00000000000E+00 -0.53818768663E+02  0.53818768663E+02  0.00000000000E+00 0. -1.
          6    1    1    2  502    0 -0.51828682393E+02 -0.65713857862E+02  0.36106640556E+03  0.40860429838E+03  0.17200000000E+03 0. -1.
         -6    1    1    2    0  501  0.51828682393E+02  0.65713857862E+02  0.27434901186E+03  0.33444865637E+03  0.17200000000E+03 0. -1.
</event>
<event>
 4    1  0.4363334E-001  0.1839737E+03  0.7818608E-02  0.1164012E+00
          2   -1    0    0  502    0  0.00000000000E+00  0.00000000000E+00  0.99213275586E+01  0.99213275586E+01  0.00000000000E+00 0. -1.
         -2   -1    0    0    0  501 -0.00000000000E+00 -0.00000000000E+00 -0.34845652350E+04  0.34845652350E+04  0.00000000000E+00 0.  1.
          6    1    1    2  502    0 -0.59271834777E+02 -0.27371234989E+02 -0.14842660037E+04  0.14956242525E+04  0.17200000000E+03 0. -1.
         -6    1    1    2    0  501  0.59271834777E+02  0.27371234989E+02 -0.19903779037E+04  0.19988623100E+04  0.17200000000E+03 0.  1.
</event>
<event>
 4    1  0.4363334E-001  0.2198025E+03  0.7818608E-02  0.1134030E+00
          1   -1    0    0  502    0  0.00000000000E+00  0.00000000000E+00  0.12010294674E+04  0.12010294674E+04  0.00000000000E+00 0.  1.
         -1   -1    0    0    0  501 -0.00000000000E+00 -0.00000000000E+00 -0.40928950997E+02  0.40928950997E+02  0.00000000000E+00 0. -1.
          6    1    1    2  502    0 -0.10511212103E+03 -0.87638886400E+02  0.49869413901E+03  0.54498529951E+03  0.17200000000E+03 0.  1.
         -6    1    1    2    0  501  0.10511212103E+03  0.87638886400E+02  0.66140637740E+03  0.69697311890E+03  0.17200000000E+03 0. -1.
</event>
<event>
 4    1  0.4363334E-001  0.1759337E+03  0.7818608E-02  0.1171797E+00
         -1   -1    0    0    0  501 -0.00000000000E+00  0.00000000000E+00  0.65577225574E+02  0.65577225574E+02  0.00000000000E+00 0. -1.
          1   -1    0    0  502    0  0.00000000000E+00 -0.00000000000E+00 -0.76478050196E+03  0.76478050196E+03  0.00000000000E+00 0.  1.
          6    1    1    2  502    0 -0.95286447830E+01 -0.35747499912E+02 -0.60648461504E+03  0.63148734517E+03  0.17200000000E+03 0.  1.
         -6    1    1    2    0  501  0.95286447830E+01  0.35747499912E+02 -0.92718661340E+02  0.19887038237E+03  0.17200000000E+03 0. -1.
</event>
<event>
 4    1  0.4363334E-001  0.1722221E+03  0.7818608E-02  0.1175550E+00
         -4   -1    0    0    0  501 -0.00000000000E+00  0.00000000000E+00  0.78810171114E+03  0.78810171114E+03  0.00000000000E+00 0.  1.
          4   -1    0    0  502    0  0.00000000000E+00 -0.00000000000E+00 -0.42254626005E+02  0.42254626005E+02  0.00000000000E+00 0. -1.
          6    1    1    2  502    0  0.16274170122E+01  0.85907228304E+01  0.23565013781E+03  0.29187572091E+03  0.17200000000E+03 0. -1.
         -6    1    1    2    0  501 -0.16274170122E+01 -0.85907228304E+01  0.51019694733E+03  0.53848061624E+03  0.17200000000E+03 0.  1.
</event>
<event>
 4    1  0.4363334E-001  0.1913210E+03  0.7818608E-02  0.1157275E+00
         -2   -1    0    0    0  501 -0.00000000000E+00  0.00000000000E+00  0.95725538453E+01  0.95725538453E+01  0.00000000000E+00 0. -1.
          2   -1    0    0  502    0  0.00000000000E+00 -0.00000000000E+00 -0.38273397268E+04  0.38273397268E+04  0.00000000000E+00 0.  1.
          6    1    1    2  502    0  0.80207107331E+02 -0.24218692387E+02 -0.18507076833E+04  0.18605705185E+04  0.17200000000E+03 0. -1.
         -6    1    1    2    0  501 -0.80207107331E+02  0.24218692387E+02 -0.19670594896E+04  0.19763417622E+04  0.17200000000E+03 0.  1.
</event>
<event>
 4    1  0.4363334E-001  0.2146939E+03  0.7818608E-02  0.1137902E+00
         -1   -1    0    0    0  501 -0.00000000000E+00  0.00000000000E+00  0.92023947611E+02  0.92023947611E+02  0.00000000000E+00 0.  1.
          1   -1    0    0  502    0  0.00000000000E+00 -0.00000000000E+00 -0.80736443758E+03  0.80736443758E+03  0.00000000000E+00 0. -1.
          6    1    1    2  502    0  0.11848800476E+03  0.49699593416E+02 -0.80604509746E+02  0.22932628251E+03  0.17200000000E+03 0.  1.
         -6    1    1    2    0  501 -0.11848800476E+03 -0.49699593416E+02 -0.63473598022E+03  0.67006210268E+03  0.17200000000E+03 0. -1.
</event>
<event>
 4    1  0.4363334E-001  0.1744880E+03  0.7818608E-02  0.1173247E+00
         -2   -1    0    0    0  501 -0.00000000000E+00  0.00000000000E+00  0.27369727589E+02  0.27369727589E+02  0.00000000000E+00 0. -1.
          2   -1    0    0  502    0  0.00000000000E+00 -0.00000000000E+00 -0.16488420372E+04  0.16488420372E+04  0.00000000000E+00 0.  1.
          6    1    1    2  502    0  0.28407487942E+02 -0.74216676845E+01 -0.33268866991E+03  0.37566982526E+03  0.17200000000E+03 0. -1.
         -6    1    1    2    0  501 -0.28407487942E+02  0.74216676845E+01 -0.12887836397E+04  0.13005419396E+04  0.17200000000E+03 0.  1.
</event>
<event>
 4    1  0.4363334E-001  0.3065080E+03  0.7818608E-02  0.1082032E+00
          2   -1    0    0  502    0  0.00000000000E+00  0.00000000000E+00  0.51110054596E+03  0.51110054596E+03  0.00000000000E+00 0. -1.
         -2   -1    0    0    0  501 -0.00000000000E+00 -0.00000000000E+00 -0.20275933487E+03  0.20275933487E+03  0.00000000000E+00 0.  1.
          6    1    1    2  502    0  0.25358929683E+03  0.74596294667E+01  0.26327681908E+03  0.40405675468E+03  0.17200000000E+03 0. -1.
         -6    1    1    2    0  501 -0.25358929683E+03 -0.74596294667E+01  0.45064392014E+02  0.30980312614E+03  0.17200000000E+03 0.  1.
</event>
<event>
 4    1  0.4363334E-001  0.2316274E+03  0.7818608E-02  0.1125500E+00
          2   -1    0    0  502    0  0.00000000000E+00  0.00000000000E+00  0.17331312336E+04  0.17331312336E+04  0.00000000000E+00 0.  1.
         -2   -1    0    0    0  501 -0.00000000000E+00 -0.00000000000E+00 -0.33510477704E+02  0.33510477704E+02  0.00000000000E+00 0. -1.
          6    1    1    2  502    0  0.15281742318E+03 -0.26722044550E+02  0.60594029116E+03  0.64870245024E+03  0.17200000000E+03 0. -1.
         -6    1    1    2    0  501 -0.15281742318E+03  0.26722044550E+02  0.10936804647E+04  0.11179392611E+04  0.17200000000E+03 0. -1.
</event>
<event>
 4    1  0.4363334E-001  0.2202215E+03  0.7818608E-02  0.1133718E+00
         -2   -1    0    0    0  501 -0.00000000000E+00  0.00000000000E+00  0.12690102400E+03  0.12690102400E+03  0.00000000000E+00 0. -1.
          2   -1    0    0  502    0  0.00000000000E+00 -0.00000000000E+00 -0.95865062864E+03  0.95865062864E+03  0.00000000000E+00 0.  1.
          6    1    1    2  502    0  0.12347933296E+03 -0.60550463088E+02 -0.83677918484E+03  0.86527273644E+03  0.17200000000E+03 0.  1.
         -6    1    1    2    0  501 -0.12347933296E+03  0.60550463088E+02  0.50295801895E+01  0.22027891621E+03  0.17200000000E+03 0. -1.
</event>
<event>
 4    1  0.4363334E-001  0.2553614E+03  0.7818608E-02  0.1109963E+00
          2   -1    0    0  502    0  0.00000000000E+00  0.00000000000E+00  0.65313123022E+03  0.65313123022E+03  0.00000000000E+00 0. -1.
         -2   -1    0    0    0  501 -0.00000000000E+00 -0.00000000000E+00 -0.14319033587E+03  0.14319033587E+03  0.00000000000E+00 0.  1.
          6    1    1    2  502    0  0.14337276148E+03 -0.12275876912E+03  0.47404473207E+03  0.53844950751E+03  0.17200000000E+03 0. -1.
         -6    1    1    2    0  501 -0.14337276148E+03  0.12275876912E+03  0.35896162287E+02  0.25787205858E+03  0.17200000000E+03 0.  1.
</event>
<event>
 4    1  0.4363334E-001  0.3100746E+03  0.7818608E-02  0.1080310E+00
         -2   -1    0    0    0  501 -0.00000000000E+00  0.00000000000E+00  0.30544073824E+03  0.30544073824E+03  0.00000000000E+00 0.  1.
          2   -1    0    0  502    0  0.00000000000E+00 -0.00000000000E+00 -0.48738688209E+03  0.48738688209E+03  0.00000000000E+00 0. -1.
          6    1    1    2  502    0  0.25694445173E+03 -0.23276294461E+02  0.14493486507E+03  0.34227525805E+03  0.17200000000E+03 0.  1.
         -6    1    1    2    0  501 -0.25694445173E+03  0.23276294461E+02 -0.32688100892E+03  0.45055236228E+03  0.17200000000E+03 0. -1.
</event>
<event>
 4    1  0.4363334E-001  0.2170046E+03  0.7818608E-02  0.1136136E+00
         -2   -1    0    0    0  501 -0.00000000000E+00  0.00000000000E+00  0.17112954421E+03  0.17112954421E+03  0.00000000000E+00 0. -1.
          2   -1    0    0  502    0  0.00000000000E+00 -0.00000000000E+00 -0.33614242755E+03  0.33614242755E+03  0.00000000000E+00 0.  1.
          6    1    1    2  502    0  0.10908157337E+03  0.74887975775E+02 -0.19052273481E+03  0.28877311344E+03  0.17200000000E+03 0.  1.
         -6    1    1    2    0  501 -0.10908157337E+03 -0.74887975775E+02  0.25509851469E+02  0.21849885832E+03  0.17200000000E+03 0. -1.
</event>
<event>
 4    1  0.4363334E-001  0.1759894E+03  0.7818608E-02  0.1171742E+00
         -1   -1    0    0    0  501 -0.00000000000E+00  0.00000000000E+00  0.57246224914E+02  0.57246224914E+02  0.00000000000E+00 0. -1.
          1   -1    0    0  502    0  0.00000000000E+00 -0.00000000000E+00 -0.64318159051E+03  0.64318159051E+03  0.00000000000E+00 0.  1.
          6    1    1    2  502    0 -0.36271550111E+02 -0.85236795023E+01 -0.43253252523E+03  0.46696537756E+03  0.17200000000E+03 0.  1.
         -6    1    1    2    0  501  0.36271550111E+02  0.85236795023E+01 -0.15340284037E+03  0.23346243786E+03  0.17200000000E+03 0. -1.
</event>
<event>
 4    1  0.4363334E-001  0.1893670E+03  0.7818608E-02  0.1159034E+00
         -2   -1    0    0    0  501 -0.00000000000E+00  0.00000000000E+00  0.70519292142E+03  0.70519292142E+03  0.00000000000E+00 0.  1.
          2   -1    0    0  502    0  0.00000000000E+00 -0.00000000000E+00 -0.57110091554E+02  0.57110091554E+02  0.00000000000E+00 0. -1.
          6    1    1    2  502    0  0.78291697473E+02 -0.12093974409E+02  0.19786084266E+03  0.27387728487E+03  0.17200000000E+03 0. -1.
         -6    1    1    2    0  501 -0.78291697473E+02  0.12093974409E+02  0.45022198721E+03  0.48842572811E+03  0.17200000000E+03 0.  1.
</event>
<event>
 4    1  0.4363334E-001  0.2011262E+03  0.7818608E-02  0.1148792E+00
         -3   -1    0    0    0  501 -0.00000000000E+00  0.00000000000E+00  0.43069786456E+02  0.43069786456E+02  0.00000000000E+00 0. -1.
          3   -1    0    0  502    0  0.00000000000E+00 -0.00000000000E+00 -0.98721010300E+03  0.98721010300E+03  0.00000000000E+00 0.  1.
          6    1    1    2  502    0  0.84479112067E+02 -0.61082177824E+02 -0.35848469681E+03  0.41105112902E+03  0.17200000000E+03 0. -1.
         -6    1    1    2    0  501 -0.84479112067E+02  0.61082177824E+02 -0.58565561973E+03  0.61922876043E+03  0.17200000000E+03 0.  1.
</event>
<event>
 4    1  0.4363334E-001  0.2109997E+03  0.7818608E-02  0.1140777E+00
         -2   -1    0    0    0  501 -0.00000000000E+00  0.00000000000E+00  0.67702805345E+02  0.67702805345E+02  0.00000000000E+00 0. -1.
          2   -1    0    0  502    0  0.00000000000E+00 -0.00000000000E+00 -0.14806055358E+04  0.14806055358E+04  0.00000000000E+00 0.  1.
          6    1    1    2  502    0  0.29611248712E+02 -0.11857501464E+03 -0.12927157199E+03  0.24745100418E+03  0.17200000000E+03 0. -1.
         -6    1    1    2    0  501 -0.29611248712E+02  0.11857501464E+03 -0.12836311585E+04  0.13008573370E+04  0.17200000000E+03 0.  1.
</event>
<event>
 4    1  0.4363334E-001  0.2360136E+03  0.7818608E-02  0.1122477E+00
          2   -1    0    0  502    0  0.00000000000E+00  0.00000000000E+00  0.91150127685E+03  0.91150127685E+03  0.00000000000E+00 0.  1.
         -2   -1    0    0    0  501 -0.00000000000E+00 -0.00000000000E+00 -0.80435007511E+02  0.80435007511E+02  0.00000000000E+00 0. -1.
          6    1    1    2  502    0  0.15959144611E+03 -0.25474865619E+02  0.65863271904E+03  0.69964237796E+03  0.17200000000E+03 0.  1.
         -6    1    1    2    0  501 -0.15959144611E+03  0.25474865619E+02  0.17243355029E+03  0.29229390639E+03  0.17200000000E+03 0. -1.
</event>
<event>
 4    1  0.4363334E-001  0.1721738E+03  0.7818608E-02  0.1175600E+00
         -4   -1    0    0    0  501 -0.00000000000E+00  0.00000000000E+00  0.41856191688E+02  0.41856191688E+02  0.00000000000E+00 0. -1.
          4   -1    0    0  502    0  0.00000000000E+00 -0.00000000000E+00 -0.10439573366E+04  0.10439573366E+04  0.00000000000E+00 0.  1.
          6    1    1    2  502    0  0.12155154177E+01 -0.76372441851E+01 -0.19317352195E+03  0.25876594552E+03  0.17200000000E+03 0. -1.
         -6    1    1    2    0  501 -0.12155154177E+01  0.76372441851E+01 -0.80892762299E+03  0.82704758280E+03  0.17200000000E+03 0.  1.
</event>
<event>
 4    1  0.4363334E-001  0.3097996E+03  0.7818608E-02  0.1080442E+00
          4   -1    0    0  502    0  0.00000000000E+00  0.00000000000E+00  0.41336559104E+03  0.41336559104E+03  0.00000000000E+00 0.  1.
         -4   -1    0    0    0  501 -0.00000000000E+00 -0.00000000000E+00 -0.30805235706E+03  0.30805235706E+03  0.00000000000E+00 0. -1.
          6    1    1    2  502    0  0.69148465646E+02  0.24821424238E+03  0.23166869350E+03  0.38684131627E+03  0.17200000000E+03 0.  1.
         -6    1    1    2    0  501 -0.69148465646E+02 -0.24821424238E+03 -0.12635545952E+03  0.33457663184E+03  0.17200000000E+03 0. -1.
</event>
<event>
 4    1  0.4363334E-001  0.1739925E+03  0.7818608E-02  0.1173747E+00
         -2   -1    0    0    0  501 -0.00000000000E+00  0.00000000000E+00  0.19720513311E+02  0.19720513311E+02  0.00000000000E+00 0. -1.
          2   -1    0    0  502    0  0.00000000000E+00 -0.00000000000E+00 -0.19709553226E+04  0.19709553226E+04  0.00000000000E+00 0.  1.
          6    1    1    2  502    0  0.22015083097E+02  0.14307802036E+02 -0.50756681309E+03  0.53656075783E+03  0.17200000000E+03 0. -1.
         -6    1    1    2    0  501 -0.22015083097E+02 -0.14307802036E+02 -0.14436679962E+04  0.14541150781E+04  0.17200000000E+03 0.  1.
</event>
<event>
 4    1  0.4363334E-001  0.2040137E+03  0.7818608E-02  0.1146396E+00
         -2   -1    0    0    0  501 -0.00000000000E+00  0.00000000000E+00  0.35491216812E+02  0.35491216812E+02  0.00000000000E+00 0.  1.
          2   -1    0    0  502    0  0.00000000000E+00 -0.00000000000E+00 -0.11765311912E+04  0.11765311912E+04  0.00000000000E+00 0. -1.
          6    1    1    2  502    0  0.10844422435E+03 -0.16656426846E+02 -0.60496960450E+03  0.63844326978E+03  0.17200000000E+03 0.  1.
         -6    1    1    2    0  501 -0.10844422435E+03  0.16656426846E+02 -0.53607036987E+03  0.57357913822E+03  0.17200000000E+03 0. -1.
</event>
<event>
 4    1  0.4363334E-001  0.1782202E+03  0.7818608E-02  0.1169537E+00
         -2   -1    0    0    0  501 -0.00000000000E+00  0.00000000000E+00  0.16886260989E+02  0.16886260989E+02  0.00000000000E+00 0.  1.
          2   -1    0    0  502    0  0.00000000000E+00 -0.00000000000E+00 -0.19470144883E+04  0.19470144883E+04  0.00000000000E+00 0. -1.
          6    1    1    2  502    0 -0.43938907250E+02  0.15742058147E+02 -0.11459250299E+04  0.11597010882E+04  0.17200000000E+03 0. -1.
         -6    1    1    2    0  501  0.43938907250E+02 -0.15742058147E+02 -0.78420319739E+03  0.80419966100E+03  0.17200000000E+03 0.  1.
</event>
<event>
 4    1  0.4363334E-001  0.3368814E+03  0.7818608E-02  0.1068132E+00
         -3   -1    0    0    0  501 -0.00000000000E+00  0.00000000000E+00  0.48033963234E+03  0.48033963234E+03  0.00000000000E+00 0.  1.
          3   -1    0    0  502    0  0.00000000000E+00 -0.00000000000E+00 -0.23656575811E+03  0.23656575811E+03  0.00000000000E+00 0. -1.
          6    1    1    2  502    0  0.12932025761E+03  0.25919365989E+03  0.10917865830E+03  0.35413141880E+03  0.17200000000E+03 0.  1.
         -6    1    1    2    0  501 -0.12932025761E+03 -0.25919365989E+03  0.13459521593E+03  0.36277397165E+03  0.17200000000E+03 0. -1.
</event>
<event>
 4    1  0.4363334E-001  0.2871314E+03  0.7818608E-02  0.1091856E+00
         -1   -1    0    0    0  501 -0.00000000000E+00  0.00000000000E+00  0.21991145823E+03  0.21991145823E+03  0.00000000000E+00 0. -1.
          1   -1    0    0  502    0  0.00000000000E+00 -0.00000000000E+00 -0.38180079059E+03  0.38180079059E+03  0.00000000000E+00 0.  1.
          6    1    1    2  502    0 -0.19164966924E+03  0.12700736120E+03 -0.12139653024E+03  0.31173960780E+03  0.17200000000E+03 0.  1.
         -6    1    1    2    0  501  0.19164966924E+03 -0.12700736120E+03 -0.40492802113E+02  0.28997264102E+03  0.17200000000E+03 0. -1.
</event>
<event>
 4    1  0.4363334E-001  0.2520471E+03  0.7818608E-02  0.1112018E+00
          2   -1    0    0  502    0  0.00000000000E+00  0.00000000000E+00  0.22843232515E+04  0.22843232515E+04  0.00000000000E+00 0. -1.
         -2   -1    0    0    0  501 -0.00000000000E+00 -0.00000000000E+00 -0.65498122061E+02  0.65498122061E+02  0.00000000000E+00 0.  1.
          6    1    1    2  502    0 -0.62030913630E+01 -0.18413385399E+03  0.21818040292E+03  0.33336232953E+03  0.17200000000E+03 0.  1.
         -6    1    1    2    0  501  0.62030913630E+01  0.18413385399E+03  0.20006447265E+04  0.20164590440E+04  0.17200000000E+03 0. -1.
</event>
<event>
 4    1  0.4363334E-001  0.1882516E+03  0.7818608E-02  0.1160048E+00
         -2   -1    0    0    0  501 -0.00000000000E+00  0.00000000000E+00  0.24019322393E+03  0.24019322393E+03  0.00000000000E+00 0. -1.
          2   -1    0    0  502    0  0.00000000000E+00 -0.00000000000E+00 -0.20442296474E+03  0.20442296474E+03  0.00000000000E+00 0.  1.
          6    1    1    2  502    0 -0.31134631665E+02  0.69894800694E+02 -0.99381099768E+02  0.21287379229E+03  0.17200000000E+03 0.  1.
         -6    1    1    2    0  501  0.31134631665E+02 -0.69894800694E+02  0.13515135896E+03  0.23174239638E+03  0.17200000000E+03 0. -1.
</event>
<event>
 4    1  0.4363334E-001  0.1766507E+03  0.7818608E-02  0.1171084E+00
         -2   -1    0    0    0  501 -0.00000000000E+00  0.00000000000E+00  0.68281929491E+03  0.68281929491E+03  0.00000000000E+00 0. -1.
          2   -1    0    0  502    0  0.00000000000E+00 -0.00000000000E+00 -0.47703127591E+02  0.47703127591E+02  0.00000000000E+00 0.  1.
          6    1    1    2  502    0  0.31126525229E+02  0.25546005492E+02  0.39238992422E+03  0.43032001069E+03  0.17200000000E+03 0. -1.
         -6    1    1    2    0  501 -0.31126525229E+02 -0.25546005492E+02  0.24272624310E+03  0.30020241182E+03  0.17200000000E+03 0.  1.
</event>
<event>
 4    1  0.4363334E-001  0.2553015E+03  0.7818608E-02  0.1109999E+00
         -1   -1    0    0    0  501 -0.00000000000E+00  0.00000000000E+00  0.60720552003E+02  0.60720552003E+02  0.00000000000E+00 0.  1.
          1   -1    0    0  502    0  0.00000000000E+00 -0.00000000000E+00 -0.10890836694E+04  0.10890836694E+04  0.00000000000E+00 0. -1.
          6    1    1    2  502    0  0.13585319710E+02  0.18817628291E+03 -0.58311975742E+03  0.63655912990E+03  0.17200000000E+03 0.  1.
         -6    1    1    2    0  501 -0.13585319710E+02 -0.18817628291E+03 -0.44524336003E+03  0.51324509156E+03  0.17200000000E+03 0.  1.
</event>
<event>
 4    1  0.4363334E-001  0.1959174E+03  0.7818608E-02  0.1153230E+00
          1   -1    0    0  502    0  0.00000000000E+00  0.00000000000E+00  0.12048623316E+04  0.12048623316E+04  0.00000000000E+00 0. -1.
         -1   -1    0    0    0  501 -0.00000000000E+00 -0.00000000000E+00 -0.50596443047E+02  0.50596443047E+02  0.00000000000E+00 0.  1.
          6    1    1    2  502    0  0.70351822441E+02  0.62050271562E+02  0.95915441262E+03  0.97895904019E+03  0.17200000000E+03 0. -1.
         -6    1    1    2    0  501 -0.70351822441E+02 -0.62050271562E+02  0.19511147598E+03  0.27649973450E+03  0.17200000000E+03 0.  1.
</event>
<event>
 4    1  0.4363334E-001  0.1777644E+03  0.7818608E-02  0.1169984E+00
         -2   -1    0    0    0  501 -0.00000000000E+00  0.00000000000E+00  0.34927172207E+03  0.34927172207E+03  0.00000000000E+00 0.  1.
          2   -1    0    0  502    0  0.00000000000E+00 -0.00000000000E+00 -0.14474871647E+03  0.14474871647E+03  0.00000000000E+00 0. -1.
          6    1    1    2  502    0 -0.22478060379E+01 -0.44845764547E+02 -0.48991574016E+02  0.18439189124E+03  0.17200000000E+03 0. -1.
         -6    1    1    2    0  501  0.22478060379E+01  0.44845764547E+02  0.25351457961E+03  0.30962854730E+03  0.17200000000E+03 0.  1.
</event>
<event>
 4    1  0.4363334E-001  0.2055312E+03  0.7818608E-02  0.1145154E+00
         -3   -1    0    0    0  501 -0.00000000000E+00  0.00000000000E+00  0.29344457001E+03  0.29344457001E+03  0.00000000000E+00 0.  1.
          3   -1    0    0  502    0  0.00000000000E+00 -0.00000000000E+00 -0.35189801833E+03  0.35189801833E+03  0.00000000000E+00 0. -1.
          6    1    1    2  502    0 -0.84716029100E+02 -0.74042373336E+02 -0.27726753770E+03  0.34513818406E+03  0.17200000000E+03 0. -1.
         -6    1    1    2    0  501  0.84716029100E+02  0.74042373336E+02  0.21881408938E+03  0.30020440427E+03  0.17200000000E+03 0.  1.
</event>
<event>
 4    1  0.4363334E-001  0.1725935E+03  0.7818608E-02  0.1175170E+00
         -2   -1    0    0    0  501 -0.00000000000E+00  0.00000000000E+00  0.92630242291E+02  0.92630242291E+02  0.00000000000E+00 0. -1.
          2   -1    0    0  502    0  0.00000000000E+00 -0.00000000000E+00 -0.48420885652E+03  0.48420885652E+03  0.00000000000E+00 0.  1.
          6    1    1    2  502    0 -0.56730166627E+01 -0.13128091070E+02 -0.28641772305E+02  0.17495393969E+03  0.17200000000E+03 0. -1.
         -6    1    1    2    0  501  0.56730166627E+01  0.13128091070E+02 -0.36293684192E+03  0.40188515911E+03  0.17200000000E+03 0.  1.
</event>
<event>
 4    1  0.4363334E-001  0.1969387E+03  0.7818608E-02  0.1152348E+00
         -2   -1    0    0    0  501 -0.00000000000E+00  0.00000000000E+00  0.25340911134E+02  0.25340911134E+02  0.00000000000E+00 0.  1.
          2   -1    0    0  502    0  0.00000000000E+00 -0.00000000000E+00 -0.15641929775E+04  0.15641929775E+04  0.00000000000E+00 0. -1.
          6    1    1    2  502    0  0.46427463216E+02  0.83936576588E+02 -0.65282208129E+03  0.68188087526E+03  0.17200000000E+03 0. -1.
         -6    1    1    2    0  501 -0.46427463216E+02 -0.83936576588E+02 -0.88602998511E+03  0.90765301340E+03  0.17200000000E+03 0.  1.
</event>
<event>
 4    1  0.4363334E-001  0.5494248E+03  0.7818608E-02  0.1001627E+00
         -1   -1    0    0    0  501 -0.00000000000E+00  0.00000000000E+00  0.80174321455E+03  0.80174321455E+03  0.00000000000E+00 0. -1.
          1   -1    0    0  502    0  0.00000000000E+00 -0.00000000000E+00 -0.92680346310E+03  0.92680346310E+03  0.00000000000E+00 0.  1.
          6    1    1    2  502    0 -0.14222504044E+03 -0.50205141780E+03  0.60343712053E+03  0.81609064857E+03  0.17200000000E+03 0. -1.
         -6    1    1    2    0  501  0.14222504044E+03  0.50205141780E+03 -0.72849736909E+03  0.91245602908E+03  0.17200000000E+03 0.  1.
</event>
<event>
 4    1  0.4363334E-001  0.2876185E+03  0.7818608E-02  0.1091599E+00
         -3   -1    0    0    0  501 -0.00000000000E+00  0.00000000000E+00  0.11933480354E+04  0.11933480354E+04  0.00000000000E+00 0. -1.
          3   -1    0    0  502    0  0.00000000000E+00 -0.00000000000E+00 -0.75297082708E+02  0.75297082708E+02  0.00000000000E+00 0.  1.
          6    1    1    2  502    0 -0.19268216411E+03 -0.12654646955E+03  0.38032782643E+03  0.47683716390E+03  0.17200000000E+03 0.  1.
         -6    1    1    2    0  501  0.19268216411E+03  0.12654646955E+03  0.73772312627E+03  0.79180795421E+03  0.17200000000E+03 0. -1.
</event>
<event>
 4    1  0.4363334E-001  0.1772618E+03  0.7818608E-02  0.1170480E+00
         -2   -1    0    0    0  501 -0.00000000000E+00  0.00000000000E+00  0.94139535408E+02  0.94139535408E+02  0.00000000000E+00 0. -1.
          2   -1    0    0  502    0  0.00000000000E+00 -0.00000000000E+00 -0.43060945378E+03  0.43060945378E+03  0.00000000000E+00 0.  1.
          6    1    1    2  502    0  0.31454071848E+01 -0.42753527648E+02 -0.29265399331E+03  0.34215218472E+03  0.17200000000E+03 0.  1.
         -6    1    1    2    0  501 -0.31454071848E+01  0.42753527648E+02 -0.43815925070E+02  0.18259680447E+03  0.17200000000E+03 0. -1.
</event>
<event>
 4    1  0.4363334E-001  0.2049509E+03  0.7818608E-02  0.1145628E+00
          1   -1    0    0  502    0  0.00000000000E+00  0.00000000000E+00  0.51798463075E+03  0.51798463075E+03  0.00000000000E+00 0.  1.
         -1   -1    0    0    0  501 -0.00000000000E+00 -0.00000000000E+00 -0.84567295835E+02  0.84567295835E+02  0.00000000000E+00 0. -1.
          6    1    1    2  502    0  0.10958305616E+03  0.20308678866E+02  0.15564240096E+03  0.25735082205E+03  0.17200000000E+03 0. -1.
         -6    1    1    2    0  501 -0.10958305616E+03 -0.20308678866E+02  0.27777493395E+03  0.34520110453E+03  0.17200000000E+03 0.  1.
</event>
<event>
 4    1  0.4363334E-001  0.1873303E+03  0.7818608E-02  0.1160892E+00
         -1   -1    0    0    0  501 -0.00000000000E+00  0.00000000000E+00  0.10136393543E+03  0.10136393543E+03  0.00000000000E+00 0. -1.
          1   -1    0    0  502    0  0.00000000000E+00 -0.00000000000E+00 -0.48245774470E+03  0.48245774470E+03  0.00000000000E+00 0.  1.
          6    1    1    2  502    0  0.70175236538E+02  0.24167323079E+02 -0.35417388920E+02  0.19064893067E+03  0.17200000000E+03 0. -1.
         -6    1    1    2    0  501 -0.70175236538E+02 -0.24167323079E+02 -0.34567642036E+03  0.39317274946E+03  0.17200000000E+03 0.  1.
</event>
<event>
 4    1  0.4363334E-001  0.1750775E+03  0.7818608E-02  0.1172654E+00
         -2   -1    0    0    0  501 -0.00000000000E+00  0.00000000000E+00  0.11791802174E+03  0.11791802174E+03  0.00000000000E+00 0. -1.
          2   -1    0    0  502    0  0.00000000000E+00 -0.00000000000E+00 -0.29915551005E+03  0.29915551005E+03  0.00000000000E+00 0.  1.
          6    1    1    2  502    0 -0.27314007441E+02  0.17946156361E+02 -0.15120098090E+02  0.17572915779E+03  0.17200000000E+03 0. -1.
         -6    1    1    2    0  501  0.27314007441E+02 -0.17946156361E+02 -0.16611739021E+03  0.24134437400E+03  0.17200000000E+03 0. -1.
</event>
<event>
 4    1  0.4363334E-001  0.2656884E+03  0.7818608E-02  0.1103773E+00
         -1   -1    0    0    0  501 -0.00000000000E+00  0.00000000000E+00  0.48091826616E+02  0.48091826616E+02  0.00000000000E+00 0.  1.
          1   -1    0    0  502    0  0.00000000000E+00 -0.00000000000E+00 -0.24321371745E+04  0.24321371745E+04  0.00000000000E+00 0. -1.
          6    1    1    2  502    0  0.30741967306E+02  0.20015312895E+03 -0.19728891415E+04  0.19906988492E+04  0.17200000000E+03 0. -1.
         -6    1    1    2    0  501 -0.30741967306E+02 -0.20015312895E+03 -0.41115620639E+03  0.48953015192E+03  0.17200000000E+03 0.  1.
</event>
<event>
 4    1  0.4363334E-001  0.1960832E+03  0.7818608E-02  0.1153086E+00
         -1   -1    0    0    0  501 -0.00000000000E+00  0.00000000000E+00  0.22707243791E+02  0.22707243791E+02  0.00000000000E+00 0. -1.
          1   -1    0    0  502    0  0.00000000000E+00 -0.00000000000E+00 -0.17662720718E+04  0.17662720718E+04  0.00000000000E+00 0.  1.
          6    1    1    2  502    0 -0.12135249963E+02 -0.93366816551E+02 -0.10536803559E+04  0.10717699936E+04  0.17200000000E+03 0. -1.
         -6    1    1    2    0  501  0.12135249963E+02  0.93366816551E+02 -0.68988447207E+03  0.71720932198E+03  0.17200000000E+03 0. -1.
</event>
<event>
 4    1  0.4363334E-001  0.1811581E+03  0.7818608E-02  0.1166687E+00
          1   -1    0    0  502    0  0.00000000000E+00  0.00000000000E+00  0.43537933114E+03  0.43537933114E+03  0.00000000000E+00 0.  1.
         -1   -1    0    0    0  501 -0.00000000000E+00 -0.00000000000E+00 -0.92944175351E+02  0.92944175351E+02  0.00000000000E+00 0. -1.
          6    1    1    2  502    0 -0.55766397093E+02 -0.11152010108E+02  0.56378213739E+02  0.18972812485E+03  0.17200000000E+03 0. -1.
         -6    1    1    2    0  501  0.55766397093E+02  0.11152010108E+02  0.28605694205E+03  0.33859538164E+03  0.17200000000E+03 0.  1.
</event>
<event>
 4    1  0.4363334E-001  0.1805150E+03  0.7818608E-02  0.1167306E+00
          1   -1    0    0  502    0  0.00000000000E+00  0.00000000000E+00  0.22310063746E+03  0.22310063746E+03  0.00000000000E+00 0.  1.
         -1   -1    0    0    0  501 -0.00000000000E+00 -0.00000000000E+00 -0.15310457769E+03  0.15310457769E+03  0.00000000000E+00 0. -1.
          6    1    1    2  502    0  0.39662701683E+02  0.37795756986E+02  0.75352124368E+02  0.19561081718E+03  0.17200000000E+03 0.  1.
         -6    1    1    2    0  501 -0.39662701683E+02 -0.37795756986E+02 -0.53560646038E+01  0.18059439797E+03  0.17200000000E+03 0. -1.
</event>
<event>
 4    1  0.4363334E-001  0.1821338E+03  0.7818608E-02  0.1165754E+00
          2   -1    0    0  502    0  0.00000000000E+00  0.00000000000E+00  0.29488031887E+04  0.29488031887E+04  0.00000000000E+00 0. -1.
         -2   -1    0    0    0  501 -0.00000000000E+00 -0.00000000000E+00 -0.19139677984E+02  0.19139677984E+02  0.00000000000E+00 0.  1.
          6    1    1    2  502    0 -0.33309677099E+01 -0.59813350885E+02  0.24176279922E+04  0.24244788803E+04  0.17200000000E+03 0. -1.
         -6    1    1    2    0  501  0.33309677099E+01  0.59813350885E+02  0.51203551854E+03  0.54346398642E+03  0.17200000000E+03 0.  1.
</event>
<event>
 4    1  0.4363334E-001  0.1739184E+03  0.7818608E-02  0.1173822E+00
          2   -1    0    0  502    0  0.00000000000E+00  0.00000000000E+00  0.41427423230E+03  0.41427423230E+03  0.00000000000E+00 0. -1.
         -2   -1    0    0    0  501 -0.00000000000E+00 -0.00000000000E+00 -0.13189033548E+03  0.13189033548E+03  0.00000000000E+00 0.  1.
          6    1    1    2  502    0 -0.18878873583E+02  0.17527096916E+02 -0.41264524646E+02  0.17874666987E+03  0.17200000000E+03 0.  1.
         -6    1    1    2    0  501  0.18878873583E+02 -0.17527096916E+02  0.32364842147E+03  0.36741789792E+03  0.17200000000E+03 0. -1.
</event>
<event>
 4    1  0.4363334E-001  0.3158361E+03  0.7818608E-02  0.1077582E+00
          1   -1    0    0  502    0  0.00000000000E+00  0.00000000000E+00  0.93645716117E+03  0.93645716117E+03  0.00000000000E+00 0.  1.
         -1   -1    0    0    0  501 -0.00000000000E+00 -0.00000000000E+00 -0.13313058529E+03  0.13313058529E+03  0.00000000000E+00 0. -1.
          6    1    1    2  502    0 -0.21195517348E+03  0.15888194127E+03  0.64075557480E+03  0.71436697395E+03  0.17200000000E+03 0.  1.
         -6    1    1    2    0  501  0.21195517348E+03 -0.15888194127E+03  0.16257100108E+03  0.35522077251E+03  0.17200000000E+03 0. -1.
</event>
<event>
 4    1  0.4363334E-001  0.3591249E+03  0.7818608E-02  0.1058931E+00
          1   -1    0    0  502    0  0.00000000000E+00  0.00000000000E+00  0.24617319216E+04  0.24617319216E+04  0.00000000000E+00 0. -1.
         -1   -1    0    0    0  501 -0.00000000000E+00 -0.00000000000E+00 -0.72607054131E+02  0.72607054131E+02  0.00000000000E+00 0.  1.
          6    1    1    2  502    0 -0.31522411703E+03 -0.45228273048E+01  0.18632169349E+04  0.18975110135E+04  0.17200000000E+03 0. -1.
         -6    1    1    2    0  501  0.31522411703E+03  0.45228273048E+01  0.52590793258E+03  0.63682796223E+03  0.17200000000E+03 0.  1.
</event>
<event>
 4    1  0.4363334E-001  0.1923458E+03  0.7818608E-02  0.1156362E+00
         -1   -1    0    0    0  501 -0.00000000000E+00  0.00000000000E+00  0.47135997650E+02  0.47135997650E+02  0.00000000000E+00 0. -1.
          1   -1    0    0  502    0  0.00000000000E+00 -0.00000000000E+00 -0.10910721996E+04  0.10910721996E+04  0.00000000000E+00 0.  1.
          6    1    1    2  502    0  0.19770424480E+02 -0.83797561283E+02 -0.22049400190E+03  0.29259956568E+03  0.17200000000E+03 0. -1.
         -6    1    1    2    0  501 -0.19770424480E+02  0.83797561283E+02 -0.82344220001E+03  0.84560863153E+03  0.17200000000E+03 0.  1.
</event>
<event>
 4    1  0.4363334E-001  0.1752373E+03  0.7818608E-02  0.1172494E+00
          2   -1    0    0  502    0  0.00000000000E+00  0.00000000000E+00  0.59869792396E+03  0.59869792396E+03  0.00000000000E+00 0. -1.
         -2   -1    0    0    0  501 -0.00000000000E+00 -0.00000000000E+00 -0.11636207323E+03  0.11636207323E+03  0.00000000000E+00 0.  1.
          6    1    1    2  502    0  0.10999764449E+02 -0.31672088350E+02  0.50852954920E+03  0.53787583921E+03  0.17200000000E+03 0. -1.
         -6    1    1    2    0  501 -0.10999764449E+02  0.31672088350E+02 -0.26193698472E+02  0.17718415798E+03  0.17200000000E+03 0.  1.
</event>
<event>
 4    1  0.4363334E-001  0.1858967E+03  0.7818608E-02  0.1162215E+00
         -1   -1    0    0    0  501 -0.00000000000E+00  0.00000000000E+00  0.47458413636E+02  0.47458413636E+02  0.00000000000E+00 0. -1.
          1   -1    0    0  502    0  0.00000000000E+00 -0.00000000000E+00 -0.12450212772E+04  0.12450212772E+04  0.00000000000E+00 0.  1.
          6    1    1    2  502    0 -0.57766607830E+02  0.40454829685E+02 -0.18240122232E+03  0.26043767033E+03  0.17200000000E+03 0. -1.
         -6    1    1    2    0  501  0.57766607830E+02 -0.40454829685E+02 -0.10151616412E+04  0.10320420205E+04  0.17200000000E+03 0.  1.
</event>
<event>
 4    1  0.4363334E-001  0.2099654E+03  0.7818608E-02  0.1141593E+00
         -2   -1    0    0    0  501 -0.00000000000E+00  0.00000000000E+00  0.15433203159E+03  0.15433203159E+03  0.00000000000E+00 0. -1.
          2   -1    0    0  502    0  0.00000000000E+00 -0.00000000000E+00 -0.28725225252E+03  0.28725225252E+03  0.00000000000E+00 0.  1.
          6    1    1    2  502    0 -0.47566743636E+02  0.11062937054E+03 -0.82933042311E+02  0.22575061956E+03  0.17200000000E+03 0. -1.
         -6    1    1    2    0  501  0.47566743636E+02 -0.11062937054E+03 -0.49987178618E+02  0.21583366455E+03  0.17200000000E+03 0. -1.
</event>
<event>
 4    1  0.4363334E-001  0.1754262E+03  0.7818608E-02  0.1172304E+00
          2   -1    0    0  502    0  0.00000000000E+00  0.00000000000E+00  0.36476658737E+04  0.36476658737E+04  0.00000000000E+00 0.  1.
         -2   -1    0    0    0  501 -0.00000000000E+00 -0.00000000000E+00 -0.16289696102E+02  0.16289696102E+02  0.00000000000E+00 0. -1.
          6    1    1    2  502    0  0.64334016573E+01 -0.33896434190E+02  0.54370690045E+03  0.57130687945E+03  0.17200000000E+03 0. -1.
         -6    1    1    2    0  501 -0.64334016573E+01  0.33896434190E+02  0.30876692772E+04  0.30926486904E+04  0.17200000000E+03 0.  1.
</event>
<event>
 4    1  0.4363334E-001  0.1870256E+03  0.7818608E-02  0.1161172E+00
          2   -1    0    0  502    0  0.00000000000E+00  0.00000000000E+00  0.35362712416E+04  0.35362712416E+04  0.00000000000E+00 0.  1.
         -2   -1    0    0    0  501 -0.00000000000E+00 -0.00000000000E+00 -0.12668868159E+02  0.12668868159E+02  0.00000000000E+00 0. -1.
          6    1    1    2  502    0  0.43468466322E+02  0.59203545349E+02  0.25926588975E+04  0.25993958387E+04  0.17200000000E+03 0.  1.
         -6    1    1    2    0  501 -0.43468466322E+02 -0.59203545349E+02  0.93094347591E+03  0.94954427105E+03  0.17200000000E+03 0. -1.
</event>
<event>
 4    1  0.4363334E-001  0.1904596E+03  0.7818608E-02  0.1158047E+00
          2   -1    0    0  502    0  0.00000000000E+00  0.00000000000E+00  0.12485263848E+04  0.12485263848E+04  0.00000000000E+00 0. -1.
         -2   -1    0    0    0  501 -0.00000000000E+00 -0.00000000000E+00 -0.29066484793E+02  0.29066484793E+02  0.00000000000E+00 0.  1.
          6    1    1    2  502    0 -0.61610889058E+02 -0.53804797106E+02  0.62289564647E+03  0.65136306637E+03  0.17200000000E+03 0.  1.
         -6    1    1    2    0  501  0.61610889058E+02  0.53804797106E+02  0.59656425351E+03  0.62622980319E+03  0.17200000000E+03 0. -1.
</event>
<event>
 4    1  0.4363334E-001  0.2249976E+03  0.7818608E-02  0.1130211E+00
          2   -1    0    0  502    0  0.00000000000E+00  0.00000000000E+00  0.33553586433E+04  0.33553586433E+04  0.00000000000E+00 0. -1.
         -2   -1    0    0    0  501 -0.00000000000E+00 -0.00000000000E+00 -0.15786584570E+02  0.15786584570E+02  0.00000000000E+00 0.  1.
          6    1    1    2  502    0 -0.28964700607E+02 -0.14213003296E+03  0.13150747265E+04  0.13341834344E+04  0.17200000000E+03 0.  1.
         -6    1    1    2    0  501  0.28964700607E+02  0.14213003296E+03  0.20244973322E+04  0.20369617935E+04  0.17200000000E+03 0.  1.
</event>
<event>
 4    1  0.4363334E-001  0.2432654E+03  0.7818608E-02  0.1117636E+00
         -2   -1    0    0    0  501 -0.00000000000E+00  0.00000000000E+00  0.27133442564E+03  0.27133442564E+03  0.00000000000E+00 0.  1.
          2   -1    0    0  502    0  0.00000000000E+00 -0.00000000000E+00 -0.26980236203E+03  0.26980236203E+03  0.00000000000E+00 0. -1.
          6    1    1    2  502    0 -0.10096133684E+03  0.13928703895E+03 -0.11767682628E+03  0.27023305904E+03  0.17200000000E+03 0. -1.
         -6    1    1    2    0  501  0.10096133684E+03 -0.13928703895E+03  0.11920888989E+03  0.27090372863E+03  0.17200000000E+03 0.  1.
</event>
<event>
 4    1  0.4363334E-001  0.2789254E+03  0.7818608E-02  0.1096277E+00
          2   -1    0    0  502    0  0.00000000000E+00  0.00000000000E+00  0.25117208037E+04  0.25117208037E+04  0.00000000000E+00 0.  1.
         -2   -1    0    0    0  501 -0.00000000000E+00 -0.00000000000E+00 -0.42708066337E+02  0.42708066337E+02  0.00000000000E+00 0. -1.
          6    1    1    2  502    0  0.21759937971E+03 -0.29425979521E+02  0.56504846358E+03  0.63014216215E+03  0.17200000000E+03 0. -1.
         -6    1    1    2    0  501 -0.21759937971E+03  0.29425979521E+02  0.19039642738E+04  0.19242867079E+04  0.17200000000E+03 0.  1.
</event>
<event>
 4    1  0.4363334E-001  0.1804984E+03  0.7818608E-02  0.1167322E+00
          2   -1    0    0  502    0  0.00000000000E+00  0.00000000000E+00  0.88396780447E+03  0.88396780447E+03  0.00000000000E+00 0. -1.
         -2   -1    0    0    0  501 -0.00000000000E+00 -0.00000000000E+00 -0.37208326922E+02  0.37208326922E+02  0.00000000000E+00 0.  1.
          6    1    1    2  502    0 -0.48324370608E+02  0.25698631699E+02  0.37857097485E+03  0.41939915053E+03  0.17200000000E+03 0. -1.
         -6    1    1    2    0  501  0.48324370608E+02 -0.25698631699E+02  0.46818850270E+03  0.50177698086E+03  0.17200000000E+03 0. -1.
</event>
<event>
 4    1  0.4363334E-001  0.2262459E+03  0.7818608E-02  0.1129310E+00
          1   -1    0    0  502    0  0.00000000000E+00  0.00000000000E+00  0.87670351551E+03  0.87670351551E+03  0.00000000000E+00 0.  1.
         -1   -1    0    0    0  501 -0.00000000000E+00 -0.00000000000E+00 -0.60636688364E+02  0.60636688364E+02  0.00000000000E+00 0. -1.
          6    1    1    2  502    0  0.12730272946E+03  0.73465749077E+02  0.49832729492E+03  0.54728173190E+03  0.17200000000E+03 0. -1.
         -6    1    1    2    0  501 -0.12730272946E+03 -0.73465749077E+02  0.31773953223E+03  0.39005847197E+03  0.17200000000E+03 0.  1.
</event>
<event>
 4    1  0.4363334E-001  0.1760557E+03  0.7818608E-02  0.1171676E+00
          2   -1    0    0  502    0  0.00000000000E+00  0.00000000000E+00  0.13602493900E+04  0.13602493900E+04  0.00000000000E+00 0. -1.
         -2   -1    0    0    0  501 -0.00000000000E+00 -0.00000000000E+00 -0.26015131049E+02  0.26015131049E+02  0.00000000000E+00 0.  1.
          6    1    1    2  502    0  0.32357881600E+02 -0.19094111691E+02  0.42294407687E+03  0.45812368392E+03  0.17200000000E+03 0.  1.
         -6    1    1    2    0  501 -0.32357881600E+02  0.19094111691E+02  0.91129018207E+03  0.92814083713E+03  0.17200000000E+03 0. -1.
</event>
<event>
 4    1  0.4363334E-001  0.2017460E+03  0.7818608E-02  0.1148274E+00
         -2   -1    0    0    0  501 -0.00000000000E+00  0.00000000000E+00  0.39139204382E+03  0.39139204382E+03  0.00000000000E+00 0.  1.
          2   -1    0    0  502    0  0.00000000000E+00 -0.00000000000E+00 -0.15417739602E+03  0.15417739602E+03  0.00000000000E+00 0. -1.
          6    1    1    2  502    0  0.74375661899E+02  0.74737475408E+02  0.27423997271E+03  0.34045409668E+03  0.17200000000E+03 0.  1.
         -6    1    1    2    0  501 -0.74375661899E+02 -0.74737475408E+02 -0.37025324909E+02  0.20511534316E+03  0.17200000000E+03 0. -1.
</event>
<event>
 4    1  0.4363334E-001  0.1879405E+03  0.7818608E-02  0.1160332E+00
          1   -1    0    0  502    0  0.00000000000E+00  0.00000000000E+00  0.14575544185E+04  0.14575544185E+04  0.00000000000E+00 0. -1.
         -1   -1    0    0    0  501 -0.00000000000E+00 -0.00000000000E+00 -0.27398157451E+02  0.27398157451E+02  0.00000000000E+00 0.  1.
          6    1    1    2  502    0  0.24803534494E+02 -0.71571047677E+02  0.96741805062E+03  0.98550459910E+03  0.17200000000E+03 0. -1.
         -6    1    1    2    0  501 -0.24803534494E+02  0.71571047677E+02  0.46273821047E+03  0.49944797689E+03  0.17200000000E+03 0.  1.
</event>
<event>
 4    1  0.4363334E-001  0.1876566E+03  0.7818608E-02  0.1160592E+00
          1   -1    0    0  502    0  0.00000000000E+00  0.00000000000E+00  0.79514652196E+03  0.79514652196E+03  0.00000000000E+00 0. -1.
         -1   -1    0    0    0  501 -0.00000000000E+00 -0.00000000000E+00 -0.55217485152E+02  0.55217485152E+02  0.00000000000E+00 0.  1.
          6    1    1    2  502    0 -0.18989239480E+01 -0.75015917412E+02  0.18079646578E+03  0.26058080477E+03  0.17200000000E+03 0.  1.
         -6    1    1    2    0  501  0.18989239480E+01  0.75015917412E+02  0.55913257102E+03  0.58978320233E+03  0.17200000000E+03 0. -1.
</event>
<event>
 4    1  0.4363334E-001  0.2239615E+03  0.7818608E-02  0.1130964E+00
          1   -1    0    0  502    0  0.00000000000E+00  0.00000000000E+00  0.48062858072E+03  0.48062858072E+03  0.00000000000E+00 0.  1.
         -1   -1    0    0    0  501 -0.00000000000E+00 -0.00000000000E+00 -0.11871063456E+03  0.11871063456E+03  0.00000000000E+00 0. -1.
          6    1    1    2  502    0 -0.39152093560E+02 -0.13799231192E+03  0.28514798487E+03  0.36258535251E+03  0.17200000000E+03 0.  1.
         -6    1    1    2    0  501  0.39152093560E+02  0.13799231192E+03  0.76769961296E+02  0.23675386277E+03  0.17200000000E+03 0. -1.
</event>
<event>
 4    1  0.4363334E-001  0.1836728E+03  0.7818608E-02  0.1164295E+00
         -1   -1    0    0    0  501 -0.00000000000E+00  0.00000000000E+00  0.13057653774E+03  0.13057653774E+03  0.00000000000E+00 0. -1.
          1   -1    0    0  502    0  0.00000000000E+00 -0.00000000000E+00 -0.25839939805E+03  0.25839939805E+03  0.00000000000E+00 0.  1.
          6    1    1    2  502    0  0.15266675189E+02  0.62598836203E+02 -0.66328904820E+02  0.19528238343E+03  0.17200000000E+03 0. -1.
         -6    1    1    2    0  501 -0.15266675189E+02 -0.62598836203E+02 -0.61493955488E+02  0.19369355236E+03  0.17200000000E+03 0.  1.
</event>
<event>
 4    1  0.4363334E-001  0.2095455E+03  0.7818608E-02  0.1141926E+00
          2   -1    0    0  502    0  0.00000000000E+00  0.00000000000E+00  0.59062434554E+02  0.59062434554E+02  0.00000000000E+00 0.  1.
         -2   -1    0    0    0  501 -0.00000000000E+00 -0.00000000000E+00 -0.99327351408E+03  0.99327351408E+03  0.00000000000E+00 0. -1.
          6    1    1    2  502    0 -0.26919012470E+02  0.11662194882E+03 -0.20321958484E+03  0.29190325767E+03  0.17200000000E+03 0.  1.
         -6    1    1    2    0  501  0.26919012470E+02 -0.11662194882E+03 -0.73099149468E+03  0.76043269096E+03  0.17200000000E+03 0. -1.
</event>
<event>
 4    1  0.4363334E-001  0.1935526E+03  0.7818608E-02  0.1155296E+00
         -3   -1    0    0    0  501 -0.00000000000E+00  0.00000000000E+00  0.21613474204E+02  0.21613474204E+02  0.00000000000E+00 0. -1.
          3   -1    0    0  502    0  0.00000000000E+00 -0.00000000000E+00 -0.19457035082E+04  0.19457035082E+04  0.00000000000E+00 0.  1.
          6    1    1    2  502    0  0.11197550963E+02  0.88052342148E+02 -0.63704117131E+03  0.66579580507E+03  0.17200000000E+03 0. -1.
         -6    1    1    2    0  501 -0.11197550963E+02 -0.88052342148E+02 -0.12870488627E+04  0.13015211773E+04  0.17200000000E+03 0.  1.
</event>
<event>
 4    1  0.4363334E-001  0.2862188E+03  0.7818608E-02  0.1092340E+00
          1   -1    0    0  502    0  0.00000000000E+00  0.00000000000E+00  0.50123352204E+03  0.50123352204E+03  0.00000000000E+00 0.  1.
         -1   -1    0    0    0  501 -0.00000000000E+00 -0.00000000000E+00 -0.18783051367E+03  0.18783051367E+03  0.00000000000E+00 0. -1.
          6    1    1    2  502    0  0.11354430511E+03  0.19860731133E+03  0.32546368810E+02  0.28806325600E+03  0.17200000000E+03 0. -1.
         -6    1    1    2    0  501 -0.11354430511E+03 -0.19860731133E+03  0.28085663956E+03  0.40100077970E+03  0.17200000000E+03 0.  1.
</event>
<event>
 4    1  0.4363334E-001  0.1901832E+03  0.7818608E-02  0.1158296E+00
          1   -1    0    0  502    0  0.00000000000E+00  0.00000000000E+00  0.13234475090E+04  0.13234475090E+04  0.00000000000E+00 0. -1.
         -1   -1    0    0    0  501 -0.00000000000E+00 -0.00000000000E+00 -0.69082029819E+02  0.69082029819E+02  0.00000000000E+00 0.  1.
          6    1    1    2  502    0 -0.75358967581E+02 -0.30111114939E+02  0.11684743922E+04  0.11838505220E+04  0.17200000000E+03 0. -1.
         -6    1    1    2    0  501  0.75358967581E+02  0.30111114939E+02  0.85891087001E+02  0.20867901683E+03  0.17200000000E+03 0.  1.
</event>
<event>
 4    1  0.4363334E-001  0.1834866E+03  0.7818608E-02  0.1164471E+00
          2   -1    0    0  502    0  0.00000000000E+00  0.00000000000E+00  0.27953155637E+03  0.27953155637E+03  0.00000000000E+00 0. -1.
         -2   -1    0    0    0  501 -0.00000000000E+00 -0.00000000000E+00 -0.13151886303E+03  0.13151886303E+03  0.00000000000E+00 0.  1.
          6    1    1    2  502    0 -0.52315617691E+02 -0.36693611571E+02  0.13365204120E+03  0.22700267202E+03  0.17200000000E+03 0. -1.
         -6    1    1    2    0  501  0.52315617691E+02  0.36693611571E+02  0.14360652138E+02  0.18404774738E+03  0.17200000000E+03 0.  1.
</event>
<event>
 4    1  0.4363334E-001  0.1847319E+03  0.7818608E-02  0.1163300E+00
          2   -1    0    0  502    0  0.00000000000E+00  0.00000000000E+00  0.47043908566E+03  0.47043908566E+03  0.00000000000E+00 0. -1.
         -2   -1    0    0    0  501 -0.00000000000E+00 -0.00000000000E+00 -0.10085280116E+03  0.10085280116E+03  0.00000000000E+00 0.  1.
          6    1    1    2  502    0 -0.42621855325E+02 -0.52203942467E+02  0.33613946170E+03  0.38355653022E+03  0.17200000000E+03 0. -1.
         -6    1    1    2    0  501  0.42621855325E+02  0.52203942467E+02  0.33446822803E+02  0.18773535660E+03  0.17200000000E+03 0.  1.
</event>
<event>
 4    1  0.4363334E-001  0.1787794E+03  0.7818608E-02  0.1168990E+00
          1   -1    0    0  502    0  0.00000000000E+00  0.00000000000E+00  0.90981726901E+03  0.90981726901E+03  0.00000000000E+00 0.  1.
         -1   -1    0    0    0  501 -0.00000000000E+00 -0.00000000000E+00 -0.40474926547E+02  0.40474926547E+02  0.00000000000E+00 0. -1.
          6    1    1    2  502    0 -0.48113372144E+02  0.79480951358E+01  0.26200923699E+03  0.31719222730E+03  0.17200000000E+03 0. -1.
         -6    1    1    2    0  501  0.48113372144E+02 -0.79480951358E+01  0.60733310548E+03  0.63309996825E+03  0.17200000000E+03 0.  1.
</event>
<event>
 4    1  0.4363334E-001  0.1888734E+03  0.7818608E-02  0.1159481E+00
         -2   -1    0    0    0  501 -0.00000000000E+00  0.00000000000E+00  0.11573955152E+03  0.11573955152E+03  0.00000000000E+00 0. -1.
          2   -1    0    0  502    0  0.00000000000E+00 -0.00000000000E+00 -0.31057454201E+03  0.31057454201E+03  0.00000000000E+00 0.  1.
          6    1    1    2  502    0  0.26997411930E+02  0.73214172714E+02 -0.11597951158E+03  0.22164029968E+03  0.17200000000E+03 0.  1.
         -6    1    1    2    0  501 -0.26997411930E+02 -0.73214172714E+02 -0.78855478908E+02  0.20467379385E+03  0.17200000000E+03 0. -1.
</event>
<event>
 4    1  0.4363334E-001  0.1810245E+03  0.7818608E-02  0.1166815E+00
          1   -1    0    0  502    0  0.00000000000E+00  0.00000000000E+00  0.39329104256E+03  0.39329104256E+03  0.00000000000E+00 0. -1.
         -1   -1    0    0    0  501 -0.00000000000E+00 -0.00000000000E+00 -0.91627239061E+02  0.91627239061E+02  0.00000000000E+00 0.  1.
          6    1    1    2  502    0 -0.56176034566E+02  0.54881422517E+01  0.77836138177E+02  0.19704905727E+03  0.17200000000E+03 0. -1.
         -6    1    1    2    0  501  0.56176034566E+02 -0.54881422517E+01  0.22382766532E+03  0.28786922435E+03  0.17200000000E+03 0. -1.
</event>
<event>
 4    1  0.4363334E-001  0.1729856E+03  0.7818608E-02  0.1174770E+00
         -2   -1    0    0    0  501 -0.00000000000E+00  0.00000000000E+00  0.21065909370E+03  0.21065909370E+03  0.00000000000E+00 0. -1.
          2   -1    0    0  502    0  0.00000000000E+00 -0.00000000000E+00 -0.14908688505E+03  0.14908688505E+03  0.00000000000E+00 0.  1.
          6    1    1    2  502    0 -0.15595768035E+02 -0.98385844251E+01 -0.82935662227E+01  0.17318432078E+03  0.17200000000E+03 0.  1.
         -6    1    1    2    0  501  0.15595768035E+02  0.98385844251E+01  0.69865774876E+02  0.18656165797E+03  0.17200000000E+03 0. -1.
</event>
<event>
 4    1  0.4363334E-001  0.1945679E+03  0.7818608E-02  0.1154405E+00
         -2   -1    0    0    0  501 -0.00000000000E+00  0.00000000000E+00  0.11398427231E+03  0.11398427231E+03  0.00000000000E+00 0. -1.
          2   -1    0    0  502    0  0.00000000000E+00 -0.00000000000E+00 -0.33251425705E+03  0.33251425705E+03  0.00000000000E+00 0.  1.
          6    1    1    2  502    0 -0.45928540024E+02 -0.78506331131E+02 -0.11693361283E+03  0.22700252119E+03  0.17200000000E+03 0.  1.
         -6    1    1    2    0  501  0.45928540024E+02  0.78506331131E+02 -0.10159637191E+03  0.21949600817E+03  0.17200000000E+03 0. -1.
</event>
<event>
 4    1  0.4363334E-001  0.2989862E+03  0.7818608E-02  0.1085748E+00
         -2   -1    0    0    0  501 -0.00000000000E+00  0.00000000000E+00  0.32504317150E+02  0.32504317150E+02  0.00000000000E+00 0. -1.
          2   -1    0    0  502    0  0.00000000000E+00 -0.00000000000E+00 -0.27820746663E+04  0.27820746663E+04  0.00000000000E+00 0.  1.
          6    1    1    2  502    0  0.80429680515E+02  0.23095414450E+03 -0.15254640394E+04  0.15544881105E+04  0.17200000000E+03 0.  1.
         -6    1    1    2    0  501 -0.80429680515E+02 -0.23095414450E+03 -0.12241063098E+04  0.12600908729E+04  0.17200000000E+03 0. -1.
</event>
<event>
 4    1  0.4363334E-001  0.1926489E+03  0.7818608E-02  0.1156094E+00
          2   -1    0    0  502    0  0.00000000000E+00  0.00000000000E+00  0.10027081905E+04  0.10027081905E+04  0.00000000000E+00 0. -1.
         -2   -1    0    0    0  501 -0.00000000000E+00 -0.00000000000E+00 -0.98561605148E+02  0.98561605148E+02  0.00000000000E+00 0.  1.
          6    1    1    2  502    0  0.26263713413E+02 -0.82703163884E+02  0.16944624425E+02  0.19339264788E+03  0.17200000000E+03 0.  1.
         -6    1    1    2    0  501 -0.26263713413E+02  0.82703163884E+02  0.88720196088E+03  0.90787714772E+03  0.17200000000E+03 0. -1.
</event>
<event>
 4    1  0.4363334E-001  0.2056428E+03  0.7818608E-02  0.1145064E+00
         -1   -1    0    0    0  501 -0.00000000000E+00  0.00000000000E+00  0.43712196185E+03  0.43712196185E+03  0.00000000000E+00 0.  1.
          1   -1    0    0  502    0  0.00000000000E+00 -0.00000000000E+00 -0.10101053779E+03  0.10101053779E+03  0.00000000000E+00 0. -1.
          6    1    1    2  502    0 -0.13669400445E+02  0.11188426759E+03  0.11275738875E+03  0.23452754755E+03  0.17200000000E+03 0.  1.
         -6    1    1    2    0  501  0.13669400445E+02 -0.11188426759E+03  0.22335403531E+03  0.30360495209E+03  0.17200000000E+03 0. -1.
</event>
<event>
 4    1  0.4363334E-001  0.2127089E+03  0.7818608E-02  0.1139439E+00
          1   -1    0    0  502    0  0.00000000000E+00  0.00000000000E+00  0.58800345062E+03  0.58800345062E+03  0.00000000000E+00 0.  1.
         -1   -1    0    0    0  501 -0.00000000000E+00 -0.00000000000E+00 -0.85095520942E+02  0.85095520942E+02  0.00000000000E+00 0. -1.
          6    1    1    2  502    0  0.82030500730E+02 -0.94509688444E+02  0.14730960478E+03  0.25873771260E+03  0.17200000000E+03 0. -1.
         -6    1    1    2    0  501 -0.82030500730E+02  0.94509688444E+02  0.35559832489E+03  0.41436125896E+03  0.17200000000E+03 0. -1.
</event>
<event>
 4    1  0.4363334E-001  0.1996838E+03  0.7818608E-02  0.1150006E+00
         -2   -1    0    0    0  501 -0.00000000000E+00  0.00000000000E+00  0.27309275755E+02  0.27309275755E+02  0.00000000000E+00 0. -1.
          2   -1    0    0  502    0  0.00000000000E+00 -0.00000000000E+00 -0.18270217747E+04  0.18270217747E+04  0.00000000000E+00 0.  1.
          6    1    1    2  502    0  0.85325673949E+02 -0.54855688568E+02 -0.13153709358E+04  0.13304413989E+04  0.17200000000E+03 0.  1.
         -6    1    1    2    0  501 -0.85325673949E+02  0.54855688568E+02 -0.48434156320E+03  0.52388965159E+03  0.17200000000E+03 0. -1.
</event>
<event>
 4    1  0.4363334E-001  0.2949068E+03  0.7818608E-02  0.1087815E+00
          2   -1    0    0  502    0  0.00000000000E+00  0.00000000000E+00  0.13975010207E+03  0.13975010207E+03  0.00000000000E+00 0.  1.
         -2   -1    0    0    0  501 -0.00000000000E+00 -0.00000000000E+00 -0.62240137479E+03  0.62240137479E+03  0.00000000000E+00 0. -1.
          6    1    1    2  502    0  0.21714683853E+03 -0.10115955788E+03 -0.24554236000E+03  0.38374608296E+03  0.17200000000E+03 0.  1.
         -6    1    1    2    0  501 -0.21714683853E+03  0.10115955788E+03 -0.23710891272E+03  0.37840539390E+03  0.17200000000E+03 0.  1.
</event>
<event>
 4    1  0.4363334E-001  0.2767980E+03  0.7818608E-02  0.1097451E+00
         -1   -1    0    0    0  501 -0.00000000000E+00  0.00000000000E+00  0.44053914424E+03  0.44053914424E+03  0.00000000000E+00 0.  1.
          1   -1    0    0  502    0  0.00000000000E+00 -0.00000000000E+00 -0.17641966885E+03  0.17641966885E+03  0.00000000000E+00 0. -1.
          6    1    1    2  502    0 -0.12434235837E+03  0.17768544835E+03  0.95316689061E+02  0.29274974271E+03  0.17200000000E+03 0. -1.
         -6    1    1    2    0  501  0.12434235837E+03 -0.17768544835E+03  0.16880278634E+03  0.32420907038E+03  0.17200000000E+03 0. -1.
</event>
<event>
 4    1  0.4363334E-001  0.1847221E+03  0.7818608E-02  0.1163310E+00
          1   -1    0    0  502    0  0.00000000000E+00  0.00000000000E+00  0.10677028075E+03  0.10677028075E+03  0.00000000000E+00 0.  1.
         -1   -1    0    0    0  501 -0.00000000000E+00 -0.00000000000E+00 -0.41891048467E+03  0.41891048467E+03  0.00000000000E+00 0. -1.
          6    1    1    2  502    0 -0.59790147810E+02 -0.31038321002E+02 -0.28084647561E+02  0.18684481950E+03  0.17200000000E+03 0.  1.
         -6    1    1    2    0  501  0.59790147810E+02  0.31038321002E+02 -0.28405555637E+03  0.33883594592E+03  0.17200000000E+03 0.  1.
</event>
<event>
 4    1  0.4363334E-001  0.6825625E+03  0.7818608E-02  0.9747526E-01
          2   -1    0    0  502    0  0.00000000000E+00  0.00000000000E+00  0.12004488868E+04  0.12004488868E+04  0.00000000000E+00 0. -1.
         -2   -1    0    0    0  501 -0.00000000000E+00 -0.00000000000E+00 -0.50511284311E+03  0.50511284311E+03  0.00000000000E+00 0.  1.
          6    1    1    2  502    0  0.65597750742E+03 -0.77466294396E+02 -0.62785678041E+02  0.68544405926E+03  0.17200000000E+03 0.  1.
         -6    1    1    2    0  501 -0.65597750742E+03  0.77466294396E+02  0.75812172176E+03  0.10201176707E+04  0.17200000000E+03 0. -1.
</event>
<event>
 4    1  0.4363334E-001  0.1920922E+03  0.7818608E-02  0.1156588E+00
          1   -1    0    0  502    0  0.00000000000E+00  0.00000000000E+00  0.86571515852E+03  0.86571515852E+03  0.00000000000E+00 0.  1.
         -1   -1    0    0    0  501 -0.00000000000E+00 -0.00000000000E+00 -0.93564399543E+02  0.93564399543E+02  0.00000000000E+00 0. -1.
          6    1    1    2  502    0 -0.60523031834E+02 -0.60434754600E+02  0.73998732034E+03  0.76451332965E+03  0.17200000000E+03 0.  1.
         -6    1    1    2    0  501  0.60523031834E+02  0.60434754600E+02  0.32163438637E+02  0.19476622841E+03  0.17200000000E+03 0. -1.
</event>
<event>
 4    1  0.4363334E-001  0.4056498E+03  0.7818608E-02  0.1041841E+00
          2   -1    0    0  502    0  0.00000000000E+00  0.00000000000E+00  0.16185749231E+04  0.16185749231E+04  0.00000000000E+00 0. -1.
         -2   -1    0    0    0  501 -0.00000000000E+00 -0.00000000000E+00 -0.36465803190E+03  0.36465803190E+03  0.00000000000E+00 0.  1.
          6    1    1    2  502    0 -0.31702756892E+03  0.18563746583E+03  0.14690771358E+04  0.15240536011E+04  0.17200000000E+03 0. -1.
         -6    1    1    2    0  501  0.31702756892E+03 -0.18563746583E+03 -0.21516024459E+03  0.45917935388E+03  0.17200000000E+03 0.  1.
</event>
<event>
 4    1  0.4363334E-001  0.2403579E+03  0.7818608E-02  0.1119555E+00
          2   -1    0    0  502    0  0.00000000000E+00  0.00000000000E+00  0.45511744232E+03  0.45511744232E+03  0.00000000000E+00 0.  1.
         -2   -1    0    0    0  501 -0.00000000000E+00 -0.00000000000E+00 -0.12693888172E+03  0.12693888172E+03  0.00000000000E+00 0. -1.
          6    1    1    2  502    0  0.69904308810E+02  0.15264772925E+03  0.16456987174E+03  0.29129913203E+03  0.17200000000E+03 0.  1.
         -6    1    1    2    0  501 -0.69904308810E+02 -0.15264772925E+03  0.16360868886E+03  0.29075719201E+03  0.17200000000E+03 0. -1.
</event>
<event>
 4    1  0.4363334E-001  0.1762205E+03  0.7818608E-02  0.1171512E+00
          2   -1    0    0  502    0  0.00000000000E+00  0.00000000000E+00  0.25559294878E+03  0.25559294878E+03  0.00000000000E+00 0.  1.
         -2   -1    0    0    0  501 -0.00000000000E+00 -0.00000000000E+00 -0.14004794205E+03  0.14004794205E+03  0.00000000000E+00 0. -1.
          6    1    1    2  502    0 -0.38122764206E+02 -0.40417714673E+01 -0.14225452190E+02  0.17679379106E+03  0.17200000000E+03 0. -1.
         -6    1    1    2    0  501  0.38122764206E+02  0.40417714673E+01  0.12977045892E+03  0.21884709977E+03  0.17200000000E+03 0.  1.
</event>
<event>
 4    1  0.4363334E-001  0.2162217E+03  0.7818608E-02  0.1136732E+00
         -2   -1    0    0    0  501 -0.00000000000E+00  0.00000000000E+00  0.14493450064E+03  0.14493450064E+03  0.00000000000E+00 0. -1.
          2   -1    0    0  502    0  0.00000000000E+00 -0.00000000000E+00 -0.44867873892E+03  0.44867873892E+03  0.00000000000E+00 0.  1.
          6    1    1    2  502    0  0.12220358756E+03 -0.47266175034E+02 -0.30922511949E+03  0.37732212053E+03  0.17200000000E+03 0.  1.
         -6    1    1    2    0  501 -0.12220358756E+03  0.47266175034E+02  0.54808812181E+01  0.21629111904E+03  0.17200000000E+03 0. -1.
</event>
<event>
 4    1  0.4363334E-001  0.1910485E+03  0.7818608E-02  0.1157519E+00
          2   -1    0    0  502    0  0.00000000000E+00  0.00000000000E+00  0.34383916997E+03  0.34383916997E+03  0.00000000000E+00 0. -1.
         -2   -1    0    0    0  501 -0.00000000000E+00 -0.00000000000E+00 -0.10632179163E+03  0.10632179163E+03  0.00000000000E+00 0.  1.
          6    1    1    2  502    0  0.80272091936E+02  0.21724019036E+02  0.10978918953E+03  0.22034792462E+03  0.17200000000E+03 0.  1.
         -6    1    1    2    0  501 -0.80272091936E+02 -0.21724019036E+02  0.12772818881E+03  0.22981303697E+03  0.17200000000E+03 0.  1.
</event>
<event>
 4    1  0.4363334E-001  0.2359481E+03  0.7818608E-02  0.1122522E+00
          4   -1    0    0  502    0  0.00000000000E+00  0.00000000000E+00  0.36127989889E+03  0.36127989889E+03  0.00000000000E+00 0.  1.
         -4   -1    0    0    0  501 -0.00000000000E+00 -0.00000000000E+00 -0.15658664358E+03  0.15658664358E+03  0.00000000000E+00 0. -1.
          6    1    1    2  502    0 -0.78781300209E+02 -0.14100010843E+03  0.69685598782E+02  0.24602358935E+03  0.17200000000E+03 0.  1.
         -6    1    1    2    0  501  0.78781300209E+02  0.14100010843E+03  0.13500765653E+03  0.27184295312E+03  0.17200000000E+03 0. -1.
</event>
<event>
 4    1  0.4363334E-001  0.1795501E+03  0.7818608E-02  0.1168239E+00
         -3   -1    0    0    0  501 -0.00000000000E+00  0.00000000000E+00  0.92839534536E+03  0.92839534536E+03  0.00000000000E+00 0.  1.
          3   -1    0    0  502    0  0.00000000000E+00 -0.00000000000E+00 -0.42273586214E+02  0.42273586214E+02  0.00000000000E+00 0. -1.
          6    1    1    2  502    0 -0.17989036257E+01 -0.51488026060E+02  0.64815250791E+03  0.67256221006E+03  0.17200000000E+03 0. -1.
         -6    1    1    2    0  501  0.17989036257E+01  0.51488026060E+02  0.23796925123E+03  0.29810672152E+03  0.17200000000E+03 0. -1.
</event>
<event>
 4    1  0.4363334E-001  0.2898971E+03  0.7818608E-02  0.1090403E+00
          2   -1    0    0  502    0  0.00000000000E+00  0.00000000000E+00  0.22403476903E+03  0.22403476903E+03  0.00000000000E+00 0. -1.
         -2   -1    0    0    0  501 -0.00000000000E+00 -0.00000000000E+00 -0.62493056288E+03  0.62493056288E+03  0.00000000000E+00 0.  1.
          6    1    1    2  502    0  0.21644624637E+03 -0.87220115190E+02  0.67930720478E+02  0.29774974197E+03  0.17200000000E+03 0. -1.
         -6    1    1    2    0  501 -0.21644624637E+03  0.87220115190E+02 -0.46882651433E+03  0.55121558994E+03  0.17200000000E+03 0.  1.
</event>
<event>
 4    1  0.4363334E-001  0.1838531E+03  0.7818608E-02  0.1164125E+00
         -2   -1    0    0    0  501 -0.00000000000E+00  0.00000000000E+00  0.44146406814E+03  0.44146406814E+03  0.00000000000E+00 0.  1.
          2   -1    0    0  502    0  0.00000000000E+00 -0.00000000000E+00 -0.97405075701E+02  0.97405075701E+02  0.00000000000E+00 0. -1.
          6    1    1    2  502    0  0.23169869602E+02  0.60672127685E+02  0.47410977904E+02  0.18986771911E+03  0.17200000000E+03 0. -1.
         -6    1    1    2    0  501 -0.23169869602E+02 -0.60672127685E+02  0.29664801453E+03  0.34900142472E+03  0.17200000000E+03 0.  1.
</event>
<event>
 4    1  0.4363334E-001  0.2185326E+03  0.7818608E-02  0.1134982E+00
         -1   -1    0    0    0  501 -0.00000000000E+00  0.00000000000E+00  0.55361659417E+02  0.55361659417E+02  0.00000000000E+00 0.  1.
          1   -1    0    0  502    0  0.00000000000E+00 -0.00000000000E+00 -0.86450780850E+03  0.86450780850E+03  0.00000000000E+00 0. -1.
          6    1    1    2  502    0 -0.26006950420E+02 -0.13227303000E+03 -0.42602033860E+03  0.47880042276E+03  0.17200000000E+03 0. -1.
         -6    1    1    2    0  501  0.26006950420E+02  0.13227303000E+03 -0.38312581048E+03  0.44106904516E+03  0.17200000000E+03 0. -1.
</event>
<event>
 4    1  0.4363334E-001  0.2123405E+03  0.7818608E-02  0.1139726E+00
         -2   -1    0    0    0  501 -0.00000000000E+00  0.00000000000E+00  0.39123623112E+03  0.39123623112E+03  0.00000000000E+00 0.  1.
          2   -1    0    0  502    0  0.00000000000E+00 -0.00000000000E+00 -0.11864073231E+03  0.11864073231E+03  0.00000000000E+00 0. -1.
          6    1    1    2  502    0 -0.98370827985E+02  0.76339293883E+02  0.17942039623E+03  0.27799314051E+03  0.17200000000E+03 0.  1.
         -6    1    1    2    0  501  0.98370827985E+02 -0.76339293883E+02  0.93175102588E+02  0.23188382292E+03  0.17200000000E+03 0.  1.
</event>
<event>
 4    1  0.4363334E-001  0.2018007E+03  0.7818608E-02  0.1148229E+00
         -2   -1    0    0    0  501 -0.00000000000E+00  0.00000000000E+00  0.63977233513E+02  0.63977233513E+02  0.00000000000E+00 0. -1.
          2   -1    0    0  502    0  0.00000000000E+00 -0.00000000000E+00 -0.64451186559E+03  0.64451186559E+03  0.00000000000E+00 0.  1.
          6    1    1    2  502    0 -0.97139553019E+02  0.41272818444E+02 -0.25084944134E+03  0.32194561734E+03  0.17200000000E+03 0. -1.
         -6    1    1    2    0  501  0.97139553019E+02 -0.41272818444E+02 -0.32968519073E+03  0.38654348176E+03  0.17200000000E+03 0.  1.
</event>
<event>
 4    1  0.4363334E-001  0.1825962E+03  0.7818608E-02  0.1165314E+00
         -2   -1    0    0    0  501 -0.00000000000E+00  0.00000000000E+00  0.15369583502E+03  0.15369583502E+03  0.00000000000E+00 0.  1.
          2   -1    0    0  502    0  0.00000000000E+00 -0.00000000000E+00 -0.25882214618E+03  0.25882214618E+03  0.00000000000E+00 0. -1.
          6    1    1    2  502    0 -0.40143564039E+02  0.46323579684E+02 -0.13554320282E+03  0.22740567187E+03  0.17200000000E+03 0. -1.
         -6    1    1    2    0  501  0.40143564039E+02 -0.46323579684E+02  0.30416891656E+02  0.18511230933E+03  0.17200000000E+03 0.  1.
</event>
<event>
 4    1  0.4363334E-001  0.3879439E+03  0.7818608E-02  0.1048036E+00
         -2   -1    0    0    0  501 -0.00000000000E+00  0.00000000000E+00  0.40682835698E+02  0.40682835698E+02  0.00000000000E+00 0.  1.
          2   -1    0    0  502    0  0.00000000000E+00 -0.00000000000E+00 -0.37138167280E+04  0.37138167280E+04  0.00000000000E+00 0. -1.
          6    1    1    2  502    0 -0.12450546673E+03  0.32467653218E+03 -0.17194433629E+04  0.17626644434E+04  0.17200000000E+03 0. -1.
         -6    1    1    2    0  501  0.12450546673E+03 -0.32467653218E+03 -0.19536905294E+04  0.19918351203E+04  0.17200000000E+03 0.  1.
</event>
<event>
 4    1  0.4363334E-001  0.1899082E+03  0.7818608E-02  0.1158544E+00
         -1   -1    0    0    0  501 -0.00000000000E+00  0.00000000000E+00  0.29781462148E+02  0.29781462148E+02  0.00000000000E+00 0. -1.
          1   -1    0    0  502    0  0.00000000000E+00 -0.00000000000E+00 -0.13616310853E+04  0.13616310853E+04  0.00000000000E+00 0.  1.
          6    1    1    2  502    0  0.17667664799E+02  0.78542874958E+02 -0.43452436405E+03  0.47421150612E+03  0.17200000000E+03 0. -1.
         -6    1    1    2    0  501 -0.17667664799E+02 -0.78542874958E+02 -0.89732525907E+03  0.91720104130E+03  0.17200000000E+03 0.  1.
</event>
<event>
 4    1  0.4363334E-001  0.1762039E+03  0.7818608E-02  0.1171528E+00
         -1   -1    0    0    0  501 -0.00000000000E+00  0.00000000000E+00  0.77952762010E+02  0.77952762010E+02  0.00000000000E+00 0.  1.
          1   -1    0    0  502    0  0.00000000000E+00 -0.00000000000E+00 -0.47340883094E+03  0.47340883094E+03  0.00000000000E+00 0. -1.
          6    1    1    2  502    0  0.20937966353E+02 -0.32021970394E+02 -0.30754331320E+03  0.35444420509E+03  0.17200000000E+03 0. -1.
         -6    1    1    2    0  501 -0.20937966353E+02  0.32021970394E+02 -0.87912755724E+02  0.19691738786E+03  0.17200000000E+03 0.  1.
</event>
<event>
 4    1  0.4363334E-001  0.1774457E+03  0.7818608E-02  0.1170298E+00
         -2   -1    0    0    0  501 -0.00000000000E+00  0.00000000000E+00  0.51633697137E+02  0.51633697137E+02  0.00000000000E+00 0.  1.
          2   -1    0    0  502    0  0.00000000000E+00 -0.00000000000E+00 -0.77257839582E+03  0.77257839582E+03  0.00000000000E+00 0. -1.
          6    1    1    2  502    0 -0.37334732569E+02 -0.22563044823E+02 -0.54962692319E+03  0.57756101664E+03  0.17200000000E+03 0. -1.
         -6    1    1    2    0  501  0.37334732569E+02  0.22563044823E+02 -0.17131777549E+03  0.24665107631E+03  0.17200000000E+03 0.  1.
</event>
<event>
 4    1  0.4363334E-001  0.1803416E+03  0.7818608E-02  0.1167473E+00
         -2   -1    0    0    0  501 -0.00000000000E+00  0.00000000000E+00  0.54426401483E+03  0.54426401483E+03  0.00000000000E+00 0. -1.
          2   -1    0    0  502    0  0.00000000000E+00 -0.00000000000E+00 -0.61839333072E+02  0.61839333072E+02  0.00000000000E+00 0.  1.
          6    1    1    2  502    0 -0.16037256214E+02  0.51787143504E+02  0.29683501876E+03  0.34732424359E+03  0.17200000000E+03 0. -1.
         -6    1    1    2    0  501  0.16037256214E+02 -0.51787143504E+02  0.18558966299E+03  0.25877910431E+03  0.17200000000E+03 0.  1.
</event>
<event>
 4    1  0.4363334E-001  0.2083905E+03  0.7818608E-02  0.1142847E+00
         -1   -1    0    0    0  501 -0.00000000000E+00  0.00000000000E+00  0.32109195791E+02  0.32109195791E+02  0.00000000000E+00 0.  1.
          1   -1    0    0  502    0  0.00000000000E+00 -0.00000000000E+00 -0.15826873279E+04  0.15826873279E+04  0.00000000000E+00 0. -1.
          6    1    1    2  502    0  0.11753345440E+03 -0.53387876127E+01 -0.10832264660E+04  0.11030893854E+04  0.17200000000E+03 0.  1.
         -6    1    1    2    0  501 -0.11753345440E+03  0.53387876127E+01 -0.46735166616E+03  0.51170713833E+03  0.17200000000E+03 0.  1.
</event>
<event>
 4    1  0.4363334E-001  0.1901751E+03  0.7818608E-02  0.1158303E+00
          4   -1    0    0  502    0  0.00000000000E+00  0.00000000000E+00  0.44227217785E+02  0.44227217785E+02  0.00000000000E+00 0.  1.
         -4   -1    0    0    0  501 -0.00000000000E+00 -0.00000000000E+00 -0.82470576521E+03  0.82470576521E+03  0.00000000000E+00 0. -1.
          6    1    1    2  502    0 -0.30913233089E+02 -0.75013001456E+02 -0.35032384537E+03  0.39861431861E+03  0.17200000000E+03 0.  1.
         -6    1    1    2    0  501  0.30913233089E+02  0.75013001456E+02 -0.43015470206E+03  0.47031866439E+03  0.17200000000E+03 0.  1.
</event>
<event>
 4    1  0.4363334E-001  0.8041108E+03  0.7818608E-02  0.9554086E-01
         -2   -1    0    0    0  501 -0.00000000000E+00  0.00000000000E+00  0.56357402037E+03  0.56357402037E+03  0.00000000000E+00 0.  1.
          2   -1    0    0  502    0  0.00000000000E+00 -0.00000000000E+00 -0.15057863285E+04  0.15057863285E+04  0.00000000000E+00 0. -1.
          6    1    1    2  502    0 -0.64855747246E+03  0.44315160346E+03  0.33734897371E+02  0.80481810494E+03  0.17200000000E+03 0.  1.
         -6    1    1    2    0  501  0.64855747246E+03 -0.44315160346E+03 -0.97594720549E+03  0.12645422439E+04  0.17200000000E+03 0. -1.
</event>
<event>
 4    1  0.4363334E-001  0.2299017E+03  0.7818608E-02  0.1126709E+00
          1   -1    0    0  502    0  0.00000000000E+00  0.00000000000E+00  0.15338118880E+04  0.15338118880E+04  0.00000000000E+00 0. -1.
         -1   -1    0    0    0  501 -0.00000000000E+00 -0.00000000000E+00 -0.41243961370E+02  0.41243961370E+02  0.00000000000E+00 0.  1.
          6    1    1    2  502    0  0.12204954860E+03  0.91513266401E+02  0.10656844286E+04  0.10902009318E+04  0.17200000000E+03 0. -1.
         -6    1    1    2    0  501 -0.12204954860E+03 -0.91513266401E+02  0.42688349798E+03  0.48485491757E+03  0.17200000000E+03 0.  1.
</event>
<event>
 4    1  0.4363334E-001  0.2011199E+03  0.7818608E-02  0.1148798E+00
         -1   -1    0    0    0  501 -0.00000000000E+00  0.00000000000E+00  0.69028787462E+02  0.69028787462E+02  0.00000000000E+00 0.  1.
          1   -1    0    0  502    0  0.00000000000E+00 -0.00000000000E+00 -0.83204419612E+03  0.83204419612E+03  0.00000000000E+00 0. -1.
          6    1    1    2  502    0  0.61728970011E+00 -0.10423455752E+03 -0.62651802231E+03  0.65800764153E+03  0.17200000000E+03 0. -1.
         -6    1    1    2    0  501 -0.61728970011E+00  0.10423455752E+03 -0.13649738635E+03  0.24306534206E+03  0.17200000000E+03 0.  1.
</event>
<event>
 4    1  0.4363334E-001  0.1819846E+03  0.7818608E-02  0.1165896E+00
         -2   -1    0    0    0  501 -0.00000000000E+00  0.00000000000E+00  0.37237431646E+02  0.37237431646E+02  0.00000000000E+00 0.  1.
          2   -1    0    0  502    0  0.00000000000E+00 -0.00000000000E+00 -0.91214268511E+03  0.91214268511E+03  0.00000000000E+00 0. -1.
          6    1    1    2  502    0 -0.58467554432E+02  0.10768294619E+02 -0.51243226049E+03  0.54378785632E+03  0.17200000000E+03 0. -1.
         -6    1    1    2    0  501  0.58467554432E+02 -0.10768294619E+02 -0.36247299297E+03  0.40559226043E+03  0.17200000000E+03 0.  1.
</event>
<event>
 4    1  0.4363334E-001  0.1729637E+03  0.7818608E-02  0.1174792E+00
         -2   -1    0    0    0  501 -0.00000000000E+00  0.00000000000E+00  0.90612339404E+02  0.90612339404E+02  0.00000000000E+00 0. -1.
          2   -1    0    0  502    0  0.00000000000E+00 -0.00000000000E+00 -0.35180655615E+03  0.35180655615E+03  0.00000000000E+00 0.  1.
          6    1    1    2  502    0 -0.71007666212E+01 -0.16793730915E+02 -0.18547019170E+03  0.25360528838E+03  0.17200000000E+03 0.  1.
         -6    1    1    2    0  501  0.71007666212E+01  0.16793730915E+02 -0.75724025043E+02  0.18881360717E+03  0.17200000000E+03 0. -1.
</event>
<event>
 4    1  0.4363334E-001  0.1782695E+03  0.7818608E-02  0.1169488E+00
         -2   -1    0    0    0  501 -0.00000000000E+00  0.00000000000E+00  0.87574478809E+02  0.87574478809E+02  0.00000000000E+00 0. -1.
          2   -1    0    0  502    0  0.00000000000E+00 -0.00000000000E+00 -0.36621038343E+03  0.36621038343E+03  0.00000000000E+00 0.  1.
          6    1    1    2  502    0 -0.46843212830E+02  0.13148286387E+01 -0.11771741336E+03  0.21362912903E+03  0.17200000000E+03 0. -1.
         -6    1    1    2    0  501  0.46843212830E+02 -0.13148286387E+01 -0.16091849126E+03  0.24015573321E+03  0.17200000000E+03 0.  1.
</event>
<event>
 4    1  0.4363334E-001  0.2049241E+03  0.7818608E-02  0.1145650E+00
          2   -1    0    0  502    0  0.00000000000E+00  0.00000000000E+00  0.92790192653E+03  0.92790192653E+03  0.00000000000E+00 0.  1.
         -2   -1    0    0    0  501 -0.00000000000E+00 -0.00000000000E+00 -0.46883448695E+02  0.46883448695E+02  0.00000000000E+00 0. -1.
          6    1    1    2  502    0 -0.10653161971E+03  0.32571315552E+02  0.34972395745E+03  0.40534025584E+03  0.17200000000E+03 0.  1.
         -6    1    1    2    0  501  0.10653161971E+03 -0.32571315552E+02  0.53129452038E+03  0.56944511938E+03  0.17200000000E+03 0.  1.
</event>
<event>
 4    1  0.4363334E-001  0.1966462E+03  0.7818608E-02  0.1152600E+00
          1   -1    0    0  502    0  0.00000000000E+00  0.00000000000E+00  0.78613479051E+03  0.78613479051E+03  0.00000000000E+00 0.  1.
         -1   -1    0    0    0  501 -0.00000000000E+00 -0.00000000000E+00 -0.58379321481E+02  0.58379321481E+02  0.00000000000E+00 0. -1.
          6    1    1    2  502    0 -0.94664393401E+02  0.11153375671E+02  0.19634646286E+03  0.27788788862E+03  0.17200000000E+03 0.  1.
         -6    1    1    2    0  501  0.94664393401E+02 -0.11153375671E+02  0.53140900617E+03  0.56662622337E+03  0.17200000000E+03 0.  1.
</event>
<event>
 4    1  0.4363334E-001  0.1882642E+03  0.7818608E-02  0.1160036E+00
          1   -1    0    0  502    0  0.00000000000E+00  0.00000000000E+00  0.19177805598E+04  0.19177805598E+04  0.00000000000E+00 0. -1.
         -1   -1    0    0    0  501 -0.00000000000E+00 -0.00000000000E+00 -0.22023690274E+02  0.22023690274E+02  0.00000000000E+00 0.  1.
          6    1    1    2  502    0 -0.71689048379E+02  0.26834671739E+02  0.55890480824E+03  0.58976097187E+03  0.17200000000E+03 0. -1.
         -6    1    1    2    0  501  0.71689048379E+02 -0.26834671739E+02  0.13368520613E+04  0.13500432782E+04  0.17200000000E+03 0. -1.
</event>
<event>
 4    1  0.4363334E-001  0.1815352E+03  0.7818608E-02  0.1166325E+00
          1   -1    0    0  502    0  0.00000000000E+00  0.00000000000E+00  0.16133449739E+03  0.16133449739E+03  0.00000000000E+00 0.  1.
         -1   -1    0    0    0  501 -0.00000000000E+00 -0.00000000000E+00 -0.21548892071E+03  0.21548892071E+03  0.00000000000E+00 0. -1.
          6    1    1    2  502    0  0.40282437030E+02  0.41813460222E+02 -0.70076555207E+02  0.19459127364E+03  0.17200000000E+03 0. -1.
         -6    1    1    2    0  501 -0.40282437030E+02 -0.41813460222E+02  0.15922131896E+02  0.18223214446E+03  0.17200000000E+03 0.  1.
</event>
<event>
 4    1  0.4363334E-001  0.2101703E+03  0.7818608E-02  0.1141431E+00
         -2   -1    0    0    0  501 -0.00000000000E+00  0.00000000000E+00  0.11960061735E+04  0.11960061735E+04  0.00000000000E+00 0. -1.
          2   -1    0    0  502    0  0.00000000000E+00 -0.00000000000E+00 -0.11768251018E+03  0.11768251018E+03  0.00000000000E+00 0.  1.
          6    1    1    2  502    0 -0.97091600649E+02  0.71838482042E+02  0.10832605283E+04  0.11034604291E+04  0.17200000000E+03 0. -1.
         -6    1    1    2    0  501  0.97091600649E+02 -0.71838482042E+02 -0.49368649148E+01  0.21022825465E+03  0.17200000000E+03 0.  1.
</event>
<event>
 4    1  0.4363334E-001  0.5208520E+03  0.7818608E-02  0.1008475E+00
         -2   -1    0    0    0  501 -0.00000000000E+00  0.00000000000E+00  0.14179712989E+03  0.14179712989E+03  0.00000000000E+00 0.  1.
          2   -1    0    0  502    0  0.00000000000E+00 -0.00000000000E+00 -0.19386661475E+04  0.19386661475E+04  0.00000000000E+00 0. -1.
          6    1    1    2  502    0  0.26749525942E+03  0.41249134566E+03 -0.10176483782E+04  0.11431951040E+04  0.17200000000E+03 0.  1.
         -6    1    1    2    0  501 -0.26749525942E+03 -0.41249134566E+03 -0.77922063945E+03  0.93726817347E+03  0.17200000000E+03 0. -1.
</event>
<event>
 4    1  0.4363334E-001  0.2928136E+03  0.7818608E-02  0.1088889E+00
         -2   -1    0    0    0  501 -0.00000000000E+00  0.00000000000E+00  0.15204761061E+03  0.15204761061E+03  0.00000000000E+00 0.  1.
          2   -1    0    0  502    0  0.00000000000E+00 -0.00000000000E+00 -0.94323543929E+03  0.94323543929E+03  0.00000000000E+00 0. -1.
          6    1    1    2  502    0  0.18806465658E+03  0.14417877074E+03 -0.48299876531E+02  0.29677046864E+03  0.17200000000E+03 0.  1.
         -6    1    1    2    0  501 -0.18806465658E+03 -0.14417877074E+03 -0.74288795215E+03  0.79851258126E+03  0.17200000000E+03 0.  1.
</event>
<event>
 4    1  0.4363334E-001  0.1746760E+03  0.7818608E-02  0.1173057E+00
         -1   -1    0    0    0  501 -0.00000000000E+00  0.00000000000E+00  0.38308583539E+02  0.38308583539E+02  0.00000000000E+00 0. -1.
          1   -1    0    0  502    0  0.00000000000E+00 -0.00000000000E+00 -0.84544650810E+03  0.84544650810E+03  0.00000000000E+00 0.  1.
          6    1    1    2  502    0  0.30190513997E+02  0.40308321988E+01 -0.50992051583E+03  0.53900894910E+03  0.17200000000E+03 0.  1.
         -6    1    1    2    0  501 -0.30190513997E+02 -0.40308321988E+01 -0.29721740873E+03  0.34474614254E+03  0.17200000000E+03 0. -1.
</event>
<event>
 4    1  0.4363334E-001  0.2070058E+03  0.7818608E-02  0.1143959E+00
          2   -1    0    0  502    0  0.00000000000E+00  0.00000000000E+00  0.29999085638E+03  0.29999085638E+03  0.00000000000E+00 0. -1.
         -2   -1    0    0    0  501 -0.00000000000E+00 -0.00000000000E+00 -0.15020602881E+03  0.15020602881E+03  0.00000000000E+00 0.  1.
          6    1    1    2  502    0 -0.19106418934E+02  0.11358856578E+03  0.12473199638E+03  0.24168055040E+03  0.17200000000E+03 0. -1.
         -6    1    1    2    0  501  0.19106418934E+02 -0.11358856578E+03  0.25052831189E+02  0.20851633478E+03  0.17200000000E+03 0.  1.
</event>
<event>
 4    1  0.4363334E-001  0.1798923E+03  0.7818608E-02  0.1167907E+00
         -2   -1    0    0    0  501 -0.00000000000E+00  0.00000000000E+00  0.16563458152E+02  0.16563458152E+02  0.00000000000E+00 0. -1.
          2   -1    0    0  502    0  0.00000000000E+00 -0.00000000000E+00 -0.22084791054E+04  0.22084791054E+04  0.00000000000E+00 0.  1.
          6    1    1    2  502    0 -0.45791429166E+02  0.26084319765E+02 -0.71814136411E+03  0.74032983566E+03  0.17200000000E+03 0. -1.
         -6    1    1    2    0  501  0.45791429166E+02 -0.26084319765E+02 -0.14737742832E+04  0.14847127279E+04  0.17200000000E+03 0.  1.
</event>
<event>
 4    1  0.4363334E-001  0.2273699E+03  0.7818608E-02  0.1128505E+00
          2   -1    0    0  502    0  0.00000000000E+00  0.00000000000E+00  0.24555566056E+03  0.24555566056E+03  0.00000000000E+00 0. -1.
         -2   -1    0    0    0  501 -0.00000000000E+00 -0.00000000000E+00 -0.22872787380E+03  0.22872787380E+03  0.00000000000E+00 0.  1.
          6    1    1    2  502    0  0.29769922980E+02 -0.14569420500E+03  0.75301908815E+02  0.23951498316E+03  0.17200000000E+03 0. -1.
         -6    1    1    2    0  501 -0.29769922980E+02  0.14569420500E+03 -0.58474122049E+02  0.23476855120E+03  0.17200000000E+03 0.  1.
</event>
<event>
 4    1  0.4363334E-001  0.1846630E+03  0.7818608E-02  0.1163365E+00
         -2   -1    0    0    0  501 -0.00000000000E+00  0.00000000000E+00  0.22241283851E+02  0.22241283851E+02  0.00000000000E+00 0. -1.
          2   -1    0    0  502    0  0.00000000000E+00 -0.00000000000E+00 -0.16591140687E+04  0.16591140687E+04  0.00000000000E+00 0.  1.
          6    1    1    2  502    0  0.28405688416E+02 -0.60906072985E+02 -0.58684573188E+03  0.61521406509E+03  0.17200000000E+03 0. -1.
         -6    1    1    2    0  501 -0.28405688416E+02  0.60906072985E+02 -0.10500270530E+04  0.10661412875E+04  0.17200000000E+03 0. -1.
</event>
<event>
 4    1  0.4363334E-001  0.2347710E+03  0.7818608E-02  0.1123326E+00
          2   -1    0    0  502    0  0.00000000000E+00  0.00000000000E+00  0.40383348264E+03  0.40383348264E+03  0.00000000000E+00 0.  1.
         -2   -1    0    0    0  501 -0.00000000000E+00 -0.00000000000E+00 -0.16431417681E+03  0.16431417681E+03  0.00000000000E+00 0. -1.
          6    1    1    2  502    0  0.98590273129E+02 -0.12575117940E+03  0.23666658188E+03  0.33335937373E+03  0.17200000000E+03 0.  1.
         -6    1    1    2    0  501 -0.98590273129E+02  0.12575117940E+03  0.28527239525E+01  0.23478828572E+03  0.17200000000E+03 0. -1.
</event>
<event>
 4    1  0.4363334E-001  0.2089524E+03  0.7818608E-02  0.1142398E+00
         -1   -1    0    0    0  501 -0.00000000000E+00  0.00000000000E+00  0.40526519408E+02  0.40526519408E+02  0.00000000000E+00 0.  1.
          1   -1    0    0  502    0  0.00000000000E+00 -0.00000000000E+00 -0.12331866106E+04  0.12331866106E+04  0.00000000000E+00 0. -1.
          6    1    1    2  502    0 -0.11622742321E+03 -0.23838967639E+02 -0.36993514932E+03  0.42486836195E+03  0.17200000000E+03 0.  1.
         -6    1    1    2    0  501  0.11622742321E+03  0.23838967639E+02 -0.82272494190E+03  0.84884476809E+03  0.17200000000E+03 0. -1.
</event>
<event>
 4    1  0.4363334E-001  0.1824468E+03  0.7818608E-02  0.1165456E+00
          2   -1    0    0  502    0  0.00000000000E+00  0.00000000000E+00  0.66237635464E+03  0.66237635464E+03  0.00000000000E+00 0. -1.
         -2   -1    0    0    0  501 -0.00000000000E+00 -0.00000000000E+00 -0.50377811019E+02  0.50377811019E+02  0.00000000000E+00 0.  1.
          6    1    1    2  502    0 -0.60449597418E+02 -0.69762775431E+01  0.28830625814E+03  0.34118517078E+03  0.17200000000E+03 0.  1.
         -6    1    1    2    0  501  0.60449597418E+02  0.69762775431E+01  0.32369228548E+03  0.37156899488E+03  0.17200000000E+03 0. -1.
</event>
<event>
 4    1  0.4363334E-001  0.1823886E+03  0.7818608E-02  0.1165511E+00
          2   -1    0    0  502    0  0.00000000000E+00  0.00000000000E+00  0.10557258721E+03  0.10557258721E+03  0.00000000000E+00 0. -1.
         -2   -1    0    0    0  501 -0.00000000000E+00 -0.00000000000E+00 -0.45928104665E+03  0.45928104665E+03  0.00000000000E+00 0.  1.
          6    1    1    2  502    0  0.18279900454E+02 -0.57857058928E+02 -0.33509756885E+03  0.38151798736E+03  0.17200000000E+03 0.  1.
         -6    1    1    2    0  501 -0.18279900454E+02  0.57857058928E+02 -0.18610890584E+02  0.18333564650E+03  0.17200000000E+03 0.  1.
</event>
<event>
 4    1  0.4363334E-001  0.2070580E+03  0.7818608E-02  0.1143917E+00
          2   -1    0    0  502    0  0.00000000000E+00  0.00000000000E+00  0.28623132902E+03  0.28623132902E+03  0.00000000000E+00 0. -1.
         -2   -1    0    0    0  501 -0.00000000000E+00 -0.00000000000E+00 -0.16548281611E+03  0.16548281611E+03  0.00000000000E+00 0.  1.
          6    1    1    2  502    0 -0.61644504917E+02 -0.97411254811E+02  0.12993828013E+03  0.24445235567E+03  0.17200000000E+03 0.  1.
         -6    1    1    2    0  501  0.61644504917E+02  0.97411254811E+02 -0.91897672141E+01  0.20726178946E+03  0.17200000000E+03 0.  1.
</event>
<event>
 4    1  0.4363334E-001  0.1775128E+03  0.7818608E-02  0.1170232E+00
         -2   -1    0    0    0  501 -0.00000000000E+00  0.00000000000E+00  0.53168219548E+02  0.53168219548E+02  0.00000000000E+00 0. -1.
          2   -1    0    0  502    0  0.00000000000E+00 -0.00000000000E+00 -0.84907282407E+03  0.84907282407E+03  0.00000000000E+00 0.  1.
          6    1    1    2  502    0 -0.34374325161E+02 -0.27298408986E+02 -0.15004571472E+03  0.23243174024E+03  0.17200000000E+03 0.  1.
         -6    1    1    2    0  501  0.34374325161E+02  0.27298408986E+02 -0.64585888980E+03  0.66980930338E+03  0.17200000000E+03 0.  1.
</event>
<event>
 4    1  0.4363334E-001  0.2377391E+03  0.7818608E-02  0.1121308E+00
          2   -1    0    0  502    0  0.00000000000E+00  0.00000000000E+00  0.69612627461E+03  0.69612627461E+03  0.00000000000E+00 0.  1.
         -2   -1    0    0    0  501 -0.00000000000E+00 -0.00000000000E+00 -0.20097114185E+03  0.20097114185E+03  0.00000000000E+00 0. -1.
          6    1    1    2  502    0  0.19772940591E+02 -0.16292610471E+03 -0.98707177281E+02  0.25741598945E+03  0.17200000000E+03 0. -1.
         -6    1    1    2    0  501 -0.19772940591E+02  0.16292610471E+03  0.59386231004E+03  0.63968142702E+03  0.17200000000E+03 0.  1.
</event>
<event>
 4    1  0.4363334E-001  0.2083896E+03  0.7818608E-02  0.1142848E+00
          2   -1    0    0  502    0  0.00000000000E+00  0.00000000000E+00  0.58684583947E+03  0.58684583947E+03  0.00000000000E+00 0. -1.
         -2   -1    0    0    0  501 -0.00000000000E+00 -0.00000000000E+00 -0.75905107280E+02  0.75905107280E+02  0.00000000000E+00 0.  1.
          6    1    1    2  502    0 -0.64211520229E+01 -0.11747768399E+03  0.30797691328E+03  0.37185483262E+03  0.17200000000E+03 0. -1.
         -6    1    1    2    0  501  0.64211520229E+01  0.11747768399E+03  0.20296381891E+03  0.29089611413E+03  0.17200000000E+03 0.  1.
</event>
<event>
 4    1  0.4363334E-001  0.1809866E+03  0.7818608E-02  0.1166852E+00
          2   -1    0    0  502    0  0.00000000000E+00  0.00000000000E+00  0.20741901122E+03  0.20741901122E+03  0.00000000000E+00 0. -1.
         -2   -1    0    0    0  501 -0.00000000000E+00 -0.00000000000E+00 -0.16795579267E+03  0.16795579267E+03  0.00000000000E+00 0.  1.
          6    1    1    2  502    0  0.54638063729E+00  0.56319163035E+02  0.65604647646E+02  0.19251004246E+03  0.17200000000E+03 0. -1.
         -6    1    1    2    0  501 -0.54638063729E+00 -0.56319163035E+02 -0.26141429087E+02  0.18286476143E+03  0.17200000000E+03 0.  1.
</event>
<event>
 4    1  0.4363334E-001  0.2239254E+03  0.7818608E-02  0.1130990E+00
          1   -1    0    0  502    0  0.00000000000E+00  0.00000000000E+00  0.26427339200E+04  0.26427339200E+04  0.00000000000E+00 0.  1.
         -1   -1    0    0    0  501 -0.00000000000E+00 -0.00000000000E+00 -0.19215752703E+02  0.19215752703E+02  0.00000000000E+00 0. -1.
          6    1    1    2  502    0 -0.70092354320E+02 -0.12508253956E+03  0.14611240806E+04  0.14781833982E+04  0.17200000000E+03 0.  1.
         -6    1    1    2    0  501  0.70092354320E+02  0.12508253956E+03  0.11623940867E+04  0.11837662745E+04  0.17200000000E+03 0. -1.
</event>
<event>
 4    1  0.4363334E-001  0.2343149E+03  0.7818608E-02  0.1123639E+00
         -1   -1    0    0    0  501 -0.00000000000E+00  0.00000000000E+00  0.28018383405E+03  0.28018383405E+03  0.00000000000E+00 0.  1.
          1   -1    0    0  502    0  0.00000000000E+00 -0.00000000000E+00 -0.22859802517E+03  0.22859802517E+03  0.00000000000E+00 0. -1.
          6    1    1    2  502    0  0.15558346238E+03  0.33365483583E+02 -0.70337217145E+02  0.24464421795E+03  0.17200000000E+03 0.  1.
         -6    1    1    2    0  501 -0.15558346238E+03 -0.33365483583E+02  0.12192302603E+03  0.26413764127E+03  0.17200000000E+03 0. -1.
</event>
<event>
 4    1  0.4363334E-001  0.2257706E+03  0.7818608E-02  0.1129652E+00
         -2   -1    0    0    0  501 -0.00000000000E+00  0.00000000000E+00  0.19448737222E+03  0.19448737222E+03  0.00000000000E+00 0.  1.
          2   -1    0    0  502    0  0.00000000000E+00 -0.00000000000E+00 -0.27978041072E+03  0.27978041072E+03  0.00000000000E+00 0. -1.
          6    1    1    2  502    0  0.45234621212E+02 -0.13907624569E+03 -0.10228215148E+03  0.24785885416E+03  0.17200000000E+03 0. -1.
         -6    1    1    2    0  501 -0.45234621212E+02  0.13907624569E+03  0.16989112976E+02  0.22640892878E+03  0.17200000000E+03 0. -1.
</event>
<event>
 4    1  0.4363334E-001  0.2513347E+03  0.7818608E-02  0.1112464E+00
          2   -1    0    0  502    0  0.00000000000E+00  0.00000000000E+00  0.16361282860E+04  0.16361282860E+04  0.00000000000E+00 0. -1.
         -2   -1    0    0    0  501 -0.00000000000E+00 -0.00000000000E+00 -0.42616469187E+02  0.42616469187E+02  0.00000000000E+00 0.  1.
          6    1    1    2  502    0 -0.17389488921E+03 -0.57842117837E+02  0.10541540880E+04  0.10837019813E+04  0.17200000000E+03 0. -1.
         -6    1    1    2    0  501  0.17389488921E+03  0.57842117837E+02  0.53935772879E+03  0.59504277384E+03  0.17200000000E+03 0.  1.
</event>
<event>
 4    1  0.4363334E-001  0.1732346E+03  0.7818608E-02  0.1174516E+00
         -2   -1    0    0    0  501 -0.00000000000E+00  0.00000000000E+00  0.29486831845E+02  0.29486831845E+02  0.00000000000E+00 0.  1.
          2   -1    0    0  502    0  0.00000000000E+00 -0.00000000000E+00 -0.16842312546E+04  0.16842312546E+04  0.00000000000E+00 0. -1.
          6    1    1    2  502    0 -0.12109403632E+02  0.16720763184E+02 -0.28835515271E+03  0.33639101604E+03  0.17200000000E+03 0.  1.
         -6    1    1    2    0  501  0.12109403632E+02 -0.16720763184E+02 -0.13663892701E+04  0.13773270704E+04  0.17200000000E+03 0. -1.
</event>
<event>
 4    1  0.4363334E-001  0.1721022E+03  0.7818608E-02  0.1175673E+00
         -1   -1    0    0    0  501 -0.00000000000E+00  0.00000000000E+00  0.85354988337E+02  0.85354988337E+02  0.00000000000E+00 0.  1.
          1   -1    0    0  502    0  0.00000000000E+00 -0.00000000000E+00 -0.35840540233E+03  0.35840540233E+03  0.00000000000E+00 0. -1.
          6    1    1    2  502    0  0.58867689674E+01 -0.71960936344E+00 -0.17608603967E+03  0.24622238983E+03  0.17200000000E+03 0. -1.
         -6    1    1    2    0  501 -0.58867689674E+01  0.71960936344E+00 -0.96964374322E+02  0.19753800084E+03  0.17200000000E+03 0.  1.
</event>
<event>
 4    1  0.4363334E-001  0.1742927E+03  0.7818608E-02  0.1173444E+00
         -2   -1    0    0    0  501 -0.00000000000E+00  0.00000000000E+00  0.28907089409E+03  0.28907089409E+03  0.00000000000E+00 0. -1.
          2   -1    0    0  502    0  0.00000000000E+00 -0.00000000000E+00 -0.11031873273E+03  0.11031873273E+03  0.00000000000E+00 0.  1.
          6    1    1    2  502    0 -0.14451569955E+02 -0.24188711743E+02  0.13285861699E+03  0.21915600325E+03  0.17200000000E+03 0. -1.
         -6    1    1    2    0  501  0.14451569955E+02  0.24188711743E+02  0.45893544369E+02  0.18023362357E+03  0.17200000000E+03 0.  1.
</event>
<event>
 4    1  0.4363334E-001  0.2062310E+03  0.7818608E-02  0.1144586E+00
         -1   -1    0    0    0  501 -0.00000000000E+00  0.00000000000E+00  0.45338053671E+02  0.45338053671E+02  0.00000000000E+00 0. -1.
          1   -1    0    0  502    0  0.00000000000E+00 -0.00000000000E+00 -0.96304653329E+03  0.96304653329E+03  0.00000000000E+00 0.  1.
          6    1    1    2  502    0  0.81106033349E+02  0.79806148267E+02 -0.54001721236E+03  0.57805691726E+03  0.17200000000E+03 0.  1.
         -6    1    1    2    0  501 -0.81106033349E+02 -0.79806148267E+02 -0.37769126725E+03  0.43032766970E+03  0.17200000000E+03 0.  1.
</event>
<event>
 4    1  0.4363334E-001  0.1819532E+03  0.7818608E-02  0.1165926E+00
          2   -1    0    0  502    0  0.00000000000E+00  0.00000000000E+00  0.48177765467E+03  0.48177765467E+03  0.00000000000E+00 0.  1.
         -2   -1    0    0    0  501 -0.00000000000E+00 -0.00000000000E+00 -0.77715078344E+02  0.77715078344E+02  0.00000000000E+00 0. -1.
          6    1    1    2  502    0 -0.57431163958E+02 -0.14987811123E+02  0.10684952760E+03  0.21100662223E+03  0.17200000000E+03 0. -1.
         -6    1    1    2    0  501  0.57431163958E+02  0.14987811123E+02  0.29721304873E+03  0.34848611079E+03  0.17200000000E+03 0. -1.
</event>
<event>
 4    1  0.4363334E-001  0.2830003E+03  0.7818608E-02  0.1094061E+00
          2   -1    0    0  502    0  0.00000000000E+00  0.00000000000E+00  0.13218616577E+04  0.13218616577E+04  0.00000000000E+00 0.  1.
         -2   -1    0    0    0  501 -0.00000000000E+00 -0.00000000000E+00 -0.60601730687E+02  0.60601730687E+02  0.00000000000E+00 0. -1.
          6    1    1    2  502    0  0.47472682368E+02 -0.21966227307E+03  0.64097260809E+03  0.70066757746E+03  0.17200000000E+03 0.  1.
         -6    1    1    2    0  501 -0.47472682368E+02  0.21966227307E+03  0.62028731891E+03  0.68179581092E+03  0.17200000000E+03 0. -1.
</event>
<event>
 4    1  0.4363334E-001  0.1988627E+03  0.7818608E-02  0.1150702E+00
          1   -1    0    0  502    0  0.00000000000E+00  0.00000000000E+00  0.40763215948E+03  0.40763215948E+03  0.00000000000E+00 0. -1.
         -1   -1    0    0    0  501 -0.00000000000E+00 -0.00000000000E+00 -0.10200891831E+03  0.10200891831E+03  0.00000000000E+00 0.  1.
          6    1    1    2  502    0 -0.17620623941E+02 -0.98243971976E+02  0.96429229092E+02  0.22100896054E+03  0.17200000000E+03 0.  1.
         -6    1    1    2    0  501  0.17620623941E+02  0.98243971976E+02  0.20919401208E+03  0.28863211725E+03  0.17200000000E+03 0.  1.
</event>
<event>
 4    1  0.4363334E-001  0.2371715E+03  0.7818608E-02  0.1121692E+00
          2   -1    0    0  502    0  0.00000000000E+00  0.00000000000E+00  0.95586503883E+03  0.95586503883E+03  0.00000000000E+00 0.  1.
         -2   -1    0    0    0  501 -0.00000000000E+00 -0.00000000000E+00 -0.63227394364E+02  0.63227394364E+02  0.00000000000E+00 0. -1.
          6    1    1    2  502    0 -0.53021647831E+02  0.15445071703E+03  0.58042849364E+03  0.62701479676E+03  0.17200000000E+03 0. -1.
         -6    1    1    2    0  501  0.53021647831E+02 -0.15445071703E+03  0.31220915083E+03  0.39207763643E+03  0.17200000000E+03 0. -1.
</event>
<event>
 4    1  0.4363334E-001  0.1884711E+03  0.7818608E-02  0.1159848E+00
         -3   -1    0    0    0  501 -0.00000000000E+00  0.00000000000E+00  0.77664867869E+03  0.77664867869E+03  0.00000000000E+00 0.  1.
          3   -1    0    0  502    0  0.00000000000E+00 -0.00000000000E+00 -0.51867470069E+02  0.51867470069E+02  0.00000000000E+00 0. -1.
          6    1    1    2  502    0  0.68636716021E+02 -0.35019581639E+02  0.50481354497E+03  0.53884885179E+03  0.17200000000E+03 0.  1.
         -6    1    1    2    0  501 -0.68636716021E+02  0.35019581639E+02  0.21996766365E+03  0.28966729697E+03  0.17200000000E+03 0. -1.
</event>
<event>
 4    1  0.4363334E-001  0.2531665E+03  0.7818608E-02  0.1111320E+00
         -1   -1    0    0    0  501 -0.00000000000E+00  0.00000000000E+00  0.58310745990E+02  0.58310745990E+02  0.00000000000E+00 0. -1.
          1   -1    0    0  502    0  0.00000000000E+00 -0.00000000000E+00 -0.20043816318E+04  0.20043816318E+04  0.00000000000E+00 0.  1.
          6    1    1    2  502    0 -0.17802497349E+02 -0.18491168328E+03 -0.16661260211E+04  0.16852504792E+04  0.17200000000E+03 0.  1.
         -6    1    1    2    0  501  0.17802497349E+02  0.18491168328E+03 -0.27994486475E+03  0.37744189861E+03  0.17200000000E+03 0. -1.
</event>
<event>
 4    1  0.4363334E-001  0.1876891E+03  0.7818608E-02  0.1160562E+00
         -1   -1    0    0    0  501 -0.00000000000E+00  0.00000000000E+00  0.17777578172E+03  0.17777578172E+03  0.00000000000E+00 0. -1.
          1   -1    0    0  502    0  0.00000000000E+00 -0.00000000000E+00 -0.35542288762E+03  0.35542288762E+03  0.00000000000E+00 0.  1.
          6    1    1    2  502    0 -0.33302119868E+02 -0.67336358473E+02  0.88516141142E+02  0.20751463467E+03  0.17200000000E+03 0. -1.
         -6    1    1    2    0  501  0.33302119868E+02  0.67336358473E+02 -0.26616324705E+03  0.32568403467E+03  0.17200000000E+03 0.  1.
</event>
<event>
 4    1  0.4363334E-001  0.1883829E+03  0.7818608E-02  0.1159928E+00
         -2   -1    0    0    0  501 -0.00000000000E+00  0.00000000000E+00  0.16954464349E+03  0.16954464349E+03  0.00000000000E+00 0. -1.
          2   -1    0    0  502    0  0.00000000000E+00 -0.00000000000E+00 -0.22551766682E+03  0.22551766682E+03  0.00000000000E+00 0.  1.
          6    1    1    2  502    0 -0.28206581025E+02 -0.71473886549E+02 -0.80934225807E+02  0.20503286707E+03  0.17200000000E+03 0.  1.
         -6    1    1    2    0  501  0.28206581025E+02  0.71473886549E+02  0.24961202478E+02  0.19002944325E+03  0.17200000000E+03 0.  1.
</event>
<event>
 4    1  0.4363334E-001  0.3299539E+03  0.7818608E-02  0.1071157E+00
         -1   -1    0    0    0  501 -0.00000000000E+00  0.00000000000E+00  0.11746472293E+03  0.11746472293E+03  0.00000000000E+00 0. -1.
          1   -1    0    0  502    0  0.00000000000E+00 -0.00000000000E+00 -0.92700273216E+03  0.92700273216E+03  0.00000000000E+00 0.  1.
          6    1    1    2  502    0 -0.27994802271E+03 -0.30243571419E+02 -0.39759474393E+03  0.51667315533E+03  0.17200000000E+03 0.  1.
         -6    1    1    2    0  501  0.27994802271E+03  0.30243571419E+02 -0.41194326530E+03  0.52779429976E+03  0.17200000000E+03 0.  1.
</event>
<event>
 4    1  0.4363334E-001  0.2460505E+03  0.7818608E-02  0.1115827E+00
         -2   -1    0    0    0  501 -0.00000000000E+00  0.00000000000E+00  0.23519567709E+03  0.23519567709E+03  0.00000000000E+00 0.  1.
          2   -1    0    0  502    0  0.00000000000E+00 -0.00000000000E+00 -0.29126038689E+03  0.29126038689E+03  0.00000000000E+00 0. -1.
          6    1    1    2  502    0  0.73785477287E+02  0.15972647525E+03 -0.11777464066E+03  0.27278509772E+03  0.17200000000E+03 0. -1.
         -6    1    1    2    0  501 -0.73785477287E+02 -0.15972647525E+03  0.61709930860E+02  0.25367096626E+03  0.17200000000E+03 0.  1.
</event>
<event>
 4    1  0.4363334E-001  0.3457429E+03  0.7818608E-02  0.1064376E+00
         -3   -1    0    0    0  501 -0.00000000000E+00  0.00000000000E+00  0.13265000145E+03  0.13265000145E+03  0.00000000000E+00 0. -1.
          3   -1    0    0  502    0  0.00000000000E+00 -0.00000000000E+00 -0.90115460752E+03  0.90115460752E+03  0.00000000000E+00 0.  1.
          6    1    1    2  502    0 -0.29262569105E+03 -0.65759903405E+02 -0.38426080735E+03  0.51690862638E+03  0.17200000000E+03 0.  1.
         -6    1    1    2    0  501  0.29262569105E+03  0.65759903405E+02 -0.38424379872E+03  0.51689598259E+03  0.17200000000E+03 0. -1.
</event>
<event>
 4    1  0.4363334E-001  0.2758298E+03  0.7818608E-02  0.1097989E+00
         -1   -1    0    0    0  501 -0.00000000000E+00  0.00000000000E+00  0.27408096402E+03  0.27408096402E+03  0.00000000000E+00 0.  1.
          1   -1    0    0  502    0  0.00000000000E+00 -0.00000000000E+00 -0.28788988681E+03  0.28788988681E+03  0.00000000000E+00 0. -1.
          6    1    1    2  502    0  0.19155540963E+03 -0.99018216045E+02 -0.60052944225E+02  0.28229140649E+03  0.17200000000E+03 0.  1.
         -6    1    1    2    0  501 -0.19155540963E+03  0.99018216045E+02  0.46244021432E+02  0.27967944434E+03  0.17200000000E+03 0. -1.
</event>
<event>
 4    1  0.4363334E-001  0.3392129E+03  0.7818608E-02  0.1067132E+00
         -2   -1    0    0    0  501 -0.00000000000E+00  0.00000000000E+00  0.22756975420E+03  0.22756975420E+03  0.00000000000E+00 0. -1.
          2   -1    0    0  502    0  0.00000000000E+00 -0.00000000000E+00 -0.77364250590E+03  0.77364250590E+03  0.00000000000E+00 0.  1.
          6    1    1    2  502    0 -0.29032366290E+03  0.34548208786E+02 -0.56768605798E+03  0.66131147608E+03  0.17200000000E+03 0.  1.
         -6    1    1    2    0  501  0.29032366290E+03 -0.34548208786E+02  0.21613306280E+02  0.33990078403E+03  0.17200000000E+03 0. -1.
</event>
<event>
 4    1  0.4363334E-001  0.3165515E+03  0.7818608E-02  0.1077247E+00
          4   -1    0    0  502    0  0.00000000000E+00  0.00000000000E+00  0.12481152375E+03  0.12481152375E+03  0.00000000000E+00 0.  1.
         -4   -1    0    0    0  501 -0.00000000000E+00 -0.00000000000E+00 -0.81151482473E+03  0.81151482473E+03  0.00000000000E+00 0. -1.
          6    1    1    2  502    0 -0.20655815233E+02 -0.26494189523E+03 -0.39172890494E+03  0.50364313310E+03  0.17200000000E+03 0. -1.
         -6    1    1    2    0  501  0.20655815233E+02  0.26494189523E+03 -0.29497439604E+03  0.43268321538E+03  0.17200000000E+03 0.  1.
</event>
<event>
 4    1  0.4363334E-001  0.1992053E+03  0.7818608E-02  0.1150411E+00
         -1   -1    0    0    0  501 -0.00000000000E+00  0.00000000000E+00  0.31866544731E+02  0.31866544731E+02  0.00000000000E+00 0. -1.
          1   -1    0    0  502    0  0.00000000000E+00 -0.00000000000E+00 -0.13976787638E+04  0.13976787638E+04  0.00000000000E+00 0.  1.
          6    1    1    2  502    0  0.29377116818E+02  0.96102711324E+02 -0.91893005849E+03  0.94027400183E+03  0.17200000000E+03 0. -1.
         -6    1    1    2    0  501 -0.29377116818E+02 -0.96102711324E+02 -0.44688216054E+03  0.48927130667E+03  0.17200000000E+03 0.  1.
</event>
<event>
 4    1  0.4363334E-001  0.2285459E+03  0.7818608E-02  0.1127667E+00
         -1   -1    0    0    0  501 -0.00000000000E+00  0.00000000000E+00  0.15137694171E+04  0.15137694171E+04  0.00000000000E+00 0.  1.
          1   -1    0    0  502    0  0.00000000000E+00 -0.00000000000E+00 -0.56400340128E+02  0.56400340128E+02  0.00000000000E+00 0. -1.
          6    1    1    2  502    0  0.15040162406E+03 -0.53445069568E+01  0.23952820877E+03  0.33106944146E+03  0.17200000000E+03 0. -1.
         -6    1    1    2    0  501 -0.15040162406E+03  0.53445069568E+01  0.12178408682E+04  0.12391003158E+04  0.17200000000E+03 0.  1.
</event>
<event>
 4    1  0.4363334E-001  0.3218268E+03  0.7818608E-02  0.1074812E+00
          2   -1    0    0  502    0  0.00000000000E+00  0.00000000000E+00  0.15930013674E+04  0.15930013674E+04  0.00000000000E+00 0. -1.
         -2   -1    0    0    0  501 -0.00000000000E+00 -0.00000000000E+00 -0.65168344925E+02  0.65168344925E+02  0.00000000000E+00 0.  1.
          6    1    1    2  502    0 -0.25405237123E+03  0.97190044516E+02  0.80384254412E+03  0.86587259329E+03  0.17200000000E+03 0. -1.
         -6    1    1    2    0  501  0.25405237123E+03 -0.97190044516E+02  0.72399047836E+03  0.79229711904E+03  0.17200000000E+03 0.  1.
</event>
<event>
 4    1  0.4363334E-001  0.3156104E+03  0.7818608E-02  0.1077687E+00
         -1   -1    0    0    0  501 -0.00000000000E+00  0.00000000000E+00  0.33770424481E+03  0.33770424481E+03  0.00000000000E+00 0.  1.
          1   -1    0    0  502    0  0.00000000000E+00 -0.00000000000E+00 -0.29942856111E+03  0.29942856111E+03  0.00000000000E+00 0. -1.
          6    1    1    2  502    0 -0.10313064253E+03 -0.24370061400E+03  0.58045949628E+02  0.32090380328E+03  0.17200000000E+03 0.  1.
         -6    1    1    2    0  501  0.10313064253E+03  0.24370061400E+03 -0.19770265922E+02  0.31622900264E+03  0.17200000000E+03 0. -1.
</event>
<event>
 4    1  0.4363334E-001  0.2223980E+03  0.7818608E-02  0.1132108E+00
          2   -1    0    0  502    0  0.00000000000E+00  0.00000000000E+00  0.22968237512E+04  0.22968237512E+04  0.00000000000E+00 0. -1.
         -2   -1    0    0    0  501 -0.00000000000E+00 -0.00000000000E+00 -0.30994210962E+02  0.30994210962E+02  0.00000000000E+00 0.  1.
          6    1    1    2  502    0  0.57912137511E+02 -0.12854195984E+03  0.17759261506E+04  0.17897973470E+04  0.17200000000E+03 0.  1.
         -6    1    1    2    0  501 -0.57912137511E+02  0.12854195984E+03  0.48990338966E+03  0.53802061514E+03  0.17200000000E+03 0.  1.
</event>
<event>
 4    1  0.4363334E-001  0.1812647E+03  0.7818608E-02  0.1166585E+00
         -2   -1    0    0    0  501 -0.00000000000E+00  0.00000000000E+00  0.18790862971E+02  0.18790862971E+02  0.00000000000E+00 0.  1.
          2   -1    0    0  502    0  0.00000000000E+00 -0.00000000000E+00 -0.17549141354E+04  0.17549141354E+04  0.00000000000E+00 0. -1.
          6    1    1    2  502    0  0.26833921148E+02  0.50525577890E+02 -0.92143900541E+03  0.93909889471E+03  0.17200000000E+03 0.  1.
         -6    1    1    2    0  501 -0.26833921148E+02 -0.50525577890E+02 -0.81468426699E+03  0.83460610363E+03  0.17200000000E+03 0.  1.
</event>
<event>
 4    1  0.4363334E-001  0.1868574E+03  0.7818608E-02  0.1161327E+00
         -2   -1    0    0    0  501 -0.00000000000E+00  0.00000000000E+00  0.99315612140E+02  0.99315612140E+02  0.00000000000E+00 0. -1.
          2   -1    0    0  502    0  0.00000000000E+00 -0.00000000000E+00 -0.37988088142E+03  0.37988088142E+03  0.00000000000E+00 0.  1.
          6    1    1    2  502    0 -0.33307962059E+02 -0.64978952289E+02 -0.74865567880E+02  0.20129713816E+03  0.17200000000E+03 0.  1.
         -6    1    1    2    0  501  0.33307962059E+02  0.64978952289E+02 -0.20569970140E+03  0.27789935540E+03  0.17200000000E+03 0.  1.
</event>
<event>
 4    1  0.4363334E-001  0.1754260E+03  0.7818608E-02  0.1172305E+00
         -1   -1    0    0    0  501 -0.00000000000E+00  0.00000000000E+00  0.59981566733E+02  0.59981566733E+02  0.00000000000E+00 0.  1.
          1   -1    0    0  502    0  0.00000000000E+00 -0.00000000000E+00 -0.52430298557E+03  0.52430298557E+03  0.00000000000E+00 0. -1.
          6    1    1    2  502    0  0.16721239860E+02  0.30177474408E+02 -0.27493668158E+03  0.32613564463E+03  0.17200000000E+03 0.  1.
         -6    1    1    2    0  501 -0.16721239860E+02 -0.30177474408E+02 -0.18938473726E+03  0.25814890767E+03  0.17200000000E+03 0.  1.
</event>
<event>
 4    1  0.4363334E-001  0.2272858E+03  0.7818608E-02  0.1128565E+00
          1   -1    0    0  502    0  0.00000000000E+00  0.00000000000E+00  0.13901062230E+03  0.13901062230E+03  0.00000000000E+00 0.  1.
         -1   -1    0    0    0  501 -0.00000000000E+00 -0.00000000000E+00 -0.37488110749E+03  0.37488110749E+03  0.00000000000E+00 0. -1.
          6    1    1    2  502    0 -0.13732595276E+03 -0.56713334528E+02 -0.14190837709E+03  0.26794926218E+03  0.17200000000E+03 0.  1.
         -6    1    1    2    0  501  0.13732595276E+03  0.56713334528E+02 -0.93962108101E+02  0.24594246761E+03  0.17200000000E+03 0.  1.
</event>
<event>
 4    1  0.4363334E-001  0.1788618E+03  0.7818608E-02  0.1168909E+00
         -2   -1    0    0    0  501 -0.00000000000E+00  0.00000000000E+00  0.22848552530E+03  0.22848552530E+03  0.00000000000E+00 0. -1.
          2   -1    0    0  502    0  0.00000000000E+00 -0.00000000000E+00 -0.19319909209E+03  0.19319909209E+03  0.00000000000E+00 0.  1.
          6    1    1    2  502    0  0.19931557638E+02  0.44836092963E+02 -0.92979309266E+02  0.20158545129E+03  0.17200000000E+03 0.  1.
         -6    1    1    2    0  501 -0.19931557638E+02 -0.44836092963E+02  0.12826574247E+03  0.22009916609E+03  0.17200000000E+03 0. -1.
</event>
<event>
 4    1  0.4363334E-001  0.1869312E+03  0.7818608E-02  0.1161259E+00
          1   -1    0    0  502    0  0.00000000000E+00  0.00000000000E+00  0.67308316618E+02  0.67308316618E+02  0.00000000000E+00 0. -1.
         -1   -1    0    0    0  501 -0.00000000000E+00 -0.00000000000E+00 -0.52941127304E+03  0.52941127304E+03  0.00000000000E+00 0.  1.
          6    1    1    2  502    0 -0.72558251756E+02  0.97244668114E+01 -0.18951818648E+03  0.26619618359E+03  0.17200000000E+03 0.  1.
         -6    1    1    2    0  501  0.72558251756E+02 -0.97244668114E+01 -0.27258476994E+03  0.33052340607E+03  0.17200000000E+03 0.  1.
</event>
<event>
 4    1  0.4363334E-001  0.1786346E+03  0.7818608E-02  0.1169131E+00
          2   -1    0    0  502    0  0.00000000000E+00  0.00000000000E+00  0.23373840154E+03  0.23373840154E+03  0.00000000000E+00 0.  1.
         -2   -1    0    0    0  501 -0.00000000000E+00 -0.00000000000E+00 -0.47614545384E+03  0.47614545384E+03  0.00000000000E+00 0. -1.
          6    1    1    2  502    0  0.23127714012E+02  0.42325269658E+02  0.17856541422E+03  0.25257855563E+03  0.17200000000E+03 0.  1.
         -6    1    1    2    0  501 -0.23127714012E+02 -0.42325269658E+02 -0.42097246652E+03  0.45730529975E+03  0.17200000000E+03 0. -1.
</event>
<event>
 4    1  0.4363334E-001  0.1952296E+03  0.7818608E-02  0.1153827E+00
         -2   -1    0    0    0  501 -0.00000000000E+00  0.00000000000E+00  0.22446344137E+03  0.22446344137E+03  0.00000000000E+00 0. -1.
          2   -1    0    0  502    0  0.00000000000E+00 -0.00000000000E+00 -0.17307297242E+03  0.17307297242E+03  0.00000000000E+00 0.  1.
          6    1    1    2  502    0 -0.92116358589E+02 -0.67217375836E+01  0.53015985922E+02  0.20230002481E+03  0.17200000000E+03 0.  1.
         -6    1    1    2    0  501  0.92116358589E+02  0.67217375836E+01 -0.16255169692E+01  0.19523638898E+03  0.17200000000E+03 0. -1.
</event>
<event>
 4    1  0.4363334E-001  0.2102175E+03  0.7818608E-02  0.1141394E+00
         -3   -1    0    0    0  501 -0.00000000000E+00  0.00000000000E+00  0.84983560524E+02  0.84983560524E+02  0.00000000000E+00 0.  1.
          3   -1    0    0  502    0  0.00000000000E+00 -0.00000000000E+00 -0.56466305526E+03  0.56466305526E+03  0.00000000000E+00 0. -1.
          6    1    1    2  502    0 -0.10579838086E+03  0.58430459712E+02 -0.33119399405E+03  0.39227653219E+03  0.17200000000E+03 0. -1.
         -6    1    1    2    0  501  0.10579838086E+03 -0.58430459712E+02 -0.14848550069E+03  0.25737008360E+03  0.17200000000E+03 0.  1.
</event>
<event>
 4    1  0.4363334E-001  0.1882216E+03  0.7818608E-02  0.1160075E+00
         -2   -1    0    0    0  501 -0.00000000000E+00  0.00000000000E+00  0.22586926329E+02  0.22586926329E+02  0.00000000000E+00 0. -1.
          2   -1    0    0  502    0  0.00000000000E+00 -0.00000000000E+00 -0.15711240327E+04  0.15711240327E+04  0.00000000000E+00 0.  1.
          6    1    1    2  502    0 -0.76434776251E+02  0.10529272246E+01 -0.80689185932E+03  0.82855407567E+03  0.17200000000E+03 0. -1.
         -6    1    1    2    0  501  0.76434776251E+02 -0.10529272246E+01 -0.74164524710E+03  0.76515688341E+03  0.17200000000E+03 0. -1.
</event>
<event>
 4    1  0.4363334E-001  0.1872867E+03  0.7818608E-02  0.1160932E+00
          2   -1    0    0  502    0  0.00000000000E+00  0.00000000000E+00  0.23593254351E+04  0.23593254351E+04  0.00000000000E+00 0.  1.
         -2   -1    0    0    0  501 -0.00000000000E+00 -0.00000000000E+00 -0.34265843920E+02  0.34265843920E+02  0.00000000000E+00 0. -1.
          6    1    1    2  502    0  0.63426468871E+02  0.38332859062E+02  0.20630139959E+04  0.20714977848E+04  0.17200000000E+03 0.  1.
         -6    1    1    2    0  501 -0.63426468871E+02 -0.38332859062E+02  0.26204559533E+03  0.32209349430E+03  0.17200000000E+03 0. -1.
</event>
<event>
 4    1  0.4363334E-001  0.2655132E+03  0.7818608E-02  0.1103875E+00
         -1   -1    0    0    0  501 -0.00000000000E+00  0.00000000000E+00  0.83275782380E+02  0.83275782380E+02  0.00000000000E+00 0.  1.
          1   -1    0    0  502    0  0.00000000000E+00 -0.00000000000E+00 -0.94627293617E+03  0.94627293617E+03  0.00000000000E+00 0. -1.
          6    1    1    2  502    0 -0.17100661316E+03  0.10802774899E+03 -0.59860859785E+03  0.65485075377E+03  0.17200000000E+03 0. -1.
         -6    1    1    2    0  501  0.17100661316E+03 -0.10802774899E+03 -0.26438855595E+03  0.37469796478E+03  0.17200000000E+03 0. -1.
</event>
<event>
 4    1  0.4363334E-001  0.1777100E+03  0.7818608E-02  0.1170038E+00
         -2   -1    0    0    0  501 -0.00000000000E+00  0.00000000000E+00  0.36433136069E+02  0.36433136069E+02  0.00000000000E+00 0. -1.
          2   -1    0    0  502    0  0.00000000000E+00 -0.00000000000E+00 -0.11997963318E+04  0.11997963318E+04  0.00000000000E+00 0.  1.
          6    1    1    2  502    0 -0.25613831982E+02  0.36616387929E+02 -0.25605147837E+03  0.31167801949E+03  0.17200000000E+03 0. -1.
         -6    1    1    2    0  501  0.25613831982E+02 -0.36616387929E+02 -0.90731171740E+03  0.92455144843E+03  0.17200000000E+03 0.  1.
</event>
<event>
 4    1  0.4363334E-001  0.2150993E+03  0.7818608E-02  0.1137590E+00
          2   -1    0    0  502    0  0.00000000000E+00  0.00000000000E+00  0.73716103368E+02  0.73716103368E+02  0.00000000000E+00 0.  1.
         -2   -1    0    0    0  501 -0.00000000000E+00 -0.00000000000E+00 -0.68769469566E+03  0.68769469566E+03  0.00000000000E+00 0. -1.
          6    1    1    2  502    0 -0.98580584135E+02  0.83460056374E+02 -0.19449297511E+03  0.28999177565E+03  0.17200000000E+03 0. -1.
         -6    1    1    2    0  501  0.98580584135E+02 -0.83460056374E+02 -0.41948561718E+03  0.47141902337E+03  0.17200000000E+03 0. -1.
</event>
<event>
 4    1  0.4363334E-001  0.1802249E+03  0.7818608E-02  0.1167586E+00
          2   -1    0    0  502    0  0.00000000000E+00  0.00000000000E+00  0.11008768593E+04  0.11008768593E+04  0.00000000000E+00 0. -1.
         -2   -1    0    0    0  501 -0.00000000000E+00 -0.00000000000E+00 -0.13027119131E+03  0.13027119131E+03  0.00000000000E+00 0.  1.
          6    1    1    2  502    0 -0.38764538466E+02 -0.37340803293E+02 -0.56092108280E+02  0.18875208514E+03  0.17200000000E+03 0.  1.
         -6    1    1    2    0  501  0.38764538466E+02  0.37340803293E+02  0.10266977763E+04  0.10423959655E+04  0.17200000000E+03 0. -1.
</event>
<event>
 4    1  0.4363334E-001  0.2012206E+03  0.7818608E-02  0.1148713E+00
          2   -1    0    0  502    0  0.00000000000E+00  0.00000000000E+00  0.26858286060E+04  0.26858286060E+04  0.00000000000E+00 0.  1.
         -2   -1    0    0    0  501 -0.00000000000E+00 -0.00000000000E+00 -0.18419660543E+02  0.18419660543E+02  0.00000000000E+00 0. -1.
          6    1    1    2  502    0 -0.51309646763E+02  0.90956255751E+02  0.19098485881E+04  0.19204195765E+04  0.17200000000E+03 0. -1.
         -6    1    1    2    0  501  0.51309646763E+02 -0.90956255751E+02  0.75756035743E+03  0.78382869013E+03  0.17200000000E+03 0. -1.
</event>
<event>
 4    1  0.4363334E-001  0.1840721E+03  0.7818608E-02  0.1163919E+00
          2   -1    0    0  502    0  0.00000000000E+00  0.00000000000E+00  0.14308970866E+04  0.14308970866E+04  0.00000000000E+00 0. -1.
         -2   -1    0    0    0  501 -0.00000000000E+00 -0.00000000000E+00 -0.41292897963E+02  0.41292897963E+02  0.00000000000E+00 0.  1.
          6    1    1    2  502    0 -0.43641256175E+02  0.48928394837E+02  0.11755540216E+04  0.11898780630E+04  0.17200000000E+03 0. -1.
         -6    1    1    2    0  501  0.43641256175E+02 -0.48928394837E+02  0.21405016705E+03  0.28231192160E+03  0.17200000000E+03 0.  1.
</event>
<event>
 4    1  0.4363334E-001  0.1757933E+03  0.7818608E-02  0.1171938E+00
          2   -1    0    0  502    0  0.00000000000E+00  0.00000000000E+00  0.53380350258E+03  0.53380350258E+03  0.00000000000E+00 0. -1.
         -2   -1    0    0    0  501 -0.00000000000E+00 -0.00000000000E+00 -0.58318492028E+02  0.58318492028E+02  0.00000000000E+00 0.  1.
          6    1    1    2  502    0 -0.32050916411E+02 -0.17088836924E+02  0.21244302309E+03  0.27574504103E+03  0.17200000000E+03 0. -1.
         -6    1    1    2    0  501  0.32050916411E+02  0.17088836924E+02  0.26304198746E+03  0.31637695358E+03  0.17200000000E+03 0.  1.
</event>
<event>
 4    1  0.4363334E-001  0.2181978E+03  0.7818608E-02  0.1135234E+00
          1   -1    0    0  502    0  0.00000000000E+00  0.00000000000E+00  0.13747141001E+04  0.13747141001E+04  0.00000000000E+00 0. -1.
         -1   -1    0    0    0  501 -0.00000000000E+00 -0.00000000000E+00 -0.37727725690E+02  0.37727725690E+02  0.00000000000E+00 0.  1.
          6    1    1    2  502    0  0.10896818923E+03 -0.78436129657E+02  0.87076276382E+03  0.89768484646E+03  0.17200000000E+03 0. -1.
         -6    1    1    2    0  501 -0.10896818923E+03  0.78436129657E+02  0.46622361058E+03  0.51475697933E+03  0.17200000000E+03 0.  1.
</event>
<event>
 4    1  0.4363334E-001  0.2147238E+03  0.7818608E-02  0.1137879E+00
          1   -1    0    0  502    0  0.00000000000E+00  0.00000000000E+00  0.21586272305E+03  0.21586272305E+03  0.00000000000E+00 0. -1.
         -1   -1    0    0    0  501 -0.00000000000E+00 -0.00000000000E+00 -0.21430359769E+03  0.21430359769E+03  0.00000000000E+00 0.  1.
          6    1    1    2  502    0 -0.12840710060E+03  0.58245406095E+01 -0.11624123052E+02  0.21503820357E+03  0.17200000000E+03 0. -1.
         -6    1    1    2    0  501  0.12840710060E+03 -0.58245406095E+01  0.13183248421E+02  0.21512811717E+03  0.17200000000E+03 0. -1.
</event>
<event>
 4    1  0.4363334E-001  0.1813915E+03  0.7818608E-02  0.1166463E+00
          1   -1    0    0  502    0  0.00000000000E+00  0.00000000000E+00  0.44374722400E+03  0.44374722400E+03  0.00000000000E+00 0. -1.
         -1   -1    0    0    0  501 -0.00000000000E+00 -0.00000000000E+00 -0.74149695729E+02  0.74149695729E+02  0.00000000000E+00 0.  1.
          6    1    1    2  502    0  0.12344989845E+02  0.56271578588E+02  0.18349639747E+03  0.25801902491E+03  0.17200000000E+03 0. -1.
         -6    1    1    2    0  501 -0.12344989845E+02 -0.56271578588E+02  0.18610113080E+03  0.25987789482E+03  0.17200000000E+03 0.  1.
</event>
<event>
 4    1  0.4363334E-001  0.3337941E+03  0.7818608E-02  0.1069470E+00
          2   -1    0    0  502    0  0.00000000000E+00  0.00000000000E+00  0.22778938221E+04  0.22778938221E+04  0.00000000000E+00 0. -1.
         -2   -1    0    0    0  501 -0.00000000000E+00 -0.00000000000E+00 -0.55543118560E+02  0.55543118560E+02  0.00000000000E+00 0.  1.
          6    1    1    2  502    0 -0.24562490752E+03  0.14663859758E+03  0.15142761928E+04  0.15506291825E+04  0.17200000000E+03 0. -1.
         -6    1    1    2    0  501  0.24562490752E+03 -0.14663859758E+03  0.70807451069E+03  0.78280775812E+03  0.17200000000E+03 0.  1.
</event>
<event>
 4    1  0.4363334E-001  0.1902433E+03  0.7818608E-02  0.1158242E+00
          1   -1    0    0  502    0  0.00000000000E+00  0.00000000000E+00  0.23344075897E+03  0.23344075897E+03  0.00000000000E+00 0. -1.
         -1   -1    0    0    0  501 -0.00000000000E+00 -0.00000000000E+00 -0.18366831546E+03  0.18366831546E+03  0.00000000000E+00 0.  1.
          6    1    1    2  502    0 -0.75371882839E+01  0.80942498543E+02 -0.57452771320E+02  0.19872925857E+03  0.17200000000E+03 0.  1.
         -6    1    1    2    0  501  0.75371882839E+01 -0.80942498543E+02  0.10722521483E+03  0.21837981586E+03  0.17200000000E+03 0. -1.
</event>
<event>
 4    1  0.4363334E-001  0.1836988E+03  0.7818608E-02  0.1164271E+00
         -3   -1    0    0    0  501 -0.00000000000E+00  0.00000000000E+00  0.12046695588E+03  0.12046695588E+03  0.00000000000E+00 0.  1.
          3   -1    0    0  502    0  0.00000000000E+00 -0.00000000000E+00 -0.47553199570E+03  0.47553199570E+03  0.00000000000E+00 0. -1.
          6    1    1    2  502    0 -0.39967067349E+02 -0.50634918594E+02 -0.36856213719E+03  0.41180494220E+03  0.17200000000E+03 0. -1.
         -6    1    1    2    0  501  0.39967067349E+02  0.50634918594E+02  0.13497097359E+02  0.18419400938E+03  0.17200000000E+03 0.  1.
</event>
<event>
 4    1  0.4363334E-001  0.1968255E+03  0.7818608E-02  0.1152445E+00
         -2   -1    0    0    0  501 -0.00000000000E+00  0.00000000000E+00  0.45167501436E+02  0.45167501436E+02  0.00000000000E+00 0.  1.
          2   -1    0    0  502    0  0.00000000000E+00 -0.00000000000E+00 -0.12322065479E+04  0.12322065479E+04  0.00000000000E+00 0. -1.
          6    1    1    2  502    0  0.78554990731E+02 -0.54638746490E+02 -0.94562646854E+03  0.96589321210E+03  0.17200000000E+03 0. -1.
         -6    1    1    2    0  501 -0.78554990731E+02  0.54638746490E+02 -0.24141257796E+03  0.31148083726E+03  0.17200000000E+03 0.  1.
</event>
<event>
 4    1  0.4363334E-001  0.1966212E+03  0.7818608E-02  0.1152621E+00
         -2   -1    0    0    0  501 -0.00000000000E+00  0.00000000000E+00  0.87759618508E+02  0.87759618508E+02  0.00000000000E+00 0. -1.
          2   -1    0    0  502    0  0.00000000000E+00 -0.00000000000E+00 -0.44727863882E+03  0.44727863882E+03  0.00000000000E+00 0.  1.
          6    1    1    2  502    0  0.25695245626E+02 -0.91736870905E+02 -0.14687558347E+03  0.24542277024E+03  0.17200000000E+03 0.  1.
         -6    1    1    2    0  501 -0.25695245626E+02  0.91736870905E+02 -0.21264343684E+03  0.28961548709E+03  0.17200000000E+03 0. -1.
</event>
<event>
 4    1  0.4363334E-001  0.2064907E+03  0.7818608E-02  0.1144375E+00
          1   -1    0    0  502    0  0.00000000000E+00  0.00000000000E+00  0.17224155088E+03  0.17224155088E+03  0.00000000000E+00 0.  1.
         -1   -1    0    0    0  501 -0.00000000000E+00 -0.00000000000E+00 -0.24865211890E+03  0.24865211890E+03  0.00000000000E+00 0. -1.
          6    1    1    2  502    0 -0.11182233374E+03  0.23456007167E+02 -0.24195398051E+02  0.20790342922E+03  0.17200000000E+03 0.  1.
         -6    1    1    2    0  501  0.11182233374E+03 -0.23456007167E+02 -0.52215169972E+02  0.21299024055E+03  0.17200000000E+03 0. -1.
</event>
<event>
 4    1  0.4363334E-001  0.1733321E+03  0.7818608E-02  0.1174417E+00
          2   -1    0    0  502    0  0.00000000000E+00  0.00000000000E+00  0.66087687331E+03  0.66087687331E+03  0.00000000000E+00 0. -1.
         -2   -1    0    0    0  501 -0.00000000000E+00 -0.00000000000E+00 -0.51144812522E+02  0.51144812522E+02  0.00000000000E+00 0.  1.
          6    1    1    2  502    0 -0.12426802458E+01  0.21411990502E+02  0.42354900608E+03  0.45764372403E+03  0.17200000000E+03 0. -1.
         -6    1    1    2    0  501  0.12426802458E+01 -0.21411990502E+02  0.18618305471E+03  0.25437796181E+03  0.17200000000E+03 0.  1.
</event>
<event>
 4    1  0.4363334E-001  0.2072899E+03  0.7818608E-02  0.1143730E+00
         -2   -1    0    0    0  501 -0.00000000000E+00  0.00000000000E+00  0.36804965323E+02  0.36804965323E+02  0.00000000000E+00 0.  1.
          2   -1    0    0  502    0  0.00000000000E+00 -0.00000000000E+00 -0.24438561705E+04  0.24438561705E+04  0.00000000000E+00 0. -1.
          6    1    1    2  502    0 -0.10792113492E+03  0.41690891481E+02 -0.30715257373E+03  0.37055607584E+03  0.17200000000E+03 0.  1.
         -6    1    1    2    0  501  0.10792113492E+03 -0.41690891481E+02 -0.20998986315E+04  0.21101050600E+04  0.17200000000E+03 0. -1.
</event>
<event>
 4    1  0.4363334E-001  0.2111386E+03  0.7818608E-02  0.1140667E+00
          2   -1    0    0  502    0  0.00000000000E+00  0.00000000000E+00  0.79847139094E+03  0.79847139094E+03  0.00000000000E+00 0.  1.
         -2   -1    0    0    0  501 -0.00000000000E+00 -0.00000000000E+00 -0.85937395922E+02  0.85937395922E+02  0.00000000000E+00 0. -1.
          6    1    1    2  502    0 -0.11762905834E+03  0.34042941307E+02  0.94532606196E+02  0.23133510510E+03  0.17200000000E+03 0. -1.
         -6    1    1    2    0  501  0.11762905834E+03 -0.34042941307E+02  0.61800138882E+03  0.65307368176E+03  0.17200000000E+03 0.  1.
</event>
<event>
 4    1  0.4363334E-001  0.1721324E+03  0.7818608E-02  0.1175642E+00
          2   -1    0    0  502    0  0.00000000000E+00  0.00000000000E+00  0.11616098788E+03  0.11616098788E+03  0.00000000000E+00 0.  1.
         -2   -1    0    0    0  501 -0.00000000000E+00 -0.00000000000E+00 -0.27727721855E+03  0.27727721855E+03  0.00000000000E+00 0. -1.
          6    1    1    2  502    0 -0.64294387408E+01 -0.20557159860E+01 -0.24890259355E+02  0.17392265138E+03  0.17200000000E+03 0.  1.
         -6    1    1    2    0  501  0.64294387408E+01  0.20557159860E+01 -0.13622597132E+03  0.21951555506E+03  0.17200000000E+03 0. -1.
</event>
<event>
 4    1  0.4363334E-001  0.1792989E+03  0.7818608E-02  0.1168483E+00
         -1   -1    0    0    0  501 -0.00000000000E+00  0.00000000000E+00  0.31178233115E+02  0.31178233115E+02  0.00000000000E+00 0. -1.
          1   -1    0    0  502    0  0.00000000000E+00 -0.00000000000E+00 -0.15305506248E+04  0.15305506248E+04  0.00000000000E+00 0.  1.
          6    1    1    2  502    0  0.14461194262E+02  0.48528084558E+02 -0.11957478941E+04  0.12091158453E+04  0.17200000000E+03 0.  1.
         -6    1    1    2    0  501 -0.14461194262E+02 -0.48528084558E+02 -0.30362449763E+03  0.35261301265E+03  0.17200000000E+03 0. -1.
</event>
<event>
 4    1  0.4363334E-001  0.2151587E+03  0.7818608E-02  0.1137545E+00
         -1   -1    0    0    0  501 -0.00000000000E+00  0.00000000000E+00  0.21833158060E+03  0.21833158060E+03  0.00000000000E+00 0. -1.
          1   -1    0    0  502    0  0.00000000000E+00 -0.00000000000E+00 -0.29761583719E+03  0.29761583719E+03  0.00000000000E+00 0.  1.
          6    1    1    2  502    0  0.11775424067E+03  0.53321844829E+02  0.98696454334E+02  0.23671558975E+03  0.17200000000E+03 0.  1.
         -6    1    1    2    0  501 -0.11775424067E+03 -0.53321844829E+02 -0.17798071093E+03  0.27923182805E+03  0.17200000000E+03 0.  1.
</event>
<event>
 4    1  0.4363334E-001  0.1848883E+03  0.7818608E-02  0.1163154E+00
         -2   -1    0    0    0  501 -0.00000000000E+00  0.00000000000E+00  0.61769482311E+02  0.61769482311E+02  0.00000000000E+00 0.  1.
          2   -1    0    0  502    0  0.00000000000E+00 -0.00000000000E+00 -0.55342719952E+03  0.55342719952E+03  0.00000000000E+00 0. -1.
          6    1    1    2  502    0  0.67813874571E+02 -0.98312498073E+00 -0.24398864871E+03  0.30612766752E+03  0.17200000000E+03 0. -1.
         -6    1    1    2    0  501 -0.67813874571E+02  0.98312498073E+00 -0.24766906850E+03  0.30906901431E+03  0.17200000000E+03 0.  1.
</event>
<event>
 4    1  0.4363334E-001  0.2291978E+03  0.7818608E-02  0.1127206E+00
         -2   -1    0    0    0  501 -0.00000000000E+00  0.00000000000E+00  0.33121263957E+02  0.33121263957E+02  0.00000000000E+00 0. -1.
          2   -1    0    0  502    0  0.00000000000E+00 -0.00000000000E+00 -0.19278868148E+04  0.19278868148E+04  0.00000000000E+00 0.  1.
          6    1    1    2  502    0  0.14401030883E+03  0.46996532616E+02 -0.13602634079E+04  0.13794376325E+04  0.17200000000E+03 0.  1.
         -6    1    1    2    0  501 -0.14401030883E+03 -0.46996532616E+02 -0.53450214292E+03  0.58157044621E+03  0.17200000000E+03 0. -1.
</event>
<event>
 4    1  0.4363334E-001  0.2124586E+03  0.7818608E-02  0.1139634E+00
         -2   -1    0    0    0  501 -0.00000000000E+00  0.00000000000E+00  0.21034204187E+02  0.21034204187E+02  0.00000000000E+00 0. -1.
          2   -1    0    0  502    0  0.00000000000E+00 -0.00000000000E+00 -0.22224420409E+04  0.22224420409E+04  0.00000000000E+00 0.  1.
          6    1    1    2  502    0 -0.62050518650E+02 -0.10818691938E+03 -0.89261910204E+03  0.91755519601E+03  0.17200000000E+03 0. -1.
         -6    1    1    2    0  501  0.62050518650E+02  0.10818691938E+03 -0.13087887347E+04  0.13259210491E+04  0.17200000000E+03 0.  1.
</event>
<event>
 4    1  0.4363334E-001  0.6914889E+03  0.7818608E-02  0.9731899E-01
          1   -1    0    0  502    0  0.00000000000E+00  0.00000000000E+00  0.48152995623E+03  0.48152995623E+03  0.00000000000E+00 0. -1.
         -1   -1    0    0    0  501 -0.00000000000E+00 -0.00000000000E+00 -0.99552249407E+03  0.99552249407E+03  0.00000000000E+00 0.  1.
          6    1    1    2  502    0 -0.13377859214E+03 -0.65625921146E+03 -0.29420808911E+03  0.75147539150E+03  0.17200000000E+03 0.  1.
         -6    1    1    2    0  501  0.13377859214E+03  0.65625921146E+03 -0.21978444874E+03  0.72557705879E+03  0.17200000000E+03 0. -1.
</event>
<event>
 4    1  0.4363334E-001  0.1777157E+03  0.7818608E-02  0.1170032E+00
          2   -1    0    0  502    0  0.00000000000E+00  0.00000000000E+00  0.94184076295E+03  0.94184076295E+03  0.00000000000E+00 0. -1.
         -2   -1    0    0    0  501 -0.00000000000E+00 -0.00000000000E+00 -0.40205963007E+02  0.40205963007E+02  0.00000000000E+00 0.  1.
          6    1    1    2  502    0  0.29755272025E+02  0.33368935155E+02  0.65085529765E+03  0.67468176241E+03  0.17200000000E+03 0. -1.
         -6    1    1    2    0  501 -0.29755272025E+02 -0.33368935155E+02  0.25077950229E+03  0.30736496355E+03  0.17200000000E+03 0.  1.
</event>
<event>
 4    1  0.4363334E-001  0.2728571E+03  0.7818608E-02  0.1099655E+00
         -1   -1    0    0    0  501 -0.00000000000E+00  0.00000000000E+00  0.33180514940E+02  0.33180514940E+02  0.00000000000E+00 0.  1.
          1   -1    0    0  502    0  0.00000000000E+00 -0.00000000000E+00 -0.22682973898E+04  0.22682973898E+04  0.00000000000E+00 0. -1.
          6    1    1    2  502    0  0.20782233264E+03  0.40949710142E+02 -0.99801197537E+03  0.10346395042E+04  0.17200000000E+03 0.  1.
         -6    1    1    2    0  501 -0.20782233264E+03 -0.40949710142E+02 -0.12371048995E+04  0.12668384006E+04  0.17200000000E+03 0. -1.
</event>
<event>
 4    1  0.4363334E-001  0.1781993E+03  0.7818608E-02  0.1169557E+00
          2   -1    0    0  502    0  0.00000000000E+00  0.00000000000E+00  0.13618571428E+04  0.13618571428E+04  0.00000000000E+00 0. -1.
         -2   -1    0    0    0  501 -0.00000000000E+00 -0.00000000000E+00 -0.28906835550E+02  0.28906835550E+02  0.00000000000E+00 0.  1.
          6    1    1    2  502    0  0.29122928327E+02  0.36371017161E+02  0.97225322480E+03  0.98844895113E+03  0.17200000000E+03 0. -1.
         -6    1    1    2    0  501 -0.29122928327E+02 -0.36371017161E+02  0.36069708244E+03  0.40231502722E+03  0.17200000000E+03 0.  1.
</event>
<event>
 4    1  0.4363334E-001  0.1812594E+03  0.7818608E-02  0.1166590E+00
         -2   -1    0    0    0  501 -0.00000000000E+00  0.00000000000E+00  0.29680219648E+02  0.29680219648E+02  0.00000000000E+00 0. -1.
          2   -1    0    0  502    0  0.00000000000E+00 -0.00000000000E+00 -0.11557397236E+04  0.11557397236E+04  0.00000000000E+00 0.  1.
          6    1    1    2  502    0 -0.21776009530E+02 -0.52884555766E+02 -0.44126862788E+03  0.47704609083E+03  0.17200000000E+03 0.  1.
         -6    1    1    2    0  501  0.21776009530E+02  0.52884555766E+02 -0.68479087603E+03  0.70837385237E+03  0.17200000000E+03 0. -1.
</event>
<event>
 4    1  0.4363334E-001  0.1735125E+03  0.7818608E-02  0.1174234E+00
         -2   -1    0    0    0  501 -0.00000000000E+00  0.00000000000E+00  0.60453654698E+02  0.60453654698E+02  0.00000000000E+00 0. -1.
          2   -1    0    0  502    0  0.00000000000E+00 -0.00000000000E+00 -0.49853603815E+03  0.49853603815E+03  0.00000000000E+00 0.  1.
          6    1    1    2  502    0 -0.21012275301E+02  0.90048780286E+01 -0.20997355163E+03  0.27238850183E+03  0.17200000000E+03 0.  1.
         -6    1    1    2    0  501  0.21012275301E+02 -0.90048780286E+01 -0.22810883182E+03  0.28660119103E+03  0.17200000000E+03 0.  1.
</event>
<event>
 4    1  0.4363334E-001  0.2620425E+03  0.7818608E-02  0.1105922E+00
         -2   -1    0    0    0  501 -0.00000000000E+00  0.00000000000E+00  0.33223225085E+02  0.33223225085E+02  0.00000000000E+00 0. -1.
          2   -1    0    0  502    0  0.00000000000E+00 -0.00000000000E+00 -0.21135212498E+04  0.21135212498E+04  0.00000000000E+00 0.  1.
          6    1    1    2  502    0 -0.86372671443E+02  0.17782588682E+03 -0.88058640396E+03  0.91874844176E+03  0.17200000000E+03 0.  1.
         -6    1    1    2    0  501  0.86372671443E+02 -0.17782588682E+03 -0.11997116207E+04  0.12279960331E+04  0.17200000000E+03 0.  1.
</event>
<event>
 4    1  0.4363334E-001  0.1784023E+03  0.7818608E-02  0.1169358E+00
          2   -1    0    0  502    0  0.00000000000E+00  0.00000000000E+00  0.20775654962E+03  0.20775654962E+03  0.00000000000E+00 0.  1.
         -2   -1    0    0    0  501 -0.00000000000E+00 -0.00000000000E+00 -0.16004767770E+03  0.16004767770E+03  0.00000000000E+00 0. -1.
          6    1    1    2  502    0  0.32599250327E+02  0.34360968076E+02  0.61906084838E+02  0.18883789500E+03  0.17200000000E+03 0.  1.
         -6    1    1    2    0  501 -0.32599250327E+02 -0.34360968076E+02 -0.14197212910E+02  0.17896633232E+03  0.17200000000E+03 0. -1.
</event>
<event>
 4    1  0.4363334E-001  0.1882630E+03  0.7818608E-02  0.1160037E+00
         -2   -1    0    0    0  501 -0.00000000000E+00  0.00000000000E+00  0.32120508321E+02  0.32120508321E+02  0.00000000000E+00 0.  1.
          2   -1    0    0  502    0  0.00000000000E+00 -0.00000000000E+00 -0.11086622349E+04  0.11086622349E+04  0.00000000000E+00 0. -1.
          6    1    1    2  502    0  0.68869272261E+02  0.33406136003E+02 -0.49911109227E+03  0.53343680883E+03  0.17200000000E+03 0.  1.
         -6    1    1    2    0  501 -0.68869272261E+02 -0.33406136003E+02 -0.57743063429E+03  0.60734593437E+03  0.17200000000E+03 0. -1.
</event>
<event>
 4    1  0.4363334E-001  0.1884248E+03  0.7818608E-02  0.1159890E+00
         -2   -1    0    0    0  501 -0.00000000000E+00  0.00000000000E+00  0.14380036177E+02  0.14380036177E+02  0.00000000000E+00 0.  1.
          2   -1    0    0  502    0  0.00000000000E+00 -0.00000000000E+00 -0.24839031663E+04  0.24839031663E+04  0.00000000000E+00 0. -1.
          6    1    1    2  502    0 -0.65968027043E+01  0.76657504287E+02 -0.11379098535E+04  0.11534048402E+04  0.17200000000E+03 0. -1.
         -6    1    1    2    0  501  0.65968027043E+01 -0.76657504287E+02 -0.13316132767E+04  0.13448783623E+04  0.17200000000E+03 0. -1.
</event>
<event>
 4    1  0.4363334E-001  0.2500801E+03  0.7818608E-02  0.1113254E+00
         -2   -1    0    0    0  501 -0.00000000000E+00  0.00000000000E+00  0.16079180774E+03  0.16079180774E+03  0.00000000000E+00 0. -1.
          2   -1    0    0  502    0  0.00000000000E+00 -0.00000000000E+00 -0.39024074800E+03  0.39024074800E+03  0.00000000000E+00 0.  1.
          6    1    1    2  502    0  0.92177796753E+02  0.15639474738E+03 -0.98882546539E+02  0.26891973009E+03  0.17200000000E+03 0. -1.
         -6    1    1    2    0  501 -0.92177796753E+02 -0.15639474738E+03 -0.13056639373E+03  0.28211282564E+03  0.17200000000E+03 0.  1.
</event>
<event>
 4    1  0.4363334E-001  0.1757324E+03  0.7818608E-02  0.1171998E+00
         -1   -1    0    0    0  501 -0.00000000000E+00  0.00000000000E+00  0.11888873746E+04  0.11888873746E+04  0.00000000000E+00 0. -1.
          1   -1    0    0  502    0  0.00000000000E+00 -0.00000000000E+00 -0.31585733944E+02  0.31585733944E+02  0.00000000000E+00 0.  1.
          6    1    1    2  502    0  0.19910131181E+02  0.30024259331E+02  0.32146581474E+03  0.36636339817E+03  0.17200000000E+03 0.  1.
         -6    1    1    2    0  501 -0.19910131181E+02 -0.30024259331E+02  0.83583582596E+03  0.85410971042E+03  0.17200000000E+03 0. -1.
</event>
<event>
 4    1  0.4363334E-001  0.2193936E+03  0.7818608E-02  0.1134336E+00
          3   -1    0    0  502    0  0.00000000000E+00  0.00000000000E+00  0.19125105827E+03  0.19125105827E+03  0.00000000000E+00 0. -1.
         -3   -1    0    0    0  501 -0.00000000000E+00 -0.00000000000E+00 -0.31602224774E+03  0.31602224774E+03  0.00000000000E+00 0.  1.
          6    1    1    2  502    0  0.13401947763E+03  0.24255965563E+02 -0.17683407175E+03  0.28178690740E+03  0.17200000000E+03 0.  1.
         -6    1    1    2    0  501 -0.13401947763E+03 -0.24255965563E+02  0.52062882280E+02  0.22548639862E+03  0.17200000000E+03 0. -1.
</event>
<event>
 4    1  0.4363334E-001  0.1939557E+03  0.7818608E-02  0.1154941E+00
          1   -1    0    0  502    0  0.00000000000E+00  0.00000000000E+00  0.15371573031E+02  0.15371573031E+02  0.00000000000E+00 0.  1.
         -1   -1    0    0    0  501 -0.00000000000E+00 -0.00000000000E+00 -0.26159264700E+04  0.26159264700E+04  0.00000000000E+00 0. -1.
          6    1    1    2  502    0  0.12045689026E+02 -0.88824158270E+02 -0.96624249694E+03  0.98551681498E+03  0.17200000000E+03 0.  1.
         -6    1    1    2    0  501 -0.12045689026E+02  0.88824158270E+02 -0.16343124000E+04  0.16457812280E+04  0.17200000000E+03 0. -1.
</event>
<event>
 4    1  0.4363334E-001  0.4051703E+03  0.7818608E-02  0.1042004E+00
          2   -1    0    0  502    0  0.00000000000E+00  0.00000000000E+00  0.33645854141E+03  0.33645854141E+03  0.00000000000E+00 0.  1.
         -2   -1    0    0    0  501 -0.00000000000E+00 -0.00000000000E+00 -0.48796590378E+03  0.48796590378E+03  0.00000000000E+00 0. -1.
          6    1    1    2  502    0  0.26831019353E+03 -0.25017719713E+03 -0.71521514559E+02  0.41143446254E+03  0.17200000000E+03 0. -1.
         -6    1    1    2    0  501 -0.26831019353E+03  0.25017719713E+03 -0.79985847812E+02  0.41298998265E+03  0.17200000000E+03 0.  1.
</event>
<event>
 4    1  0.4363334E-001  0.1998506E+03  0.7818608E-02  0.1149865E+00
          2   -1    0    0  502    0  0.00000000000E+00  0.00000000000E+00  0.11856463025E+04  0.11856463025E+04  0.00000000000E+00 0. -1.
         -2   -1    0    0    0  501 -0.00000000000E+00 -0.00000000000E+00 -0.34115407525E+02  0.34115407525E+02  0.00000000000E+00 0.  1.
          6    1    1    2  502    0 -0.81420508370E+02 -0.61048864230E+02  0.64414973367E+03  0.67443987308E+03  0.17200000000E+03 0.  1.
         -6    1    1    2    0  501  0.81420508370E+02  0.61048864230E+02  0.50738116130E+03  0.54532183695E+03  0.17200000000E+03 0. -1.
</event>
<event>
 4    1  0.4363334E-001  0.1998728E+03  0.7818608E-02  0.1149846E+00
         -4   -1    0    0    0  501 -0.00000000000E+00  0.00000000000E+00  0.51380521262E+02  0.51380521262E+02  0.00000000000E+00 0. -1.
          4   -1    0    0  502    0  0.00000000000E+00 -0.00000000000E+00 -0.77997430546E+03  0.77997430546E+03  0.00000000000E+00 0.  1.
          6    1    1    2  502    0  0.50327712307E+02  0.88500152598E+02 -0.34095846614E+03  0.39522377366E+03  0.17200000000E+03 0.  1.
         -6    1    1    2    0  501 -0.50327712307E+02 -0.88500152598E+02 -0.38763531805E+03  0.43613105306E+03  0.17200000000E+03 0. -1.
</event>
<event>
 4    1  0.4363334E-001  0.1735472E+03  0.7818608E-02  0.1174198E+00
         -1   -1    0    0    0  501 -0.00000000000E+00  0.00000000000E+00  0.45801560629E+02  0.45801560629E+02  0.00000000000E+00 0.  1.
          1   -1    0    0  502    0  0.00000000000E+00 -0.00000000000E+00 -0.12989737518E+04  0.12989737518E+04  0.00000000000E+00 0. -1.
          6    1    1    2  502    0 -0.16026528318E+02  0.16667095899E+02 -0.15411138286E+03  0.23209687637E+03  0.17200000000E+03 0.  1.
         -6    1    1    2    0  501  0.16026528318E+02 -0.16667095899E+02 -0.10990608083E+04  0.11126784361E+04  0.17200000000E+03 0. -1.
</event>
<event>
 4    1  0.4363334E-001  0.1733786E+03  0.7818608E-02  0.1174370E+00
          2   -1    0    0  502    0  0.00000000000E+00  0.00000000000E+00  0.66533309207E+02  0.66533309207E+02  0.00000000000E+00 0. -1.
         -2   -1    0    0    0  501 -0.00000000000E+00 -0.00000000000E+00 -0.53662626774E+03  0.53662626774E+03  0.00000000000E+00 0.  1.
          6    1    1    2  502    0  0.19283595600E+02  0.10211963678E+02 -0.11514725899E+03  0.20813224765E+03  0.17200000000E+03 0. -1.
         -6    1    1    2    0  501 -0.19283595600E+02 -0.10211963678E+02 -0.35494569955E+03  0.39502732930E+03  0.17200000000E+03 0.  1.
</event>
<event>
 4    1  0.4363334E-001  0.2662545E+03  0.7818608E-02  0.1103443E+00
         -2   -1    0    0    0  501 -0.00000000000E+00  0.00000000000E+00  0.13731134307E+03  0.13731134307E+03  0.00000000000E+00 0.  1.
          2   -1    0    0  502    0  0.00000000000E+00 -0.00000000000E+00 -0.13187596364E+04  0.13187596364E+04  0.00000000000E+00 0. -1.
          6    1    1    2  502    0  0.68642261279E+02  0.19130003614E+03 -0.11586426532E+04  0.11888415629E+04  0.17200000000E+03 0. -1.
         -6    1    1    2    0  501 -0.68642261279E+02 -0.19130003614E+03 -0.22805640137E+02  0.26722941657E+03  0.17200000000E+03 0.  1.
</event>
<event>
 4    1  0.4363334E-001  0.2156282E+03  0.7818608E-02  0.1137185E+00
         -2   -1    0    0    0  501 -0.00000000000E+00  0.00000000000E+00  0.67251123735E+02  0.67251123735E+02  0.00000000000E+00 0.  1.
          2   -1    0    0  502    0  0.00000000000E+00 -0.00000000000E+00 -0.70123343961E+03  0.70123343961E+03  0.00000000000E+00 0. -1.
          6    1    1    2  502    0 -0.14217637653E+02  0.12926483898E+03 -0.27142469204E+03  0.34665098192E+03  0.17200000000E+03 0.  1.
         -6    1    1    2    0  501  0.14217637653E+02 -0.12926483898E+03 -0.36255762383E+03  0.42183358142E+03  0.17200000000E+03 0. -1.
</event>
<event>
 4    1  0.4363334E-001  0.2008954E+03  0.7818608E-02  0.1148986E+00
         -2   -1    0    0    0  501 -0.00000000000E+00  0.00000000000E+00  0.21331996282E+02  0.21331996282E+02  0.00000000000E+00 0.  1.
          2   -1    0    0  502    0  0.00000000000E+00 -0.00000000000E+00 -0.18963872579E+04  0.18963872579E+04  0.00000000000E+00 0. -1.
          6    1    1    2  502    0 -0.44579676963E+02 -0.93742200652E+02 -0.89111567309E+03  0.91348020811E+03  0.17200000000E+03 0.  1.
         -6    1    1    2    0  501  0.44579676963E+02  0.93742200652E+02 -0.98393958850E+03  0.10042390460E+04  0.17200000000E+03 0. -1.
</event>
<event>
 4    1  0.4363334E-001  0.2628028E+03  0.7818608E-02  0.1105471E+00
          2   -1    0    0  502    0  0.00000000000E+00  0.00000000000E+00  0.11700704196E+04  0.11700704196E+04  0.00000000000E+00 0.  1.
         -2   -1    0    0    0  501 -0.00000000000E+00 -0.00000000000E+00 -0.90123871489E+02  0.90123871489E+02  0.00000000000E+00 0. -1.
          6    1    1    2  502    0  0.17184507445E+03  0.99752659844E+02  0.16984823041E+03  0.31291171939E+03  0.17200000000E+03 0. -1.
         -6    1    1    2    0  501 -0.17184507445E+03 -0.99752659844E+02  0.91009831765E+03  0.94728257165E+03  0.17200000000E+03 0.  1.
</event>
<event>
 4    1  0.4363334E-001  0.2361154E+03  0.7818608E-02  0.1122408E+00
         -2   -1    0    0    0  501 -0.00000000000E+00  0.00000000000E+00  0.45573907362E+02  0.45573907362E+02  0.00000000000E+00 0.  1.
          2   -1    0    0  502    0  0.00000000000E+00 -0.00000000000E+00 -0.12292608125E+04  0.12292608125E+04  0.00000000000E+00 0. -1.
          6    1    1    2  502    0 -0.13173426617E+03  0.93875330300E+02 -0.54745115391E+03  0.59619901077E+03  0.17200000000E+03 0. -1.
         -6    1    1    2    0  501  0.13173426617E+03 -0.93875330300E+02 -0.63623575125E+03  0.67863570912E+03  0.17200000000E+03 0.  1.
</event>
<event>
 4    1  0.4363334E-001  0.1938209E+03  0.7818608E-02  0.1155060E+00
          4   -1    0    0  502    0  0.00000000000E+00  0.00000000000E+00  0.47303319515E+03  0.47303319515E+03  0.00000000000E+00 0. -1.
         -4   -1    0    0    0  501 -0.00000000000E+00 -0.00000000000E+00 -0.12085296678E+03  0.12085296678E+03  0.00000000000E+00 0.  1.
          6    1    1    2  502    0 -0.74717970329E+02 -0.48987299817E+02  0.34996510914E+03  0.40005263185E+03  0.17200000000E+03 0. -1.
         -6    1    1    2    0  501  0.74717970329E+02  0.48987299817E+02  0.22151192279E+01  0.19383353009E+03  0.17200000000E+03 0.  1.
</event>
<event>
 4    1  0.4363334E-001  0.1827921E+03  0.7818608E-02  0.1165128E+00
          2   -1    0    0  502    0  0.00000000000E+00  0.00000000000E+00  0.10262161988E+03  0.10262161988E+03  0.00000000000E+00 0. -1.
         -2   -1    0    0    0  501 -0.00000000000E+00 -0.00000000000E+00 -0.33625870387E+03  0.33625870387E+03  0.00000000000E+00 0.  1.
          6    1    1    2  502    0 -0.43774409292E+02  0.43734895231E+02 -0.77737833782E+02  0.19863562312E+03  0.17200000000E+03 0.  1.
         -6    1    1    2    0  501  0.43774409292E+02 -0.43734895231E+02 -0.15589925021E+03  0.24024470064E+03  0.17200000000E+03 0.  1.
</event>
<event>
 4    1  0.4363334E-001  0.1875860E+03  0.7818608E-02  0.1160657E+00
          2   -1    0    0  502    0  0.00000000000E+00  0.00000000000E+00  0.12195375754E+04  0.12195375754E+04  0.00000000000E+00 0.  1.
         -2   -1    0    0    0  501 -0.00000000000E+00 -0.00000000000E+00 -0.29754649977E+02  0.29754649977E+02  0.00000000000E+00 0. -1.
          6    1    1    2  502    0  0.70049205866E+02 -0.26412280596E+02  0.70356956139E+03  0.72814739409E+03  0.17200000000E+03 0.  1.
         -6    1    1    2    0  501 -0.70049205866E+02  0.26412280596E+02  0.48621336401E+03  0.52114483126E+03  0.17200000000E+03 0.  1.
</event>
<event>
 4    1  0.4363334E-001  0.1882288E+03  0.7818608E-02  0.1160069E+00
          2   -1    0    0  502    0  0.00000000000E+00  0.00000000000E+00  0.39062958165E+03  0.39062958165E+03  0.00000000000E+00 0. -1.
         -2   -1    0    0    0  501 -0.00000000000E+00 -0.00000000000E+00 -0.11761615987E+03  0.11761615987E+03  0.00000000000E+00 0.  1.
          6    1    1    2  502    0  0.15768874160E+02 -0.74815846692E+02  0.14939200673E+02  0.18882067690E+03  0.17200000000E+03 0.  1.
         -6    1    1    2    0  501 -0.15768874160E+02  0.74815846692E+02  0.25807422111E+03  0.31942506462E+03  0.17200000000E+03 0. -1.
</event>
<event>
 4    1  0.4363334E-001  0.1883003E+03  0.7818608E-02  0.1160003E+00
          1   -1    0    0  502    0  0.00000000000E+00  0.00000000000E+00  0.11916348710E+03  0.11916348710E+03  0.00000000000E+00 0.  1.
         -1   -1    0    0    0  501 -0.00000000000E+00 -0.00000000000E+00 -0.41466585542E+03  0.41466585542E+03  0.00000000000E+00 0. -1.
          6    1    1    2  502    0 -0.76221408066E+02  0.79559968592E+01 -0.59001102420E+01  0.18839270749E+03  0.17200000000E+03 0.  1.
         -6    1    1    2    0  501  0.76221408066E+02 -0.79559968592E+01 -0.28960225808E+03  0.34543663503E+03  0.17200000000E+03 0. -1.
</event>
<event>
 4    1  0.4363334E-001  0.2475487E+03  0.7818608E-02  0.1114864E+00
          2   -1    0    0  502    0  0.00000000000E+00  0.00000000000E+00  0.91595156584E+03  0.91595156584E+03  0.00000000000E+00 0. -1.
         -2   -1    0    0    0  501 -0.00000000000E+00 -0.00000000000E+00 -0.68411471254E+02  0.68411471254E+02  0.00000000000E+00 0.  1.
          6    1    1    2  502    0  0.13489647850E+03  0.11618640305E+03  0.49684379217E+03  0.55509827416E+03  0.17200000000E+03 0.  1.
         -6    1    1    2    0  501 -0.13489647850E+03 -0.11618640305E+03  0.35069630242E+03  0.42926476293E+03  0.17200000000E+03 0. -1.
</event>
<event>
 4    1  0.4363334E-001  0.1983712E+03  0.7818608E-02  0.1151121E+00
         -2   -1    0    0    0  501 -0.00000000000E+00  0.00000000000E+00  0.49902176383E+03  0.49902176383E+03  0.00000000000E+00 0. -1.
          2   -1    0    0  502    0  0.00000000000E+00 -0.00000000000E+00 -0.87223804463E+02  0.87223804463E+02  0.00000000000E+00 0.  1.
          6    1    1    2  502    0  0.37425525861E+02 -0.91468332885E+02  0.11511190795E+03  0.22935099141E+03  0.17200000000E+03 0.  1.
         -6    1    1    2    0  501 -0.37425525861E+02  0.91468332885E+02  0.29668605142E+03  0.35689457689E+03  0.17200000000E+03 0. -1.
</event>
<event>
 4    1  0.4363334E-001  0.2159333E+03  0.7818608E-02  0.1136952E+00
          2   -1    0    0  502    0  0.00000000000E+00  0.00000000000E+00  0.19663779496E+04  0.19663779496E+04  0.00000000000E+00 0.  1.
         -2   -1    0    0    0  501 -0.00000000000E+00 -0.00000000000E+00 -0.27787746553E+02  0.27787746553E+02  0.00000000000E+00 0. -1.
          6    1    1    2  502    0  0.12066139753E+03 -0.49839832964E+02  0.13511484233E+04  0.13682942825E+04  0.17200000000E+03 0.  1.
         -6    1    1    2    0  501 -0.12066139753E+03  0.49839832964E+02  0.58744177972E+03  0.62587141360E+03  0.17200000000E+03 0. -1.
</event>
<event>
 4    1  0.4363334E-001  0.1957116E+03  0.7818608E-02  0.1153408E+00
          2   -1    0    0  502    0  0.00000000000E+00  0.00000000000E+00  0.12680351659E+04  0.12680351659E+04  0.00000000000E+00 0.  1.
         -2   -1    0    0    0  501 -0.00000000000E+00 -0.00000000000E+00 -0.53932418341E+02  0.53932418341E+02  0.00000000000E+00 0. -1.
          6    1    1    2  502    0  0.71949545259E+02 -0.59517282017E+02  0.16864549362E+03  0.25834927219E+03  0.17200000000E+03 0. -1.
         -6    1    1    2    0  501 -0.71949545259E+02  0.59517282017E+02  0.10454572539E+04  0.10636183120E+04  0.17200000000E+03 0.  1.
</event>
<event>
 4    1  0.4363334E-001  0.1812867E+03  0.7818608E-02  0.1166564E+00
          1   -1    0    0  502    0  0.00000000000E+00  0.00000000000E+00  0.11129079439E+03  0.11129079439E+03  0.00000000000E+00 0. -1.
         -1   -1    0    0    0  501 -0.00000000000E+00 -0.00000000000E+00 -0.32576034625E+03  0.32576034625E+03  0.00000000000E+00 0.  1.
          6    1    1    2  502    0  0.27727124789E+02 -0.50120530753E+02 -0.40419402166E+02  0.18573795822E+03  0.17200000000E+03 0. -1.
         -6    1    1    2    0  501 -0.27727124789E+02  0.50120530753E+02 -0.17405014969E+03  0.25131318243E+03  0.17200000000E+03 0.  1.
</event>
<event>
 4    1  0.4363334E-001  0.3044405E+03  0.7818608E-02  0.1083042E+00
          2   -1    0    0  502    0  0.00000000000E+00  0.00000000000E+00  0.29164076057E+04  0.29164076057E+04  0.00000000000E+00 0. -1.
         -2   -1    0    0    0  501 -0.00000000000E+00 -0.00000000000E+00 -0.31910285569E+02  0.31910285569E+02  0.00000000000E+00 0.  1.
          6    1    1    2  502    0 -0.13901723107E+03  0.20922294336E+03  0.15363694923E+04  0.15662423974E+04  0.17200000000E+03 0.  1.
         -6    1    1    2    0  501  0.13901723107E+03 -0.20922294336E+03  0.13481278278E+04  0.13820754939E+04  0.17200000000E+03 0. -1.
</event>
<event>
 4    1  0.4363334E-001  0.1743379E+03  0.7818608E-02  0.1173398E+00
          1   -1    0    0  502    0  0.00000000000E+00  0.00000000000E+00  0.71992694453E+03  0.71992694453E+03  0.00000000000E+00 0. -1.
         -1   -1    0    0    0  501 -0.00000000000E+00 -0.00000000000E+00 -0.63068593192E+02  0.63068593192E+02  0.00000000000E+00 0.  1.
          6    1    1    2  502    0  0.59914275045E+01 -0.27817384277E+02  0.10332455466E+03  0.20265652634E+03  0.17200000000E+03 0.  1.
         -6    1    1    2    0  501 -0.59914275045E+01  0.27817384277E+02  0.55353379668E+03  0.58033901139E+03  0.17200000000E+03 0. -1.
</event>
<event>
 4    1  0.4363334E-001  0.2000467E+03  0.7818608E-02  0.1149700E+00
          2   -1    0    0  502    0  0.00000000000E+00  0.00000000000E+00  0.47740024207E+03  0.47740024207E+03  0.00000000000E+00 0. -1.
         -2   -1    0    0    0  501 -0.00000000000E+00 -0.00000000000E+00 -0.84058657652E+02  0.84058657652E+02  0.00000000000E+00 0.  1.
          6    1    1    2  502    0 -0.32281900362E+02 -0.96915203358E+02  0.21143162370E+03  0.29107045407E+03  0.17200000000E+03 0.  1.
         -6    1    1    2    0  501  0.32281900362E+02  0.96915203358E+02  0.18190996072E+03  0.27038844565E+03  0.17200000000E+03 0. -1.
</event>
<event>
 4    1  0.4363334E-001  0.1927336E+03  0.7818608E-02  0.1156019E+00
         -2   -1    0    0    0  501 -0.00000000000E+00  0.00000000000E+00  0.15982080018E+02  0.15982080018E+02  0.00000000000E+00 0.  1.
          2   -1    0    0  502    0  0.00000000000E+00 -0.00000000000E+00 -0.28475643012E+04  0.28475643012E+04  0.00000000000E+00 0. -1.
          6    1    1    2  502    0 -0.27833687513E+02  0.82386539505E+02 -0.20295830542E+04  0.20387137195E+04  0.17200000000E+03 0. -1.
         -6    1    1    2    0  501  0.27833687513E+02 -0.82386539505E+02 -0.80199916701E+03  0.82483266178E+03  0.17200000000E+03 0.  1.
</event>
<event>
 4    1  0.4363334E-001  0.2108453E+03  0.7818608E-02  0.1140898E+00
         -1   -1    0    0    0  501 -0.00000000000E+00  0.00000000000E+00  0.86518462986E+02  0.86518462986E+02  0.00000000000E+00 0. -1.
          1   -1    0    0  502    0  0.00000000000E+00 -0.00000000000E+00 -0.54870457120E+03  0.54870457120E+03  0.00000000000E+00 0.  1.
          6    1    1    2  502    0  0.12127666426E+03 -0.12795616601E+02 -0.15102059402E+03  0.25935106886E+03  0.17200000000E+03 0. -1.
         -6    1    1    2    0  501 -0.12127666426E+03  0.12795616601E+02 -0.31116551419E+03  0.37587196533E+03  0.17200000000E+03 0.  1.
</event>
<event>
 4    1  0.4363334E-001  0.2772593E+03  0.7818608E-02  0.1097195E+00
         -2   -1    0    0    0  501 -0.00000000000E+00  0.00000000000E+00  0.13924065325E+03  0.13924065325E+03  0.00000000000E+00 0.  1.
          2   -1    0    0  502    0  0.00000000000E+00 -0.00000000000E+00 -0.55234964847E+03  0.55234964847E+03  0.00000000000E+00 0. -1.
          6    1    1    2  502    0 -0.20909873229E+03  0.59719869498E+02 -0.19899220123E+03  0.34127794949E+03  0.17200000000E+03 0.  1.
         -6    1    1    2    0  501  0.20909873229E+03 -0.59719869498E+02 -0.21411679400E+03  0.35031235223E+03  0.17200000000E+03 0. -1.
</event>
<event>
 4    1  0.4363334E-001  0.2458124E+03  0.7818608E-02  0.1115980E+00
          2   -1    0    0  502    0  0.00000000000E+00  0.00000000000E+00  0.19332593160E+04  0.19332593160E+04  0.00000000000E+00 0. -1.
         -2   -1    0    0    0  501 -0.00000000000E+00 -0.00000000000E+00 -0.31255217679E+02  0.31255217679E+02  0.00000000000E+00 0.  1.
          6    1    1    2  502    0 -0.10677131583E+03 -0.13942606506E+03  0.95434350119E+03  0.98549239457E+03  0.17200000000E+03 0.  1.
         -6    1    1    2    0  501  0.10677131583E+03  0.13942606506E+03  0.94766059716E+03  0.97902213913E+03  0.17200000000E+03 0. -1.
</event>
<event>
 4    1  0.4363334E-001  0.1802696E+03  0.7818608E-02  0.1167542E+00
          2   -1    0    0  502    0  0.00000000000E+00  0.00000000000E+00  0.61408941075E+03  0.61408941075E+03  0.00000000000E+00 0. -1.
         -2   -1    0    0    0  501 -0.00000000000E+00 -0.00000000000E+00 -0.53614387353E+02  0.53614387353E+02  0.00000000000E+00 0.  1.
          6    1    1    2  502    0  0.41971857287E+02 -0.33933373903E+02  0.31825374030E+03  0.36576297500E+03  0.17200000000E+03 0. -1.
         -6    1    1    2    0  501 -0.41971857287E+02  0.33933373903E+02  0.24222128309E+03  0.30194082310E+03  0.17200000000E+03 0.  1.
</event>
<event>
 4    1  0.4363334E-001  0.2029966E+03  0.7818608E-02  0.1147235E+00
         -2   -1    0    0    0  501 -0.00000000000E+00  0.00000000000E+00  0.11189210201E+03  0.11189210201E+03  0.00000000000E+00 0.  1.
          2   -1    0    0  502    0  0.00000000000E+00 -0.00000000000E+00 -0.40147217833E+03  0.40147217833E+03  0.00000000000E+00 0. -1.
          6    1    1    2  502    0  0.10703080439E+03 -0.12961823788E+02 -0.21859525341E+03  0.29831440927E+03  0.17200000000E+03 0.  1.
         -6    1    1    2    0  501 -0.10703080439E+03  0.12961823788E+02 -0.70984822914E+02  0.21504987107E+03  0.17200000000E+03 0.  1.
</event>
<event>
 4    1  0.4363334E-001  0.2310402E+03  0.7818608E-02  0.1125910E+00
          2   -1    0    0  502    0  0.00000000000E+00  0.00000000000E+00  0.38310456947E+03  0.38310456947E+03  0.00000000000E+00 0. -1.
         -2   -1    0    0    0  501 -0.00000000000E+00 -0.00000000000E+00 -0.13933556241E+03  0.13933556241E+03  0.00000000000E+00 0.  1.
          6    1    1    2  502    0  0.15181400419E+03 -0.27351186833E+02  0.12269300210E+03  0.26159730896E+03  0.17200000000E+03 0. -1.
         -6    1    1    2    0  501 -0.15181400419E+03  0.27351186833E+02  0.12107600497E+03  0.26084282292E+03  0.17200000000E+03 0.  1.
</event>
<event>
 4    1  0.4363334E-001  0.2115522E+03  0.7818608E-02  0.1140343E+00
         -1   -1    0    0    0  501 -0.00000000000E+00  0.00000000000E+00  0.15015220365E+03  0.15015220365E+03  0.00000000000E+00 0. -1.
          1   -1    0    0  502    0  0.00000000000E+00 -0.00000000000E+00 -0.52167994115E+03  0.52167994115E+03  0.00000000000E+00 0.  1.
          6    1    1    2  502    0 -0.10591860898E+02  0.12271160689E+03  0.34166010993E+02  0.21429335569E+03  0.17200000000E+03 0. -1.
         -6    1    1    2    0  501  0.10591860898E+02 -0.12271160689E+03 -0.40569374849E+03  0.45753878912E+03  0.17200000000E+03 0.  1.
</event>
<event>
 4    1  0.4363334E-001  0.2147523E+03  0.7818608E-02  0.1137857E+00
         -1   -1    0    0    0  501 -0.00000000000E+00  0.00000000000E+00  0.58196557396E+02  0.58196557396E+02  0.00000000000E+00 0. -1.
          1   -1    0    0  502    0  0.00000000000E+00 -0.00000000000E+00 -0.79257861860E+03  0.79257861860E+03  0.00000000000E+00 0.  1.
          6    1    1    2  502    0 -0.77554656063E+02 -0.10256620097E+03 -0.36202725298E+03  0.42093025807E+03  0.17200000000E+03 0. -1.
         -6    1    1    2    0  501  0.77554656063E+02  0.10256620097E+03 -0.37235480823E+03  0.42984491793E+03  0.17200000000E+03 0.  1.
</event>
<event>
 4    1  0.4363334E-001  0.2634439E+03  0.7818608E-02  0.1105092E+00
          4   -1    0    0  502    0  0.00000000000E+00  0.00000000000E+00  0.29903208064E+03  0.29903208064E+03  0.00000000000E+00 0. -1.
         -4   -1    0    0    0  501 -0.00000000000E+00 -0.00000000000E+00 -0.23701106401E+03  0.23701106401E+03  0.00000000000E+00 0.  1.
          6    1    1    2  502    0  0.16005221225E+03 -0.11917207910E+03 -0.76052747277E+01  0.26355366681E+03  0.17200000000E+03 0. -1.
         -6    1    1    2    0  501 -0.16005221225E+03  0.11917207910E+03  0.69626291359E+02  0.27248947784E+03  0.17200000000E+03 0.  1.
</event>
<event>
 4    1  0.4363334E-001  0.1756821E+03  0.7818608E-02  0.1172049E+00
         -2   -1    0    0    0  501 -0.00000000000E+00  0.00000000000E+00  0.14961223581E+02  0.14961223581E+02  0.00000000000E+00 0.  1.
          2   -1    0    0  502    0  0.00000000000E+00 -0.00000000000E+00 -0.25468389158E+04  0.25468389158E+04  0.00000000000E+00 0. -1.
          6    1    1    2  502    0  0.35199134854E+02  0.64198986579E+01 -0.18242665877E+04  0.18327064078E+04  0.17200000000E+03 0. -1.
         -6    1    1    2    0  501 -0.35199134854E+02 -0.64198986579E+01 -0.70761110454E+03  0.72909373160E+03  0.17200000000E+03 0. -1.
</event>
<event>
 4    1  0.4363334E-001  0.4520796E+03  0.7818608E-02  0.1027104E+00
          2   -1    0    0  502    0  0.00000000000E+00  0.00000000000E+00  0.86100864911E+03  0.86100864911E+03  0.00000000000E+00 0. -1.
         -2   -1    0    0    0  501 -0.00000000000E+00 -0.00000000000E+00 -0.25309254464E+03  0.25309254464E+03  0.00000000000E+00 0.  1.
          6    1    1    2  502    0 -0.67768005718E+02 -0.41255233596E+03  0.16510881393E+03  0.48128666400E+03  0.17200000000E+03 0.  1.
         -6    1    1    2    0  501  0.67768005718E+02  0.41255233596E+03  0.44280729055E+03  0.63281452975E+03  0.17200000000E+03 0. -1.
</event>
<event>
 4    1  0.4363334E-001  0.1743417E+03  0.7818608E-02  0.1173394E+00
         -1   -1    0    0    0  501 -0.00000000000E+00  0.00000000000E+00  0.83065665506E+01  0.83065665506E+01  0.00000000000E+00 0. -1.
          1   -1    0    0  502    0  0.00000000000E+00 -0.00000000000E+00 -0.37269288569E+04  0.37269288569E+04  0.00000000000E+00 0.  1.
          6    1    1    2  502    0  0.23650017929E+02 -0.15865522281E+02 -0.16074655132E+04  0.16168922086E+04  0.17200000000E+03 0. -1.
         -6    1    1    2    0  501 -0.23650017929E+02  0.15865522281E+02 -0.21111567772E+04  0.21183432148E+04  0.17200000000E+03 0.  1.
</event>
<event>
 4    1  0.4363334E-001  0.1891819E+03  0.7818608E-02  0.1159201E+00
         -1   -1    0    0    0  501 -0.00000000000E+00  0.00000000000E+00  0.12448579138E+02  0.12448579138E+02  0.00000000000E+00 0.  1.
          1   -1    0    0  502    0  0.00000000000E+00 -0.00000000000E+00 -0.28771593078E+04  0.28771593078E+04  0.00000000000E+00 0. -1.
          6    1    1    2  502    0  0.56987096217E+02 -0.54389970825E+02 -0.13928726656E+04  0.14056614317E+04  0.17200000000E+03 0. -1.
         -6    1    1    2    0  501 -0.56987096217E+02  0.54389970825E+02 -0.14718380631E+04  0.14839464552E+04  0.17200000000E+03 0. -1.
</event>
<event>
 4    1  0.4363334E-001  0.1776697E+03  0.7818608E-02  0.1170078E+00
          2   -1    0    0  502    0  0.00000000000E+00  0.00000000000E+00  0.16607432389E+04  0.16607432389E+04  0.00000000000E+00 0. -1.
         -2   -1    0    0    0  501 -0.00000000000E+00 -0.00000000000E+00 -0.19347613945E+02  0.19347613945E+02  0.00000000000E+00 0.  1.
          6    1    1    2  502    0  0.17483708834E+02  0.40949067202E+02  0.93208328521E+03  0.94886551036E+03  0.17200000000E+03 0. -1.
         -6    1    1    2    0  501 -0.17483708834E+02 -0.40949067202E+02  0.70931233970E+03  0.73122534244E+03  0.17200000000E+03 0. -1.
</event>
<event>
 4    1  0.4363334E-001  0.1830523E+03  0.7818608E-02  0.1164881E+00
          1   -1    0    0  502    0  0.00000000000E+00  0.00000000000E+00  0.12250707175E+03  0.12250707175E+03  0.00000000000E+00 0. -1.
         -1   -1    0    0    0  501 -0.00000000000E+00 -0.00000000000E+00 -0.30505830679E+03  0.30505830679E+03  0.00000000000E+00 0.  1.
          6    1    1    2  502    0 -0.62633190449E+02 -0.11025086369E+01 -0.22537059368E+02  0.18443440871E+03  0.17200000000E+03 0. -1.
         -6    1    1    2    0  501  0.62633190449E+02  0.11025086369E+01 -0.16001417568E+03  0.24313096983E+03  0.17200000000E+03 0.  1.
</event>
<event>
 4    1  0.4363334E-001  0.1941656E+03  0.7818608E-02  0.1154757E+00
         -1   -1    0    0    0  501 -0.00000000000E+00  0.00000000000E+00  0.36808536509E+03  0.36808536509E+03  0.00000000000E+00 0. -1.
          1   -1    0    0  502    0  0.00000000000E+00 -0.00000000000E+00 -0.15155092855E+03  0.15155092855E+03  0.00000000000E+00 0.  1.
          6    1    1    2  502    0 -0.26724949298E+02  0.86035127942E+02 -0.39662728792E+02  0.19817517052E+03  0.17200000000E+03 0.  1.
         -6    1    1    2    0  501  0.26724949298E+02 -0.86035127942E+02  0.25619716533E+03  0.32146112312E+03  0.17200000000E+03 0. -1.
</event>
<event>
 4    1  0.4363334E-001  0.2039280E+03  0.7818608E-02  0.1146467E+00
         -2   -1    0    0    0  501 -0.00000000000E+00  0.00000000000E+00  0.20974396568E+02  0.20974396568E+02  0.00000000000E+00 0. -1.
          2   -1    0    0  502    0  0.00000000000E+00 -0.00000000000E+00 -0.20724494069E+04  0.20724494069E+04  0.00000000000E+00 0.  1.
          6    1    1    2  502    0  0.15502669834E+02 -0.10845408298E+03 -0.12435195028E+04  0.12601299039E+04  0.17200000000E+03 0. -1.
         -6    1    1    2    0  501 -0.15502669834E+02  0.10845408298E+03 -0.80795550751E+03  0.83329389954E+03  0.17200000000E+03 0.  1.
</event>
<event>
 4    1  0.4363334E-001  0.1916391E+03  0.7818608E-02  0.1156991E+00
          2   -1    0    0  502    0  0.00000000000E+00  0.00000000000E+00  0.27230375984E+03  0.27230375984E+03  0.00000000000E+00 0.  1.
         -2   -1    0    0    0  501 -0.00000000000E+00 -0.00000000000E+00 -0.13540081516E+03  0.13540081516E+03  0.00000000000E+00 0. -1.
          6    1    1    2  502    0  0.83273534805E+01  0.84096345902E+02  0.81218169638E+02  0.20813921132E+03  0.17200000000E+03 0. -1.
         -6    1    1    2    0  501 -0.83273534805E+01 -0.84096345902E+02  0.55684775034E+02  0.19956536368E+03  0.17200000000E+03 0.  1.
</event>
<event>
 4    1  0.4363334E-001  0.3632073E+03  0.7818608E-02  0.1057321E+00
          1   -1    0    0  502    0  0.00000000000E+00  0.00000000000E+00  0.37852438702E+03  0.37852438702E+03  0.00000000000E+00 0. -1.
         -1   -1    0    0    0  501 -0.00000000000E+00 -0.00000000000E+00 -0.41862643324E+03  0.41862643324E+03  0.00000000000E+00 0.  1.
          6    1    1    2  502    0  0.31201551810E+03 -0.70582296047E+02  0.14306889869E+03  0.39036938126E+03  0.17200000000E+03 0. -1.
         -6    1    1    2    0  501 -0.31201551810E+03  0.70582296047E+02 -0.18317094492E+03  0.40678143900E+03  0.17200000000E+03 0.  1.
</event>
<event>
 4    1  0.4363334E-001  0.1777206E+03  0.7818608E-02  0.1170027E+00
          1   -1    0    0  502    0  0.00000000000E+00  0.00000000000E+00  0.16866396976E+04  0.16866396976E+04  0.00000000000E+00 0. -1.
         -1   -1    0    0    0  501 -0.00000000000E+00 -0.00000000000E+00 -0.25814917776E+02  0.25814917776E+02  0.00000000000E+00 0.  1.
          6    1    1    2  502    0  0.33146613202E+02 -0.30032089384E+02  0.38173663359E+03  0.42107894958E+03  0.17200000000E+03 0.  1.
         -6    1    1    2    0  501 -0.33146613202E+02  0.30032089384E+02  0.12790881462E+04  0.12913756658E+04  0.17200000000E+03 0. -1.
</event>
<event>
 4    1  0.4363334E-001  0.2119967E+03  0.7818608E-02  0.1139994E+00
         -2   -1    0    0    0  501 -0.00000000000E+00  0.00000000000E+00  0.55854627068E+02  0.55854627068E+02  0.00000000000E+00 0.  1.
          2   -1    0    0  502    0  0.00000000000E+00 -0.00000000000E+00 -0.98162863437E+03  0.98162863437E+03  0.00000000000E+00 0. -1.
          6    1    1    2  502    0 -0.56996216406E+02  0.11004563828E+03 -0.68315723334E+03  0.71529463626E+03  0.17200000000E+03 0. -1.
         -6    1    1    2    0  501  0.56996216406E+02 -0.11004563828E+03 -0.24261677396E+03  0.32218862518E+03  0.17200000000E+03 0.  1.
</event>
<event>
 4    1  0.4363334E-001  0.2837004E+03  0.7818608E-02  0.1093685E+00
         -2   -1    0    0    0  501 -0.00000000000E+00  0.00000000000E+00  0.75312981127E+02  0.75312981127E+02  0.00000000000E+00 0.  1.
          2   -1    0    0  502    0  0.00000000000E+00 -0.00000000000E+00 -0.10920623076E+04  0.10920623076E+04  0.00000000000E+00 0. -1.
          6    1    1    2  502    0 -0.22209517232E+03 -0.39694602240E+02 -0.42297720641E+03  0.50930898692E+03  0.17200000000E+03 0.  1.
         -6    1    1    2    0  501  0.22209517232E+03  0.39694602240E+02 -0.59377212008E+03  0.65806630183E+03  0.17200000000E+03 0. -1.
</event>
<event>
 4    1  0.4363334E-001  0.1721258E+03  0.7818608E-02  0.1175649E+00
          1   -1    0    0  502    0  0.00000000000E+00  0.00000000000E+00  0.62091942937E+03  0.62091942937E+03  0.00000000000E+00 0. -1.
         -1   -1    0    0    0  501 -0.00000000000E+00 -0.00000000000E+00 -0.82578641463E+02  0.82578641463E+02  0.00000000000E+00 0.  1.
          6    1    1    2  502    0 -0.43196030349E+01 -0.49624026431E+01  0.49772200116E+03  0.52664454317E+03  0.17200000000E+03 0. -1.
         -6    1    1    2    0  501  0.43196030349E+01  0.49624026431E+01  0.40618786747E+02  0.17685352766E+03  0.17200000000E+03 0.  1.
</event>
<event>
 4    1  0.4363334E-001  0.1839894E+03  0.7818608E-02  0.1163997E+00
         -1   -1    0    0    0  501 -0.00000000000E+00  0.00000000000E+00  0.25529892755E+02  0.25529892755E+02  0.00000000000E+00 0.  1.
          1   -1    0    0  502    0  0.00000000000E+00 -0.00000000000E+00 -0.14483689206E+04  0.14483689206E+04  0.00000000000E+00 0. -1.
          6    1    1    2  502    0 -0.64908238892E+02  0.74168581954E+01 -0.49719371879E+03  0.53014496439E+03  0.17200000000E+03 0.  1.
         -6    1    1    2    0  501  0.64908238892E+02 -0.74168581954E+01 -0.92564530901E+03  0.94375384892E+03  0.17200000000E+03 0.  1.
</event>
<event>
 4    1  0.4363334E-001  0.3023564E+03  0.7818608E-02  0.1084069E+00
         -2   -1    0    0    0  501 -0.00000000000E+00  0.00000000000E+00  0.12711400244E+03  0.12711400244E+03  0.00000000000E+00 0.  1.
          2   -1    0    0  502    0  0.00000000000E+00 -0.00000000000E+00 -0.90825290190E+03  0.90825290190E+03  0.00000000000E+00 0. -1.
          6    1    1    2  502    0  0.19711645588E+03 -0.15159311439E+03 -0.62675960183E+03  0.69587855837E+03  0.17200000000E+03 0. -1.
         -6    1    1    2    0  501 -0.19711645588E+03  0.15159311439E+03 -0.15437929763E+03  0.33948834596E+03  0.17200000000E+03 0.  1.
</event>
<event>
 4    1  0.4363334E-001  0.2619408E+03  0.7818608E-02  0.1105983E+00
         -2   -1    0    0    0  501 -0.00000000000E+00  0.00000000000E+00  0.10799812733E+03  0.10799812733E+03  0.00000000000E+00 0.  1.
          2   -1    0    0  502    0  0.00000000000E+00 -0.00000000000E+00 -0.73470128079E+03  0.73470128079E+03  0.00000000000E+00 0. -1.
          6    1    1    2  502    0 -0.19129578624E+03 -0.49345017394E+02 -0.46832131757E+03  0.53659842067E+03  0.17200000000E+03 0. -1.
         -6    1    1    2    0  501  0.19129578624E+03  0.49345017394E+02 -0.15838183590E+03  0.30610098745E+03  0.17200000000E+03 0. -1.
</event>
<event>
 4    1  0.4363334E-001  0.1927679E+03  0.7818608E-02  0.1155988E+00
          1   -1    0    0  502    0  0.00000000000E+00  0.00000000000E+00  0.63029597507E+03  0.63029597507E+03  0.00000000000E+00 0. -1.
         -1   -1    0    0    0  501 -0.00000000000E+00 -0.00000000000E+00 -0.95201371987E+02  0.95201371987E+02  0.00000000000E+00 0.  1.
          6    1    1    2  502    0 -0.39944672685E+02  0.77329664956E+02  0.43719963793E+02  0.19766357579E+03  0.17200000000E+03 0.  1.
         -6    1    1    2    0  501  0.39944672685E+02 -0.77329664956E+02  0.49137463929E+03  0.52783377127E+03  0.17200000000E+03 0. -1.
</event>
<event>
 4    1  0.4363334E-001  0.1734714E+03  0.7818608E-02  0.1174275E+00
          2   -1    0    0  502    0  0.00000000000E+00  0.00000000000E+00  0.46720622996E+03  0.46720622996E+03  0.00000000000E+00 0.  1.
         -2   -1    0    0    0  501 -0.00000000000E+00 -0.00000000000E+00 -0.69014911996E+02  0.69014911996E+02  0.00000000000E+00 0. -1.
          6    1    1    2  502    0 -0.12616148631E+01  0.22510670532E+02  0.26835791991E+03  0.31954388609E+03  0.17200000000E+03 0.  1.
         -6    1    1    2    0  501  0.12616148631E+01 -0.22510670532E+02  0.12983339806E+03  0.21667725587E+03  0.17200000000E+03 0. -1.
</event>
<event>
 4    1  0.4363334E-001  0.1972772E+03  0.7818608E-02  0.1152057E+00
         -2   -1    0    0    0  501 -0.00000000000E+00  0.00000000000E+00  0.19103806015E+02  0.19103806015E+02  0.00000000000E+00 0. -1.
          2   -1    0    0  502    0  0.00000000000E+00 -0.00000000000E+00 -0.21106363680E+04  0.21106363680E+04  0.00000000000E+00 0.  1.
          6    1    1    2  502    0  0.28183180163E+02 -0.92412112001E+02 -0.84713714041E+03  0.86980436004E+03  0.17200000000E+03 0. -1.
         -6    1    1    2    0  501 -0.28183180163E+02  0.92412112001E+02 -0.12443954215E+04  0.12599358139E+04  0.17200000000E+03 0.  1.
</event>
<event>
 4    1  0.4363334E-001  0.1736282E+03  0.7818608E-02  0.1174116E+00
         -1   -1    0    0    0  501 -0.00000000000E+00  0.00000000000E+00  0.71230339358E+02  0.71230339358E+02  0.00000000000E+00 0. -1.
          1   -1    0    0  502    0  0.00000000000E+00 -0.00000000000E+00 -0.89004934246E+03  0.89004934246E+03  0.00000000000E+00 0.  1.
          6    1    1    2  502    0 -0.12420273517E+02 -0.20211385377E+02 -0.61322749767E+02  0.18413919445E+03  0.17200000000E+03 0. -1.
         -6    1    1    2    0  501  0.12420273517E+02  0.20211385377E+02 -0.75749625333E+03  0.77714048737E+03  0.17200000000E+03 0.  1.
</event>
<event>
 4    1  0.4363334E-001  0.1808782E+03  0.7818608E-02  0.1166956E+00
          2   -1    0    0  502    0  0.00000000000E+00  0.00000000000E+00  0.83485179067E+02  0.83485179067E+02  0.00000000000E+00 0. -1.
         -2   -1    0    0    0  501 -0.00000000000E+00 -0.00000000000E+00 -0.44207497146E+03  0.44207497146E+03  0.00000000000E+00 0.  1.
          6    1    1    2  502    0  0.53858986584E+02 -0.15235815456E+02 -0.90755657521E+02  0.20236973558E+03  0.17200000000E+03 0. -1.
         -6    1    1    2    0  501 -0.53858986584E+02  0.15235815456E+02 -0.26783413487E+03  0.32319041494E+03  0.17200000000E+03 0.  1.
</event>
<event>
 4    1  0.4363334E-001  0.2040866E+03  0.7818608E-02  0.1146336E+00
         -2   -1    0    0    0  501 -0.00000000000E+00  0.00000000000E+00  0.20411917757E+03  0.20411917757E+03  0.00000000000E+00 0. -1.
          2   -1    0    0  502    0  0.00000000000E+00 -0.00000000000E+00 -0.24923901549E+03  0.24923901549E+03  0.00000000000E+00 0.  1.
          6    1    1    2  502    0 -0.42230851029E+02  0.10140959479E+03  0.73956299942E+02  0.21707345530E+03  0.17200000000E+03 0. -1.
         -6    1    1    2    0  501  0.42230851029E+02 -0.10140959479E+03 -0.11907613787E+03  0.23628473777E+03  0.17200000000E+03 0.  1.
</event>
<event>
 4    1  0.4363334E-001  0.1928697E+03  0.7818608E-02  0.1155898E+00
         -1   -1    0    0    0  501 -0.00000000000E+00  0.00000000000E+00  0.19482019640E+03  0.19482019640E+03  0.00000000000E+00 0. -1.
          1   -1    0    0  502    0  0.00000000000E+00 -0.00000000000E+00 -0.77967154460E+03  0.77967154460E+03  0.00000000000E+00 0.  1.
          6    1    1    2  502    0 -0.26343389504E+02  0.83191103567E+02  0.13097487984E+03  0.23313762681E+03  0.17200000000E+03 0. -1.
         -6    1    1    2    0  501  0.26343389504E+02 -0.83191103567E+02 -0.71582622804E+03  0.74135411420E+03  0.17200000000E+03 0.  1.
</event>
<event>
 4    1  0.4363334E-001  0.3211287E+03  0.7818608E-02  0.1075131E+00
         -2   -1    0    0    0  501 -0.00000000000E+00  0.00000000000E+00  0.15949024322E+03  0.15949024322E+03  0.00000000000E+00 0. -1.
          2   -1    0    0  502    0  0.00000000000E+00 -0.00000000000E+00 -0.96453058782E+03  0.96453058782E+03  0.00000000000E+00 0.  1.
          6    1    1    2  502    0  0.23484884229E+03  0.13559365039E+03 -0.79845855198E+02  0.33090629693E+03  0.17200000000E+03 0. -1.
         -6    1    1    2    0  501 -0.23484884229E+03 -0.13559365039E+03 -0.72519448941E+03  0.79311453411E+03  0.17200000000E+03 0.  1.
</event>
<event>
 4    1  0.4363334E-001  0.2563682E+03  0.7818608E-02  0.1109345E+00
         -2   -1    0    0    0  501 -0.00000000000E+00  0.00000000000E+00  0.20601286679E+02  0.20601286679E+02  0.00000000000E+00 0. -1.
          2   -1    0    0  502    0  0.00000000000E+00 -0.00000000000E+00 -0.35614365026E+04  0.35614365026E+04  0.00000000000E+00 0.  1.
          6    1    1    2  502    0 -0.18930161351E+03  0.17479472268E+02 -0.11922622985E+04  0.12195138463E+04  0.17200000000E+03 0.  1.
         -6    1    1    2    0  501  0.18930161351E+03 -0.17479472268E+02 -0.23485729175E+04  0.23625239430E+04  0.17200000000E+03 0. -1.
</event>
<event>
 4    1  0.4363334E-001  0.2263471E+03  0.7818608E-02  0.1129238E+00
         -2   -1    0    0    0  501 -0.00000000000E+00  0.00000000000E+00  0.29350252040E+02  0.29350252040E+02  0.00000000000E+00 0.  1.
          2   -1    0    0  502    0  0.00000000000E+00 -0.00000000000E+00 -0.17563027261E+04  0.17563027261E+04  0.00000000000E+00 0. -1.
          6    1    1    2  502    0  0.13748672136E+03 -0.52406194876E+02 -0.79369133337E+03  0.82533565323E+03  0.17200000000E+03 0. -1.
         -6    1    1    2    0  501 -0.13748672136E+03  0.52406194876E+02 -0.93326114066E+03  0.96031732489E+03  0.17200000000E+03 0.  1.
</event>
<event>
 4    1  0.4363334E-001  0.1750902E+03  0.7818608E-02  0.1172641E+00
         -1   -1    0    0    0  501 -0.00000000000E+00  0.00000000000E+00  0.28287357033E+03  0.28287357033E+03  0.00000000000E+00 0.  1.
          1   -1    0    0  502    0  0.00000000000E+00 -0.00000000000E+00 -0.14310266744E+03  0.14310266744E+03  0.00000000000E+00 0. -1.
          6    1    1    2  502    0 -0.11926815388E+01 -0.32728637786E+02 -0.35036344644E+02  0.17856128266E+03  0.17200000000E+03 0. -1.
         -6    1    1    2    0  501  0.11926815388E+01  0.32728637786E+02  0.17480724753E+03  0.24741495510E+03  0.17200000000E+03 0.  1.
</event>
<event>
 4    1  0.4363334E-001  0.1878090E+03  0.7818608E-02  0.1160452E+00
         -4   -1    0    0    0  501 -0.00000000000E+00  0.00000000000E+00  0.77993292143E+02  0.77993292143E+02  0.00000000000E+00 0. -1.
          4   -1    0    0  502    0  0.00000000000E+00 -0.00000000000E+00 -0.48317929431E+03  0.48317929431E+03  0.00000000000E+00 0.  1.
          6    1    1    2  502    0  0.60848389312E+02 -0.44561130175E+02 -0.13159936763E+03  0.22932643625E+03  0.17200000000E+03 0. -1.
         -6    1    1    2    0  501 -0.60848389312E+02  0.44561130175E+02 -0.27358663454E+03  0.33184615020E+03  0.17200000000E+03 0.  1.
</event>
<event>
 4    1  0.4363334E-001  0.1826728E+03  0.7818608E-02  0.1165241E+00
          3   -1    0    0  502    0  0.00000000000E+00  0.00000000000E+00  0.43080398772E+03  0.43080398772E+03  0.00000000000E+00 0.  1.
         -3   -1    0    0    0  501 -0.00000000000E+00 -0.00000000000E+00 -0.77493319060E+02  0.77493319060E+02  0.00000000000E+00 0. -1.
          6    1    1    2  502    0  0.55539623523E+02 -0.26470819397E+02  0.18205628969E+03  0.25790278532E+03  0.17200000000E+03 0.  1.
         -6    1    1    2    0  501 -0.55539623523E+02  0.26470819397E+02  0.17125437898E+03  0.25039452146E+03  0.17200000000E+03 0.  1.
</event>
<event>
 4    1  0.4363334E-001  0.2599017E+03  0.7818608E-02  0.1107202E+00
         -1   -1    0    0    0  501 -0.00000000000E+00  0.00000000000E+00  0.14502034415E+03  0.14502034415E+03  0.00000000000E+00 0.  1.
          1   -1    0    0  502    0  0.00000000000E+00 -0.00000000000E+00 -0.10375628236E+04  0.10375628236E+04  0.00000000000E+00 0. -1.
          6    1    1    2  502    0 -0.48191681965E+02 -0.18879206484E+03 -0.73297547413E+01  0.26000501392E+03  0.17200000000E+03 0.  1.
         -6    1    1    2    0  501  0.48191681965E+02  0.18879206484E+03 -0.88521272470E+03  0.92257815383E+03  0.17200000000E+03 0. -1.
</event>
<event>
 4    1  0.4363334E-001  0.2709312E+03  0.7818608E-02  0.1100748E+00
         -1   -1    0    0    0  501 -0.00000000000E+00  0.00000000000E+00  0.10446310486E+03  0.10446310486E+03  0.00000000000E+00 0.  1.
          1   -1    0    0  502    0  0.00000000000E+00 -0.00000000000E+00 -0.77009864011E+03  0.77009864011E+03  0.00000000000E+00 0. -1.
          6    1    1    2  502    0 -0.26384824540E+02  0.20766209105E+03 -0.46220475491E+03  0.53575828363E+03  0.17200000000E+03 0. -1.
         -6    1    1    2    0  501  0.26384824540E+02 -0.20766209105E+03 -0.20343078035E+03  0.33880346134E+03  0.17200000000E+03 0.  1.
</event>
<event>
 4    1  0.4363334E-001  0.1933016E+03  0.7818608E-02  0.1155517E+00
          2   -1    0    0  502    0  0.00000000000E+00  0.00000000000E+00  0.94219719819E+03  0.94219719819E+03  0.00000000000E+00 0.  1.
         -2   -1    0    0    0  501 -0.00000000000E+00 -0.00000000000E+00 -0.12617495118E+03  0.12617495118E+03  0.00000000000E+00 0. -1.
          6    1    1    2  502    0 -0.66033992696E+02  0.58489516483E+02 -0.34329655858E+02  0.19632635330E+03  0.17200000000E+03 0. -1.
         -6    1    1    2    0  501  0.66033992696E+02 -0.58489516483E+02  0.85035190287E+03  0.87204579607E+03  0.17200000000E+03 0.  1.
</event>
<event>
 4    1  0.4363334E-001  0.1753547E+03  0.7818608E-02  0.1172376E+00
          1   -1    0    0  502    0  0.00000000000E+00  0.00000000000E+00  0.21503656498E+02  0.21503656498E+02  0.00000000000E+00 0. -1.
         -1   -1    0    0    0  501 -0.00000000000E+00 -0.00000000000E+00 -0.14522148360E+04  0.14522148360E+04  0.00000000000E+00 0.  1.
          6    1    1    2  502    0  0.10502178627E+02 -0.32480378059E+02 -0.62412809804E+03  0.64829403320E+03  0.17200000000E+03 0. -1.
         -6    1    1    2    0  501 -0.10502178627E+02  0.32480378059E+02 -0.80658308150E+03  0.82542445934E+03  0.17200000000E+03 0.  1.
</event>
<event>
 4    1  0.4363334E-001  0.2025840E+03  0.7818608E-02  0.1147577E+00
         -2   -1    0    0    0  501 -0.00000000000E+00  0.00000000000E+00  0.42329589729E+02  0.42329589729E+02  0.00000000000E+00 0. -1.
          2   -1    0    0  502    0  0.00000000000E+00 -0.00000000000E+00 -0.17816122831E+04  0.17816122831E+04  0.00000000000E+00 0.  1.
          6    1    1    2  502    0 -0.39308704474E+02 -0.99554549813E+02 -0.14853445498E+04  0.14990959657E+04  0.17200000000E+03 0.  1.
         -6    1    1    2    0  501  0.39308704474E+02  0.99554549813E+02 -0.25393814351E+03  0.32484590711E+03  0.17200000000E+03 0. -1.
</event>
<event>
 4    1  0.4363334E-001  0.2703976E+03  0.7818608E-02  0.1101052E+00
          2   -1    0    0  502    0  0.00000000000E+00  0.00000000000E+00  0.17054133745E+04  0.17054133745E+04  0.00000000000E+00 0. -1.
         -2   -1    0    0    0  501 -0.00000000000E+00 -0.00000000000E+00 -0.50655238793E+02  0.50655238793E+02  0.00000000000E+00 0.  1.
          6    1    1    2  502    0 -0.16924025667E+02 -0.20795292028E+03  0.11715495581E+04  0.12023490370E+04  0.17200000000E+03 0. -1.
         -6    1    1    2    0  501  0.16924025667E+02  0.20795292028E+03  0.48320857764E+03  0.55371957632E+03  0.17200000000E+03 0. -1.
</event>
<event>
 4    1  0.4363334E-001  0.2025696E+03  0.7818608E-02  0.1147589E+00
         -4   -1    0    0    0  501 -0.00000000000E+00  0.00000000000E+00  0.13077510679E+04  0.13077510679E+04  0.00000000000E+00 0.  1.
          4   -1    0    0  502    0  0.00000000000E+00 -0.00000000000E+00 -0.31572569430E+02  0.31572569430E+02  0.00000000000E+00 0. -1.
          6    1    1    2  502    0  0.10374820127E+03  0.26206220575E+02  0.69067552974E+03  0.71976881194E+03  0.17200000000E+03 0. -1.
         -6    1    1    2    0  501 -0.10374820127E+03 -0.26206220575E+02  0.58550296868E+03  0.61955482534E+03  0.17200000000E+03 0.  1.
</event>
<event>
 4    1  0.4363334E-001  0.2261790E+03  0.7818608E-02  0.1129358E+00
         -4   -1    0    0    0  501 -0.00000000000E+00  0.00000000000E+00  0.39647759209E+03  0.39647759209E+03  0.00000000000E+00 0.  1.
          4   -1    0    0  502    0  0.00000000000E+00 -0.00000000000E+00 -0.12920618641E+03  0.12920618641E+03  0.00000000000E+00 0. -1.
          6    1    1    2  502    0 -0.14040129499E+03 -0.43132437533E+02  0.14338139732E+03  0.26779685566E+03  0.17200000000E+03 0. -1.
         -6    1    1    2    0  501  0.14040129499E+03  0.43132437533E+02  0.12389000836E+03  0.25788692284E+03  0.17200000000E+03 0.  1.
</event>
<event>
 4    1  0.4363334E-001  0.1953161E+03  0.7818608E-02  0.1153752E+00
          1   -1    0    0  502    0  0.00000000000E+00  0.00000000000E+00  0.85425440108E+03  0.85425440108E+03  0.00000000000E+00 0.  1.
         -1   -1    0    0    0  501 -0.00000000000E+00 -0.00000000000E+00 -0.58876007102E+02  0.58876007102E+02  0.00000000000E+00 0. -1.
          6    1    1    2  502    0 -0.95385346356E+01 -0.92051036351E+02  0.17331682632E+03  0.26112659616E+03  0.17200000000E+03 0. -1.
         -6    1    1    2    0  501  0.95385346356E+01  0.92051036351E+02  0.62206156766E+03  0.65200381202E+03  0.17200000000E+03 0.  1.
</event>
<event>
 4    1  0.4363334E-001  0.2066783E+03  0.7818608E-02  0.1144224E+00
         -2   -1    0    0    0  501 -0.00000000000E+00  0.00000000000E+00  0.33639432720E+02  0.33639432720E+02  0.00000000000E+00 0.  1.
          2   -1    0    0  502    0  0.00000000000E+00 -0.00000000000E+00 -0.15965671266E+04  0.15965671266E+04  0.00000000000E+00 0. -1.
          6    1    1    2  502    0 -0.64595389951E+02  0.94653823624E+02 -0.41271796032E+03  0.46157559023E+03  0.17200000000E+03 0.  1.
         -6    1    1    2    0  501  0.64595389951E+02 -0.94653823624E+02 -0.11502097335E+04  0.11686309691E+04  0.17200000000E+03 0. -1.
</event>
<event>
 4    1  0.4363334E-001  0.2841215E+03  0.7818608E-02  0.1093459E+00
          2   -1    0    0  502    0  0.00000000000E+00  0.00000000000E+00  0.25955310550E+04  0.25955310550E+04  0.00000000000E+00 0.  1.
         -2   -1    0    0    0  501 -0.00000000000E+00 -0.00000000000E+00 -0.31324791430E+02  0.31324791430E+02  0.00000000000E+00 0. -1.
          6    1    1    2  502    0  0.18502421444E+03  0.13002718573E+03  0.13929831448E+04  0.14216634871E+04  0.17200000000E+03 0.  1.
         -6    1    1    2    0  501 -0.18502421444E+03 -0.13002718573E+03  0.11712231188E+04  0.12051923593E+04  0.17200000000E+03 0. -1.
</event>
<event>
 4    1  0.4363334E-001  0.2517898E+03  0.7818608E-02  0.1112179E+00
          2   -1    0    0  502    0  0.00000000000E+00  0.00000000000E+00  0.91883900715E+03  0.91883900715E+03  0.00000000000E+00 0.  1.
         -2   -1    0    0    0  501 -0.00000000000E+00 -0.00000000000E+00 -0.69336667392E+02  0.69336667392E+02  0.00000000000E+00 0. -1.
          6    1    1    2  502    0  0.18010223837E+03  0.37111759887E+02  0.45927968074E+03  0.52377086987E+03  0.17200000000E+03 0.  1.
         -6    1    1    2    0  501 -0.18010223837E+03 -0.37111759887E+02  0.39022265902E+03  0.46440480467E+03  0.17200000000E+03 0. -1.
</event>
<event>
 4    1  0.4363334E-001  0.2234944E+03  0.7818608E-02  0.1131304E+00
          4   -1    0    0  502    0  0.00000000000E+00  0.00000000000E+00  0.23517577643E+03  0.23517577643E+03  0.00000000000E+00 0. -1.
         -4   -1    0    0    0  501 -0.00000000000E+00 -0.00000000000E+00 -0.21709079847E+03  0.21709079847E+03  0.00000000000E+00 0.  1.
          6    1    1    2  502    0 -0.11500933116E+03  0.84490247539E+02 -0.24221879651E+02  0.22480313084E+03  0.17200000000E+03 0.  1.
         -6    1    1    2    0  501  0.11500933116E+03 -0.84490247539E+02  0.42306857609E+02  0.22746344406E+03  0.17200000000E+03 0. -1.
</event>
<event>
 4    1  0.4363334E-001  0.2033038E+03  0.7818608E-02  0.1146981E+00
          3   -1    0    0  502    0  0.00000000000E+00  0.00000000000E+00  0.35970913698E+03  0.35970913698E+03  0.00000000000E+00 0. -1.
         -3   -1    0    0    0  501 -0.00000000000E+00 -0.00000000000E+00 -0.12921086868E+03  0.12921086868E+03  0.00000000000E+00 0.  1.
          6    1    1    2  502    0 -0.10672990356E+03 -0.18898652827E+02  0.19659082008E+03  0.28280803018E+03  0.17200000000E+03 0. -1.
         -6    1    1    2    0  501  0.10672990356E+03  0.18898652827E+02  0.33907448214E+02  0.20611197548E+03  0.17200000000E+03 0.  1.
</event>
<event>
 4    1  0.4363334E-001  0.2089148E+03  0.7818608E-02  0.1142428E+00
         -2   -1    0    0    0  501 -0.00000000000E+00  0.00000000000E+00  0.20244905772E+02  0.20244905772E+02  0.00000000000E+00 0.  1.
          2   -1    0    0  502    0  0.00000000000E+00 -0.00000000000E+00 -0.21575264098E+04  0.21575264098E+04  0.00000000000E+00 0. -1.
          6    1    1    2  502    0  0.71967105079E+02 -0.94244965100E+02 -0.10384665577E+04  0.10592724716E+04  0.17200000000E+03 0.  1.
         -6    1    1    2    0  501 -0.71967105079E+02  0.94244965100E+02 -0.10988149463E+04  0.11184988439E+04  0.17200000000E+03 0. -1.
</event>
<event>
 4    1  0.4363334E-001  0.4089248E+03  0.7818608E-02  0.1040732E+00
         -2   -1    0    0    0  501 -0.00000000000E+00  0.00000000000E+00  0.37757371519E+03  0.37757371519E+03  0.00000000000E+00 0.  1.
          2   -1    0    0  502    0  0.00000000000E+00 -0.00000000000E+00 -0.70257156077E+03  0.70257156077E+03  0.00000000000E+00 0. -1.
          6    1    1    2  502    0  0.29237409865E+03  0.22837005773E+03  0.16585074829E+03  0.44127765357E+03  0.17200000000E+03 0.  1.
         -6    1    1    2    0  501 -0.29237409865E+03 -0.22837005773E+03 -0.49084859388E+03  0.63886762239E+03  0.17200000000E+03 0. -1.
</event>
<event>
 4    1  0.4363334E-001  0.2164138E+03  0.7818608E-02  0.1136585E+00
          1   -1    0    0  502    0  0.00000000000E+00  0.00000000000E+00  0.18307841761E+04  0.18307841761E+04  0.00000000000E+00 0. -1.
         -1   -1    0    0    0  501 -0.00000000000E+00 -0.00000000000E+00 -0.25588392452E+02  0.25588392452E+02  0.00000000000E+00 0.  1.
          6    1    1    2  502    0 -0.27140124721E+02 -0.12850819841E+03  0.88781655925E+03  0.91381244592E+03  0.17200000000E+03 0.  1.
         -6    1    1    2    0  501  0.27140124721E+02  0.12850819841E+03  0.91737922436E+03  0.94256012260E+03  0.17200000000E+03 0.  1.
</event>
<event>
 4    1  0.4363334E-001  0.1826582E+03  0.7818608E-02  0.1165255E+00
         -2   -1    0    0    0  501 -0.00000000000E+00  0.00000000000E+00  0.38830290851E+03  0.38830290851E+03  0.00000000000E+00 0. -1.
          2   -1    0    0  502    0  0.00000000000E+00 -0.00000000000E+00 -0.86144936281E+02  0.86144936281E+02  0.00000000000E+00 0.  1.
          6    1    1    2  502    0 -0.47766470812E+02  0.38709060719E+02  0.13902948111E+03  0.22955004625E+03  0.17200000000E+03 0.  1.
         -6    1    1    2    0  501  0.47766470812E+02 -0.38709060719E+02  0.16312849111E+03  0.24489779854E+03  0.17200000000E+03 0.  1.
</event>
<event>
 4    1  0.4363334E-001  0.2241281E+03  0.7818608E-02  0.1130842E+00
          1   -1    0    0  502    0  0.00000000000E+00  0.00000000000E+00  0.34455659321E+04  0.34455659321E+04  0.00000000000E+00 0. -1.
         -1   -1    0    0    0  501 -0.00000000000E+00 -0.00000000000E+00 -0.16539096518E+02  0.16539096518E+02  0.00000000000E+00 0.  1.
          6    1    1    2  502    0  0.13162540016E+03  0.57655650707E+02  0.11186090838E+04  0.11408416640E+04  0.17200000000E+03 0.  1.
         -6    1    1    2    0  501 -0.13162540016E+03 -0.57655650707E+02  0.23104177518E+04  0.23212633646E+04  0.17200000000E+03 0. -1.
</event>
<event>
 4    1  0.4363334E-001  0.1873060E+03  0.7818608E-02  0.1160914E+00
         -2   -1    0    0    0  501 -0.00000000000E+00  0.00000000000E+00  0.84229214056E+02  0.84229214056E+02  0.00000000000E+00 0. -1.
          2   -1    0    0  502    0  0.00000000000E+00 -0.00000000000E+00 -0.56839736733E+03  0.56839736733E+03  0.00000000000E+00 0.  1.
          6    1    1    2  502    0  0.62329412281E+02  0.40181957934E+02 -0.41075825012E+03  0.45144865203E+03  0.17200000000E+03 0.  1.
         -6    1    1    2    0  501 -0.62329412281E+02 -0.40181957934E+02 -0.73409903154E+02  0.20117792936E+03  0.17200000000E+03 0.  1.
</event>
<event>
 4    1  0.4363334E-001  0.2321468E+03  0.7818608E-02  0.1125138E+00
         -2   -1    0    0    0  501 -0.00000000000E+00  0.00000000000E+00  0.30317633933E+02  0.30317633933E+02  0.00000000000E+00 0. -1.
          2   -1    0    0  502    0  0.00000000000E+00 -0.00000000000E+00 -0.23363418877E+04  0.23363418877E+04  0.00000000000E+00 0.  1.
          6    1    1    2  502    0  0.11081120423E+03 -0.10967681456E+03 -0.57431729078E+03  0.61946144119E+03  0.17200000000E+03 0. -1.
         -6    1    1    2    0  501 -0.11081120423E+03  0.10967681456E+03 -0.17317069630E+04  0.17471980804E+04  0.17200000000E+03 0.  1.
</event>
<event>
 4    1  0.4363334E-001  0.2835316E+03  0.7818608E-02  0.1093776E+00
         -2   -1    0    0    0  501 -0.00000000000E+00  0.00000000000E+00  0.65059837783E+02  0.65059837783E+02  0.00000000000E+00 0. -1.
          2   -1    0    0  502    0  0.00000000000E+00 -0.00000000000E+00 -0.27374759172E+04  0.27374759172E+04  0.00000000000E+00 0.  1.
          6    1    1    2  502    0  0.10727097614E+03 -0.19823998235E+03 -0.23741142529E+04  0.23909848679E+04  0.17200000000E+03 0.  1.
         -6    1    1    2    0  501 -0.10727097614E+03  0.19823998235E+03 -0.29830182654E+03  0.41155088706E+03  0.17200000000E+03 0. -1.
</event>
<event>
 4    1  0.4363334E-001  0.1834182E+03  0.7818608E-02  0.1164535E+00
         -2   -1    0    0    0  501 -0.00000000000E+00  0.00000000000E+00  0.13878596459E+02  0.13878596459E+02  0.00000000000E+00 0.  1.
          2   -1    0    0  502    0  0.00000000000E+00 -0.00000000000E+00 -0.24619491383E+04  0.24619491383E+04  0.00000000000E+00 0. -1.
          6    1    1    2  502    0 -0.15195124025E+02  0.61865462344E+02 -0.13776531346E+04  0.13898094785E+04  0.17200000000E+03 0. -1.
         -6    1    1    2    0  501  0.15195124025E+02 -0.61865462344E+02 -0.10704174072E+04  0.10860182562E+04  0.17200000000E+03 0.  1.
</event>
<event>
 4    1  0.4363334E-001  0.2323222E+03  0.7818608E-02  0.1125016E+00
          2   -1    0    0  502    0  0.00000000000E+00  0.00000000000E+00  0.99606827771E+03  0.99606827771E+03  0.00000000000E+00 0. -1.
         -2   -1    0    0    0  501 -0.00000000000E+00 -0.00000000000E+00 -0.54197803470E+02  0.54197803470E+02  0.00000000000E+00 0.  1.
          6    1    1    2  502    0  0.89889024547E+02 -0.12770892130E+03  0.46340270466E+03  0.51837792391E+03  0.17200000000E+03 0. -1.
         -6    1    1    2    0  501 -0.89889024547E+02  0.12770892130E+03  0.47846776958E+03  0.53188815726E+03  0.17200000000E+03 0.  1.
</event>
<event>
 4    1  0.4363334E-001  0.1798121E+03  0.7818608E-02  0.1167985E+00
         -2   -1    0    0    0  501 -0.00000000000E+00  0.00000000000E+00  0.14039463760E+02  0.14039463760E+02  0.00000000000E+00 0. -1.
          2   -1    0    0  502    0  0.00000000000E+00 -0.00000000000E+00 -0.26923631470E+04  0.26923631470E+04  0.00000000000E+00 0.  1.
          6    1    1    2  502    0 -0.36962353526E+02 -0.37177793903E+02 -0.82453537061E+03  0.84391408409E+03  0.17200000000E+03 0. -1.
         -6    1    1    2    0  501  0.36962353526E+02  0.37177793903E+02 -0.18537883126E+04  0.18624885266E+04  0.17200000000E+03 0.  1.
</event>
<event>
 4    1  0.4363334E-001  0.1957127E+03  0.7818608E-02  0.1153407E+00
          1   -1    0    0  502    0  0.00000000000E+00  0.00000000000E+00  0.27935177617E+03  0.27935177617E+03  0.00000000000E+00 0. -1.
         -1   -1    0    0    0  501 -0.00000000000E+00 -0.00000000000E+00 -0.19170414211E+03  0.19170414211E+03  0.00000000000E+00 0.  1.
          6    1    1    2  502    0  0.57121833079E+02  0.73868458538E+02  0.16950722386E+03  0.25891340622E+03  0.17200000000E+03 0. -1.
         -6    1    1    2    0  501 -0.57121833079E+02 -0.73868458538E+02 -0.81859589796E+02  0.21214251206E+03  0.17200000000E+03 0.  1.
</event>
<event>
 4    1  0.4363334E-001  0.5665472E+03  0.7818608E-02  0.9977348E-01
          2   -1    0    0  502    0  0.00000000000E+00  0.00000000000E+00  0.26860799176E+04  0.26860799176E+04  0.00000000000E+00 0. -1.
         -2   -1    0    0    0  501 -0.00000000000E+00 -0.00000000000E+00 -0.16584825576E+03  0.16584825576E+03  0.00000000000E+00 0.  1.
          6    1    1    2  502    0 -0.52502397333E+03 -0.12546534481E+03  0.50625928345E+03  0.75978561937E+03  0.17200000000E+03 0.  1.
         -6    1    1    2    0  501  0.52502397333E+03  0.12546534481E+03  0.20139723784E+04  0.20921425540E+04  0.17200000000E+03 0. -1.
</event>
<event>
 4    1  0.4363334E-001  0.1740144E+03  0.7818608E-02  0.1173725E+00
         -2   -1    0    0    0  501 -0.00000000000E+00  0.00000000000E+00  0.13231544826E+03  0.13231544826E+03  0.00000000000E+00 0.  1.
          2   -1    0    0  502    0  0.00000000000E+00 -0.00000000000E+00 -0.23114947766E+03  0.23114947766E+03  0.00000000000E+00 0. -1.
          6    1    1    2  502    0 -0.24803365594E+02 -0.90436289399E+01 -0.67524963906E+02  0.18665640873E+03  0.17200000000E+03 0. -1.
         -6    1    1    2    0  501  0.24803365594E+02  0.90436289399E+01 -0.31309065487E+02  0.17680851719E+03  0.17200000000E+03 0.  1.
</event>
<event>
 4    1  0.4363334E-001  0.1791615E+03  0.7818608E-02  0.1168617E+00
         -4   -1    0    0    0  501 -0.00000000000E+00  0.00000000000E+00  0.19026490781E+03  0.19026490781E+03  0.00000000000E+00 0. -1.
          4   -1    0    0  502    0  0.00000000000E+00 -0.00000000000E+00 -0.18636379635E+03  0.18636379635E+03  0.00000000000E+00 0.  1.
          6    1    1    2  502    0 -0.36148238670E+02  0.34758552750E+02  0.59916052974E+02  0.18891475737E+03  0.17200000000E+03 0. -1.
         -6    1    1    2    0  501  0.36148238670E+02 -0.34758552750E+02 -0.56014941517E+02  0.18771394680E+03  0.17200000000E+03 0.  1.
</event>
<event>
 4    1  0.4363334E-001  0.2377627E+03  0.7818608E-02  0.1121292E+00
          1   -1    0    0  502    0  0.00000000000E+00  0.00000000000E+00  0.62971706352E+03  0.62971706352E+03  0.00000000000E+00 0.  1.
         -1   -1    0    0    0  501 -0.00000000000E+00 -0.00000000000E+00 -0.95722688302E+02  0.95722688302E+02  0.00000000000E+00 0. -1.
          6    1    1    2  502    0 -0.72213985890E+02 -0.14741852599E+03  0.17656136765E+03  0.29615029649E+03  0.17200000000E+03 0.  1.
         -6    1    1    2    0  501  0.72213985890E+02  0.14741852599E+03  0.35743300757E+03  0.42928945534E+03  0.17200000000E+03 0. -1.
</event>
<event>
 4    1  0.4363334E-001  0.2050346E+03  0.7818608E-02  0.1145560E+00
          1   -1    0    0  502    0  0.00000000000E+00  0.00000000000E+00  0.30341590479E+03  0.30341590479E+03  0.00000000000E+00 0. -1.
         -1   -1    0    0    0  501 -0.00000000000E+00 -0.00000000000E+00 -0.15969112265E+03  0.15969112265E+03  0.00000000000E+00 0.  1.
          6    1    1    2  502    0  0.74789617757E+02  0.82835271594E+02  0.15610749948E+03  0.25769889510E+03  0.17200000000E+03 0.  1.
         -6    1    1    2    0  501 -0.74789617757E+02 -0.82835271594E+02 -0.12382717334E+02  0.20540813234E+03  0.17200000000E+03 0.  1.
</event>
<event>
 4    1  0.4363334E-001  0.1740315E+03  0.7818608E-02  0.1173708E+00
          1   -1    0    0  502    0  0.00000000000E+00  0.00000000000E+00  0.33630423421E+03  0.33630423421E+03  0.00000000000E+00 0.  1.
         -1   -1    0    0    0  501 -0.00000000000E+00 -0.00000000000E+00 -0.92883165736E+02  0.92883165736E+02  0.00000000000E+00 0. -1.
          6    1    1    2  502    0  0.26512013704E+02  0.26304607605E+00  0.15913491134E+03  0.23581958373E+03  0.17200000000E+03 0.  1.
         -6    1    1    2    0  501 -0.26512013704E+02 -0.26304607605E+00  0.84286157136E+02  0.19336781622E+03  0.17200000000E+03 0. -1.
</event>
<event>
 4    1  0.4363334E-001  0.5462208E+03  0.7818608E-02  0.1002372E+00
          1   -1    0    0  502    0  0.00000000000E+00  0.00000000000E+00  0.10451253070E+04  0.10451253070E+04  0.00000000000E+00 0. -1.
         -1   -1    0    0    0  501 -0.00000000000E+00 -0.00000000000E+00 -0.29674541259E+03  0.29674541259E+03  0.00000000000E+00 0.  1.
          6    1    1    2  502    0 -0.17047397565E+03  0.48960372182E+03  0.24343505147E+03  0.59801154259E+03  0.17200000000E+03 0.  1.
         -6    1    1    2    0  501  0.17047397565E+03 -0.48960372182E+03  0.50494484295E+03  0.74385917700E+03  0.17200000000E+03 0. -1.
</event>
<event>
 4    1  0.4363334E-001  0.2151660E+03  0.7818608E-02  0.1137539E+00
         -2   -1    0    0    0  501 -0.00000000000E+00  0.00000000000E+00  0.37950159968E+02  0.37950159968E+02  0.00000000000E+00 0. -1.
          2   -1    0    0  502    0  0.00000000000E+00 -0.00000000000E+00 -0.12288289594E+04  0.12288289594E+04  0.00000000000E+00 0.  1.
          6    1    1    2  502    0 -0.12642307411E+03  0.27010971185E+02 -0.64935230961E+03  0.68407222443E+03  0.17200000000E+03 0.  1.
         -6    1    1    2    0  501  0.12642307411E+03 -0.27010971185E+02 -0.54152648978E+03  0.58270689490E+03  0.17200000000E+03 0.  1.
</event>
<event>
 4    1  0.4363334E-001  0.1780346E+03  0.7818608E-02  0.1169719E+00
          1   -1    0    0  502    0  0.00000000000E+00  0.00000000000E+00  0.86927363394E+02  0.86927363394E+02  0.00000000000E+00 0.  1.
         -1   -1    0    0    0  501 -0.00000000000E+00 -0.00000000000E+00 -0.38397374069E+03  0.38397374069E+03  0.00000000000E+00 0. -1.
          6    1    1    2  502    0 -0.27048713615E+02 -0.37157500529E+02 -0.20137023266E+03  0.26878668746E+03  0.17200000000E+03 0. -1.
         -6    1    1    2    0  501  0.27048713615E+02  0.37157500529E+02 -0.95676144631E+02  0.20211441662E+03  0.17200000000E+03 0.  1.
</event>
<event>
 4    1  0.4363334E-001  0.1840220E+03  0.7818608E-02  0.1163966E+00
         -2   -1    0    0    0  501 -0.00000000000E+00  0.00000000000E+00  0.47465446131E+02  0.47465446131E+02  0.00000000000E+00 0.  1.
          2   -1    0    0  502    0  0.00000000000E+00 -0.00000000000E+00 -0.73082061318E+03  0.73082061318E+03  0.00000000000E+00 0. -1.
          6    1    1    2  502    0 -0.74181565533E+01  0.65000421317E+02 -0.28167803694E+03  0.33646188538E+03  0.17200000000E+03 0.  1.
         -6    1    1    2    0  501  0.74181565533E+01 -0.65000421317E+02 -0.40167713011E+03  0.44182417393E+03  0.17200000000E+03 0. -1.
</event>
<event>
 4    1  0.4363334E-001  0.1959607E+03  0.7818608E-02  0.1153192E+00
         -2   -1    0    0    0  501 -0.00000000000E+00  0.00000000000E+00  0.57740010744E+03  0.57740010744E+03  0.00000000000E+00 0. -1.
          2   -1    0    0  502    0  0.00000000000E+00 -0.00000000000E+00 -0.70258786109E+02  0.70258786109E+02  0.00000000000E+00 0.  1.
          6    1    1    2  502    0 -0.92862083089E+02 -0.13900143755E+02  0.17872923902E+03  0.26522579315E+03  0.17200000000E+03 0.  1.
         -6    1    1    2    0  501  0.92862083089E+02  0.13900143755E+02  0.32841208231E+03  0.38243310040E+03  0.17200000000E+03 0. -1.
</event>
<event>
 4    1  0.4363334E-001  0.2854490E+03  0.7818608E-02  0.1092749E+00
          2   -1    0    0  502    0  0.00000000000E+00  0.00000000000E+00  0.12680223323E+04  0.12680223323E+04  0.00000000000E+00 0. -1.
         -2   -1    0    0    0  501 -0.00000000000E+00 -0.00000000000E+00 -0.64551275490E+02  0.64551275490E+02  0.00000000000E+00 0.  1.
          6    1    1    2  502    0 -0.29589592657E+02 -0.22587963281E+03  0.64661126163E+03  0.70681488112E+03  0.17200000000E+03 0.  1.
         -6    1    1    2    0  501  0.29589592657E+02  0.22587963281E+03  0.55685979521E+03  0.62575872669E+03  0.17200000000E+03 0. -1.
</event>
<event>
 4    1  0.4363334E-001  0.2010475E+03  0.7818608E-02  0.1148858E+00
         -1   -1    0    0    0  501 -0.00000000000E+00  0.00000000000E+00  0.50782461567E+02  0.50782461567E+02  0.00000000000E+00 0. -1.
          1   -1    0    0  502    0  0.00000000000E+00 -0.00000000000E+00 -0.84364988537E+03  0.84364988537E+03  0.00000000000E+00 0.  1.
          6    1    1    2  502    0  0.80227005182E+02 -0.66330517847E+02 -0.50277749454E+03  0.54148436632E+03  0.17200000000E+03 0.  1.
         -6    1    1    2    0  501 -0.80227005182E+02  0.66330517847E+02 -0.29008992927E+03  0.35294798061E+03  0.17200000000E+03 0. -1.
</event>
<event>
 4    1  0.4363334E-001  0.2243508E+03  0.7818608E-02  0.1130680E+00
         -2   -1    0    0    0  501 -0.00000000000E+00  0.00000000000E+00  0.75310069810E+03  0.75310069810E+03  0.00000000000E+00 0. -1.
          2   -1    0    0  502    0  0.00000000000E+00 -0.00000000000E+00 -0.68650749655E+02  0.68650749655E+02  0.00000000000E+00 0.  1.
          6    1    1    2  502    0 -0.14319648751E+03  0.15622054326E+02  0.40905136195E+03  0.46653649303E+03  0.17200000000E+03 0. -1.
         -6    1    1    2    0  501  0.14319648751E+03 -0.15622054326E+02  0.27539858650E+03  0.35521495473E+03  0.17200000000E+03 0.  1.
</event>
<event>
 4    1  0.4363334E-001  0.2265457E+03  0.7818608E-02  0.1129095E+00
          1   -1    0    0  502    0  0.00000000000E+00  0.00000000000E+00  0.69969865120E+03  0.69969865120E+03  0.00000000000E+00 0.  1.
         -1   -1    0    0    0  501 -0.00000000000E+00 -0.00000000000E+00 -0.73592868826E+02  0.73592868826E+02  0.00000000000E+00 0. -1.
          6    1    1    2  502    0  0.14625814341E+03 -0.18642215238E+02  0.29084648864E+03  0.36866605032E+03  0.17200000000E+03 0. -1.
         -6    1    1    2    0  501 -0.14625814341E+03  0.18642215238E+02  0.33525929373E+03  0.40462546971E+03  0.17200000000E+03 0. -1.
</event>
<event>
 4    1  0.4363334E-001  0.1767733E+03  0.7818608E-02  0.1170963E+00
          2   -1    0    0  502    0  0.00000000000E+00  0.00000000000E+00  0.12024998563E+03  0.12024998563E+03  0.00000000000E+00 0.  1.
         -2   -1    0    0    0  501 -0.00000000000E+00 -0.00000000000E+00 -0.25987538034E+03  0.25987538034E+03  0.00000000000E+00 0. -1.
          6    1    1    2  502    0  0.83422650310E+01  0.39940088878E+02 -0.70993739552E+02  0.19049649640E+03  0.17200000000E+03 0.  1.
         -6    1    1    2    0  501 -0.83422650310E+01 -0.39940088878E+02 -0.68631655159E+02  0.18962886957E+03  0.17200000000E+03 0.  1.
</event>
<event>
 4    1  0.4363334E-001  0.1955301E+03  0.7818608E-02  0.1153566E+00
          1   -1    0    0  502    0  0.00000000000E+00  0.00000000000E+00  0.46926883252E+03  0.46926883252E+03  0.00000000000E+00 0. -1.
         -1   -1    0    0    0  501 -0.00000000000E+00 -0.00000000000E+00 -0.10418051279E+03  0.10418051279E+03  0.00000000000E+00 0.  1.
          6    1    1    2  502    0  0.74189334163E+02 -0.56070993927E+02  0.31641050197E+03  0.37195109816E+03  0.17200000000E+03 0.  1.
         -6    1    1    2    0  501 -0.74189334163E+02  0.56070993927E+02  0.48677817765E+02  0.20149824715E+03  0.17200000000E+03 0.  1.
</event>
<event>
 4    1  0.4363334E-001  0.3340115E+03  0.7818608E-02  0.1069376E+00
          1   -1    0    0  502    0  0.00000000000E+00  0.00000000000E+00  0.16790056245E+03  0.16790056245E+03  0.00000000000E+00 0.  1.
         -1   -1    0    0    0  501 -0.00000000000E+00 -0.00000000000E+00 -0.10188747114E+04  0.10188747114E+04  0.00000000000E+00 0. -1.
          6    1    1    2  502    0  0.10049259237E+03  0.26810611474E+03 -0.77545831667E+03  0.84433361343E+03  0.17200000000E+03 0. -1.
         -6    1    1    2    0  501 -0.10049259237E+03 -0.26810611474E+03 -0.75515832320E+02  0.34244166046E+03  0.17200000000E+03 0.  1.
</event>
<event>
 4    1  0.4363334E-001  0.2564362E+03  0.7818608E-02  0.1109304E+00
          2   -1    0    0  502    0  0.00000000000E+00  0.00000000000E+00  0.25739161301E+03  0.25739161301E+03  0.00000000000E+00 0.  1.
         -2   -1    0    0    0  501 -0.00000000000E+00 -0.00000000000E+00 -0.27281250277E+03  0.27281250277E+03  0.00000000000E+00 0. -1.
          6    1    1    2  502    0  0.65270228909E+02  0.17864862113E+03  0.59101931596E+02  0.26315883214E+03  0.17200000000E+03 0.  1.
         -6    1    1    2    0  501 -0.65270228909E+02 -0.17864862113E+03 -0.74522821358E+02  0.26704528364E+03  0.17200000000E+03 0. -1.
</event>
<event>
 4    1  0.4363334E-001  0.2107694E+03  0.7818608E-02  0.1140958E+00
          2   -1    0    0  502    0  0.00000000000E+00  0.00000000000E+00  0.18877085758E+04  0.18877085758E+04  0.00000000000E+00 0. -1.
         -2   -1    0    0    0  501 -0.00000000000E+00 -0.00000000000E+00 -0.28634445254E+02  0.28634445254E+02  0.00000000000E+00 0.  1.
          6    1    1    2  502    0  0.47096526930E+01 -0.12172745300E+03  0.52511155420E+03  0.56583204044E+03  0.17200000000E+03 0.  1.
         -6    1    1    2    0  501 -0.47096526930E+01  0.12172745300E+03  0.13339625764E+04  0.13505109806E+04  0.17200000000E+03 0. -1.
</event>
<event>
 4    1  0.4363334E-001  0.1751046E+03  0.7818608E-02  0.1172627E+00
         -3   -1    0    0    0  501 -0.00000000000E+00  0.00000000000E+00  0.85060382193E+03  0.85060382193E+03  0.00000000000E+00 0. -1.
          3   -1    0    0  502    0  0.00000000000E+00 -0.00000000000E+00 -0.36213969570E+02  0.36213969570E+02  0.00000000000E+00 0.  1.
          6    1    1    2  502    0  0.31360418001E+02  0.97033146995E+01  0.43731223749E+03  0.47106647428E+03  0.17200000000E+03 0.  1.
         -6    1    1    2    0  501 -0.31360418001E+02 -0.97033146995E+01  0.37707761487E+03  0.41575131722E+03  0.17200000000E+03 0. -1.
</event>
<event>
 4    1  0.4363334E-001  0.2415573E+03  0.7818608E-02  0.1118760E+00
         -3   -1    0    0    0  501 -0.00000000000E+00  0.00000000000E+00  0.12704672654E+04  0.12704672654E+04  0.00000000000E+00 0. -1.
          3   -1    0    0  502    0  0.00000000000E+00 -0.00000000000E+00 -0.83690651578E+02  0.83690651578E+02  0.00000000000E+00 0.  1.
          6    1    1    2  502    0 -0.13143977926E+03  0.10718914495E+03  0.13857569303E+03  0.27848366391E+03  0.17200000000E+03 0.  1.
         -6    1    1    2    0  501  0.13143977926E+03 -0.10718914495E+03  0.10482009208E+04  0.10756742530E+04  0.17200000000E+03 0. -1.
</event>
<event>
 4    1  0.4363334E-001  0.1861258E+03  0.7818608E-02  0.1162003E+00
          2   -1    0    0  502    0  0.00000000000E+00  0.00000000000E+00  0.85737909910E+03  0.85737909910E+03  0.00000000000E+00 0. -1.
         -2   -1    0    0    0  501 -0.00000000000E+00 -0.00000000000E+00 -0.44998677212E+02  0.44998677212E+02  0.00000000000E+00 0.  1.
          6    1    1    2  502    0  0.22499140317E+02 -0.67472955878E+02  0.55034073668E+03  0.58096276777E+03  0.17200000000E+03 0. -1.
         -6    1    1    2    0  501 -0.22499140317E+02  0.67472955878E+02  0.26203968521E+03  0.32141500854E+03  0.17200000000E+03 0.  1.
</event>
<event>
 4    1  0.4363334E-001  0.1809547E+03  0.7818608E-02  0.1166882E+00
         -2   -1    0    0    0  501 -0.00000000000E+00  0.00000000000E+00  0.21109350899E+02  0.21109350899E+02  0.00000000000E+00 0.  1.
          2   -1    0    0  502    0  0.00000000000E+00 -0.00000000000E+00 -0.16564955929E+04  0.16564955929E+04  0.00000000000E+00 0. -1.
          6    1    1    2  502    0 -0.36446790528E+02 -0.42804440308E+02 -0.10291845426E+04  0.10449714883E+04  0.17200000000E+03 0. -1.
         -6    1    1    2    0  501  0.36446790528E+02  0.42804440308E+02 -0.60620169943E+03  0.63263345552E+03  0.17200000000E+03 0.  1.
</event>
<event>
 4    1  0.4363334E-001  0.2172100E+03  0.7818608E-02  0.1135980E+00
         -2   -1    0    0    0  501 -0.00000000000E+00  0.00000000000E+00  0.11113626219E+03  0.11113626219E+03  0.00000000000E+00 0. -1.
          2   -1    0    0  502    0  0.00000000000E+00 -0.00000000000E+00 -0.10091421411E+04  0.10091421411E+04  0.00000000000E+00 0.  1.
          6    1    1    2  502    0  0.13908251887E+02 -0.13191943075E+03 -0.22663618767E+02  0.21838913731E+03  0.17200000000E+03 0. -1.
         -6    1    1    2    0  501 -0.13908251887E+02  0.13191943075E+03 -0.87534226016E+03  0.90188926598E+03  0.17200000000E+03 0.  1.
</event>
<event>
 4    1  0.4363334E-001  0.2048452E+03  0.7818608E-02  0.1145714E+00
         -2   -1    0    0    0  501 -0.00000000000E+00  0.00000000000E+00  0.17501952332E+03  0.17501952332E+03  0.00000000000E+00 0.  1.
          2   -1    0    0  502    0  0.00000000000E+00 -0.00000000000E+00 -0.26602558475E+03  0.26602558475E+03  0.00000000000E+00 0. -1.
          6    1    1    2  502    0 -0.67221094475E+02  0.88650276332E+02  0.23797793756E+02  0.20622289403E+03  0.17200000000E+03 0.  1.
         -6    1    1    2    0  501  0.67221094475E+02 -0.88650276332E+02 -0.11480385519E+03  0.23482221403E+03  0.17200000000E+03 0. -1.
</event>
<event>
 4    1  0.4363334E-001  0.1839390E+03  0.7818608E-02  0.1164044E+00
         -2   -1    0    0    0  501 -0.00000000000E+00  0.00000000000E+00  0.83333656684E+02  0.83333656684E+02  0.00000000000E+00 0.  1.
          2   -1    0    0  502    0  0.00000000000E+00 -0.00000000000E+00 -0.49568557951E+03  0.49568557951E+03  0.00000000000E+00 0. -1.
          6    1    1    2  502    0 -0.22705693306E+02  0.61106663459E+02 -0.83030610848E+02  0.20181093916E+03  0.17200000000E+03 0.  1.
         -6    1    1    2    0  501  0.22705693306E+02 -0.61106663459E+02 -0.32932131197E+03  0.37720829703E+03  0.17200000000E+03 0. -1.
</event>
<event>
 4    1  0.4363334E-001  0.4423341E+03  0.7818608E-02  0.1030033E+00
          1   -1    0    0  502    0  0.00000000000E+00  0.00000000000E+00  0.26319221822E+03  0.26319221822E+03  0.00000000000E+00 0.  1.
         -1   -1    0    0    0  501 -0.00000000000E+00 -0.00000000000E+00 -0.75550833371E+03  0.75550833371E+03  0.00000000000E+00 0. -1.
          6    1    1    2  502    0  0.29026413960E+03 -0.28604575621E+03 -0.31061636500E+03  0.54050159259E+03  0.17200000000E+03 0. -1.
         -6    1    1    2    0  501 -0.29026413960E+03  0.28604575621E+03 -0.18169975049E+03  0.47819895934E+03  0.17200000000E+03 0.  1.
</event>
<event>
 4    1  0.4363334E-001  0.1795325E+03  0.7818608E-02  0.1168256E+00
         -3   -1    0    0    0  501 -0.00000000000E+00  0.00000000000E+00  0.18341751228E+03  0.18341751228E+03  0.00000000000E+00 0. -1.
          3   -1    0    0  502    0  0.00000000000E+00 -0.00000000000E+00 -0.17709639282E+03  0.17709639282E+03  0.00000000000E+00 0.  1.
          6    1    1    2  502    0  0.17889659751E+02  0.48248220505E+02 -0.12673775651E+02  0.17997931908E+03  0.17200000000E+03 0. -1.
         -6    1    1    2    0  501 -0.17889659751E+02 -0.48248220505E+02  0.18994895112E+02  0.18053458602E+03  0.17200000000E+03 0.  1.
</event>
<event>
 4    1  0.4363334E-001  0.1727575E+03  0.7818608E-02  0.1175002E+00
         -2   -1    0    0    0  501 -0.00000000000E+00  0.00000000000E+00  0.28233748548E+02  0.28233748548E+02  0.00000000000E+00 0. -1.
          2   -1    0    0  502    0  0.00000000000E+00 -0.00000000000E+00 -0.11216465408E+04  0.11216465408E+04  0.00000000000E+00 0.  1.
          6    1    1    2  502    0 -0.17211462844E+01  0.16068394965E+02 -0.68465561892E+03  0.70611505591E+03  0.17200000000E+03 0.  1.
         -6    1    1    2    0  501  0.17211462844E+01 -0.16068394965E+02 -0.40875717335E+03  0.44376523346E+03  0.17200000000E+03 0. -1.
</event>
<event>
 4    1  0.4363334E-001  0.1974786E+03  0.7818608E-02  0.1151884E+00
          2   -1    0    0  502    0  0.00000000000E+00  0.00000000000E+00  0.57824110488E+03  0.57824110488E+03  0.00000000000E+00 0. -1.
         -2   -1    0    0    0  501 -0.00000000000E+00 -0.00000000000E+00 -0.72467718590E+02  0.72467718590E+02  0.00000000000E+00 0.  1.
          6    1    1    2  502    0  0.22966347043E+02 -0.94267328332E+02  0.33856681486E+03  0.39195059691E+03  0.17200000000E+03 0. -1.
         -6    1    1    2    0  501 -0.22966347043E+02  0.94267328332E+02  0.16720657143E+03  0.25875822657E+03  0.17200000000E+03 0.  1.
</event>
<event>
 4    1  0.4363334E-001  0.2029613E+03  0.7818608E-02  0.1147264E+00
          3   -1    0    0  502    0  0.00000000000E+00  0.00000000000E+00  0.88113867223E+03  0.88113867223E+03  0.00000000000E+00 0. -1.
         -3   -1    0    0    0  501 -0.00000000000E+00 -0.00000000000E+00 -0.47256944294E+02  0.47256944294E+02  0.00000000000E+00 0.  1.
          6    1    1    2  502    0  0.10494406866E+03  0.24413862096E+02  0.36886571999E+03  0.42101688041E+03  0.17200000000E+03 0. -1.
         -6    1    1    2    0  501 -0.10494406866E+03 -0.24413862096E+02  0.46501600795E+03  0.50737873611E+03  0.17200000000E+03 0. -1.
</event>
<event>
 4    1  0.4363334E-001  0.1741000E+03  0.7818608E-02  0.1173638E+00
         -2   -1    0    0    0  501 -0.00000000000E+00  0.00000000000E+00  0.40485009421E+02  0.40485009421E+02  0.00000000000E+00 0.  1.
          2   -1    0    0  502    0  0.00000000000E+00 -0.00000000000E+00 -0.10481830549E+04  0.10481830549E+04  0.00000000000E+00 0. -1.
          6    1    1    2  502    0  0.26631927172E+02  0.41900108541E+01 -0.79481259099E+03  0.81365709640E+03  0.17200000000E+03 0. -1.
         -6    1    1    2    0  501 -0.26631927172E+02 -0.41900108541E+01 -0.21288545445E+03  0.27501096788E+03  0.17200000000E+03 0.  1.
</event>
<event>
 4    1  0.4363334E-001  0.2283456E+03  0.7818608E-02  0.1127810E+00
         -2   -1    0    0    0  501 -0.00000000000E+00  0.00000000000E+00  0.14063677295E+03  0.14063677295E+03  0.00000000000E+00 0. -1.
          2   -1    0    0  502    0  0.00000000000E+00 -0.00000000000E+00 -0.47742714688E+03  0.47742714688E+03  0.00000000000E+00 0.  1.
          6    1    1    2  502    0  0.57295555621E+02 -0.13883426207E+03 -0.31447026839E+03  0.38863000749E+03  0.17200000000E+03 0.  1.
         -6    1    1    2    0  501 -0.57295555621E+02  0.13883426207E+03 -0.22320105541E+02  0.22943391234E+03  0.17200000000E+03 0. -1.
</event>
<event>
 4    1  0.4363334E-001  0.2039601E+03  0.7818608E-02  0.1146440E+00
          1   -1    0    0  502    0  0.00000000000E+00  0.00000000000E+00  0.54514364649E+03  0.54514364649E+03  0.00000000000E+00 0.  1.
         -1   -1    0    0    0  501 -0.00000000000E+00 -0.00000000000E+00 -0.82127362466E+02  0.82127362466E+02  0.00000000000E+00 0. -1.
          6    1    1    2  502    0  0.37577827465E+02  0.10297387285E+03  0.31498345243E+03  0.37525229767E+03  0.17200000000E+03 0.  1.
         -6    1    1    2    0  501 -0.37577827465E+02 -0.10297387285E+03  0.14803283159E+03  0.25201871128E+03  0.17200000000E+03 0. -1.
</event>
<event>
 4    1  0.4363334E-001  0.2442475E+03  0.7818608E-02  0.1116995E+00
         -1   -1    0    0    0  501 -0.00000000000E+00  0.00000000000E+00  0.67950328371E+02  0.67950328371E+02  0.00000000000E+00 0.  1.
          1   -1    0    0  502    0  0.00000000000E+00 -0.00000000000E+00 -0.97919201668E+03  0.97919201668E+03  0.00000000000E+00 0. -1.
          6    1    1    2  502    0 -0.45359289870E+02  0.16737800777E+03 -0.62397592693E+03  0.67007672699E+03  0.17200000000E+03 0. -1.
         -6    1    1    2    0  501  0.45359289870E+02 -0.16737800777E+03 -0.28726576138E+03  0.37706561806E+03  0.17200000000E+03 0.  1.
</event>
<event>
 4    1  0.4363334E-001  0.1826396E+03  0.7818608E-02  0.1165273E+00
         -2   -1    0    0    0  501 -0.00000000000E+00  0.00000000000E+00  0.11692405815E+02  0.11692405815E+02  0.00000000000E+00 0.  1.
          2   -1    0    0  502    0  0.00000000000E+00 -0.00000000000E+00 -0.28631083012E+04  0.28631083012E+04  0.00000000000E+00 0. -1.
          6    1    1    2  502    0 -0.43998444849E+02  0.42864540147E+02 -0.13398669226E+04  0.13522575946E+04  0.17200000000E+03 0.  1.
         -6    1    1    2    0  501  0.43998444849E+02 -0.42864540147E+02 -0.15115489727E+04  0.15225431123E+04  0.17200000000E+03 0. -1.
</event>
<event>
 4    1  0.4363334E-001  0.1949731E+03  0.7818608E-02  0.1154051E+00
          2   -1    0    0  502    0  0.00000000000E+00  0.00000000000E+00  0.64522564965E+03  0.64522564965E+03  0.00000000000E+00 0.  1.
         -2   -1    0    0    0  501 -0.00000000000E+00 -0.00000000000E+00 -0.11462428896E+03  0.11462428896E+03  0.00000000000E+00 0. -1.
          6    1    1    2  502    0 -0.90865115370E+02 -0.13192046417E+02  0.53016111915E+03  0.56487636836E+03  0.17200000000E+03 0.  1.
         -6    1    1    2    0  501  0.90865115370E+02  0.13192046417E+02  0.44024154464E+00  0.19497357024E+03  0.17200000000E+03 0. -1.
</event>
<event>
 4    1  0.4363334E-001  0.2327189E+03  0.7818608E-02  0.1124741E+00
         -1   -1    0    0    0  501 -0.00000000000E+00  0.00000000000E+00  0.70487021545E+02  0.70487021545E+02  0.00000000000E+00 0.  1.
          1   -1    0    0  502    0  0.00000000000E+00 -0.00000000000E+00 -0.80343559381E+03  0.80343559381E+03  0.00000000000E+00 0. -1.
          6    1    1    2  502    0  0.32583308803E+02 -0.15333754344E+03 -0.27514983615E+03  0.36036857046E+03  0.17200000000E+03 0.  1.
         -6    1    1    2    0  501 -0.32583308803E+02  0.15333754344E+03 -0.45779873612E+03  0.51355404490E+03  0.17200000000E+03 0. -1.
</event>
<event>
 4    1  0.4363334E-001  0.1942026E+03  0.7818608E-02  0.1154725E+00
          2   -1    0    0  502    0  0.00000000000E+00  0.00000000000E+00  0.72735903277E+03  0.72735903277E+03  0.00000000000E+00 0.  1.
         -2   -1    0    0    0  501 -0.00000000000E+00 -0.00000000000E+00 -0.52773323281E+02  0.52773323281E+02  0.00000000000E+00 0. -1.
          6    1    1    2  502    0  0.59987504609E+02 -0.67321372283E+02  0.28574016247E+03  0.34548821735E+03  0.17200000000E+03 0.  1.
         -6    1    1    2    0  501 -0.59987504609E+02  0.67321372283E+02  0.38884554702E+03  0.43464413870E+03  0.17200000000E+03 0. -1.
</event>
<event>
 4    1  0.4363334E-001  0.2008069E+03  0.7818608E-02  0.1149060E+00
         -2   -1    0    0    0  501 -0.00000000000E+00  0.00000000000E+00  0.22362099809E+02  0.22362099809E+02  0.00000000000E+00 0. -1.
          2   -1    0    0  502    0  0.00000000000E+00 -0.00000000000E+00 -0.18124803028E+04  0.18124803028E+04  0.00000000000E+00 0.  1.
          6    1    1    2  502    0  0.81613267499E+02  0.63864578805E+02 -0.82942366315E+03  0.85338562376E+03  0.17200000000E+03 0. -1.
         -6    1    1    2    0  501 -0.81613267499E+02 -0.63864578805E+02 -0.96069453985E+03  0.98145677886E+03  0.17200000000E+03 0. -1.
</event>
<event>
 4    1  0.4363334E-001  0.2790766E+03  0.7818608E-02  0.1096194E+00
         -3   -1    0    0    0  501 -0.00000000000E+00  0.00000000000E+00  0.60649076098E+02  0.60649076098E+02  0.00000000000E+00 0.  1.
          3   -1    0    0  502    0  0.00000000000E+00 -0.00000000000E+00 -0.13514979360E+04  0.13514979360E+04  0.00000000000E+00 0. -1.
          6    1    1    2  502    0 -0.10395404710E+03 -0.19363184901E+03 -0.48783060667E+03  0.56201640338E+03  0.17200000000E+03 0.  1.
         -6    1    1    2    0  501  0.10395404710E+03  0.19363184901E+03 -0.80301825326E+03  0.85013060875E+03  0.17200000000E+03 0.  1.
</event>
<event>
 4    1  0.4363334E-001  0.1865080E+03  0.7818608E-02  0.1161649E+00
          2   -1    0    0  502    0  0.00000000000E+00  0.00000000000E+00  0.12135158497E+04  0.12135158497E+04  0.00000000000E+00 0.  1.
         -2   -1    0    0    0  501 -0.00000000000E+00 -0.00000000000E+00 -0.30558893514E+02  0.30558893514E+02  0.00000000000E+00 0. -1.
          6    1    1    2  502    0 -0.28649095763E+02  0.66184945725E+02  0.74634076615E+03  0.76929172421E+03  0.17200000000E+03 0.  1.
         -6    1    1    2    0  501  0.28649095763E+02 -0.66184945725E+02  0.43661619003E+03  0.47478301900E+03  0.17200000000E+03 0. -1.
</event>
<event>
 4    1  0.4363334E-001  0.1960964E+03  0.7818608E-02  0.1153075E+00
         -1   -1    0    0    0  501 -0.00000000000E+00  0.00000000000E+00  0.58726138461E+02  0.58726138461E+02  0.00000000000E+00 0.  1.
          1   -1    0    0  502    0  0.00000000000E+00 -0.00000000000E+00 -0.66084207374E+03  0.66084207374E+03  0.00000000000E+00 0. -1.
          6    1    1    2  502    0 -0.25706778852E+02 -0.90603376720E+02 -0.33546331807E+03  0.38857360709E+03  0.17200000000E+03 0.  1.
         -6    1    1    2    0  501  0.25706778852E+02  0.90603376720E+02 -0.26665261720E+03  0.33099460511E+03  0.17200000000E+03 0.  1.
</event>
<event>
 4    1  0.4363334E-001  0.2591447E+03  0.7818608E-02  0.1107658E+00
         -3   -1    0    0    0  501 -0.00000000000E+00  0.00000000000E+00  0.15847828123E+03  0.15847828123E+03  0.00000000000E+00 0.  1.
          3   -1    0    0  502    0  0.00000000000E+00 -0.00000000000E+00 -0.48673793984E+03  0.48673793984E+03  0.00000000000E+00 0. -1.
          6    1    1    2  502    0  0.58547405575E+02  0.18478137564E+03 -0.48081382413E+02  0.26356740090E+03  0.17200000000E+03 0. -1.
         -6    1    1    2    0  501 -0.58547405575E+02 -0.18478137564E+03 -0.28017827620E+03  0.38164882017E+03  0.17200000000E+03 0.  1.
</event>
<event>
 4    1  0.4363334E-001  0.3973003E+03  0.7818608E-02  0.1044718E+00
         -1   -1    0    0    0  501 -0.00000000000E+00  0.00000000000E+00  0.26221259711E+03  0.26221259711E+03  0.00000000000E+00 0. -1.
          1   -1    0    0  502    0  0.00000000000E+00 -0.00000000000E+00 -0.77940485172E+03  0.77940485172E+03  0.00000000000E+00 0.  1.
          6    1    1    2  502    0 -0.23586730737E+03 -0.26949986758E+03 -0.50708106471E+03  0.64418845962E+03  0.17200000000E+03 0.  1.
         -6    1    1    2    0  501  0.23586730737E+03  0.26949986758E+03 -0.10111189898E+02  0.39742898922E+03  0.17200000000E+03 0. -1.
</event>
<event>
 4    1  0.4363334E-001  0.2044139E+03  0.7818608E-02  0.1146068E+00
          1   -1    0    0  502    0  0.00000000000E+00  0.00000000000E+00  0.41360012755E+03  0.41360012755E+03  0.00000000000E+00 0. -1.
         -1   -1    0    0    0  501 -0.00000000000E+00 -0.00000000000E+00 -0.10858915246E+03  0.10858915246E+03  0.00000000000E+00 0.  1.
          6    1    1    2  502    0  0.12055668451E+02  0.10979846180E+03  0.83607060200E+02  0.22085104001E+03  0.17200000000E+03 0.  1.
         -6    1    1    2    0  501 -0.12055668451E+02 -0.10979846180E+03  0.22140391489E+03  0.30133824000E+03  0.17200000000E+03 0. -1.
</event>
<event>
 4    1  0.4363334E-001  0.2364295E+03  0.7818608E-02  0.1122194E+00
         -2   -1    0    0    0  501 -0.00000000000E+00  0.00000000000E+00  0.31479447852E+03  0.31479447852E+03  0.00000000000E+00 0.  1.
          2   -1    0    0  502    0  0.00000000000E+00 -0.00000000000E+00 -0.30823489511E+03  0.30823489511E+03  0.00000000000E+00 0. -1.
          6    1    1    2  502    0  0.10889545965E+03 -0.12023601600E+03 -0.19954102169E+03  0.30937928181E+03  0.17200000000E+03 0. -1.
         -6    1    1    2    0  501 -0.10889545965E+03  0.12023601600E+03  0.20610060510E+03  0.31365009182E+03  0.17200000000E+03 0.  1.
</event>
<event>
 4    1  0.4363334E-001  0.3113558E+03  0.7818608E-02  0.1079698E+00
          2   -1    0    0  502    0  0.00000000000E+00  0.00000000000E+00  0.87627637325E+03  0.87627637325E+03  0.00000000000E+00 0.  1.
         -2   -1    0    0    0  501 -0.00000000000E+00 -0.00000000000E+00 -0.11384632107E+03  0.11384632107E+03  0.00000000000E+00 0. -1.
          6    1    1    2  502    0 -0.58485702113E+02 -0.25285930456E+03  0.29800358124E+03  0.43098554463E+03  0.17200000000E+03 0. -1.
         -6    1    1    2    0  501  0.58485702113E+02  0.25285930456E+03  0.46442647094E+03  0.55913714969E+03  0.17200000000E+03 0.  1.
</event>
<event>
 4    1  0.4363334E-001  0.2167640E+03  0.7818608E-02  0.1136319E+00
         -1   -1    0    0    0  501 -0.00000000000E+00  0.00000000000E+00  0.64465522641E+02  0.64465522641E+02  0.00000000000E+00 0.  1.
          1   -1    0    0  502    0  0.00000000000E+00 -0.00000000000E+00 -0.13569029452E+04  0.13569029452E+04  0.00000000000E+00 0. -1.
          6    1    1    2  502    0  0.12159830828E+02  0.13135743891E+03 -0.16271995185E+03  0.27104320868E+03  0.17200000000E+03 0.  1.
         -6    1    1    2    0  501 -0.12159830828E+02 -0.13135743891E+03 -0.11297174707E+04  0.11503252592E+04  0.17200000000E+03 0. -1.
</event>
<event>
 4    1  0.4363334E-001  0.1862114E+03  0.7818608E-02  0.1161923E+00
          2   -1    0    0  502    0  0.00000000000E+00  0.00000000000E+00  0.14374814935E+03  0.14374814935E+03  0.00000000000E+00 0.  1.
         -2   -1    0    0    0  501 -0.00000000000E+00 -0.00000000000E+00 -0.24396912795E+03  0.24396912795E+03  0.00000000000E+00 0. -1.
          6    1    1    2  502    0  0.66041516717E+02  0.27003647502E+02 -0.29525419283E+02  0.18853760710E+03  0.17200000000E+03 0.  1.
         -6    1    1    2    0  501 -0.66041516717E+02 -0.27003647502E+02 -0.70695559317E+02  0.19917967019E+03  0.17200000000E+03 0. -1.
</event>
<event>
 4    1  0.4363334E-001  0.1726666E+03  0.7818608E-02  0.1175095E+00
          2   -1    0    0  502    0  0.00000000000E+00  0.00000000000E+00  0.15807931128E+03  0.15807931128E+03  0.00000000000E+00 0. -1.
         -2   -1    0    0    0  501 -0.00000000000E+00 -0.00000000000E+00 -0.22516207434E+03  0.22516207434E+03  0.00000000000E+00 0.  1.
          6    1    1    2  502    0  0.14034869327E+02  0.57239321633E+01  0.43675248470E+02  0.17810465543E+03  0.17200000000E+03 0. -1.
         -6    1    1    2    0  501 -0.14034869327E+02 -0.57239321633E+01 -0.11075801153E+03  0.20513673020E+03  0.17200000000E+03 0.  1.
</event>
<event>
 4    1  0.4363334E-001  0.1859745E+03  0.7818608E-02  0.1162143E+00
         -1   -1    0    0    0  501 -0.00000000000E+00  0.00000000000E+00  0.40592038880E+02  0.40592038880E+02  0.00000000000E+00 0.  1.
          1   -1    0    0  502    0  0.00000000000E+00 -0.00000000000E+00 -0.12363961519E+04  0.12363961519E+04  0.00000000000E+00 0. -1.
          6    1    1    2  502    0  0.24026592768E+02 -0.66522353853E+02 -0.95389269717E+03  0.97185275553E+03  0.17200000000E+03 0. -1.
         -6    1    1    2    0  501 -0.24026592768E+02  0.66522353853E+02 -0.24191141582E+03  0.30513543522E+03  0.17200000000E+03 0.  1.
</event>
<event>
 4    1  0.4363334E-001  0.1856165E+03  0.7818608E-02  0.1162475E+00
          2   -1    0    0  502    0  0.00000000000E+00  0.00000000000E+00  0.54429747188E+03  0.54429747188E+03  0.00000000000E+00 0. -1.
         -2   -1    0    0    0  501 -0.00000000000E+00 -0.00000000000E+00 -0.75819070304E+02  0.75819070304E+02  0.00000000000E+00 0.  1.
          6    1    1    2  502    0 -0.17447772555E+02 -0.67565176142E+02  0.10824291917E+03  0.21487207204E+03  0.17200000000E+03 0.  1.
         -6    1    1    2    0  501  0.17447772555E+02  0.67565176142E+02  0.36023548241E+03  0.40524447014E+03  0.17200000000E+03 0. -1.
</event>
<event>
 4    1  0.4363334E-001  0.1761399E+03  0.7818608E-02  0.1171592E+00
          2   -1    0    0  502    0  0.00000000000E+00  0.00000000000E+00  0.51665793063E+03  0.51665793063E+03  0.00000000000E+00 0. -1.
         -2   -1    0    0    0  501 -0.00000000000E+00 -0.00000000000E+00 -0.60311311998E+02  0.60311311998E+02  0.00000000000E+00 0.  1.
          6    1    1    2  502    0 -0.32097604425E+01 -0.37828113514E+02  0.20918145893E+03  0.27346325438E+03  0.17200000000E+03 0.  1.
         -6    1    1    2    0  501  0.32097604425E+01  0.37828113514E+02  0.24716515970E+03  0.30350598825E+03  0.17200000000E+03 0. -1.
</event>
<event>
 4    1  0.4363334E-001  0.1774332E+03  0.7818608E-02  0.1170311E+00
          2   -1    0    0  502    0  0.00000000000E+00  0.00000000000E+00  0.11353940154E+04  0.11353940154E+04  0.00000000000E+00 0.  1.
         -2   -1    0    0    0  501 -0.00000000000E+00 -0.00000000000E+00 -0.43323564066E+02  0.43323564066E+02  0.00000000000E+00 0. -1.
          6    1    1    2  502    0  0.43537225955E+02  0.17470038299E+01  0.89963671822E+03  0.91696715691E+03  0.17200000000E+03 0.  1.
         -6    1    1    2    0  501 -0.43537225955E+02 -0.17470038299E+01  0.19243373307E+03  0.26175042252E+03  0.17200000000E+03 0. -1.
</event>
<event>
 4    1  0.4363334E-001  0.2047672E+03  0.7818608E-02  0.1145778E+00
          1   -1    0    0  502    0  0.00000000000E+00  0.00000000000E+00  0.61547049311E+03  0.61547049311E+03  0.00000000000E+00 0. -1.
         -1   -1    0    0    0  501 -0.00000000000E+00 -0.00000000000E+00 -0.84096612665E+02  0.84096612665E+02  0.00000000000E+00 0.  1.
          6    1    1    2  502    0 -0.57696156546E+02  0.94956718969E+02  0.41811646894E+03  0.46556525489E+03  0.17200000000E+03 0. -1.
         -6    1    1    2    0  501  0.57696156546E+02 -0.94956718969E+02  0.11325741150E+03  0.23400185088E+03  0.17200000000E+03 0.  1.
</event>
<event>
 4    1  0.4363334E-001  0.1913249E+03  0.7818608E-02  0.1157272E+00
         -2   -1    0    0    0  501 -0.00000000000E+00  0.00000000000E+00  0.42516500390E+03  0.42516500390E+03  0.00000000000E+00 0.  1.
          2   -1    0    0  502    0  0.00000000000E+00 -0.00000000000E+00 -0.15738752714E+03  0.15738752714E+03  0.00000000000E+00 0. -1.
          6    1    1    2  502    0  0.83780331746E+02 -0.14405844460E+01 -0.62147957584E+02  0.20116557335E+03  0.17200000000E+03 0. -1.
         -6    1    1    2    0  501 -0.83780331746E+02  0.14405844460E+01  0.32992543435E+03  0.38138695769E+03  0.17200000000E+03 0.  1.
</event>
<event>
 4    1  0.4363334E-001  0.2671123E+03  0.7818608E-02  0.1102944E+00
          2   -1    0    0  502    0  0.00000000000E+00  0.00000000000E+00  0.16091442014E+04  0.16091442014E+04  0.00000000000E+00 0.  1.
         -2   -1    0    0    0  501 -0.00000000000E+00 -0.00000000000E+00 -0.50773403689E+02  0.50773403689E+02  0.00000000000E+00 0. -1.
          6    1    1    2  502    0  0.19347898396E+03  0.65809371862E+02  0.10746248683E+04  0.11073245226E+04  0.17200000000E+03 0.  1.
         -6    1    1    2    0  501 -0.19347898396E+03 -0.65809371862E+02  0.48374592942E+03  0.55259308255E+03  0.17200000000E+03 0. -1.
</event>
<event>
 4    1  0.4363334E-001  0.1806549E+03  0.7818608E-02  0.1167171E+00
         -2   -1    0    0    0  501 -0.00000000000E+00  0.00000000000E+00  0.39853508485E+02  0.39853508485E+02  0.00000000000E+00 0. -1.
          2   -1    0    0  502    0  0.00000000000E+00 -0.00000000000E+00 -0.87505271624E+03  0.87505271624E+03  0.00000000000E+00 0.  1.
          6    1    1    2  502    0 -0.69131742305E+01  0.54812364471E+02 -0.30172176502E+03  0.35167059980E+03  0.17200000000E+03 0. -1.
         -6    1    1    2    0  501  0.69131742305E+01 -0.54812364471E+02 -0.53347744273E+03  0.56323562492E+03  0.17200000000E+03 0.  1.
</event>
<event>
 4    1  0.4363334E-001  0.1876561E+03  0.7818608E-02  0.1160592E+00
          2   -1    0    0  502    0  0.00000000000E+00  0.00000000000E+00  0.10841476057E+04  0.10841476057E+04  0.00000000000E+00 0. -1.
         -2   -1    0    0    0  501 -0.00000000000E+00 -0.00000000000E+00 -0.40706008822E+02  0.40706008822E+02  0.00000000000E+00 0.  1.
          6    1    1    2  502    0  0.12204251322E+02  0.74039749213E+02  0.77452809207E+03  0.79693700731E+03  0.17200000000E+03 0.  1.
         -6    1    1    2    0  501 -0.12204251322E+02 -0.74039749213E+02  0.26891350478E+03  0.32791660718E+03  0.17200000000E+03 0.  1.
</event>
<event>
 4    1  0.4363334E-001  0.2658546E+03  0.7818608E-02  0.1103676E+00
          2   -1    0    0  502    0  0.00000000000E+00  0.00000000000E+00  0.13906240651E+03  0.13906240651E+03  0.00000000000E+00 0. -1.
         -2   -1    0    0    0  501 -0.00000000000E+00 -0.00000000000E+00 -0.50899475772E+03  0.50899475772E+03  0.00000000000E+00 0.  1.
          6    1    1    2  502    0 -0.11095227089E+03  0.16965927599E+03 -0.17258399512E+03  0.31696042611E+03  0.17200000000E+03 0. -1.
         -6    1    1    2    0  501  0.11095227089E+03 -0.16965927599E+03 -0.19734835609E+03  0.33109673813E+03  0.17200000000E+03 0.  1.
</event>
<event>
 4    1  0.4363334E-001  0.1737868E+03  0.7818608E-02  0.1173955E+00
         -1   -1    0    0    0  501 -0.00000000000E+00  0.00000000000E+00  0.82155054772E+03  0.82155054772E+03  0.00000000000E+00 0.  1.
          1   -1    0    0  502    0  0.00000000000E+00 -0.00000000000E+00 -0.38404414510E+02  0.38404414510E+02  0.00000000000E+00 0. -1.
          6    1    1    2  502    0  0.24708762026E+02  0.27094807903E+01  0.48049170969E+03  0.51095415380E+03  0.17200000000E+03 0.  1.
         -6    1    1    2    0  501 -0.24708762026E+02 -0.27094807903E+01  0.30265442352E+03  0.34900080843E+03  0.17200000000E+03 0. -1.
</event>
<event>
 4    1  0.4363334E-001  0.1846766E+03  0.7818608E-02  0.1163352E+00
          1   -1    0    0  502    0  0.00000000000E+00  0.00000000000E+00  0.19591383148E+04  0.19591383148E+04  0.00000000000E+00 0.  1.
         -1   -1    0    0    0  501 -0.00000000000E+00 -0.00000000000E+00 -0.26822305115E+02  0.26822305115E+02  0.00000000000E+00 0. -1.
          6    1    1    2  502    0 -0.22626470686E+01  0.67203734204E+02  0.37788689687E+03  0.42059953434E+03  0.17200000000E+03 0. -1.
         -6    1    1    2    0  501  0.22626470686E+01 -0.67203734204E+02  0.15544291129E+04  0.15653610856E+04  0.17200000000E+03 0.  1.
</event>
<event>
 4    1  0.4363334E-001  0.2053607E+03  0.7818608E-02  0.1145293E+00
         -2   -1    0    0    0  501 -0.00000000000E+00  0.00000000000E+00  0.96535192612E+02  0.96535192612E+02  0.00000000000E+00 0.  1.
          2   -1    0    0  502    0  0.00000000000E+00 -0.00000000000E+00 -0.50330132332E+03  0.50330132332E+03  0.00000000000E+00 0. -1.
          6    1    1    2  502    0 -0.29325184070E+02  0.10830081034E+03 -0.31234765790E+03  0.37381023439E+03  0.17200000000E+03 0. -1.
         -6    1    1    2    0  501  0.29325184070E+02 -0.10830081034E+03 -0.94418472815E+02  0.22602628155E+03  0.17200000000E+03 0. -1.
</event>
<event>
 4    1  0.4363334E-001  0.1988658E+03  0.7818608E-02  0.1150699E+00
          2   -1    0    0  502    0  0.00000000000E+00  0.00000000000E+00  0.16112748978E+03  0.16112748978E+03  0.00000000000E+00 0. -1.
         -2   -1    0    0    0  501 -0.00000000000E+00 -0.00000000000E+00 -0.42231227672E+03  0.42231227672E+03  0.00000000000E+00 0.  1.
          6    1    1    2  502    0 -0.82697445088E+02 -0.55899483461E+02  0.58196020546E+02  0.20720616903E+03  0.17200000000E+03 0. -1.
         -6    1    1    2    0  501  0.82697445088E+02  0.55899483461E+02 -0.31938080749E+03  0.37623359747E+03  0.17200000000E+03 0.  1.
</event>
<event>
 4    1  0.4363334E-001  0.3464745E+03  0.7818608E-02  0.1064071E+00
          1   -1    0    0  502    0  0.00000000000E+00  0.00000000000E+00  0.18722230577E+04  0.18722230577E+04  0.00000000000E+00 0. -1.
         -1   -1    0    0    0  501 -0.00000000000E+00 -0.00000000000E+00 -0.86915362491E+02  0.86915362491E+02  0.00000000000E+00 0.  1.
          6    1    1    2  502    0  0.10273918503E+03 -0.28267511556E+03  0.39097912354E+03  0.52240715552E+03  0.17200000000E+03 0.  1.
         -6    1    1    2    0  501 -0.10273918503E+03  0.28267511556E+03  0.13943285717E+04  0.14367312647E+04  0.17200000000E+03 0. -1.
</event>
<event>
 4    1  0.4363334E-001  0.2127129E+03  0.7818608E-02  0.1139435E+00
         -2   -1    0    0    0  501 -0.00000000000E+00  0.00000000000E+00  0.67716612418E+02  0.67716612418E+02  0.00000000000E+00 0.  1.
          2   -1    0    0  502    0  0.00000000000E+00 -0.00000000000E+00 -0.68168065186E+03  0.68168065186E+03  0.00000000000E+00 0. -1.
          6    1    1    2  502    0  0.36616387027E+01 -0.12509747269E+03 -0.35971628956E+03  0.41790261335E+03  0.17200000000E+03 0.  1.
         -6    1    1    2    0  501 -0.36616387027E+01  0.12509747269E+03 -0.25424774988E+03  0.33149465092E+03  0.17200000000E+03 0.  1.
</event>
<event>
 4    1  0.4363334E-001  0.1740071E+03  0.7818608E-02  0.1173732E+00
          1   -1    0    0  502    0  0.00000000000E+00  0.00000000000E+00  0.38493249489E+03  0.38493249489E+03  0.00000000000E+00 0. -1.
         -1   -1    0    0    0  501 -0.00000000000E+00 -0.00000000000E+00 -0.78926895082E+02  0.78926895082E+02  0.00000000000E+00 0.  1.
          6    1    1    2  502    0 -0.26254185386E+02 -0.22766255454E+01  0.13949453706E+03  0.22301836504E+03  0.17200000000E+03 0. -1.
         -6    1    1    2    0  501  0.26254185386E+02  0.22766255454E+01  0.16651106275E+03  0.24084102494E+03  0.17200000000E+03 0.  1.
</event>
<event>
 4    1  0.4363334E-001  0.1911738E+03  0.7818608E-02  0.1157407E+00
          1   -1    0    0  502    0  0.00000000000E+00  0.00000000000E+00  0.12074974760E+04  0.12074974760E+04  0.00000000000E+00 0. -1.
         -1   -1    0    0    0  501 -0.00000000000E+00 -0.00000000000E+00 -0.35544742062E+02  0.35544742062E+02  0.00000000000E+00 0.  1.
          6    1    1    2  502    0 -0.80630192548E+02 -0.21498682206E+02  0.82546727871E+03  0.84731555486E+03  0.17200000000E+03 0. -1.
         -6    1    1    2    0  501  0.80630192548E+02  0.21498682206E+02  0.34648545526E+03  0.39572666323E+03  0.17200000000E+03 0.  1.
</event>
<event>
 4    1  0.4363334E-001  0.2147058E+03  0.7818608E-02  0.1137893E+00
          1   -1    0    0  502    0  0.00000000000E+00  0.00000000000E+00  0.17589962766E+03  0.17589962766E+03  0.00000000000E+00 0.  1.
         -1   -1    0    0    0  501 -0.00000000000E+00 -0.00000000000E+00 -0.31263236758E+03  0.31263236758E+03  0.00000000000E+00 0. -1.
          6    1    1    2  502    0 -0.26245751463E+02  0.12580040554E+03 -0.16659677299E+03  0.27175920642E+03  0.17200000000E+03 0. -1.
         -6    1    1    2    0  501  0.26245751463E+02 -0.12580040554E+03  0.29864033058E+02  0.21677278882E+03  0.17200000000E+03 0. -1.
</event>
<event>
 4    1  0.4363334E-001  0.1769853E+03  0.7818608E-02  0.1170753E+00
         -2   -1    0    0    0  501 -0.00000000000E+00  0.00000000000E+00  0.33249635383E+02  0.33249635383E+02  0.00000000000E+00 0.  1.
          2   -1    0    0  502    0  0.00000000000E+00 -0.00000000000E+00 -0.95201276373E+03  0.95201276373E+03  0.00000000000E+00 0. -1.
          6    1    1    2  502    0 -0.24824130356E+02  0.33519438355E+02 -0.40906014558E+03  0.44570617328E+03  0.17200000000E+03 0.  1.
         -6    1    1    2    0  501  0.24824130356E+02 -0.33519438355E+02 -0.50970298276E+03  0.53955622583E+03  0.17200000000E+03 0.  1.
</event>
<event>
 4    1  0.4363334E-001  0.1783383E+03  0.7818608E-02  0.1169421E+00
          1   -1    0    0  502    0  0.00000000000E+00  0.00000000000E+00  0.32180337508E+03  0.32180337508E+03  0.00000000000E+00 0. -1.
         -1   -1    0    0    0  501 -0.00000000000E+00 -0.00000000000E+00 -0.12160207944E+03  0.12160207944E+03  0.00000000000E+00 0.  1.
          6    1    1    2  502    0  0.47106898327E+02 -0.12147964791E+01  0.19603649128E+03  0.26501856824E+03  0.17200000000E+03 0. -1.
         -6    1    1    2    0  501 -0.47106898327E+02  0.12147964791E+01  0.41648043573E+01  0.17838688628E+03  0.17200000000E+03 0.  1.
</event>
<event>
 4    1  0.4363334E-001  0.1938866E+03  0.7818608E-02  0.1155002E+00
         -2   -1    0    0    0  501 -0.00000000000E+00  0.00000000000E+00  0.24296571167E+02  0.24296571167E+02  0.00000000000E+00 0. -1.
          2   -1    0    0  502    0  0.00000000000E+00 -0.00000000000E+00 -0.24152207124E+04  0.24152207124E+04  0.00000000000E+00 0.  1.
          6    1    1    2  502    0 -0.12033282902E+02  0.88674795704E+02 -0.46422738476E+03  0.50308953880E+03  0.17200000000E+03 0. -1.
         -6    1    1    2    0  501  0.12033282902E+02 -0.88674795704E+02 -0.19266967565E+04  0.19364277448E+04  0.17200000000E+03 0.  1.
</event>
<event>
 4    1  0.4363334E-001  0.1868770E+03  0.7818608E-02  0.1161309E+00
          2   -1    0    0  502    0  0.00000000000E+00  0.00000000000E+00  0.12442199346E+04  0.12442199346E+04  0.00000000000E+00 0.  1.
         -2   -1    0    0    0  501 -0.00000000000E+00 -0.00000000000E+00 -0.75208359045E+02  0.75208359045E+02  0.00000000000E+00 0. -1.
          6    1    1    2  502    0 -0.43764869591E+02 -0.58512042537E+02  0.62207948517E+02  0.19695901043E+03  0.17200000000E+03 0. -1.
         -6    1    1    2    0  501  0.43764869591E+02  0.58512042537E+02  0.11068036271E+04  0.11224692832E+04  0.17200000000E+03 0.  1.
</event>
<event>
 4    1  0.4363334E-001  0.1891529E+03  0.7818608E-02  0.1159228E+00
          1   -1    0    0  502    0  0.00000000000E+00  0.00000000000E+00  0.18758848613E+03  0.18758848613E+03  0.00000000000E+00 0.  1.
         -1   -1    0    0    0  501 -0.00000000000E+00 -0.00000000000E+00 -0.23145251178E+03  0.23145251178E+03  0.00000000000E+00 0. -1.
          6    1    1    2  502    0 -0.15120049536E+02  0.77241258064E+02  0.65952164609E+02  0.20032103200E+03  0.17200000000E+03 0.  1.
         -6    1    1    2    0  501  0.15120049536E+02 -0.77241258064E+02 -0.10981619026E+03  0.21871996591E+03  0.17200000000E+03 0. -1.
</event>
<event>
 4    1  0.4363334E-001  0.2140028E+03  0.7818608E-02  0.1138435E+00
         -2   -1    0    0    0  501 -0.00000000000E+00  0.00000000000E+00  0.12881623273E+02  0.12881623273E+02  0.00000000000E+00 0. -1.
          2   -1    0    0  502    0  0.00000000000E+00 -0.00000000000E+00 -0.35780834761E+04  0.35780834761E+04  0.00000000000E+00 0.  1.
          6    1    1    2  502    0 -0.46651003477E+00  0.12733026784E+03 -0.16391272714E+04  0.16530382411E+04  0.17200000000E+03 0. -1.
         -6    1    1    2    0  501  0.46651003477E+00 -0.12733026784E+03 -0.19260745814E+04  0.19379268582E+04  0.17200000000E+03 0.  1.
</event>
<event>
 4    1  0.4363334E-001  0.1883600E+03  0.7818608E-02  0.1159949E+00
          2   -1    0    0  502    0  0.00000000000E+00  0.00000000000E+00  0.49219130779E+03  0.49219130779E+03  0.00000000000E+00 0. -1.
         -2   -1    0    0    0  501 -0.00000000000E+00 -0.00000000000E+00 -0.72566931987E+02  0.72566931987E+02  0.00000000000E+00 0.  1.
          6    1    1    2  502    0 -0.62821141585E+02  0.44147539932E+02  0.18679479557E+03  0.26527683043E+03  0.17200000000E+03 0.  1.
         -6    1    1    2    0  501  0.62821141585E+02 -0.44147539932E+02  0.23282958024E+03  0.29948140935E+03  0.17200000000E+03 0. -1.
</event>
<event>
 4    1  0.4363334E-001  0.3152804E+03  0.7818608E-02  0.1077842E+00
          1   -1    0    0  502    0  0.00000000000E+00  0.00000000000E+00  0.36549653618E+03  0.36549653618E+03  0.00000000000E+00 0. -1.
         -1   -1    0    0    0  501 -0.00000000000E+00 -0.00000000000E+00 -0.28068829126E+03  0.28068829126E+03  0.00000000000E+00 0.  1.
          6    1    1    2  502    0 -0.57914862066E+02  0.25780531869E+03  0.99367060573E+02  0.33056848961E+03  0.17200000000E+03 0. -1.
         -6    1    1    2    0  501  0.57914862066E+02 -0.25780531869E+03 -0.14558815658E+02  0.31561633783E+03  0.17200000000E+03 0.  1.
</event>
<event>
 4    1  0.4363334E-001  0.2040153E+03  0.7818608E-02  0.1146395E+00
         -2   -1    0    0    0  501 -0.00000000000E+00  0.00000000000E+00  0.74832518507E+03  0.74832518507E+03  0.00000000000E+00 0.  1.
          2   -1    0    0  502    0  0.00000000000E+00 -0.00000000000E+00 -0.65631686574E+02  0.65631686574E+02  0.00000000000E+00 0. -1.
          6    1    1    2  502    0 -0.68162014866E+02  0.85977849801E+02  0.50029528256E+03  0.54029401318E+03  0.17200000000E+03 0.  1.
         -6    1    1    2    0  501  0.68162014866E+02 -0.85977849801E+02  0.18239821594E+03  0.27366285847E+03  0.17200000000E+03 0.  1.
</event>
<event>
 4    1  0.4363334E-001  0.3014249E+03  0.7818608E-02  0.1084530E+00
          1   -1    0    0  502    0  0.00000000000E+00  0.00000000000E+00  0.36474350710E+04  0.36474350710E+04  0.00000000000E+00 0. -1.
         -1   -1    0    0    0  501 -0.00000000000E+00 -0.00000000000E+00 -0.25336163620E+02  0.25336163620E+02  0.00000000000E+00 0.  1.
          6    1    1    2  502    0 -0.22374309564E+03  0.10588671115E+03  0.20492654463E+04  0.20713150021E+04  0.17200000000E+03 0.  1.
         -6    1    1    2    0  501  0.22374309564E+03 -0.10588671115E+03  0.15728334610E+04  0.16014562325E+04  0.17200000000E+03 0. -1.
</event>
<event>
 4    1  0.4363334E-001  0.2077994E+03  0.7818608E-02  0.1143321E+00
         -1   -1    0    0    0  501 -0.00000000000E+00  0.00000000000E+00  0.49176810140E+02  0.49176810140E+02  0.00000000000E+00 0.  1.
          1   -1    0    0  502    0  0.00000000000E+00 -0.00000000000E+00 -0.88909285017E+03  0.88909285017E+03  0.00000000000E+00 0. -1.
          6    1    1    2  502    0 -0.77371402545E+02  0.87236676192E+02 -0.36771657739E+03  0.42236956909E+03  0.17200000000E+03 0.  1.
         -6    1    1    2    0  501  0.77371402545E+02 -0.87236676192E+02 -0.47219946264E+03  0.51590009122E+03  0.17200000000E+03 0. -1.
</event>
<event>
 4    1  0.4363334E-001  0.1819880E+03  0.7818608E-02  0.1165893E+00
          2   -1    0    0  502    0  0.00000000000E+00  0.00000000000E+00  0.27986590124E+04  0.27986590124E+04  0.00000000000E+00 0. -1.
         -2   -1    0    0    0  501 -0.00000000000E+00 -0.00000000000E+00 -0.13310308909E+02  0.13310308909E+02  0.00000000000E+00 0.  1.
          6    1    1    2  502    0  0.88769350174E+01  0.58794815854E+02  0.92444418654E+03  0.94218718117E+03  0.17200000000E+03 0.  1.
         -6    1    1    2    0  501 -0.88769350174E+01 -0.58794815854E+02  0.18609045170E+04  0.18697821401E+04  0.17200000000E+03 0. -1.
</event>
<event>
 4    1  0.4363334E-001  0.2164387E+03  0.7818608E-02  0.1136566E+00
         -1   -1    0    0    0  501 -0.00000000000E+00  0.00000000000E+00  0.68656217798E+02  0.68656217798E+02  0.00000000000E+00 0.  1.
          1   -1    0    0  502    0  0.00000000000E+00 -0.00000000000E+00 -0.10371413219E+04  0.10371413219E+04  0.00000000000E+00 0. -1.
          6    1    1    2  502    0  0.13011986345E+03 -0.18180305625E+02 -0.80763494465E+03  0.83613390447E+03  0.17200000000E+03 0. -1.
         -6    1    1    2    0  501 -0.13011986345E+03  0.18180305625E+02 -0.16085015947E+03  0.26966363525E+03  0.17200000000E+03 0.  1.
</event>
<event>
 4    1  0.4363334E-001  0.2022688E+03  0.7818608E-02  0.1147839E+00
          1   -1    0    0  502    0  0.00000000000E+00  0.00000000000E+00  0.40639486906E+03  0.40639486906E+03  0.00000000000E+00 0.  1.
         -1   -1    0    0    0  501 -0.00000000000E+00 -0.00000000000E+00 -0.11197314621E+03  0.11197314621E+03  0.00000000000E+00 0. -1.
          6    1    1    2  502    0 -0.85106408058E+01  0.10609533547E+03  0.22955057300E+03  0.30595116731E+03  0.17200000000E+03 0.  1.
         -6    1    1    2    0  501  0.85106408058E+01 -0.10609533547E+03  0.64871149851E+02  0.21241684796E+03  0.17200000000E+03 0. -1.
</event>
<event>
 4    1  0.4363334E-001  0.1780204E+03  0.7818608E-02  0.1169733E+00
          2   -1    0    0  502    0  0.00000000000E+00  0.00000000000E+00  0.37581544469E+03  0.37581544469E+03  0.00000000000E+00 0.  1.
         -2   -1    0    0    0  501 -0.00000000000E+00 -0.00000000000E+00 -0.85518246072E+02  0.85518246072E+02  0.00000000000E+00 0. -1.
          6    1    1    2  502    0 -0.31719885139E+02  0.33183114533E+02  0.17237649889E+03  0.24780017670E+03  0.17200000000E+03 0.  1.
         -6    1    1    2    0  501  0.31719885139E+02 -0.33183114533E+02  0.11792069973E+03  0.21353351406E+03  0.17200000000E+03 0.  1.
</event>
<event>
 4    1  0.4363334E-001  0.1802245E+03  0.7818608E-02  0.1167586E+00
          2   -1    0    0  502    0  0.00000000000E+00  0.00000000000E+00  0.18435084653E+04  0.18435084653E+04  0.00000000000E+00 0. -1.
         -2   -1    0    0    0  501 -0.00000000000E+00 -0.00000000000E+00 -0.20840303803E+02  0.20840303803E+02  0.00000000000E+00 0.  1.
          6    1    1    2  502    0 -0.41226651890E+02 -0.34600912537E+02  0.12778205129E+04  0.12904674049E+04  0.17200000000E+03 0. -1.
         -6    1    1    2    0  501  0.41226651890E+02  0.34600912537E+02  0.54484764859E+03  0.57388136417E+03  0.17200000000E+03 0.  1.
</event>
<event>
 4    1  0.4363334E-001  0.2282393E+03  0.7818608E-02  0.1127885E+00
          2   -1    0    0  502    0  0.00000000000E+00  0.00000000000E+00  0.10188804095E+04  0.10188804095E+04  0.00000000000E+00 0. -1.
         -2   -1    0    0    0  501 -0.00000000000E+00 -0.00000000000E+00 -0.51195606386E+02  0.51195606386E+02  0.00000000000E+00 0.  1.
          6    1    1    2  502    0 -0.36379863476E+02  0.14555302258E+03  0.46437960087E+03  0.51743752333E+03  0.17200000000E+03 0. -1.
         -6    1    1    2    0  501  0.36379863476E+02 -0.14555302258E+03  0.50330520229E+03  0.55263849260E+03  0.17200000000E+03 0.  1.
</event>
<event>
 4    1  0.4363334E-001  0.2151020E+03  0.7818608E-02  0.1137588E+00
         -1   -1    0    0    0  501 -0.00000000000E+00  0.00000000000E+00  0.74117873865E+03  0.74117873865E+03  0.00000000000E+00 0. -1.
          1   -1    0    0  502    0  0.00000000000E+00 -0.00000000000E+00 -0.78124953805E+02  0.78124953805E+02  0.00000000000E+00 0.  1.
          6    1    1    2  502    0  0.24656343459E+02 -0.12679489908E+03  0.51516140537E+03  0.55826530905E+03  0.17200000000E+03 0. -1.
         -6    1    1    2    0  501 -0.24656343459E+02  0.12679489908E+03  0.14789237947E+03  0.26103838341E+03  0.17200000000E+03 0.  1.
</event>
<event>
 4    1  0.4363334E-001  0.1887437E+03  0.7818608E-02  0.1159599E+00
          2   -1    0    0  502    0  0.00000000000E+00  0.00000000000E+00  0.19090108536E+04  0.19090108536E+04  0.00000000000E+00 0.  1.
         -2   -1    0    0    0  501 -0.00000000000E+00 -0.00000000000E+00 -0.19133224218E+02  0.19133224218E+02  0.00000000000E+00 0. -1.
          6    1    1    2  502    0 -0.24947166801E+02  0.73605854335E+02  0.79349278776E+03  0.81563164918E+03  0.17200000000E+03 0. -1.
         -6    1    1    2    0  501  0.24947166801E+02 -0.73605854335E+02  0.10963848416E+04  0.11125124286E+04  0.17200000000E+03 0.  1.
</event>
<event>
 4    1  0.4363334E-001  0.1893821E+03  0.7818608E-02  0.1159020E+00
          1   -1    0    0  502    0  0.00000000000E+00  0.00000000000E+00  0.79555965465E+03  0.79555965465E+03  0.00000000000E+00 0. -1.
         -1   -1    0    0    0  501 -0.00000000000E+00 -0.00000000000E+00 -0.52721611350E+02  0.52721611350E+02  0.00000000000E+00 0.  1.
          6    1    1    2  502    0  0.42240973465E+02 -0.67061814110E+02  0.53287169108E+03  0.56552438135E+03  0.17200000000E+03 0. -1.
         -6    1    1    2    0  501 -0.42240973465E+02  0.67061814110E+02  0.20996635223E+03  0.28275688465E+03  0.17200000000E+03 0.  1.
</event>
<event>
 4    1  0.4363334E-001  0.2743745E+03  0.7818608E-02  0.1098802E+00
          1   -1    0    0  502    0  0.00000000000E+00  0.00000000000E+00  0.65896834750E+02  0.65896834750E+02  0.00000000000E+00 0.  1.
         -1   -1    0    0    0  501 -0.00000000000E+00 -0.00000000000E+00 -0.11432462389E+04  0.11432462389E+04  0.00000000000E+00 0. -1.
          6    1    1    2  502    0  0.21324699903E+03  0.14936070616E+02 -0.52234837050E+03  0.59002473589E+03  0.17200000000E+03 0. -1.
         -6    1    1    2    0  501 -0.21324699903E+03 -0.14936070616E+02 -0.55500103367E+03  0.61911833778E+03  0.17200000000E+03 0.  1.
</event>
<event>
 4    1  0.4363334E-001  0.2065148E+03  0.7818608E-02  0.1144356E+00
         -2   -1    0    0    0  501 -0.00000000000E+00  0.00000000000E+00  0.14073826263E+03  0.14073826263E+03  0.00000000000E+00 0. -1.
          2   -1    0    0  502    0  0.00000000000E+00 -0.00000000000E+00 -0.55692342536E+03  0.55692342536E+03  0.00000000000E+00 0.  1.
          6    1    1    2  502    0 -0.10061139219E+03 -0.54237543557E+02 -0.44361927911E+03  0.48933263550E+03  0.17200000000E+03 0.  1.
         -6    1    1    2    0  501  0.10061139219E+03  0.54237543557E+02  0.27434116377E+02  0.20832905249E+03  0.17200000000E+03 0. -1.
</event>
<event>
 4    1  0.4363334E-001  0.1854979E+03  0.7818608E-02  0.1162586E+00
         -2   -1    0    0    0  501 -0.00000000000E+00  0.00000000000E+00  0.29042222068E+02  0.29042222068E+02  0.00000000000E+00 0.  1.
          2   -1    0    0  502    0  0.00000000000E+00 -0.00000000000E+00 -0.11880935728E+04  0.11880935728E+04  0.00000000000E+00 0. -1.
          6    1    1    2  502    0  0.64255383385E+02  0.26395236162E+02 -0.54752374347E+03  0.57809316935E+03  0.17200000000E+03 0. -1.
         -6    1    1    2    0  501 -0.64255383385E+02 -0.26395236162E+02 -0.61152760729E+03  0.63904262555E+03  0.17200000000E+03 0.  1.
</event>
<event>
 4    1  0.4363334E-001  0.2116313E+03  0.7818608E-02  0.1140281E+00
          2   -1    0    0  502    0  0.00000000000E+00  0.00000000000E+00  0.37048253434E+03  0.37048253434E+03  0.00000000000E+00 0.  1.
         -2   -1    0    0    0  501 -0.00000000000E+00 -0.00000000000E+00 -0.23507590296E+03  0.23507590296E+03  0.00000000000E+00 0. -1.
          6    1    1    2  502    0 -0.70822280743E+02  0.10093561310E+03  0.27872516860E+03  0.34996501690E+03  0.17200000000E+03 0.  1.
         -6    1    1    2    0  501  0.70822280743E+02 -0.10093561310E+03 -0.14331853722E+03  0.25559342040E+03  0.17200000000E+03 0. -1.
</event>
<event>
 4    1  0.4363334E-001  0.4070926E+03  0.7818608E-02  0.1041351E+00
          2   -1    0    0  502    0  0.00000000000E+00  0.00000000000E+00  0.30657052024E+04  0.30657052024E+04  0.00000000000E+00 0.  1.
         -2   -1    0    0    0  501 -0.00000000000E+00 -0.00000000000E+00 -0.55998872680E+02  0.55998872680E+02  0.00000000000E+00 0. -1.
          6    1    1    2  502    0 -0.69506896125E+02  0.36236607805E+03  0.12142330506E+04  0.12806585354E+04  0.17200000000E+03 0. -1.
         -6    1    1    2    0  501  0.69506896125E+02 -0.36236607805E+03  0.17954732792E+04  0.18410455397E+04  0.17200000000E+03 0.  1.
</event>
<event>
 4    1  0.4363334E-001  0.2404460E+03  0.7818608E-02  0.1119496E+00
          2   -1    0    0  502    0  0.00000000000E+00  0.00000000000E+00  0.25749235783E+03  0.25749235783E+03  0.00000000000E+00 0. -1.
         -2   -1    0    0    0  501 -0.00000000000E+00 -0.00000000000E+00 -0.28552989051E+03  0.28552989051E+03  0.00000000000E+00 0.  1.
          6    1    1    2  502    0 -0.16786254964E+03  0.72406090388E+01  0.11147820317E+03  0.26503141658E+03  0.17200000000E+03 0.  1.
         -6    1    1    2    0  501  0.16786254964E+03 -0.72406090388E+01 -0.13951573585E+03  0.27799083176E+03  0.17200000000E+03 0.  1.
</event>
<event>
 4    1  0.4363334E-001  0.2098284E+03  0.7818608E-02  0.1141702E+00
          1   -1    0    0  502    0  0.00000000000E+00  0.00000000000E+00  0.11086778239E+03  0.11086778239E+03  0.00000000000E+00 0. -1.
         -1   -1    0    0    0  501 -0.00000000000E+00 -0.00000000000E+00 -0.40414923747E+03  0.40414923747E+03  0.00000000000E+00 0.  1.
          6    1    1    2  502    0 -0.87364341401E+02  0.82531374473E+02 -0.11268326803E+03  0.23817110407E+03  0.17200000000E+03 0.  1.
         -6    1    1    2    0  501  0.87364341401E+02 -0.82531374473E+02 -0.18059818705E+03  0.27684591579E+03  0.17200000000E+03 0.  1.
</event>
<event>
 4    1  0.4363334E-001  0.2007053E+03  0.7818608E-02  0.1149145E+00
         -1   -1    0    0    0  501 -0.00000000000E+00  0.00000000000E+00  0.18525402279E+02  0.18525402279E+02  0.00000000000E+00 0.  1.
          1   -1    0    0  502    0  0.00000000000E+00 -0.00000000000E+00 -0.22165516186E+04  0.22165516186E+04  0.00000000000E+00 0. -1.
          6    1    1    2  502    0 -0.47873419813E+02 -0.91688288360E+02 -0.94499907845E+03  0.96607756667E+03  0.17200000000E+03 0.  1.
         -6    1    1    2    0  501  0.47873419813E+02  0.91688288360E+02 -0.12530271379E+04  0.12689994542E+04  0.17200000000E+03 0.  1.
</event>
<event>
 4    1  0.4363334E-001  0.3089448E+03  0.7818608E-02  0.1080853E+00
         -2   -1    0    0    0  501 -0.00000000000E+00  0.00000000000E+00  0.65635455167E+02  0.65635455167E+02  0.00000000000E+00 0.  1.
          2   -1    0    0  502    0  0.00000000000E+00 -0.00000000000E+00 -0.20561653253E+04  0.20561653253E+04  0.00000000000E+00 0. -1.
          6    1    1    2  502    0  0.16461353588E+03 -0.19688900608E+03 -0.15692919500E+04  0.15994136804E+04  0.17200000000E+03 0. -1.
         -6    1    1    2    0  501 -0.16461353588E+03  0.19688900608E+03 -0.42123792020E+03  0.52238710007E+03  0.17200000000E+03 0.  1.
</event>
<event>
 4    1  0.4363334E-001  0.1855464E+03  0.7818608E-02  0.1162541E+00
         -2   -1    0    0    0  501 -0.00000000000E+00  0.00000000000E+00  0.58152578338E+03  0.58152578338E+03  0.00000000000E+00 0. -1.
          2   -1    0    0  502    0  0.00000000000E+00 -0.00000000000E+00 -0.89960282944E+02  0.89960282944E+02  0.00000000000E+00 0.  1.
          6    1    1    2  502    0  0.40551346811E+02  0.56560197569E+02  0.49463488966E+02  0.19202631179E+03  0.17200000000E+03 0.  1.
         -6    1    1    2    0  501 -0.40551346811E+02 -0.56560197569E+02  0.44210201147E+03  0.47945975454E+03  0.17200000000E+03 0. -1.
</event>
<event>
 4    1  0.4363334E-001  0.1753976E+03  0.7818608E-02  0.1172333E+00
          2   -1    0    0  502    0  0.00000000000E+00  0.00000000000E+00  0.18429921032E+04  0.18429921032E+04  0.00000000000E+00 0.  1.
         -2   -1    0    0    0  501 -0.00000000000E+00 -0.00000000000E+00 -0.19366575798E+02  0.19366575798E+02  0.00000000000E+00 0. -1.
          6    1    1    2  502    0 -0.10780870466E+00  0.34355388779E+02  0.12578212708E+04  0.12699915958E+04  0.17200000000E+03 0.  1.
         -6    1    1    2    0  501  0.10780870466E+00 -0.34355388779E+02  0.56580425666E+03  0.59236708316E+03  0.17200000000E+03 0. -1.
</event>
<event>
 4    1  0.4363334E-001  0.1813482E+03  0.7818608E-02  0.1166505E+00
          2   -1    0    0  502    0  0.00000000000E+00  0.00000000000E+00  0.68370778176E+03  0.68370778176E+03  0.00000000000E+00 0.  1.
         -2   -1    0    0    0  501 -0.00000000000E+00 -0.00000000000E+00 -0.49672085978E+02  0.49672085978E+02  0.00000000000E+00 0. -1.
          6    1    1    2  502    0 -0.57385644638E+02  0.31692720546E+01  0.38222823672E+03  0.42306687585E+03  0.17200000000E+03 0. -1.
         -6    1    1    2    0  501  0.57385644638E+02 -0.31692720546E+01  0.25180745907E+03  0.31031299189E+03  0.17200000000E+03 0.  1.
</event>
<event>
 4    1  0.4363334E-001  0.1810552E+03  0.7818608E-02  0.1166786E+00
         -2   -1    0    0    0  501 -0.00000000000E+00  0.00000000000E+00  0.51768935267E+02  0.51768935267E+02  0.00000000000E+00 0.  1.
          2   -1    0    0  502    0  0.00000000000E+00 -0.00000000000E+00 -0.69182734243E+03  0.69182734243E+03  0.00000000000E+00 0. -1.
          6    1    1    2  502    0 -0.32269160124E+02 -0.46429372491E+02 -0.42824592559E+03  0.46494683364E+03  0.17200000000E+03 0. -1.
         -6    1    1    2    0  501  0.32269160124E+02  0.46429372491E+02 -0.21181248157E+03  0.27864944406E+03  0.17200000000E+03 0. -1.
</event>
<event>
 4    1  0.4363334E-001  0.2197984E+03  0.7818608E-02  0.1134033E+00
         -2   -1    0    0    0  501 -0.00000000000E+00  0.00000000000E+00  0.24247084511E+03  0.24247084511E+03  0.00000000000E+00 0.  1.
          2   -1    0    0  502    0  0.00000000000E+00 -0.00000000000E+00 -0.19943260455E+03  0.19943260455E+03  0.00000000000E+00 0. -1.
          6    1    1    2  502    0 -0.56395123504E+02 -0.12468737604E+03  0.28277352330E+02  0.22160992837E+03  0.17200000000E+03 0.  1.
         -6    1    1    2    0  501  0.56395123504E+02  0.12468737604E+03  0.14760888232E+02  0.22029352128E+03  0.17200000000E+03 0. -1.
</event>
<event>
 4    1  0.4363334E-001  0.2250563E+03  0.7818608E-02  0.1130169E+00
         -2   -1    0    0    0  501 -0.00000000000E+00  0.00000000000E+00  0.37329052706E+02  0.37329052706E+02  0.00000000000E+00 0. -1.
          2   -1    0    0  502    0  0.00000000000E+00 -0.00000000000E+00 -0.13973758159E+04  0.13973758159E+04  0.00000000000E+00 0.  1.
          6    1    1    2  502    0  0.14023694460E+03  0.37415608360E+02 -0.55787605593E+03  0.60156132036E+03  0.17200000000E+03 0.  1.
         -6    1    1    2    0  501 -0.14023694460E+03 -0.37415608360E+02 -0.80217070722E+03  0.83314354820E+03  0.17200000000E+03 0.  1.
</event>
<event>
 4    1  0.4363334E-001  0.1949666E+03  0.7818608E-02  0.1154057E+00
          1   -1    0    0  502    0  0.00000000000E+00  0.00000000000E+00  0.12027944694E+04  0.12027944694E+04  0.00000000000E+00 0.  1.
         -1   -1    0    0    0  501 -0.00000000000E+00 -0.00000000000E+00 -0.33200036499E+02  0.33200036499E+02  0.00000000000E+00 0. -1.
          6    1    1    2  502    0  0.63555781452E+02  0.66246885324E+02  0.44925756334E+03  0.48973905846E+03  0.17200000000E+03 0. -1.
         -6    1    1    2    0  501 -0.63555781452E+02 -0.66246885324E+02  0.72033686959E+03  0.74625544746E+03  0.17200000000E+03 0. -1.
</event>
<event>
 4    1  0.4363334E-001  0.2259754E+03  0.7818608E-02  0.1129505E+00
         -1   -1    0    0    0  501 -0.00000000000E+00  0.00000000000E+00  0.19706554194E+03  0.19706554194E+03  0.00000000000E+00 0.  1.
          1   -1    0    0  502    0  0.00000000000E+00 -0.00000000000E+00 -0.37862085870E+03  0.37862085870E+03  0.00000000000E+00 0. -1.
          6    1    1    2  502    0 -0.86296580939E+02  0.11846421340E+03  0.70928933983E+02  0.23684548426E+03  0.17200000000E+03 0.  1.
         -6    1    1    2    0  501  0.86296580939E+02 -0.11846421340E+03 -0.25248425074E+03  0.33884091637E+03  0.17200000000E+03 0. -1.
</event>
<event>
 4    1  0.4363334E-001  0.2403029E+03  0.7818608E-02  0.1119591E+00
          2   -1    0    0  502    0  0.00000000000E+00  0.00000000000E+00  0.81677370982E+02  0.81677370982E+02  0.00000000000E+00 0. -1.
         -2   -1    0    0    0  501 -0.00000000000E+00 -0.00000000000E+00 -0.73276991083E+03  0.73276991083E+03  0.00000000000E+00 0.  1.
          6    1    1    2  502    0  0.82243097604E+02  0.14627904757E+03 -0.40192076937E+03  0.46827960847E+03  0.17200000000E+03 0.  1.
         -6    1    1    2    0  501 -0.82243097604E+02 -0.14627904757E+03 -0.24917177048E+03  0.34616767334E+03  0.17200000000E+03 0. -1.
</event>
<event>
 4    1  0.4363334E-001  0.2051633E+03  0.7818608E-02  0.1145454E+00
          3   -1    0    0  502    0  0.00000000000E+00  0.00000000000E+00  0.10055362511E+04  0.10055362511E+04  0.00000000000E+00 0. -1.
         -3   -1    0    0    0  501 -0.00000000000E+00 -0.00000000000E+00 -0.81683836276E+02  0.81683836276E+02  0.00000000000E+00 0.  1.
          6    1    1    2  502    0 -0.85457526409E+02 -0.72145632191E+02  0.82358122005E+02  0.22107655082E+03  0.17200000000E+03 0.  1.
         -6    1    1    2    0  501  0.85457526409E+02  0.72145632191E+02  0.84149429285E+03  0.86614353658E+03  0.17200000000E+03 0. -1.
</event>
<event>
 4    1  0.4363334E-001  0.1778155E+03  0.7818608E-02  0.1169934E+00
         -2   -1    0    0    0  501 -0.00000000000E+00  0.00000000000E+00  0.91084357855E+02  0.91084357855E+02  0.00000000000E+00 0. -1.
          2   -1    0    0  502    0  0.00000000000E+00 -0.00000000000E+00 -0.35690619385E+03  0.35690619385E+03  0.00000000000E+00 0.  1.
          6    1    1    2  502    0  0.43078048400E+01  0.44897686895E+02 -0.95843986048E+02  0.20200106221E+03  0.17200000000E+03 0. -1.
         -6    1    1    2    0  501 -0.43078048400E+01 -0.44897686895E+02 -0.16997784995E+03  0.24598948950E+03  0.17200000000E+03 0. -1.
</event>
<event>
 4    1  0.4363334E-001  0.2560470E+03  0.7818608E-02  0.1109542E+00
         -2   -1    0    0    0  501 -0.00000000000E+00  0.00000000000E+00  0.15175147860E+03  0.15175147860E+03  0.00000000000E+00 0.  1.
          2   -1    0    0  502    0  0.00000000000E+00 -0.00000000000E+00 -0.45235409203E+03  0.45235409203E+03  0.00000000000E+00 0. -1.
          6    1    1    2  502    0  0.19373713117E+01 -0.18966374322E+03 -0.21433768502E+03  0.33391725340E+03  0.17200000000E+03 0. -1.
         -6    1    1    2    0  501 -0.19373713117E+01  0.18966374322E+03 -0.86264928409E+02  0.27018831724E+03  0.17200000000E+03 0. -1.
</event>
<event>
 4    1  0.4363334E-001  0.1763319E+03  0.7818608E-02  0.1171401E+00
          2   -1    0    0  502    0  0.00000000000E+00  0.00000000000E+00  0.20650849167E+03  0.20650849167E+03  0.00000000000E+00 0. -1.
         -2   -1    0    0    0  501 -0.00000000000E+00 -0.00000000000E+00 -0.17719647695E+03  0.17719647695E+03  0.00000000000E+00 0.  1.
          6    1    1    2  502    0 -0.37872778235E+02  0.86356409476E+01 -0.59720995497E+02  0.18617067151E+03  0.17200000000E+03 0.  1.
         -6    1    1    2    0  501  0.37872778235E+02 -0.86356409476E+01  0.89033010215E+02  0.19753429711E+03  0.17200000000E+03 0. -1.
</event>
<event>
 4    1  0.4363334E-001  0.1811605E+03  0.7818608E-02  0.1166685E+00
          3   -1    0    0  502    0  0.00000000000E+00  0.00000000000E+00  0.26827428169E+03  0.26827428169E+03  0.00000000000E+00 0. -1.
         -3   -1    0    0    0  501 -0.00000000000E+00 -0.00000000000E+00 -0.13336529602E+03  0.13336529602E+03  0.00000000000E+00 0.  1.
          6    1    1    2  502    0  0.38561980811E+02  0.41810269056E+02  0.96989020457E+01  0.18141993734E+03  0.17200000000E+03 0.  1.
         -6    1    1    2    0  501 -0.38561980811E+02 -0.41810269056E+02  0.12521008362E+03  0.22021964037E+03  0.17200000000E+03 0. -1.
</event>
<event>
 4    1  0.4363334E-001  0.1861834E+03  0.7818608E-02  0.1161949E+00
          1   -1    0    0  502    0  0.00000000000E+00  0.00000000000E+00  0.69765567782E+02  0.69765567782E+02  0.00000000000E+00 0.  1.
         -1   -1    0    0    0  501 -0.00000000000E+00 -0.00000000000E+00 -0.59132547031E+03  0.59132547031E+03  0.00000000000E+00 0. -1.
          6    1    1    2  502    0  0.71227269884E+02 -0.26353737345E+01 -0.12866972640E+03  0.22631873025E+03  0.17200000000E+03 0.  1.
         -6    1    1    2    0  501 -0.71227269884E+02  0.26353737345E+01 -0.39289017613E+03  0.43477230785E+03  0.17200000000E+03 0. -1.
</event>
<event>
 4    1  0.4363334E-001  0.2221486E+03  0.7818608E-02  0.1132291E+00
          1   -1    0    0  502    0  0.00000000000E+00  0.00000000000E+00  0.82347154688E+03  0.82347154688E+03  0.00000000000E+00 0. -1.
         -1   -1    0    0    0  501 -0.00000000000E+00 -0.00000000000E+00 -0.60803793933E+02  0.60803793933E+02  0.00000000000E+00 0.  1.
          6    1    1    2  502    0 -0.58518446367E+02 -0.12783427986E+03  0.43435991522E+03  0.48787144580E+03  0.17200000000E+03 0.  1.
         -6    1    1    2    0  501  0.58518446367E+02  0.12783427986E+03  0.32830783773E+03  0.39640389502E+03  0.17200000000E+03 0.  1.
</event>
<event>
 4    1  0.4363334E-001  0.2098830E+03  0.7818608E-02  0.1141659E+00
          2   -1    0    0  502    0  0.00000000000E+00  0.00000000000E+00  0.56803271104E+02  0.56803271104E+02  0.00000000000E+00 0.  1.
         -2   -1    0    0    0  501 -0.00000000000E+00 -0.00000000000E+00 -0.83232272334E+03  0.83232272334E+03  0.00000000000E+00 0. -1.
          6    1    1    2  502    0 -0.65366275481E+02  0.10096596278E+03 -0.50391864752E+03  0.54587991256E+03  0.17200000000E+03 0. -1.
         -6    1    1    2    0  501  0.65366275481E+02 -0.10096596278E+03 -0.27160080471E+03  0.34324608188E+03  0.17200000000E+03 0. -1.
</event>
<event>
 4    1  0.4363334E-001  0.3367748E+03  0.7818608E-02  0.1068178E+00
          2   -1    0    0  502    0  0.00000000000E+00  0.00000000000E+00  0.52151190257E+03  0.52151190257E+03  0.00000000000E+00 0.  1.
         -2   -1    0    0    0  501 -0.00000000000E+00 -0.00000000000E+00 -0.21957138580E+03  0.21957138580E+03  0.00000000000E+00 0. -1.
          6    1    1    2  502    0  0.16729132239E+03  0.23631937524E+03  0.18715287914E+03  0.38528357587E+03  0.17200000000E+03 0.  1.
         -6    1    1    2    0  501 -0.16729132239E+03 -0.23631937524E+03  0.11478763762E+03  0.35579971250E+03  0.17200000000E+03 0. -1.
</event>
<event>
 4    1  0.4363334E-001  0.1897570E+03  0.7818608E-02  0.1158681E+00
         -3   -1    0    0    0  501 -0.00000000000E+00  0.00000000000E+00  0.27298483965E+03  0.27298483965E+03  0.00000000000E+00 0. -1.
          3   -1    0    0  502    0  0.00000000000E+00 -0.00000000000E+00 -0.16889789950E+03  0.16889789950E+03  0.00000000000E+00 0.  1.
          6    1    1    2  502    0  0.71887866439E+02 -0.35437823146E+02 -0.51359224962E+02  0.19658452289E+03  0.17200000000E+03 0.  1.
         -6    1    1    2    0  501 -0.71887866439E+02  0.35437823146E+02  0.15544616512E+03  0.24529821626E+03  0.17200000000E+03 0. -1.
</event>
<event>
 4    1  0.4363334E-001  0.1874002E+03  0.7818608E-02  0.1160827E+00
          1   -1    0    0  502    0  0.00000000000E+00  0.00000000000E+00  0.72313837849E+03  0.72313837849E+03  0.00000000000E+00 0.  1.
         -1   -1    0    0    0  501 -0.00000000000E+00 -0.00000000000E+00 -0.78654493849E+02  0.78654493849E+02  0.00000000000E+00 0. -1.
          6    1    1    2  502    0 -0.66251525667E+02  0.33846309558E+02  0.74281935894E+02  0.20158532517E+03  0.17200000000E+03 0. -1.
         -6    1    1    2    0  501  0.66251525667E+02 -0.33846309558E+02  0.57020194875E+03  0.60020754717E+03  0.17200000000E+03 0.  1.
</event>
<event>
 4    1  0.4363334E-001  0.1759340E+03  0.7818608E-02  0.1171797E+00
          2   -1    0    0  502    0  0.00000000000E+00  0.00000000000E+00  0.65470251258E+03  0.65470251258E+03  0.00000000000E+00 0. -1.
         -2   -1    0    0    0  501 -0.00000000000E+00 -0.00000000000E+00 -0.47492150821E+02  0.47492150821E+02  0.00000000000E+00 0.  1.
          6    1    1    2  502    0  0.34142727876E+02  0.14248912641E+02  0.32720404923E+03  0.37150403390E+03  0.17200000000E+03 0. -1.
         -6    1    1    2    0  501 -0.34142727876E+02 -0.14248912641E+02  0.28000631254E+03  0.33069062950E+03  0.17200000000E+03 0.  1.
</event>
<event>
 4    1  0.4363334E-001  0.1892255E+03  0.7818608E-02  0.1159162E+00
         -2   -1    0    0    0  501 -0.00000000000E+00  0.00000000000E+00  0.55362883432E+02  0.55362883432E+02  0.00000000000E+00 0.  1.
          2   -1    0    0  502    0  0.00000000000E+00 -0.00000000000E+00 -0.73216128241E+03  0.73216128241E+03  0.00000000000E+00 0. -1.
          6    1    1    2  502    0 -0.38311700313E+02  0.68952842744E+02 -0.47288384517E+03  0.50933820976E+03  0.17200000000E+03 0. -1.
         -6    1    1    2    0  501  0.38311700313E+02 -0.68952842744E+02 -0.20391455381E+03  0.27818595608E+03  0.17200000000E+03 0.  1.
</event>
<event>
 4    1  0.4363334E-001  0.2086858E+03  0.7818608E-02  0.1142611E+00
          1   -1    0    0  502    0  0.00000000000E+00  0.00000000000E+00  0.51844653635E+02  0.51844653635E+02  0.00000000000E+00 0. -1.
         -1   -1    0    0    0  501 -0.00000000000E+00 -0.00000000000E+00 -0.88757435163E+03  0.88757435163E+03  0.00000000000E+00 0.  1.
          6    1    1    2  502    0  0.90271617841E+02 -0.76267905955E+02 -0.30912431677E+03  0.37297131483E+03  0.17200000000E+03 0. -1.
         -6    1    1    2    0  501 -0.90271617841E+02  0.76267905955E+02 -0.52660538122E+03  0.56644769044E+03  0.17200000000E+03 0. -1.
</event>
<event>
 4    1  0.4363334E-001  0.2022362E+03  0.7818608E-02  0.1147866E+00
          2   -1    0    0  502    0  0.00000000000E+00  0.00000000000E+00  0.10846635745E+04  0.10846635745E+04  0.00000000000E+00 0. -1.
         -2   -1    0    0    0  501 -0.00000000000E+00 -0.00000000000E+00 -0.38336850495E+02  0.38336850495E+02  0.00000000000E+00 0.  1.
          6    1    1    2  502    0 -0.34139547264E+02 -0.10074699378E+03  0.45119483169E+03  0.49444538787E+03  0.17200000000E+03 0. -1.
         -6    1    1    2    0  501  0.34139547264E+02  0.10074699378E+03  0.59513189235E+03  0.62855503715E+03  0.17200000000E+03 0.  1.
</event>
<event>
 4    1  0.4363334E-001  0.3113995E+03  0.7818608E-02  0.1079677E+00
         -1   -1    0    0    0  501 -0.00000000000E+00  0.00000000000E+00  0.48960607403E+02  0.48960607403E+02  0.00000000000E+00 0. -1.
          1   -1    0    0  502    0  0.00000000000E+00 -0.00000000000E+00 -0.20525485672E+04  0.20525485672E+04  0.00000000000E+00 0.  1.
          6    1    1    2  502    0 -0.25944784497E+03  0.85126165199E+01 -0.11985700455E+04  0.12383617415E+04  0.17200000000E+03 0. -1.
         -6    1    1    2    0  501  0.25944784497E+03 -0.85126165199E+01 -0.80501791434E+03  0.86314743312E+03  0.17200000000E+03 0. -1.
</event>
<event>
 4    1  0.4363334E-001  0.2037797E+03  0.7818608E-02  0.1146589E+00
          2   -1    0    0  502    0  0.00000000000E+00  0.00000000000E+00  0.15148306575E+04  0.15148306575E+04  0.00000000000E+00 0. -1.
         -2   -1    0    0    0  501 -0.00000000000E+00 -0.00000000000E+00 -0.32742700936E+02  0.32742700936E+02  0.00000000000E+00 0.  1.
          6    1    1    2  502    0 -0.23860008573E+02 -0.10664360995E+03  0.42885860765E+03  0.47481139930E+03  0.17200000000E+03 0.  1.
         -6    1    1    2    0  501  0.23860008573E+02  0.10664360995E+03  0.10532293490E+04  0.10727619592E+04  0.17200000000E+03 0.  1.
</event>
<event>
 4    1  0.4363334E-001  0.1758071E+03  0.7818608E-02  0.1171924E+00
          1   -1    0    0  502    0  0.00000000000E+00  0.00000000000E+00  0.10610006920E+03  0.10610006920E+03  0.00000000000E+00 0.  1.
         -1   -1    0    0    0  501 -0.00000000000E+00 -0.00000000000E+00 -0.49478955315E+03  0.49478955315E+03  0.00000000000E+00 0. -1.
          6    1    1    2  502    0 -0.36381153170E+02  0.74835684148E+00 -0.16750269634E+01  0.17581511328E+03  0.17200000000E+03 0.  1.
         -6    1    1    2    0  501  0.36381153170E+02 -0.74835684148E+00 -0.38701445698E+03  0.42507450906E+03  0.17200000000E+03 0. -1.
</event>
<event>
 4    1  0.4363334E-001  0.1946264E+03  0.7818608E-02  0.1154354E+00
         -2   -1    0    0    0  501 -0.00000000000E+00  0.00000000000E+00  0.61409367673E+02  0.61409367673E+02  0.00000000000E+00 0.  1.
          2   -1    0    0  502    0  0.00000000000E+00 -0.00000000000E+00 -0.14147899083E+04  0.14147899083E+04  0.00000000000E+00 0. -1.
          6    1    1    2  502    0  0.91203349525E+01 -0.90621542928E+02 -0.12237326368E+03  0.22990141412E+03  0.17200000000E+03 0.  1.
         -6    1    1    2    0  501 -0.91203349525E+01  0.90621542928E+02 -0.12310072769E+04  0.12462978618E+04  0.17200000000E+03 0. -1.
</event>
<event>
 4    1  0.4363334E-001  0.2085593E+03  0.7818608E-02  0.1142712E+00
          1   -1    0    0  502    0  0.00000000000E+00  0.00000000000E+00  0.14800721432E+04  0.14800721432E+04  0.00000000000E+00 0.  1.
         -1   -1    0    0    0  501 -0.00000000000E+00 -0.00000000000E+00 -0.61417795789E+02  0.61417795789E+02  0.00000000000E+00 0. -1.
          6    1    1    2  502    0  0.10543799232E+03  0.52875309503E+02  0.12659203577E+04  0.12829853158E+04  0.17200000000E+03 0.  1.
         -6    1    1    2    0  501 -0.10543799232E+03 -0.52875309503E+02  0.15273398969E+03  0.25850462315E+03  0.17200000000E+03 0. -1.
</event>
<event>
 4    1  0.4363334E-001  0.1854233E+03  0.7818608E-02  0.1162655E+00
          2   -1    0    0  502    0  0.00000000000E+00  0.00000000000E+00  0.88792609617E+02  0.88792609617E+02  0.00000000000E+00 0. -1.
         -2   -1    0    0    0  501 -0.00000000000E+00 -0.00000000000E+00 -0.39406112251E+03  0.39406112251E+03  0.00000000000E+00 0.  1.
          6    1    1    2  502    0  0.69040605326E+02 -0.55863027727E+01 -0.12081187354E+03  0.22130820308E+03  0.17200000000E+03 0. -1.
         -6    1    1    2    0  501 -0.69040605326E+02  0.55863027727E+01 -0.18445663935E+03  0.26154552905E+03  0.17200000000E+03 0.  1.
</event>
<event>
 4    1  0.4363334E-001  0.1974301E+03  0.7818608E-02  0.1151926E+00
          2   -1    0    0  502    0  0.00000000000E+00  0.00000000000E+00  0.31110677945E+04  0.31110677945E+04  0.00000000000E+00 0. -1.
         -2   -1    0    0    0  501 -0.00000000000E+00 -0.00000000000E+00 -0.12685551721E+02  0.12685551721E+02  0.00000000000E+00 0.  1.
          6    1    1    2  502    0  0.93519917085E+02  0.25468937520E+02  0.13756955834E+04  0.13897902647E+04  0.17200000000E+03 0. -1.
         -6    1    1    2    0  501 -0.93519917085E+02 -0.25468937520E+02  0.17226866593E+04  0.17339630815E+04  0.17200000000E+03 0. -1.
</event>
<event>
 4    1  0.4363334E-001  0.1733595E+03  0.7818608E-02  0.1174389E+00
         -1   -1    0    0    0  501 -0.00000000000E+00  0.00000000000E+00  0.53385901983E+02  0.53385901983E+02  0.00000000000E+00 0.  1.
          1   -1    0    0  502    0  0.00000000000E+00 -0.00000000000E+00 -0.58620074588E+03  0.58620074588E+03  0.00000000000E+00 0. -1.
          6    1    1    2  502    0  0.12859568363E+02 -0.17440178882E+02 -0.33009812714E+03  0.37285158157E+03  0.17200000000E+03 0. -1.
         -6    1    1    2    0  501 -0.12859568363E+02  0.17440178882E+02 -0.20271671675E+03  0.26673506629E+03  0.17200000000E+03 0.  1.
</event>
<event>
 4    1  0.4363334E-001  0.2931031E+03  0.7818608E-02  0.1088740E+00
          4   -1    0    0  502    0  0.00000000000E+00  0.00000000000E+00  0.23268008181E+03  0.23268008181E+03  0.00000000000E+00 0.  1.
         -4   -1    0    0    0  501 -0.00000000000E+00 -0.00000000000E+00 -0.36924777615E+03  0.36924777615E+03  0.00000000000E+00 0. -1.
          6    1    1    2  502    0 -0.50191243838E+02 -0.23196178925E+03 -0.65534437342E+02  0.30034013236E+03  0.17200000000E+03 0. -1.
         -6    1    1    2    0  501  0.50191243838E+02  0.23196178925E+03 -0.71033256999E+02  0.30158772560E+03  0.17200000000E+03 0.  1.
</event>
<event>
 4    1  0.4363334E-001  0.3466702E+03  0.7818608E-02  0.1063990E+00
         -2   -1    0    0    0  501 -0.00000000000E+00  0.00000000000E+00  0.17048860066E+03  0.17048860066E+03  0.00000000000E+00 0. -1.
          2   -1    0    0  502    0  0.00000000000E+00 -0.00000000000E+00 -0.72352296090E+03  0.72352296090E+03  0.00000000000E+00 0.  1.
          6    1    1    2  502    0  0.22562086312E+03  0.19922722549E+03 -0.20483411476E+03  0.40266273210E+03  0.17200000000E+03 0.  1.
         -6    1    1    2    0  501 -0.22562086312E+03 -0.19922722549E+03 -0.34820024549E+03  0.49134882946E+03  0.17200000000E+03 0.  1.
</event>
<event>
 4    1  0.4363334E-001  0.1986744E+03  0.7818608E-02  0.1150862E+00
         -1   -1    0    0    0  501 -0.00000000000E+00  0.00000000000E+00  0.26330141995E+03  0.26330141995E+03  0.00000000000E+00 0. -1.
          1   -1    0    0  502    0  0.00000000000E+00 -0.00000000000E+00 -0.39136285801E+03  0.39136285801E+03  0.00000000000E+00 0.  1.
          6    1    1    2  502    0  0.96310917097E+02 -0.24732872341E+02 -0.32113839811E+03  0.37762597695E+03  0.17200000000E+03 0.  1.
         -6    1    1    2    0  501 -0.96310917097E+02  0.24732872341E+02  0.19307696005E+03  0.27703830101E+03  0.17200000000E+03 0. -1.
</event>
<event>
 4    1  0.4363334E-001  0.1770056E+03  0.7818608E-02  0.1170733E+00
          1   -1    0    0  502    0  0.00000000000E+00  0.00000000000E+00  0.19980324187E+02  0.19980324187E+02  0.00000000000E+00 0.  1.
         -1   -1    0    0    0  501 -0.00000000000E+00 -0.00000000000E+00 -0.22194143217E+04  0.22194143217E+04  0.00000000000E+00 0. -1.
          6    1    1    2  502    0  0.41727023744E+02 -0.24145001930E+01 -0.17062851906E+04  0.17154416708E+04  0.17200000000E+03 0. -1.
         -6    1    1    2    0  501 -0.41727023744E+02  0.24145001930E+01 -0.49314880690E+03  0.52395297505E+03  0.17200000000E+03 0.  1.
</event>
<event>
 4    1  0.4363334E-001  0.1798034E+03  0.7818608E-02  0.1167993E+00
         -2   -1    0    0    0  501 -0.00000000000E+00  0.00000000000E+00  0.22069659876E+02  0.22069659876E+02  0.00000000000E+00 0.  1.
          2   -1    0    0  502    0  0.00000000000E+00 -0.00000000000E+00 -0.29098074597E+04  0.29098074597E+04  0.00000000000E+00 0. -1.
          6    1    1    2  502    0 -0.13277964810E+02  0.50684718729E+02 -0.41085124882E+03  0.44847295762E+03  0.17200000000E+03 0.  1.
         -6    1    1    2    0  501  0.13277964810E+02 -0.50684718729E+02 -0.24768865510E+04  0.24834041620E+04  0.17200000000E+03 0. -1.
</event>
<event>
 4    1  0.4363334E-001  0.2263511E+03  0.7818608E-02  0.1129235E+00
          1   -1    0    0  502    0  0.00000000000E+00  0.00000000000E+00  0.15827029509E+03  0.15827029509E+03  0.00000000000E+00 0.  1.
         -1   -1    0    0    0  501 -0.00000000000E+00 -0.00000000000E+00 -0.32477636942E+03  0.32477636942E+03  0.00000000000E+00 0. -1.
          6    1    1    2  502    0  0.14551300926E+03 -0.21835039773E+02 -0.69459836001E+02  0.23676881898E+03  0.17200000000E+03 0.  1.
         -6    1    1    2    0  501 -0.14551300926E+03  0.21835039773E+02 -0.97046238332E+02  0.24627784553E+03  0.17200000000E+03 0.  1.
</event>
<event>
 4    1  0.4363334E-001  0.2129333E+03  0.7818608E-02  0.1139264E+00
         -2   -1    0    0    0  501 -0.00000000000E+00  0.00000000000E+00  0.15312073402E+02  0.15312073402E+02  0.00000000000E+00 0. -1.
          2   -1    0    0  502    0  0.00000000000E+00 -0.00000000000E+00 -0.31294459902E+04  0.31294459902E+04  0.00000000000E+00 0.  1.
          6    1    1    2  502    0  0.10102893604E+03 -0.74496711844E+02 -0.19217560376E+04  0.19335167116E+04  0.17200000000E+03 0. -1.
         -6    1    1    2    0  501 -0.10102893604E+03  0.74496711844E+02 -0.11923778791E+04  0.12112413519E+04  0.17200000000E+03 0.  1.
</event>
<event>
 4    1  0.4363334E-001  0.2369053E+03  0.7818608E-02  0.1121872E+00
         -2   -1    0    0    0  501 -0.00000000000E+00  0.00000000000E+00  0.30795082382E+02  0.30795082382E+02  0.00000000000E+00 0.  1.
          2   -1    0    0  502    0  0.00000000000E+00 -0.00000000000E+00 -0.19088195800E+04  0.19088195800E+04  0.00000000000E+00 0. -1.
          6    1    1    2  502    0 -0.16178036446E+03  0.19163895535E+02 -0.11452410040E+04  0.11694875366E+04  0.17200000000E+03 0. -1.
         -6    1    1    2    0  501  0.16178036446E+03 -0.19163895535E+02 -0.73278349365E+03  0.77012712573E+03  0.17200000000E+03 0.  1.
</event>
<event>
 4    1  0.4363334E-001  0.1952558E+03  0.7818608E-02  0.1153805E+00
          1   -1    0    0  502    0  0.00000000000E+00  0.00000000000E+00  0.50290651020E+02  0.50290651020E+02  0.00000000000E+00 0. -1.
         -1   -1    0    0    0  501 -0.00000000000E+00 -0.00000000000E+00 -0.12193801962E+04  0.12193801962E+04  0.00000000000E+00 0.  1.
          6    1    1    2  502    0  0.90795339248E+02 -0.17234766939E+02 -0.19408276910E+03  0.27530519807E+03  0.17200000000E+03 0. -1.
         -6    1    1    2    0  501 -0.90795339248E+02  0.17234766939E+02 -0.97500677609E+03  0.99436564917E+03  0.17200000000E+03 0.  1.
</event>
<event>
 4    1  0.4363334E-001  0.1795882E+03  0.7818608E-02  0.1168202E+00
          2   -1    0    0  502    0  0.00000000000E+00  0.00000000000E+00  0.76195600228E+03  0.76195600228E+03  0.00000000000E+00 0. -1.
         -2   -1    0    0    0  501 -0.00000000000E+00 -0.00000000000E+00 -0.75091052331E+02  0.75091052331E+02  0.00000000000E+00 0.  1.
          6    1    1    2  502    0  0.40888821327E+02 -0.31559606279E+02  0.61988428080E+03  0.64537464007E+03  0.17200000000E+03 0. -1.
         -6    1    1    2    0  501 -0.40888821327E+02  0.31559606279E+02  0.66980669149E+02  0.19167241455E+03  0.17200000000E+03 0.  1.
</event>
<event>
 4    1  0.4363334E-001  0.3260797E+03  0.7818608E-02  0.1072885E+00
          2   -1    0    0  502    0  0.00000000000E+00  0.00000000000E+00  0.19120742858E+04  0.19120742858E+04  0.00000000000E+00 0. -1.
         -2   -1    0    0    0  501 -0.00000000000E+00 -0.00000000000E+00 -0.59300288806E+02  0.59300288806E+02  0.00000000000E+00 0.  1.
          6    1    1    2  502    0 -0.70944128859E+02 -0.26778886250E+03  0.11723207069E+04  0.12168252891E+04  0.17200000000E+03 0. -1.
         -6    1    1    2    0  501  0.70944128859E+02  0.26778886250E+03  0.68045329009E+03  0.75454928553E+03  0.17200000000E+03 0. -1.
</event>
<event>
 4    1  0.4363334E-001  0.2245503E+03  0.7818608E-02  0.1130535E+00
          1   -1    0    0  502    0  0.00000000000E+00  0.00000000000E+00  0.23819517080E+04  0.23819517080E+04  0.00000000000E+00 0.  1.
         -1   -1    0    0    0  501 -0.00000000000E+00 -0.00000000000E+00 -0.31712785177E+02  0.31712785177E+02  0.00000000000E+00 0. -1.
          6    1    1    2  502    0 -0.11972159021E+03 -0.80657132342E+02  0.18709990059E+04  0.18844256718E+04  0.17200000000E+03 0.  1.
         -6    1    1    2    0  501  0.11972159021E+03  0.80657132342E+02  0.47923991689E+03  0.52923882142E+03  0.17200000000E+03 0. -1.
</event>
<event>
 4    1  0.4363334E-001  0.1773572E+03  0.7818608E-02  0.1170386E+00
          2   -1    0    0  502    0  0.00000000000E+00  0.00000000000E+00  0.87724957458E+03  0.87724957458E+03  0.00000000000E+00 0.  1.
         -2   -1    0    0    0  501 -0.00000000000E+00 -0.00000000000E+00 -0.35981755866E+02  0.35981755866E+02  0.00000000000E+00 0. -1.
          6    1    1    2  502    0  0.41522708291E+02 -0.12142681342E+02  0.39375220926E+03  0.43185226908E+03  0.17200000000E+03 0.  1.
         -6    1    1    2    0  501 -0.41522708291E+02  0.12142681342E+02  0.44751560946E+03  0.48137906136E+03  0.17200000000E+03 0. -1.
</event>
<event>
 4    1  0.4363334E-001  0.1833036E+03  0.7818608E-02  0.1164644E+00
          1   -1    0    0  502    0  0.00000000000E+00  0.00000000000E+00  0.32761113579E+03  0.32761113579E+03  0.00000000000E+00 0.  1.
         -1   -1    0    0    0  501 -0.00000000000E+00 -0.00000000000E+00 -0.10273295370E+03  0.10273295370E+03  0.00000000000E+00 0. -1.
          6    1    1    2  502    0  0.39670718564E+02  0.49420958725E+02  0.10364154767E+03  0.21057485006E+03  0.17200000000E+03 0.  1.
         -6    1    1    2    0  501 -0.39670718564E+02 -0.49420958725E+02  0.12123663442E+03  0.21976923942E+03  0.17200000000E+03 0.  1.
</event>
<event>
 4    1  0.4363334E-001  0.1847087E+03  0.7818608E-02  0.1163322E+00
          1   -1    0    0  502    0  0.00000000000E+00  0.00000000000E+00  0.63281877169E+03  0.63281877169E+03  0.00000000000E+00 0.  1.
         -1   -1    0    0    0  501 -0.00000000000E+00 -0.00000000000E+00 -0.95907649458E+02  0.95907649458E+02  0.00000000000E+00 0. -1.
          6    1    1    2  502    0  0.66137920729E+02  0.12613014833E+02  0.50955911739E+03  0.54200351181E+03  0.17200000000E+03 0.  1.
         -6    1    1    2    0  501 -0.66137920729E+02 -0.12613014833E+02  0.27352004842E+02  0.18672290933E+03  0.17200000000E+03 0. -1.
</event>
<event>
 4    1  0.4363334E-001  0.1768867E+03  0.7818608E-02  0.1170851E+00
          2   -1    0    0  502    0  0.00000000000E+00  0.00000000000E+00  0.83262203442E+03  0.83262203442E+03  0.00000000000E+00 0. -1.
         -2   -1    0    0    0  501 -0.00000000000E+00 -0.00000000000E+00 -0.40935466967E+02  0.40935466967E+02  0.00000000000E+00 0.  1.
          6    1    1    2  502    0 -0.41029496814E+02  0.46363965340E+01  0.52091738645E+03  0.55013074745E+03  0.17200000000E+03 0.  1.
         -6    1    1    2    0  501  0.41029496814E+02 -0.46363965340E+01  0.27076918100E+03  0.32342675393E+03  0.17200000000E+03 0.  1.
</event>
<event>
 4    1  0.4363334E-001  0.2285982E+03  0.7818608E-02  0.1127630E+00
          1   -1    0    0  502    0  0.00000000000E+00  0.00000000000E+00  0.17829276894E+04  0.17829276894E+04  0.00000000000E+00 0. -1.
         -1   -1    0    0    0  501 -0.00000000000E+00 -0.00000000000E+00 -0.48568213797E+02  0.48568213797E+02  0.00000000000E+00 0.  1.
          6    1    1    2  502    0  0.14727469200E+03  0.31357934801E+02  0.29053176023E+03  0.36968345741E+03  0.17200000000E+03 0.  1.
         -6    1    1    2    0  501 -0.14727469200E+03 -0.31357934801E+02  0.14438277154E+04  0.14618124458E+04  0.17200000000E+03 0. -1.
</event>
<event>
 4    1  0.4363334E-001  0.1836537E+03  0.7818608E-02  0.1164313E+00
         -1   -1    0    0    0  501 -0.00000000000E+00  0.00000000000E+00  0.10947958540E+03  0.10947958540E+03  0.00000000000E+00 0. -1.
          1   -1    0    0  502    0  0.00000000000E+00 -0.00000000000E+00 -0.81220128263E+03  0.81220128263E+03  0.00000000000E+00 0.  1.
          6    1    1    2  502    0 -0.62841722655E+01  0.64071726956E+02  0.11705038854E+02  0.18402631592E+03  0.17200000000E+03 0. -1.
         -6    1    1    2    0  501  0.62841722655E+01 -0.64071726956E+02 -0.71442673608E+03  0.73765455211E+03  0.17200000000E+03 0.  1.
</event>
<event>
 4    1  0.4363334E-001  0.2001304E+03  0.7818608E-02  0.1149629E+00
          1   -1    0    0  502    0  0.00000000000E+00  0.00000000000E+00  0.72204683398E+02  0.72204683398E+02  0.00000000000E+00 0. -1.
         -1   -1    0    0    0  501 -0.00000000000E+00 -0.00000000000E+00 -0.86141453090E+03  0.86141453090E+03  0.00000000000E+00 0.  1.
          6    1    1    2  502    0 -0.87510221758E+02  0.53010556257E+02 -0.11605778205E+03  0.23134728605E+03  0.17200000000E+03 0. -1.
         -6    1    1    2    0  501  0.87510221758E+02 -0.53010556257E+02 -0.67315206545E+03  0.70227192825E+03  0.17200000000E+03 0.  1.
</event>
<event>
 4    1  0.4363334E-001  0.2778102E+03  0.7818608E-02  0.1096891E+00
         -1   -1    0    0    0  501 -0.00000000000E+00  0.00000000000E+00  0.30608161143E+03  0.30608161143E+03  0.00000000000E+00 0.  1.
          1   -1    0    0  502    0  0.00000000000E+00 -0.00000000000E+00 -0.25372380621E+03  0.25372380621E+03  0.00000000000E+00 0. -1.
          6    1    1    2  502    0  0.13432048673E+03  0.17190839256E+03  0.41345426924E+01  0.27784093116E+03  0.17200000000E+03 0. -1.
         -6    1    1    2    0  501 -0.13432048673E+03 -0.17190839256E+03  0.48223262528E+02  0.28196448648E+03  0.17200000000E+03 0.  1.
</event>
<event>
 4    1  0.4363334E-001  0.2516684E+03  0.7818608E-02  0.1112255E+00
         -4   -1    0    0    0  501 -0.00000000000E+00  0.00000000000E+00  0.22721474505E+03  0.22721474505E+03  0.00000000000E+00 0.  1.
          4   -1    0    0  502    0  0.00000000000E+00 -0.00000000000E+00 -0.28247377043E+03  0.28247377043E+03  0.00000000000E+00 0. -1.
          6    1    1    2  502    0  0.14016192081E+03  0.11877559868E+03 -0.56874199900E+02  0.25801488620E+03  0.17200000000E+03 0. -1.
         -6    1    1    2    0  501 -0.14016192081E+03 -0.11877559868E+03  0.16151745241E+01  0.25167362928E+03  0.17200000000E+03 0. -1.
</event>
<event>
 4    1  0.4363334E-001  0.2710395E+03  0.7818608E-02  0.1100686E+00
          1   -1    0    0  502    0  0.00000000000E+00  0.00000000000E+00  0.10095548575E+03  0.10095548575E+03  0.00000000000E+00 0. -1.
         -1   -1    0    0    0  501 -0.00000000000E+00 -0.00000000000E+00 -0.16360369570E+04  0.16360369570E+04  0.00000000000E+00 0.  1.
          6    1    1    2  502    0  0.16962653297E+03  0.12290337425E+03 -0.14146859649E+04  0.14404161827E+04  0.17200000000E+03 0.  1.
         -6    1    1    2    0  501 -0.16962653297E+03 -0.12290337425E+03 -0.12039550638E+03  0.29657626009E+03  0.17200000000E+03 0. -1.
</event>
<event>
 4    1  0.4363334E-001  0.3520747E+03  0.7818608E-02  0.1061767E+00
         -2   -1    0    0    0  501 -0.00000000000E+00  0.00000000000E+00  0.15989661392E+03  0.15989661392E+03  0.00000000000E+00 0.  1.
          2   -1    0    0  502    0  0.00000000000E+00 -0.00000000000E+00 -0.79837171868E+03  0.79837171868E+03  0.00000000000E+00 0. -1.
          6    1    1    2  502    0 -0.16331726883E+03  0.26019234965E+03 -0.40081236121E+03  0.53348583675E+03  0.17200000000E+03 0. -1.
         -6    1    1    2    0  501  0.16331726883E+03 -0.26019234965E+03 -0.23766274355E+03  0.42478249586E+03  0.17200000000E+03 0.  1.
</event>
<event>
 4    1  0.4363334E-001  0.1750306E+03  0.7818608E-02  0.1172701E+00
         -4   -1    0    0    0  501 -0.00000000000E+00  0.00000000000E+00  0.19510380379E+02  0.19510380379E+02  0.00000000000E+00 0.  1.
          4   -1    0    0  502    0  0.00000000000E+00 -0.00000000000E+00 -0.19328639676E+04  0.19328639676E+04  0.00000000000E+00 0. -1.
          6    1    1    2  502    0 -0.15791193763E+02 -0.28325996250E+02 -0.13795094841E+04  0.13905689989E+04  0.17200000000E+03 0. -1.
         -6    1    1    2    0  501  0.15791193763E+02  0.28325996250E+02 -0.53384410314E+03  0.56180534914E+03  0.17200000000E+03 0.  1.
</event>
<event>
 4    1  0.4363334E-001  0.2032955E+03  0.7818608E-02  0.1146988E+00
         -1   -1    0    0    0  501 -0.00000000000E+00  0.00000000000E+00  0.62515785645E+03  0.62515785645E+03  0.00000000000E+00 0. -1.
          1   -1    0    0  502    0  0.00000000000E+00 -0.00000000000E+00 -0.66755167103E+02  0.66755167103E+02  0.00000000000E+00 0.  1.
          6    1    1    2  502    0 -0.86121906390E+02  0.65788146536E+02  0.24518549424E+03  0.31850430071E+03  0.17200000000E+03 0.  1.
         -6    1    1    2    0  501  0.86121906390E+02 -0.65788146536E+02  0.31321719510E+03  0.37340872284E+03  0.17200000000E+03 0. -1.
</event>
