<event>
 4    1  0.4653733E+000  0.1896276E+03  0.7818608E-02  0.1158798E+00
         21   -1    0    0  501  502  0.00000000000E+00  0.00000000000E+00  0.66998758417E+03  0.66998758417E+03  0.00000000000E+00 0.  1.
         21   -1    0    0  502  503 -0.00000000000E+00 -0.00000000000E+00 -0.63393303909E+02  0.63393303909E+02  0.00000000000E+00 0.  1.
          6    1    1    2  501    0 -0.39734242315E+02  0.69251956555E+02  0.44690267104E+03  0.48546950562E+03  0.17200000000E+03 0.  1.
         -6    1    1    2    0  503  0.39734242315E+02 -0.69251956555E+02  0.15969160922E+03  0.24791138246E+03  0.17200000000E+03 0.  1.
</event>
<event>
 4    1  0.4653733E+000  0.2877555E+03  0.7818608E-02  0.1091527E+00
         21   -1    0    0  501  502  0.00000000000E+00  0.00000000000E+00  0.94407474841E+03  0.94407474841E+03  0.00000000000E+00 0. -1.
         21   -1    0    0  502  503 -0.00000000000E+00 -0.00000000000E+00 -0.96590722062E+02  0.96590722062E+02  0.00000000000E+00 0. -1.
          6    1    1    2  501    0  0.22994357478E+03 -0.18579707671E+02  0.26595271534E+03  0.39183427609E+03  0.17200000000E+03 0. -1.
         -6    1    1    2    0  503 -0.22994357478E+03  0.18579707671E+02  0.58153131101E+03  0.64883119438E+03  0.17200000000E+03 0. -1.
</event>
<event>
 4    1  0.4653733E+000  0.1746086E+03  0.7818608E-02  0.1173125E+00
         21   -1    0    0  501  502  0.00000000000E+00  0.00000000000E+00  0.27993232680E+02  0.27993232680E+02  0.00000000000E+00 0.  1.
         21   -1    0    0  502  503 -0.00000000000E+00 -0.00000000000E+00 -0.15180041736E+04  0.15180041736E+04  0.00000000000E+00 0.  1.
          6    1    1    2  501    0  0.77903739441E+01  0.29042700567E+02 -0.33413109335E+03  0.37700365506E+03  0.17200000000E+03 0.  1.
         -6    1    1    2    0  503 -0.77903739441E+01 -0.29042700567E+02 -0.11558798476E+04  0.11689937512E+04  0.17200000000E+03 0.  1.
</event>
<event>
 4    1  0.4653733E+000  0.1883966E+03  0.7818608E-02  0.1159915E+00
         21   -1    0    0  503  502  0.00000000000E+00  0.00000000000E+00  0.20638102830E+04  0.20638102830E+04  0.00000000000E+00 0. -1.
         21   -1    0    0  501  503 -0.00000000000E+00 -0.00000000000E+00 -0.19991022390E+02  0.19991022390E+02  0.00000000000E+00 0. -1.
          6    1    1    2  501    0 -0.75583734881E+02  0.14013585422E+02  0.14113588394E+04  0.14238774719E+04  0.17200000000E+03 0. -1.
         -6    1    1    2    0  502  0.75583734881E+02 -0.14013585422E+02  0.63246042123E+03  0.65992383347E+03  0.17200000000E+03 0. -1.
</event>
<event>
 4    1  0.4653733E+000  0.2060071E+03  0.7818608E-02  0.1144768E+00
         21   -1    0    0  503  502  0.00000000000E+00  0.00000000000E+00  0.62434398766E+03  0.62434398766E+03  0.00000000000E+00 0. -1.
         21   -1    0    0  501  503 -0.00000000000E+00 -0.00000000000E+00 -0.68561400372E+02  0.68561400372E+02  0.00000000000E+00 0. -1.
          6    1    1    2  501    0 -0.10261461039E+03 -0.48219963566E+02  0.30996952017E+03  0.37218278653E+03  0.17200000000E+03 0. -1.
         -6    1    1    2    0  502  0.10261461039E+03  0.48219963566E+02  0.24581306712E+03  0.32072260151E+03  0.17200000000E+03 0. -1.
</event>
<event>
 4    1  0.4653733E+000  0.2187808E+03  0.7818608E-02  0.1134795E+00
         21   -1    0    0  503  502  0.00000000000E+00  0.00000000000E+00  0.30836855152E+02  0.30836855152E+02  0.00000000000E+00 0. -1.
         21   -1    0    0  501  503 -0.00000000000E+00 -0.00000000000E+00 -0.16599883514E+04  0.16599883514E+04  0.00000000000E+00 0. -1.
          6    1    1    2  501    0  0.12196703611E+03 -0.58353159634E+02 -0.10300010540E+04  0.10529801614E+04  0.17200000000E+03 0. -1.
         -6    1    1    2    0  502 -0.12196703611E+03  0.58353159634E+02 -0.59915044231E+03  0.63784504518E+03  0.17200000000E+03 0. -1.
</event>
<event>
 4    1  0.4653733E+000  0.1882739E+03  0.7818608E-02  0.1160027E+00
         21   -1    0    0  501  502  0.00000000000E+00  0.00000000000E+00  0.36931393887E+02  0.36931393887E+02  0.00000000000E+00 0.  1.
         21   -1    0    0  502  503 -0.00000000000E+00 -0.00000000000E+00 -0.95997159471E+03  0.95997159471E+03  0.00000000000E+00 0.  1.
          6    1    1    2  501    0  0.58549155849E+02 -0.49346409646E+02 -0.46801386116E+03  0.50446411768E+03  0.17200000000E+03 0.  1.
         -6    1    1    2    0  503 -0.58549155849E+02  0.49346409646E+02 -0.45502633966E+03  0.49243887091E+03  0.17200000000E+03 0.  1.
</event>
<event>
 4    1  0.4653733E+000  0.1901111E+03  0.7818608E-02  0.1158361E+00
         21   -1    0    0  501  502  0.00000000000E+00  0.00000000000E+00  0.10618751231E+04  0.10618751231E+04  0.00000000000E+00 0.  1.
         21   -1    0    0  502  503 -0.00000000000E+00 -0.00000000000E+00 -0.10049060973E+03  0.10049060973E+03  0.00000000000E+00 0.  1.
          6    1    1    2  501    0 -0.28078655407E+02  0.75959452434E+02  0.95331192858E+03  0.97208326931E+03  0.17200000000E+03 0.  1.
         -6    1    1    2    0  503  0.28078655407E+02 -0.75959452434E+02  0.80725848048E+01  0.19028246354E+03  0.17200000000E+03 0.  1.
</event>
<event>
 4    1  0.4653733E+000  0.3195321E+03  0.7818608E-02  0.1075865E+00
         21   -1    0    0  503  502  0.00000000000E+00  0.00000000000E+00  0.23311854993E+03  0.23311854993E+03  0.00000000000E+00 0. -1.
         21   -1    0    0  501  503 -0.00000000000E+00 -0.00000000000E+00 -0.47311899686E+03  0.47311899686E+03  0.00000000000E+00 0.  1.
          6    1    1    2  501    0 -0.11962839977E+03 -0.24125886579E+03 -0.23763084531E+02  0.32041454171E+03  0.17200000000E+03 0. -1.
         -6    1    1    2    0  502  0.11962839977E+03  0.24125886579E+03 -0.21623736239E+03  0.38582300508E+03  0.17200000000E+03 0.  1.
</event>
<event>
 4    1  0.4653733E+000  0.1820558E+03  0.7818608E-02  0.1165828E+00
         21   -1    0    0  501  502  0.00000000000E+00  0.00000000000E+00  0.26954034762E+03  0.26954034762E+03  0.00000000000E+00 0. -1.
         21   -1    0    0  502  503 -0.00000000000E+00 -0.00000000000E+00 -0.12526724928E+03  0.12526724928E+03  0.00000000000E+00 0.  1.
          6    1    1    2  501    0 -0.91418577099E+00 -0.59661360871E+02  0.98892057127E+02  0.20718096602E+03  0.17200000000E+03 0. -1.
         -6    1    1    2    0  503  0.91418577099E+00  0.59661360871E+02  0.45381041212E+02  0.18762663089E+03  0.17200000000E+03 0. -1.
</event>
<event>
 4    1  0.4653733E+000  0.1725770E+03  0.7818608E-02  0.1175187E+00
         21   -1    0    0  503  502  0.00000000000E+00  0.00000000000E+00  0.50101369789E+02  0.50101369789E+02  0.00000000000E+00 0. -1.
         21   -1    0    0  501  503 -0.00000000000E+00 -0.00000000000E+00 -0.64868887898E+03  0.64868887898E+03  0.00000000000E+00 0. -1.
          6    1    1    2  501    0 -0.12320834662E+02  0.68568061014E+01 -0.40032348941E+03  0.43593774203E+03  0.17200000000E+03 0. -1.
         -6    1    1    2    0  502  0.12320834662E+02 -0.68568061014E+01 -0.19826401978E+03  0.26285250674E+03  0.17200000000E+03 0. -1.
</event>
<event>
 4    1  0.4653733E+000  0.2042469E+03  0.7818608E-02  0.1146205E+00
         21   -1    0    0  503  502  0.00000000000E+00  0.00000000000E+00  0.16725669972E+04  0.16725669972E+04  0.00000000000E+00 0.  1.
         21   -1    0    0  501  503 -0.00000000000E+00 -0.00000000000E+00 -0.25065118393E+02  0.25065118393E+02  0.00000000000E+00 0.  1.
          6    1    1    2  501    0 -0.34484609497E+02  0.10461163451E+03  0.88329581447E+03  0.90660260216E+03  0.17200000000E+03 0.  1.
         -6    1    1    2    0  502  0.34484609497E+02 -0.10461163451E+03  0.76420606430E+03  0.79102951340E+03  0.17200000000E+03 0.  1.
</event>
<event>
 4    1  0.4653733E+000  0.2281931E+03  0.7818608E-02  0.1127918E+00
         21   -1    0    0  501  502  0.00000000000E+00  0.00000000000E+00  0.49139824404E+03  0.49139824404E+03  0.00000000000E+00 0. -1.
         21   -1    0    0  502  503 -0.00000000000E+00 -0.00000000000E+00 -0.18625284108E+04  0.18625284108E+04  0.00000000000E+00 0. -1.
          6    1    1    2  501    0  0.14944030950E+03 -0.12477196225E+02  0.45742674225E+03  0.51118618042E+03  0.17200000000E+03 0. -1.
         -6    1    1    2    0  503 -0.14944030950E+03  0.12477196225E+02 -0.18285569090E+04  0.18427404744E+04  0.17200000000E+03 0. -1.
</event>
<event>
 4    1  0.4653733E+000  0.1739017E+03  0.7818608E-02  0.1173839E+00
         21   -1    0    0  503  502  0.00000000000E+00  0.00000000000E+00  0.27763459001E+03  0.27763459001E+03  0.00000000000E+00 0.  1.
         21   -1    0    0  501  503 -0.00000000000E+00 -0.00000000000E+00 -0.18183239446E+03  0.18183239446E+03  0.00000000000E+00 0.  1.
          6    1    1    2  501    0 -0.22833491211E+02 -0.11680653852E+02 -0.97567602362E+02  0.19940221420E+03  0.17200000000E+03 0.  1.
         -6    1    1    2    0  502  0.22833491211E+02  0.11680653852E+02  0.19336979791E+03  0.26006477028E+03  0.17200000000E+03 0.  1.
</event>
<event>
 4    1  0.4653733E+000  0.2810925E+03  0.7818608E-02  0.1095094E+00
         21   -1    0    0  501  502  0.00000000000E+00  0.00000000000E+00  0.15323235580E+03  0.15323235580E+03  0.00000000000E+00 0.  1.
         21   -1    0    0  502  503 -0.00000000000E+00 -0.00000000000E+00 -0.83548788365E+03  0.83548788365E+03  0.00000000000E+00 0. -1.
          6    1    1    2  501    0 -0.22051520869E+03 -0.28320703877E+02 -0.35252880230E+02  0.28329452006E+03  0.17200000000E+03 0.  1.
         -6    1    1    2    0  503  0.22051520869E+03  0.28320703877E+02 -0.64700264763E+03  0.70542571938E+03  0.17200000000E+03 0. -1.
</event>
<event>
 4    1  0.4653733E+000  0.1844994E+03  0.7818608E-02  0.1163518E+00
         21   -1    0    0  501  502  0.00000000000E+00  0.00000000000E+00  0.88495064606E+01  0.88495064606E+01  0.00000000000E+00 0.  1.
         21   -1    0    0  502  503 -0.00000000000E+00 -0.00000000000E+00 -0.38834639736E+04  0.38834639736E+04  0.00000000000E+00 0. -1.
          6    1    1    2  501    0 -0.66753594839E+02  0.39889241406E-01 -0.17475579123E+04  0.17572702413E+04  0.17200000000E+03 0. -1.
         -6    1    1    2    0  503  0.66753594839E+02 -0.39889241406E-01 -0.21270565548E+04  0.21350432388E+04  0.17200000000E+03 0.  1.
</event>
<event>
 4    1  0.4653733E+000  0.2501948E+03  0.7818608E-02  0.1113182E+00
         21   -1    0    0  501  502  0.00000000000E+00  0.00000000000E+00  0.56671990893E+03  0.56671990893E+03  0.00000000000E+00 0. -1.
         21   -1    0    0  502  503 -0.00000000000E+00 -0.00000000000E+00 -0.11045609386E+03  0.11045609386E+03  0.00000000000E+00 0. -1.
          6    1    1    2  501    0  0.17181946568E+03 -0.59089144712E+02  0.22750933136E+03  0.33816852554E+03  0.17200000000E+03 0. -1.
         -6    1    1    2    0  503 -0.17181946568E+03  0.59089144712E+02  0.22875448371E+03  0.33900747724E+03  0.17200000000E+03 0. -1.
</event>
<event>
 4    1  0.4653733E+000  0.1741987E+03  0.7818608E-02  0.1173539E+00
         21   -1    0    0  501  502  0.00000000000E+00  0.00000000000E+00  0.30480498136E+03  0.30480498136E+03  0.00000000000E+00 0.  1.
         21   -1    0    0  502  503 -0.00000000000E+00 -0.00000000000E+00 -0.49359751862E+03  0.49359751862E+03  0.00000000000E+00 0.  1.
          6    1    1    2  501    0 -0.27322655532E+02  0.38308232705E+01  0.26228173896E+03  0.31486014881E+03  0.17200000000E+03 0.  1.
         -6    1    1    2    0  503  0.27322655532E+02 -0.38308232705E+01 -0.45107427622E+03  0.48354235118E+03  0.17200000000E+03 0.  1.
</event>
<event>
 4    1  0.4653733E+000  0.2270398E+03  0.7818608E-02  0.1128741E+00
         21   -1    0    0  503  502  0.00000000000E+00  0.00000000000E+00  0.17897635036E+04  0.17897635036E+04  0.00000000000E+00 0. -1.
         21   -1    0    0  501  503 -0.00000000000E+00 -0.00000000000E+00 -0.32301818025E+02  0.32301818025E+02  0.00000000000E+00 0.  1.
          6    1    1    2  501    0 -0.14810319929E+03  0.53383272529E+01  0.57881281368E+03  0.62174860567E+03  0.17200000000E+03 0.  1.
         -6    1    1    2    0  502  0.14810319929E+03 -0.53383272529E+01  0.11786488719E+04  0.12003167160E+04  0.17200000000E+03 0. -1.
</event>
<event>
 4    1  0.4653733E+000  0.1923867E+03  0.7818608E-02  0.1156326E+00
         21   -1    0    0  503  502  0.00000000000E+00  0.00000000000E+00  0.31838179572E+03  0.31838179572E+03  0.00000000000E+00 0.  1.
         21   -1    0    0  501  503 -0.00000000000E+00 -0.00000000000E+00 -0.16274520216E+03  0.16274520216E+03  0.00000000000E+00 0.  1.
          6    1    1    2  501    0  0.48065328596E+02 -0.71542769799E+02 -0.50760262947E+02  0.19897047022E+03  0.17200000000E+03 0.  1.
         -6    1    1    2    0  502 -0.48065328596E+02  0.71542769799E+02  0.20639685651E+03  0.28215652766E+03  0.17200000000E+03 0.  1.
</event>
<event>
 4    1  0.4653733E+000  0.1947947E+03  0.7818608E-02  0.1154207E+00
         21   -1    0    0  503  502  0.00000000000E+00  0.00000000000E+00  0.55093179811E+03  0.55093179811E+03  0.00000000000E+00 0. -1.
         21   -1    0    0  501  503 -0.00000000000E+00 -0.00000000000E+00 -0.75202741053E+02  0.75202741053E+02  0.00000000000E+00 0.  1.
          6    1    1    2  501    0 -0.68146709919E+02 -0.60967135985E+02  0.14704610776E+03  0.24406458889E+03  0.17200000000E+03 0. -1.
         -6    1    1    2    0  502  0.68146709919E+02  0.60967135985E+02  0.32868294930E+03  0.38206995027E+03  0.17200000000E+03 0. -1.
</event>
<event>
 4    1  0.4653733E+000  0.1792489E+03  0.7818608E-02  0.1168532E+00
         21   -1    0    0  501  502  0.00000000000E+00  0.00000000000E+00  0.85095378500E+03  0.85095378500E+03  0.00000000000E+00 0.  1.
         21   -1    0    0  502  503 -0.00000000000E+00 -0.00000000000E+00 -0.58056179902E+02  0.58056179902E+02  0.00000000000E+00 0.  1.
          6    1    1    2  501    0  0.43400481863E+02  0.25740053425E+02  0.66519664800E+03  0.68892433016E+03  0.17200000000E+03 0.  1.
         -6    1    1    2    0  503 -0.43400481863E+02 -0.25740053425E+02  0.12770095710E+03  0.22008563474E+03  0.17200000000E+03 0.  1.
</event>
<event>
 4    1  0.4653733E+000  0.1979559E+03  0.7818608E-02  0.1151475E+00
         21   -1    0    0  503  502  0.00000000000E+00  0.00000000000E+00  0.64095886618E+02  0.64095886618E+02  0.00000000000E+00 0.  1.
         21   -1    0    0  501  503 -0.00000000000E+00 -0.00000000000E+00 -0.61644678688E+03  0.61644678688E+03  0.00000000000E+00 0.  1.
          6    1    1    2  501    0  0.69043626825E+02  0.69537950364E+02 -0.30704336661E+03  0.36532475679E+03  0.17200000000E+03 0.  1.
         -6    1    1    2    0  502 -0.69043626825E+02 -0.69537950364E+02 -0.24530753365E+03  0.31521791671E+03  0.17200000000E+03 0.  1.
</event>
<event>
 4    1  0.4653733E+000  0.2302486E+03  0.7818608E-02  0.1126465E+00
         21   -1    0    0  503  502  0.00000000000E+00  0.00000000000E+00  0.73291254978E+02  0.73291254978E+02  0.00000000000E+00 0. -1.
         21   -1    0    0  501  503 -0.00000000000E+00 -0.00000000000E+00 -0.12127402384E+04  0.12127402384E+04  0.00000000000E+00 0.  1.
          6    1    1    2  501    0 -0.13042385789E+03  0.80125007877E+02 -0.97820410740E+03  0.10049366524E+04  0.17200000000E+03 0. -1.
         -6    1    1    2    0  502  0.13042385789E+03 -0.80125007877E+02 -0.16124487606E+03  0.28109484102E+03  0.17200000000E+03 0. -1.
</event>
<event>
 4    1  0.4653733E+000  0.1884632E+03  0.7818608E-02  0.1159855E+00
         21   -1    0    0  501  502  0.00000000000E+00  0.00000000000E+00  0.69576303621E+03  0.69576303621E+03  0.00000000000E+00 0.  1.
         21   -1    0    0  502  503 -0.00000000000E+00 -0.00000000000E+00 -0.98253200136E+02  0.98253200136E+02  0.00000000000E+00 0.  1.
          6    1    1    2  501    0  0.29742745637E+02  0.71061675151E+02  0.57393298080E+03  0.60408398343E+03  0.17200000000E+03 0.  1.
         -6    1    1    2    0  503 -0.29742745637E+02 -0.71061675151E+02  0.23576855281E+02  0.18993225292E+03  0.17200000000E+03 0.  1.
</event>
<event>
 4    1  0.4653733E+000  0.3513248E+03  0.7818608E-02  0.1062073E+00
         21   -1    0    0  501  502  0.00000000000E+00  0.00000000000E+00  0.29126895294E+03  0.29126895294E+03  0.00000000000E+00 0. -1.
         21   -1    0    0  502  503 -0.00000000000E+00 -0.00000000000E+00 -0.59007054653E+03  0.59007054653E+03  0.00000000000E+00 0.  1.
          6    1    1    2  501    0 -0.30563448116E+03 -0.20801221489E+02  0.84545784707E+02  0.36135455802E+03  0.17200000000E+03 0.  1.
         -6    1    1    2    0  503  0.30563448116E+03  0.20801221489E+02 -0.38334737829E+03  0.51998494145E+03  0.17200000000E+03 0. -1.
</event>
<event>
 4    1  0.4653733E+000  0.2001208E+03  0.7818608E-02  0.1149637E+00
         21   -1    0    0  503  502  0.00000000000E+00  0.00000000000E+00  0.55135706560E+03  0.55135706560E+03  0.00000000000E+00 0. -1.
         21   -1    0    0  501  503 -0.00000000000E+00 -0.00000000000E+00 -0.78850291308E+02  0.78850291308E+02  0.00000000000E+00 0. -1.
          6    1    1    2  501    0  0.84181860871E+02  0.58118263950E+02  0.14779255563E+03  0.24877893360E+03  0.17200000000E+03 0. -1.
         -6    1    1    2    0  502 -0.84181860871E+02 -0.58118263950E+02  0.32471421866E+03  0.38142842331E+03  0.17200000000E+03 0. -1.
</event>
<event>
 4    1  0.4653733E+000  0.2087899E+03  0.7818608E-02  0.1142528E+00
         21   -1    0    0  501  502  0.00000000000E+00  0.00000000000E+00  0.31650113572E+02  0.31650113572E+02  0.00000000000E+00 0.  1.
         21   -1    0    0  502  503 -0.00000000000E+00 -0.00000000000E+00 -0.18315891801E+04  0.18315891801E+04  0.00000000000E+00 0. -1.
          6    1    1    2  501    0  0.64848072162E+01 -0.11818286247E+03 -0.43602342350E+03  0.48343527752E+03  0.17200000000E+03 0. -1.
         -6    1    1    2    0  503 -0.64848072162E+01  0.11818286247E+03 -0.13639156431E+04  0.13798040162E+04  0.17200000000E+03 0. -1.
</event>
<event>
 4    1  0.4653733E+000  0.1827909E+03  0.7818608E-02  0.1165129E+00
         21   -1    0    0  501  502  0.00000000000E+00  0.00000000000E+00  0.14832942921E+03  0.14832942921E+03  0.00000000000E+00 0.  1.
         21   -1    0    0  502  503 -0.00000000000E+00 -0.00000000000E+00 -0.32327614472E+03  0.32327614472E+03  0.00000000000E+00 0. -1.
          6    1    1    2  501    0  0.38809787444E+02 -0.48190239544E+02  0.42368202979E+02  0.18763678587E+03  0.17200000000E+03 0.  1.
         -6    1    1    2    0  503 -0.38809787444E+02  0.48190239544E+02 -0.21731491849E+03  0.28396878805E+03  0.17200000000E+03 0. -1.
</event>
<event>
 4    1  0.4653733E+000  0.1827003E+03  0.7818608E-02  0.1165215E+00
         21   -1    0    0  503  502  0.00000000000E+00  0.00000000000E+00  0.13079595140E+03  0.13079595140E+03  0.00000000000E+00 0.  1.
         21   -1    0    0  501  503 -0.00000000000E+00 -0.00000000000E+00 -0.29667079748E+03  0.29667079748E+03  0.00000000000E+00 0.  1.
          6    1    1    2  501    0 -0.51072567454E+02  0.34452704159E+02 -0.16284636131E+03  0.24474136014E+03  0.17200000000E+03 0.  1.
         -6    1    1    2    0  502  0.51072567454E+02 -0.34452704159E+02 -0.30284847629E+01  0.18272538874E+03  0.17200000000E+03 0.  1.
</event>
<event>
 4    1  0.4653733E+000  0.2642636E+03  0.7818608E-02  0.1104608E+00
         21   -1    0    0  501  502  0.00000000000E+00  0.00000000000E+00  0.18404417620E+03  0.18404417620E+03  0.00000000000E+00 0. -1.
         21   -1    0    0  502  503 -0.00000000000E+00 -0.00000000000E+00 -0.38139085603E+03  0.38139085603E+03  0.00000000000E+00 0.  1.
          6    1    1    2  501    0 -0.28913353221E+01 -0.20060632620E+03 -0.78496673903E+02  0.27567550806E+03  0.17200000000E+03 0.  1.
         -6    1    1    2    0  503  0.28913353221E+01  0.20060632620E+03 -0.11885000593E+03  0.28975952416E+03  0.17200000000E+03 0. -1.
</event>
<event>
 4    1  0.4653733E+000  0.1968659E+03  0.7818608E-02  0.1152411E+00
         21   -1    0    0  503  502  0.00000000000E+00  0.00000000000E+00  0.82648129314E+03  0.82648129314E+03  0.00000000000E+00 0. -1.
         21   -1    0    0  501  503 -0.00000000000E+00 -0.00000000000E+00 -0.91911916921E+02  0.91911916921E+02  0.00000000000E+00 0. -1.
          6    1    1    2  501    0 -0.52123966974E+02 -0.80344651891E+02  0.45910958644E+02  0.20214842850E+03  0.17200000000E+03 0. -1.
         -6    1    1    2    0  502  0.52123966974E+02  0.80344651891E+02  0.68865841758E+03  0.71624478157E+03  0.17200000000E+03 0. -1.
</event>
<event>
 4    1  0.4653733E+000  0.1933042E+03  0.7818608E-02  0.1155515E+00
         21   -1    0    0  503  502  0.00000000000E+00  0.00000000000E+00  0.36839674502E+03  0.36839674502E+03  0.00000000000E+00 0.  1.
         21   -1    0    0  501  503 -0.00000000000E+00 -0.00000000000E+00 -0.12808929386E+03  0.12808929386E+03  0.00000000000E+00 0. -1.
          6    1    1    2  501    0 -0.88139159833E+02  0.37402207018E+01  0.69020770700E+01  0.19342734919E+03  0.17200000000E+03 0. -1.
         -6    1    1    2    0  502  0.88139159833E+02 -0.37402207018E+01  0.23340537409E+03  0.30305868970E+03  0.17200000000E+03 0.  1.
</event>
<event>
 4    1  0.4653733E+000  0.2308297E+03  0.7818608E-02  0.1126057E+00
         21   -1    0    0  503  502  0.00000000000E+00  0.00000000000E+00  0.16245611893E+03  0.16245611893E+03  0.00000000000E+00 0. -1.
         21   -1    0    0  501  503 -0.00000000000E+00 -0.00000000000E+00 -0.33089184704E+03  0.33089184704E+03  0.00000000000E+00 0. -1.
          6    1    1    2  501    0  0.13708342429E+03  0.70046396564E+02 -0.10735780766E+03  0.25457427551E+03  0.17200000000E+03 0. -1.
         -6    1    1    2    0  502 -0.13708342429E+03 -0.70046396564E+02 -0.61077920449E+02  0.23877369046E+03  0.17200000000E+03 0. -1.
</event>
<event>
 4    1  0.4653733E+000  0.2322824E+03  0.7818608E-02  0.1125044E+00
         21   -1    0    0  503  502  0.00000000000E+00  0.00000000000E+00  0.29943753456E+03  0.29943753456E+03  0.00000000000E+00 0.  1.
         21   -1    0    0  501  503 -0.00000000000E+00 -0.00000000000E+00 -0.26869040246E+03  0.26869040246E+03  0.00000000000E+00 0.  1.
          6    1    1    2  501    0  0.37775275414E+02  0.15147320286E+03 -0.14765630158E+03  0.27524077826E+03  0.17200000000E+03 0.  1.
         -6    1    1    2    0  502 -0.37775275414E+02 -0.15147320286E+03  0.17840343368E+03  0.29288715876E+03  0.17200000000E+03 0.  1.
</event>
<event>
 4    1  0.4653733E+000  0.2180069E+03  0.7818608E-02  0.1135378E+00
         21   -1    0    0  503  502  0.00000000000E+00  0.00000000000E+00  0.15331116784E+04  0.15331116784E+04  0.00000000000E+00 0.  1.
         21   -1    0    0  501  503 -0.00000000000E+00 -0.00000000000E+00 -0.32456104446E+02  0.32456104446E+02  0.00000000000E+00 0.  1.
          6    1    1    2  501    0  0.13391008132E+03  0.33294425521E+01  0.58454551312E+03  0.62387534971E+03  0.17200000000E+03 0.  1.
         -6    1    1    2    0  502 -0.13391008132E+03 -0.33294425521E+01  0.91611006082E+03  0.94169243312E+03  0.17200000000E+03 0.  1.
</event>
<event>
 4    1  0.4653733E+000  0.2158633E+03  0.7818608E-02  0.1137005E+00
         21   -1    0    0  503  502  0.00000000000E+00  0.00000000000E+00  0.20714925240E+04  0.20714925240E+04  0.00000000000E+00 0.  1.
         21   -1    0    0  501  503 -0.00000000000E+00 -0.00000000000E+00 -0.23437755154E+02  0.23437755154E+02  0.00000000000E+00 0. -1.
          6    1    1    2  501    0 -0.72312955352E+01  0.13023322867E+03  0.12341722263E+04  0.12529078457E+04  0.17200000000E+03 0.  1.
         -6    1    1    2    0  502  0.72312955352E+01 -0.13023322867E+03  0.81388254255E+03  0.84202243352E+03  0.17200000000E+03 0. -1.
</event>
<event>
 4    1  0.4653733E+000  0.1831296E+03  0.7818608E-02  0.1164808E+00
         21   -1    0    0  501  502  0.00000000000E+00  0.00000000000E+00  0.81048856049E+03  0.81048856049E+03  0.00000000000E+00 0. -1.
         21   -1    0    0  502  503 -0.00000000000E+00 -0.00000000000E+00 -0.48078609952E+02  0.48078609952E+02  0.00000000000E+00 0. -1.
          6    1    1    2  501    0  0.34128807488E+02 -0.52798421740E+02  0.54146432400E+03  0.57159431680E+03  0.17200000000E+03 0.  1.
         -6    1    1    2    0  503 -0.34128807488E+02  0.52798421740E+02  0.22094562654E+03  0.28697285364E+03  0.17200000000E+03 0.  1.
</event>
<event>
 4    1  0.4653733E+000  0.2118061E+03  0.7818608E-02  0.1140144E+00
         21   -1    0    0  503  502  0.00000000000E+00  0.00000000000E+00  0.41580527466E+02  0.41580527466E+02  0.00000000000E+00 0. -1.
         21   -1    0    0  501  503 -0.00000000000E+00 -0.00000000000E+00 -0.16145479844E+04  0.16145479844E+04  0.00000000000E+00 0.  1.
          6    1    1    2  501    0 -0.68271098360E+02 -0.10303817550E+03 -0.12634335252E+04  0.12810644329E+04  0.17200000000E+03 0.  1.
         -6    1    1    2    0  502  0.68271098360E+02  0.10303817550E+03 -0.30953393171E+03  0.37506407901E+03  0.17200000000E+03 0. -1.
</event>
<event>
 4    1  0.4653733E+000  0.1732869E+03  0.7818608E-02  0.1174463E+00
         21   -1    0    0  503  502  0.00000000000E+00  0.00000000000E+00  0.77565993428E+03  0.77565993428E+03  0.00000000000E+00 0.  1.
         21   -1    0    0  501  503 -0.00000000000E+00 -0.00000000000E+00 -0.61778968961E+02  0.61778968961E+02  0.00000000000E+00 0.  1.
          6    1    1    2  501    0  0.20225768599E+02 -0.59375772477E+01  0.10109010118E+03  0.20061790821E+03  0.17200000000E+03 0.  1.
         -6    1    1    2    0  502 -0.20225768599E+02  0.59375772477E+01  0.61279086414E+03  0.63682099503E+03  0.17200000000E+03 0.  1.
</event>
<event>
 4    1  0.4653733E+000  0.3716398E+03  0.7818608E-02  0.1054068E+00
         21   -1    0    0  501  502  0.00000000000E+00  0.00000000000E+00  0.53285376815E+03  0.53285376815E+03  0.00000000000E+00 0. -1.
         21   -1    0    0  502  503 -0.00000000000E+00 -0.00000000000E+00 -0.39469526136E+03  0.39469526136E+03  0.00000000000E+00 0.  1.
          6    1    1    2  501    0 -0.13684953437E+03 -0.29967367903E+03  0.34080872051E+03  0.50424864198E+03  0.17200000000E+03 0. -1.
         -6    1    1    2    0  503  0.13684953437E+03  0.29967367903E+03 -0.20265021371E+03  0.42330038753E+03  0.17200000000E+03 0.  1.
</event>
<event>
 4    1  0.4653733E+000  0.2874831E+03  0.7818608E-02  0.1091671E+00
         21   -1    0    0  501  502  0.00000000000E+00  0.00000000000E+00  0.23434863563E+03  0.23434863563E+03  0.00000000000E+00 0.  1.
         21   -1    0    0  502  503 -0.00000000000E+00 -0.00000000000E+00 -0.65255024276E+03  0.65255024276E+03  0.00000000000E+00 0. -1.
          6    1    1    2  501    0 -0.17604486902E+03 -0.14856220396E+03  0.91517067364E+02  0.30169835593E+03  0.17200000000E+03 0.  1.
         -6    1    1    2    0  503  0.17604486902E+03  0.14856220396E+03 -0.50971867449E+03  0.58520052245E+03  0.17200000000E+03 0. -1.
</event>
<event>
 4    1  0.4653733E+000  0.2586141E+03  0.7818608E-02  0.1107979E+00
         21   -1    0    0  503  502  0.00000000000E+00  0.00000000000E+00  0.15873751094E+03  0.15873751094E+03  0.00000000000E+00 0.  1.
         21   -1    0    0  501  503 -0.00000000000E+00 -0.00000000000E+00 -0.77304401540E+03  0.77304401540E+03  0.00000000000E+00 0. -1.
          6    1    1    2  501    0 -0.71908663227E+02 -0.17923844114E+03 -0.62140324321E+03  0.67307003002E+03  0.17200000000E+03 0. -1.
         -6    1    1    2    0  502  0.71908663227E+02  0.17923844114E+03  0.70967387458E+01  0.25871149633E+03  0.17200000000E+03 0.  1.
</event>
<event>
 4    1  0.4653733E+000  0.2020734E+03  0.7818608E-02  0.1148001E+00
         21   -1    0    0  501  502  0.00000000000E+00  0.00000000000E+00  0.72595549882E+02  0.72595549882E+02  0.00000000000E+00 0. -1.
         21   -1    0    0  502  503 -0.00000000000E+00 -0.00000000000E+00 -0.71044128385E+03  0.71044128385E+03  0.00000000000E+00 0. -1.
          6    1    1    2  501    0 -0.10521241862E+03 -0.13417119481E+02 -0.14024960177E+03  0.24597484205E+03  0.17200000000E+03 0.  1.
         -6    1    1    2    0  503  0.10521241862E+03  0.13417119481E+02 -0.49759613220E+03  0.53706199168E+03  0.17200000000E+03 0.  1.
</event>
<event>
 4    1  0.4653733E+000  0.1768769E+03  0.7818608E-02  0.1170860E+00
         21   -1    0    0  503  502  0.00000000000E+00  0.00000000000E+00  0.16115347109E+02  0.16115347109E+02  0.00000000000E+00 0. -1.
         21   -1    0    0  501  503 -0.00000000000E+00 -0.00000000000E+00 -0.23467602743E+04  0.23467602743E+04  0.00000000000E+00 0. -1.
          6    1    1    2  501    0 -0.41059770636E+02  0.39419526111E+01 -0.16563735930E+04  0.16657907802E+04  0.17200000000E+03 0. -1.
         -6    1    1    2    0  502  0.41059770636E+02 -0.39419526111E+01 -0.67427133421E+03  0.69708484124E+03  0.17200000000E+03 0. -1.
</event>
<event>
 4    1  0.4653733E+000  0.1981171E+03  0.7818608E-02  0.1151337E+00
         21   -1    0    0  501  502  0.00000000000E+00  0.00000000000E+00  0.17888064067E+03  0.17888064067E+03  0.00000000000E+00 0.  1.
         21   -1    0    0  502  503 -0.00000000000E+00 -0.00000000000E+00 -0.65610839066E+03  0.65610839066E+03  0.00000000000E+00 0.  1.
          6    1    1    2  501    0  0.95440544585E+02  0.23611245402E+02  0.10198851805E+03  0.22282739121E+03  0.17200000000E+03 0.  1.
         -6    1    1    2    0  503 -0.95440544585E+02 -0.23611245402E+02 -0.57921626804E+03  0.61216164011E+03  0.17200000000E+03 0.  1.
</event>
<event>
 4    1  0.4653733E+000  0.2348633E+03  0.7818608E-02  0.1123263E+00
         21   -1    0    0  503  502  0.00000000000E+00  0.00000000000E+00  0.12736615705E+03  0.12736615705E+03  0.00000000000E+00 0.  1.
         21   -1    0    0  501  503 -0.00000000000E+00 -0.00000000000E+00 -0.57907276321E+03  0.57907276321E+03  0.00000000000E+00 0. -1.
          6    1    1    2  501    0  0.13903569861E+03 -0.79030777186E+02 -0.40320339150E+03  0.46661950682E+03  0.17200000000E+03 0. -1.
         -6    1    1    2    0  502 -0.13903569861E+03  0.79030777186E+02 -0.48503214652E+02  0.23981941344E+03  0.17200000000E+03 0.  1.
</event>
<event>
 4    1  0.4653733E+000  0.1900624E+03  0.7818608E-02  0.1158405E+00
         21   -1    0    0  501  502  0.00000000000E+00  0.00000000000E+00  0.35790672005E+02  0.35790672005E+02  0.00000000000E+00 0.  1.
         21   -1    0    0  502  503 -0.00000000000E+00 -0.00000000000E+00 -0.15362483581E+04  0.15362483581E+04  0.00000000000E+00 0. -1.
          6    1    1    2  501    0 -0.79094767657E+02  0.16843908199E+02 -0.28988256703E+03  0.34663468116E+03  0.17200000000E+03 0.  1.
         -6    1    1    2    0  503  0.79094767657E+02 -0.16843908199E+02 -0.12105751190E+04  0.12254043489E+04  0.17200000000E+03 0. -1.
</event>
<event>
 4    1  0.4653733E+000  0.2107072E+03  0.7818608E-02  0.1141007E+00
         21   -1    0    0  501  502  0.00000000000E+00  0.00000000000E+00  0.62761966860E+02  0.62761966860E+02  0.00000000000E+00 0. -1.
         21   -1    0    0  502  503 -0.00000000000E+00 -0.00000000000E+00 -0.86274088576E+03  0.86274088576E+03  0.00000000000E+00 0.  1.
          6    1    1    2  501    0 -0.96438959582E+02 -0.74250036497E+02 -0.20362785200E+03  0.29302191549E+03  0.17200000000E+03 0. -1.
         -6    1    1    2    0  503  0.96438959582E+02  0.74250036497E+02 -0.59635106690E+03  0.63248093713E+03  0.17200000000E+03 0.  1.
</event>
<event>
 4    1  0.4653733E+000  0.2157240E+03  0.7818608E-02  0.1137112E+00
         21   -1    0    0  503  502  0.00000000000E+00  0.00000000000E+00  0.25287277294E+03  0.25287277294E+03  0.00000000000E+00 0.  1.
         21   -1    0    0  501  503 -0.00000000000E+00 -0.00000000000E+00 -0.30490370610E+03  0.30490370610E+03  0.00000000000E+00 0. -1.
          6    1    1    2  501    0 -0.11447436324E+03  0.62036159511E+02 -0.20160954933E+03  0.29526814137E+03  0.17200000000E+03 0. -1.
         -6    1    1    2    0  502  0.11447436324E+03 -0.62036159511E+02  0.14957861617E+03  0.26250833766E+03  0.17200000000E+03 0.  1.
</event>
<event>
 4    1  0.4653733E+000  0.1963168E+03  0.7818608E-02  0.1152884E+00
         21   -1    0    0  503  502  0.00000000000E+00  0.00000000000E+00  0.54873502944E+02  0.54873502944E+02  0.00000000000E+00 0. -1.
         21   -1    0    0  501  503 -0.00000000000E+00 -0.00000000000E+00 -0.19372551725E+04  0.19372551725E+04  0.00000000000E+00 0. -1.
          6    1    1    2  501    0 -0.38941835329E+02  0.86254421012E+02 -0.17364545065E+04  0.17475166794E+04  0.17200000000E+03 0. -1.
         -6    1    1    2    0  502  0.38941835329E+02 -0.86254421012E+02 -0.14592716305E+03  0.24461199602E+03  0.17200000000E+03 0. -1.
</event>
<event>
 4    1  0.4653733E+000  0.1754110E+03  0.7818608E-02  0.1172320E+00
         21   -1    0    0  503  502  0.00000000000E+00  0.00000000000E+00  0.27022797979E+03  0.27022797979E+03  0.00000000000E+00 0. -1.
         21   -1    0    0  501  503 -0.00000000000E+00 -0.00000000000E+00 -0.13370099748E+03  0.13370099748E+03  0.00000000000E+00 0. -1.
          6    1    1    2  501    0 -0.24726192704E+02  0.23950864304E+02 -0.95319546313E+01  0.17566982287E+03  0.17200000000E+03 0.  1.
         -6    1    1    2    0  502  0.24726192704E+02 -0.23950864304E+02  0.14605893694E+03  0.22825915440E+03  0.17200000000E+03 0.  1.
</event>
<event>
 4    1  0.4653733E+000  0.2459580E+03  0.7818608E-02  0.1115886E+00
         21   -1    0    0  501  502  0.00000000000E+00  0.00000000000E+00  0.17538161520E+04  0.17538161520E+04  0.00000000000E+00 0. -1.
         21   -1    0    0  502  503 -0.00000000000E+00 -0.00000000000E+00 -0.37983134169E+02  0.37983134169E+02  0.00000000000E+00 0.  1.
          6    1    1    2  501    0 -0.16440201148E+03 -0.62316239814E+02  0.11294673541E+04  0.11559376450E+04  0.17200000000E+03 0. -1.
         -6    1    1    2    0  503  0.16440201148E+03  0.62316239814E+02  0.58636566375E+03  0.63586164120E+03  0.17200000000E+03 0.  1.
</event>
<event>
 4    1  0.4653733E+000  0.3259990E+03  0.7818608E-02  0.1072921E+00
         21   -1    0    0  503  502  0.00000000000E+00  0.00000000000E+00  0.12615914085E+04  0.12615914085E+04  0.00000000000E+00 0.  1.
         21   -1    0    0  501  503 -0.00000000000E+00 -0.00000000000E+00 -0.85021362894E+02  0.85021362894E+02  0.00000000000E+00 0.  1.
          6    1    1    2  501    0 -0.23018329493E+03  0.15397085810E+03  0.52370262646E+03  0.61687909299E+03  0.17200000000E+03 0.  1.
         -6    1    1    2    0  502  0.23018329493E+03 -0.15397085810E+03  0.65286741913E+03  0.72973367839E+03  0.17200000000E+03 0.  1.
</event>
<event>
 4    1  0.4653733E+000  0.1982566E+03  0.7818608E-02  0.1151218E+00
         21   -1    0    0  503  502  0.00000000000E+00  0.00000000000E+00  0.88398458895E+02  0.88398458895E+02  0.00000000000E+00 0.  1.
         21   -1    0    0  501  503 -0.00000000000E+00 -0.00000000000E+00 -0.12593662345E+04  0.12593662345E+04  0.00000000000E+00 0.  1.
          6    1    1    2  501    0 -0.45928563499E+02  0.87248138435E+02 -0.11275014584E+04  0.11447992004E+04  0.17200000000E+03 0.  1.
         -6    1    1    2    0  502  0.45928563499E+02 -0.87248138435E+02 -0.43466317209E+02  0.20296549297E+03  0.17200000000E+03 0.  1.
</event>
<event>
 4    1  0.4653733E+000  0.1911945E+03  0.7818608E-02  0.1157388E+00
         21   -1    0    0  503  502  0.00000000000E+00  0.00000000000E+00  0.22392524412E+03  0.22392524412E+03  0.00000000000E+00 0.  1.
         21   -1    0    0  501  503 -0.00000000000E+00 -0.00000000000E+00 -0.19659091522E+03  0.19659091522E+03  0.00000000000E+00 0.  1.
          6    1    1    2  501    0 -0.12809928138E+02 -0.82505928418E+02 -0.72923985043E+02  0.20462949464E+03  0.17200000000E+03 0.  1.
         -6    1    1    2    0  502  0.12809928138E+02  0.82505928418E+02  0.10025831394E+03  0.21588666470E+03  0.17200000000E+03 0.  1.
</event>
<event>
 4    1  0.4653733E+000  0.2271590E+03  0.7818608E-02  0.1128656E+00
         21   -1    0    0  501  502  0.00000000000E+00  0.00000000000E+00  0.60276197798E+02  0.60276197798E+02  0.00000000000E+00 0.  1.
         21   -1    0    0  502  503 -0.00000000000E+00 -0.00000000000E+00 -0.11834933362E+04  0.11834933362E+04  0.00000000000E+00 0.  1.
          6    1    1    2  501    0 -0.76747049382E+02 -0.12699250188E+03 -0.23451224902E+03  0.32649226647E+03  0.17200000000E+03 0.  1.
         -6    1    1    2    0  503  0.76747049382E+02  0.12699250188E+03 -0.88870488937E+03  0.91727726753E+03  0.17200000000E+03 0.  1.
</event>
<event>
 4    1  0.4653733E+000  0.2139680E+03  0.7818608E-02  0.1138462E+00
         21   -1    0    0  501  502  0.00000000000E+00  0.00000000000E+00  0.40547840003E+02  0.40547840003E+02  0.00000000000E+00 0.  1.
         21   -1    0    0  502  503 -0.00000000000E+00 -0.00000000000E+00 -0.14403745376E+04  0.14403745376E+04  0.00000000000E+00 0. -1.
          6    1    1    2  501    0  0.12681823607E+03  0.10745183982E+02 -0.35568982439E+03  0.41508743073E+03  0.17200000000E+03 0.  1.
         -6    1    1    2    0  503 -0.12681823607E+03 -0.10745183982E+02 -0.10441368732E+04  0.10658349468E+04  0.17200000000E+03 0. -1.
</event>
<event>
 4    1  0.4653733E+000  0.1966429E+03  0.7818608E-02  0.1152603E+00
         21   -1    0    0  503  502  0.00000000000E+00  0.00000000000E+00  0.95588037039E+02  0.95588037039E+02  0.00000000000E+00 0. -1.
         21   -1    0    0  501  503 -0.00000000000E+00 -0.00000000000E+00 -0.42277973291E+03  0.42277973291E+03  0.00000000000E+00 0. -1.
          6    1    1    2  501    0  0.92117258378E+02  0.24471064528E+02 -0.21744204832E+03  0.29317139469E+03  0.17200000000E+03 0. -1.
         -6    1    1    2    0  502 -0.92117258378E+02 -0.24471064528E+02 -0.10974964755E+03  0.22519637526E+03  0.17200000000E+03 0. -1.
</event>
<event>
 4    1  0.4653733E+000  0.1784918E+03  0.7818608E-02  0.1169271E+00
         21   -1    0    0  501  502  0.00000000000E+00  0.00000000000E+00  0.20750482176E+03  0.20750482176E+03  0.00000000000E+00 0.  1.
         21   -1    0    0  502  503 -0.00000000000E+00 -0.00000000000E+00 -0.27398228290E+03  0.27398228290E+03  0.00000000000E+00 0.  1.
          6    1    1    2  501    0 -0.46541550469E+02  0.10450943079E+02  0.12638269566E+03  0.21870510715E+03  0.17200000000E+03 0.  1.
         -6    1    1    2    0  503  0.46541550469E+02 -0.10450943079E+02 -0.19286015680E+03  0.26278199750E+03  0.17200000000E+03 0.  1.
</event>
<event>
 4    1  0.4653733E+000  0.2016319E+03  0.7818608E-02  0.1148369E+00
         21   -1    0    0  503  502  0.00000000000E+00  0.00000000000E+00  0.34913051990E+03  0.34913051990E+03  0.00000000000E+00 0. -1.
         21   -1    0    0  501  503 -0.00000000000E+00 -0.00000000000E+00 -0.25113948300E+03  0.25113948300E+03  0.00000000000E+00 0.  1.
          6    1    1    2  501    0  0.10255587621E+03  0.23530778904E+02 -0.17080559422E+03  0.26425358336E+03  0.17200000000E+03 0.  1.
         -6    1    1    2    0  502 -0.10255587621E+03 -0.23530778904E+02  0.26879663111E+03  0.33601641954E+03  0.17200000000E+03 0. -1.
</event>
<event>
 4    1  0.4653733E+000  0.1966171E+03  0.7818608E-02  0.1152625E+00
         21   -1    0    0  503  502  0.00000000000E+00  0.00000000000E+00  0.37608639078E+03  0.37608639078E+03  0.00000000000E+00 0.  1.
         21   -1    0    0  501  503 -0.00000000000E+00 -0.00000000000E+00 -0.21159727589E+03  0.21159727589E+03  0.00000000000E+00 0.  1.
          6    1    1    2  501    0  0.13682091533E+02 -0.94271388661E+02 -0.12846564853E+03  0.23486531715E+03  0.17200000000E+03 0.  1.
         -6    1    1    2    0  502 -0.13682091533E+02  0.94271388661E+02  0.29295476342E+03  0.35281834952E+03  0.17200000000E+03 0.  1.
</event>
<event>
 4    1  0.4653733E+000  0.2130667E+03  0.7818608E-02  0.1139160E+00
         21   -1    0    0  503  502  0.00000000000E+00  0.00000000000E+00  0.40237901205E+03  0.40237901205E+03  0.00000000000E+00 0.  1.
         21   -1    0    0  501  503 -0.00000000000E+00 -0.00000000000E+00 -0.32857068308E+03  0.32857068308E+03  0.00000000000E+00 0.  1.
          6    1    1    2  501    0  0.11124350215E+03  0.58637043080E+02 -0.25924917080E+03  0.33557048761E+03  0.17200000000E+03 0.  1.
         -6    1    1    2    0  502 -0.11124350215E+03 -0.58637043080E+02  0.33305749977E+03  0.39537920753E+03  0.17200000000E+03 0.  1.
</event>
<event>
 4    1  0.4653733E+000  0.3078223E+03  0.7818608E-02  0.1081394E+00
         21   -1    0    0  501  502  0.00000000000E+00  0.00000000000E+00  0.21359950015E+03  0.21359950015E+03  0.00000000000E+00 0.  1.
         21   -1    0    0  502  503 -0.00000000000E+00 -0.00000000000E+00 -0.62059163328E+03  0.62059163328E+03  0.00000000000E+00 0. -1.
          6    1    1    2  501    0  0.12789607021E+03  0.22093702625E+03  0.19244047538E+02  0.30842326065E+03  0.17200000000E+03 0.  1.
         -6    1    1    2    0  503 -0.12789607021E+03 -0.22093702625E+03 -0.42623618067E+03  0.52576787278E+03  0.17200000000E+03 0. -1.
</event>
<event>
 4    1  0.4653733E+000  0.2338693E+03  0.7818608E-02  0.1123946E+00
         21   -1    0    0  503  502  0.00000000000E+00  0.00000000000E+00  0.74302942364E+03  0.74302942364E+03  0.00000000000E+00 0. -1.
         21   -1    0    0  501  503 -0.00000000000E+00 -0.00000000000E+00 -0.25094389108E+03  0.25094389108E+03  0.00000000000E+00 0.  1.
          6    1    1    2  501    0  0.11686267486E+02 -0.15803246960E+03 -0.17174101018E+03  0.29015479468E+03  0.17200000000E+03 0.  1.
         -6    1    1    2    0  502 -0.11686267486E+02  0.15803246960E+03  0.66382654275E+03  0.70381852004E+03  0.17200000000E+03 0. -1.
</event>
<event>
 4    1  0.4653733E+000  0.1869232E+03  0.7818608E-02  0.1161266E+00
         21   -1    0    0  501  502  0.00000000000E+00  0.00000000000E+00  0.11315998257E+03  0.11315998257E+03  0.00000000000E+00 0. -1.
         21   -1    0    0  502  503 -0.00000000000E+00 -0.00000000000E+00 -0.39484825217E+03  0.39484825217E+03  0.00000000000E+00 0. -1.
          6    1    1    2  501    0 -0.19184875819E+02 -0.70627288546E+02 -0.22246681239E+02  0.18824236551E+03  0.17200000000E+03 0. -1.
         -6    1    1    2    0  503  0.19184875819E+02  0.70627288546E+02 -0.25944158837E+03  0.31976586922E+03  0.17200000000E+03 0. -1.
</event>
<event>
 4    1  0.4653733E+000  0.1985451E+03  0.7818608E-02  0.1150972E+00
         21   -1    0    0  503  502  0.00000000000E+00  0.00000000000E+00  0.44785904519E+03  0.44785904519E+03  0.00000000000E+00 0.  1.
         21   -1    0    0  501  503 -0.00000000000E+00 -0.00000000000E+00 -0.89459915060E+02  0.89459915060E+02  0.00000000000E+00 0.  1.
          6    1    1    2  501    0  0.99125345360E+02 -0.32124000394E+01  0.14510455181E+03  0.24591763776E+03  0.17200000000E+03 0.  1.
         -6    1    1    2    0  502 -0.99125345360E+02  0.32124000394E+01  0.21329457832E+03  0.29140132249E+03  0.17200000000E+03 0.  1.
</event>
<event>
 4    1  0.4653733E+000  0.1742193E+03  0.7818608E-02  0.1173518E+00
         21   -1    0    0  501  502  0.00000000000E+00  0.00000000000E+00  0.25753957272E+03  0.25753957272E+03  0.00000000000E+00 0.  1.
         21   -1    0    0  502  503 -0.00000000000E+00 -0.00000000000E+00 -0.14063911655E+03  0.14063911655E+03  0.00000000000E+00 0.  1.
          6    1    1    2  501    0 -0.19376122568E+02  0.19822042872E+02  0.13858301840E+03  0.22261536447E+03  0.17200000000E+03 0. -1.
         -6    1    1    2    0  503  0.19376122568E+02 -0.19822042872E+02 -0.21682562227E+02  0.17556332480E+03  0.17200000000E+03 0. -1.
</event>
<event>
 4    1  0.4653733E+000  0.1771039E+03  0.7818608E-02  0.1170636E+00
         21   -1    0    0  501  502  0.00000000000E+00  0.00000000000E+00  0.25683510316E+03  0.25683510316E+03  0.00000000000E+00 0. -1.
         21   -1    0    0  502  503 -0.00000000000E+00 -0.00000000000E+00 -0.13172835321E+03  0.13172835321E+03  0.00000000000E+00 0.  1.
          6    1    1    2  501    0  0.12393394360E+02 -0.40350785588E+02  0.11501259296E+03  0.21117215409E+03  0.17200000000E+03 0. -1.
         -6    1    1    2    0  503 -0.12393394360E+02  0.40350785588E+02  0.10094156980E+02  0.17739130229E+03  0.17200000000E+03 0.  1.
</event>
<event>
 4    1  0.4653733E+000  0.1895039E+03  0.7818608E-02  0.1158910E+00
         21   -1    0    0  503  502  0.00000000000E+00  0.00000000000E+00  0.17748478313E+03  0.17748478313E+03  0.00000000000E+00 0. -1.
         21   -1    0    0  501  503 -0.00000000000E+00 -0.00000000000E+00 -0.31860585771E+03  0.31860585771E+03  0.00000000000E+00 0. -1.
          6    1    1    2  501    0  0.62642646702E+02  0.49026861554E+02 -0.22040334679E+03  0.29067055169E+03  0.17200000000E+03 0. -1.
         -6    1    1    2    0  502 -0.62642646702E+02 -0.49026861554E+02  0.79282272220E+02  0.20542008915E+03  0.17200000000E+03 0. -1.
</event>
<event>
 4    1  0.4653733E+000  0.3156276E+03  0.7818608E-02  0.1077679E+00
         21   -1    0    0  503  502  0.00000000000E+00  0.00000000000E+00  0.10615955917E+03  0.10615955917E+03  0.00000000000E+00 0. -1.
         21   -1    0    0  501  503 -0.00000000000E+00 -0.00000000000E+00 -0.13888928681E+04  0.13888928681E+04  0.00000000000E+00 0. -1.
          6    1    1    2  501    0  0.19019680115E+03  0.18401613310E+03 -0.10670955733E+04  0.11127954543E+04  0.17200000000E+03 0. -1.
         -6    1    1    2    0  502 -0.19019680115E+03 -0.18401613310E+03 -0.21563773563E+03  0.38225697304E+03  0.17200000000E+03 0. -1.
</event>
<event>
 4    1  0.4653733E+000  0.1977371E+03  0.7818608E-02  0.1151662E+00
         21   -1    0    0  503  502  0.00000000000E+00  0.00000000000E+00  0.12265146532E+04  0.12265146532E+04  0.00000000000E+00 0.  1.
         21   -1    0    0  501  503 -0.00000000000E+00 -0.00000000000E+00 -0.97941672406E+02  0.97941672406E+02  0.00000000000E+00 0. -1.
          6    1    1    2  501    0  0.94504131669E+02  0.24185393339E+02  0.20407583533E+02  0.19878740810E+03  0.17200000000E+03 0. -1.
         -6    1    1    2    0  502 -0.94504131669E+02 -0.24185393339E+02  0.11081653973E+04  0.11256689175E+04  0.17200000000E+03 0.  1.
</event>
<event>
 4    1  0.4653733E+000  0.1808422E+03  0.7818608E-02  0.1166990E+00
         21   -1    0    0  501  502  0.00000000000E+00  0.00000000000E+00  0.85861790754E+02  0.85861790754E+02  0.00000000000E+00 0. -1.
         21   -1    0    0  502  503 -0.00000000000E+00 -0.00000000000E+00 -0.56180911321E+03  0.56180911321E+03  0.00000000000E+00 0. -1.
          6    1    1    2  501    0 -0.48055504327E+02 -0.28470305261E+02 -0.54204626336E+02  0.18879097249E+03  0.17200000000E+03 0. -1.
         -6    1    1    2    0  503  0.48055504327E+02  0.28470305261E+02 -0.42174269612E+03  0.45887993147E+03  0.17200000000E+03 0. -1.
</event>
<event>
 4    1  0.4653733E+000  0.2189546E+03  0.7818608E-02  0.1134665E+00
         21   -1    0    0  501  502  0.00000000000E+00  0.00000000000E+00  0.84025067646E+02  0.84025067646E+02  0.00000000000E+00 0.  1.
         21   -1    0    0  502  503 -0.00000000000E+00 -0.00000000000E+00 -0.64119604613E+03  0.64119604613E+03  0.00000000000E+00 0. -1.
          6    1    1    2  501    0 -0.63345351199E+02  0.11976839424E+03 -0.15822968833E+03  0.27014391728E+03  0.17200000000E+03 0.  1.
         -6    1    1    2    0  503  0.63345351199E+02 -0.11976839424E+03 -0.39894129016E+03  0.45507719650E+03  0.17200000000E+03 0.  1.
</event>
<event>
 4    1  0.4653733E+000  0.1897547E+03  0.7818608E-02  0.1158683E+00
         21   -1    0    0  503  502  0.00000000000E+00  0.00000000000E+00  0.72173341915E+03  0.72173341915E+03  0.00000000000E+00 0. -1.
         21   -1    0    0  501  503 -0.00000000000E+00 -0.00000000000E+00 -0.10860846667E+03  0.10860846667E+03  0.00000000000E+00 0. -1.
          6    1    1    2  501    0  0.78641627010E+02  0.15437839930E+02  0.12920330425E+01  0.18975906237E+03  0.17200000000E+03 0. -1.
         -6    1    1    2    0  502 -0.78641627010E+02 -0.15437839930E+02  0.61183291944E+03  0.64058282346E+03  0.17200000000E+03 0. -1.
</event>
<event>
 4    1  0.4653733E+000  0.1962058E+03  0.7818608E-02  0.1152980E+00
         21   -1    0    0  501  502  0.00000000000E+00  0.00000000000E+00  0.52906854533E+02  0.52906854533E+02  0.00000000000E+00 0. -1.
         21   -1    0    0  502  503 -0.00000000000E+00 -0.00000000000E+00 -0.82580398466E+03  0.82580398466E+03  0.00000000000E+00 0. -1.
          6    1    1    2  501    0 -0.69517468558E+02  0.63875115051E+02 -0.53793431182E+03  0.57259936482E+03  0.17200000000E+03 0. -1.
         -6    1    1    2    0  503  0.69517468558E+02 -0.63875115051E+02 -0.23496281831E+03  0.30611147438E+03  0.17200000000E+03 0. -1.
</event>
<event>
 4    1  0.4653733E+000  0.2662602E+03  0.7818608E-02  0.1103439E+00
         21   -1    0    0  503  502  0.00000000000E+00  0.00000000000E+00  0.24259307526E+04  0.24259307526E+04  0.00000000000E+00 0.  1.
         21   -1    0    0  501  503 -0.00000000000E+00 -0.00000000000E+00 -0.51600343214E+02  0.51600343214E+02  0.00000000000E+00 0. -1.
          6    1    1    2  501    0  0.20032232692E+03 -0.34372362531E+02  0.37140783456E+03  0.45698826412E+03  0.17200000000E+03 0. -1.
         -6    1    1    2    0  502 -0.20032232692E+03  0.34372362531E+02  0.20029225748E+04  0.20205428317E+04  0.17200000000E+03 0.  1.
</event>
<event>
 4    1  0.4653733E+000  0.2049316E+03  0.7818608E-02  0.1145644E+00
         21   -1    0    0  503  502  0.00000000000E+00  0.00000000000E+00  0.14179398056E+03  0.14179398056E+03  0.00000000000E+00 0. -1.
         21   -1    0    0  501  503 -0.00000000000E+00 -0.00000000000E+00 -0.18031226676E+04  0.18031226676E+04  0.00000000000E+00 0. -1.
          6    1    1    2  501    0 -0.60547088588E+02 -0.93525486561E+02 -0.17196736230E+04  0.17318413138E+04  0.17200000000E+03 0. -1.
         -6    1    1    2    0  502  0.60547088588E+02  0.93525486561E+02  0.58344935934E+02  0.21307533438E+03  0.17200000000E+03 0. -1.
</event>
<event>
 4    1  0.4653733E+000  0.1816013E+03  0.7818608E-02  0.1166262E+00
         21   -1    0    0  501  502  0.00000000000E+00  0.00000000000E+00  0.10139908700E+03  0.10139908700E+03  0.00000000000E+00 0.  1.
         21   -1    0    0  502  503 -0.00000000000E+00 -0.00000000000E+00 -0.42616688273E+03  0.42616688273E+03  0.00000000000E+00 0.  1.
          6    1    1    2  501    0 -0.56397785477E+02 -0.14639881376E+02 -0.34014821343E+02  0.18475942305E+03  0.17200000000E+03 0.  1.
         -6    1    1    2    0  503  0.56397785477E+02  0.14639881376E+02 -0.29075297439E+03  0.34280654668E+03  0.17200000000E+03 0.  1.
</event>
<event>
 4    1  0.4653733E+000  0.2105468E+03  0.7818608E-02  0.1141134E+00
         21   -1    0    0  503  502  0.00000000000E+00  0.00000000000E+00  0.87557064293E+03  0.87557064293E+03  0.00000000000E+00 0.  1.
         21   -1    0    0  501  503 -0.00000000000E+00 -0.00000000000E+00 -0.31406537109E+03  0.31406537109E+03  0.00000000000E+00 0. -1.
          6    1    1    2  501    0 -0.16126057450E+02 -0.12035734363E+03 -0.26401501914E+03  0.33768901407E+03  0.17200000000E+03 0. -1.
         -6    1    1    2    0  502  0.16126057450E+02  0.12035734363E+03  0.82552029098E+03  0.85194699995E+03  0.17200000000E+03 0.  1.
</event>
<event>
 4    1  0.4653733E+000  0.2001893E+03  0.7818608E-02  0.1149579E+00
         21   -1    0    0  501  502  0.00000000000E+00  0.00000000000E+00  0.12560906342E+04  0.12560906342E+04  0.00000000000E+00 0.  1.
         21   -1    0    0  502  503 -0.00000000000E+00 -0.00000000000E+00 -0.14770842629E+03  0.14770842629E+03  0.00000000000E+00 0.  1.
          6    1    1    2  501    0  0.91621918739E+02  0.45795052257E+02  0.11756790867E+04  0.11926009717E+04  0.17200000000E+03 0.  1.
         -6    1    1    2    0  503 -0.91621918739E+02 -0.45795052257E+02 -0.67296878803E+02  0.21119808877E+03  0.17200000000E+03 0.  1.
</event>
<event>
 4    1  0.4653733E+000  0.1883248E+03  0.7818608E-02  0.1159981E+00
         21   -1    0    0  501  502  0.00000000000E+00  0.00000000000E+00  0.63937738483E+03  0.63937738483E+03  0.00000000000E+00 0. -1.
         21   -1    0    0  502  503 -0.00000000000E+00 -0.00000000000E+00 -0.59356361942E+02  0.59356361942E+02  0.00000000000E+00 0.  1.
          6    1    1    2  501    0  0.31805277458E+02  0.69790147170E+02  0.37940726291E+03  0.42357539053E+03  0.17200000000E+03 0. -1.
         -6    1    1    2    0  503 -0.31805277458E+02 -0.69790147170E+02  0.20061375998E+03  0.27515835624E+03  0.17200000000E+03 0.  1.
</event>
<event>
 4    1  0.4653733E+000  0.2789292E+03  0.7818608E-02  0.1096275E+00
         21   -1    0    0  501  502  0.00000000000E+00  0.00000000000E+00  0.32029039474E+03  0.32029039474E+03  0.00000000000E+00 0. -1.
         21   -1    0    0  502  503 -0.00000000000E+00 -0.00000000000E+00 -0.27512064368E+03  0.27512064368E+03  0.00000000000E+00 0.  1.
          6    1    1    2  501    0 -0.56372901039E+02  0.21222530543E+03  0.12445113925E+03  0.30543341385E+03  0.17200000000E+03 0. -1.
         -6    1    1    2    0  503  0.56372901039E+02 -0.21222530543E+03 -0.79281388201E+02  0.28997762457E+03  0.17200000000E+03 0.  1.
</event>
<event>
 4    1  0.4653733E+000  0.2199537E+03  0.7818608E-02  0.1133918E+00
         21   -1    0    0  503  502  0.00000000000E+00  0.00000000000E+00  0.11415959086E+04  0.11415959086E+04  0.00000000000E+00 0.  1.
         21   -1    0    0  501  503 -0.00000000000E+00 -0.00000000000E+00 -0.42496765882E+02  0.42496765882E+02  0.00000000000E+00 0.  1.
          6    1    1    2  501    0 -0.94832309352E+02 -0.99007346128E+02  0.58072432262E+03  0.62098338171E+03  0.17200000000E+03 0.  1.
         -6    1    1    2    0  502  0.94832309352E+02  0.99007346128E+02  0.51837482005E+03  0.56310929272E+03  0.17200000000E+03 0.  1.
</event>
<event>
 4    1  0.4653733E+000  0.1842672E+03  0.7818608E-02  0.1163736E+00
         21   -1    0    0  501  502  0.00000000000E+00  0.00000000000E+00  0.58939417943E+03  0.58939417943E+03  0.00000000000E+00 0.  1.
         21   -1    0    0  502  503 -0.00000000000E+00 -0.00000000000E+00 -0.63017049445E+02  0.63017049445E+02  0.00000000000E+00 0.  1.
          6    1    1    2  501    0 -0.46103564593E+02 -0.47380002763E+02  0.35875010312E+03  0.40330638455E+03  0.17200000000E+03 0.  1.
         -6    1    1    2    0  503  0.46103564593E+02  0.47380002763E+02  0.16762702686E+03  0.24910484432E+03  0.17200000000E+03 0.  1.
</event>
<event>
 4    1  0.4653733E+000  0.2420498E+03  0.7818608E-02  0.1118435E+00
         21   -1    0    0  501  502  0.00000000000E+00  0.00000000000E+00  0.40181402149E+02  0.40181402149E+02  0.00000000000E+00 0. -1.
         21   -1    0    0  502  503 -0.00000000000E+00 -0.00000000000E+00 -0.19010987968E+04  0.19010987968E+04  0.00000000000E+00 0. -1.
          6    1    1    2  501    0  0.14079579820E+03  0.95815631481E+02 -0.46190198264E+03  0.52148013730E+03  0.17200000000E+03 0. -1.
         -6    1    1    2    0  503 -0.14079579820E+03 -0.95815631481E+02 -0.13990154120E+04  0.14198000616E+04  0.17200000000E+03 0. -1.
</event>
<event>
 4    1  0.4653733E+000  0.1875242E+03  0.7818608E-02  0.1160713E+00
         21   -1    0    0  503  502  0.00000000000E+00  0.00000000000E+00  0.21350820837E+04  0.21350820837E+04  0.00000000000E+00 0.  1.
         21   -1    0    0  501  503 -0.00000000000E+00 -0.00000000000E+00 -0.18814390088E+02  0.18814390088E+02  0.00000000000E+00 0. -1.
          6    1    1    2  501    0 -0.74704911056E+02  0.71349855090E+00  0.14382721774E+04  0.14504455140E+04  0.17200000000E+03 0.  1.
         -6    1    1    2    0  502  0.74704911056E+02 -0.71349855090E+00  0.67799551624E+03  0.70345095981E+03  0.17200000000E+03 0. -1.
</event>
<event>
 4    1  0.4653733E+000  0.1806812E+03  0.7818608E-02  0.1167145E+00
         21   -1    0    0  501  502  0.00000000000E+00  0.00000000000E+00  0.49094513286E+03  0.49094513286E+03  0.00000000000E+00 0. -1.
         21   -1    0    0  502  503 -0.00000000000E+00 -0.00000000000E+00 -0.16407183035E+03  0.16407183035E+03  0.00000000000E+00 0.  1.
          6    1    1    2  501    0  0.42261093810E+02 -0.35716753390E+02  0.41600421738E+03  0.45354734637E+03  0.17200000000E+03 0. -1.
         -6    1    1    2    0  503 -0.42261093810E+02  0.35716753390E+02 -0.89130914871E+02  0.20146961684E+03  0.17200000000E+03 0.  1.
</event>
<event>
 4    1  0.4653733E+000  0.1870661E+03  0.7818608E-02  0.1161134E+00
         21   -1    0    0  503  502  0.00000000000E+00  0.00000000000E+00  0.34198833095E+02  0.34198833095E+02  0.00000000000E+00 0.  1.
         21   -1    0    0  501  503 -0.00000000000E+00 -0.00000000000E+00 -0.12454214524E+04  0.12454214524E+04  0.00000000000E+00 0.  1.
          6    1    1    2  501    0 -0.64997001085E+02  0.34425513177E+02 -0.87584758457E+03  0.89560187444E+03  0.17200000000E+03 0.  1.
         -6    1    1    2    0  502  0.64997001085E+02 -0.34425513177E+02 -0.33537503477E+03  0.38401841109E+03  0.17200000000E+03 0.  1.
</event>
<event>
 4    1  0.4653733E+000  0.1906461E+03  0.7818608E-02  0.1157880E+00
         21   -1    0    0  503  502  0.00000000000E+00  0.00000000000E+00  0.64672145928E+02  0.64672145928E+02  0.00000000000E+00 0.  1.
         21   -1    0    0  501  503 -0.00000000000E+00 -0.00000000000E+00 -0.66449796380E+03  0.66449796380E+03  0.00000000000E+00 0.  1.
          6    1    1    2  501    0 -0.48629775604E+02 -0.66310520271E+02 -0.15672600680E+03  0.24679745011E+03  0.17200000000E+03 0.  1.
         -6    1    1    2    0  502  0.48629775604E+02  0.66310520271E+02 -0.44309981107E+03  0.48237265961E+03  0.17200000000E+03 0.  1.
</event>
<event>
 4    1  0.4653733E+000  0.1770603E+03  0.7818608E-02  0.1170679E+00
         21   -1    0    0  501  502  0.00000000000E+00  0.00000000000E+00  0.72965396844E+03  0.72965396844E+03  0.00000000000E+00 0. -1.
         21   -1    0    0  502  503 -0.00000000000E+00 -0.00000000000E+00 -0.78543432268E+02  0.78543432268E+02  0.00000000000E+00 0. -1.
          6    1    1    2  501    0 -0.41406758212E+02  0.72005338137E+01  0.59752423832E+03  0.62320589109E+03  0.17200000000E+03 0. -1.
         -6    1    1    2    0  503  0.41406758212E+02 -0.72005338137E+01  0.53586297855E+02  0.18499150962E+03  0.17200000000E+03 0. -1.
</event>
<event>
 4    1  0.4653733E+000  0.1942434E+03  0.7818608E-02  0.1154689E+00
         21   -1    0    0  501  502  0.00000000000E+00  0.00000000000E+00  0.46366290844E+03  0.46366290844E+03  0.00000000000E+00 0. -1.
         21   -1    0    0  502  503 -0.00000000000E+00 -0.00000000000E+00 -0.15340557391E+03  0.15340557391E+03  0.00000000000E+00 0. -1.
          6    1    1    2  501    0 -0.89981465576E+02  0.70598950147E+01  0.36654651425E+03  0.41483352489E+03  0.17200000000E+03 0. -1.
         -6    1    1    2    0  503  0.89981465576E+02 -0.70598950147E+01 -0.56289179712E+02  0.20223495746E+03  0.17200000000E+03 0. -1.
</event>
<event>
 4    1  0.4653733E+000  0.1749409E+03  0.7818608E-02  0.1172791E+00
         21   -1    0    0  501  502  0.00000000000E+00  0.00000000000E+00  0.41703311645E+03  0.41703311645E+03  0.00000000000E+00 0.  1.
         21   -1    0    0  502  503 -0.00000000000E+00 -0.00000000000E+00 -0.73912834751E+02  0.73912834751E+02  0.00000000000E+00 0.  1.
          6    1    1    2  501    0  0.31911802984E+02 -0.13984206559E+01  0.19228796088E+03  0.25995957118E+03  0.17200000000E+03 0. -1.
         -6    1    1    2    0  503 -0.31911802984E+02  0.13984206559E+01  0.15083232082E+03  0.23098638002E+03  0.17200000000E+03 0. -1.
</event>
<event>
 4    1  0.4653733E+000  0.1917965E+03  0.7818608E-02  0.1156851E+00
         21   -1    0    0  501  502  0.00000000000E+00  0.00000000000E+00  0.10429041603E+03  0.10429041603E+03  0.00000000000E+00 0.  1.
         21   -1    0    0  502  503 -0.00000000000E+00 -0.00000000000E+00 -0.48368189716E+03  0.48368189716E+03  0.00000000000E+00 0.  1.
          6    1    1    2  501    0 -0.46421416633E+02 -0.71041773133E+02 -0.36724268731E+02  0.19528070403E+03  0.17200000000E+03 0.  1.
         -6    1    1    2    0  503  0.46421416633E+02  0.71041773133E+02 -0.34266721239E+03  0.39269160916E+03  0.17200000000E+03 0.  1.
</event>
<event>
 4    1  0.4653733E+000  0.2222617E+03  0.7818608E-02  0.1132208E+00
         21   -1    0    0  501  502  0.00000000000E+00  0.00000000000E+00  0.37225902099E+03  0.37225902099E+03  0.00000000000E+00 0.  1.
         21   -1    0    0  502  503 -0.00000000000E+00 -0.00000000000E+00 -0.13643859890E+03  0.13643859890E+03  0.00000000000E+00 0. -1.
          6    1    1    2  501    0 -0.43128361422E+02 -0.13400082685E+03  0.75829742892E+02  0.23484128058E+03  0.17200000000E+03 0.  1.
         -6    1    1    2    0  503  0.43128361422E+02  0.13400082685E+03  0.15999067919E+03  0.27385633932E+03  0.17200000000E+03 0. -1.
</event>
<event>
 4    1  0.4653733E+000  0.1959891E+03  0.7818608E-02  0.1153168E+00
         21   -1    0    0  503  502  0.00000000000E+00  0.00000000000E+00  0.14899965734E+04  0.14899965734E+04  0.00000000000E+00 0.  1.
         21   -1    0    0  501  503 -0.00000000000E+00 -0.00000000000E+00 -0.29979256807E+02  0.29979256807E+02  0.00000000000E+00 0.  1.
          6    1    1    2  501    0  0.45164563147E+02 -0.82388614961E+02  0.44556516204E+03  0.48676486650E+03  0.17200000000E+03 0.  1.
         -6    1    1    2    0  502 -0.45164563147E+02  0.82388614961E+02  0.10144521546E+04  0.10332109637E+04  0.17200000000E+03 0.  1.
</event>
<event>
 4    1  0.4653733E+000  0.2217175E+03  0.7818608E-02  0.1132609E+00
         21   -1    0    0  503  502  0.00000000000E+00  0.00000000000E+00  0.21744390170E+03  0.21744390170E+03  0.00000000000E+00 0.  1.
         21   -1    0    0  501  503 -0.00000000000E+00 -0.00000000000E+00 -0.22660287700E+03  0.22660287700E+03  0.00000000000E+00 0.  1.
          6    1    1    2  501    0 -0.13578023525E+03 -0.33739768740E+02  0.61358414787E+01  0.22180237337E+03  0.17200000000E+03 0.  1.
         -6    1    1    2    0  502  0.13578023525E+03  0.33739768740E+02 -0.15294816781E+02  0.22224440533E+03  0.17200000000E+03 0.  1.
</event>
<event>
 4    1  0.4653733E+000  0.2019693E+03  0.7818608E-02  0.1148088E+00
         21   -1    0    0  503  502  0.00000000000E+00  0.00000000000E+00  0.21674122947E+02  0.21674122947E+02  0.00000000000E+00 0.  1.
         21   -1    0    0  501  503 -0.00000000000E+00 -0.00000000000E+00 -0.21926393022E+04  0.21926393022E+04  0.00000000000E+00 0.  1.
          6    1    1    2  501    0  0.10246734331E+03  0.26609399611E+02 -0.15021831818E+04  0.15156998147E+04  0.17200000000E+03 0.  1.
         -6    1    1    2    0  502 -0.10246734331E+03 -0.26609399611E+02 -0.66878199754E+03  0.69861361054E+03  0.17200000000E+03 0.  1.
</event>
<event>
 4    1  0.4653733E+000  0.1738500E+03  0.7818608E-02  0.1173891E+00
         21   -1    0    0  501  502  0.00000000000E+00  0.00000000000E+00  0.21735461298E+03  0.21735461298E+03  0.00000000000E+00 0. -1.
         21   -1    0    0  502  503 -0.00000000000E+00 -0.00000000000E+00 -0.13942427626E+03  0.13942427626E+03  0.00000000000E+00 0. -1.
          6    1    1    2  501    0  0.16881573306E+02  0.18837286820E+02  0.48169558316E+02  0.18039993692E+03  0.17200000000E+03 0.  1.
         -6    1    1    2    0  503 -0.16881573306E+02 -0.18837286820E+02  0.29760778402E+02  0.17637895232E+03  0.17200000000E+03 0.  1.
</event>
<event>
 4    1  0.4653733E+000  0.1885892E+03  0.7818608E-02  0.1159740E+00
         21   -1    0    0  503  502  0.00000000000E+00  0.00000000000E+00  0.76379810984E+03  0.76379810984E+03  0.00000000000E+00 0.  1.
         21   -1    0    0  501  503 -0.00000000000E+00 -0.00000000000E+00 -0.70081633232E+02  0.70081633232E+02  0.00000000000E+00 0. -1.
          6    1    1    2  501    0  0.32632495311E+02 -0.70121499390E+02  0.10533263237E+03  0.21601126792E+03  0.17200000000E+03 0. -1.
         -6    1    1    2    0  502 -0.32632495311E+02  0.70121499390E+02  0.58838384423E+03  0.61786847515E+03  0.17200000000E+03 0.  1.
</event>
<event>
 4    1  0.4653733E+000  0.1916123E+03  0.7818608E-02  0.1157015E+00
         21   -1    0    0  503  502  0.00000000000E+00  0.00000000000E+00  0.26150267341E+03  0.26150267341E+03  0.00000000000E+00 0. -1.
         21   -1    0    0  501  503 -0.00000000000E+00 -0.00000000000E+00 -0.14104272793E+03  0.14104272793E+03  0.00000000000E+00 0.  1.
          6    1    1    2  501    0 -0.55250459013E+02  0.63864502650E+02  0.46655627175E+02  0.19721063731E+03  0.17200000000E+03 0.  1.
         -6    1    1    2    0  502  0.55250459013E+02 -0.63864502650E+02  0.73804318305E+02  0.20533476403E+03  0.17200000000E+03 0.  1.
</event>
<event>
 4    1  0.4653733E+000  0.1988574E+03  0.7818608E-02  0.1150707E+00
         21   -1    0    0  501  502  0.00000000000E+00  0.00000000000E+00  0.40899482527E+03  0.40899482527E+03  0.00000000000E+00 0. -1.
         21   -1    0    0  502  503 -0.00000000000E+00 -0.00000000000E+00 -0.13626243140E+03  0.13626243140E+03  0.00000000000E+00 0. -1.
          6    1    1    2  501    0  0.89881613264E+02  0.43376859203E+02  0.28329240051E+03  0.34611969101E+03  0.17200000000E+03 0. -1.
         -6    1    1    2    0  503 -0.89881613264E+02 -0.43376859203E+02 -0.10560006634E+02  0.19913756566E+03  0.17200000000E+03 0. -1.
</event>
<event>
 4    1  0.4653733E+000  0.1878564E+03  0.7818608E-02  0.1160409E+00
         21   -1    0    0  503  502  0.00000000000E+00  0.00000000000E+00  0.14212308921E+03  0.14212308921E+03  0.00000000000E+00 0.  1.
         21   -1    0    0  501  503 -0.00000000000E+00 -0.00000000000E+00 -0.48981810849E+03  0.48981810849E+03  0.00000000000E+00 0.  1.
          6    1    1    2  501    0 -0.68668867694E+02 -0.31473746588E+02 -0.39571759246E+03  0.43804385978E+03  0.17200000000E+03 0.  1.
         -6    1    1    2    0  502  0.68668867694E+02  0.31473746588E+02  0.48022573175E+02  0.19389733791E+03  0.17200000000E+03 0.  1.
</event>
<event>
 4    1  0.4653733E+000  0.1720079E+03  0.7818608E-02  0.1175770E+00
         21   -1    0    0  503  502  0.00000000000E+00  0.00000000000E+00  0.17356463816E+03  0.17356463816E+03  0.00000000000E+00 0. -1.
         21   -1    0    0  501  503 -0.00000000000E+00 -0.00000000000E+00 -0.19103653515E+03  0.19103653515E+03  0.00000000000E+00 0. -1.
          6    1    1    2  501    0  0.93595798078E+00  0.13548425533E+01 -0.68558131072E+02  0.18516729990E+03  0.17200000000E+03 0. -1.
         -6    1    1    2    0  502 -0.93595798078E+00 -0.13548425533E+01  0.51086234080E+02  0.17943387341E+03  0.17200000000E+03 0. -1.
</event>
<event>
 4    1  0.4653733E+000  0.1868305E+03  0.7818608E-02  0.1161351E+00
         21   -1    0    0  503  502  0.00000000000E+00  0.00000000000E+00  0.10268663523E+03  0.10268663523E+03  0.00000000000E+00 0.  1.
         21   -1    0    0  501  503 -0.00000000000E+00 -0.00000000000E+00 -0.38967577517E+03  0.38967577517E+03  0.00000000000E+00 0.  1.
          6    1    1    2  501    0  0.72906447156E+02 -0.25094320888E+01 -0.23145911720E+03  0.29745414810E+03  0.17200000000E+03 0.  1.
         -6    1    1    2    0  502 -0.72906447156E+02  0.25094320888E+01 -0.55530022741E+02  0.19490826230E+03  0.17200000000E+03 0.  1.
</event>
<event>
 4    1  0.4653733E+000  0.2167449E+03  0.7818608E-02  0.1136333E+00
         21   -1    0    0  501  502  0.00000000000E+00  0.00000000000E+00  0.70437805824E+03  0.70437805824E+03  0.00000000000E+00 0.  1.
         21   -1    0    0  502  503 -0.00000000000E+00 -0.00000000000E+00 -0.85452474331E+02  0.85452474331E+02  0.00000000000E+00 0.  1.
          6    1    1    2  501    0 -0.12114862862E+03 -0.52128499367E+02  0.49448796481E+03  0.53990436006E+03  0.17200000000E+03 0.  1.
         -6    1    1    2    0  503  0.12114862862E+03  0.52128499367E+02  0.12443761910E+03  0.24992617252E+03  0.17200000000E+03 0.  1.
</event>
<event>
 4    1  0.4653733E+000  0.1751659E+03  0.7818608E-02  0.1172565E+00
         21   -1    0    0  501  502  0.00000000000E+00  0.00000000000E+00  0.61741812857E+03  0.61741812857E+03  0.00000000000E+00 0. -1.
         21   -1    0    0  502  503 -0.00000000000E+00 -0.00000000000E+00 -0.12117603738E+03  0.12117603738E+03  0.00000000000E+00 0. -1.
          6    1    1    2  501    0  0.41547987223E+01  0.32891102737E+02  0.53175648992E+03  0.55986431532E+03  0.17200000000E+03 0. -1.
         -6    1    1    2    0  503 -0.41547987223E+01 -0.32891102737E+02 -0.35514398735E+02  0.17872985064E+03  0.17200000000E+03 0. -1.
</event>
<event>
 4    1  0.4653733E+000  0.1968327E+03  0.7818608E-02  0.1152439E+00
         21   -1    0    0  503  502  0.00000000000E+00  0.00000000000E+00  0.87086043987E+02  0.87086043987E+02  0.00000000000E+00 0.  1.
         21   -1    0    0  501  503 -0.00000000000E+00 -0.00000000000E+00 -0.45421304406E+03  0.45421304406E+03  0.00000000000E+00 0.  1.
          6    1    1    2  501    0  0.81467853548E+02  0.50220381507E+02 -0.14477347606E+03  0.24434086284E+03  0.17200000000E+03 0.  1.
         -6    1    1    2    0  502 -0.81467853548E+02 -0.50220381507E+02 -0.22235352401E+03  0.29695822521E+03  0.17200000000E+03 0.  1.
</event>
<event>
 4    1  0.4653733E+000  0.1791329E+03  0.7818608E-02  0.1168645E+00
         21   -1    0    0  501  502  0.00000000000E+00  0.00000000000E+00  0.16019683307E+03  0.16019683307E+03  0.00000000000E+00 0. -1.
         21   -1    0    0  502  503 -0.00000000000E+00 -0.00000000000E+00 -0.22764454104E+03  0.22764454104E+03  0.00000000000E+00 0. -1.
          6    1    1    2  501    0  0.50001474039E+02 -0.21070558500E+01  0.33476762815E+02  0.18223413714E+03  0.17200000000E+03 0.  1.
         -6    1    1    2    0  503 -0.50001474039E+02  0.21070558500E+01 -0.10092447079E+03  0.20560723697E+03  0.17200000000E+03 0.  1.
</event>
<event>
 4    1  0.4653733E+000  0.1911359E+03  0.7818608E-02  0.1157441E+00
         21   -1    0    0  503  502  0.00000000000E+00  0.00000000000E+00  0.25117851155E+03  0.25117851155E+03  0.00000000000E+00 0.  1.
         21   -1    0    0  501  503 -0.00000000000E+00 -0.00000000000E+00 -0.37791312370E+03  0.37791312370E+03  0.00000000000E+00 0.  1.
          6    1    1    2  501    0  0.24237206258E+02 -0.79758946969E+02 -0.31006700376E+03  0.36424508042E+03  0.17200000000E+03 0.  1.
         -6    1    1    2    0  502 -0.24237206258E+02  0.79758946969E+02  0.18333239161E+03  0.26484655483E+03  0.17200000000E+03 0.  1.
</event>
<event>
 4    1  0.4653733E+000  0.1720884E+03  0.7818608E-02  0.1175687E+00
         21   -1    0    0  503  502  0.00000000000E+00  0.00000000000E+00  0.15257916670E+03  0.15257916670E+03  0.00000000000E+00 0.  1.
         21   -1    0    0  501  503 -0.00000000000E+00 -0.00000000000E+00 -0.54951154434E+03  0.54951154434E+03  0.00000000000E+00 0.  1.
          6    1    1    2  501    0 -0.52926107758E+01  0.15475290122E+01 -0.48078864923E+03  0.51065852759E+03  0.17200000000E+03 0.  1.
         -6    1    1    2    0  502  0.52926107758E+01 -0.15475290122E+01  0.83856271594E+02  0.19143218345E+03  0.17200000000E+03 0.  1.
</event>
<event>
 4    1  0.4653733E+000  0.2055753E+03  0.7818608E-02  0.1145119E+00
         21   -1    0    0  503  502  0.00000000000E+00  0.00000000000E+00  0.30490564662E+03  0.30490564662E+03  0.00000000000E+00 0. -1.
         21   -1    0    0  501  503 -0.00000000000E+00 -0.00000000000E+00 -0.20546260665E+03  0.20546260665E+03  0.00000000000E+00 0.  1.
          6    1    1    2  501    0  0.11239612724E+03  0.66575921410E+01 -0.95846229260E+02  0.22682088223E+03  0.17200000000E+03 0.  1.
         -6    1    1    2    0  502 -0.11239612724E+03 -0.66575921410E+01  0.19528926923E+03  0.28354737105E+03  0.17200000000E+03 0. -1.
</event>
<event>
 4    1  0.4653733E+000  0.2006468E+03  0.7818608E-02  0.1149194E+00
         21   -1    0    0  501  502  0.00000000000E+00  0.00000000000E+00  0.11539955047E+03  0.11539955047E+03  0.00000000000E+00 0. -1.
         21   -1    0    0  502  503 -0.00000000000E+00 -0.00000000000E+00 -0.38633642114E+03  0.38633642114E+03  0.00000000000E+00 0.  1.
          6    1    1    2  501    0  0.94434397616E+02 -0.41920119699E+02 -0.57341992609E+02  0.20867979300E+03  0.17200000000E+03 0. -1.
         -6    1    1    2    0  503 -0.94434397616E+02  0.41920119699E+02 -0.21359487806E+03  0.29305617861E+03  0.17200000000E+03 0.  1.
</event>
<event>
 4    1  0.4653733E+000  0.2206571E+03  0.7818608E-02  0.1133394E+00
         21   -1    0    0  501  502  0.00000000000E+00  0.00000000000E+00  0.48482944171E+03  0.48482944171E+03  0.00000000000E+00 0.  1.
         21   -1    0    0  502  503 -0.00000000000E+00 -0.00000000000E+00 -0.12149257036E+03  0.12149257036E+03  0.00000000000E+00 0.  1.
          6    1    1    2  501    0 -0.53030937941E+02  0.12764516995E+03  0.30790742872E+03  0.37880939066E+03  0.17200000000E+03 0.  1.
         -6    1    1    2    0  503  0.53030937941E+02 -0.12764516995E+03  0.55429442635E+02  0.22751262141E+03  0.17200000000E+03 0.  1.
</event>
<event>
 4    1  0.4653733E+000  0.1858020E+03  0.7818608E-02  0.1162303E+00
         21   -1    0    0  503  502  0.00000000000E+00  0.00000000000E+00  0.20960738070E+03  0.20960738070E+03  0.00000000000E+00 0. -1.
         21   -1    0    0  501  503 -0.00000000000E+00 -0.00000000000E+00 -0.14963998666E+04  0.14963998666E+04  0.00000000000E+00 0. -1.
          6    1    1    2  501    0  0.35112758975E+02  0.60872729666E+02 -0.14480891579E+04  0.14599604804E+04  0.17200000000E+03 0. -1.
         -6    1    1    2    0  502 -0.35112758975E+02 -0.60872729666E+02  0.16129667206E+03  0.24604676685E+03  0.17200000000E+03 0. -1.
</event>
<event>
 4    1  0.4653733E+000  0.2013101E+03  0.7818608E-02  0.1148638E+00
         21   -1    0    0  503  502  0.00000000000E+00  0.00000000000E+00  0.31717357523E+03  0.31717357523E+03  0.00000000000E+00 0. -1.
         21   -1    0    0  501  503 -0.00000000000E+00 -0.00000000000E+00 -0.13389791063E+03  0.13389791063E+03  0.00000000000E+00 0. -1.
          6    1    1    2  501    0  0.22220972393E+02 -0.10221530844E+03  0.43395108783E+02  0.20593415540E+03  0.17200000000E+03 0. -1.
         -6    1    1    2    0  502 -0.22220972393E+02  0.10221530844E+03  0.13988055582E+03  0.24513733047E+03  0.17200000000E+03 0. -1.
</event>
<event>
 4    1  0.4653733E+000  0.2534485E+03  0.7818608E-02  0.1111145E+00
         21   -1    0    0  503  502  0.00000000000E+00  0.00000000000E+00  0.16442256490E+04  0.16442256490E+04  0.00000000000E+00 0.  1.
         21   -1    0    0  501  503 -0.00000000000E+00 -0.00000000000E+00 -0.15310316637E+03  0.15310316637E+03  0.00000000000E+00 0.  1.
          6    1    1    2  501    0 -0.17019168476E+03  0.75411731883E+02 -0.30016610348E+02  0.25521977933E+03  0.17200000000E+03 0.  1.
         -6    1    1    2    0  502  0.17019168476E+03 -0.75411731883E+02  0.15211390930E+04  0.15421090361E+04  0.17200000000E+03 0.  1.
</event>
<event>
 4    1  0.4653733E+000  0.2145607E+03  0.7818608E-02  0.1138004E+00
         21   -1    0    0  503  502  0.00000000000E+00  0.00000000000E+00  0.12352787821E+03  0.12352787821E+03  0.00000000000E+00 0.  1.
         21   -1    0    0  501  503 -0.00000000000E+00 -0.00000000000E+00 -0.59221785981E+03  0.59221785981E+03  0.00000000000E+00 0.  1.
          6    1    1    2  501    0 -0.11644715911E+03 -0.53780566242E+02 -0.45223803889E+03  0.50055522571E+03  0.17200000000E+03 0.  1.
         -6    1    1    2    0  502  0.11644715911E+03  0.53780566242E+02 -0.16451942709E+02  0.21519051231E+03  0.17200000000E+03 0.  1.
</event>
<event>
 4    1  0.4653733E+000  0.2036048E+03  0.7818608E-02  0.1146733E+00
         21   -1    0    0  501  502  0.00000000000E+00  0.00000000000E+00  0.11469004980E+03  0.11469004980E+03  0.00000000000E+00 0.  1.
         21   -1    0    0  502  503 -0.00000000000E+00 -0.00000000000E+00 -0.38573726515E+03  0.38573726515E+03  0.00000000000E+00 0.  1.
          6    1    1    2  501    0 -0.80785168503E+02  0.73107268456E+02 -0.72741034554E+02  0.21620863595E+03  0.17200000000E+03 0.  1.
         -6    1    1    2    0  503  0.80785168503E+02 -0.73107268456E+02 -0.19830618080E+03  0.28421867900E+03  0.17200000000E+03 0.  1.
</event>
<event>
 4    1  0.4653733E+000  0.1854366E+03  0.7818608E-02  0.1162643E+00
         21   -1    0    0  503  502  0.00000000000E+00  0.00000000000E+00  0.17308154692E+03  0.17308154692E+03  0.00000000000E+00 0.  1.
         21   -1    0    0  501  503 -0.00000000000E+00 -0.00000000000E+00 -0.19877731560E+03  0.19877731560E+03  0.00000000000E+00 0.  1.
          6    1    1    2  501    0 -0.29195912133E+02  0.62851678353E+02 -0.17094841450E+02  0.18622289967E+03  0.17200000000E+03 0.  1.
         -6    1    1    2    0  502  0.29195912133E+02 -0.62851678353E+02 -0.86009272301E+01  0.18563596286E+03  0.17200000000E+03 0.  1.
</event>
<event>
 4    1  0.4653733E+000  0.1928832E+03  0.7818608E-02  0.1155886E+00
         21   -1    0    0  503  502  0.00000000000E+00  0.00000000000E+00  0.16435315911E+04  0.16435315911E+04  0.00000000000E+00 0. -1.
         21   -1    0    0  501  503 -0.00000000000E+00 -0.00000000000E+00 -0.23533595833E+02  0.23533595833E+02  0.00000000000E+00 0. -1.
          6    1    1    2  501    0 -0.11250926704E+02 -0.86564095642E+02  0.64726446389E+03  0.67539263560E+03  0.17200000000E+03 0. -1.
         -6    1    1    2    0  502  0.11250926704E+02  0.86564095642E+02  0.97273353140E+03  0.99167255136E+03  0.17200000000E+03 0. -1.
</event>
<event>
 4    1  0.4653733E+000  0.2120040E+03  0.7818608E-02  0.1139989E+00
         21   -1    0    0  501  502  0.00000000000E+00  0.00000000000E+00  0.11284039748E+04  0.11284039748E+04  0.00000000000E+00 0. -1.
         21   -1    0    0  502  503 -0.00000000000E+00 -0.00000000000E+00 -0.43854463621E+02  0.43854463621E+02  0.00000000000E+00 0.  1.
          6    1    1    2  501    0  0.10068022201E+03  0.72285572696E+02  0.71980585283E+03  0.75037735633E+03  0.17200000000E+03 0.  1.
         -6    1    1    2    0  503 -0.10068022201E+03 -0.72285572696E+02  0.36474365837E+03  0.42188108211E+03  0.17200000000E+03 0.  1.
</event>
<event>
 4    1  0.4653733E+000  0.3562045E+03  0.7818608E-02  0.1060097E+00
         21   -1    0    0  503  502  0.00000000000E+00  0.00000000000E+00  0.43298695918E+03  0.43298695918E+03  0.00000000000E+00 0. -1.
         21   -1    0    0  501  503 -0.00000000000E+00 -0.00000000000E+00 -0.39090886435E+03  0.39090886435E+03  0.00000000000E+00 0. -1.
          6    1    1    2  501    0  0.22963799206E+03 -0.21110189570E+03 -0.18508626835E+03  0.40142065779E+03  0.17200000000E+03 0. -1.
         -6    1    1    2    0  502 -0.22963799206E+03  0.21110189570E+03  0.22716436319E+03  0.42247516574E+03  0.17200000000E+03 0. -1.
</event>
<event>
 4    1  0.4653733E+000  0.3317510E+03  0.7818608E-02  0.1070365E+00
         21   -1    0    0  503  502  0.00000000000E+00  0.00000000000E+00  0.63980010849E+03  0.63980010849E+03  0.00000000000E+00 0.  1.
         21   -1    0    0  501  503 -0.00000000000E+00 -0.00000000000E+00 -0.19042958434E+03  0.19042958434E+03  0.00000000000E+00 0.  1.
          6    1    1    2  501    0 -0.23146102923E+03 -0.16401374811E+03  0.95617594349E+02  0.34525561830E+03  0.17200000000E+03 0.  1.
         -6    1    1    2    0  502  0.23146102923E+03  0.16401374811E+03  0.35375292980E+03  0.48497407453E+03  0.17200000000E+03 0.  1.
</event>
<event>
 4    1  0.4653733E+000  0.1962938E+03  0.7818608E-02  0.1152904E+00
         21   -1    0    0  501  502  0.00000000000E+00  0.00000000000E+00  0.14119739815E+04  0.14119739815E+04  0.00000000000E+00 0.  1.
         21   -1    0    0  502  503 -0.00000000000E+00 -0.00000000000E+00 -0.61363949243E+03  0.61363949243E+03  0.00000000000E+00 0.  1.
          6    1    1    2  501    0 -0.46591722657E+02 -0.82319276946E+02  0.13891978158E+04  0.14029974424E+04  0.17200000000E+03 0.  1.
         -6    1    1    2    0  503  0.46591722657E+02  0.82319276946E+02 -0.59086332667E+03  0.62261603158E+03  0.17200000000E+03 0.  1.
</event>
<event>
 4    1  0.4653733E+000  0.2839990E+03  0.7818608E-02  0.1093525E+00
         21   -1    0    0  501  502  0.00000000000E+00  0.00000000000E+00  0.11275062172E+04  0.11275062172E+04  0.00000000000E+00 0.  1.
         21   -1    0    0  502  503 -0.00000000000E+00 -0.00000000000E+00 -0.49214186303E+03  0.49214186303E+03  0.00000000000E+00 0. -1.
          6    1    1    2  501    0  0.22171614435E+03  0.43742465248E+02  0.10663411097E+04  0.11035120363E+04  0.17200000000E+03 0.  1.
         -6    1    1    2    0  503 -0.22171614435E+03 -0.43742465248E+02 -0.43097675561E+03  0.51613604390E+03  0.17200000000E+03 0. -1.
</event>
<event>
 4    1  0.4653733E+000  0.3469100E+03  0.7818608E-02  0.1063891E+00
         21   -1    0    0  503  502  0.00000000000E+00  0.00000000000E+00  0.23088363597E+04  0.23088363597E+04  0.00000000000E+00 0.  1.
         21   -1    0    0  501  503 -0.00000000000E+00 -0.00000000000E+00 -0.59904631470E+02  0.59904631470E+02  0.00000000000E+00 0. -1.
          6    1    1    2  501    0 -0.21109095796E+03  0.21494912734E+03  0.69763488163E+03  0.77912832573E+03  0.17200000000E+03 0. -1.
         -6    1    1    2    0  502  0.21109095796E+03 -0.21494912734E+03  0.15512968466E+04  0.15896126654E+04  0.17200000000E+03 0.  1.
</event>
<event>
 4    1  0.4653733E+000  0.1894665E+03  0.7818608E-02  0.1158943E+00
         21   -1    0    0  503  502  0.00000000000E+00  0.00000000000E+00  0.36180592394E+03  0.36180592394E+03  0.00000000000E+00 0. -1.
         21   -1    0    0  501  503 -0.00000000000E+00 -0.00000000000E+00 -0.22843767216E+03  0.22843767216E+03  0.00000000000E+00 0. -1.
          6    1    1    2  501    0  0.74837683154E+02  0.26699402587E+02 -0.15527975782E+03  0.24496803895E+03  0.17200000000E+03 0. -1.
         -6    1    1    2    0  502 -0.74837683154E+02 -0.26699402587E+02  0.28864800960E+03  0.34527555715E+03  0.17200000000E+03 0. -1.
</event>
<event>
 4    1  0.4653733E+000  0.1887764E+03  0.7818608E-02  0.1159570E+00
         21   -1    0    0  503  502  0.00000000000E+00  0.00000000000E+00  0.79920385295E+03  0.79920385295E+03  0.00000000000E+00 0. -1.
         21   -1    0    0  501  503 -0.00000000000E+00 -0.00000000000E+00 -0.44886095795E+02  0.44886095795E+02  0.00000000000E+00 0. -1.
          6    1    1    2  501    0  0.72892709686E+02 -0.27187994909E+02  0.41143466105E+03  0.45267539640E+03  0.17200000000E+03 0. -1.
         -6    1    1    2    0  502 -0.72892709686E+02  0.27187994909E+02  0.34288309611E+03  0.39141455235E+03  0.17200000000E+03 0. -1.
</event>
<event>
 4    1  0.4653733E+000  0.1800250E+03  0.7818608E-02  0.1167779E+00
         21   -1    0    0  503  502  0.00000000000E+00  0.00000000000E+00  0.21827841351E+04  0.21827841351E+04  0.00000000000E+00 0. -1.
         21   -1    0    0  501  503 -0.00000000000E+00 -0.00000000000E+00 -0.14878941437E+02  0.14878941437E+02  0.00000000000E+00 0.  1.
          6    1    1    2  501    0 -0.42282173014E+02 -0.32206120846E+02  0.11344173293E+04  0.11486129433E+04  0.17200000000E+03 0. -1.
         -6    1    1    2    0  502  0.42282173014E+02  0.32206120846E+02  0.10334878644E+04  0.10490501333E+04  0.17200000000E+03 0.  1.
</event>
<event>
 4    1  0.4653733E+000  0.2126680E+03  0.7818608E-02  0.1139471E+00
         21   -1    0    0  503  502  0.00000000000E+00  0.00000000000E+00  0.44656320689E+03  0.44656320689E+03  0.00000000000E+00 0.  1.
         21   -1    0    0  501  503 -0.00000000000E+00 -0.00000000000E+00 -0.14452596844E+03  0.14452596844E+03  0.00000000000E+00 0.  1.
          6    1    1    2  501    0 -0.10554257322E+03  0.67115007260E+02 -0.10650038651E+02  0.21293445537E+03  0.17200000000E+03 0.  1.
         -6    1    1    2    0  502  0.10554257322E+03 -0.67115007260E+02  0.31268727710E+03  0.37815471995E+03  0.17200000000E+03 0.  1.
</event>
<event>
 4    1  0.4653733E+000  0.1903564E+03  0.7818608E-02  0.1158140E+00
         21   -1    0    0  503  502  0.00000000000E+00  0.00000000000E+00  0.55975607802E+03  0.55975607802E+03  0.00000000000E+00 0. -1.
         21   -1    0    0  501  503 -0.00000000000E+00 -0.00000000000E+00 -0.23840413510E+03  0.23840413510E+03  0.00000000000E+00 0. -1.
          6    1    1    2  501    0 -0.67234576042E+02  0.46163414267E+02 -0.17994006463E+03  0.26194269582E+03  0.17200000000E+03 0. -1.
         -6    1    1    2    0  502  0.67234576042E+02 -0.46163414267E+02  0.50129200755E+03  0.53621751730E+03  0.17200000000E+03 0. -1.
</event>
<event>
 4    1  0.4653733E+000  0.1848032E+03  0.7818608E-02  0.1163234E+00
         21   -1    0    0  503  502  0.00000000000E+00  0.00000000000E+00  0.16159485900E+02  0.16159485900E+02  0.00000000000E+00 0. -1.
         21   -1    0    0  501  503 -0.00000000000E+00 -0.00000000000E+00 -0.23209404538E+04  0.23209404538E+04  0.00000000000E+00 0. -1.
          6    1    1    2  501    0 -0.61071177430E+02 -0.28957680381E+02 -0.15017851420E+04  0.15131129663E+04  0.17200000000E+03 0. -1.
         -6    1    1    2    0  502  0.61071177430E+02  0.28957680381E+02 -0.80299582584E+03  0.82398697337E+03  0.17200000000E+03 0. -1.
</event>
<event>
 4    1  0.4653733E+000  0.2587131E+03  0.7818608E-02  0.1107919E+00
         21   -1    0    0  501  502  0.00000000000E+00  0.00000000000E+00  0.42125565703E+03  0.42125565703E+03  0.00000000000E+00 0. -1.
         21   -1    0    0  502  503 -0.00000000000E+00 -0.00000000000E+00 -0.60020927532E+03  0.60020927532E+03  0.00000000000E+00 0. -1.
          6    1    1    2  501    0  0.82491054542E+02  0.17476757685E+03  0.34846815202E+03  0.43400752640E+03  0.17200000000E+03 0. -1.
         -6    1    1    2    0  503 -0.82491054542E+02 -0.17476757685E+03 -0.52742177032E+03  0.58745740595E+03  0.17200000000E+03 0. -1.
</event>
<event>
 4    1  0.4653733E+000  0.3093356E+03  0.7818608E-02  0.1080665E+00
         21   -1    0    0  501  502  0.00000000000E+00  0.00000000000E+00  0.13674839452E+03  0.13674839452E+03  0.00000000000E+00 0. -1.
         21   -1    0    0  502  503 -0.00000000000E+00 -0.00000000000E+00 -0.12380561235E+04  0.12380561235E+04  0.00000000000E+00 0. -1.
          6    1    1    2  501    0 -0.10833140952E+03  0.23317125733E+03 -0.97381888414E+02  0.32430196071E+03  0.17200000000E+03 0. -1.
         -6    1    1    2    0  503  0.10833140952E+03 -0.23317125733E+03 -0.10039258405E+04  0.10505025573E+04  0.17200000000E+03 0. -1.
</event>
<event>
 4    1  0.4653733E+000  0.2191666E+03  0.7818608E-02  0.1134506E+00
         21   -1    0    0  503  502  0.00000000000E+00  0.00000000000E+00  0.49797661870E+03  0.49797661870E+03  0.00000000000E+00 0.  1.
         21   -1    0    0  501  503 -0.00000000000E+00 -0.00000000000E+00 -0.11461334814E+03  0.11461334814E+03  0.00000000000E+00 0. -1.
          6    1    1    2  501    0 -0.42098570748E+02  0.12914224018E+03  0.69776985452E+02  0.23000616417E+03  0.17200000000E+03 0.  1.
         -6    1    1    2    0  502  0.42098570748E+02 -0.12914224018E+03  0.31358628510E+03  0.38258380267E+03  0.17200000000E+03 0.  1.
</event>
<event>
 4    1  0.4653733E+000  0.1997659E+03  0.7818608E-02  0.1149937E+00
         21   -1    0    0  503  502  0.00000000000E+00  0.00000000000E+00  0.97578831135E+02  0.97578831135E+02  0.00000000000E+00 0.  1.
         21   -1    0    0  501  503 -0.00000000000E+00 -0.00000000000E+00 -0.64252839078E+03  0.64252839078E+03  0.00000000000E+00 0.  1.
          6    1    1    2  501    0  0.10064826330E+03 -0.13868165888E+02 -0.49558536878E+03  0.53433253380E+03  0.17200000000E+03 0.  1.
         -6    1    1    2    0  502 -0.10064826330E+03  0.13868165888E+02 -0.49364190869E+02  0.20577468812E+03  0.17200000000E+03 0.  1.
</event>
<event>
 4    1  0.4653733E+000  0.2475015E+03  0.7818608E-02  0.1114894E+00
         21   -1    0    0  503  502  0.00000000000E+00  0.00000000000E+00  0.48936994012E+03  0.48936994012E+03  0.00000000000E+00 0.  1.
         21   -1    0    0  501  503 -0.00000000000E+00 -0.00000000000E+00 -0.13175406386E+03  0.13175406386E+03  0.00000000000E+00 0.  1.
          6    1    1    2  501    0 -0.15734377292E+03  0.83162061034E+02  0.10941088872E+03  0.27060623393E+03  0.17200000000E+03 0.  1.
         -6    1    1    2    0  502  0.15734377292E+03 -0.83162061034E+02  0.24820498754E+03  0.35051777004E+03  0.17200000000E+03 0.  1.
</event>
<event>
 4    1  0.4653733E+000  0.2076775E+03  0.7818608E-02  0.1143418E+00
         21   -1    0    0  503  502  0.00000000000E+00  0.00000000000E+00  0.25963728454E+03  0.25963728454E+03  0.00000000000E+00 0.  1.
         21   -1    0    0  501  503 -0.00000000000E+00 -0.00000000000E+00 -0.23380996405E+03  0.23380996405E+03  0.00000000000E+00 0.  1.
          6    1    1    2  501    0 -0.10238966657E+03 -0.55338173731E+02 -0.11984216365E+03  0.23977510605E+03  0.17200000000E+03 0.  1.
         -6    1    1    2    0  502  0.10238966657E+03  0.55338173731E+02  0.14566948414E+03  0.25367214254E+03  0.17200000000E+03 0.  1.
</event>
<event>
 4    1  0.4653733E+000  0.1846681E+03  0.7818608E-02  0.1163360E+00
         21   -1    0    0  503  502  0.00000000000E+00  0.00000000000E+00  0.32360318792E+03  0.32360318792E+03  0.00000000000E+00 0.  1.
         21   -1    0    0  501  503 -0.00000000000E+00 -0.00000000000E+00 -0.19775925051E+03  0.19775925051E+03  0.00000000000E+00 0.  1.
          6    1    1    2  501    0 -0.58321085616E+02  0.33421163764E+02 -0.11524252295E+03  0.21767673810E+03  0.17200000000E+03 0.  1.
         -6    1    1    2    0  502  0.58321085616E+02 -0.33421163764E+02  0.24108646036E+03  0.30368570033E+03  0.17200000000E+03 0.  1.
</event>
<event>
 4    1  0.4653733E+000  0.1776003E+03  0.7818608E-02  0.1170146E+00
         21   -1    0    0  501  502  0.00000000000E+00  0.00000000000E+00  0.30351522937E+03  0.30351522937E+03  0.00000000000E+00 0.  1.
         21   -1    0    0  502  503 -0.00000000000E+00 -0.00000000000E+00 -0.10438074924E+03  0.10438074924E+03  0.00000000000E+00 0.  1.
          6    1    1    2  501    0  0.41520902090E+02 -0.15293214424E+02  0.11308990580E+03  0.21054974356E+03  0.17200000000E+03 0.  1.
         -6    1    1    2    0  503 -0.41520902090E+02  0.15293214424E+02  0.86044574327E+02  0.19734623505E+03  0.17200000000E+03 0.  1.
</event>
<event>
 4    1  0.4653733E+000  0.2425883E+03  0.7818608E-02  0.1118081E+00
         21   -1    0    0  503  502  0.00000000000E+00  0.00000000000E+00  0.35415759385E+03  0.35415759385E+03  0.00000000000E+00 0. -1.
         21   -1    0    0  501  503 -0.00000000000E+00 -0.00000000000E+00 -0.18071528804E+03  0.18071528804E+03  0.00000000000E+00 0. -1.
          6    1    1    2  501    0  0.15970744539E+03  0.61307417370E+02  0.10839097577E+02  0.24283029789E+03  0.17200000000E+03 0.  1.
         -6    1    1    2    0  502 -0.15970744539E+03 -0.61307417370E+02  0.16260320823E+03  0.29204258399E+03  0.17200000000E+03 0.  1.
</event>
<event>
 4    1  0.4653733E+000  0.1999331E+03  0.7818608E-02  0.1149795E+00
         21   -1    0    0  501  502  0.00000000000E+00  0.00000000000E+00  0.51875436033E+03  0.51875436033E+03  0.00000000000E+00 0.  1.
         21   -1    0    0  502  503 -0.00000000000E+00 -0.00000000000E+00 -0.16159399788E+03  0.16159399788E+03  0.00000000000E+00 0.  1.
          6    1    1    2  501    0  0.41693485684E+02 -0.93010284787E+02  0.42462492887E+03  0.46933952534E+03  0.17200000000E+03 0.  1.
         -6    1    1    2    0  503 -0.41693485684E+02  0.93010284787E+02 -0.67464566422E+02  0.21100883287E+03  0.17200000000E+03 0.  1.
</event>
<event>
 4    1  0.4653733E+000  0.2667306E+03  0.7818608E-02  0.1103165E+00
         21   -1    0    0  501  502  0.00000000000E+00  0.00000000000E+00  0.15106196601E+03  0.15106196601E+03  0.00000000000E+00 0. -1.
         21   -1    0    0  502  503 -0.00000000000E+00 -0.00000000000E+00 -0.54883738992E+03  0.54883738992E+03  0.00000000000E+00 0. -1.
          6    1    1    2  501    0  0.13828282114E+03  0.14979679327E+03 -0.67071260885E+02  0.27503412867E+03  0.17200000000E+03 0. -1.
         -6    1    1    2    0  503 -0.13828282114E+03 -0.14979679327E+03 -0.33070416302E+03  0.42486522726E+03  0.17200000000E+03 0. -1.
</event>
<event>
 4    1  0.4653733E+000  0.2777153E+03  0.7818608E-02  0.1096943E+00
         21   -1    0    0  501  502  0.00000000000E+00  0.00000000000E+00  0.10647385531E+04  0.10647385531E+04  0.00000000000E+00 0. -1.
         21   -1    0    0  502  503 -0.00000000000E+00 -0.00000000000E+00 -0.72499893975E+02  0.72499893975E+02  0.00000000000E+00 0. -1.
          6    1    1    2  501    0 -0.20011659023E+03  0.86574592852E+02  0.51294904048E+03  0.58330311840E+03  0.17200000000E+03 0. -1.
         -6    1    1    2    0  503  0.20011659023E+03 -0.86574592852E+02  0.47928961869E+03  0.55393532871E+03  0.17200000000E+03 0. -1.
</event>
<event>
 4    1  0.4653733E+000  0.2010149E+03  0.7818608E-02  0.1148886E+00
         21   -1    0    0  501  502  0.00000000000E+00  0.00000000000E+00  0.23974110683E+03  0.23974110683E+03  0.00000000000E+00 0.  1.
         21   -1    0    0  502  503 -0.00000000000E+00 -0.00000000000E+00 -0.47945413841E+03  0.47945413841E+03  0.00000000000E+00 0.  1.
          6    1    1    2  501    0 -0.10093067715E+03 -0.25219167359E+02  0.16971809190E+03  0.26308028948E+03  0.17200000000E+03 0.  1.
         -6    1    1    2    0  503  0.10093067715E+03  0.25219167359E+02 -0.40943112348E+03  0.45611495576E+03  0.17200000000E+03 0.  1.
</event>
<event>
 4    1  0.4653733E+000  0.2148891E+03  0.7818608E-02  0.1137752E+00
         21   -1    0    0  503  502  0.00000000000E+00  0.00000000000E+00  0.28175668117E+02  0.28175668117E+02  0.00000000000E+00 0. -1.
         21   -1    0    0  501  503 -0.00000000000E+00 -0.00000000000E+00 -0.16790370084E+04  0.16790370084E+04  0.00000000000E+00 0.  1.
          6    1    1    2  501    0 -0.91695815987E+02 -0.90472062680E+02 -0.95739569384E+03  0.98121548672E+03  0.17200000000E+03 0. -1.
         -6    1    1    2    0  502  0.91695815987E+02  0.90472062680E+02 -0.69346564643E+03  0.72599718978E+03  0.17200000000E+03 0.  1.
</event>
<event>
 4    1  0.4653733E+000  0.1860981E+03  0.7818608E-02  0.1162028E+00
         21   -1    0    0  501  502  0.00000000000E+00  0.00000000000E+00  0.76443990748E+03  0.76443990748E+03  0.00000000000E+00 0.  1.
         21   -1    0    0  502  503 -0.00000000000E+00 -0.00000000000E+00 -0.45763744648E+02  0.45763744648E+02  0.00000000000E+00 0.  1.
          6    1    1    2  501    0 -0.14827747321E+02 -0.69488380365E+02  0.31875274059E+03  0.36910135021E+03  0.17200000000E+03 0.  1.
         -6    1    1    2    0  503  0.14827747321E+02  0.69488380365E+02  0.39992342224E+03  0.44110230192E+03  0.17200000000E+03 0.  1.
</event>
<event>
 4    1  0.4653733E+000  0.3169005E+03  0.7818608E-02  0.1077085E+00
         21   -1    0    0  501  502  0.00000000000E+00  0.00000000000E+00  0.79877872757E+03  0.79877872757E+03  0.00000000000E+00 0. -1.
         21   -1    0    0  502  503 -0.00000000000E+00 -0.00000000000E+00 -0.17227861297E+03  0.17227861297E+03  0.00000000000E+00 0.  1.
          6    1    1    2  501    0 -0.12239621832E+03  0.23634951871E+03  0.56564402191E+03  0.64836647722E+03  0.17200000000E+03 0. -1.
         -6    1    1    2    0  503  0.12239621832E+03 -0.23634951871E+03  0.60856092689E+02  0.32269086332E+03  0.17200000000E+03 0.  1.
</event>
<event>
 4    1  0.4653733E+000  0.1876322E+03  0.7818608E-02  0.1160614E+00
         21   -1    0    0  501  502  0.00000000000E+00  0.00000000000E+00  0.11631638082E+03  0.11631638082E+03  0.00000000000E+00 0. -1.
         21   -1    0    0  502  503 -0.00000000000E+00 -0.00000000000E+00 -0.36190769334E+03  0.36190769334E+03  0.00000000000E+00 0. -1.
          6    1    1    2  501    0 -0.30410118175E+02  0.68535215775E+02 -0.26059266762E+02  0.18943319792E+03  0.17200000000E+03 0. -1.
         -6    1    1    2    0  503  0.30410118175E+02 -0.68535215775E+02 -0.21953204575E+03  0.28879087624E+03  0.17200000000E+03 0. -1.
</event>
<event>
 4    1  0.4653733E+000  0.1730214E+03  0.7818608E-02  0.1174733E+00
         21   -1    0    0  501  502  0.00000000000E+00  0.00000000000E+00  0.44119374472E+03  0.44119374472E+03  0.00000000000E+00 0. -1.
         21   -1    0    0  502  503 -0.00000000000E+00 -0.00000000000E+00 -0.82541652730E+02  0.82541652730E+02  0.00000000000E+00 0.  1.
          6    1    1    2  501    0  0.12561135248E+02 -0.13950242252E+02  0.28979339025E+03  0.33751533359E+03  0.17200000000E+03 0. -1.
         -6    1    1    2    0  503 -0.12561135248E+02  0.13950242252E+02  0.68858701741E+02  0.18622006386E+03  0.17200000000E+03 0.  1.
</event>
<event>
 4    1  0.4653733E+000  0.1877698E+03  0.7818608E-02  0.1160488E+00
         21   -1    0    0  501  502  0.00000000000E+00  0.00000000000E+00  0.18769174718E+03  0.18769174718E+03  0.00000000000E+00 0. -1.
         21   -1    0    0  502  503 -0.00000000000E+00 -0.00000000000E+00 -0.53353097803E+03  0.53353097803E+03  0.00000000000E+00 0. -1.
          6    1    1    2  501    0  0.74683075574E+02 -0.97948903689E+01  0.11734803872E+03  0.22142281690E+03  0.17200000000E+03 0. -1.
         -6    1    1    2    0  503 -0.74683075574E+02  0.97948903689E+01 -0.46318726957E+03  0.49979990831E+03  0.17200000000E+03 0. -1.
</event>
<event>
 4    1  0.4653733E+000  0.2028966E+03  0.7818608E-02  0.1147318E+00
         21   -1    0    0  501  502  0.00000000000E+00  0.00000000000E+00  0.56062853164E+03  0.56062853164E+03  0.00000000000E+00 0.  1.
         21   -1    0    0  502  503 -0.00000000000E+00 -0.00000000000E+00 -0.10659258537E+03  0.10659258537E+03  0.00000000000E+00 0.  1.
          6    1    1    2  501    0  0.81154228780E+02  0.70689602089E+02  0.41309792995E+03  0.46023573136E+03  0.17200000000E+03 0.  1.
         -6    1    1    2    0  503 -0.81154228780E+02 -0.70689602089E+02  0.40938016318E+02  0.20698538565E+03  0.17200000000E+03 0.  1.
</event>
<event>
 4    1  0.4653733E+000  0.1993442E+03  0.7818608E-02  0.1150293E+00
         21   -1    0    0  501  502  0.00000000000E+00  0.00000000000E+00  0.27856131578E+03  0.27856131578E+03  0.00000000000E+00 0.  1.
         21   -1    0    0  502  503 -0.00000000000E+00 -0.00000000000E+00 -0.14063825828E+04  0.14063825828E+04  0.00000000000E+00 0. -1.
          6    1    1    2  501    0  0.70857137913E+02 -0.71647676907E+02  0.23469150274E+03  0.30792568106E+03  0.17200000000E+03 0.  1.
         -6    1    1    2    0  503 -0.70857137913E+02  0.71647676907E+02 -0.13625127698E+04  0.13770182175E+04  0.17200000000E+03 0. -1.
</event>
<event>
 4    1  0.4653733E+000  0.1859824E+03  0.7818608E-02  0.1162136E+00
         21   -1    0    0  501  502  0.00000000000E+00  0.00000000000E+00  0.13115149395E+03  0.13115149395E+03  0.00000000000E+00 0. -1.
         21   -1    0    0  502  503 -0.00000000000E+00 -0.00000000000E+00 -0.36240395767E+03  0.36240395767E+03  0.00000000000E+00 0. -1.
          6    1    1    2  501    0 -0.19259027921E+02  0.68077433326E+02  0.13138306295E+02  0.18644586929E+03  0.17200000000E+03 0. -1.
         -6    1    1    2    0  503  0.19259027921E+02 -0.68077433326E+02 -0.24439077002E+03  0.30710958232E+03  0.17200000000E+03 0. -1.
</event>
<event>
 4    1  0.4653733E+000  0.3020861E+03  0.7818608E-02  0.1084202E+00
         21   -1    0    0  501  502  0.00000000000E+00  0.00000000000E+00  0.23574123825E+03  0.23574123825E+03  0.00000000000E+00 0.  1.
         21   -1    0    0  502  503 -0.00000000000E+00 -0.00000000000E+00 -0.41499821074E+03  0.41499821074E+03  0.00000000000E+00 0. -1.
          6    1    1    2  501    0  0.17198573011E+03  0.17914495096E+03 -0.52710576795E+01  0.30213207189E+03  0.17200000000E+03 0.  1.
         -6    1    1    2    0  503 -0.17198573011E+03 -0.17914495096E+03 -0.17398591481E+03  0.34860737710E+03  0.17200000000E+03 0. -1.
</event>
<event>
 4    1  0.4653733E+000  0.1866539E+03  0.7818608E-02  0.1161514E+00
         21   -1    0    0  501  502  0.00000000000E+00  0.00000000000E+00  0.14550913277E+03  0.14550913277E+03  0.00000000000E+00 0. -1.
         21   -1    0    0  502  503 -0.00000000000E+00 -0.00000000000E+00 -0.55669940016E+03  0.55669940016E+03  0.00000000000E+00 0.  1.
          6    1    1    2  501    0 -0.52284098089E+02  0.50219992398E+02  0.59460985386E+02  0.19589610341E+03  0.17200000000E+03 0. -1.
         -6    1    1    2    0  503  0.52284098089E+02 -0.50219992398E+02 -0.47065125277E+03  0.50631242952E+03  0.17200000000E+03 0.  1.
</event>
<event>
 4    1  0.4653733E+000  0.2004000E+03  0.7818608E-02  0.1149402E+00
         21   -1    0    0  501  502  0.00000000000E+00  0.00000000000E+00  0.19921958159E+02  0.19921958159E+02  0.00000000000E+00 0.  1.
         21   -1    0    0  502  503 -0.00000000000E+00 -0.00000000000E+00 -0.20161000858E+04  0.20161000858E+04  0.00000000000E+00 0.  1.
          6    1    1    2  501    0 -0.69795017193E+02  0.75530272170E+02 -0.98731943302E+03  0.10074521474E+04  0.17200000000E+03 0.  1.
         -6    1    1    2    0  503  0.69795017193E+02 -0.75530272170E+02 -0.10088586946E+04  0.10285698966E+04  0.17200000000E+03 0.  1.
</event>
<event>
 4    1  0.4653733E+000  0.1942957E+03  0.7818608E-02  0.1154643E+00
         21   -1    0    0  503  502  0.00000000000E+00  0.00000000000E+00  0.10711571644E+03  0.10711571644E+03  0.00000000000E+00 0. -1.
         21   -1    0    0  501  503 -0.00000000000E+00 -0.00000000000E+00 -0.38873819627E+03  0.38873819627E+03  0.00000000000E+00 0.  1.
          6    1    1    2  501    0 -0.89100426631E+02  0.15097770391E+02 -0.21658091527E+03  0.29096068730E+03  0.17200000000E+03 0.  1.
         -6    1    1    2    0  502  0.89100426631E+02 -0.15097770391E+02 -0.65041564567E+02  0.20489322541E+03  0.17200000000E+03 0.  1.
</event>
<event>
 4    1  0.4653733E+000  0.2498953E+03  0.7818608E-02  0.1113371E+00
         21   -1    0    0  501  502  0.00000000000E+00  0.00000000000E+00  0.42638298948E+03  0.42638298948E+03  0.00000000000E+00 0.  1.
         21   -1    0    0  502  503 -0.00000000000E+00 -0.00000000000E+00 -0.14686223092E+03  0.14686223092E+03  0.00000000000E+00 0.  1.
          6    1    1    2  501    0 -0.17838811179E+03 -0.32269952929E+02  0.15477724180E+03  0.29394499974E+03  0.17200000000E+03 0.  1.
         -6    1    1    2    0  503  0.17838811179E+03  0.32269952929E+02  0.12474351676E+03  0.27930022067E+03  0.17200000000E+03 0.  1.
</event>
<event>
 4    1  0.4653733E+000  0.2465716E+03  0.7818608E-02  0.1115491E+00
         21   -1    0    0  501  502  0.00000000000E+00  0.00000000000E+00  0.50992620116E+02  0.50992620116E+02  0.00000000000E+00 0. -1.
         21   -1    0    0  502  503 -0.00000000000E+00 -0.00000000000E+00 -0.22332236721E+04  0.22332236721E+04  0.00000000000E+00 0.  1.
          6    1    1    2  501    0  0.57102251206E+02 -0.16719118738E+03 -0.31136727576E+03  0.39717394255E+03  0.17200000000E+03 0. -1.
         -6    1    1    2    0  503 -0.57102251206E+02  0.16719118738E+03 -0.18708637763E+04  0.18870423497E+04  0.17200000000E+03 0.  1.
</event>
<event>
 4    1  0.4653733E+000  0.1935258E+03  0.7818608E-02  0.1155319E+00
         21   -1    0    0  501  502  0.00000000000E+00  0.00000000000E+00  0.85381713849E+03  0.85381713849E+03  0.00000000000E+00 0.  1.
         21   -1    0    0  502  503 -0.00000000000E+00 -0.00000000000E+00 -0.47284474626E+02  0.47284474626E+02  0.00000000000E+00 0. -1.
          6    1    1    2  501    0  0.40159967807E+02  0.79091172397E+02  0.52443708621E+03  0.55900491407E+03  0.17200000000E+03 0.  1.
         -6    1    1    2    0  503 -0.40159967807E+02 -0.79091172397E+02  0.28209557766E+03  0.34209669905E+03  0.17200000000E+03 0. -1.
</event>
<event>
 4    1  0.4653733E+000  0.1741301E+03  0.7818608E-02  0.1173608E+00
         21   -1    0    0  501  502  0.00000000000E+00  0.00000000000E+00  0.17673767173E+03  0.17673767173E+03  0.00000000000E+00 0.  1.
         21   -1    0    0  502  503 -0.00000000000E+00 -0.00000000000E+00 -0.17233361220E+03  0.17233361220E+03  0.00000000000E+00 0.  1.
          6    1    1    2  501    0 -0.16490400821E+02  0.21572071163E+02 -0.94845243964E+01  0.17438819850E+03  0.17200000000E+03 0.  1.
         -6    1    1    2    0  503  0.16490400821E+02 -0.21572071163E+02  0.13888583928E+02  0.17468308543E+03  0.17200000000E+03 0.  1.
</event>
<event>
 4    1  0.4653733E+000  0.2785909E+03  0.7818608E-02  0.1096461E+00
         21   -1    0    0  501  502  0.00000000000E+00  0.00000000000E+00  0.21370155600E+03  0.21370155600E+03  0.00000000000E+00 0. -1.
         21   -1    0    0  502  503 -0.00000000000E+00 -0.00000000000E+00 -0.61168669599E+03  0.61168669599E+03  0.00000000000E+00 0.  1.
          6    1    1    2  501    0  0.21632660502E+03 -0.35095457202E+02  0.64052223346E+02  0.28585936835E+03  0.17200000000E+03 0. -1.
         -6    1    1    2    0  503 -0.21632660502E+03  0.35095457202E+02 -0.46203736333E+03  0.53952888363E+03  0.17200000000E+03 0.  1.
</event>
<event>
 4    1  0.4653733E+000  0.1733718E+03  0.7818608E-02  0.1174377E+00
         21   -1    0    0  501  502  0.00000000000E+00  0.00000000000E+00  0.34040710505E+03  0.34040710505E+03  0.00000000000E+00 0.  1.
         21   -1    0    0  502  503 -0.00000000000E+00 -0.00000000000E+00 -0.94251821802E+02  0.94251821802E+02  0.00000000000E+00 0.  1.
          6    1    1    2  501    0 -0.10480177316E+02  0.19077585743E+02  0.17769311844E+03  0.24825920474E+03  0.17200000000E+03 0.  1.
         -6    1    1    2    0  503  0.10480177316E+02 -0.19077585743E+02  0.68462164804E+02  0.18639972211E+03  0.17200000000E+03 0.  1.
</event>
<event>
 4    1  0.4653733E+000  0.1811000E+03  0.7818608E-02  0.1166743E+00
         21   -1    0    0  503  502  0.00000000000E+00  0.00000000000E+00  0.84865796072E+02  0.84865796072E+02  0.00000000000E+00 0.  1.
         21   -1    0    0  501  503 -0.00000000000E+00 -0.00000000000E+00 -0.62087155116E+03  0.62087155116E+03  0.00000000000E+00 0.  1.
          6    1    1    2  501    0 -0.55505708530E+02  0.11503866016E+02 -0.48482414074E+03  0.51754388225E+03  0.17200000000E+03 0.  1.
         -6    1    1    2    0  502  0.55505708530E+02 -0.11503866016E+02 -0.51181614345E+02  0.18819346498E+03  0.17200000000E+03 0.  1.
</event>
<event>
 4    1  0.4653733E+000  0.1732847E+03  0.7818608E-02  0.1174465E+00
         21   -1    0    0  503  502  0.00000000000E+00  0.00000000000E+00  0.13690196120E+04  0.13690196120E+04  0.00000000000E+00 0. -1.
         21   -1    0    0  501  503 -0.00000000000E+00 -0.00000000000E+00 -0.42267907911E+02  0.42267907911E+02  0.00000000000E+00 0. -1.
          6    1    1    2  501    0 -0.30856924923E+01  0.20834059134E+02  0.17394152096E+03  0.24552643897E+03  0.17200000000E+03 0. -1.
         -6    1    1    2    0  502  0.30856924923E+01 -0.20834059134E+02  0.11528101832E+04  0.11657610810E+04  0.17200000000E+03 0. -1.
</event>
<event>
 4    1  0.4653733E+000  0.1880046E+03  0.7818608E-02  0.1160273E+00
         21   -1    0    0  501  502  0.00000000000E+00  0.00000000000E+00  0.25309322893E+03  0.25309322893E+03  0.00000000000E+00 0. -1.
         21   -1    0    0  502  503 -0.00000000000E+00 -0.00000000000E+00 -0.16828278084E+03  0.16828278084E+03  0.00000000000E+00 0. -1.
          6    1    1    2  501    0  0.15208144536E+02 -0.74367062320E+02  0.12930395433E+03  0.22817813266E+03  0.17200000000E+03 0. -1.
         -6    1    1    2    0  503 -0.15208144536E+02  0.74367062320E+02 -0.44493506248E+02  0.19319787710E+03  0.17200000000E+03 0. -1.
</event>
<event>
 4    1  0.4653733E+000  0.1846874E+03  0.7818608E-02  0.1163342E+00
         21   -1    0    0  503  502  0.00000000000E+00  0.00000000000E+00  0.87416560345E+02  0.87416560345E+02  0.00000000000E+00 0.  1.
         21   -1    0    0  501  503 -0.00000000000E+00 -0.00000000000E+00 -0.39239204331E+03  0.39239204331E+03  0.00000000000E+00 0.  1.
          6    1    1    2  501    0 -0.22437267390E+01  0.67233959005E+02 -0.13453333865E+03  0.22849214158E+03  0.17200000000E+03 0.  1.
         -6    1    1    2    0  502  0.22437267390E+01 -0.67233959005E+02 -0.17044214431E+03  0.25131646207E+03  0.17200000000E+03 0.  1.
</event>
<event>
 4    1  0.4653733E+000  0.3376449E+03  0.7818608E-02  0.1067803E+00
         21   -1    0    0  503  502  0.00000000000E+00  0.00000000000E+00  0.39248392032E+03  0.39248392032E+03  0.00000000000E+00 0. -1.
         21   -1    0    0  501  503 -0.00000000000E+00 -0.00000000000E+00 -0.29735404792E+03  0.29735404792E+03  0.00000000000E+00 0.  1.
          6    1    1    2  501    0 -0.45467986332E+02 -0.28697161703E+03 -0.49234221763E+01  0.33768074693E+03  0.17200000000E+03 0. -1.
         -6    1    1    2    0  502  0.45467986332E+02  0.28697161703E+03  0.10005329457E+03  0.35215722131E+03  0.17200000000E+03 0.  1.
</event>
<event>
 4    1  0.4653733E+000  0.2112035E+03  0.7818608E-02  0.1140616E+00
         21   -1    0    0  501  502  0.00000000000E+00  0.00000000000E+00  0.17081019889E+03  0.17081019889E+03  0.00000000000E+00 0. -1.
         21   -1    0    0  502  503 -0.00000000000E+00 -0.00000000000E+00 -0.26127499961E+03  0.26127499961E+03  0.00000000000E+00 0.  1.
          6    1    1    2  501    0 -0.57298731137E+02  0.10835019027E+03 -0.49977207218E+02  0.21703600983E+03  0.17200000000E+03 0.  1.
         -6    1    1    2    0  503  0.57298731137E+02 -0.10835019027E+03 -0.40487593502E+02  0.21504918867E+03  0.17200000000E+03 0. -1.
</event>
<event>
 4    1  0.4653733E+000  0.3343348E+03  0.7818608E-02  0.1069235E+00
         21   -1    0    0  501  502  0.00000000000E+00  0.00000000000E+00  0.43410512659E+03  0.43410512659E+03  0.00000000000E+00 0. -1.
         21   -1    0    0  502  503 -0.00000000000E+00 -0.00000000000E+00 -0.29446999981E+03  0.29446999981E+03  0.00000000000E+00 0. -1.
          6    1    1    2  501    0 -0.22660893408E+03 -0.17562504424E+03  0.19890373626E+03  0.38902758446E+03  0.17200000000E+03 0. -1.
         -6    1    1    2    0  503  0.22660893408E+03  0.17562504424E+03 -0.59268609475E+02  0.33954754194E+03  0.17200000000E+03 0. -1.
</event>
<event>
 4    1  0.4653733E+000  0.1993191E+03  0.7818608E-02  0.1150315E+00
         21   -1    0    0  503  502  0.00000000000E+00  0.00000000000E+00  0.35041381348E+02  0.35041381348E+02  0.00000000000E+00 0.  1.
         21   -1    0    0  501  503 -0.00000000000E+00 -0.00000000000E+00 -0.15458742988E+04  0.15458742988E+04  0.00000000000E+00 0.  1.
          6    1    1    2  501    0 -0.79785883193E+02  0.61467924270E+02 -0.11635542734E+04  0.11805027064E+04  0.17200000000E+03 0.  1.
         -6    1    1    2    0  502  0.79785883193E+02 -0.61467924270E+02 -0.34727864412E+03  0.40041297374E+03  0.17200000000E+03 0.  1.
</event>
<event>
 4    1  0.4653733E+000  0.2024374E+03  0.7818608E-02  0.1147699E+00
         21   -1    0    0  503  502  0.00000000000E+00  0.00000000000E+00  0.37255190078E+02  0.37255190078E+02  0.00000000000E+00 0.  1.
         21   -1    0    0  501  503 -0.00000000000E+00 -0.00000000000E+00 -0.11739679141E+04  0.11739679141E+04  0.00000000000E+00 0.  1.
          6    1    1    2  501    0  0.55136112625E+02  0.91416051512E+02 -0.72036694690E+03  0.74827095599E+03  0.17200000000E+03 0.  1.
         -6    1    1    2    0  502 -0.55136112625E+02 -0.91416051512E+02 -0.41634577716E+03  0.46295214823E+03  0.17200000000E+03 0.  1.
</event>
<event>
 4    1  0.4653733E+000  0.2395677E+03  0.7818608E-02  0.1120081E+00
         21   -1    0    0  503  502  0.00000000000E+00  0.00000000000E+00  0.18353636058E+03  0.18353636058E+03  0.00000000000E+00 0. -1.
         21   -1    0    0  501  503 -0.00000000000E+00 -0.00000000000E+00 -0.39623761688E+03  0.39623761688E+03  0.00000000000E+00 0. -1.
          6    1    1    2  501    0  0.13683162585E+03 -0.95319476460E+02 -0.23945107046E+03  0.33871745094E+03  0.17200000000E+03 0. -1.
         -6    1    1    2    0  502 -0.13683162585E+03  0.95319476460E+02  0.26749814164E+02  0.24105652653E+03  0.17200000000E+03 0. -1.
</event>
<event>
 4    1  0.4653733E+000  0.1889715E+03  0.7818608E-02  0.1159392E+00
         21   -1    0    0  501  502  0.00000000000E+00  0.00000000000E+00  0.29156535354E+03  0.29156535354E+03  0.00000000000E+00 0.  1.
         21   -1    0    0  502  503 -0.00000000000E+00 -0.00000000000E+00 -0.12760962062E+03  0.12760962062E+03  0.00000000000E+00 0. -1.
          6    1    1    2  501    0  0.68490745750E+02 -0.37884411266E+02  0.12400887894E+03  0.22602746056E+03  0.17200000000E+03 0.  1.
         -6    1    1    2    0  503 -0.68490745750E+02  0.37884411266E+02  0.39946853978E+02  0.19314751361E+03  0.17200000000E+03 0. -1.
</event>
<event>
 4    1  0.4653733E+000  0.2158583E+03  0.7818608E-02  0.1137009E+00
         21   -1    0    0  501  502  0.00000000000E+00  0.00000000000E+00  0.54715343693E+03  0.54715343693E+03  0.00000000000E+00 0. -1.
         21   -1    0    0  502  503 -0.00000000000E+00 -0.00000000000E+00 -0.90111230578E+02  0.90111230578E+02  0.00000000000E+00 0. -1.
          6    1    1    2  501    0  0.12732321500E+03 -0.28277388074E+02  0.30322083904E+03  0.37220651390E+03  0.17200000000E+03 0. -1.
         -6    1    1    2    0  503 -0.12732321500E+03  0.28277388074E+02  0.15382136730E+03  0.26505815361E+03  0.17200000000E+03 0. -1.
</event>
<event>
 4    1  0.4653733E+000  0.1908642E+03  0.7818608E-02  0.1157684E+00
         21   -1    0    0  501  502  0.00000000000E+00  0.00000000000E+00  0.21369072964E+03  0.21369072964E+03  0.00000000000E+00 0.  1.
         21   -1    0    0  502  503 -0.00000000000E+00 -0.00000000000E+00 -0.27904574333E+03  0.27904574333E+03  0.00000000000E+00 0.  1.
          6    1    1    2  501    0  0.79783000074E+02 -0.21904706965E+02  0.12099684721E+03  0.22598535422E+03  0.17200000000E+03 0.  1.
         -6    1    1    2    0  503 -0.79783000074E+02  0.21904706965E+02 -0.18635186091E+03  0.26675111875E+03  0.17200000000E+03 0.  1.
</event>
<event>
 4    1  0.4653733E+000  0.1865180E+03  0.7818608E-02  0.1161640E+00
         21   -1    0    0  503  502  0.00000000000E+00  0.00000000000E+00  0.24955760574E+02  0.24955760574E+02  0.00000000000E+00 0. -1.
         21   -1    0    0  501  503 -0.00000000000E+00 -0.00000000000E+00 -0.15898251340E+04  0.15898251340E+04  0.00000000000E+00 0.  1.
          6    1    1    2  501    0  0.67436935512E+02  0.25636553400E+02 -0.10657790484E+04  0.10819768728E+04  0.17200000000E+03 0.  1.
         -6    1    1    2    0  502 -0.67436935512E+02 -0.25636553400E+02 -0.49909032498E+03  0.53280402178E+03  0.17200000000E+03 0. -1.
</event>
<event>
 4    1  0.4653733E+000  0.1745881E+03  0.7818608E-02  0.1173146E+00
         21   -1    0    0  503  502  0.00000000000E+00  0.00000000000E+00  0.30471657775E+03  0.30471657775E+03  0.00000000000E+00 0. -1.
         21   -1    0    0  501  503 -0.00000000000E+00 -0.00000000000E+00 -0.10047442141E+03  0.10047442141E+03  0.00000000000E+00 0. -1.
          6    1    1    2  501    0 -0.25803312799E+02 -0.15205127942E+02  0.11558483912E+03  0.20938209546E+03  0.17200000000E+03 0. -1.
         -6    1    1    2    0  502  0.25803312799E+02  0.15205127942E+02  0.88657317220E+02  0.19580890369E+03  0.17200000000E+03 0. -1.
</event>
<event>
 4    1  0.4653733E+000  0.2033538E+03  0.7818608E-02  0.1146940E+00
         21   -1    0    0  503  502  0.00000000000E+00  0.00000000000E+00  0.37624079916E+02  0.37624079916E+02  0.00000000000E+00 0.  1.
         21   -1    0    0  501  503 -0.00000000000E+00 -0.00000000000E+00 -0.12946870169E+04  0.12946870169E+04  0.00000000000E+00 0. -1.
          6    1    1    2  501    0 -0.43671246938E+02  0.99305632866E+02 -0.88744725713E+03  0.91044792312E+03  0.17200000000E+03 0. -1.
         -6    1    1    2    0  502  0.43671246938E+02 -0.99305632866E+02 -0.36961567988E+03  0.42186317372E+03  0.17200000000E+03 0.  1.
</event>
<event>
 4    1  0.4653733E+000  0.1950405E+03  0.7818608E-02  0.1153992E+00
         21   -1    0    0  503  502  0.00000000000E+00  0.00000000000E+00  0.14543458814E+03  0.14543458814E+03  0.00000000000E+00 0. -1.
         21   -1    0    0  501  503 -0.00000000000E+00 -0.00000000000E+00 -0.26327626388E+03  0.26327626388E+03  0.00000000000E+00 0. -1.
          6    1    1    2  501    0  0.86310307510E+02  0.31738403494E+02 -0.42451864891E+02  0.19960700457E+03  0.17200000000E+03 0. -1.
         -6    1    1    2    0  502 -0.86310307510E+02 -0.31738403494E+02 -0.75389810852E+02  0.20910384745E+03  0.17200000000E+03 0. -1.
</event>
<event>
 4    1  0.4653733E+000  0.2609478E+03  0.7818608E-02  0.1106575E+00
         21   -1    0    0  503  502  0.00000000000E+00  0.00000000000E+00  0.36276449566E+03  0.36276449566E+03  0.00000000000E+00 0.  1.
         21   -1    0    0  501  503 -0.00000000000E+00 -0.00000000000E+00 -0.23396056767E+03  0.23396056767E+03  0.00000000000E+00 0.  1.
          6    1    1    2  501    0  0.19177717976E+03  0.41608743164E+02  0.19706232705E+03  0.32699745401E+03  0.17200000000E+03 0.  1.
         -6    1    1    2    0  502 -0.19177717976E+03 -0.41608743164E+02 -0.68258399057E+02  0.26972760932E+03  0.17200000000E+03 0.  1.
</event>
<event>
 4    1  0.4653733E+000  0.2151760E+03  0.7818608E-02  0.1137531E+00
         21   -1    0    0  503  502  0.00000000000E+00  0.00000000000E+00  0.82381298343E+03  0.82381298343E+03  0.00000000000E+00 0. -1.
         21   -1    0    0  501  503 -0.00000000000E+00 -0.00000000000E+00 -0.56202959533E+02  0.56202959533E+02  0.00000000000E+00 0. -1.
          6    1    1    2  501    0 -0.11897885683E+03 -0.50603902927E+02  0.38366927954E+03  0.43988957641E+03  0.17200000000E+03 0. -1.
         -6    1    1    2    0  502  0.11897885683E+03  0.50603902927E+02  0.38394074435E+03  0.44012636656E+03  0.17200000000E+03 0. -1.
</event>
<event>
 4    1  0.4653733E+000  0.2040926E+03  0.7818608E-02  0.1146331E+00
         21   -1    0    0  501  502  0.00000000000E+00  0.00000000000E+00  0.90456271065E+03  0.90456271065E+03  0.00000000000E+00 0.  1.
         21   -1    0    0  502  503 -0.00000000000E+00 -0.00000000000E+00 -0.48391866346E+02  0.48391866346E+02  0.00000000000E+00 0. -1.
          6    1    1    2  501    0  0.46781771667E+02 -0.99404441894E+02  0.53293675037E+03  0.57067973253E+03  0.17200000000E+03 0. -1.
         -6    1    1    2    0  503 -0.46781771667E+02  0.99404441894E+02  0.32323409394E+03  0.38227484447E+03  0.17200000000E+03 0.  1.
</event>
<event>
 4    1  0.4653733E+000  0.1772802E+03  0.7818608E-02  0.1170462E+00
         21   -1    0    0  503  502  0.00000000000E+00  0.00000000000E+00  0.10458960581E+03  0.10458960581E+03  0.00000000000E+00 0. -1.
         21   -1    0    0  501  503 -0.00000000000E+00 -0.00000000000E+00 -0.10036882652E+04  0.10036882652E+04  0.00000000000E+00 0. -1.
          6    1    1    2  501    0 -0.39619054030E+02 -0.16570842061E+02 -0.91337817057E+03  0.93042352976E+03  0.17200000000E+03 0. -1.
         -6    1    1    2    0  502  0.39619054030E+02  0.16570842061E+02  0.14279511223E+02  0.17785434122E+03  0.17200000000E+03 0. -1.
</event>
<event>
 4    1  0.4653733E+000  0.2157793E+03  0.7818608E-02  0.1137069E+00
         21   -1    0    0  503  502  0.00000000000E+00  0.00000000000E+00  0.79062815727E+03  0.79062815727E+03  0.00000000000E+00 0. -1.
         21   -1    0    0  501  503 -0.00000000000E+00 -0.00000000000E+00 -0.60254793815E+02  0.60254793815E+02  0.00000000000E+00 0.  1.
          6    1    1    2  501    0 -0.10154683195E+02 -0.12989842924E+03  0.30117617487E+03  0.37049670420E+03  0.17200000000E+03 0.  1.
         -6    1    1    2    0  502  0.10154683195E+02  0.12989842924E+03  0.42919718858E+03  0.48038624689E+03  0.17200000000E+03 0.  1.
</event>
<event>
 4    1  0.4653733E+000  0.1924958E+03  0.7818608E-02  0.1156229E+00
         21   -1    0    0  503  502  0.00000000000E+00  0.00000000000E+00  0.41654790085E+02  0.41654790085E+02  0.00000000000E+00 0. -1.
         21   -1    0    0  501  503 -0.00000000000E+00 -0.00000000000E+00 -0.94249834259E+03  0.94249834259E+03  0.00000000000E+00 0. -1.
          6    1    1    2  501    0 -0.85901470266E+02  0.95695576883E+01 -0.56703759626E+03  0.59882073662E+03  0.17200000000E+03 0. -1.
         -6    1    1    2    0  502  0.85901470266E+02 -0.95695576883E+01 -0.33380595624E+03  0.38533239606E+03  0.17200000000E+03 0. -1.
</event>
<event>
 4    1  0.4653733E+000  0.1976193E+03  0.7818608E-02  0.1151763E+00
         21   -1    0    0  501  502  0.00000000000E+00  0.00000000000E+00  0.72197299498E+03  0.72197299498E+03  0.00000000000E+00 0.  1.
         21   -1    0    0  502  503 -0.00000000000E+00 -0.00000000000E+00 -0.13691130126E+03  0.13691130126E+03  0.00000000000E+00 0.  1.
          6    1    1    2  501    0 -0.94041170646E+02  0.25012743112E+02  0.62653301676E+03  0.65696042513E+03  0.17200000000E+03 0.  1.
         -6    1    1    2    0  503  0.94041170646E+02 -0.25012743112E+02 -0.41471323039E+02  0.20192387112E+03  0.17200000000E+03 0.  1.
</event>
<event>
 4    1  0.4653733E+000  0.2508033E+03  0.7818608E-02  0.1112798E+00
         21   -1    0    0  501  502  0.00000000000E+00  0.00000000000E+00  0.71966438447E+02  0.71966438447E+02  0.00000000000E+00 0. -1.
         21   -1    0    0  502  503 -0.00000000000E+00 -0.00000000000E+00 -0.15601474265E+04  0.15601474265E+04  0.00000000000E+00 0.  1.
          6    1    1    2  501    0 -0.26713222123E+02  0.18056766499E+03 -0.20292452320E+03  0.32261531270E+03  0.17200000000E+03 0.  1.
         -6    1    1    2    0  503  0.26713222123E+02 -0.18056766499E+03 -0.12852564649E+04  0.13094985522E+04  0.17200000000E+03 0. -1.
</event>
<event>
 4    1  0.4653733E+000  0.2035159E+03  0.7818608E-02  0.1146806E+00
         21   -1    0    0  503  502  0.00000000000E+00  0.00000000000E+00  0.57410539770E+02  0.57410539770E+02  0.00000000000E+00 0. -1.
         21   -1    0    0  501  503 -0.00000000000E+00 -0.00000000000E+00 -0.72425668942E+03  0.72425668942E+03  0.00000000000E+00 0. -1.
          6    1    1    2  501    0 -0.80970840180E+02  0.72652887752E+02 -0.35776178515E+03  0.41159715010E+03  0.17200000000E+03 0. -1.
         -6    1    1    2    0  502  0.80970840180E+02 -0.72652887752E+02 -0.30908436450E+03  0.37007007909E+03  0.17200000000E+03 0. -1.
</event>
<event>
 4    1  0.4653733E+000  0.2033929E+03  0.7818608E-02  0.1146908E+00
         21   -1    0    0  503  502  0.00000000000E+00  0.00000000000E+00  0.20618105647E+03  0.20618105647E+03  0.00000000000E+00 0. -1.
         21   -1    0    0  501  503 -0.00000000000E+00 -0.00000000000E+00 -0.30664942888E+03  0.30664942888E+03  0.00000000000E+00 0.  1.
          6    1    1    2  501    0 -0.10824477598E+03 -0.82299105126E+01 -0.20099555787E+03  0.28595083010E+03  0.17200000000E+03 0.  1.
         -6    1    1    2    0  502  0.10824477598E+03  0.82299105126E+01  0.10052718546E+03  0.22687965526E+03  0.17200000000E+03 0. -1.
</event>
<event>
 4    1  0.4653733E+000  0.1809228E+03  0.7818608E-02  0.1166913E+00
         21   -1    0    0  503  502  0.00000000000E+00  0.00000000000E+00  0.51935484149E+02  0.51935484149E+02  0.00000000000E+00 0. -1.
         21   -1    0    0  501  503 -0.00000000000E+00 -0.00000000000E+00 -0.64200076876E+03  0.64200076876E+03  0.00000000000E+00 0. -1.
          6    1    1    2  501    0 -0.96739640709E+01 -0.55276375915E+02 -0.24811922914E+03  0.30707688807E+03  0.17200000000E+03 0. -1.
         -6    1    1    2    0  502  0.96739640709E+01  0.55276375915E+02 -0.34194605547E+03  0.38685936484E+03  0.17200000000E+03 0. -1.
</event>
<event>
 4    1  0.4653733E+000  0.3335381E+03  0.7818608E-02  0.1069582E+00
         21   -1    0    0  503  502  0.00000000000E+00  0.00000000000E+00  0.20036633593E+03  0.20036633593E+03  0.00000000000E+00 0. -1.
         21   -1    0    0  501  503 -0.00000000000E+00 -0.00000000000E+00 -0.11350683218E+04  0.11350683218E+04  0.00000000000E+00 0. -1.
          6    1    1    2  501    0 -0.22900788010E+03  0.17093589171E+03 -0.94459260465E+03  0.10017499074E+04  0.17200000000E+03 0. -1.
         -6    1    1    2    0  502  0.22900788010E+03 -0.17093589171E+03  0.98906188274E+01  0.33368475027E+03  0.17200000000E+03 0. -1.
</event>
<event>
 4    1  0.4653733E+000  0.1984376E+03  0.7818608E-02  0.1151064E+00
         21   -1    0    0  503  502  0.00000000000E+00  0.00000000000E+00  0.19030105464E+03  0.19030105464E+03  0.00000000000E+00 0.  1.
         21   -1    0    0  501  503 -0.00000000000E+00 -0.00000000000E+00 -0.31272886240E+03  0.31272886240E+03  0.00000000000E+00 0.  1.
          6    1    1    2  501    0  0.45375718885E+02 -0.87946107319E+02 -0.20751135760E+03  0.28712094523E+03  0.17200000000E+03 0.  1.
         -6    1    1    2    0  502 -0.45375718885E+02  0.87946107319E+02  0.85083549833E+02  0.21590897181E+03  0.17200000000E+03 0.  1.
</event>
<event>
 4    1  0.4653733E+000  0.2824542E+03  0.7818608E-02  0.1094356E+00
         21   -1    0    0  503  502  0.00000000000E+00  0.00000000000E+00  0.52357442630E+03  0.52357442630E+03  0.00000000000E+00 0.  1.
         21   -1    0    0  501  503 -0.00000000000E+00 -0.00000000000E+00 -0.16378443391E+03  0.16378443391E+03  0.00000000000E+00 0. -1.
          6    1    1    2  501    0  0.57385814269E+02 -0.21657159721E+03  0.89191808596E+02  0.29620190262E+03  0.17200000000E+03 0.  1.
         -6    1    1    2    0  502 -0.57385814269E+02  0.21657159721E+03  0.27059818380E+03  0.39115695759E+03  0.17200000000E+03 0. -1.
</event>
<event>
 4    1  0.4653733E+000  0.1972138E+03  0.7818608E-02  0.1152111E+00
         21   -1    0    0  503  502  0.00000000000E+00  0.00000000000E+00  0.66673314191E+02  0.66673314191E+02  0.00000000000E+00 0.  1.
         21   -1    0    0  501  503 -0.00000000000E+00 -0.00000000000E+00 -0.90615994755E+03  0.90615994755E+03  0.00000000000E+00 0.  1.
          6    1    1    2  501    0 -0.70276893652E+02 -0.66109308276E+02 -0.71006899264E+03  0.73694725505E+03  0.17200000000E+03 0.  1.
         -6    1    1    2    0  502  0.70276893652E+02  0.66109308276E+02 -0.12941764072E+03  0.23588600669E+03  0.17200000000E+03 0.  1.
</event>
<event>
 4    1  0.4653733E+000  0.1809215E+03  0.7818608E-02  0.1166914E+00
         21   -1    0    0  503  502  0.00000000000E+00  0.00000000000E+00  0.35703979887E+03  0.35703979887E+03  0.00000000000E+00 0.  1.
         21   -1    0    0  501  503 -0.00000000000E+00 -0.00000000000E+00 -0.34321334669E+03  0.34321334669E+03  0.00000000000E+00 0.  1.
          6    1    1    2  501    0  0.50280463204E+02 -0.24908967414E+02 -0.29282544201E+03  0.34420825255E+03  0.17200000000E+03 0.  1.
         -6    1    1    2    0  502 -0.50280463204E+02  0.24908967414E+02  0.30665189418E+03  0.35604489302E+03  0.17200000000E+03 0.  1.
</event>
<event>
 4    1  0.4653733E+000  0.2791253E+03  0.7818608E-02  0.1096168E+00
         21   -1    0    0  501  502  0.00000000000E+00  0.00000000000E+00  0.17778980165E+03  0.17778980165E+03  0.00000000000E+00 0. -1.
         21   -1    0    0  502  503 -0.00000000000E+00 -0.00000000000E+00 -0.44380644917E+03  0.44380644917E+03  0.00000000000E+00 0. -1.
          6    1    1    2  501    0  0.16197163373E+03  0.14863418374E+03 -0.16788016746E+03  0.32572178517E+03  0.17200000000E+03 0. -1.
         -6    1    1    2    0  503 -0.16197163373E+03 -0.14863418374E+03 -0.98136480056E+02  0.29587446565E+03  0.17200000000E+03 0. -1.
</event>
<event>
 4    1  0.4653733E+000  0.1923945E+03  0.7818608E-02  0.1156319E+00
         21   -1    0    0  501  502  0.00000000000E+00  0.00000000000E+00  0.65469899525E+03  0.65469899525E+03  0.00000000000E+00 0. -1.
         21   -1    0    0  502  503 -0.00000000000E+00 -0.00000000000E+00 -0.11045174384E+03  0.11045174384E+03  0.00000000000E+00 0. -1.
          6    1    1    2  501    0  0.12172116864E+02  0.85343297693E+02  0.53941123107E+03  0.57269548199E+03  0.17200000000E+03 0. -1.
         -6    1    1    2    0  503 -0.12172116864E+02 -0.85343297693E+02  0.48360203429E+01  0.19245525709E+03  0.17200000000E+03 0. -1.
</event>
<event>
 4    1  0.4653733E+000  0.1796751E+03  0.7818608E-02  0.1168118E+00
         21   -1    0    0  501  502  0.00000000000E+00  0.00000000000E+00  0.32830650212E+03  0.32830650212E+03  0.00000000000E+00 0. -1.
         21   -1    0    0  502  503 -0.00000000000E+00 -0.00000000000E+00 -0.22353322254E+03  0.22353322254E+03  0.00000000000E+00 0. -1.
          6    1    1    2  501    0  0.10769425924E+02 -0.50824793313E+02  0.25888454684E+03  0.31512592522E+03  0.17200000000E+03 0. -1.
         -6    1    1    2    0  503 -0.10769425924E+02  0.50824793313E+02 -0.15411126726E+03  0.23671379945E+03  0.17200000000E+03 0. -1.
</event>
<event>
 4    1  0.4653733E+000  0.3039148E+03  0.7818608E-02  0.1083300E+00
         21   -1    0    0  501  502  0.00000000000E+00  0.00000000000E+00  0.15068642082E+03  0.15068642082E+03  0.00000000000E+00 0. -1.
         21   -1    0    0  502  503 -0.00000000000E+00 -0.00000000000E+00 -0.12880690846E+04  0.12880690846E+04  0.00000000000E+00 0.  1.
          6    1    1    2  501    0 -0.16458707795E+03  0.18892135998E+03 -0.47885786093E+02  0.30766415942E+03  0.17200000000E+03 0. -1.
         -6    1    1    2    0  503  0.16458707795E+03 -0.18892135998E+03 -0.10894968777E+04  0.11310913460E+04  0.17200000000E+03 0.  1.
</event>
<event>
 4    1  0.4653733E+000  0.2733148E+03  0.7818608E-02  0.1099397E+00
         21   -1    0    0  501  502  0.00000000000E+00  0.00000000000E+00  0.32321947485E+03  0.32321947485E+03  0.00000000000E+00 0. -1.
         21   -1    0    0  502  503 -0.00000000000E+00 -0.00000000000E+00 -0.27030467439E+03  0.27030467439E+03  0.00000000000E+00 0. -1.
          6    1    1    2  501    0 -0.20204236570E+03  0.65542894396E+02  0.13945400582E+03  0.30683612611E+03  0.17200000000E+03 0. -1.
         -6    1    1    2    0  503  0.20204236570E+03 -0.65542894396E+02 -0.86539205358E+02  0.28668802313E+03  0.17200000000E+03 0. -1.
</event>
<event>
 4    1  0.4653733E+000  0.2125421E+03  0.7818608E-02  0.1139569E+00
         21   -1    0    0  501  502  0.00000000000E+00  0.00000000000E+00  0.22916984970E+03  0.22916984970E+03  0.00000000000E+00 0. -1.
         21   -1    0    0  502  503 -0.00000000000E+00 -0.00000000000E+00 -0.23254184705E+03  0.23254184705E+03  0.00000000000E+00 0.  1.
          6    1    1    2  501    0 -0.11204310563E+03  0.55104173660E+02  0.88413311256E+02  0.23019783031E+03  0.17200000000E+03 0. -1.
         -6    1    1    2    0  503  0.11204310563E+03 -0.55104173660E+02 -0.91785308613E+02  0.23151386643E+03  0.17200000000E+03 0.  1.
</event>
<event>
 4    1  0.4653733E+000  0.2104907E+03  0.7818608E-02  0.1141178E+00
         21   -1    0    0  503  502  0.00000000000E+00  0.00000000000E+00  0.10541456248E+03  0.10541456248E+03  0.00000000000E+00 0.  1.
         21   -1    0    0  501  503 -0.00000000000E+00 -0.00000000000E+00 -0.46874299305E+03  0.46874299305E+03  0.00000000000E+00 0. -1.
          6    1    1    2  501    0 -0.70299801963E+02 -0.98895181633E+02 -0.27394782581E+03  0.34547609233E+03  0.17200000000E+03 0. -1.
         -6    1    1    2    0  502  0.70299801963E+02  0.98895181633E+02 -0.89380604756E+02  0.22868146320E+03  0.17200000000E+03 0. -1.
</event>
<event>
 4    1  0.4653733E+000  0.1797961E+03  0.7818608E-02  0.1168001E+00
         21   -1    0    0  503  502  0.00000000000E+00  0.00000000000E+00  0.82200764149E+02  0.82200764149E+02  0.00000000000E+00 0. -1.
         21   -1    0    0  501  503 -0.00000000000E+00 -0.00000000000E+00 -0.70008625499E+03  0.70008625499E+03  0.00000000000E+00 0.  1.
          6    1    1    2  501    0  0.14696922516E+02 -0.50265501941E+02 -0.56788541353E+03  0.59566808133E+03  0.17200000000E+03 0.  1.
         -6    1    1    2    0  502 -0.14696922516E+02  0.50265501941E+02 -0.50000077310E+02  0.18661893781E+03  0.17200000000E+03 0. -1.
</event>
<event>
 4    1  0.4653733E+000  0.2043264E+03  0.7818608E-02  0.1146139E+00
         21   -1    0    0  503  502  0.00000000000E+00  0.00000000000E+00  0.43776730131E+02  0.43776730131E+02  0.00000000000E+00 0.  1.
         21   -1    0    0  501  503 -0.00000000000E+00 -0.00000000000E+00 -0.95488112579E+03  0.95488112579E+03  0.00000000000E+00 0. -1.
          6    1    1    2  501    0  0.13782958675E+02 -0.10943174516E+03 -0.47321367167E+03  0.51544200048E+03  0.17200000000E+03 0. -1.
         -6    1    1    2    0  502 -0.13782958675E+02  0.10943174516E+03 -0.43789072399E+03  0.48321585545E+03  0.17200000000E+03 0.  1.
</event>
<event>
 4    1  0.4653733E+000  0.2413208E+03  0.7818608E-02  0.1118916E+00
         21   -1    0    0  503  502  0.00000000000E+00  0.00000000000E+00  0.13301673544E+04  0.13301673544E+04  0.00000000000E+00 0. -1.
         21   -1    0    0  501  503 -0.00000000000E+00 -0.00000000000E+00 -0.62672103577E+02  0.62672103577E+02  0.00000000000E+00 0. -1.
          6    1    1    2  501    0  0.43495745710E+00 -0.16926758734E+03  0.25139362970E+03  0.34847447879E+03  0.17200000000E+03 0. -1.
         -6    1    1    2    0  502 -0.43495745710E+00  0.16926758734E+03  0.10161016212E+04  0.10443649792E+04  0.17200000000E+03 0. -1.
</event>
<event>
 4    1  0.4653733E+000  0.2393641E+03  0.7818608E-02  0.1120217E+00
         21   -1    0    0  503  502  0.00000000000E+00  0.00000000000E+00  0.67142596631E+03  0.67142596631E+03  0.00000000000E+00 0.  1.
         21   -1    0    0  501  503 -0.00000000000E+00 -0.00000000000E+00 -0.88800413479E+02  0.88800413479E+02  0.00000000000E+00 0. -1.
          6    1    1    2  501    0  0.15345927474E+03  0.64509153249E+02  0.21620721760E+03  0.32255346967E+03  0.17200000000E+03 0. -1.
         -6    1    1    2    0  502 -0.15345927474E+03 -0.64509153249E+02  0.36641833523E+03  0.43767291012E+03  0.17200000000E+03 0.  1.
</event>
<event>
 4    1  0.4653733E+000  0.1732951E+03  0.7818608E-02  0.1174455E+00
         21   -1    0    0  503  502  0.00000000000E+00  0.00000000000E+00  0.24473915391E+02  0.24473915391E+02  0.00000000000E+00 0. -1.
         21   -1    0    0  501  503 -0.00000000000E+00 -0.00000000000E+00 -0.14187762834E+04  0.14187762834E+04  0.00000000000E+00 0. -1.
          6    1    1    2  501    0  0.20434204028E+02 -0.54437851512E+01 -0.96241229145E+03  0.97788987632E+03  0.17200000000E+03 0. -1.
         -6    1    1    2    0  502 -0.20434204028E+02  0.54437851512E+01 -0.43189007654E+03  0.46536032245E+03  0.17200000000E+03 0. -1.
</event>
<event>
 4    1  0.4653733E+000  0.2098765E+03  0.7818608E-02  0.1141664E+00
         21   -1    0    0  503  502  0.00000000000E+00  0.00000000000E+00  0.23367054003E+03  0.23367054003E+03  0.00000000000E+00 0. -1.
         21   -1    0    0  501  503 -0.00000000000E+00 -0.00000000000E+00 -0.33014351185E+03  0.33014351185E+03  0.00000000000E+00 0. -1.
          6    1    1    2  501    0 -0.73554899022E+02 -0.95151615716E+02 -0.23288448963E+03  0.31350173628E+03  0.17200000000E+03 0. -1.
         -6    1    1    2    0  502  0.73554899022E+02  0.95151615716E+02  0.13641151781E+03  0.25031231559E+03  0.17200000000E+03 0. -1.
</event>
<event>
 4    1  0.4653733E+000  0.2124174E+03  0.7818608E-02  0.1139666E+00
         21   -1    0    0  503  502  0.00000000000E+00  0.00000000000E+00  0.97320381696E+02  0.97320381696E+02  0.00000000000E+00 0. -1.
         21   -1    0    0  501  503 -0.00000000000E+00 -0.00000000000E+00 -0.46552381287E+03  0.46552381287E+03  0.00000000000E+00 0. -1.
          6    1    1    2  501    0  0.11025937567E+03 -0.58138055586E+02 -0.20202626807E+03  0.29314804523E+03  0.17200000000E+03 0. -1.
         -6    1    1    2    0  502 -0.11025937567E+03  0.58138055586E+02 -0.16617716310E+03  0.26969614934E+03  0.17200000000E+03 0. -1.
</event>
<event>
 4    1  0.4653733E+000  0.1794710E+03  0.7818608E-02  0.1168316E+00
         21   -1    0    0  503  502  0.00000000000E+00  0.00000000000E+00  0.77310641570E+02  0.77310641570E+02  0.00000000000E+00 0.  1.
         21   -1    0    0  501  503 -0.00000000000E+00 -0.00000000000E+00 -0.42084815143E+03  0.42084815143E+03  0.00000000000E+00 0.  1.
          6    1    1    2  501    0  0.13353514598E+02 -0.49472440435E+02 -0.19670888312E+03  0.26627846968E+03  0.17200000000E+03 0.  1.
         -6    1    1    2    0  502 -0.13353514598E+02  0.49472440435E+02 -0.14682862674E+03  0.23188032332E+03  0.17200000000E+03 0.  1.
</event>
<event>
 4    1  0.4653733E+000  0.2885898E+03  0.7818608E-02  0.1091088E+00
         21   -1    0    0  503  502  0.00000000000E+00  0.00000000000E+00  0.49916931350E+03  0.49916931350E+03  0.00000000000E+00 0.  1.
         21   -1    0    0  501  503 -0.00000000000E+00 -0.00000000000E+00 -0.17246868438E+03  0.17246868438E+03  0.00000000000E+00 0. -1.
          6    1    1    2  501    0  0.47051152335E+02  0.22690579746E+03  0.10271171295E+03  0.30632294696E+03  0.17200000000E+03 0.  1.
         -6    1    1    2    0  502 -0.47051152335E+02 -0.22690579746E+03  0.22398891617E+03  0.36531505092E+03  0.17200000000E+03 0.  1.
</event>
<event>
 4    1  0.4653733E+000  0.1865810E+03  0.7818608E-02  0.1161582E+00
         21   -1    0    0  503  502  0.00000000000E+00  0.00000000000E+00  0.25761937036E+03  0.25761937036E+03  0.00000000000E+00 0.  1.
         21   -1    0    0  501  503 -0.00000000000E+00 -0.00000000000E+00 -0.13513550132E+03  0.13513550132E+03  0.00000000000E+00 0.  1.
          6    1    1    2  501    0 -0.59973964895E+02  0.40392908982E+02  0.62325129666E+02  0.19671523924E+03  0.17200000000E+03 0.  1.
         -6    1    1    2    0  502  0.59973964895E+02 -0.40392908982E+02  0.60158739377E+02  0.19603963243E+03  0.17200000000E+03 0.  1.
</event>
<event>
 4    1  0.4653733E+000  0.1794250E+03  0.7818608E-02  0.1168361E+00
         21   -1    0    0  503  502  0.00000000000E+00  0.00000000000E+00  0.12743256083E+03  0.12743256083E+03  0.00000000000E+00 0. -1.
         21   -1    0    0  501  503 -0.00000000000E+00 -0.00000000000E+00 -0.41171512992E+03  0.41171512992E+03  0.00000000000E+00 0. -1.
          6    1    1    2  501    0  0.22571123863E+02  0.45824373869E+02 -0.30971029084E+03  0.35792987180E+03  0.17200000000E+03 0. -1.
         -6    1    1    2    0  502 -0.22571123863E+02 -0.45824373869E+02  0.25427721750E+02  0.18121781895E+03  0.17200000000E+03 0. -1.
</event>
<event>
 4    1  0.4653733E+000  0.1907226E+03  0.7818608E-02  0.1157811E+00
         21   -1    0    0  503  502  0.00000000000E+00  0.00000000000E+00  0.41102618261E+02  0.41102618261E+02  0.00000000000E+00 0. -1.
         21   -1    0    0  501  503 -0.00000000000E+00 -0.00000000000E+00 -0.96739240317E+03  0.96739240317E+03  0.00000000000E+00 0. -1.
          6    1    1    2  501    0 -0.55851036433E+02  0.60595257884E+02 -0.31597109969E+03  0.36907026349E+03  0.17200000000E+03 0. -1.
         -6    1    1    2    0  502  0.55851036433E+02 -0.60595257884E+02 -0.61031868522E+03  0.63942475795E+03  0.17200000000E+03 0. -1.
</event>
<event>
 4    1  0.4653733E+000  0.1854661E+03  0.7818608E-02  0.1162615E+00
         21   -1    0    0  501  502  0.00000000000E+00  0.00000000000E+00  0.62750215514E+03  0.62750215514E+03  0.00000000000E+00 0. -1.
         21   -1    0    0  502  503 -0.00000000000E+00 -0.00000000000E+00 -0.55532252560E+02  0.55532252560E+02  0.00000000000E+00 0. -1.
          6    1    1    2  501    0  0.15784758463E+01  0.69362696682E+02  0.32474845633E+03  0.37397758645E+03  0.17200000000E+03 0. -1.
         -6    1    1    2    0  503 -0.15784758463E+01 -0.69362696682E+02  0.24722144625E+03  0.30905682125E+03  0.17200000000E+03 0. -1.
</event>
<event>
 4    1  0.4653733E+000  0.1734823E+03  0.7818608E-02  0.1174264E+00
         21   -1    0    0  503  502  0.00000000000E+00  0.00000000000E+00  0.13409102621E+03  0.13409102621E+03  0.00000000000E+00 0.  1.
         21   -1    0    0  501  503 -0.00000000000E+00 -0.00000000000E+00 -0.22478751794E+03  0.22478751794E+03  0.00000000000E+00 0.  1.
          6    1    1    2  501    0 -0.10212590850E+02 -0.20194735011E+02 -0.52347801566E+02  0.18120821356E+03  0.17200000000E+03 0. -1.
         -6    1    1    2    0  502  0.10212590850E+02  0.20194735011E+02 -0.38348690170E+02  0.17767033059E+03  0.17200000000E+03 0. -1.
</event>
<event>
 4    1  0.4653733E+000  0.2526130E+03  0.7818608E-02  0.1111664E+00
         21   -1    0    0  501  502  0.00000000000E+00  0.00000000000E+00  0.60399134051E+03  0.60399134051E+03  0.00000000000E+00 0. -1.
         21   -1    0    0  502  503 -0.00000000000E+00 -0.00000000000E+00 -0.10588382535E+03  0.10588382535E+03  0.00000000000E+00 0.  1.
          6    1    1    2  501    0  0.59338054608E+02  0.17523796286E+03  0.26563474878E+03  0.36657218677E+03  0.17200000000E+03 0.  1.
         -6    1    1    2    0  503 -0.59338054608E+02 -0.17523796286E+03  0.23247276638E+03  0.34330297910E+03  0.17200000000E+03 0. -1.
</event>
<event>
 4    1  0.4653733E+000  0.2655796E+03  0.7818608E-02  0.1103837E+00
         21   -1    0    0  501  502  0.00000000000E+00  0.00000000000E+00  0.20795266447E+03  0.20795266447E+03  0.00000000000E+00 0. -1.
         21   -1    0    0  502  503 -0.00000000000E+00 -0.00000000000E+00 -0.33977602313E+03  0.33977602313E+03  0.00000000000E+00 0.  1.
          6    1    1    2  501    0  0.57319467375E+02 -0.19406953029E+03 -0.77422555487E+02  0.27663469779E+03  0.17200000000E+03 0. -1.
         -6    1    1    2    0  503 -0.57319467375E+02  0.19406953029E+03 -0.54400803177E+02  0.27109398981E+03  0.17200000000E+03 0. -1.
</event>
<event>
 4    1  0.4653733E+000  0.5270033E+03  0.7818608E-02  0.1006961E+00
         21   -1    0    0  503  502  0.00000000000E+00  0.00000000000E+00  0.26206976824E+03  0.26206976824E+03  0.00000000000E+00 0. -1.
         21   -1    0    0  501  503 -0.00000000000E+00 -0.00000000000E+00 -0.11562543118E+04  0.11562543118E+04  0.00000000000E+00 0.  1.
          6    1    1    2  501    0 -0.37899359267E+03  0.32328367085E+03 -0.65195241967E+03  0.83831642751E+03  0.17200000000E+03 0.  1.
         -6    1    1    2    0  502  0.37899359267E+03 -0.32328367085E+03 -0.24223212387E+03  0.58000765250E+03  0.17200000000E+03 0. -1.
</event>
<event>
 4    1  0.4653733E+000  0.2594127E+03  0.7818608E-02  0.1107497E+00
         21   -1    0    0  501  502  0.00000000000E+00  0.00000000000E+00  0.11862592617E+03  0.11862592617E+03  0.00000000000E+00 0. -1.
         21   -1    0    0  502  503 -0.00000000000E+00 -0.00000000000E+00 -0.79527083066E+03  0.79527083066E+03  0.00000000000E+00 0.  1.
          6    1    1    2  501    0 -0.19257438300E+03  0.25020964614E+02 -0.93663185320E+02  0.27580379610E+03  0.17200000000E+03 0. -1.
         -6    1    1    2    0  503  0.19257438300E+03 -0.25020964614E+02 -0.58298171916E+03  0.63809296073E+03  0.17200000000E+03 0.  1.
</event>
<event>
 4    1  0.4653733E+000  0.2011848E+03  0.7818608E-02  0.1148743E+00
         21   -1    0    0  503  502  0.00000000000E+00  0.00000000000E+00  0.78371272305E+03  0.78371272305E+03  0.00000000000E+00 0. -1.
         21   -1    0    0  501  503 -0.00000000000E+00 -0.00000000000E+00 -0.12215110071E+03  0.12215110071E+03  0.00000000000E+00 0. -1.
          6    1    1    2  501    0 -0.10404691529E+03 -0.80962923677E+01 -0.13327959102E+02  0.20162575487E+03  0.17200000000E+03 0. -1.
         -6    1    1    2    0  502  0.10404691529E+03  0.80962923677E+01  0.67488958145E+03  0.70423806889E+03  0.17200000000E+03 0. -1.
</event>
<event>
 4    1  0.4653733E+000  0.1798916E+03  0.7818608E-02  0.1167908E+00
         21   -1    0    0  501  502  0.00000000000E+00  0.00000000000E+00  0.10054324174E+04  0.10054324174E+04  0.00000000000E+00 0. -1.
         21   -1    0    0  502  503 -0.00000000000E+00 -0.00000000000E+00 -0.75581595232E+02  0.75581595232E+02  0.00000000000E+00 0. -1.
          6    1    1    2  501    0  0.17026276095E+02 -0.49870723392E+02  0.87448344755E+03  0.89279464782E+03  0.17200000000E+03 0. -1.
         -6    1    1    2    0  503 -0.17026276095E+02  0.49870723392E+02  0.55367374655E+02  0.18821936485E+03  0.17200000000E+03 0. -1.
</event>
<event>
 4    1  0.4653733E+000  0.2293514E+03  0.7818608E-02  0.1127097E+00
         21   -1    0    0  503  502  0.00000000000E+00  0.00000000000E+00  0.16931149143E+03  0.16931149143E+03  0.00000000000E+00 0. -1.
         21   -1    0    0  501  503 -0.00000000000E+00 -0.00000000000E+00 -0.34787537152E+03  0.34787537152E+03  0.00000000000E+00 0. -1.
          6    1    1    2  501    0  0.14525561284E+03 -0.43805154649E+02 -0.17383642211E+03  0.28778670276E+03  0.17200000000E+03 0. -1.
         -6    1    1    2    0  502 -0.14525561284E+03  0.43805154649E+02 -0.47274579712E+01  0.22940016019E+03  0.17200000000E+03 0. -1.
</event>
<event>
 4    1  0.4653733E+000  0.1772680E+03  0.7818608E-02  0.1170474E+00
         21   -1    0    0  503  502  0.00000000000E+00  0.00000000000E+00  0.31337921064E+02  0.31337921064E+02  0.00000000000E+00 0.  1.
         21   -1    0    0  501  503 -0.00000000000E+00 -0.00000000000E+00 -0.10093338998E+04  0.10093338998E+04  0.00000000000E+00 0.  1.
          6    1    1    2  501    0 -0.42286161689E+02  0.71988511821E+01 -0.44695693618E+03  0.48082683549E+03  0.17200000000E+03 0.  1.
         -6    1    1    2    0  502  0.42286161689E+02 -0.71988511821E+01 -0.53103904254E+03  0.55984498536E+03  0.17200000000E+03 0.  1.
</event>
<event>
 4    1  0.4653733E+000  0.1753384E+03  0.7818608E-02  0.1172392E+00
         21   -1    0    0  501  502  0.00000000000E+00  0.00000000000E+00  0.32475227709E+03  0.32475227709E+03  0.00000000000E+00 0.  1.
         21   -1    0    0  502  503 -0.00000000000E+00 -0.00000000000E+00 -0.20379065362E+03  0.20379065362E+03  0.00000000000E+00 0.  1.
          6    1    1    2  501    0  0.29822841649E+02  0.16436452668E+02  0.25386285767E+03  0.30852862001E+03  0.17200000000E+03 0.  1.
         -6    1    1    2    0  503 -0.29822841649E+02 -0.16436452668E+02 -0.13290123420E+03  0.22001431070E+03  0.17200000000E+03 0.  1.
</event>
<event>
 4    1  0.4653733E+000  0.1726141E+03  0.7818608E-02  0.1175149E+00
         21   -1    0    0  503  502  0.00000000000E+00  0.00000000000E+00  0.32029813588E+04  0.32029813588E+04  0.00000000000E+00 0. -1.
         21   -1    0    0  501  503 -0.00000000000E+00 -0.00000000000E+00 -0.14036764457E+02  0.14036764457E+02  0.00000000000E+00 0. -1.
          6    1    1    2  501    0  0.43663392386E+01  0.13876194428E+02  0.66031935310E+03  0.68250806718E+03  0.17200000000E+03 0. -1.
         -6    1    1    2    0  502 -0.43663392386E+01 -0.13876194428E+02  0.25286252413E+04  0.25345100561E+04  0.17200000000E+03 0. -1.
</event>
<event>
 4    1  0.4653733E+000  0.2614909E+03  0.7818608E-02  0.1106251E+00
         21   -1    0    0  501  502  0.00000000000E+00  0.00000000000E+00  0.36756463321E+03  0.36756463321E+03  0.00000000000E+00 0.  1.
         21   -1    0    0  502  503 -0.00000000000E+00 -0.00000000000E+00 -0.35803180888E+03  0.35803180888E+03  0.00000000000E+00 0. -1.
          6    1    1    2  501    0  0.19163136330E+03  0.45507452276E+02  0.25622861064E+03  0.36610191002E+03  0.17200000000E+03 0.  1.
         -6    1    1    2    0  503 -0.19163136330E+03 -0.45507452276E+02 -0.24669578630E+03  0.35949453207E+03  0.17200000000E+03 0. -1.
</event>
<event>
 4    1  0.4653733E+000  0.3614029E+03  0.7818608E-02  0.1058030E+00
         21   -1    0    0  503  502  0.00000000000E+00  0.00000000000E+00  0.54580833576E+03  0.54580833576E+03  0.00000000000E+00 0.  1.
         21   -1    0    0  501  503 -0.00000000000E+00 -0.00000000000E+00 -0.24526990597E+03  0.24526990597E+03  0.00000000000E+00 0. -1.
          6    1    1    2  501    0 -0.31119168270E+03 -0.64713375229E+02  0.21197716068E+03  0.41898257836E+03  0.17200000000E+03 0.  1.
         -6    1    1    2    0  502  0.31119168270E+03  0.64713375229E+02  0.88561269105E+02  0.37209566338E+03  0.17200000000E+03 0. -1.
</event>
<event>
 4    1  0.4653733E+000  0.1821471E+03  0.7818608E-02  0.1165741E+00
         21   -1    0    0  503  502  0.00000000000E+00  0.00000000000E+00  0.13984120736E+04  0.13984120736E+04  0.00000000000E+00 0.  1.
         21   -1    0    0  501  503 -0.00000000000E+00 -0.00000000000E+00 -0.36733727793E+02  0.36733727793E+02  0.00000000000E+00 0.  1.
          6    1    1    2  501    0  0.27750171972E+02  0.53136714337E+02  0.25381949899E+03  0.31241306074E+03  0.17200000000E+03 0. -1.
         -6    1    1    2    0  502 -0.27750171972E+02 -0.53136714337E+02  0.11078588468E+04  0.11227327406E+04  0.17200000000E+03 0. -1.
</event>
<event>
 4    1  0.4653733E+000  0.2047507E+03  0.7818608E-02  0.1145792E+00
         21   -1    0    0  501  502  0.00000000000E+00  0.00000000000E+00  0.36874814964E+03  0.36874814964E+03  0.00000000000E+00 0. -1.
         21   -1    0    0  502  503 -0.00000000000E+00 -0.00000000000E+00 -0.12499708473E+03  0.12499708473E+03  0.00000000000E+00 0. -1.
          6    1    1    2  501    0 -0.49658533821E+02  0.99362280382E+02  0.19612713343E+03  0.28352898478E+03  0.17200000000E+03 0. -1.
         -6    1    1    2    0  503  0.49658533821E+02 -0.99362280382E+02  0.47623931480E+02  0.21021624959E+03  0.17200000000E+03 0. -1.
</event>
<event>
 4    1  0.4653733E+000  0.2218894E+03  0.7818608E-02  0.1132482E+00
         21   -1    0    0  503  502  0.00000000000E+00  0.00000000000E+00  0.28814805609E+03  0.28814805609E+03  0.00000000000E+00 0.  1.
         21   -1    0    0  501  503 -0.00000000000E+00 -0.00000000000E+00 -0.21311890624E+03  0.21311890624E+03  0.00000000000E+00 0.  1.
          6    1    1    2  501    0  0.87315274882E+02  0.10966737444E+03 -0.74082574010E+02  0.23392972880E+03  0.17200000000E+03 0.  1.
         -6    1    1    2    0  502 -0.87315274882E+02 -0.10966737444E+03  0.14911172386E+03  0.26733723354E+03  0.17200000000E+03 0.  1.
</event>
<event>
 4    1  0.4653733E+000  0.1825627E+03  0.7818608E-02  0.1165346E+00
         21   -1    0    0  503  502  0.00000000000E+00  0.00000000000E+00  0.91086111275E+03  0.91086111275E+03  0.00000000000E+00 0. -1.
         21   -1    0    0  501  503 -0.00000000000E+00 -0.00000000000E+00 -0.90430444893E+02  0.90430444893E+02  0.00000000000E+00 0. -1.
          6    1    1    2  501    0 -0.45516091258E+02  0.40907492840E+02  0.23915683442E+02  0.18412250663E+03  0.17200000000E+03 0. -1.
         -6    1    1    2    0  502  0.45516091258E+02 -0.40907492840E+02  0.79651498442E+03  0.81716905101E+03  0.17200000000E+03 0. -1.
</event>
<event>
 4    1  0.4653733E+000  0.5701776E+03  0.7818608E-02  0.9969286E-01
         21   -1    0    0  503  502  0.00000000000E+00  0.00000000000E+00  0.91165854525E+03  0.91165854525E+03  0.00000000000E+00 0. -1.
         21   -1    0    0  501  503 -0.00000000000E+00 -0.00000000000E+00 -0.59369344509E+03  0.59369344509E+03  0.00000000000E+00 0.  1.
          6    1    1    2  501    0 -0.27382106492E+03  0.46961742517E+03 -0.31666101351E+03  0.65220909155E+03  0.17200000000E+03 0.  1.
         -6    1    1    2    0  502  0.27382106492E+03 -0.46961742517E+03  0.63462611367E+03  0.85314289880E+03  0.17200000000E+03 0. -1.
</event>
<event>
 4    1  0.4653733E+000  0.1996442E+03  0.7818608E-02  0.1150040E+00
         21   -1    0    0  501  502  0.00000000000E+00  0.00000000000E+00  0.36864600144E+03  0.36864600144E+03  0.00000000000E+00 0.  1.
         21   -1    0    0  502  503 -0.00000000000E+00 -0.00000000000E+00 -0.88474746599E+03  0.88474746599E+03  0.00000000000E+00 0.  1.
          6    1    1    2  501    0 -0.28847667530E+02  0.97168075105E+02  0.32910631666E+03  0.38492699361E+03  0.17200000000E+03 0.  1.
         -6    1    1    2    0  503  0.28847667530E+02 -0.97168075105E+02 -0.84520778121E+03  0.86846647383E+03  0.17200000000E+03 0.  1.
</event>
<event>
 4    1  0.4653733E+000  0.2079901E+03  0.7818608E-02  0.1143168E+00
         21   -1    0    0  503  502  0.00000000000E+00  0.00000000000E+00  0.55648329340E+03  0.55648329340E+03  0.00000000000E+00 0. -1.
         21   -1    0    0  501  503 -0.00000000000E+00 -0.00000000000E+00 -0.29949248743E+03  0.29949248743E+03  0.00000000000E+00 0. -1.
          6    1    1    2  501    0 -0.52206042040E+01  0.11682736952E+03 -0.23978171815E+03  0.31741953522E+03  0.17200000000E+03 0. -1.
         -6    1    1    2    0  502  0.52206042040E+01 -0.11682736952E+03  0.49677252412E+03  0.53855624562E+03  0.17200000000E+03 0. -1.
</event>
<event>
 4    1  0.4653733E+000  0.1764662E+03  0.7818608E-02  0.1171268E+00
         21   -1    0    0  501  502  0.00000000000E+00  0.00000000000E+00  0.48078893853E+03  0.48078893853E+03  0.00000000000E+00 0. -1.
         21   -1    0    0  502  503 -0.00000000000E+00 -0.00000000000E+00 -0.80335125282E+03  0.80335125282E+03  0.00000000000E+00 0. -1.
          6    1    1    2  501    0 -0.38438386406E+02  0.88778172756E+01  0.45436202514E+03  0.48742709720E+03  0.17200000000E+03 0. -1.
         -6    1    1    2    0  503  0.38438386406E+02 -0.88778172756E+01 -0.77692433943E+03  0.79671309415E+03  0.17200000000E+03 0. -1.
</event>
<event>
 4    1  0.4653733E+000  0.3162555E+03  0.7818608E-02  0.1077386E+00
         21   -1    0    0  501  502  0.00000000000E+00  0.00000000000E+00  0.18424183215E+03  0.18424183215E+03  0.00000000000E+00 0. -1.
         21   -1    0    0  502  503 -0.00000000000E+00 -0.00000000000E+00 -0.88254451464E+03  0.88254451464E+03  0.00000000000E+00 0.  1.
          6    1    1    2  501    0 -0.15100472740E+03  0.21824552273E+03 -0.18235950939E+02  0.31678081665E+03  0.17200000000E+03 0. -1.
         -6    1    1    2    0  503  0.15100472740E+03 -0.21824552273E+03 -0.68006673155E+03  0.75000553015E+03  0.17200000000E+03 0. -1.
</event>
<event>
 4    1  0.4653733E+000  0.1872372E+03  0.7818608E-02  0.1160977E+00
         21   -1    0    0  501  502  0.00000000000E+00  0.00000000000E+00  0.11177995923E+03  0.11177995923E+03  0.00000000000E+00 0.  1.
         21   -1    0    0  502  503 -0.00000000000E+00 -0.00000000000E+00 -0.45471481494E+03  0.45471481494E+03  0.00000000000E+00 0.  1.
          6    1    1    2  501    0 -0.49453681126E+02 -0.55028079895E+02 -0.13694080793E+02  0.18773727388E+03  0.17200000000E+03 0.  1.
         -6    1    1    2    0  503  0.49453681126E+02  0.55028079895E+02 -0.32924077492E+03  0.37875750029E+03  0.17200000000E+03 0.  1.
</event>
<event>
 4    1  0.4653733E+000  0.2600362E+03  0.7818608E-02  0.1107121E+00
         21   -1    0    0  501  502  0.00000000000E+00  0.00000000000E+00  0.11196726781E+03  0.11196726781E+03  0.00000000000E+00 0.  1.
         21   -1    0    0  502  503 -0.00000000000E+00 -0.00000000000E+00 -0.66539803303E+03  0.66539803303E+03  0.00000000000E+00 0. -1.
          6    1    1    2  501    0  0.18290886872E+03 -0.67669606906E+02 -0.15856684864E+03  0.30456899948E+03  0.17200000000E+03 0.  1.
         -6    1    1    2    0  503 -0.18290886872E+03  0.67669606906E+02 -0.39486391658E+03  0.47279630136E+03  0.17200000000E+03 0.  1.
</event>
<event>
 4    1  0.4653733E+000  0.2280917E+03  0.7818608E-02  0.1127990E+00
         21   -1    0    0  503  502  0.00000000000E+00  0.00000000000E+00  0.31734924057E+03  0.31734924057E+03  0.00000000000E+00 0. -1.
         21   -1    0    0  501  503 -0.00000000000E+00 -0.00000000000E+00 -0.16565280935E+03  0.16565280935E+03  0.00000000000E+00 0.  1.
          6    1    1    2  501    0 -0.14762618302E+03 -0.25462620199E+02  0.10041417050E+03  0.24921645326E+03  0.17200000000E+03 0. -1.
         -6    1    1    2    0  502  0.14762618302E+03  0.25462620199E+02  0.51282260715E+02  0.23378559666E+03  0.17200000000E+03 0.  1.
</event>
<event>
 4    1  0.4653733E+000  0.3317478E+03  0.7818608E-02  0.1070366E+00
         21   -1    0    0  503  502  0.00000000000E+00  0.00000000000E+00  0.47284641329E+03  0.47284641329E+03  0.00000000000E+00 0. -1.
         21   -1    0    0  501  503 -0.00000000000E+00 -0.00000000000E+00 -0.48921230377E+03  0.48921230377E+03  0.00000000000E+00 0.  1.
          6    1    1    2  501    0 -0.80644790032E+02 -0.27197249387E+03 -0.35646554059E+03  0.48695410585E+03  0.17200000000E+03 0.  1.
         -6    1    1    2    0  502  0.80644790032E+02  0.27197249387E+03  0.34009965011E+03  0.47510461120E+03  0.17200000000E+03 0. -1.
</event>
<event>
 4    1  0.4653733E+000  0.2061495E+03  0.7818608E-02  0.1144652E+00
         21   -1    0    0  501  502  0.00000000000E+00  0.00000000000E+00  0.53360045887E+03  0.53360045887E+03  0.00000000000E+00 0. -1.
         21   -1    0    0  502  503 -0.00000000000E+00 -0.00000000000E+00 -0.81196757142E+02  0.81196757142E+02  0.00000000000E+00 0. -1.
          6    1    1    2  501    0 -0.73724659278E+02 -0.86477136703E+02  0.26872284167E+03  0.33868803668E+03  0.17200000000E+03 0. -1.
         -6    1    1    2    0  503  0.73724659278E+02  0.86477136703E+02  0.18368086006E+03  0.27610917933E+03  0.17200000000E+03 0. -1.
</event>
<event>
 4    1  0.4653733E+000  0.1722769E+03  0.7818608E-02  0.1175494E+00
         21   -1    0    0  501  502  0.00000000000E+00  0.00000000000E+00  0.45168216897E+02  0.45168216897E+02  0.00000000000E+00 0. -1.
         21   -1    0    0  502  503 -0.00000000000E+00 -0.00000000000E+00 -0.65720589251E+03  0.65720589251E+03  0.00000000000E+00 0. -1.
          6    1    1    2  501    0  0.95444162516E+01  0.20594481437E+01 -0.30124679002E+03  0.34702876783E+03  0.17200000000E+03 0. -1.
         -6    1    1    2    0  503 -0.95444162516E+01 -0.20594481437E+01 -0.31079088559E+03  0.35534534157E+03  0.17200000000E+03 0. -1.
</event>
<event>
 4    1  0.4653733E+000  0.2326870E+03  0.7818608E-02  0.1124763E+00
         21   -1    0    0  501  502  0.00000000000E+00  0.00000000000E+00  0.33232155189E+04  0.33232155189E+04  0.00000000000E+00 0.  1.
         21   -1    0    0  502  503 -0.00000000000E+00 -0.00000000000E+00 -0.34639376740E+02  0.34639376740E+02  0.00000000000E+00 0. -1.
          6    1    1    2  501    0 -0.14887126604E+03  0.48955091298E+02  0.28661687560E+04  0.28755984756E+04  0.17200000000E+03 0.  1.
         -6    1    1    2    0  503  0.14887126604E+03 -0.48955091298E+02  0.42240738614E+03  0.48225642005E+03  0.17200000000E+03 0. -1.
</event>
<event>
 4    1  0.4653733E+000  0.2045683E+03  0.7818608E-02  0.1145941E+00
         21   -1    0    0  501  502  0.00000000000E+00  0.00000000000E+00  0.35330393469E+03  0.35330393469E+03  0.00000000000E+00 0.  1.
         21   -1    0    0  502  503 -0.00000000000E+00 -0.00000000000E+00 -0.12171655891E+03  0.12171655891E+03  0.00000000000E+00 0. -1.
          6    1    1    2  501    0 -0.66689420154E+01  0.11054274477E+03  0.76873021329E+02  0.21853520224E+03  0.17200000000E+03 0.  1.
         -6    1    1    2    0  503  0.66689420154E+01 -0.11054274477E+03  0.15471435445E+03  0.25648529136E+03  0.17200000000E+03 0. -1.
</event>
<event>
 4    1  0.4653733E+000  0.1974296E+03  0.7818608E-02  0.1151926E+00
         21   -1    0    0  501  502  0.00000000000E+00  0.00000000000E+00  0.83184055881E+03  0.83184055881E+03  0.00000000000E+00 0.  1.
         21   -1    0    0  502  503 -0.00000000000E+00 -0.00000000000E+00 -0.59019630743E+02  0.59019630743E+02  0.00000000000E+00 0.  1.
          6    1    1    2  501    0 -0.62211578990E+02 -0.74324795949E+02  0.58860792405E+03  0.62083632634E+03  0.17200000000E+03 0.  1.
         -6    1    1    2    0  503  0.62211578990E+02  0.74324795949E+02  0.18421300401E+03  0.27002386321E+03  0.17200000000E+03 0.  1.
</event>
<event>
 4    1  0.4653733E+000  0.1899405E+03  0.7818608E-02  0.1158515E+00
         21   -1    0    0  501  502  0.00000000000E+00  0.00000000000E+00  0.11693340525E+04  0.11693340525E+04  0.00000000000E+00 0. -1.
         21   -1    0    0  502  503 -0.00000000000E+00 -0.00000000000E+00 -0.13684252319E+03  0.13684252319E+03  0.00000000000E+00 0.  1.
          6    1    1    2  501    0  0.79869955890E+02  0.10685098634E+02  0.10910142824E+04  0.11074247359E+04  0.17200000000E+03 0. -1.
         -6    1    1    2    0  503 -0.79869955890E+02 -0.10685098634E+02 -0.58522753135E+02  0.19875183979E+03  0.17200000000E+03 0.  1.
</event>
<event>
 4    1  0.4653733E+000  0.1884506E+03  0.7818608E-02  0.1159866E+00
         21   -1    0    0  501  502  0.00000000000E+00  0.00000000000E+00  0.27573604043E+03  0.27573604043E+03  0.00000000000E+00 0.  1.
         21   -1    0    0  502  503 -0.00000000000E+00 -0.00000000000E+00 -0.10373832713E+04  0.10373832713E+04  0.00000000000E+00 0.  1.
          6    1    1    2  501    0 -0.61590919496E+02  0.46219025719E+02  0.23362836486E+03  0.30015971177E+03  0.17200000000E+03 0.  1.
         -6    1    1    2    0  503  0.61590919496E+02 -0.46219025719E+02 -0.99527559573E+03  0.10129596000E+04  0.17200000000E+03 0.  1.
</event>
<event>
 4    1  0.4653733E+000  0.1957090E+03  0.7818608E-02  0.1153411E+00
         21   -1    0    0  501  502  0.00000000000E+00  0.00000000000E+00  0.44929925550E+02  0.44929925550E+02  0.00000000000E+00 0.  1.
         21   -1    0    0  502  503 -0.00000000000E+00 -0.00000000000E+00 -0.85709409698E+03  0.85709409698E+03  0.00000000000E+00 0.  1.
          6    1    1    2  501    0 -0.75940061041E+02  0.54324376436E+02 -0.43916024766E+03  0.48079491873E+03  0.17200000000E+03 0.  1.
         -6    1    1    2    0  503  0.75940061041E+02 -0.54324376436E+02 -0.37300392377E+03  0.42122910381E+03  0.17200000000E+03 0.  1.
</event>
<event>
 4    1  0.4653733E+000  0.1896014E+03  0.7818608E-02  0.1158821E+00
         21   -1    0    0  503  502  0.00000000000E+00  0.00000000000E+00  0.16011246682E+03  0.16011246682E+03  0.00000000000E+00 0. -1.
         21   -1    0    0  501  503 -0.00000000000E+00 -0.00000000000E+00 -0.28586452828E+03  0.28586452828E+03  0.00000000000E+00 0. -1.
          6    1    1    2  501    0 -0.16302703751E+02  0.78095523259E+02 -0.16617238264E+03  0.25211495326E+03  0.17200000000E+03 0. -1.
         -6    1    1    2    0  502  0.16302703751E+02 -0.78095523259E+02  0.40420321186E+02  0.19386204184E+03  0.17200000000E+03 0. -1.
</event>
<event>
 4    1  0.4653733E+000  0.2314807E+03  0.7818608E-02  0.1125602E+00
         21   -1    0    0  501  502  0.00000000000E+00  0.00000000000E+00  0.26723822223E+03  0.26723822223E+03  0.00000000000E+00 0. -1.
         21   -1    0    0  502  503 -0.00000000000E+00 -0.00000000000E+00 -0.20071932915E+03  0.20071932915E+03  0.00000000000E+00 0.  1.
          6    1    1    2  501    0 -0.75790972485E+02 -0.13511117928E+03  0.40858204344E+02  0.23505891844E+03  0.17200000000E+03 0.  1.
         -6    1    1    2    0  503  0.75790972485E+02  0.13511117928E+03  0.25660688727E+02  0.23289863294E+03  0.17200000000E+03 0. -1.
</event>
<event>
 4    1  0.4653733E+000  0.1824010E+03  0.7818608E-02  0.1165499E+00
         21   -1    0    0  503  502  0.00000000000E+00  0.00000000000E+00  0.21143456254E+03  0.21143456254E+03  0.00000000000E+00 0. -1.
         21   -1    0    0  501  503 -0.00000000000E+00 -0.00000000000E+00 -0.19319230480E+03  0.19319230480E+03  0.00000000000E+00 0. -1.
          6    1    1    2  501    0 -0.30351726129E+02  0.52582230901E+02 -0.78015804949E+02  0.19838493921E+03  0.17200000000E+03 0. -1.
         -6    1    1    2    0  502  0.30351726129E+02 -0.52582230901E+02  0.96258062683E+02  0.20624192813E+03  0.17200000000E+03 0. -1.
</event>
<event>
 4    1  0.4653733E+000  0.1749736E+03  0.7818608E-02  0.1172758E+00
         21   -1    0    0  503  502  0.00000000000E+00  0.00000000000E+00  0.10039533028E+03  0.10039533028E+03  0.00000000000E+00 0.  1.
         21   -1    0    0  501  503 -0.00000000000E+00 -0.00000000000E+00 -0.95958853149E+03  0.95958853149E+03  0.00000000000E+00 0.  1.
          6    1    1    2  501    0  0.27226628476E+02  0.17043178122E+02 -0.86734729486E+03  0.88482037111E+03  0.17200000000E+03 0.  1.
         -6    1    1    2    0  502 -0.27226628476E+02 -0.17043178122E+02  0.81540936556E+01  0.17516349067E+03  0.17200000000E+03 0.  1.
</event>
<event>
 4    1  0.4653733E+000  0.3061693E+03  0.7818608E-02  0.1082197E+00
         21   -1    0    0  501  502  0.00000000000E+00  0.00000000000E+00  0.10611964733E+04  0.10611964733E+04  0.00000000000E+00 0.  1.
         21   -1    0    0  502  503 -0.00000000000E+00 -0.00000000000E+00 -0.56666082603E+03  0.56666082603E+03  0.00000000000E+00 0.  1.
          6    1    1    2  501    0  0.84602765520E+02 -0.23874258005E+03  0.99507072270E+03  0.10411077709E+04  0.17200000000E+03 0.  1.
         -6    1    1    2    0  503 -0.84602765520E+02  0.23874258005E+03 -0.50053507539E+03  0.58674952847E+03  0.17200000000E+03 0.  1.
</event>
<event>
 4    1  0.4653733E+000  0.2952089E+03  0.7818608E-02  0.1087660E+00
         21   -1    0    0  503  502  0.00000000000E+00  0.00000000000E+00  0.21771521414E+03  0.21771521414E+03  0.00000000000E+00 0. -1.
         21   -1    0    0  501  503 -0.00000000000E+00 -0.00000000000E+00 -0.46440145414E+03  0.46440145414E+03  0.00000000000E+00 0.  1.
          6    1    1    2  501    0 -0.22228494178E+03 -0.90297691866E+02 -0.25006877498E+03  0.38688843446E+03  0.17200000000E+03 0.  1.
         -6    1    1    2    0  502  0.22228494178E+03  0.90297691866E+02  0.33825349770E+01  0.29522823382E+03  0.17200000000E+03 0. -1.
</event>
<event>
 4    1  0.4653733E+000  0.3093826E+03  0.7818608E-02  0.1080642E+00
         21   -1    0    0  501  502  0.00000000000E+00  0.00000000000E+00  0.10366744855E+04  0.10366744855E+04  0.00000000000E+00 0. -1.
         21   -1    0    0  502  503 -0.00000000000E+00 -0.00000000000E+00 -0.16643259839E+03  0.16643259839E+03  0.00000000000E+00 0. -1.
          6    1    1    2  501    0  0.25696857001E+03 -0.10036993363E+02  0.83651206514E+03  0.89189126149E+03  0.17200000000E+03 0. -1.
         -6    1    1    2    0  503 -0.25696857001E+03  0.10036993363E+02  0.33729821940E+02  0.31121582237E+03  0.17200000000E+03 0. -1.
</event>
<event>
 4    1  0.4653733E+000  0.2024065E+03  0.7818608E-02  0.1147724E+00
         21   -1    0    0  501  502  0.00000000000E+00  0.00000000000E+00  0.27296892429E+02  0.27296892429E+02  0.00000000000E+00 0. -1.
         21   -1    0    0  502  503 -0.00000000000E+00 -0.00000000000E+00 -0.16025065040E+04  0.16025065040E+04  0.00000000000E+00 0. -1.
          6    1    1    2  501    0  0.10109483495E+03  0.34121013928E+02 -0.99285483041E+03  0.10132764300E+04  0.17200000000E+03 0. -1.
         -6    1    1    2    0  503 -0.10109483495E+03 -0.34121013928E+02 -0.58235478121E+03  0.61652696652E+03  0.17200000000E+03 0. -1.
</event>
<event>
 4    1  0.4653733E+000  0.2438641E+03  0.7818608E-02  0.1117245E+00
         21   -1    0    0  503  502  0.00000000000E+00  0.00000000000E+00  0.11951919356E+04  0.11951919356E+04  0.00000000000E+00 0. -1.
         21   -1    0    0  501  503 -0.00000000000E+00 -0.00000000000E+00 -0.86380276433E+02  0.86380276433E+02  0.00000000000E+00 0. -1.
          6    1    1    2  501    0  0.17258821508E+03 -0.99495462479E+01  0.13716979615E+03  0.27979499358E+03  0.17200000000E+03 0. -1.
         -6    1    1    2    0  502 -0.17258821508E+03  0.99495462479E+01  0.97164186301E+03  0.10017772185E+04  0.17200000000E+03 0. -1.
</event>
<event>
 4    1  0.4653733E+000  0.1932085E+03  0.7818608E-02  0.1155599E+00
         21   -1    0    0  503  502  0.00000000000E+00  0.00000000000E+00  0.26022332687E+02  0.26022332687E+02  0.00000000000E+00 0.  1.
         21   -1    0    0  501  503 -0.00000000000E+00 -0.00000000000E+00 -0.19019201522E+04  0.19019201522E+04  0.00000000000E+00 0. -1.
          6    1    1    2  501    0  0.85815551180E+02  0.19524626856E+02 -0.14158224890E+04  0.14289446596E+04  0.17200000000E+03 0. -1.
         -6    1    1    2    0  502 -0.85815551180E+02 -0.19524626856E+02 -0.46007533048E+03  0.49899782524E+03  0.17200000000E+03 0.  1.
</event>
<event>
 4    1  0.4653733E+000  0.1885319E+03  0.7818608E-02  0.1159792E+00
         21   -1    0    0  503  502  0.00000000000E+00  0.00000000000E+00  0.64794832858E+03  0.64794832858E+03  0.00000000000E+00 0.  1.
         21   -1    0    0  501  503 -0.00000000000E+00 -0.00000000000E+00 -0.12806570622E+03  0.12806570622E+03  0.00000000000E+00 0.  1.
          6    1    1    2  501    0  0.19024191276E+02  0.74822051589E+02 -0.33421886286E+02  0.19147136011E+03  0.17200000000E+03 0.  1.
         -6    1    1    2    0  502 -0.19024191276E+02 -0.74822051589E+02  0.55330450864E+03  0.58454267469E+03  0.17200000000E+03 0.  1.
</event>
<event>
 4    1  0.4653733E+000  0.2030054E+03  0.7818608E-02  0.1147228E+00
         21   -1    0    0  501  502  0.00000000000E+00  0.00000000000E+00  0.17004164113E+03  0.17004164113E+03  0.00000000000E+00 0.  1.
         21   -1    0    0  502  503 -0.00000000000E+00 -0.00000000000E+00 -0.31967605466E+03  0.31967605466E+03  0.00000000000E+00 0.  1.
          6    1    1    2  501    0  0.11072608296E+02 -0.10725951319E+03  0.45602347781E+02  0.20806436492E+03  0.17200000000E+03 0.  1.
         -6    1    1    2    0  503 -0.11072608296E+02  0.10725951319E+03 -0.19523676131E+03  0.28165333087E+03  0.17200000000E+03 0.  1.
</event>
<event>
 4    1  0.4653733E+000  0.1766249E+03  0.7818608E-02  0.1171110E+00
         21   -1    0    0  501  502  0.00000000000E+00  0.00000000000E+00  0.44786094703E+03  0.44786094703E+03  0.00000000000E+00 0. -1.
         21   -1    0    0  502  503 -0.00000000000E+00 -0.00000000000E+00 -0.14244040729E+03  0.14244040729E+03  0.00000000000E+00 0. -1.
          6    1    1    2  501    0 -0.27765996854E+02 -0.29007259861E+02  0.36369218284E+03  0.40431222535E+03  0.17200000000E+03 0. -1.
         -6    1    1    2    0  503  0.27765996854E+02  0.29007259861E+02 -0.58271643108E+02  0.18598912897E+03  0.17200000000E+03 0. -1.
</event>
<event>
 4    1  0.4653733E+000  0.1909989E+03  0.7818608E-02  0.1157563E+00
         21   -1    0    0  503  502  0.00000000000E+00  0.00000000000E+00  0.12117836813E+03  0.12117836813E+03  0.00000000000E+00 0. -1.
         21   -1    0    0  501  503 -0.00000000000E+00 -0.00000000000E+00 -0.40625883257E+03  0.40625883257E+03  0.00000000000E+00 0. -1.
          6    1    1    2  501    0  0.70970221665E+02  0.43125621712E+02 -0.83354122445E+01  0.19118072787E+03  0.17200000000E+03 0. -1.
         -6    1    1    2    0  502 -0.70970221665E+02 -0.43125621712E+02 -0.27674505219E+03  0.33625647284E+03  0.17200000000E+03 0. -1.
</event>
<event>
 4    1  0.4653733E+000  0.2123088E+03  0.7818608E-02  0.1139751E+00
         21   -1    0    0  501  502  0.00000000000E+00  0.00000000000E+00  0.76938072700E+02  0.76938072700E+02  0.00000000000E+00 0. -1.
         21   -1    0    0  502  503 -0.00000000000E+00 -0.00000000000E+00 -0.59900237779E+03  0.59900237779E+03  0.00000000000E+00 0. -1.
          6    1    1    2  501    0  0.38838822879E+02 -0.11824786546E+03 -0.21097276235E+03  0.29930672947E+03  0.17200000000E+03 0. -1.
         -6    1    1    2    0  503 -0.38838822879E+02  0.11824786546E+03 -0.31109154274E+03  0.37663372103E+03  0.17200000000E+03 0. -1.
</event>
<event>
 4    1  0.4653733E+000  0.2020952E+03  0.7818608E-02  0.1147983E+00
         21   -1    0    0  501  502  0.00000000000E+00  0.00000000000E+00  0.71300643642E+03  0.71300643642E+03  0.00000000000E+00 0. -1.
         21   -1    0    0  502  503 -0.00000000000E+00 -0.00000000000E+00 -0.57962886589E+02  0.57962886589E+02  0.00000000000E+00 0. -1.
          6    1    1    2  501    0  0.63425298537E+02 -0.85062835420E+02  0.36930102547E+03  0.42098183082E+03  0.17200000000E+03 0. -1.
         -6    1    1    2    0  503 -0.63425298537E+02  0.85062835420E+02  0.28574252436E+03  0.34998749220E+03  0.17200000000E+03 0. -1.
</event>
<event>
 4    1  0.4653733E+000  0.2113545E+03  0.7818608E-02  0.1140498E+00
         21   -1    0    0  501  502  0.00000000000E+00  0.00000000000E+00  0.67711182436E+03  0.67711182436E+03  0.00000000000E+00 0. -1.
         21   -1    0    0  502  503 -0.00000000000E+00 -0.00000000000E+00 -0.79110866072E+02  0.79110866072E+02  0.00000000000E+00 0. -1.
          6    1    1    2  501    0  0.99681847381E+02 -0.71765354804E+02  0.45308992001E+03  0.49996121096E+03  0.17200000000E+03 0. -1.
         -6    1    1    2    0  503 -0.99681847381E+02  0.71765354804E+02  0.14491103828E+03  0.25626147947E+03  0.17200000000E+03 0. -1.
</event>
<event>
 4    1  0.4653733E+000  0.1968657E+03  0.7818608E-02  0.1152411E+00
         21   -1    0    0  501  502  0.00000000000E+00  0.00000000000E+00  0.22232497998E+04  0.22232497998E+04  0.00000000000E+00 0. -1.
         21   -1    0    0  502  503 -0.00000000000E+00 -0.00000000000E+00 -0.18262844275E+02  0.18262844275E+02  0.00000000000E+00 0. -1.
          6    1    1    2  501    0 -0.40355285166E+02 -0.86853678154E+02  0.13415152339E+04  0.13558831931E+04  0.17200000000E+03 0. -1.
         -6    1    1    2    0  503  0.40355285166E+02  0.86853678154E+02  0.86347172165E+03  0.88562945103E+03  0.17200000000E+03 0. -1.
</event>
<event>
 4    1  0.4653733E+000  0.6607219E+03  0.7818608E-02  0.9786866E-01
         21   -1    0    0  501  502  0.00000000000E+00  0.00000000000E+00  0.68161429663E+03  0.68161429663E+03  0.00000000000E+00 0. -1.
         21   -1    0    0  502  503 -0.00000000000E+00 -0.00000000000E+00 -0.75839792173E+03  0.75839792173E+03  0.00000000000E+00 0.  1.
          6    1    1    2  501    0 -0.18967030078E+02  0.63765958042E+03  0.24552819006E+03  0.70486706608E+03  0.17200000000E+03 0. -1.
         -6    1    1    2    0  503  0.18967030078E+02 -0.63765958042E+03 -0.32231181516E+03  0.73514515228E+03  0.17200000000E+03 0.  1.
</event>
<event>
 4    1  0.4653733E+000  0.1800056E+03  0.7818608E-02  0.1167798E+00
         21   -1    0    0  501  502  0.00000000000E+00  0.00000000000E+00  0.29088955155E+03  0.29088955155E+03  0.00000000000E+00 0.  1.
         21   -1    0    0  502  503 -0.00000000000E+00 -0.00000000000E+00 -0.16486062698E+03  0.16486062698E+03  0.00000000000E+00 0.  1.
          6    1    1    2  501    0  0.51704640963E+02  0.12026697545E+02  0.19279168347E+03  0.26376247755E+03  0.17200000000E+03 0.  1.
         -6    1    1    2    0  503 -0.51704640963E+02 -0.12026697545E+02 -0.66762758896E+02  0.19198770098E+03  0.17200000000E+03 0.  1.
</event>
<event>
 4    1  0.4653733E+000  0.1766587E+03  0.7818608E-02  0.1171077E+00
         21   -1    0    0  501  502  0.00000000000E+00  0.00000000000E+00  0.10305148788E+03  0.10305148788E+03  0.00000000000E+00 0. -1.
         21   -1    0    0  502  503 -0.00000000000E+00 -0.00000000000E+00 -0.19171417013E+04  0.19171417013E+04  0.00000000000E+00 0.  1.
          6    1    1    2  501    0  0.21103847662E+02 -0.34335245552E+02  0.19844327830E+02  0.17776973539E+03  0.17200000000E+03 0. -1.
         -6    1    1    2    0  503 -0.21103847662E+02  0.34335245552E+02 -0.18339345412E+04  0.18424234538E+04  0.17200000000E+03 0.  1.
</event>
<event>
 4    1  0.4653733E+000  0.2665580E+03  0.7818608E-02  0.1103266E+00
         21   -1    0    0  501  502  0.00000000000E+00  0.00000000000E+00  0.61332763422E+03  0.61332763422E+03  0.00000000000E+00 0. -1.
         21   -1    0    0  502  503 -0.00000000000E+00 -0.00000000000E+00 -0.19075663439E+03  0.19075663439E+03  0.00000000000E+00 0.  1.
          6    1    1    2  501    0 -0.21986502706E+02  0.20244934574E+03  0.46322482584E+03  0.53444399442E+03  0.17200000000E+03 0. -1.
         -6    1    1    2    0  503  0.21986502706E+02 -0.20244934574E+03 -0.40653826014E+02  0.26964027418E+03  0.17200000000E+03 0.  1.
</event>
<event>
 4    1  0.4653733E+000  0.1782988E+03  0.7818608E-02  0.1169460E+00
         21   -1    0    0  503  502  0.00000000000E+00  0.00000000000E+00  0.16569575713E+03  0.16569575713E+03  0.00000000000E+00 0. -1.
         21   -1    0    0  501  503 -0.00000000000E+00 -0.00000000000E+00 -0.25333830427E+03  0.25333830427E+03  0.00000000000E+00 0. -1.
          6    1    1    2  501    0 -0.44554185445E+02 -0.14878485296E+02 -0.14703290198E+03  0.23110413027E+03  0.17200000000E+03 0. -1.
         -6    1    1    2    0  502  0.44554185445E+02  0.14878485296E+02  0.59390354839E+02  0.18792993113E+03  0.17200000000E+03 0. -1.
</event>
<event>
 4    1  0.4653733E+000  0.1944406E+03  0.7818608E-02  0.1154516E+00
         21   -1    0    0  503  502  0.00000000000E+00  0.00000000000E+00  0.39897203814E+03  0.39897203814E+03  0.00000000000E+00 0.  1.
         21   -1    0    0  501  503 -0.00000000000E+00 -0.00000000000E+00 -0.30196422587E+03  0.30196422587E+03  0.00000000000E+00 0.  1.
          6    1    1    2  501    0 -0.77123697279E+02  0.47697842291E+02 -0.24181052444E+03  0.31028934653E+03  0.17200000000E+03 0.  1.
         -6    1    1    2    0  502  0.77123697279E+02 -0.47697842291E+02  0.33881833672E+03  0.39064691748E+03  0.17200000000E+03 0.  1.
</event>
<event>
 4    1  0.4653733E+000  0.2121445E+03  0.7818608E-02  0.1139879E+00
         21   -1    0    0  503  502  0.00000000000E+00  0.00000000000E+00  0.48496081282E+03  0.48496081282E+03  0.00000000000E+00 0. -1.
         21   -1    0    0  501  503 -0.00000000000E+00 -0.00000000000E+00 -0.95527903743E+02  0.95527903743E+02  0.00000000000E+00 0. -1.
          6    1    1    2  501    0 -0.11814242880E+03 -0.38257624374E+02  0.14568635233E+03  0.25735149613E+03  0.17200000000E+03 0. -1.
         -6    1    1    2    0  502  0.11814242880E+03  0.38257624374E+02  0.24374655675E+03  0.32313722044E+03  0.17200000000E+03 0. -1.
</event>
<event>
 4    1  0.4653733E+000  0.2075550E+03  0.7818608E-02  0.1143517E+00
         21   -1    0    0  501  502  0.00000000000E+00  0.00000000000E+00  0.35790113142E+02  0.35790113142E+02  0.00000000000E+00 0.  1.
         21   -1    0    0  502  503 -0.00000000000E+00 -0.00000000000E+00 -0.12243267650E+04  0.12243267650E+04  0.00000000000E+00 0.  1.
          6    1    1    2  501    0  0.81612945086E+02  0.82670550675E+02 -0.67612962591E+03  0.70726965422E+03  0.17200000000E+03 0.  1.
         -6    1    1    2    0  503 -0.81612945086E+02 -0.82670550675E+02 -0.51240702599E+03  0.55284722396E+03  0.17200000000E+03 0.  1.
</event>
<event>
 4    1  0.4653733E+000  0.3286246E+03  0.7818608E-02  0.1071747E+00
         21   -1    0    0  501  502  0.00000000000E+00  0.00000000000E+00  0.38402946938E+03  0.38402946938E+03  0.00000000000E+00 0. -1.
         21   -1    0    0  502  503 -0.00000000000E+00 -0.00000000000E+00 -0.31561525110E+03  0.31561525110E+03  0.00000000000E+00 0.  1.
          6    1    1    2  501    0 -0.99425769491E+02 -0.26177209896E+03 -0.81287419256E+02  0.33852881704E+03  0.17200000000E+03 0.  1.
         -6    1    1    2    0  503  0.99425769491E+02  0.26177209896E+03  0.14970163754E+03  0.36111590344E+03  0.17200000000E+03 0. -1.
</event>
<event>
 4    1  0.4653733E+000  0.1812256E+03  0.7818608E-02  0.1166622E+00
         21   -1    0    0  501  502  0.00000000000E+00  0.00000000000E+00  0.45388335994E+02  0.45388335994E+02  0.00000000000E+00 0.  1.
         21   -1    0    0  502  503 -0.00000000000E+00 -0.00000000000E+00 -0.85364047214E+03  0.85364047214E+03  0.00000000000E+00 0.  1.
          6    1    1    2  501    0  0.22203025847E+02 -0.52590212736E+02 -0.22867491004E+03  0.29177888771E+03  0.17200000000E+03 0.  1.
         -6    1    1    2    0  503 -0.22203025847E+02  0.52590212736E+02 -0.57957722611E+03  0.60724992042E+03  0.17200000000E+03 0.  1.
</event>
<event>
 4    1  0.4653733E+000  0.2023523E+03  0.7818608E-02  0.1147769E+00
         21   -1    0    0  501  502  0.00000000000E+00  0.00000000000E+00  0.10271126982E+04  0.10271126982E+04  0.00000000000E+00 0. -1.
         21   -1    0    0  502  503 -0.00000000000E+00 -0.00000000000E+00 -0.49443771185E+02  0.49443771185E+02  0.00000000000E+00 0.  1.
          6    1    1    2  501    0 -0.98821916530E+02 -0.39958754842E+02  0.25191970395E+03  0.32312537894E+03  0.17200000000E+03 0.  1.
         -6    1    1    2    0  503  0.98821916530E+02  0.39958754842E+02  0.72574922304E+03  0.75343109043E+03  0.17200000000E+03 0. -1.
</event>
<event>
 4    1  0.4653733E+000  0.3320348E+03  0.7818608E-02  0.1070240E+00
         21   -1    0    0  501  502  0.00000000000E+00  0.00000000000E+00  0.25287096106E+03  0.25287096106E+03  0.00000000000E+00 0.  1.
         21   -1    0    0  502  503 -0.00000000000E+00 -0.00000000000E+00 -0.46243096318E+03  0.46243096318E+03  0.00000000000E+00 0. -1.
          6    1    1    2  501    0  0.34472559731E+02  0.28191262611E+03 -0.19031494139E+03  0.38270989411E+03  0.17200000000E+03 0. -1.
         -6    1    1    2    0  503 -0.34472559731E+02 -0.28191262611E+03 -0.19245060729E+02  0.33259203012E+03  0.17200000000E+03 0.  1.
</event>
<event>
 4    1  0.4653733E+000  0.1770322E+03  0.7818608E-02  0.1170707E+00
         21   -1    0    0  503  502  0.00000000000E+00  0.00000000000E+00  0.26665271032E+03  0.26665271032E+03  0.00000000000E+00 0.  1.
         21   -1    0    0  501  503 -0.00000000000E+00 -0.00000000000E+00 -0.13120577208E+03  0.13120577208E+03  0.00000000000E+00 0.  1.
          6    1    1    2  501    0  0.47287712775E+00 -0.41906750626E+02  0.35055809103E+01  0.17706690390E+03  0.17200000000E+03 0.  1.
         -6    1    1    2    0  502 -0.47287712775E+00  0.41906750626E+02  0.13194135733E+03  0.22079157849E+03  0.17200000000E+03 0.  1.
</event>
<event>
 4    1  0.4653733E+000  0.2110423E+03  0.7818608E-02  0.1140743E+00
         21   -1    0    0  501  502  0.00000000000E+00  0.00000000000E+00  0.38896868489E+03  0.38896868489E+03  0.00000000000E+00 0.  1.
         21   -1    0    0  502  503 -0.00000000000E+00 -0.00000000000E+00 -0.20684637506E+03  0.20684637506E+03  0.00000000000E+00 0.  1.
          6    1    1    2  501    0  0.12213503589E+03  0.61554026202E+01  0.29010818961E+03  0.35875007686E+03  0.17200000000E+03 0.  1.
         -6    1    1    2    0  503 -0.12213503589E+03 -0.61554026202E+01 -0.10798587978E+03  0.23706498308E+03  0.17200000000E+03 0.  1.
</event>
<event>
 4    1  0.4653733E+000  0.2315771E+03  0.7818608E-02  0.1125535E+00
         21   -1    0    0  503  502  0.00000000000E+00  0.00000000000E+00  0.14963442332E+03  0.14963442332E+03  0.00000000000E+00 0.  1.
         21   -1    0    0  501  503 -0.00000000000E+00 -0.00000000000E+00 -0.36039318746E+03  0.36039318746E+03  0.00000000000E+00 0. -1.
          6    1    1    2  501    0  0.13475134573E+03 -0.76720374323E+02 -0.86381609836E+02  0.24716335394E+03  0.17200000000E+03 0.  1.
         -6    1    1    2    0  502 -0.13475134573E+03  0.76720374323E+02 -0.12437715431E+03  0.26286425684E+03  0.17200000000E+03 0. -1.
</event>
<event>
 4    1  0.4653733E+000  0.2090016E+03  0.7818608E-02  0.1142359E+00
         21   -1    0    0  501  502  0.00000000000E+00  0.00000000000E+00  0.79955730638E+03  0.79955730638E+03  0.00000000000E+00 0. -1.
         21   -1    0    0  502  503 -0.00000000000E+00 -0.00000000000E+00 -0.15263138503E+03  0.15263138503E+03  0.00000000000E+00 0. -1.
          6    1    1    2  501    0 -0.33924677961E+02  0.11378393580E+03  0.70495200907E+03  0.73528158070E+03  0.17200000000E+03 0. -1.
         -6    1    1    2    0  503  0.33924677961E+02 -0.11378393580E+03 -0.58026087722E+02  0.21690711071E+03  0.17200000000E+03 0. -1.
</event>
<event>
 4    1  0.4653733E+000  0.2043039E+03  0.7818608E-02  0.1146158E+00
         21   -1    0    0  503  502  0.00000000000E+00  0.00000000000E+00  0.63239958142E+02  0.63239958142E+02  0.00000000000E+00 0. -1.
         21   -1    0    0  501  503 -0.00000000000E+00 -0.00000000000E+00 -0.67488263191E+03  0.67488263191E+03  0.00000000000E+00 0.  1.
          6    1    1    2  501    0 -0.79165976128E+02  0.76738851901E+02 -0.25106624002E+03  0.32368867766E+03  0.17200000000E+03 0. -1.
         -6    1    1    2    0  502  0.79165976128E+02 -0.76738851901E+02 -0.36057643375E+03  0.41443391239E+03  0.17200000000E+03 0. -1.
</event>
<event>
 4    1  0.4653733E+000  0.2144238E+03  0.7818608E-02  0.1138110E+00
         21   -1    0    0  501  502  0.00000000000E+00  0.00000000000E+00  0.32356070595E+02  0.32356070595E+02  0.00000000000E+00 0.  1.
         21   -1    0    0  502  503 -0.00000000000E+00 -0.00000000000E+00 -0.20710559529E+04  0.20710559529E+04  0.00000000000E+00 0. -1.
          6    1    1    2  501    0  0.11875341378E+03  0.47866509966E+02 -0.43012931349E+03  0.48061294446E+03  0.17200000000E+03 0.  1.
         -6    1    1    2    0  503 -0.11875341378E+03 -0.47866509966E+02 -0.16085705688E+04  0.16227990790E+04  0.17200000000E+03 0. -1.
</event>
<event>
 4    1  0.4653733E+000  0.1981718E+03  0.7818608E-02  0.1151291E+00
         21   -1    0    0  501  502  0.00000000000E+00  0.00000000000E+00  0.12558670195E+04  0.12558670195E+04  0.00000000000E+00 0. -1.
         21   -1    0    0  502  503 -0.00000000000E+00 -0.00000000000E+00 -0.32849377858E+02  0.32849377858E+02  0.00000000000E+00 0. -1.
          6    1    1    2  501    0  0.67816740115E+02 -0.71336806876E+02  0.75275854291E+03  0.77840701061E+03  0.17200000000E+03 0. -1.
         -6    1    1    2    0  503 -0.67816740115E+02  0.71336806876E+02  0.47025909874E+03  0.51030938675E+03  0.17200000000E+03 0. -1.
</event>
<event>
 4    1  0.4653733E+000  0.1946875E+03  0.7818608E-02  0.1154300E+00
         21   -1    0    0  503  502  0.00000000000E+00  0.00000000000E+00  0.19310410309E+03  0.19310410309E+03  0.00000000000E+00 0.  1.
         21   -1    0    0  501  503 -0.00000000000E+00 -0.00000000000E+00 -0.33831888916E+03  0.33831888916E+03  0.00000000000E+00 0. -1.
          6    1    1    2  501    0 -0.31793101077E+02  0.85489208596E+02 -0.24477246736E+03  0.31275672150E+03  0.17200000000E+03 0. -1.
         -6    1    1    2    0  502  0.31793101077E+02 -0.85489208596E+02  0.99557681285E+02  0.21866627075E+03  0.17200000000E+03 0.  1.
</event>
<event>
 4    1  0.4653733E+000  0.2704114E+03  0.7818608E-02  0.1101044E+00
         21   -1    0    0  501  502  0.00000000000E+00  0.00000000000E+00  0.22325155576E+03  0.22325155576E+03  0.00000000000E+00 0. -1.
         21   -1    0    0  502  503 -0.00000000000E+00 -0.00000000000E+00 -0.38888529038E+03  0.38888529038E+03  0.00000000000E+00 0.  1.
          6    1    1    2  501    0  0.73355298045E+02 -0.19533895819E+03  0.38751969652E+02  0.27317398025E+03  0.17200000000E+03 0. -1.
         -6    1    1    2    0  503 -0.73355298045E+02  0.19533895819E+03 -0.20438570428E+03  0.33896286589E+03  0.17200000000E+03 0. -1.
</event>
<event>
 4    1  0.4653733E+000  0.3104256E+03  0.7818608E-02  0.1080142E+00
         21   -1    0    0  503  502  0.00000000000E+00  0.00000000000E+00  0.91170965203E+02  0.91170965203E+02  0.00000000000E+00 0. -1.
         21   -1    0    0  501  503 -0.00000000000E+00 -0.00000000000E+00 -0.10645058871E+04  0.10645058871E+04  0.00000000000E+00 0.  1.
          6    1    1    2  501    0  0.39838563324E+02 -0.25532902763E+03 -0.53531939742E+03  0.61881409223E+03  0.17200000000E+03 0.  1.
         -6    1    1    2    0  502 -0.39838563324E+02  0.25532902763E+03 -0.43801552449E+03  0.53686276010E+03  0.17200000000E+03 0. -1.
</event>
<event>
 4    1  0.4653733E+000  0.1786691E+03  0.7818608E-02  0.1169097E+00
         21   -1    0    0  501  502  0.00000000000E+00  0.00000000000E+00  0.34835016872E+02  0.34835016872E+02  0.00000000000E+00 0.  1.
         21   -1    0    0  502  503 -0.00000000000E+00 -0.00000000000E+00 -0.92267826192E+03  0.92267826192E+03  0.00000000000E+00 0.  1.
          6    1    1    2  501    0 -0.35434184689E+02  0.32910029699E+02 -0.40441534031E+03  0.44212489070E+03  0.17200000000E+03 0. -1.
         -6    1    1    2    0  503  0.35434184689E+02 -0.32910029699E+02 -0.48342790474E+03  0.51538838809E+03  0.17200000000E+03 0. -1.
</event>
<event>
 4    1  0.4653733E+000  0.2515073E+03  0.7818608E-02  0.1112356E+00
         21   -1    0    0  503  502  0.00000000000E+00  0.00000000000E+00  0.82426419090E+03  0.82426419090E+03  0.00000000000E+00 0. -1.
         21   -1    0    0  501  503 -0.00000000000E+00 -0.00000000000E+00 -0.78448583773E+02  0.78448583773E+02  0.00000000000E+00 0. -1.
          6    1    1    2  501    0 -0.15348806389E+03 -0.10056511575E+03  0.30634173480E+03  0.39635992070E+03  0.17200000000E+03 0. -1.
         -6    1    1    2    0  502  0.15348806389E+03  0.10056511575E+03  0.43947387233E+03  0.50635285397E+03  0.17200000000E+03 0. -1.
</event>
<event>
 4    1  0.4653733E+000  0.2163211E+03  0.7818608E-02  0.1136656E+00
         21   -1    0    0  501  502  0.00000000000E+00  0.00000000000E+00  0.53749171237E+03  0.53749171237E+03  0.00000000000E+00 0.  1.
         21   -1    0    0  502  503 -0.00000000000E+00 -0.00000000000E+00 -0.88835681661E+02  0.88835681661E+02  0.00000000000E+00 0.  1.
          6    1    1    2  501    0  0.11368165288E+03  0.65477589601E+02  0.26858452288E+03  0.34486588534E+03  0.17200000000E+03 0.  1.
         -6    1    1    2    0  503 -0.11368165288E+03 -0.65477589601E+02  0.18007150783E+03  0.28146150869E+03  0.17200000000E+03 0.  1.
</event>
<event>
 4    1  0.4653733E+000  0.1747670E+03  0.7818608E-02  0.1172966E+00
         21   -1    0    0  501  502  0.00000000000E+00  0.00000000000E+00  0.24167788965E+03  0.24167788965E+03  0.00000000000E+00 0.  1.
         21   -1    0    0  502  503 -0.00000000000E+00 -0.00000000000E+00 -0.35894549938E+03  0.35894549938E+03  0.00000000000E+00 0.  1.
          6    1    1    2  501    0  0.10123711042E+02 -0.29274916827E+02  0.18309568389E+03  0.25311566474E+03  0.17200000000E+03 0.  1.
         -6    1    1    2    0  503 -0.10123711042E+02  0.29274916827E+02 -0.30036329362E+03  0.34750772428E+03  0.17200000000E+03 0.  1.
</event>
<event>
 4    1  0.4653733E+000  0.1905482E+03  0.7818608E-02  0.1157968E+00
         21   -1    0    0  501  502  0.00000000000E+00  0.00000000000E+00  0.14146706305E+03  0.14146706305E+03  0.00000000000E+00 0. -1.
         21   -1    0    0  502  503 -0.00000000000E+00 -0.00000000000E+00 -0.45598409110E+03  0.45598409110E+03  0.00000000000E+00 0.  1.
          6    1    1    2  501    0  0.24837953117E+02  0.78151795193E+02  0.40247280720E+02  0.19475233147E+03  0.17200000000E+03 0. -1.
         -6    1    1    2    0  503 -0.24837953117E+02 -0.78151795193E+02 -0.35476430877E+03  0.40269882268E+03  0.17200000000E+03 0.  1.
</event>
<event>
 4    1  0.4653733E+000  0.1809807E+03  0.7818608E-02  0.1166857E+00
         21   -1    0    0  503  502  0.00000000000E+00  0.00000000000E+00  0.12604072232E+02  0.12604072232E+02  0.00000000000E+00 0. -1.
         21   -1    0    0  501  503 -0.00000000000E+00 -0.00000000000E+00 -0.26027026829E+04  0.26027026829E+04  0.00000000000E+00 0. -1.
          6    1    1    2  501    0  0.43945597671E+02 -0.35196562200E+02 -0.13464261912E+04  0.13585350573E+04  0.17200000000E+03 0. -1.
         -6    1    1    2    0  502 -0.43945597671E+02  0.35196562200E+02 -0.12436724195E+04  0.12567716979E+04  0.17200000000E+03 0. -1.
</event>
<event>
 4    1  0.4653733E+000  0.2067585E+03  0.7818608E-02  0.1144159E+00
         21   -1    0    0  503  502  0.00000000000E+00  0.00000000000E+00  0.10350363463E+04  0.10350363463E+04  0.00000000000E+00 0. -1.
         21   -1    0    0  501  503 -0.00000000000E+00 -0.00000000000E+00 -0.98961340567E+02  0.98961340567E+02  0.00000000000E+00 0. -1.
          6    1    1    2  501    0 -0.11392414259E+03 -0.13651663441E+02  0.35240546212E+02  0.20974025431E+03  0.17200000000E+03 0. -1.
         -6    1    1    2    0  502  0.11392414259E+03  0.13651663441E+02  0.90083445949E+03  0.92425743253E+03  0.17200000000E+03 0. -1.
</event>
<event>
 4    1  0.4653733E+000  0.1916010E+03  0.7818608E-02  0.1157025E+00
         21   -1    0    0  501  502  0.00000000000E+00  0.00000000000E+00  0.31426146738E+02  0.31426146738E+02  0.00000000000E+00 0.  1.
         21   -1    0    0  502  503 -0.00000000000E+00 -0.00000000000E+00 -0.31366015531E+04  0.31366015531E+04  0.00000000000E+00 0.  1.
          6    1    1    2  501    0  0.81891659351E+01  0.84023163234E+02 -0.29774322400E+03  0.35406494014E+03  0.17200000000E+03 0.  1.
         -6    1    1    2    0  503 -0.81891659351E+01 -0.84023163234E+02 -0.28074321823E+04  0.28139627597E+04  0.17200000000E+03 0.  1.
</event>
<event>
 4    1  0.4653733E+000  0.2071323E+03  0.7818608E-02  0.1143857E+00
         21   -1    0    0  503  502  0.00000000000E+00  0.00000000000E+00  0.13381583146E+03  0.13381583146E+03  0.00000000000E+00 0. -1.
         21   -1    0    0  501  503 -0.00000000000E+00 -0.00000000000E+00 -0.33126367635E+03  0.33126367635E+03  0.00000000000E+00 0.  1.
          6    1    1    2  501    0 -0.74091729653E+01  0.11517334524E+03 -0.14041011178E+03  0.25023747679E+03  0.17200000000E+03 0.  1.
         -6    1    1    2    0  502  0.74091729653E+01 -0.11517334524E+03 -0.57037733112E+02  0.21484203103E+03  0.17200000000E+03 0. -1.
</event>
<event>
 4    1  0.4653733E+000  0.1741005E+03  0.7818608E-02  0.1173638E+00
         21   -1    0    0  503  502  0.00000000000E+00  0.00000000000E+00  0.15217886027E+03  0.15217886027E+03  0.00000000000E+00 0.  1.
         21   -1    0    0  501  503 -0.00000000000E+00 -0.00000000000E+00 -0.31171295969E+03  0.31171295969E+03  0.00000000000E+00 0.  1.
          6    1    1    2  501    0 -0.40119207425E+01  0.26662817388E+02 -0.21913052181E+03  0.27987351952E+03  0.17200000000E+03 0.  1.
         -6    1    1    2    0  502  0.40119207425E+01 -0.26662817388E+02  0.59596422390E+02  0.18401830045E+03  0.17200000000E+03 0.  1.
</event>
<event>
 4    1  0.4653733E+000  0.3757011E+03  0.7818608E-02  0.1052534E+00
         21   -1    0    0  503  502  0.00000000000E+00  0.00000000000E+00  0.55697498628E+03  0.55697498628E+03  0.00000000000E+00 0.  1.
         21   -1    0    0  501  503 -0.00000000000E+00 -0.00000000000E+00 -0.38344368027E+03  0.38344368027E+03  0.00000000000E+00 0.  1.
          6    1    1    2  501    0  0.18034425796E+03 -0.28114636679E+03 -0.18704068362E+03  0.41968505842E+03  0.17200000000E+03 0.  1.
         -6    1    1    2    0  502 -0.18034425796E+03  0.28114636679E+03  0.36057198963E+03  0.52073360813E+03  0.17200000000E+03 0.  1.
</event>
<event>
 4    1  0.4653733E+000  0.1846169E+03  0.7818608E-02  0.1163408E+00
         21   -1    0    0  503  502  0.00000000000E+00  0.00000000000E+00  0.89741777247E+02  0.89741777247E+02  0.00000000000E+00 0.  1.
         21   -1    0    0  501  503 -0.00000000000E+00 -0.00000000000E+00 -0.47993857066E+03  0.47993857066E+03  0.00000000000E+00 0.  1.
          6    1    1    2  501    0  0.65063872586E+02  0.16312128779E+02 -0.32521179230E+03  0.37396002849E+03  0.17200000000E+03 0.  1.
         -6    1    1    2    0  502 -0.65063872586E+02 -0.16312128779E+02 -0.64985001113E+02  0.19572031941E+03  0.17200000000E+03 0.  1.
</event>
<event>
 4    1  0.4653733E+000  0.2186855E+03  0.7818608E-02  0.1134867E+00
         21   -1    0    0  503  502  0.00000000000E+00  0.00000000000E+00  0.14932831822E+03  0.14932831822E+03  0.00000000000E+00 0. -1.
         21   -1    0    0  501  503 -0.00000000000E+00 -0.00000000000E+00 -0.40376916802E+03  0.40376916802E+03  0.00000000000E+00 0.  1.
          6    1    1    2  501    0  0.12878774218E+03  0.40657693970E+02 -0.25299182124E+03  0.33440722514E+03  0.17200000000E+03 0.  1.
         -6    1    1    2    0  502 -0.12878774218E+03 -0.40657693970E+02 -0.14490285654E+01  0.21869026110E+03  0.17200000000E+03 0. -1.
</event>
<event>
 4    1  0.4653733E+000  0.2065600E+03  0.7818608E-02  0.1144319E+00
         21   -1    0    0  501  502  0.00000000000E+00  0.00000000000E+00  0.86369101094E+03  0.86369101094E+03  0.00000000000E+00 0. -1.
         21   -1    0    0  502  503 -0.00000000000E+00 -0.00000000000E+00 -0.12406198940E+03  0.12406198940E+03  0.00000000000E+00 0.  1.
          6    1    1    2  501    0 -0.10799787667E+03 -0.37675924086E+02  0.75294479171E+03  0.78076428964E+03  0.17200000000E+03 0. -1.
         -6    1    1    2    0  503  0.10799787667E+03  0.37675924086E+02 -0.13315770169E+02  0.20698871070E+03  0.17200000000E+03 0.  1.
</event>
<event>
 4    1  0.4653733E+000  0.1751579E+03  0.7818608E-02  0.1172573E+00
         21   -1    0    0  503  502  0.00000000000E+00  0.00000000000E+00  0.22742233154E+03  0.22742233154E+03  0.00000000000E+00 0.  1.
         21   -1    0    0  501  503 -0.00000000000E+00 -0.00000000000E+00 -0.14626552235E+03  0.14626552235E+03  0.00000000000E+00 0.  1.
          6    1    1    2  501    0 -0.32628209177E+02 -0.56302776346E+01 -0.11495046717E+02  0.17553471497E+03  0.17200000000E+03 0.  1.
         -6    1    1    2    0  502  0.32628209177E+02  0.56302776346E+01  0.92651855906E+02  0.19815313892E+03  0.17200000000E+03 0.  1.
</event>
<event>
 4    1  0.4653733E+000  0.1855880E+03  0.7818608E-02  0.1162502E+00
         21   -1    0    0  501  502  0.00000000000E+00  0.00000000000E+00  0.74610311658E+02  0.74610311658E+02  0.00000000000E+00 0. -1.
         21   -1    0    0  502  503 -0.00000000000E+00 -0.00000000000E+00 -0.66649369229E+03  0.66649369229E+03  0.00000000000E+00 0.  1.
          6    1    1    2  501    0  0.58323492710E+02 -0.38174509033E+02 -0.90506132121E+02  0.20648070828E+03  0.17200000000E+03 0. -1.
         -6    1    1    2    0  503 -0.58323492710E+02  0.38174509033E+02 -0.50137724851E+03  0.53462329566E+03  0.17200000000E+03 0.  1.
</event>
<event>
 4    1  0.4653733E+000  0.2620667E+03  0.7818608E-02  0.1105908E+00
         21   -1    0    0  503  502  0.00000000000E+00  0.00000000000E+00  0.42430919720E+03  0.42430919720E+03  0.00000000000E+00 0. -1.
         21   -1    0    0  501  503 -0.00000000000E+00 -0.00000000000E+00 -0.18070342842E+03  0.18070342842E+03  0.00000000000E+00 0.  1.
          6    1    1    2  501    0  0.19309047363E+03 -0.42555905196E+02  0.24118659877E+02  0.26317417394E+03  0.17200000000E+03 0. -1.
         -6    1    1    2    0  502 -0.19309047363E+03  0.42555905196E+02  0.21948710889E+03  0.34183845168E+03  0.17200000000E+03 0.  1.
</event>
<event>
 4    1  0.4653733E+000  0.2062222E+03  0.7818608E-02  0.1144593E+00
         21   -1    0    0  501  502  0.00000000000E+00  0.00000000000E+00  0.11495139037E+03  0.11495139037E+03  0.00000000000E+00 0. -1.
         21   -1    0    0  502  503 -0.00000000000E+00 -0.00000000000E+00 -0.39475204551E+03  0.39475204551E+03  0.00000000000E+00 0. -1.
          6    1    1    2  501    0 -0.10586522547E+03 -0.41667144563E+02 -0.20376604514E+03  0.28991067254E+03  0.17200000000E+03 0. -1.
         -6    1    1    2    0  503  0.10586522547E+03  0.41667144563E+02 -0.76034610000E+02  0.21979276334E+03  0.17200000000E+03 0. -1.
</event>
<event>
 4    1  0.4653733E+000  0.2421468E+03  0.7818608E-02  0.1118371E+00
         21   -1    0    0  503  502  0.00000000000E+00  0.00000000000E+00  0.44350132615E+03  0.44350132615E+03  0.00000000000E+00 0. -1.
         21   -1    0    0  501  503 -0.00000000000E+00 -0.00000000000E+00 -0.16828678718E+03  0.16828678718E+03  0.00000000000E+00 0. -1.
          6    1    1    2  501    0 -0.24221818625E+02 -0.16871392802E+03 -0.40252565885E+01  0.24218028140E+03  0.17200000000E+03 0. -1.
         -6    1    1    2    0  502  0.24221818625E+02  0.16871392802E+03  0.27923979556E+03  0.36960783194E+03  0.17200000000E+03 0. -1.
</event>
<event>
 4    1  0.4653733E+000  0.1886298E+03  0.7818608E-02  0.1159703E+00
         21   -1    0    0  503  502  0.00000000000E+00  0.00000000000E+00  0.21130092435E+03  0.21130092435E+03  0.00000000000E+00 0.  1.
         21   -1    0    0  501  503 -0.00000000000E+00 -0.00000000000E+00 -0.19156080382E+03  0.19156080382E+03  0.00000000000E+00 0. -1.
          6    1    1    2  501    0  0.29152527631E+02 -0.71744803420E+02 -0.60183998748E+02  0.19799823330E+03  0.17200000000E+03 0. -1.
         -6    1    1    2    0  502 -0.29152527631E+02  0.71744803420E+02  0.79924119282E+02  0.20486349486E+03  0.17200000000E+03 0.  1.
</event>
<event>
 4    1  0.4653733E+000  0.1869190E+03  0.7818608E-02  0.1161270E+00
         21   -1    0    0  501  502  0.00000000000E+00  0.00000000000E+00  0.34287106742E+02  0.34287106742E+02  0.00000000000E+00 0.  1.
         21   -1    0    0  502  503 -0.00000000000E+00 -0.00000000000E+00 -0.14121061606E+04  0.14121061606E+04  0.00000000000E+00 0.  1.
          6    1    1    2  501    0 -0.89455738641E+01 -0.72627104472E+02 -0.30733875173E+03  0.35971631588E+03  0.17200000000E+03 0.  1.
         -6    1    1    2    0  503  0.89455738641E+01  0.72627104472E+02 -0.10704803021E+04  0.10866769514E+04  0.17200000000E+03 0.  1.
</event>
<event>
 4    1  0.4653733E+000  0.2112548E+03  0.7818608E-02  0.1140576E+00
         21   -1    0    0  503  502  0.00000000000E+00  0.00000000000E+00  0.83115350207E+03  0.83115350207E+03  0.00000000000E+00 0.  1.
         21   -1    0    0  501  503 -0.00000000000E+00 -0.00000000000E+00 -0.58057384964E+02  0.58057384964E+02  0.00000000000E+00 0.  1.
          6    1    1    2  501    0  0.29229027411E+02 -0.11912280908E+03  0.26467142001E+03  0.33864367742E+03  0.17200000000E+03 0.  1.
         -6    1    1    2    0  502 -0.29229027411E+02  0.11912280908E+03  0.50842469710E+03  0.55056720962E+03  0.17200000000E+03 0.  1.
</event>
<event>
 4    1  0.4653733E+000  0.1919194E+03  0.7818608E-02  0.1156741E+00
         21   -1    0    0  503  502  0.00000000000E+00  0.00000000000E+00  0.89478043962E+03  0.89478043962E+03  0.00000000000E+00 0. -1.
         21   -1    0    0  501  503 -0.00000000000E+00 -0.00000000000E+00 -0.50702390991E+02  0.50702390991E+02  0.00000000000E+00 0. -1.
          6    1    1    2  501    0 -0.84800890052E+02 -0.76065598266E+01  0.21699876737E+03  0.28969210508E+03  0.17200000000E+03 0. -1.
         -6    1    1    2    0  502  0.84800890052E+02  0.76065598266E+01  0.62707928126E+03  0.65579072553E+03  0.17200000000E+03 0. -1.
</event>
<event>
 4    1  0.4653733E+000  0.1739712E+03  0.7818608E-02  0.1173769E+00
         21   -1    0    0  503  502  0.00000000000E+00  0.00000000000E+00  0.46347477266E+03  0.46347477266E+03  0.00000000000E+00 0. -1.
         21   -1    0    0  501  503 -0.00000000000E+00 -0.00000000000E+00 -0.12184889092E+03  0.12184889092E+03  0.00000000000E+00 0. -1.
          6    1    1    2  501    0  0.24108221205E+02 -0.10038313200E+02 -0.28556442231E+02  0.17629930361E+03  0.17200000000E+03 0. -1.
         -6    1    1    2    0  502 -0.24108221205E+02  0.10038313200E+02  0.37018232397E+03  0.40902435996E+03  0.17200000000E+03 0. -1.
</event>
<event>
 4    1  0.4653733E+000  0.2607536E+03  0.7818608E-02  0.1106691E+00
         21   -1    0    0  503  502  0.00000000000E+00  0.00000000000E+00  0.68606918648E+02  0.68606918648E+02  0.00000000000E+00 0.  1.
         21   -1    0    0  501  503 -0.00000000000E+00 -0.00000000000E+00 -0.13561985148E+04  0.13561985148E+04  0.00000000000E+00 0. -1.
          6    1    1    2  501    0  0.17894295729E+03 -0.79924130481E+02 -0.10134558342E+04  0.10464631749E+04  0.17200000000E+03 0. -1.
         -6    1    1    2    0  502 -0.17894295729E+03  0.79924130481E+02 -0.27413576192E+03  0.37834225849E+03  0.17200000000E+03 0.  1.
</event>
<event>
 4    1  0.4653733E+000  0.1886057E+03  0.7818608E-02  0.1159725E+00
         21   -1    0    0  501  502  0.00000000000E+00  0.00000000000E+00  0.23704303607E+03  0.23704303607E+03  0.00000000000E+00 0.  1.
         21   -1    0    0  502  503 -0.00000000000E+00 -0.00000000000E+00 -0.17871489950E+03  0.17871489950E+03  0.00000000000E+00 0. -1.
          6    1    1    2  501    0 -0.70130255464E+02  0.32708705065E+02  0.11239480975E+03  0.21955569994E+03  0.17200000000E+03 0.  1.
         -6    1    1    2    0  503  0.70130255464E+02 -0.32708705065E+02 -0.54066673184E+02  0.19620223563E+03  0.17200000000E+03 0. -1.
</event>
<event>
 4    1  0.4653733E+000  0.2071597E+03  0.7818608E-02  0.1143835E+00
         21   -1    0    0  503  502  0.00000000000E+00  0.00000000000E+00  0.50922233422E+03  0.50922233422E+03  0.00000000000E+00 0. -1.
         21   -1    0    0  501  503 -0.00000000000E+00 -0.00000000000E+00 -0.94571169748E+02  0.94571169748E+02  0.00000000000E+00 0.  1.
          6    1    1    2  501    0  0.95667368927E+02  0.64644347601E+02  0.10771641550E+03  0.23349082064E+03  0.17200000000E+03 0.  1.
         -6    1    1    2    0  502 -0.95667368927E+02 -0.64644347601E+02  0.30693474898E+03  0.37030268334E+03  0.17200000000E+03 0. -1.
</event>
<event>
 4    1  0.4653733E+000  0.1879747E+03  0.7818608E-02  0.1160301E+00
         21   -1    0    0  503  502  0.00000000000E+00  0.00000000000E+00  0.98764950256E+03  0.98764950256E+03  0.00000000000E+00 0.  1.
         21   -1    0    0  501  503 -0.00000000000E+00 -0.00000000000E+00 -0.38423102465E+02  0.38423102465E+02  0.00000000000E+00 0. -1.
          6    1    1    2  501    0  0.60079259402E+02 -0.46270476488E+02  0.33996200983E+03  0.38846961597E+03  0.17200000000E+03 0. -1.
         -6    1    1    2    0  502 -0.60079259402E+02  0.46270476488E+02  0.60926439026E+03  0.63760298905E+03  0.17200000000E+03 0.  1.
</event>
<event>
 4    1  0.4653733E+000  0.2166410E+03  0.7818608E-02  0.1136412E+00
         21   -1    0    0  501  502  0.00000000000E+00  0.00000000000E+00  0.78633378217E+03  0.78633378217E+03  0.00000000000E+00 0. -1.
         21   -1    0    0  502  503 -0.00000000000E+00 -0.00000000000E+00 -0.63184555585E+02  0.63184555585E+02  0.00000000000E+00 0. -1.
          6    1    1    2  501    0 -0.15505780540E+02  0.13080097249E+03  0.46152062343E+03  0.50983782665E+03  0.17200000000E+03 0. -1.
         -6    1    1    2    0  503  0.15505780540E+02 -0.13080097249E+03  0.26162860316E+03  0.33968051110E+03  0.17200000000E+03 0. -1.
</event>
<event>
 4    1  0.4653733E+000  0.1732471E+03  0.7818608E-02  0.1174503E+00
         21   -1    0    0  501  502  0.00000000000E+00  0.00000000000E+00  0.62967813115E+03  0.62967813115E+03  0.00000000000E+00 0.  1.
         21   -1    0    0  502  503 -0.00000000000E+00 -0.00000000000E+00 -0.59125001600E+02  0.59125001600E+02  0.00000000000E+00 0.  1.
          6    1    1    2  501    0  0.63292933816E+01 -0.19760922442E+02  0.43689199717E+03  0.46998847986E+03  0.17200000000E+03 0.  1.
         -6    1    1    2    0  503 -0.63292933816E+01  0.19760922442E+02  0.13366113238E+03  0.21881465289E+03  0.17200000000E+03 0.  1.
</event>
<event>
 4    1  0.4653733E+000  0.1885531E+03  0.7818608E-02  0.1159773E+00
         21   -1    0    0  501  502  0.00000000000E+00  0.00000000000E+00  0.26958498004E+03  0.26958498004E+03  0.00000000000E+00 0.  1.
         21   -1    0    0  502  503 -0.00000000000E+00 -0.00000000000E+00 -0.55225973432E+03  0.55225973432E+03  0.00000000000E+00 0.  1.
          6    1    1    2  501    0  0.71617709034E+02  0.28968425845E+02  0.21717992409E+03  0.28760977968E+03  0.17200000000E+03 0.  1.
         -6    1    1    2    0  503 -0.71617709034E+02 -0.28968425845E+02 -0.49985467837E+03  0.53423493468E+03  0.17200000000E+03 0.  1.
</event>
<event>
 4    1  0.4653733E+000  0.2649422E+03  0.7818608E-02  0.1104210E+00
         21   -1    0    0  503  502  0.00000000000E+00  0.00000000000E+00  0.69258242080E+02  0.69258242080E+02  0.00000000000E+00 0.  1.
         21   -1    0    0  501  503 -0.00000000000E+00 -0.00000000000E+00 -0.12149787148E+04  0.12149787148E+04  0.00000000000E+00 0.  1.
          6    1    1    2  501    0  0.11722746517E+03  0.16391486990E+03 -0.83433378366E+03  0.87538975646E+03  0.17200000000E+03 0.  1.
         -6    1    1    2    0  502 -0.11722746517E+03 -0.16391486990E+03 -0.31138668905E+03  0.40884720041E+03  0.17200000000E+03 0.  1.
</event>
<event>
 4    1  0.4653733E+000  0.1870296E+03  0.7818608E-02  0.1161168E+00
         21   -1    0    0  503  502  0.00000000000E+00  0.00000000000E+00  0.67125326456E+03  0.67125326456E+03  0.00000000000E+00 0. -1.
         21   -1    0    0  501  503 -0.00000000000E+00 -0.00000000000E+00 -0.87641154943E+02  0.87641154943E+02  0.00000000000E+00 0.  1.
          6    1    1    2  501    0 -0.44499371142E+02  0.58445498080E+02  0.50208627934E+02  0.19365168886E+03  0.17200000000E+03 0.  1.
         -6    1    1    2    0  502  0.44499371142E+02 -0.58445498080E+02  0.53340348169E+03  0.56524273065E+03  0.17200000000E+03 0. -1.
</event>
<event>
 4    1  0.4653733E+000  0.1895691E+03  0.7818608E-02  0.1158851E+00
         21   -1    0    0  503  502  0.00000000000E+00  0.00000000000E+00  0.13771304932E+03  0.13771304932E+03  0.00000000000E+00 0. -1.
         21   -1    0    0  501  503 -0.00000000000E+00 -0.00000000000E+00 -0.67960171153E+03  0.67960171153E+03  0.00000000000E+00 0. -1.
          6    1    1    2  501    0  0.58439276530E+02  0.54196939389E+02 -0.59168767857E+03  0.62131374221E+03  0.17200000000E+03 0. -1.
         -6    1    1    2    0  502 -0.58439276530E+02 -0.54196939389E+02  0.49799016363E+02  0.19600101865E+03  0.17200000000E+03 0. -1.
</event>
<event>
 4    1  0.4653733E+000  0.2102499E+03  0.7818608E-02  0.1141368E+00
         21   -1    0    0  501  502  0.00000000000E+00  0.00000000000E+00  0.81970405391E+02  0.81970405391E+02  0.00000000000E+00 0. -1.
         21   -1    0    0  502  503 -0.00000000000E+00 -0.00000000000E+00 -0.65009746781E+03  0.65009746781E+03  0.00000000000E+00 0.  1.
          6    1    1    2  501    0  0.10746536355E+03  0.55427704358E+02 -0.13293884905E+03  0.24875243187E+03  0.17200000000E+03 0. -1.
         -6    1    1    2    0  503 -0.10746536355E+03 -0.55427704358E+02 -0.43518821337E+03  0.48331544133E+03  0.17200000000E+03 0.  1.
</event>
<event>
 4    1  0.4653733E+000  0.1804469E+03  0.7818608E-02  0.1167371E+00
         21   -1    0    0  503  502  0.00000000000E+00  0.00000000000E+00  0.37132796366E+03  0.37132796366E+03  0.00000000000E+00 0. -1.
         21   -1    0    0  501  503 -0.00000000000E+00 -0.00000000000E+00 -0.15612947251E+03  0.15612947251E+03  0.00000000000E+00 0. -1.
          6    1    1    2  501    0 -0.51435690634E+02 -0.18205533362E+02 -0.67012756754E+02  0.19248839259E+03  0.17200000000E+03 0. -1.
         -6    1    1    2    0  502  0.51435690634E+02  0.18205533362E+02  0.28221124790E+03  0.33496904358E+03  0.17200000000E+03 0. -1.
</event>
<event>
 4    1  0.4653733E+000  0.1741041E+03  0.7818608E-02  0.1173634E+00
         21   -1    0    0  501  502  0.00000000000E+00  0.00000000000E+00  0.10208444258E+04  0.10208444258E+04  0.00000000000E+00 0. -1.
         21   -1    0    0  502  503 -0.00000000000E+00 -0.00000000000E+00 -0.85912209858E+02  0.85912209858E+02  0.00000000000E+00 0. -1.
          6    1    1    2  501    0 -0.24350318973E+01  0.26875516163E+02  0.91511340670E+03  0.93152819059E+03  0.17200000000E+03 0. -1.
         -6    1    1    2    0  503  0.24350318973E+01 -0.26875516163E+02  0.19818809209E+02  0.17522844503E+03  0.17200000000E+03 0. -1.
</event>
<event>
 4    1  0.4653733E+000  0.1754042E+03  0.7818608E-02  0.1172327E+00
         21   -1    0    0  501  502  0.00000000000E+00  0.00000000000E+00  0.28764776452E+02  0.28764776452E+02  0.00000000000E+00 0. -1.
         21   -1    0    0  502  503 -0.00000000000E+00 -0.00000000000E+00 -0.10748299132E+04  0.10748299132E+04  0.00000000000E+00 0. -1.
          6    1    1    2  501    0  0.33900795985E+02 -0.57758143256E+01 -0.56154650652E+03  0.58830358063E+03  0.17200000000E+03 0. -1.
         -6    1    1    2    0  503 -0.33900795985E+02  0.57758143256E+01 -0.48451863026E+03  0.51529110905E+03  0.17200000000E+03 0. -1.
</event>
<event>
 4    1  0.4653733E+000  0.2985621E+03  0.7818608E-02  0.1085962E+00
         21   -1    0    0  503  502  0.00000000000E+00  0.00000000000E+00  0.65120592577E+03  0.65120592577E+03  0.00000000000E+00 0.  1.
         21   -1    0    0  501  503 -0.00000000000E+00 -0.00000000000E+00 -0.15112547848E+03  0.15112547848E+03  0.00000000000E+00 0. -1.
          6    1    1    2  501    0 -0.20057949885E+03 -0.13900783166E+03  0.12688838412E+03  0.32440711251E+03  0.17200000000E+03 0. -1.
         -6    1    1    2    0  502  0.20057949885E+03  0.13900783166E+03  0.37319206317E+03  0.47792429174E+03  0.17200000000E+03 0.  1.
</event>
<event>
 4    1  0.4653733E+000  0.2051305E+03  0.7818608E-02  0.1145481E+00
         21   -1    0    0  501  502  0.00000000000E+00  0.00000000000E+00  0.71431204475E+03  0.71431204475E+03  0.00000000000E+00 0. -1.
         21   -1    0    0  502  503 -0.00000000000E+00 -0.00000000000E+00 -0.26013642619E+03  0.26013642619E+03  0.00000000000E+00 0. -1.
          6    1    1    2  501    0 -0.98058582735E+02  0.53656565560E+02  0.65560992174E+03  0.68695187762E+03  0.17200000000E+03 0. -1.
         -6    1    1    2    0  503  0.98058582735E+02 -0.53656565560E+02 -0.20143430317E+03  0.28749659332E+03  0.17200000000E+03 0. -1.
</event>
<event>
 4    1  0.4653733E+000  0.2072471E+03  0.7818608E-02  0.1143765E+00
         21   -1    0    0  503  502  0.00000000000E+00  0.00000000000E+00  0.15124563167E+03  0.15124563167E+03  0.00000000000E+00 0. -1.
         21   -1    0    0  501  503 -0.00000000000E+00 -0.00000000000E+00 -0.50750898982E+03  0.50750898982E+03  0.00000000000E+00 0. -1.
          6    1    1    2  501    0  0.65511805754E+02  0.95265650093E+02 -0.39672397067E+03  0.44759496164E+03  0.17200000000E+03 0. -1.
         -6    1    1    2    0  502 -0.65511805754E+02 -0.95265650093E+02  0.40460612519E+02  0.21115965985E+03  0.17200000000E+03 0. -1.
</event>
<event>
 4    1  0.4653733E+000  0.1735364E+03  0.7818608E-02  0.1174209E+00
         21   -1    0    0  503  502  0.00000000000E+00  0.00000000000E+00  0.48655691519E+03  0.48655691519E+03  0.00000000000E+00 0. -1.
         21   -1    0    0  501  503 -0.00000000000E+00 -0.00000000000E+00 -0.13497642325E+03  0.13497642325E+03  0.00000000000E+00 0. -1.
          6    1    1    2  501    0 -0.10435466803E+02  0.20542382373E+02 -0.52881413491E+02  0.18141480737E+03  0.17200000000E+03 0. -1.
         -6    1    1    2    0  502  0.10435466803E+02 -0.20542382373E+02  0.40446190543E+03  0.44011853107E+03  0.17200000000E+03 0. -1.
</event>
<event>
 4    1  0.4653733E+000  0.1786198E+03  0.7818608E-02  0.1169145E+00
         21   -1    0    0  503  502  0.00000000000E+00  0.00000000000E+00  0.93419473294E+02  0.93419473294E+02  0.00000000000E+00 0. -1.
         21   -1    0    0  501  503 -0.00000000000E+00 -0.00000000000E+00 -0.34905808502E+03  0.34905808502E+03  0.00000000000E+00 0. -1.
          6    1    1    2  501    0 -0.21538243161E+02 -0.43094714989E+02 -0.16032127773E+03  0.24001658791E+03  0.17200000000E+03 0. -1.
         -6    1    1    2    0  502  0.21538243161E+02  0.43094714989E+02 -0.95317334004E+02  0.20246097041E+03  0.17200000000E+03 0. -1.
</event>
<event>
 4    1  0.4653733E+000  0.2001625E+03  0.7818608E-02  0.1149602E+00
         21   -1    0    0  501  502  0.00000000000E+00  0.00000000000E+00  0.77457438235E+03  0.77457438235E+03  0.00000000000E+00 0.  1.
         21   -1    0    0  502  503 -0.00000000000E+00 -0.00000000000E+00 -0.79533852970E+02  0.79533852970E+02  0.00000000000E+00 0.  1.
          6    1    1    2  501    0 -0.71351754834E+02  0.73416271440E+02  0.60004086229E+03  0.63254569657E+03  0.17200000000E+03 0.  1.
         -6    1    1    2    0  503  0.71351754834E+02 -0.73416271440E+02  0.94999667086E+02  0.22156253875E+03  0.17200000000E+03 0.  1.
</event>
<event>
 4    1  0.4653733E+000  0.1757683E+03  0.7818608E-02  0.1171962E+00
         21   -1    0    0  501  502  0.00000000000E+00  0.00000000000E+00  0.68868947325E+02  0.68868947325E+02  0.00000000000E+00 0.  1.
         21   -1    0    0  502  503 -0.00000000000E+00 -0.00000000000E+00 -0.46760408225E+03  0.46760408225E+03  0.00000000000E+00 0.  1.
          6    1    1    2  501    0 -0.36145682893E+02  0.19986500706E+01 -0.14528969658E+03  0.22804298044E+03  0.17200000000E+03 0.  1.
         -6    1    1    2    0  503  0.36145682893E+02 -0.19986500706E+01 -0.25344543835E+03  0.30843004914E+03  0.17200000000E+03 0.  1.
</event>
<event>
 4    1  0.4653733E+000  0.1857332E+03  0.7818608E-02  0.1162367E+00
         21   -1    0    0  503  502  0.00000000000E+00  0.00000000000E+00  0.50308510047E+03  0.50308510047E+03  0.00000000000E+00 0.  1.
         21   -1    0    0  501  503 -0.00000000000E+00 -0.00000000000E+00 -0.11331691581E+03  0.11331691581E+03  0.00000000000E+00 0. -1.
          6    1    1    2  501    0  0.65141699131E+02  0.25872281791E+02  0.12126328109E+01  0.18573714332E+03  0.17200000000E+03 0. -1.
         -6    1    1    2    0  502 -0.65141699131E+02 -0.25872281791E+02  0.38855555184E+03  0.43066487296E+03  0.17200000000E+03 0.  1.
</event>
<event>
 4    1  0.4653733E+000  0.1771407E+03  0.7818608E-02  0.1170599E+00
         21   -1    0    0  501  502  0.00000000000E+00  0.00000000000E+00  0.90037991603E+02  0.90037991603E+02  0.00000000000E+00 0.  1.
         21   -1    0    0  502  503 -0.00000000000E+00 -0.00000000000E+00 -0.38575438550E+03  0.38575438550E+03  0.00000000000E+00 0.  1.
          6    1    1    2  501    0 -0.34777878987E+02 -0.24193669060E+02 -0.73934740313E+02  0.19195098415E+03  0.17200000000E+03 0. -1.
         -6    1    1    2    0  503  0.34777878987E+02  0.24193669060E+02 -0.22178165358E+03  0.28384139296E+03  0.17200000000E+03 0. -1.
</event>
<event>
 4    1  0.4653733E+000  0.1937895E+03  0.7818608E-02  0.1155087E+00
         21   -1    0    0  501  502  0.00000000000E+00  0.00000000000E+00  0.40924912292E+03  0.40924912292E+03  0.00000000000E+00 0. -1.
         21   -1    0    0  502  503 -0.00000000000E+00 -0.00000000000E+00 -0.13061639066E+03  0.13061639066E+03  0.00000000000E+00 0. -1.
          6    1    1    2  501    0 -0.80108797769E+02  0.39407428633E+02  0.28653583157E+03  0.34591494284E+03  0.17200000000E+03 0. -1.
         -6    1    1    2    0  503  0.80108797769E+02 -0.39407428633E+02 -0.79030993116E+01  0.19395057074E+03  0.17200000000E+03 0. -1.
</event>
<event>
 4    1  0.4653733E+000  0.1792052E+03  0.7818608E-02  0.1168574E+00
         21   -1    0    0  501  502  0.00000000000E+00  0.00000000000E+00  0.25080127931E+02  0.25080127931E+02  0.00000000000E+00 0.  1.
         21   -1    0    0  502  503 -0.00000000000E+00 -0.00000000000E+00 -0.15867047303E+04  0.15867047303E+04  0.00000000000E+00 0.  1.
          6    1    1    2  501    0  0.34286874414E+02 -0.36809387222E+02 -0.42677301908E+03  0.46287118139E+03  0.17200000000E+03 0.  1.
         -6    1    1    2    0  503 -0.34286874414E+02  0.36809387222E+02 -0.11348515832E+04  0.11489136768E+04  0.17200000000E+03 0.  1.
</event>
<event>
 4    1  0.4653733E+000  0.1737363E+03  0.7818608E-02  0.1174007E+00
         21   -1    0    0  501  502  0.00000000000E+00  0.00000000000E+00  0.25695571040E+02  0.25695571040E+02  0.00000000000E+00 0.  1.
         21   -1    0    0  502  503 -0.00000000000E+00 -0.00000000000E+00 -0.19364292957E+04  0.19364292957E+04  0.00000000000E+00 0.  1.
          6    1    1    2  501    0  0.16109847610E+02  0.18460079005E+02 -0.34004928466E+03  0.38186099265E+03  0.17200000000E+03 0.  1.
         -6    1    1    2    0  503 -0.16109847610E+02 -0.18460079005E+02 -0.15706844400E+04  0.15802638741E+04  0.17200000000E+03 0.  1.
</event>
<event>
 4    1  0.4653733E+000  0.2497843E+03  0.7818608E-02  0.1113441E+00
         21   -1    0    0  501  502  0.00000000000E+00  0.00000000000E+00  0.81418508664E+03  0.81418508664E+03  0.00000000000E+00 0.  1.
         21   -1    0    0  502  503 -0.00000000000E+00 -0.00000000000E+00 -0.11752368963E+03  0.11752368963E+03  0.00000000000E+00 0. -1.
          6    1    1    2  501    0  0.16985925649E+03  0.62896968564E+02  0.62312508252E+03  0.67132485738E+03  0.17200000000E+03 0.  1.
         -6    1    1    2    0  503 -0.16985925649E+03 -0.62896968564E+02  0.73536314492E+02  0.26038391889E+03  0.17200000000E+03 0. -1.
</event>
<event>
 4    1  0.4653733E+000  0.2108913E+03  0.7818608E-02  0.1140862E+00
         21   -1    0    0  501  502  0.00000000000E+00  0.00000000000E+00  0.12481569379E+03  0.12481569379E+03  0.00000000000E+00 0.  1.
         21   -1    0    0  502  503 -0.00000000000E+00 -0.00000000000E+00 -0.35682536130E+03  0.35682536130E+03  0.00000000000E+00 0. -1.
          6    1    1    2  501    0  0.10214023388E+03 -0.66772164706E+02 -0.12500852348E+03  0.24515766417E+03  0.17200000000E+03 0.  1.
         -6    1    1    2    0  503 -0.10214023388E+03  0.66772164706E+02 -0.10700114403E+03  0.23648339092E+03  0.17200000000E+03 0.  1.
</event>
<event>
 4    1  0.4653733E+000  0.1736399E+03  0.7818608E-02  0.1174104E+00
         21   -1    0    0  501  502  0.00000000000E+00  0.00000000000E+00  0.43850311309E+02  0.43850311309E+02  0.00000000000E+00 0. -1.
         21   -1    0    0  502  503 -0.00000000000E+00 -0.00000000000E+00 -0.11211864269E+04  0.11211864269E+04  0.00000000000E+00 0. -1.
          6    1    1    2  501    0  0.22257655378E+02  0.84514361329E+01 -0.17641179359E+03  0.24753171698E+03  0.17200000000E+03 0. -1.
         -6    1    1    2    0  503 -0.22257655378E+02 -0.84514361329E+01 -0.90092432200E+03  0.91750502122E+03  0.17200000000E+03 0. -1.
</event>
<event>
 4    1  0.4653733E+000  0.1736565E+03  0.7818608E-02  0.1174087E+00
         21   -1    0    0  501  502  0.00000000000E+00  0.00000000000E+00  0.88939511507E+03  0.88939511507E+03  0.00000000000E+00 0. -1.
         21   -1    0    0  502  503 -0.00000000000E+00 -0.00000000000E+00 -0.35121459753E+02  0.35121459753E+02  0.00000000000E+00 0. -1.
          6    1    1    2  501    0  0.23922808312E+02  0.53954299038E+00  0.51310066276E+03  0.54169076233E+03  0.17200000000E+03 0.  1.
         -6    1    1    2    0  503 -0.23922808312E+02 -0.53954299038E+00  0.34117299256E+03  0.38282581250E+03  0.17200000000E+03 0.  1.
</event>
<event>
 4    1  0.4653733E+000  0.1886010E+03  0.7818608E-02  0.1159729E+00
         21   -1    0    0  503  502  0.00000000000E+00  0.00000000000E+00  0.16812135402E+03  0.16812135402E+03  0.00000000000E+00 0. -1.
         21   -1    0    0  501  503 -0.00000000000E+00 -0.00000000000E+00 -0.29338724075E+03  0.29338724075E+03  0.00000000000E+00 0.  1.
          6    1    1    2  501    0  0.54167083262E+02 -0.55247462867E+02 -0.18448618126E+03  0.26382855444E+03  0.17200000000E+03 0.  1.
         -6    1    1    2    0  502 -0.54167083262E+02  0.55247462867E+02  0.59220294530E+02  0.19768004033E+03  0.17200000000E+03 0. -1.
</event>
<event>
 4    1  0.4653733E+000  0.2005112E+03  0.7818608E-02  0.1149308E+00
         21   -1    0    0  501  502  0.00000000000E+00  0.00000000000E+00  0.44407899928E+03  0.44407899928E+03  0.00000000000E+00 0.  1.
         21   -1    0    0  502  503 -0.00000000000E+00 -0.00000000000E+00 -0.12762992982E+03  0.12762992982E+03  0.00000000000E+00 0. -1.
          6    1    1    2  501    0 -0.45437415237E+02 -0.92499726114E+02  0.31233251314E+03  0.37115543482E+03  0.17200000000E+03 0.  1.
         -6    1    1    2    0  503  0.45437415237E+02  0.92499726114E+02  0.41165563270E+01  0.20055349429E+03  0.17200000000E+03 0. -1.
</event>
<event>
 4    1  0.4653733E+000  0.2039614E+03  0.7818608E-02  0.1146439E+00
         21   -1    0    0  501  502  0.00000000000E+00  0.00000000000E+00  0.99907104519E+02  0.99907104519E+02  0.00000000000E+00 0.  1.
         21   -1    0    0  502  503 -0.00000000000E+00 -0.00000000000E+00 -0.50626175977E+03  0.50626175977E+03  0.00000000000E+00 0. -1.
          6    1    1    2  501    0 -0.55352334960E+02 -0.94617011728E+02 -0.75477848555E+02  0.21747911513E+03  0.17200000000E+03 0.  1.
         -6    1    1    2    0  503  0.55352334960E+02  0.94617011728E+02 -0.33087680670E+03  0.38868974916E+03  0.17200000000E+03 0. -1.
</event>
<event>
 4    1  0.4653733E+000  0.2161223E+03  0.7818608E-02  0.1136808E+00
         21   -1    0    0  501  502  0.00000000000E+00  0.00000000000E+00  0.51979781874E+03  0.51979781874E+03  0.00000000000E+00 0.  1.
         21   -1    0    0  502  503 -0.00000000000E+00 -0.00000000000E+00 -0.11613212194E+03  0.11613212194E+03  0.00000000000E+00 0.  1.
          6    1    1    2  501    0  0.70729081176E+02  0.11010099519E+03  0.50597311996E+02  0.22196603354E+03  0.17200000000E+03 0.  1.
         -6    1    1    2    0  503 -0.70729081176E+02 -0.11010099519E+03  0.35306838480E+03  0.41396390713E+03  0.17200000000E+03 0.  1.
</event>
<event>
 4    1  0.4653733E+000  0.1844243E+03  0.7818608E-02  0.1163589E+00
         21   -1    0    0  501  502  0.00000000000E+00  0.00000000000E+00  0.21411367573E+02  0.21411367573E+02  0.00000000000E+00 0.  1.
         21   -1    0    0  502  503 -0.00000000000E+00 -0.00000000000E+00 -0.15887484082E+04  0.15887484082E+04  0.00000000000E+00 0. -1.
          6    1    1    2  501    0 -0.43674606976E+01 -0.66402091509E+02 -0.77394348771E+03  0.79561349576E+03  0.17200000000E+03 0.  1.
         -6    1    1    2    0  503  0.43674606976E+01  0.66402091509E+02 -0.79339355295E+03  0.81454628004E+03  0.17200000000E+03 0. -1.
</event>
<event>
 4    1  0.4653733E+000  0.2084808E+03  0.7818608E-02  0.1142775E+00
         21   -1    0    0  501  502  0.00000000000E+00  0.00000000000E+00  0.48211089049E+02  0.48211089049E+02  0.00000000000E+00 0. -1.
         21   -1    0    0  502  503 -0.00000000000E+00 -0.00000000000E+00 -0.14032910558E+04  0.14032910558E+04  0.00000000000E+00 0.  1.
          6    1    1    2  501    0  0.11058835813E+02 -0.11729424415E+03 -0.24357184567E+03  0.32061110643E+03  0.17200000000E+03 0. -1.
         -6    1    1    2    0  503 -0.11058835813E+02  0.11729424415E+03 -0.11115081211E+04  0.11308910384E+04  0.17200000000E+03 0.  1.
</event>
<event>
 4    1  0.4653733E+000  0.1864656E+03  0.7818608E-02  0.1161688E+00
         21   -1    0    0  501  502  0.00000000000E+00  0.00000000000E+00  0.11122445428E+04  0.11122445428E+04  0.00000000000E+00 0. -1.
         21   -1    0    0  502  503 -0.00000000000E+00 -0.00000000000E+00 -0.31396857848E+02  0.31396857848E+02  0.00000000000E+00 0. -1.
          6    1    1    2  501    0  0.59200732527E+02  0.40996264506E+02  0.57809541595E+03  0.60742384739E+03  0.17200000000E+03 0. -1.
         -6    1    1    2    0  503 -0.59200732527E+02 -0.40996264506E+02  0.50275226899E+03  0.53621755325E+03  0.17200000000E+03 0. -1.
</event>
<event>
 4    1  0.4653733E+000  0.2397258E+03  0.7818608E-02  0.1119976E+00
         21   -1    0    0  501  502  0.00000000000E+00  0.00000000000E+00  0.63476729436E+02  0.63476729436E+02  0.00000000000E+00 0.  1.
         21   -1    0    0  502  503 -0.00000000000E+00 -0.00000000000E+00 -0.12114408566E+04  0.12114408566E+04  0.00000000000E+00 0. -1.
          6    1    1    2  501    0  0.31635406421E+02 -0.16396231484E+03 -0.25355542375E+03  0.34893952562E+03  0.17200000000E+03 0.  1.
         -6    1    1    2    0  503 -0.31635406421E+02  0.16396231484E+03 -0.89440870337E+03  0.92597806037E+03  0.17200000000E+03 0.  1.
</event>
<event>
 4    1  0.4653733E+000  0.2790457E+03  0.7818608E-02  0.1096211E+00
         21   -1    0    0  503  502  0.00000000000E+00  0.00000000000E+00  0.74483500179E+03  0.74483500179E+03  0.00000000000E+00 0.  1.
         21   -1    0    0  501  503 -0.00000000000E+00 -0.00000000000E+00 -0.12311494571E+03  0.12311494571E+03  0.00000000000E+00 0. -1.
          6    1    1    2  501    0 -0.20152592835E+03 -0.87577421687E+02  0.14230168286E+03  0.31323517289E+03  0.17200000000E+03 0. -1.
         -6    1    1    2    0  502  0.20152592835E+03  0.87577421687E+02  0.47941837322E+03  0.55471477460E+03  0.17200000000E+03 0.  1.
</event>
<event>
 4    1  0.4653733E+000  0.4456909E+03  0.7818608E-02  0.1029015E+00
         21   -1    0    0  503  502  0.00000000000E+00  0.00000000000E+00  0.26686840035E+03  0.26686840035E+03  0.00000000000E+00 0.  1.
         21   -1    0    0  501  503 -0.00000000000E+00 -0.00000000000E+00 -0.10344629478E+04  0.10344629478E+04  0.00000000000E+00 0. -1.
          6    1    1    2  501    0 -0.99894820843E+02  0.39884511152E+03 -0.72837933473E+03  0.85391852860E+03  0.17200000000E+03 0. -1.
         -6    1    1    2    0  502  0.99894820843E+02 -0.39884511152E+03 -0.39215212750E+02  0.44741281959E+03  0.17200000000E+03 0.  1.
</event>
<event>
 4    1  0.4653733E+000  0.2416869E+03  0.7818608E-02  0.1118674E+00
         21   -1    0    0  503  502  0.00000000000E+00  0.00000000000E+00  0.32765796302E+03  0.32765796302E+03  0.00000000000E+00 0. -1.
         21   -1    0    0  501  503 -0.00000000000E+00 -0.00000000000E+00 -0.24840162770E+03  0.24840162770E+03  0.00000000000E+00 0. -1.
          6    1    1    2  501    0 -0.74911071774E+02  0.15237094073E+03 -0.11341284393E+03  0.26697386655E+03  0.17200000000E+03 0. -1.
         -6    1    1    2    0  502  0.74911071774E+02 -0.15237094073E+03  0.19266917926E+03  0.30908572417E+03  0.17200000000E+03 0. -1.
</event>
<event>
 4    1  0.4653733E+000  0.2073531E+03  0.7818608E-02  0.1143679E+00
         21   -1    0    0  501  502  0.00000000000E+00  0.00000000000E+00  0.17211112923E+04  0.17211112923E+04  0.00000000000E+00 0.  1.
         21   -1    0    0  502  503 -0.00000000000E+00 -0.00000000000E+00 -0.27872856261E+02  0.27872856261E+02  0.00000000000E+00 0.  1.
          6    1    1    2  501    0 -0.59406147795E+02  0.99409303790E+02  0.11282913894E+04  0.11471864537E+04  0.17200000000E+03 0.  1.
         -6    1    1    2    0  503  0.59406147795E+02 -0.99409303790E+02  0.56494704662E+03  0.60179769488E+03  0.17200000000E+03 0.  1.
</event>
<event>
 4    1  0.4653733E+000  0.1870250E+03  0.7818608E-02  0.1161172E+00
         21   -1    0    0  503  502  0.00000000000E+00  0.00000000000E+00  0.19068611766E+04  0.19068611766E+04  0.00000000000E+00 0.  1.
         21   -1    0    0  501  503 -0.00000000000E+00 -0.00000000000E+00 -0.10254504769E+03  0.10254504769E+03  0.00000000000E+00 0.  1.
          6    1    1    2  501    0 -0.73278531234E+02  0.49622232092E+01 -0.82595042701E+01  0.18720733482E+03  0.17200000000E+03 0.  1.
         -6    1    1    2    0  502  0.73278531234E+02 -0.49622232092E+01  0.18125756332E+04  0.18221988895E+04  0.17200000000E+03 0.  1.
</event>
<event>
 4    1  0.4653733E+000  0.2188141E+03  0.7818608E-02  0.1134770E+00
         21   -1    0    0  503  502  0.00000000000E+00  0.00000000000E+00  0.39757193721E+03  0.39757193721E+03  0.00000000000E+00 0.  1.
         21   -1    0    0  501  503 -0.00000000000E+00 -0.00000000000E+00 -0.12905950790E+03  0.12905950790E+03  0.00000000000E+00 0.  1.
          6    1    1    2  501    0 -0.98386632916E+02 -0.92820702900E+02  0.66167790341E+02  0.22859962577E+03  0.17200000000E+03 0.  1.
         -6    1    1    2    0  502  0.98386632916E+02  0.92820702900E+02  0.20234463897E+03  0.29803181935E+03  0.17200000000E+03 0.  1.
</event>
<event>
 4    1  0.4653733E+000  0.1931864E+03  0.7818608E-02  0.1155618E+00
         21   -1    0    0  503  502  0.00000000000E+00  0.00000000000E+00  0.11279614506E+04  0.11279614506E+04  0.00000000000E+00 0.  1.
         21   -1    0    0  501  503 -0.00000000000E+00 -0.00000000000E+00 -0.52204548391E+02  0.52204548391E+02  0.00000000000E+00 0. -1.
          6    1    1    2  501    0  0.87705144848E+02 -0.66916083602E+01  0.18079154368E+03  0.26458751354E+03  0.17200000000E+03 0. -1.
         -6    1    1    2    0  502 -0.87705144848E+02  0.66916083602E+01  0.89496535856E+03  0.91557848548E+03  0.17200000000E+03 0.  1.
</event>
<event>
 4    1  0.4653733E+000  0.2343074E+03  0.7818608E-02  0.1123644E+00
         21   -1    0    0  503  502  0.00000000000E+00  0.00000000000E+00  0.15781469687E+03  0.15781469687E+03  0.00000000000E+00 0.  1.
         21   -1    0    0  501  503 -0.00000000000E+00 -0.00000000000E+00 -0.10699255263E+04  0.10699255263E+04  0.00000000000E+00 0.  1.
          6    1    1    2  501    0 -0.11319107641E+03 -0.11182016010E+03 -0.96034867626E+03  0.98851886576E+03  0.17200000000E+03 0.  1.
         -6    1    1    2    0  502  0.11319107641E+03  0.11182016010E+03  0.48237846795E+02  0.23922135743E+03  0.17200000000E+03 0.  1.
</event>
<event>
 4    1  0.4653733E+000  0.2271264E+03  0.7818608E-02  0.1128679E+00
         21   -1    0    0  503  502  0.00000000000E+00  0.00000000000E+00  0.12819856262E+03  0.12819856262E+03  0.00000000000E+00 0. -1.
         21   -1    0    0  501  503 -0.00000000000E+00 -0.00000000000E+00 -0.41831537524E+03  0.41831537524E+03  0.00000000000E+00 0.  1.
          6    1    1    2  501    0 -0.46823872375E+02 -0.14074777283E+03 -0.91749311880E+02  0.24495784701E+03  0.17200000000E+03 0. -1.
         -6    1    1    2    0  502  0.46823872375E+02  0.14074777283E+03 -0.19836750074E+03  0.30155609086E+03  0.17200000000E+03 0. -1.
</event>
<event>
 4    1  0.4653733E+000  0.2318374E+03  0.7818608E-02  0.1125353E+00
         21   -1    0    0  501  502  0.00000000000E+00  0.00000000000E+00  0.81643651047E+03  0.81643651047E+03  0.00000000000E+00 0. -1.
         21   -1    0    0  502  503 -0.00000000000E+00 -0.00000000000E+00 -0.95369019597E+02  0.95369019597E+02  0.00000000000E+00 0. -1.
          6    1    1    2  501    0  0.37087650263E+02 -0.15096054893E+03  0.61424720265E+03  0.65654261636E+03  0.17200000000E+03 0. -1.
         -6    1    1    2    0  503 -0.37087650263E+02  0.15096054893E+03  0.10682028822E+03  0.25526291370E+03  0.17200000000E+03 0. -1.
</event>
<event>
 4    1  0.4653733E+000  0.1777670E+03  0.7818608E-02  0.1169982E+00
         21   -1    0    0  501  502  0.00000000000E+00  0.00000000000E+00  0.12212250706E+02  0.12212250706E+02  0.00000000000E+00 0.  1.
         21   -1    0    0  502  503 -0.00000000000E+00 -0.00000000000E+00 -0.26978082079E+04  0.26978082079E+04  0.00000000000E+00 0.  1.
          6    1    1    2  501    0 -0.33755394203E+02  0.29625475366E+02 -0.10689970007E+04  0.10836769274E+04  0.17200000000E+03 0.  1.
         -6    1    1    2    0  503  0.33755394203E+02 -0.29625475366E+02 -0.16165989565E+04  0.16263435313E+04  0.17200000000E+03 0.  1.
</event>
<event>
 4    1  0.4653733E+000  0.2399847E+03  0.7818608E-02  0.1119803E+00
         21   -1    0    0  501  502  0.00000000000E+00  0.00000000000E+00  0.97241039195E+03  0.97241039195E+03  0.00000000000E+00 0. -1.
         21   -1    0    0  502  503 -0.00000000000E+00 -0.00000000000E+00 -0.12602542393E+03  0.12602542393E+03  0.00000000000E+00 0.  1.
          6    1    1    2  501    0  0.11370604043E+03  0.12279908501E+03  0.82304480478E+03  0.85731874445E+03  0.17200000000E+03 0. -1.
         -6    1    1    2    0  503 -0.11370604043E+03 -0.12279908501E+03  0.23340163239E+02  0.24111707142E+03  0.17200000000E+03 0.  1.
</event>
<event>
 4    1  0.4653733E+000  0.2682263E+03  0.7818608E-02  0.1102299E+00
         21   -1    0    0  501  502  0.00000000000E+00  0.00000000000E+00  0.15571010347E+03  0.15571010347E+03  0.00000000000E+00 0. -1.
         21   -1    0    0  502  503 -0.00000000000E+00 -0.00000000000E+00 -0.50844641059E+03  0.50844641059E+03  0.00000000000E+00 0.  1.
          6    1    1    2  501    0  0.30609962728E+02  0.20352976327E+03 -0.76050899106E+02  0.27879934291E+03  0.17200000000E+03 0.  1.
         -6    1    1    2    0  503 -0.30609962728E+02 -0.20352976327E+03 -0.27668540801E+03  0.38535717115E+03  0.17200000000E+03 0.  1.
</event>
<event>
 4    1  0.4653733E+000  0.2030273E+03  0.7818608E-02  0.1147210E+00
         21   -1    0    0  501  502  0.00000000000E+00  0.00000000000E+00  0.12763450230E+03  0.12763450230E+03  0.00000000000E+00 0.  1.
         21   -1    0    0  502  503 -0.00000000000E+00 -0.00000000000E+00 -0.34600309600E+03  0.34600309600E+03  0.00000000000E+00 0. -1.
          6    1    1    2  501    0  0.10698946785E+03 -0.13759489367E+02 -0.48061478319E+02  0.20863838447E+03  0.17200000000E+03 0.  1.
         -6    1    1    2    0  503 -0.10698946785E+03  0.13759489367E+02 -0.17030711539E+03  0.26499921383E+03  0.17200000000E+03 0. -1.
</event>
<event>
 4    1  0.4653733E+000  0.1782594E+03  0.7818608E-02  0.1169498E+00
         21   -1    0    0  501  502  0.00000000000E+00  0.00000000000E+00  0.12007908605E+03  0.12007908605E+03  0.00000000000E+00 0. -1.
         21   -1    0    0  502  503 -0.00000000000E+00 -0.00000000000E+00 -0.41172202967E+03  0.41172202967E+03  0.00000000000E+00 0. -1.
          6    1    1    2  501    0 -0.39553395290E+02 -0.25058925127E+02  0.13111165751E+02  0.17874093956E+03  0.17200000000E+03 0. -1.
         -6    1    1    2    0  503  0.39553395290E+02  0.25058925127E+02 -0.30475410938E+03  0.35306017616E+03  0.17200000000E+03 0. -1.
</event>
<event>
 4    1  0.4653733E+000  0.2836770E+03  0.7818608E-02  0.1093697E+00
         21   -1    0    0  503  502  0.00000000000E+00  0.00000000000E+00  0.83206716588E+03  0.83206716588E+03  0.00000000000E+00 0.  1.
         21   -1    0    0  501  503 -0.00000000000E+00 -0.00000000000E+00 -0.53843246189E+03  0.53843246189E+03  0.00000000000E+00 0. -1.
          6    1    1    2  501    0 -0.21406731260E+03  0.71160675093E+02 -0.47384587900E+03  0.55227038038E+03  0.17200000000E+03 0. -1.
         -6    1    1    2    0  502  0.21406731260E+03 -0.71160675093E+02  0.76748058299E+03  0.81822924739E+03  0.17200000000E+03 0.  1.
</event>
<event>
 4    1  0.4653733E+000  0.2487310E+03  0.7818608E-02  0.1114109E+00
         21   -1    0    0  501  502  0.00000000000E+00  0.00000000000E+00  0.11501513372E+04  0.11501513372E+04  0.00000000000E+00 0.  1.
         21   -1    0    0  502  503 -0.00000000000E+00 -0.00000000000E+00 -0.53100576603E+03  0.53100576603E+03  0.00000000000E+00 0. -1.
          6    1    1    2  501    0  0.18612243587E+02 -0.17870837870E+03  0.11064398835E+04  0.11340530481E+04  0.17200000000E+03 0.  1.
         -6    1    1    2    0  503 -0.18612243587E+02  0.17870837870E+03 -0.48729431234E+03  0.54710405506E+03  0.17200000000E+03 0. -1.
</event>
<event>
 4    1  0.4653733E+000  0.1956895E+03  0.7818608E-02  0.1153428E+00
         21   -1    0    0  503  502  0.00000000000E+00  0.00000000000E+00  0.59456811115E+03  0.59456811115E+03  0.00000000000E+00 0.  1.
         21   -1    0    0  501  503 -0.00000000000E+00 -0.00000000000E+00 -0.29423023009E+03  0.29423023009E+03  0.00000000000E+00 0. -1.
          6    1    1    2  501    0  0.77978549309E+02 -0.51280685066E+02 -0.24259040996E+03  0.31168007607E+03  0.17200000000E+03 0. -1.
         -6    1    1    2    0  502 -0.77978549309E+02  0.51280685066E+02  0.54292829101E+03  0.57711826517E+03  0.17200000000E+03 0.  1.
</event>
<event>
 4    1  0.4653733E+000  0.1848178E+03  0.7818608E-02  0.1163220E+00
         21   -1    0    0  501  502  0.00000000000E+00  0.00000000000E+00  0.26687567788E+03  0.26687567788E+03  0.00000000000E+00 0.  1.
         21   -1    0    0  502  503 -0.00000000000E+00 -0.00000000000E+00 -0.13701749205E+03  0.13701749205E+03  0.00000000000E+00 0. -1.
          6    1    1    2  501    0  0.51530730785E+02 -0.43797204156E+02  0.13095102865E+02  0.18528111891E+03  0.17200000000E+03 0. -1.
         -6    1    1    2    0  503 -0.51530730785E+02  0.43797204156E+02  0.11676308297E+03  0.21861205102E+03  0.17200000000E+03 0.  1.
</event>
<event>
 4    1  0.4653733E+000  0.2105489E+03  0.7818608E-02  0.1141132E+00
         21   -1    0    0  503  502  0.00000000000E+00  0.00000000000E+00  0.98279637202E+02  0.98279637202E+02  0.00000000000E+00 0.  1.
         21   -1    0    0  501  503 -0.00000000000E+00 -0.00000000000E+00 -0.48944111537E+03  0.48944111537E+03  0.00000000000E+00 0. -1.
          6    1    1    2  501    0  0.12134720495E+03 -0.46585056196E+01 -0.11329934107E+03  0.23909744145E+03  0.17200000000E+03 0. -1.
         -6    1    1    2    0  502 -0.12134720495E+03  0.46585056196E+01 -0.27786213709E+03  0.34862331112E+03  0.17200000000E+03 0.  1.
</event>
<event>
 4    1  0.4653733E+000  0.2032195E+03  0.7818608E-02  0.1147051E+00
         21   -1    0    0  503  502  0.00000000000E+00  0.00000000000E+00  0.11390224769E+04  0.11390224769E+04  0.00000000000E+00 0.  1.
         21   -1    0    0  501  503 -0.00000000000E+00 -0.00000000000E+00 -0.36460961987E+02  0.36460961987E+02  0.00000000000E+00 0.  1.
          6    1    1    2  501    0 -0.65683826397E+02 -0.86022052480E+02  0.50738058701E+03  0.54656492628E+03  0.17200000000E+03 0.  1.
         -6    1    1    2    0  502  0.65683826397E+02  0.86022052480E+02  0.59518092792E+03  0.62891851262E+03  0.17200000000E+03 0.  1.
</event>
<event>
 4    1  0.4653733E+000  0.1807991E+03  0.7818608E-02  0.1167032E+00
         21   -1    0    0  503  502  0.00000000000E+00  0.00000000000E+00  0.30427181933E+03  0.30427181933E+03  0.00000000000E+00 0. -1.
         21   -1    0    0  501  503 -0.00000000000E+00 -0.00000000000E+00 -0.59585446247E+03  0.59585446247E+03  0.00000000000E+00 0. -1.
          6    1    1    2  501    0 -0.57533501417E+01  0.55418494720E+02 -0.55326680508E+03  0.58205881850E+03  0.17200000000E+03 0. -1.
         -6    1    1    2    0  502  0.57533501417E+01 -0.55418494720E+02  0.26168416194E+03  0.31806746329E+03  0.17200000000E+03 0. -1.
</event>
<event>
 4    1  0.4653733E+000  0.2353565E+03  0.7818608E-02  0.1122925E+00
         21   -1    0    0  501  502  0.00000000000E+00  0.00000000000E+00  0.24206245972E+03  0.24206245972E+03  0.00000000000E+00 0.  1.
         21   -1    0    0  502  503 -0.00000000000E+00 -0.00000000000E+00 -0.37030110206E+03  0.37030110206E+03  0.00000000000E+00 0.  1.
          6    1    1    2  501    0  0.14670950113E+03  0.65460042058E+02  0.12512634020E+03  0.26655073783E+03  0.17200000000E+03 0.  1.
         -6    1    1    2    0  503 -0.14670950113E+03 -0.65460042058E+02 -0.25336498255E+03  0.34581282395E+03  0.17200000000E+03 0.  1.
</event>
<event>
 4    1  0.4653733E+000  0.1772260E+03  0.7818608E-02  0.1170515E+00
         21   -1    0    0  501  502  0.00000000000E+00  0.00000000000E+00  0.62759144364E+02  0.62759144364E+02  0.00000000000E+00 0.  1.
         21   -1    0    0  502  503 -0.00000000000E+00 -0.00000000000E+00 -0.50227842689E+03  0.50227842689E+03  0.00000000000E+00 0.  1.
          6    1    1    2  501    0 -0.77124584362E+01  0.42018673489E+02 -0.20280611417E+03  0.26933134032E+03  0.17200000000E+03 0.  1.
         -6    1    1    2    0  503  0.77124584362E+01 -0.42018673489E+02 -0.23671316836E+03  0.29570623094E+03  0.17200000000E+03 0.  1.
</event>
<event>
 4    1  0.4653733E+000  0.1730886E+03  0.7818608E-02  0.1174665E+00
         21   -1    0    0  503  502  0.00000000000E+00  0.00000000000E+00  0.65943784433E+02  0.65943784433E+02  0.00000000000E+00 0.  1.
         21   -1    0    0  501  503 -0.00000000000E+00 -0.00000000000E+00 -0.13842607033E+04  0.13842607033E+04  0.00000000000E+00 0.  1.
          6    1    1    2  501    0 -0.13493127606E+02  0.13914543339E+02 -0.12534746784E+04  0.12653688982E+04  0.17200000000E+03 0.  1.
         -6    1    1    2    0  502  0.13493127606E+02 -0.13914543339E+02 -0.64842240386E+02  0.18483558950E+03  0.17200000000E+03 0.  1.
</event>
<event>
 4    1  0.4653733E+000  0.1868883E+03  0.7818608E-02  0.1161298E+00
         21   -1    0    0  501  502  0.00000000000E+00  0.00000000000E+00  0.38396880372E+04  0.38396880372E+04  0.00000000000E+00 0. -1.
         21   -1    0    0  502  503 -0.00000000000E+00 -0.00000000000E+00 -0.10752339409E+02  0.10752339409E+02  0.00000000000E+00 0. -1.
          6    1    1    2  501    0  0.38730109626E+02 -0.61993548901E+02  0.26700037981E+04  0.26765364752E+04  0.17200000000E+03 0. -1.
         -6    1    1    2    0  503 -0.38730109626E+02  0.61993548901E+02  0.11589318997E+04  0.11739039014E+04  0.17200000000E+03 0. -1.
</event>
<event>
 4    1  0.4653733E+000  0.1928978E+03  0.7818608E-02  0.1155873E+00
         21   -1    0    0  501  502  0.00000000000E+00  0.00000000000E+00  0.20257477607E+03  0.20257477607E+03  0.00000000000E+00 0. -1.
         21   -1    0    0  502  503 -0.00000000000E+00 -0.00000000000E+00 -0.19298432849E+03  0.19298432849E+03  0.00000000000E+00 0. -1.
          6    1    1    2  501    0  0.65365839897E+02  0.57904003026E+02  0.48215251193E+02  0.19883228370E+03  0.17200000000E+03 0. -1.
         -6    1    1    2    0  503 -0.65365839897E+02 -0.57904003026E+02 -0.38624803608E+02  0.19672682086E+03  0.17200000000E+03 0. -1.
</event>
<event>
 4    1  0.4653733E+000  0.1870705E+03  0.7818608E-02  0.1161130E+00
         21   -1    0    0  503  502  0.00000000000E+00  0.00000000000E+00  0.61020533398E+03  0.61020533398E+03  0.00000000000E+00 0.  1.
         21   -1    0    0  501  503 -0.00000000000E+00 -0.00000000000E+00 -0.83614651405E+02  0.83614651405E+02  0.00000000000E+00 0.  1.
          6    1    1    2  501    0 -0.73551471421E+02 -0.12465056275E+01  0.68866751249E+02  0.19934392931E+03  0.17200000000E+03 0.  1.
         -6    1    1    2    0  502  0.73551471421E+02  0.12465056275E+01  0.45772393133E+03  0.49447605608E+03  0.17200000000E+03 0.  1.
</event>
<event>
 4    1  0.4653733E+000  0.1911705E+03  0.7818608E-02  0.1157410E+00
         21   -1    0    0  501  502  0.00000000000E+00  0.00000000000E+00  0.18108496833E+03  0.18108496833E+03  0.00000000000E+00 0. -1.
         21   -1    0    0  502  503 -0.00000000000E+00 -0.00000000000E+00 -0.20383362606E+03  0.20383362606E+03  0.00000000000E+00 0. -1.
          6    1    1    2  501    0  0.82933854057E+02 -0.91735117011E+01  0.77648376035E+01  0.19132817401E+03  0.17200000000E+03 0. -1.
         -6    1    1    2    0  503 -0.82933854057E+02  0.91735117011E+01 -0.30513495341E+02  0.19359042038E+03  0.17200000000E+03 0. -1.
</event>
<event>
 4    1  0.4653733E+000  0.1914914E+03  0.7818608E-02  0.1157123E+00
         21   -1    0    0  501  502  0.00000000000E+00  0.00000000000E+00  0.41022719873E+03  0.41022719873E+03  0.00000000000E+00 0. -1.
         21   -1    0    0  502  503 -0.00000000000E+00 -0.00000000000E+00 -0.90396215127E+02  0.90396215127E+02  0.00000000000E+00 0. -1.
          6    1    1    2  501    0  0.36597368106E+02  0.75799606900E+02  0.13346619704E+03  0.23341416733E+03  0.17200000000E+03 0. -1.
         -6    1    1    2    0  503 -0.36597368106E+02 -0.75799606900E+02  0.18636478657E+03  0.26720924653E+03  0.17200000000E+03 0. -1.
</event>
<event>
 4    1  0.4653733E+000  0.1804764E+03  0.7818608E-02  0.1167343E+00
         21   -1    0    0  501  502  0.00000000000E+00  0.00000000000E+00  0.13567540511E+03  0.13567540511E+03  0.00000000000E+00 0.  1.
         21   -1    0    0  502  503 -0.00000000000E+00 -0.00000000000E+00 -0.26769883498E+03  0.26769883498E+03  0.00000000000E+00 0.  1.
          6    1    1    2  501    0  0.52706031146E+02 -0.14484762653E+02 -0.12187094655E+01  0.18048052338E+03  0.17200000000E+03 0.  1.
         -6    1    1    2    0  503 -0.52706031146E+02  0.14484762653E+02 -0.13080472040E+03  0.22289371671E+03  0.17200000000E+03 0.  1.
</event>
<event>
 4    1  0.4653733E+000  0.2176792E+03  0.7818608E-02  0.1135625E+00
         21   -1    0    0  501  502  0.00000000000E+00  0.00000000000E+00  0.79761227587E+03  0.79761227587E+03  0.00000000000E+00 0.  1.
         21   -1    0    0  502  503 -0.00000000000E+00 -0.00000000000E+00 -0.67803838332E+02  0.67803838332E+02  0.00000000000E+00 0.  1.
          6    1    1    2  501    0  0.51549992130E+02 -0.12305623145E+03  0.51717269518E+03  0.56111659610E+03  0.17200000000E+03 0.  1.
         -6    1    1    2    0  503 -0.51549992130E+02  0.12305623145E+03  0.21263574236E+03  0.30429951810E+03  0.17200000000E+03 0.  1.
</event>
<event>
 4    1  0.4653733E+000  0.1844334E+03  0.7818608E-02  0.1163580E+00
         21   -1    0    0  501  502  0.00000000000E+00  0.00000000000E+00  0.19088323436E+03  0.19088323436E+03  0.00000000000E+00 0. -1.
         21   -1    0    0  502  503 -0.00000000000E+00 -0.00000000000E+00 -0.26087790001E+03  0.26087790001E+03  0.00000000000E+00 0. -1.
          6    1    1    2  501    0 -0.51314719218E+02 -0.42408262363E+02  0.92162879728E+02  0.20617870289E+03  0.17200000000E+03 0. -1.
         -6    1    1    2    0  503  0.51314719218E+02  0.42408262363E+02 -0.16215754538E+03  0.24558243147E+03  0.17200000000E+03 0. -1.
</event>
<event>
 4    1  0.4653733E+000  0.1742350E+03  0.7818608E-02  0.1173502E+00
         21   -1    0    0  501  502  0.00000000000E+00  0.00000000000E+00  0.85179153576E+03  0.85179153576E+03  0.00000000000E+00 0.  1.
         21   -1    0    0  502  503 -0.00000000000E+00 -0.00000000000E+00 -0.58441195899E+02  0.58441195899E+02  0.00000000000E+00 0.  1.
          6    1    1    2  501    0 -0.25885920395E+02  0.10185387759E+02  0.68095236668E+03  0.70288971303E+03  0.17200000000E+03 0.  1.
         -6    1    1    2    0  503  0.25885920395E+02 -0.10185387759E+02  0.11239797318E+03  0.20734301863E+03  0.17200000000E+03 0.  1.
</event>
<event>
 4    1  0.4653733E+000  0.4611964E+03  0.7818608E-02  0.1024435E+00
         21   -1    0    0  501  502  0.00000000000E+00  0.00000000000E+00  0.59493631425E+03  0.59493631425E+03  0.00000000000E+00 0. -1.
         21   -1    0    0  502  503 -0.00000000000E+00 -0.00000000000E+00 -0.45859689502E+03  0.45859689502E+03  0.00000000000E+00 0.  1.
          6    1    1    2  501    0 -0.12800418228E+02  0.42773157647E+03  0.31547120561E+03  0.55877028714E+03  0.17200000000E+03 0. -1.
         -6    1    1    2    0  503  0.12800418228E+02 -0.42773157647E+03 -0.17913178638E+03  0.49476292213E+03  0.17200000000E+03 0.  1.
</event>
<event>
 4    1  0.4653733E+000  0.3347460E+03  0.7818608E-02  0.1069056E+00
         21   -1    0    0  503  502  0.00000000000E+00  0.00000000000E+00  0.27705501597E+03  0.27705501597E+03  0.00000000000E+00 0. -1.
         21   -1    0    0  501  503 -0.00000000000E+00 -0.00000000000E+00 -0.50806476988E+03  0.50806476988E+03  0.00000000000E+00 0.  1.
          6    1    1    2  501    0 -0.15922497064E+03 -0.23899435414E+03 -0.29278387339E+03  0.44472158606E+03  0.17200000000E+03 0.  1.
         -6    1    1    2    0  502  0.15922497064E+03  0.23899435414E+03  0.61774119480E+02  0.34039819980E+03  0.17200000000E+03 0. -1.
</event>
<event>
 4    1  0.4653733E+000  0.1983710E+03  0.7818608E-02  0.1151121E+00
         21   -1    0    0  501  502  0.00000000000E+00  0.00000000000E+00  0.19030093373E+03  0.19030093373E+03  0.00000000000E+00 0. -1.
         21   -1    0    0  502  503 -0.00000000000E+00 -0.00000000000E+00 -0.28343501149E+03  0.28343501149E+03  0.00000000000E+00 0. -1.
          6    1    1    2  501    0  0.98600316074E+02 -0.67115769060E+01 -0.16974707772E+03  0.26108454184E+03  0.17200000000E+03 0. -1.
         -6    1    1    2    0  503 -0.98600316074E+02  0.67115769060E+01  0.76612999954E+02  0.21265140337E+03  0.17200000000E+03 0. -1.
</event>
<event>
 4    1  0.4653733E+000  0.3798081E+03  0.7818608E-02  0.1051005E+00
         21   -1    0    0  501  502  0.00000000000E+00  0.00000000000E+00  0.12796130459E+04  0.12796130459E+04  0.00000000000E+00 0.  1.
         21   -1    0    0  502  503 -0.00000000000E+00 -0.00000000000E+00 -0.11873532374E+03  0.11873532374E+03  0.00000000000E+00 0. -1.
          6    1    1    2  501    0  0.29243159261E+03  0.17074538213E+03  0.73764384373E+03  0.82968226573E+03  0.17200000000E+03 0.  1.
         -6    1    1    2    0  503 -0.29243159261E+03 -0.17074538213E+03  0.42323387841E+03  0.56866610389E+03  0.17200000000E+03 0. -1.
</event>
<event>
 4    1  0.4653733E+000  0.1840845E+03  0.7818608E-02  0.1163908E+00
         21   -1    0    0  503  502  0.00000000000E+00  0.00000000000E+00  0.15186005678E+03  0.15186005678E+03  0.00000000000E+00 0. -1.
         21   -1    0    0  501  503 -0.00000000000E+00 -0.00000000000E+00 -0.24626459923E+03  0.24626459923E+03  0.00000000000E+00 0. -1.
          6    1    1    2  501    0  0.78663179062E+01 -0.65124791539E+02 -0.10819237440E+03  0.21352448878E+03  0.17200000000E+03 0. -1.
         -6    1    1    2    0  502 -0.78663179062E+01  0.65124791539E+02  0.13787831953E+02  0.18460016723E+03  0.17200000000E+03 0. -1.
</event>
<event>
 4    1  0.4653733E+000  0.2194084E+03  0.7818608E-02  0.1134325E+00
         21   -1    0    0  503  502  0.00000000000E+00  0.00000000000E+00  0.10545609908E+04  0.10545609908E+04  0.00000000000E+00 0. -1.
         21   -1    0    0  501  503 -0.00000000000E+00 -0.00000000000E+00 -0.22621170805E+03  0.22621170805E+03  0.00000000000E+00 0. -1.
          6    1    1    2  501    0 -0.11692545716E+03  0.69889174874E+02 -0.15795980330E+03  0.27035413582E+03  0.17200000000E+03 0. -1.
         -6    1    1    2    0  502  0.11692545716E+03 -0.69889174874E+02  0.98630908609E+03  0.10104185631E+04  0.17200000000E+03 0. -1.
</event>
<event>
 4    1  0.4653733E+000  0.2618076E+03  0.7818608E-02  0.1106062E+00
         21   -1    0    0  501  502  0.00000000000E+00  0.00000000000E+00  0.85663088342E+03  0.85663088342E+03  0.00000000000E+00 0. -1.
         21   -1    0    0  502  503 -0.00000000000E+00 -0.00000000000E+00 -0.10861307927E+03  0.10861307927E+03  0.00000000000E+00 0. -1.
          6    1    1    2  501    0  0.17404923670E+03 -0.93091779563E+02  0.12636058048E+03  0.29070640261E+03  0.17200000000E+03 0. -1.
         -6    1    1    2    0  503 -0.17404923670E+03  0.93091779563E+02  0.62165722367E+03  0.67453756008E+03  0.17200000000E+03 0. -1.
</event>
<event>
 4    1  0.4653733E+000  0.1803752E+03  0.7818608E-02  0.1167440E+00
         21   -1    0    0  501  502  0.00000000000E+00  0.00000000000E+00  0.11526074996E+04  0.11526074996E+04  0.00000000000E+00 0.  1.
         21   -1    0    0  502  503 -0.00000000000E+00 -0.00000000000E+00 -0.63242441348E+02  0.63242441348E+02  0.00000000000E+00 0.  1.
          6    1    1    2  501    0  0.50083659393E+02  0.21043798091E+02  0.99703029016E+03  0.10132149890E+04  0.17200000000E+03 0.  1.
         -6    1    1    2    0  503 -0.50083659393E+02 -0.21043798091E+02  0.92334768145E+02  0.20263495203E+03  0.17200000000E+03 0.  1.
</event>
<event>
 4    1  0.4653733E+000  0.2359447E+03  0.7818608E-02  0.1122524E+00
         21   -1    0    0  503  502  0.00000000000E+00  0.00000000000E+00  0.13041531559E+04  0.13041531559E+04  0.00000000000E+00 0.  1.
         21   -1    0    0  501  503 -0.00000000000E+00 -0.00000000000E+00 -0.18635418021E+03  0.18635418021E+03  0.00000000000E+00 0. -1.
          6    1    1    2  501    0 -0.12651326871E+03 -0.10040060713E+03 -0.95456245974E+02  0.25452265904E+03  0.17200000000E+03 0. -1.
         -6    1    1    2    0  502  0.12651326871E+03  0.10040060713E+03  0.12132552216E+04  0.12359846770E+04  0.17200000000E+03 0.  1.
</event>
<event>
 4    1  0.4653733E+000  0.2207174E+03  0.7818608E-02  0.1133349E+00
         21   -1    0    0  501  502  0.00000000000E+00  0.00000000000E+00  0.43519494983E+02  0.43519494983E+02  0.00000000000E+00 0. -1.
         21   -1    0    0  502  503 -0.00000000000E+00 -0.00000000000E+00 -0.13452663076E+04  0.13452663076E+04  0.00000000000E+00 0.  1.
          6    1    1    2  501    0  0.50832453729E+02  0.12864001100E+03 -0.36635096610E+03  0.42770225759E+03  0.17200000000E+03 0.  1.
         -6    1    1    2    0  503 -0.50832453729E+02 -0.12864001100E+03 -0.93539584649E+03  0.96108354497E+03  0.17200000000E+03 0. -1.
</event>
<event>
 4    1  0.4653733E+000  0.2074233E+03  0.7818608E-02  0.1143623E+00
         21   -1    0    0  503  502  0.00000000000E+00  0.00000000000E+00  0.23584330469E+03  0.23584330469E+03  0.00000000000E+00 0. -1.
         21   -1    0    0  501  503 -0.00000000000E+00 -0.00000000000E+00 -0.18267478988E+03  0.18267478988E+03  0.00000000000E+00 0.  1.
          6    1    1    2  501    0 -0.11419657300E+03  0.19989030517E+02  0.34275962794E+02  0.21023620110E+03  0.17200000000E+03 0.  1.
         -6    1    1    2    0  502  0.11419657300E+03 -0.19989030517E+02  0.18892552022E+02  0.20828189347E+03  0.17200000000E+03 0. -1.
</event>
<event>
 4    1  0.4653733E+000  0.2217221E+03  0.7818608E-02  0.1132606E+00
         21   -1    0    0  501  502  0.00000000000E+00  0.00000000000E+00  0.60971662756E+03  0.60971662756E+03  0.00000000000E+00 0.  1.
         21   -1    0    0  502  503 -0.00000000000E+00 -0.00000000000E+00 -0.10031756664E+03  0.10031756664E+03  0.00000000000E+00 0. -1.
          6    1    1    2  501    0  0.67190407161E+02  0.12272782760E+03  0.41197859805E+03  0.46785364777E+03  0.17200000000E+03 0. -1.
         -6    1    1    2    0  503 -0.67190407161E+02 -0.12272782760E+03  0.97420462868E+02  0.24218054643E+03  0.17200000000E+03 0.  1.
</event>
<event>
 4    1  0.4653733E+000  0.1958164E+03  0.7818608E-02  0.1153317E+00
         21   -1    0    0  503  502  0.00000000000E+00  0.00000000000E+00  0.19513870547E+04  0.19513870547E+04  0.00000000000E+00 0. -1.
         21   -1    0    0  501  503 -0.00000000000E+00 -0.00000000000E+00 -0.19696828883E+02  0.19696828883E+02  0.00000000000E+00 0.  1.
          6    1    1    2  501    0 -0.60505041499E+02  0.71408804466E+02  0.91761263798E+03  0.93827343071E+03  0.17200000000E+03 0.  1.
         -6    1    1    2    0  502  0.60505041499E+02 -0.71408804466E+02  0.10140775878E+04  0.10328104529E+04  0.17200000000E+03 0. -1.
</event>
<event>
 4    1  0.4653733E+000  0.2057179E+03  0.7818608E-02  0.1145003E+00
         21   -1    0    0  503  502  0.00000000000E+00  0.00000000000E+00  0.35155793878E+02  0.35155793878E+02  0.00000000000E+00 0.  1.
         21   -1    0    0  501  503 -0.00000000000E+00 -0.00000000000E+00 -0.15653651683E+04  0.15653651683E+04  0.00000000000E+00 0.  1.
          6    1    1    2  501    0  0.10597272837E+03  0.38802413361E+02 -0.11497219373E+04  0.11679813267E+04  0.17200000000E+03 0.  1.
         -6    1    1    2    0  502 -0.10597272837E+03 -0.38802413361E+02 -0.38048743712E+03  0.43253963547E+03  0.17200000000E+03 0.  1.
</event>
<event>
 4    1  0.4653733E+000  0.1776968E+03  0.7818608E-02  0.1170051E+00
         21   -1    0    0  501  502  0.00000000000E+00  0.00000000000E+00  0.27117569356E+02  0.27117569356E+02  0.00000000000E+00 0. -1.
         21   -1    0    0  502  503 -0.00000000000E+00 -0.00000000000E+00 -0.11731852190E+04  0.11731852190E+04  0.00000000000E+00 0. -1.
          6    1    1    2  501    0 -0.26762532661E+02  0.35719974777E+02 -0.62491877984E+03  0.64969195097E+03  0.17200000000E+03 0. -1.
         -6    1    1    2    0  503  0.26762532661E+02 -0.35719974777E+02 -0.52114886977E+03  0.55061083736E+03  0.17200000000E+03 0. -1.
</event>
<event>
 4    1  0.4653733E+000  0.1852025E+03  0.7818608E-02  0.1162861E+00
         21   -1    0    0  501  502  0.00000000000E+00  0.00000000000E+00  0.96589481098E+02  0.96589481098E+02  0.00000000000E+00 0.  1.
         21   -1    0    0  502  503 -0.00000000000E+00 -0.00000000000E+00 -0.45097596441E+03  0.45097596441E+03  0.00000000000E+00 0.  1.
          6    1    1    2  501    0 -0.67355951694E+02  0.13384142686E+02 -0.50964007324E+02  0.19208667196E+03  0.17200000000E+03 0.  1.
         -6    1    1    2    0  503  0.67355951694E+02 -0.13384142686E+02 -0.30342247599E+03  0.35547877354E+03  0.17200000000E+03 0.  1.
</event>
<event>
 4    1  0.4653733E+000  0.2822317E+03  0.7818608E-02  0.1094476E+00
         21   -1    0    0  501  502  0.00000000000E+00  0.00000000000E+00  0.31099964599E+03  0.31099964599E+03  0.00000000000E+00 0.  1.
         21   -1    0    0  502  503 -0.00000000000E+00 -0.00000000000E+00 -0.11508695246E+04  0.11508695246E+04  0.00000000000E+00 0. -1.
          6    1    1    2  501    0  0.19767825382E+03  0.10485245538E+03  0.22455335570E+03  0.36066457962E+03  0.17200000000E+03 0.  1.
         -6    1    1    2    0  503 -0.19767825382E+03 -0.10485245538E+03 -0.10644232343E+04  0.11012045909E+04  0.17200000000E+03 0. -1.
</event>
<event>
 4    1  0.4653733E+000  0.1739300E+03  0.7818608E-02  0.1173810E+00
         21   -1    0    0  501  502  0.00000000000E+00  0.00000000000E+00  0.10041486792E+03  0.10041486792E+03  0.00000000000E+00 0.  1.
         21   -1    0    0  502  503 -0.00000000000E+00 -0.00000000000E+00 -0.13673869015E+04  0.13673869015E+04  0.00000000000E+00 0.  1.
          6    1    1    2  501    0 -0.16757380979E+02  0.19667828886E+02  0.14543571484E+02  0.17453695535E+03  0.17200000000E+03 0.  1.
         -6    1    1    2    0  503  0.16757380979E+02 -0.19667828886E+02 -0.12815156050E+04  0.12932648140E+04  0.17200000000E+03 0.  1.
</event>
<event>
 4    1  0.4653733E+000  0.2444628E+03  0.7818608E-02  0.1116855E+00
         21   -1    0    0  501  502  0.00000000000E+00  0.00000000000E+00  0.32389529370E+03  0.32389529370E+03  0.00000000000E+00 0. -1.
         21   -1    0    0  502  503 -0.00000000000E+00 -0.00000000000E+00 -0.22029805082E+03  0.22029805082E+03  0.00000000000E+00 0.  1.
          6    1    1    2  501    0  0.16282348615E+03  0.60552044205E+02  0.16146783595E+03  0.29297423051E+03  0.17200000000E+03 0. -1.
         -6    1    1    2    0  503 -0.16282348615E+03 -0.60552044205E+02 -0.57870593063E+02  0.25121911400E+03  0.17200000000E+03 0.  1.
</event>
<event>
 4    1  0.4653733E+000  0.2001476E+03  0.7818608E-02  0.1149615E+00
         21   -1    0    0  503  502  0.00000000000E+00  0.00000000000E+00  0.80554350963E+03  0.80554350963E+03  0.00000000000E+00 0.  1.
         21   -1    0    0  501  503 -0.00000000000E+00 -0.00000000000E+00 -0.63549015106E+02  0.63549015106E+02  0.00000000000E+00 0.  1.
          6    1    1    2  501    0  0.80245468927E+02  0.63527471727E+02  0.16835409612E+03  0.26153809785E+03  0.17200000000E+03 0.  1.
         -6    1    1    2    0  502 -0.80245468927E+02 -0.63527471727E+02  0.57364039840E+03  0.60755442688E+03  0.17200000000E+03 0.  1.
</event>
<event>
 4    1  0.4653733E+000  0.1959517E+03  0.7818608E-02  0.1153200E+00
         21   -1    0    0  503  502  0.00000000000E+00  0.00000000000E+00  0.59112002807E+03  0.59112002807E+03  0.00000000000E+00 0.  1.
         21   -1    0    0  501  503 -0.00000000000E+00 -0.00000000000E+00 -0.80203139516E+02  0.80203139516E+02  0.00000000000E+00 0.  1.
          6    1    1    2  501    0  0.38854677979E+01  0.93797417462E+02  0.10910805508E+03  0.22428022665E+03  0.17200000000E+03 0.  1.
         -6    1    1    2    0  502 -0.38854677979E+01 -0.93797417462E+02  0.40180883348E+03  0.44704294094E+03  0.17200000000E+03 0.  1.
</event>
<event>
 4    1  0.4653733E+000  0.2201683E+03  0.7818608E-02  0.1133758E+00
         21   -1    0    0  503  502  0.00000000000E+00  0.00000000000E+00  0.21689786115E+03  0.21689786115E+03  0.00000000000E+00 0.  1.
         21   -1    0    0  501  503 -0.00000000000E+00 -0.00000000000E+00 -0.83910317575E+03  0.83910317575E+03  0.00000000000E+00 0.  1.
          6    1    1    2  501    0 -0.95016283157E+02  0.99307617698E+02 -0.76335547358E+03  0.79447194793E+03  0.17200000000E+03 0.  1.
         -6    1    1    2    0  502  0.95016283157E+02 -0.99307617698E+02  0.14115015899E+03  0.26152908897E+03  0.17200000000E+03 0.  1.
</event>
<event>
 4    1  0.4653733E+000  0.2779339E+03  0.7818608E-02  0.1096823E+00
         21   -1    0    0  503  502  0.00000000000E+00  0.00000000000E+00  0.79067574646E+02  0.79067574646E+02  0.00000000000E+00 0.  1.
         21   -1    0    0  501  503 -0.00000000000E+00 -0.00000000000E+00 -0.11246536662E+04  0.11246536662E+04  0.00000000000E+00 0. -1.
          6    1    1    2  501    0 -0.24911632608E+02  0.21689326977E+03 -0.74088568869E+03  0.79130201795E+03  0.17200000000E+03 0. -1.
         -6    1    1    2    0  502  0.24911632608E+02 -0.21689326977E+03 -0.30470040289E+03  0.41241922292E+03  0.17200000000E+03 0.  1.
</event>
<event>
 4    1  0.4653733E+000  0.2318585E+03  0.7818608E-02  0.1125338E+00
         21   -1    0    0  501  502  0.00000000000E+00  0.00000000000E+00  0.56218178066E+02  0.56218178066E+02  0.00000000000E+00 0.  1.
         21   -1    0    0  502  503 -0.00000000000E+00 -0.00000000000E+00 -0.11432614924E+04  0.11432614924E+04  0.00000000000E+00 0.  1.
          6    1    1    2  501    0  0.58824099280E+02  0.14392394943E+03 -0.78608743047E+03  0.81956807296E+03  0.17200000000E+03 0.  1.
         -6    1    1    2    0  503 -0.58824099280E+02 -0.14392394943E+03 -0.30095588381E+03  0.37991159745E+03  0.17200000000E+03 0.  1.
</event>
<event>
 4    1  0.4653733E+000  0.2238832E+03  0.7818608E-02  0.1131021E+00
         21   -1    0    0  501  502  0.00000000000E+00  0.00000000000E+00  0.40049989402E+03  0.40049989402E+03  0.00000000000E+00 0. -1.
         21   -1    0    0  502  503 -0.00000000000E+00 -0.00000000000E+00 -0.16455795820E+03  0.16455795820E+03  0.00000000000E+00 0. -1.
          6    1    1    2  501    0 -0.17951415302E+02  0.14218803110E+03  0.25622567417E+03  0.34025767531E+03  0.17200000000E+03 0. -1.
         -6    1    1    2    0  503  0.17951415302E+02 -0.14218803110E+03 -0.20283738358E+02  0.22480017692E+03  0.17200000000E+03 0. -1.
</event>
<event>
 4    1  0.4653733E+000  0.2558336E+03  0.7818608E-02  0.1109673E+00
         21   -1    0    0  503  502  0.00000000000E+00  0.00000000000E+00  0.40337987855E+03  0.40337987855E+03  0.00000000000E+00 0. -1.
         21   -1    0    0  501  503 -0.00000000000E+00 -0.00000000000E+00 -0.36561781244E+03  0.36561781244E+03  0.00000000000E+00 0.  1.
          6    1    1    2  501    0 -0.12811187306E+03  0.13947828461E+03 -0.26787724751E+03  0.37041741810E+03  0.17200000000E+03 0.  1.
         -6    1    1    2    0  502  0.12811187306E+03 -0.13947828461E+03  0.30563931363E+03  0.39858027288E+03  0.17200000000E+03 0. -1.
</event>
<event>
 4    1  0.4653733E+000  0.2110546E+03  0.7818608E-02  0.1140734E+00
         21   -1    0    0  503  502  0.00000000000E+00  0.00000000000E+00  0.19021116087E+03  0.19021116087E+03  0.00000000000E+00 0.  1.
         21   -1    0    0  501  503 -0.00000000000E+00 -0.00000000000E+00 -0.23473790145E+03  0.23473790145E+03  0.00000000000E+00 0. -1.
          6    1    1    2  501    0  0.32251915963E+02  0.11798237447E+03 -0.11923360226E+02  0.21139109084E+03  0.17200000000E+03 0. -1.
         -6    1    1    2    0  502 -0.32251915963E+02 -0.11798237447E+03 -0.32603380356E+02  0.21355797147E+03  0.17200000000E+03 0. -1.
</event>
<event>
 4    1  0.4653733E+000  0.3364726E+03  0.7818608E-02  0.1068308E+00
         21   -1    0    0  501  502  0.00000000000E+00  0.00000000000E+00  0.38300450945E+03  0.38300450945E+03  0.00000000000E+00 0.  1.
         21   -1    0    0  502  503 -0.00000000000E+00 -0.00000000000E+00 -0.36433909436E+03  0.36433909436E+03  0.00000000000E+00 0.  1.
          6    1    1    2  501    0  0.66657282106E+02 -0.28140113035E+03  0.17164771307E+03  0.37772572963E+03  0.17200000000E+03 0.  1.
         -6    1    1    2    0  503 -0.66657282106E+02  0.28140113035E+03 -0.15298229799E+03  0.36961787419E+03  0.17200000000E+03 0.  1.
</event>
<event>
 4    1  0.4653733E+000  0.2167484E+03  0.7818608E-02  0.1136331E+00
         21   -1    0    0  501  502  0.00000000000E+00  0.00000000000E+00  0.56691182409E+02  0.56691182409E+02  0.00000000000E+00 0.  1.
         21   -1    0    0  502  503 -0.00000000000E+00 -0.00000000000E+00 -0.82873657834E+03  0.82873657834E+03  0.00000000000E+00 0. -1.
          6    1    1    2  501    0  0.89789002952E+02  0.96611654271E+02 -0.38903819888E+03  0.44534323502E+03  0.17200000000E+03 0. -1.
         -6    1    1    2    0  503 -0.89789002952E+02 -0.96611654271E+02 -0.38300719706E+03  0.44008452573E+03  0.17200000000E+03 0. -1.
</event>
<event>
 4    1  0.4653733E+000  0.2683948E+03  0.7818608E-02  0.1102202E+00
         21   -1    0    0  501  502  0.00000000000E+00  0.00000000000E+00  0.46862729122E+03  0.46862729122E+03  0.00000000000E+00 0.  1.
         21   -1    0    0  502  503 -0.00000000000E+00 -0.00000000000E+00 -0.27917315187E+03  0.27917315187E+03  0.00000000000E+00 0. -1.
          6    1    1    2  501    0 -0.76611058770E+02  0.19126554893E+03  0.34537589835E+03  0.43740173261E+03  0.17200000000E+03 0.  1.
         -6    1    1    2    0  503  0.76611058770E+02 -0.19126554893E+03 -0.15592175899E+03  0.31039871047E+03  0.17200000000E+03 0. -1.
</event>
<event>
 4    1  0.4653733E+000  0.2751989E+03  0.7818608E-02  0.1098340E+00
         21   -1    0    0  501  502  0.00000000000E+00  0.00000000000E+00  0.22935885003E+03  0.22935885003E+03  0.00000000000E+00 0. -1.
         21   -1    0    0  502  503 -0.00000000000E+00 -0.00000000000E+00 -0.65486546038E+03  0.65486546038E+03  0.00000000000E+00 0.  1.
          6    1    1    2  501    0 -0.66509400283E+01  0.21472350534E+03  0.98543087668E+02  0.29231003896E+03  0.17200000000E+03 0. -1.
         -6    1    1    2    0  503  0.66509400283E+01 -0.21472350534E+03 -0.52404969802E+03  0.59191427145E+03  0.17200000000E+03 0.  1.
</event>
<event>
 4    1  0.4653733E+000  0.1854014E+03  0.7818608E-02  0.1162676E+00
         21   -1    0    0  501  502  0.00000000000E+00  0.00000000000E+00  0.25052044995E+03  0.25052044995E+03  0.00000000000E+00 0.  1.
         21   -1    0    0  502  503 -0.00000000000E+00 -0.00000000000E+00 -0.17764274151E+03  0.17764274151E+03  0.00000000000E+00 0.  1.
          6    1    1    2  501    0 -0.63811493166E+02 -0.26790997239E+02  0.13857453406E+03  0.23146612211E+03  0.17200000000E+03 0.  1.
         -6    1    1    2    0  503  0.63811493166E+02  0.26790997239E+02 -0.65696825619E+02  0.19669706935E+03  0.17200000000E+03 0.  1.
</event>
<event>
 4    1  0.4653733E+000  0.1931927E+03  0.7818608E-02  0.1155613E+00
         21   -1    0    0  501  502  0.00000000000E+00  0.00000000000E+00  0.58517047054E+02  0.58517047054E+02  0.00000000000E+00 0.  1.
         21   -1    0    0  502  503 -0.00000000000E+00 -0.00000000000E+00 -0.77390860509E+03  0.77390860509E+03  0.00000000000E+00 0.  1.
          6    1    1    2  501    0  0.33066211281E+02 -0.81523300134E+02 -0.18316206688E+03  0.26621751546E+03  0.17200000000E+03 0.  1.
         -6    1    1    2    0  503 -0.33066211281E+02  0.81523300134E+02 -0.53222949115E+03  0.56620813668E+03  0.17200000000E+03 0.  1.
</event>
<event>
 4    1  0.4653733E+000  0.2084955E+03  0.7818608E-02  0.1142763E+00
         21   -1    0    0  503  502  0.00000000000E+00  0.00000000000E+00  0.25882332692E+03  0.25882332692E+03  0.00000000000E+00 0. -1.
         21   -1    0    0  501  503 -0.00000000000E+00 -0.00000000000E+00 -0.23048390919E+03  0.23048390919E+03  0.00000000000E+00 0.  1.
          6    1    1    2  501    0 -0.29808478937E+02  0.11400808078E+03 -0.11326143264E+03  0.23727313380E+03  0.17200000000E+03 0.  1.
         -6    1    1    2    0  502  0.29808478937E+02 -0.11400808078E+03  0.14160085037E+03  0.25203410231E+03  0.17200000000E+03 0. -1.
</event>
<event>
 4    1  0.4653733E+000  0.1847560E+03  0.7818608E-02  0.1163278E+00
         21   -1    0    0  501  502  0.00000000000E+00  0.00000000000E+00  0.83640939824E+02  0.83640939824E+02  0.00000000000E+00 0.  1.
         21   -1    0    0  502  503 -0.00000000000E+00 -0.00000000000E+00 -0.51475720127E+03  0.51475720127E+03  0.00000000000E+00 0.  1.
          6    1    1    2  501    0  0.39006673652E+02  0.55038630419E+02 -0.79372240719E+02  0.20108387311E+03  0.17200000000E+03 0.  1.
         -6    1    1    2    0  503 -0.39006673652E+02 -0.55038630419E+02 -0.35174402073E+03  0.39731426799E+03  0.17200000000E+03 0.  1.
</event>
<event>
 4    1  0.4653733E+000  0.1836548E+03  0.7818608E-02  0.1164312E+00
         21   -1    0    0  503  502  0.00000000000E+00  0.00000000000E+00  0.68410811924E+03  0.68410811924E+03  0.00000000000E+00 0. -1.
         21   -1    0    0  501  503 -0.00000000000E+00 -0.00000000000E+00 -0.49753766195E+02  0.49753766195E+02  0.00000000000E+00 0. -1.
          6    1    1    2  501    0  0.64326714663E+02 -0.26727333097E+01  0.35207543370E+03  0.39709719306E+03  0.17200000000E+03 0.  1.
         -6    1    1    2    0  502 -0.64326714663E+02  0.26727333097E+01  0.28227891935E+03  0.33676469238E+03  0.17200000000E+03 0.  1.
</event>
<event>
 4    1  0.4653733E+000  0.2138446E+03  0.7818608E-02  0.1138557E+00
         21   -1    0    0  501  502  0.00000000000E+00  0.00000000000E+00  0.65250974666E+02  0.65250974666E+02  0.00000000000E+00 0.  1.
         21   -1    0    0  502  503 -0.00000000000E+00 -0.00000000000E+00 -0.93908799493E+03  0.93908799493E+03  0.00000000000E+00 0.  1.
          6    1    1    2  501    0  0.10375227937E+03 -0.73355116037E+02 -0.18397382794E+03  0.28209196708E+03  0.17200000000E+03 0.  1.
         -6    1    1    2    0  503 -0.10375227937E+03  0.73355116037E+02 -0.68986319232E+03  0.72224700252E+03  0.17200000000E+03 0.  1.
</event>
<event>
 4    1  0.4653733E+000  0.1730928E+03  0.7818608E-02  0.1174660E+00
         21   -1    0    0  501  502  0.00000000000E+00  0.00000000000E+00  0.73764889305E+02  0.73764889305E+02  0.00000000000E+00 0. -1.
         21   -1    0    0  502  503 -0.00000000000E+00 -0.00000000000E+00 -0.41404166154E+03  0.41404166154E+03  0.00000000000E+00 0. -1.
          6    1    1    2  501    0  0.17735245558E+02  0.79115184998E+01 -0.20376720583E+03  0.26736156274E+03  0.17200000000E+03 0. -1.
         -6    1    1    2    0  503 -0.17735245558E+02 -0.79115184998E+01 -0.13650956641E+03  0.22044498811E+03  0.17200000000E+03 0. -1.
</event>
<event>
 4    1  0.4653733E+000  0.2372463E+03  0.7818608E-02  0.1121641E+00
         21   -1    0    0  501  502  0.00000000000E+00  0.00000000000E+00  0.14112615677E+04  0.14112615677E+04  0.00000000000E+00 0. -1.
         21   -1    0    0  502  503 -0.00000000000E+00 -0.00000000000E+00 -0.42689485014E+02  0.42689485014E+02  0.00000000000E+00 0.  1.
          6    1    1    2  501    0 -0.49406739016E+02 -0.15575870896E+03  0.87067307009E+03  0.90241752878E+03  0.17200000000E+03 0. -1.
         -6    1    1    2    0  503  0.49406739016E+02  0.15575870896E+03  0.49789901265E+03  0.55153352398E+03  0.17200000000E+03 0. -1.
</event>
<event>
 4    1  0.4653733E+000  0.1747659E+03  0.7818608E-02  0.1172967E+00
         21   -1    0    0  503  502  0.00000000000E+00  0.00000000000E+00  0.44860010262E+02  0.44860010262E+02  0.00000000000E+00 0. -1.
         21   -1    0    0  501  503 -0.00000000000E+00 -0.00000000000E+00 -0.12416452173E+04  0.12416452173E+04  0.00000000000E+00 0. -1.
          6    1    1    2  501    0 -0.21763565580E+02 -0.22033518338E+02 -0.10306906807E+04  0.10454025100E+04  0.17200000000E+03 0. -1.
         -6    1    1    2    0  502  0.21763565580E+02  0.22033518338E+02 -0.16609452634E+03  0.24110271753E+03  0.17200000000E+03 0. -1.
</event>
<event>
 4    1  0.4653733E+000  0.2071981E+03  0.7818608E-02  0.1143804E+00
         21   -1    0    0  503  502  0.00000000000E+00  0.00000000000E+00  0.99157870517E+03  0.99157870517E+03  0.00000000000E+00 0. -1.
         21   -1    0    0  501  503 -0.00000000000E+00 -0.00000000000E+00 -0.28043118982E+03  0.28043118982E+03  0.00000000000E+00 0.  1.
          6    1    1    2  501    0  0.15061372658E+02 -0.11454352265E+03 -0.22927778905E+03  0.30902972038E+03  0.17200000000E+03 0.  1.
         -6    1    1    2    0  502 -0.15061372658E+02  0.11454352265E+03  0.94042530440E+03  0.96298017460E+03  0.17200000000E+03 0. -1.
</event>
<event>
 4    1  0.4653733E+000  0.1970112E+03  0.7818608E-02  0.1152285E+00
         21   -1    0    0  501  502  0.00000000000E+00  0.00000000000E+00  0.71642139393E+03  0.71642139393E+03  0.00000000000E+00 0. -1.
         21   -1    0    0  502  503 -0.00000000000E+00 -0.00000000000E+00 -0.55367201068E+02  0.55367201068E+02  0.00000000000E+00 0.  1.
          6    1    1    2  501    0 -0.29774921802E+02 -0.91339263837E+02  0.38711083716E+03  0.43435953694E+03  0.17200000000E+03 0. -1.
         -6    1    1    2    0  503  0.29774921802E+02  0.91339263837E+02  0.27394335570E+03  0.33742905805E+03  0.17200000000E+03 0.  1.
</event>
<event>
 4    1  0.4653733E+000  0.2046116E+03  0.7818608E-02  0.1145905E+00
         21   -1    0    0  501  502  0.00000000000E+00  0.00000000000E+00  0.96729879969E+03  0.96729879969E+03  0.00000000000E+00 0. -1.
         21   -1    0    0  502  503 -0.00000000000E+00 -0.00000000000E+00 -0.43549730364E+02  0.43549730364E+02  0.00000000000E+00 0. -1.
          6    1    1    2  501    0 -0.54860979032E+02  0.96292219891E+02  0.50155758241E+03  0.54168803485E+03  0.17200000000E+03 0. -1.
         -6    1    1    2    0  503  0.54860979032E+02 -0.96292219891E+02  0.42219148691E+03  0.46916049520E+03  0.17200000000E+03 0. -1.
</event>
<event>
 4    1  0.4653733E+000  0.3189572E+03  0.7818608E-02  0.1076130E+00
         21   -1    0    0  503  502  0.00000000000E+00  0.00000000000E+00  0.32433395811E+03  0.32433395811E+03  0.00000000000E+00 0.  1.
         21   -1    0    0  501  503 -0.00000000000E+00 -0.00000000000E+00 -0.11364993057E+04  0.11364993057E+04  0.00000000000E+00 0. -1.
          6    1    1    2  501    0  0.26837488410E+03  0.11162938332E+02 -0.10275825668E+04  0.10759459193E+04  0.17200000000E+03 0. -1.
         -6    1    1    2    0  502 -0.26837488410E+03 -0.11162938332E+02  0.21541721924E+03  0.38488734450E+03  0.17200000000E+03 0.  1.
</event>
<event>
 4    1  0.4653733E+000  0.2149120E+03  0.7818608E-02  0.1137734E+00
         21   -1    0    0  503  502  0.00000000000E+00  0.00000000000E+00  0.19450004965E+03  0.19450004965E+03  0.00000000000E+00 0. -1.
         21   -1    0    0  501  503 -0.00000000000E+00 -0.00000000000E+00 -0.24341964258E+03  0.24341964258E+03  0.00000000000E+00 0. -1.
          6    1    1    2  501    0  0.12396758921E+03 -0.35145219441E+02 -0.58703276325E+02  0.22278515273E+03  0.17200000000E+03 0.  1.
         -6    1    1    2    0  502 -0.12396758921E+03  0.35145219441E+02  0.97836833962E+01  0.21513453950E+03  0.17200000000E+03 0.  1.
</event>
<event>
 4    1  0.4653733E+000  0.1741045E+03  0.7818608E-02  0.1173634E+00
         21   -1    0    0  501  502  0.00000000000E+00  0.00000000000E+00  0.46390237050E+03  0.46390237050E+03  0.00000000000E+00 0.  1.
         21   -1    0    0  502  503 -0.00000000000E+00 -0.00000000000E+00 -0.36810495688E+03  0.36810495688E+03  0.00000000000E+00 0.  1.
          6    1    1    2  501    0  0.18887803601E+01  0.26922364383E+02  0.42517766096E+03  0.45944360326E+03  0.17200000000E+03 0.  1.
         -6    1    1    2    0  503 -0.18887803601E+01 -0.26922364383E+02 -0.32938024734E+03  0.37256372413E+03  0.17200000000E+03 0.  1.
</event>
<event>
 4    1  0.4653733E+000  0.1770659E+03  0.7818608E-02  0.1170673E+00
         21   -1    0    0  501  502  0.00000000000E+00  0.00000000000E+00  0.11613377602E+03  0.11613377602E+03  0.00000000000E+00 0.  1.
         21   -1    0    0  502  503 -0.00000000000E+00 -0.00000000000E+00 -0.58511447416E+03  0.58511447416E+03  0.00000000000E+00 0.  1.
          6    1    1    2  501    0 -0.37054784312E+02  0.19881526667E+02  0.22832305112E+02  0.17853191955E+03  0.17200000000E+03 0.  1.
         -6    1    1    2    0  503  0.37054784312E+02 -0.19881526667E+02 -0.49181300325E+03  0.52271633063E+03  0.17200000000E+03 0.  1.
</event>
<event>
 4    1  0.4653733E+000  0.4865337E+03  0.7818608E-02  0.1017355E+00
         21   -1    0    0  503  502  0.00000000000E+00  0.00000000000E+00  0.13701973660E+04  0.13701973660E+04  0.00000000000E+00 0.  1.
         21   -1    0    0  501  503 -0.00000000000E+00 -0.00000000000E+00 -0.19342673890E+03  0.19342673890E+03  0.00000000000E+00 0.  1.
          6    1    1    2  501    0 -0.44039987585E+03 -0.11479986722E+03  0.33283177523E+03  0.58948456363E+03  0.17200000000E+03 0.  1.
         -6    1    1    2    0  502  0.44039987585E+03  0.11479986722E+03  0.84393885187E+03  0.97413954127E+03  0.17200000000E+03 0.  1.
</event>
<event>
 4    1  0.4653733E+000  0.2082142E+03  0.7818608E-02  0.1142988E+00
         21   -1    0    0  501  502  0.00000000000E+00  0.00000000000E+00  0.29326127554E+03  0.29326127554E+03  0.00000000000E+00 0. -1.
         21   -1    0    0  502  503 -0.00000000000E+00 -0.00000000000E+00 -0.33780100371E+03  0.33780100371E+03  0.00000000000E+00 0. -1.
          6    1    1    2  501    0 -0.84061755653E+02 -0.81870474722E+02  0.21435157721E+03  0.29883064108E+03  0.17200000000E+03 0. -1.
         -6    1    1    2    0  503  0.84061755653E+02  0.81870474722E+02 -0.25889130539E+03  0.33223163817E+03  0.17200000000E+03 0. -1.
</event>
<event>
 4    1  0.4653733E+000  0.1851137E+03  0.7818608E-02  0.1162944E+00
         21   -1    0    0  501  502  0.00000000000E+00  0.00000000000E+00  0.22546653748E+03  0.22546653748E+03  0.00000000000E+00 0.  1.
         21   -1    0    0  502  503 -0.00000000000E+00 -0.00000000000E+00 -0.15786437812E+03  0.15786437812E+03  0.00000000000E+00 0.  1.
          6    1    1    2  501    0 -0.66727422832E+02  0.15182894302E+02  0.70796095552E+02  0.19818969797E+03  0.17200000000E+03 0. -1.
         -6    1    1    2    0  503  0.66727422832E+02 -0.15182894302E+02 -0.31939361972E+01  0.18514121763E+03  0.17200000000E+03 0. -1.
</event>
<event>
 4    1  0.4653733E+000  0.1847343E+03  0.7818608E-02  0.1163298E+00
         21   -1    0    0  503  502  0.00000000000E+00  0.00000000000E+00  0.14422935153E+04  0.14422935153E+04  0.00000000000E+00 0. -1.
         21   -1    0    0  501  503 -0.00000000000E+00 -0.00000000000E+00 -0.23997181865E+02  0.23997181865E+02  0.00000000000E+00 0.  1.
          6    1    1    2  501    0 -0.24650473825E+02 -0.62730562726E+02  0.79586436023E+03  0.81702316323E+03  0.17200000000E+03 0. -1.
         -6    1    1    2    0  502  0.24650473825E+02  0.62730562726E+02  0.62243197317E+03  0.64926753391E+03  0.17200000000E+03 0.  1.
</event>
<event>
 4    1  0.4653733E+000  0.2264100E+03  0.7818608E-02  0.1129192E+00
         21   -1    0    0  503  502  0.00000000000E+00  0.00000000000E+00  0.12569104527E+03  0.12569104527E+03  0.00000000000E+00 0. -1.
         21   -1    0    0  501  503 -0.00000000000E+00 -0.00000000000E+00 -0.48413308263E+03  0.48413308263E+03  0.00000000000E+00 0. -1.
          6    1    1    2  501    0 -0.14026519344E+03 -0.44756538687E+02 -0.30026495644E+03  0.37605919257E+03  0.17200000000E+03 0. -1.
         -6    1    1    2    0  502  0.14026519344E+03  0.44756538687E+02 -0.58177080923E+02  0.23376493533E+03  0.17200000000E+03 0. -1.
</event>
<event>
 4    1  0.4653733E+000  0.1768614E+03  0.7818608E-02  0.1170876E+00
         21   -1    0    0  501  502  0.00000000000E+00  0.00000000000E+00  0.15712179045E+04  0.15712179045E+04  0.00000000000E+00 0.  1.
         21   -1    0    0  502  503 -0.00000000000E+00 -0.00000000000E+00 -0.20018368285E+02  0.20018368285E+02  0.00000000000E+00 0. -1.
          6    1    1    2  501    0  0.36898348727E+02  0.18288679012E+02  0.71655047505E+03  0.73805456927E+03  0.17200000000E+03 0.  1.
         -6    1    1    2    0  503 -0.36898348727E+02 -0.18288679012E+02  0.83464906119E+03  0.85318170355E+03  0.17200000000E+03 0. -1.
</event>
<event>
 4    1  0.4653733E+000  0.1880555E+03  0.7818608E-02  0.1160227E+00
         21   -1    0    0  501  502  0.00000000000E+00  0.00000000000E+00  0.84545954517E+02  0.84545954517E+02  0.00000000000E+00 0. -1.
         21   -1    0    0  502  503 -0.00000000000E+00 -0.00000000000E+00 -0.79182753824E+03  0.79182753824E+03  0.00000000000E+00 0.  1.
          6    1    1    2  501    0 -0.23752930897E+02  0.72226642351E+02 -0.52679981851E+02  0.19529482860E+03  0.17200000000E+03 0.  1.
         -6    1    1    2    0  503  0.23752930897E+02 -0.72226642351E+02 -0.65460160187E+03  0.68107866415E+03  0.17200000000E+03 0.  1.
</event>
<event>
 4    1  0.4653733E+000  0.1871966E+03  0.7818608E-02  0.1161014E+00
         21   -1    0    0  501  502  0.00000000000E+00  0.00000000000E+00  0.12835720308E+03  0.12835720308E+03  0.00000000000E+00 0.  1.
         21   -1    0    0  502  503 -0.00000000000E+00 -0.00000000000E+00 -0.93888328131E+03  0.93888328131E+03  0.00000000000E+00 0.  1.
          6    1    1    2  501    0  0.19783312893E+01 -0.73855530163E+02  0.44126454210E+02  0.19232705762E+03  0.17200000000E+03 0.  1.
         -6    1    1    2    0  503 -0.19783312893E+01  0.73855530163E+02 -0.85465253244E+03  0.87491342677E+03  0.17200000000E+03 0.  1.
</event>
<event>
 4    1  0.4653733E+000  0.2371408E+03  0.7818608E-02  0.1121712E+00
         21   -1    0    0  503  502  0.00000000000E+00  0.00000000000E+00  0.11390631970E+03  0.11390631970E+03  0.00000000000E+00 0.  1.
         21   -1    0    0  501  503 -0.00000000000E+00 -0.00000000000E+00 -0.49402233660E+03  0.49402233660E+03  0.00000000000E+00 0.  1.
          6    1    1    2  501    0  0.32899140539E+02  0.15990441831E+03 -0.18231765177E+03  0.29912456033E+03  0.17200000000E+03 0.  1.
         -6    1    1    2    0  502 -0.32899140539E+02 -0.15990441831E+03 -0.19779836513E+03  0.30880409598E+03  0.17200000000E+03 0.  1.
</event>
<event>
 4    1  0.4653733E+000  0.1874837E+03  0.7818608E-02  0.1160751E+00
         21   -1    0    0  503  502  0.00000000000E+00  0.00000000000E+00  0.15161421171E+03  0.15161421171E+03  0.00000000000E+00 0.  1.
         21   -1    0    0  501  503 -0.00000000000E+00 -0.00000000000E+00 -0.36016555460E+03  0.36016555460E+03  0.00000000000E+00 0.  1.
          6    1    1    2  501    0 -0.37235543109E+02 -0.64650327774E+02 -0.25701806380E+03  0.31813273279E+03  0.17200000000E+03 0.  1.
         -6    1    1    2    0  502  0.37235543109E+02  0.64650327774E+02  0.48466720914E+02  0.19364703351E+03  0.17200000000E+03 0.  1.
</event>
<event>
 4    1  0.4653733E+000  0.1956602E+03  0.7818608E-02  0.1153453E+00
         21   -1    0    0  503  502  0.00000000000E+00  0.00000000000E+00  0.20468662375E+03  0.20468662375E+03  0.00000000000E+00 0.  1.
         21   -1    0    0  501  503 -0.00000000000E+00 -0.00000000000E+00 -0.23984896888E+03  0.23984896888E+03  0.00000000000E+00 0.  1.
          6    1    1    2  501    0  0.79999514976E+02  0.47947738829E+02 -0.12188378047E+03  0.23051803400E+03  0.17200000000E+03 0.  1.
         -6    1    1    2    0  502 -0.79999514976E+02 -0.47947738829E+02  0.86721435345E+02  0.21401755863E+03  0.17200000000E+03 0.  1.
</event>
<event>
 4    1  0.4653733E+000  0.1913815E+03  0.7818608E-02  0.1157221E+00
         21   -1    0    0  503  502  0.00000000000E+00  0.00000000000E+00  0.18746989106E+03  0.18746989106E+03  0.00000000000E+00 0. -1.
         21   -1    0    0  501  503 -0.00000000000E+00 -0.00000000000E+00 -0.10103092639E+04  0.10103092639E+04  0.00000000000E+00 0. -1.
          6    1    1    2  501    0  0.55258085749E+02 -0.63162002042E+02 -0.94929415110E+03  0.96839365955E+03  0.17200000000E+03 0. -1.
         -6    1    1    2    0  502 -0.55258085749E+02  0.63162002042E+02  0.12645477829E+03  0.22938549539E+03  0.17200000000E+03 0. -1.
</event>
<event>
 4    1  0.4653733E+000  0.1985803E+03  0.7818608E-02  0.1150942E+00
         21   -1    0    0  503  502  0.00000000000E+00  0.00000000000E+00  0.66140352828E+03  0.66140352828E+03  0.00000000000E+00 0. -1.
         21   -1    0    0  501  503 -0.00000000000E+00 -0.00000000000E+00 -0.67824668500E+02  0.67824668500E+02  0.00000000000E+00 0. -1.
          6    1    1    2  501    0 -0.75777861065E+02  0.64092464354E+02  0.16998917766E+03  0.26140093484E+03  0.17200000000E+03 0. -1.
         -6    1    1    2    0  502  0.75777861065E+02 -0.64092464354E+02  0.42358968212E+03  0.46782726194E+03  0.17200000000E+03 0. -1.
</event>
<event>
 4    1  0.4653733E+000  0.1878164E+03  0.7818608E-02  0.1160446E+00
         21   -1    0    0  503  502  0.00000000000E+00  0.00000000000E+00  0.10182523278E+03  0.10182523278E+03  0.00000000000E+00 0. -1.
         21   -1    0    0  501  503 -0.00000000000E+00 -0.00000000000E+00 -0.35219938993E+03  0.35219938993E+03  0.00000000000E+00 0.  1.
          6    1    1    2  501    0  0.67848301226E+02 -0.32979176692E+02 -0.15424937491E+03  0.24303886055E+03  0.17200000000E+03 0.  1.
         -6    1    1    2    0  502 -0.67848301226E+02  0.32979176692E+02 -0.96124782245E+02  0.21098576216E+03  0.17200000000E+03 0.  1.
</event>
<event>
 4    1  0.4653733E+000  0.1774793E+03  0.7818608E-02  0.1170265E+00
         21   -1    0    0  501  502  0.00000000000E+00  0.00000000000E+00  0.24603563276E+03  0.24603563276E+03  0.00000000000E+00 0.  1.
         21   -1    0    0  502  503 -0.00000000000E+00 -0.00000000000E+00 -0.24779443546E+03  0.24779443546E+03  0.00000000000E+00 0.  1.
          6    1    1    2  501    0  0.40774241032E+02 -0.15885505165E+02  0.17078231979E+03  0.24630365154E+03  0.17200000000E+03 0.  1.
         -6    1    1    2    0  503 -0.40774241032E+02  0.15885505165E+02 -0.17254112249E+03  0.24752641669E+03  0.17200000000E+03 0.  1.
</event>
<event>
 4    1  0.4653733E+000  0.2089597E+03  0.7818608E-02  0.1142392E+00
         21   -1    0    0  503  502  0.00000000000E+00  0.00000000000E+00  0.46160178345E+03  0.46160178345E+03  0.00000000000E+00 0.  1.
         21   -1    0    0  501  503 -0.00000000000E+00 -0.00000000000E+00 -0.16504778735E+03  0.16504778735E+03  0.00000000000E+00 0.  1.
          6    1    1    2  501    0 -0.11767518158E+03 -0.15254375006E+02 -0.56436356362E+02  0.21644677552E+03  0.17200000000E+03 0.  1.
         -6    1    1    2    0  502  0.11767518158E+03  0.15254375006E+02  0.35299035247E+03  0.41020279527E+03  0.17200000000E+03 0.  1.
</event>
<event>
 4    1  0.4653733E+000  0.2021927E+03  0.7818608E-02  0.1147902E+00
         21   -1    0    0  501  502  0.00000000000E+00  0.00000000000E+00  0.66488824024E+03  0.66488824024E+03  0.00000000000E+00 0. -1.
         21   -1    0    0  502  503 -0.00000000000E+00 -0.00000000000E+00 -0.62603862512E+02  0.62603862512E+02  0.00000000000E+00 0. -1.
          6    1    1    2  501    0  0.74910077707E+02  0.75407992695E+02  0.34972988103E+03  0.40397137867E+03  0.17200000000E+03 0. -1.
         -6    1    1    2    0  503 -0.74910077707E+02 -0.75407992695E+02  0.25255449670E+03  0.32352072408E+03  0.17200000000E+03 0. -1.
</event>
<event>
 4    1  0.4653733E+000  0.2896738E+03  0.7818608E-02  0.1090520E+00
         21   -1    0    0  501  502  0.00000000000E+00  0.00000000000E+00  0.11393169565E+04  0.11393169565E+04  0.00000000000E+00 0.  1.
         21   -1    0    0  502  503 -0.00000000000E+00 -0.00000000000E+00 -0.82926845807E+02  0.82926845807E+02  0.00000000000E+00 0.  1.
          6    1    1    2  501    0 -0.23291354710E+03 -0.88423624662E+01  0.73259277581E+03  0.78778365239E+03  0.17200000000E+03 0.  1.
         -6    1    1    2    0  503  0.23291354710E+03  0.88423624662E+01  0.32379733489E+03  0.43446014993E+03  0.17200000000E+03 0.  1.
</event>
<event>
 4    1  0.4653733E+000  0.1944851E+03  0.7818608E-02  0.1154477E+00
         21   -1    0    0  503  502  0.00000000000E+00  0.00000000000E+00  0.59562892926E+03  0.59562892926E+03  0.00000000000E+00 0. -1.
         21   -1    0    0  501  503 -0.00000000000E+00 -0.00000000000E+00 -0.89447692610E+02  0.89447692610E+02  0.00000000000E+00 0.  1.
          6    1    1    2  501    0  0.87799758351E+02  0.23057779469E+02  0.68612208944E+02  0.20623310592E+03  0.17200000000E+03 0.  1.
         -6    1    1    2    0  502 -0.87799758351E+02 -0.23057779469E+02  0.43756902770E+03  0.47884351595E+03  0.17200000000E+03 0. -1.
</event>
<event>
 4    1  0.4653733E+000  0.1994356E+03  0.7818608E-02  0.1150216E+00
         21   -1    0    0  501  502  0.00000000000E+00  0.00000000000E+00  0.60764752737E+02  0.60764752737E+02  0.00000000000E+00 0. -1.
         21   -1    0    0  502  503 -0.00000000000E+00 -0.00000000000E+00 -0.11844602626E+04  0.11844602626E+04  0.00000000000E+00 0. -1.
          6    1    1    2  501    0  0.68316994964E+02  0.74319123392E+02 -0.14540799890E+03  0.24681578160E+03  0.17200000000E+03 0. -1.
         -6    1    1    2    0  503 -0.68316994964E+02 -0.74319123392E+02 -0.97828751092E+03  0.99840923370E+03  0.17200000000E+03 0. -1.
</event>
<event>
 4    1  0.4653733E+000  0.1961127E+03  0.7818608E-02  0.1153061E+00
         21   -1    0    0  501  502  0.00000000000E+00  0.00000000000E+00  0.14463509634E+03  0.14463509634E+03  0.00000000000E+00 0. -1.
         21   -1    0    0  502  503 -0.00000000000E+00 -0.00000000000E+00 -0.38511524901E+03  0.38511524901E+03  0.00000000000E+00 0. -1.
          6    1    1    2  501    0 -0.28003226670E+02 -0.89955619389E+02  0.27123486343E+02  0.19797948802E+03  0.17200000000E+03 0. -1.
         -6    1    1    2    0  503  0.28003226670E+02  0.89955619389E+02 -0.26760363902E+03  0.33177085734E+03  0.17200000000E+03 0. -1.
</event>
<event>
 4    1  0.4653733E+000  0.1821855E+03  0.7818608E-02  0.1165704E+00
         21   -1    0    0  501  502  0.00000000000E+00  0.00000000000E+00  0.25571236881E+03  0.25571236881E+03  0.00000000000E+00 0. -1.
         21   -1    0    0  502  503 -0.00000000000E+00 -0.00000000000E+00 -0.38790415952E+03  0.38790415952E+03  0.00000000000E+00 0. -1.
          6    1    1    2  501    0 -0.37189783902E+02 -0.47164487801E+02  0.19640581403E+03  0.26789328607E+03  0.17200000000E+03 0. -1.
         -6    1    1    2    0  503  0.37189783902E+02  0.47164487801E+02 -0.32859760474E+03  0.37572324226E+03  0.17200000000E+03 0. -1.
</event>
<event>
 4    1  0.4653733E+000  0.1881119E+03  0.7818608E-02  0.1160175E+00
         21   -1    0    0  501  502  0.00000000000E+00  0.00000000000E+00  0.19238609965E+04  0.19238609965E+04  0.00000000000E+00 0.  1.
         21   -1    0    0  502  503 -0.00000000000E+00 -0.00000000000E+00 -0.21956523784E+02  0.21956523784E+02  0.00000000000E+00 0.  1.
          6    1    1    2  501    0 -0.42776383833E+02 -0.63025877045E+02  0.13428873386E+04  0.13559987037E+04  0.17200000000E+03 0.  1.
         -6    1    1    2    0  503  0.42776383833E+02  0.63025877045E+02  0.55901713407E+03  0.58981881657E+03  0.17200000000E+03 0.  1.
</event>
<event>
 4    1  0.4653733E+000  0.1917426E+03  0.7818608E-02  0.1156899E+00
         21   -1    0    0  501  502  0.00000000000E+00  0.00000000000E+00  0.19657185026E+03  0.19657185026E+03  0.00000000000E+00 0.  1.
         21   -1    0    0  502  503 -0.00000000000E+00 -0.00000000000E+00 -0.32932078030E+03  0.32932078030E+03  0.00000000000E+00 0.  1.
          6    1    1    2  501    0  0.11667648048E+02 -0.83935019787E+02 -0.23921391936E+03  0.30657547321E+03  0.17200000000E+03 0.  1.
         -6    1    1    2    0  503 -0.11667648048E+02  0.83935019787E+02  0.10646498932E+03  0.21931715735E+03  0.17200000000E+03 0.  1.
</event>
<event>
 4    1  0.4653733E+000  0.2336123E+03  0.7818608E-02  0.1124123E+00
         21   -1    0    0  501  502  0.00000000000E+00  0.00000000000E+00  0.26654729382E+03  0.26654729382E+03  0.00000000000E+00 0. -1.
         21   -1    0    0  502  503 -0.00000000000E+00 -0.00000000000E+00 -0.23621213624E+03  0.23621213624E+03  0.00000000000E+00 0.  1.
          6    1    1    2  501    0 -0.11412922147E+03 -0.10938571275E+03  0.10691526280E+03  0.25691552458E+03  0.17200000000E+03 0. -1.
         -6    1    1    2    0  503  0.11412922147E+03  0.10938571275E+03 -0.76580105214E+02  0.24584390548E+03  0.17200000000E+03 0.  1.
</event>
<event>
 4    1  0.4653733E+000  0.1817759E+03  0.7818608E-02  0.1166095E+00
         21   -1    0    0  503  502  0.00000000000E+00  0.00000000000E+00  0.56285005930E+03  0.56285005930E+03  0.00000000000E+00 0. -1.
         21   -1    0    0  501  503 -0.00000000000E+00 -0.00000000000E+00 -0.14521164794E+03  0.14521164794E+03  0.00000000000E+00 0. -1.
          6    1    1    2  501    0 -0.51974738515E+02  0.27515469659E+02 -0.64432897684E+02  0.19285764910E+03  0.17200000000E+03 0. -1.
         -6    1    1    2    0  502  0.51974738515E+02 -0.27515469659E+02  0.48207130904E+03  0.51520405813E+03  0.17200000000E+03 0. -1.
</event>
<event>
 4    1  0.4653733E+000  0.2522967E+03  0.7818608E-02  0.1111862E+00
         21   -1    0    0  503  502  0.00000000000E+00  0.00000000000E+00  0.35650763068E+02  0.35650763068E+02  0.00000000000E+00 0.  1.
         21   -1    0    0  501  503 -0.00000000000E+00 -0.00000000000E+00 -0.17993858281E+04  0.17993858281E+04  0.00000000000E+00 0. -1.
          6    1    1    2  501    0 -0.10870124241E+03  0.14917666028E+03 -0.80120168203E+03  0.83998676856E+03  0.17200000000E+03 0. -1.
         -6    1    1    2    0  502  0.10870124241E+03 -0.14917666028E+03 -0.96253338305E+03  0.99504982265E+03  0.17200000000E+03 0. -1.
</event>
<event>
 4    1  0.4653733E+000  0.1897350E+03  0.7818608E-02  0.1158701E+00
         21   -1    0    0  501  502  0.00000000000E+00  0.00000000000E+00  0.21858348540E+02  0.21858348540E+02  0.00000000000E+00 0.  1.
         21   -1    0    0  502  503 -0.00000000000E+00 -0.00000000000E+00 -0.21632832822E+04  0.21632832822E+04  0.00000000000E+00 0.  1.
          6    1    1    2  501    0  0.77227638734E+02  0.21243359252E+02 -0.53693262958E+03  0.56946996163E+03  0.17200000000E+03 0.  1.
         -6    1    1    2    0  503 -0.77227638734E+02 -0.21243359252E+02 -0.16044923041E+04  0.16156716691E+04  0.17200000000E+03 0.  1.
</event>
<event>
 4    1  0.4653733E+000  0.1800682E+03  0.7818608E-02  0.1167737E+00
         21   -1    0    0  501  502  0.00000000000E+00  0.00000000000E+00  0.64783454128E+03  0.64783454128E+03  0.00000000000E+00 0. -1.
         21   -1    0    0  502  503 -0.00000000000E+00 -0.00000000000E+00 -0.50092307200E+02  0.50092307200E+02  0.00000000000E+00 0. -1.
          6    1    1    2  501    0 -0.53202240580E+02 -0.31742045057E+01  0.28881046798E+03  0.34034694122E+03  0.17200000000E+03 0.  1.
         -6    1    1    2    0  503  0.53202240580E+02  0.31742045057E+01  0.30893176609E+03  0.35757990726E+03  0.17200000000E+03 0.  1.
</event>
<event>
 4    1  0.4653733E+000  0.4770986E+03  0.7818608E-02  0.1019936E+00
         21   -1    0    0  503  502  0.00000000000E+00  0.00000000000E+00  0.68518632465E+03  0.68518632465E+03  0.00000000000E+00 0. -1.
         21   -1    0    0  501  503 -0.00000000000E+00 -0.00000000000E+00 -0.33312284104E+03  0.33312284104E+03  0.00000000000E+00 0.  1.
          6    1    1    2  501    0  0.33233774475E+03  0.29595722129E+03  0.14932143778E+03  0.49991993879E+03  0.17200000000E+03 0. -1.
         -6    1    1    2    0  502 -0.33233774475E+03 -0.29595722129E+03  0.20274204583E+03  0.51838922690E+03  0.17200000000E+03 0.  1.
</event>
<event>
 4    1  0.4653733E+000  0.1734298E+03  0.7818608E-02  0.1174318E+00
         21   -1    0    0  503  502  0.00000000000E+00  0.00000000000E+00  0.50873094368E+03  0.50873094368E+03  0.00000000000E+00 0. -1.
         21   -1    0    0  501  503 -0.00000000000E+00 -0.00000000000E+00 -0.61197559718E+02  0.61197559718E+02  0.00000000000E+00 0. -1.
          6    1    1    2  501    0  0.93855227474E+01  0.20144670881E+02  0.27622882257E+03  0.32615986605E+03  0.17200000000E+03 0. -1.
         -6    1    1    2    0  502 -0.93855227474E+01 -0.20144670881E+02  0.17130456140E+03  0.24376863736E+03  0.17200000000E+03 0. -1.
</event>
<event>
 4    1  0.4653733E+000  0.2426748E+03  0.7818608E-02  0.1118024E+00
         21   -1    0    0  503  502  0.00000000000E+00  0.00000000000E+00  0.33198680129E+03  0.33198680129E+03  0.00000000000E+00 0.  1.
         21   -1    0    0  501  503 -0.00000000000E+00 -0.00000000000E+00 -0.20986431901E+03  0.20986431901E+03  0.00000000000E+00 0. -1.
          6    1    1    2  501    0 -0.31605073196E+02  0.16825034301E+03 -0.45513016578E+02  0.24690583884E+03  0.17200000000E+03 0. -1.
         -6    1    1    2    0  502  0.31605073196E+02 -0.16825034301E+03  0.16763549886E+03  0.29494528146E+03  0.17200000000E+03 0.  1.
</event>
<event>
 4    1  0.4653733E+000  0.2080802E+03  0.7818608E-02  0.1143095E+00
         21   -1    0    0  501  502  0.00000000000E+00  0.00000000000E+00  0.28303644615E+03  0.28303644615E+03  0.00000000000E+00 0. -1.
         21   -1    0    0  502  503 -0.00000000000E+00 -0.00000000000E+00 -0.40916971901E+03  0.40916971901E+03  0.00000000000E+00 0.  1.
          6    1    1    2  501    0  0.81067509734E+02 -0.84506889663E+02  0.21080007368E+03  0.29619930216E+03  0.17200000000E+03 0. -1.
         -6    1    1    2    0  503 -0.81067509734E+02  0.84506889663E+02 -0.33693334654E+03  0.39600686301E+03  0.17200000000E+03 0.  1.
</event>
<event>
 4    1  0.4653733E+000  0.1974202E+03  0.7818608E-02  0.1151934E+00
         21   -1    0    0  503  502  0.00000000000E+00  0.00000000000E+00  0.94827483903E+02  0.94827483903E+02  0.00000000000E+00 0. -1.
         21   -1    0    0  501  503 -0.00000000000E+00 -0.00000000000E+00 -0.42208145198E+03  0.42208145198E+03  0.00000000000E+00 0. -1.
          6    1    1    2  501    0  0.21859177352E+02 -0.94408294823E+02 -0.20549178992E+03  0.28495898914E+03  0.17200000000E+03 0.  1.
         -6    1    1    2    0  502 -0.21859177352E+02  0.94408294823E+02 -0.12176217816E+03  0.23194994675E+03  0.17200000000E+03 0.  1.
</event>
<event>
 4    1  0.4653733E+000  0.2123789E+03  0.7818608E-02  0.1139696E+00
         21   -1    0    0  503  502  0.00000000000E+00  0.00000000000E+00  0.48791878953E+03  0.48791878953E+03  0.00000000000E+00 0. -1.
         21   -1    0    0  501  503 -0.00000000000E+00 -0.00000000000E+00 -0.92453283589E+02  0.92453283589E+02  0.00000000000E+00 0. -1.
          6    1    1    2  501    0 -0.12430063613E+03 -0.83752666043E+01  0.20075745886E+03  0.29224707102E+03  0.17200000000E+03 0. -1.
         -6    1    1    2    0  502  0.12430063613E+03  0.83752666043E+01  0.19470804708E+03  0.28812500209E+03  0.17200000000E+03 0. -1.
</event>
<event>
 4    1  0.4653733E+000  0.3175331E+03  0.7818608E-02  0.1076790E+00
         21   -1    0    0  503  502  0.00000000000E+00  0.00000000000E+00  0.64572785411E+03  0.64572785411E+03  0.00000000000E+00 0. -1.
         21   -1    0    0  501  503 -0.00000000000E+00 -0.00000000000E+00 -0.38900975450E+03  0.38900975450E+03  0.00000000000E+00 0.  1.
          6    1    1    2  501    0  0.13695545987E+03 -0.22909932484E+03 -0.27192814352E+03  0.41805766811E+03  0.17200000000E+03 0.  1.
         -6    1    1    2    0  502 -0.13695545987E+03  0.22909932484E+03  0.52864624313E+03  0.61667994049E+03  0.17200000000E+03 0. -1.
</event>
<event>
 4    1  0.4653733E+000  0.2331733E+03  0.7818608E-02  0.1124426E+00
         21   -1    0    0  503  502  0.00000000000E+00  0.00000000000E+00  0.10067427204E+04  0.10067427204E+04  0.00000000000E+00 0. -1.
         21   -1    0    0  501  503 -0.00000000000E+00 -0.00000000000E+00 -0.54334972319E+02  0.54334972319E+02  0.00000000000E+00 0. -1.
          6    1    1    2  501    0 -0.15482309435E+03 -0.28558332584E+02  0.51750911271E+03  0.56761382176E+03  0.17200000000E+03 0. -1.
         -6    1    1    2    0  502  0.15482309435E+03  0.28558332584E+02  0.43489863539E+03  0.49346387098E+03  0.17200000000E+03 0. -1.
</event>
<event>
 4    1  0.4653733E+000  0.1929789E+03  0.7818608E-02  0.1155802E+00
         21   -1    0    0  503  502  0.00000000000E+00  0.00000000000E+00  0.66189926038E+03  0.66189926038E+03  0.00000000000E+00 0. -1.
         21   -1    0    0  501  503 -0.00000000000E+00 -0.00000000000E+00 -0.68399490033E+02  0.68399490033E+02  0.00000000000E+00 0. -1.
          6    1    1    2  501    0  0.67796852381E+02  0.55321293690E+02  0.14294174848E+03  0.24015245614E+03  0.17200000000E+03 0. -1.
         -6    1    1    2    0  502 -0.67796852381E+02 -0.55321293690E+02  0.45055802187E+03  0.49014629428E+03  0.17200000000E+03 0. -1.
</event>
<event>
 4    1  0.4653733E+000  0.2359303E+03  0.7818608E-02  0.1122534E+00
         21   -1    0    0  503  502  0.00000000000E+00  0.00000000000E+00  0.21633593421E+03  0.21633593421E+03  0.00000000000E+00 0. -1.
         21   -1    0    0  501  503 -0.00000000000E+00 -0.00000000000E+00 -0.35341464517E+03  0.35341464517E+03  0.00000000000E+00 0. -1.
          6    1    1    2  501    0  0.10059970364E+03  0.12632824959E+03  0.80022881081E+02  0.24913207042E+03  0.17200000000E+03 0. -1.
         -6    1    1    2    0  502 -0.10059970364E+03 -0.12632824959E+03 -0.21710159205E+03  0.32061850896E+03  0.17200000000E+03 0. -1.
</event>
<event>
 4    1  0.4653733E+000  0.1786200E+03  0.7818608E-02  0.1169145E+00
         21   -1    0    0  501  502  0.00000000000E+00  0.00000000000E+00  0.29625034163E+02  0.29625034163E+02  0.00000000000E+00 0. -1.
         21   -1    0    0  502  503 -0.00000000000E+00 -0.00000000000E+00 -0.10887899463E+04  0.10887899463E+04  0.00000000000E+00 0. -1.
          6    1    1    2  501    0 -0.40680670377E+02 -0.25810292288E+02 -0.47130194946E+03  0.50401449949E+03  0.17200000000E+03 0. -1.
         -6    1    1    2    0  503  0.40680670377E+02  0.25810292288E+02 -0.58786296263E+03  0.61440048093E+03  0.17200000000E+03 0. -1.
</event>
<event>
 4    1  0.4653733E+000  0.1745377E+03  0.7818608E-02  0.1173197E+00
         21   -1    0    0  503  502  0.00000000000E+00  0.00000000000E+00  0.17942587736E+04  0.17942587736E+04  0.00000000000E+00 0.  1.
         21   -1    0    0  501  503 -0.00000000000E+00 -0.00000000000E+00 -0.21550849378E+02  0.21550849378E+02  0.00000000000E+00 0.  1.
          6    1    1    2  501    0  0.34122278209E+01  0.29457843160E+02  0.46814936375E+03  0.49962709555E+03  0.17200000000E+03 0.  1.
         -6    1    1    2    0  502 -0.34122278209E+01 -0.29457843160E+02  0.13045585604E+04  0.13161825274E+04  0.17200000000E+03 0.  1.
</event>
<event>
 4    1  0.4653733E+000  0.2919393E+03  0.7818608E-02  0.1089341E+00
         21   -1    0    0  501  502  0.00000000000E+00  0.00000000000E+00  0.27175683536E+03  0.27175683536E+03  0.00000000000E+00 0.  1.
         21   -1    0    0  502  503 -0.00000000000E+00 -0.00000000000E+00 -0.56606415384E+03  0.56606415384E+03  0.00000000000E+00 0. -1.
          6    1    1    2  501    0 -0.63504114287E+01  0.23580549020E+03  0.13259660681E+03  0.32064063540E+03  0.17200000000E+03 0.  1.
         -6    1    1    2    0  503  0.63504114287E+01 -0.23580549020E+03 -0.42690392528E+03  0.51718035380E+03  0.17200000000E+03 0. -1.
</event>
<event>
 4    1  0.4653733E+000  0.1885393E+03  0.7818608E-02  0.1159785E+00
         21   -1    0    0  503  502  0.00000000000E+00  0.00000000000E+00  0.34444480849E+03  0.34444480849E+03  0.00000000000E+00 0. -1.
         21   -1    0    0  501  503 -0.00000000000E+00 -0.00000000000E+00 -0.12070520134E+03  0.12070520134E+03  0.00000000000E+00 0. -1.
          6    1    1    2  501    0 -0.66286726321E+02 -0.39612259901E+02  0.23303046128E+02  0.18997392763E+03  0.17200000000E+03 0. -1.
         -6    1    1    2    0  502  0.66286726321E+02  0.39612259901E+02  0.20043656102E+03  0.27517608220E+03  0.17200000000E+03 0. -1.
</event>
<event>
 4    1  0.4653733E+000  0.2708853E+03  0.7818608E-02  0.1100774E+00
         21   -1    0    0  503  502  0.00000000000E+00  0.00000000000E+00  0.11316640972E+03  0.11316640972E+03  0.00000000000E+00 0. -1.
         21   -1    0    0  501  503 -0.00000000000E+00 -0.00000000000E+00 -0.77270328691E+03  0.77270328691E+03  0.00000000000E+00 0.  1.
          6    1    1    2  501    0  0.20949509600E+02  0.20822093594E+03 -0.50741136315E+03  0.57519138690E+03  0.17200000000E+03 0.  1.
         -6    1    1    2    0  502 -0.20949509600E+02 -0.20822093594E+03 -0.15212551405E+03  0.31067830973E+03  0.17200000000E+03 0. -1.
</event>
<event>
 4    1  0.4653733E+000  0.1721824E+03  0.7818608E-02  0.1175591E+00
         21   -1    0    0  503  502  0.00000000000E+00  0.00000000000E+00  0.23875491865E+04  0.23875491865E+04  0.00000000000E+00 0. -1.
         21   -1    0    0  501  503 -0.00000000000E+00 -0.00000000000E+00 -0.23769468670E+02  0.23769468670E+02  0.00000000000E+00 0. -1.
          6    1    1    2  501    0 -0.60985619940E+01  0.50579278489E+01  0.34867806608E+03  0.38887423270E+03  0.17200000000E+03 0. -1.
         -6    1    1    2    0  502  0.60985619940E+01 -0.50579278489E+01  0.20151016517E+04  0.20224444224E+04  0.17200000000E+03 0. -1.
</event>
<event>
 4    1  0.4653733E+000  0.2025663E+03  0.7818608E-02  0.1147592E+00
         21   -1    0    0  503  502  0.00000000000E+00  0.00000000000E+00  0.44966898539E+02  0.44966898539E+02  0.00000000000E+00 0. -1.
         21   -1    0    0  501  503 -0.00000000000E+00 -0.00000000000E+00 -0.10070847820E+04  0.10070847820E+04  0.00000000000E+00 0. -1.
          6    1    1    2  501    0  0.56783391445E+02 -0.90690445254E+02 -0.31986710024E+03  0.37861335452E+03  0.17200000000E+03 0. -1.
         -6    1    1    2    0  502 -0.56783391445E+02  0.90690445254E+02 -0.64225078321E+03  0.67343832601E+03  0.17200000000E+03 0. -1.
</event>
<event>
 4    1  0.4653733E+000  0.2122780E+03  0.7818608E-02  0.1139775E+00
         21   -1    0    0  503  502  0.00000000000E+00  0.00000000000E+00  0.85561152504E+03  0.85561152504E+03  0.00000000000E+00 0.  1.
         21   -1    0    0  501  503 -0.00000000000E+00 -0.00000000000E+00 -0.53290428877E+02  0.53290428877E+02  0.00000000000E+00 0.  1.
          6    1    1    2  501    0  0.91974421907E+02 -0.83777487507E+02  0.35198244857E+03  0.41103966451E+03  0.17200000000E+03 0.  1.
         -6    1    1    2    0  502 -0.91974421907E+02  0.83777487507E+02  0.45033864758E+03  0.49786228940E+03  0.17200000000E+03 0.  1.
</event>
<event>
 4    1  0.4653733E+000  0.2950617E+03  0.7818608E-02  0.1087736E+00
         21   -1    0    0  503  502  0.00000000000E+00  0.00000000000E+00  0.11000540379E+04  0.11000540379E+04  0.00000000000E+00 0.  1.
         21   -1    0    0  501  503 -0.00000000000E+00 -0.00000000000E+00 -0.86333683881E+02  0.86333683881E+02  0.00000000000E+00 0. -1.
          6    1    1    2  501    0 -0.14833853351E+03 -0.18834301184E+03  0.67805718453E+03  0.73947478397E+03  0.17200000000E+03 0.  1.
         -6    1    1    2    0  502  0.14833853351E+03  0.18834301184E+03  0.33566316950E+03  0.44691293782E+03  0.17200000000E+03 0.  1.
</event>
<event>
 4    1  0.4653733E+000  0.1771265E+03  0.7818608E-02  0.1170613E+00
         21   -1    0    0  503  502  0.00000000000E+00  0.00000000000E+00  0.18250030509E+03  0.18250030509E+03  0.00000000000E+00 0. -1.
         21   -1    0    0  501  503 -0.00000000000E+00 -0.00000000000E+00 -0.45622398361E+03  0.45622398361E+03  0.00000000000E+00 0.  1.
          6    1    1    2  501    0  0.27696271058E+02  0.31979694585E+02 -0.38897344199E+03  0.42740393409E+03  0.17200000000E+03 0.  1.
         -6    1    1    2    0  502 -0.27696271058E+02 -0.31979694585E+02  0.11524976347E+03  0.21132035462E+03  0.17200000000E+03 0. -1.
</event>
<event>
 4    1  0.4653733E+000  0.2371576E+03  0.7818608E-02  0.1121701E+00
         21   -1    0    0  501  502  0.00000000000E+00  0.00000000000E+00  0.56228699864E+03  0.56228699864E+03  0.00000000000E+00 0. -1.
         21   -1    0    0  502  503 -0.00000000000E+00 -0.00000000000E+00 -0.10107942583E+04  0.10107942583E+04  0.00000000000E+00 0. -1.
          6    1    1    2  501    0 -0.15776798495E+03 -0.42059306686E+02  0.52235593607E+03  0.57367189778E+03  0.17200000000E+03 0. -1.
         -6    1    1    2    0  503  0.15776798495E+03  0.42059306686E+02 -0.97086319574E+03  0.99940935917E+03  0.17200000000E+03 0. -1.
</event>
<event>
 4    1  0.4653733E+000  0.1867665E+03  0.7818608E-02  0.1161410E+00
         21   -1    0    0  501  502  0.00000000000E+00  0.00000000000E+00  0.31449399014E+03  0.31449399014E+03  0.00000000000E+00 0. -1.
         21   -1    0    0  502  503 -0.00000000000E+00 -0.00000000000E+00 -0.11819495728E+03  0.11819495728E+03  0.00000000000E+00 0. -1.
          6    1    1    2  501    0  0.54833237646E+02 -0.47864820641E+02  0.15184606823E+03  0.24070511719E+03  0.17200000000E+03 0. -1.
         -6    1    1    2    0  503 -0.54833237646E+02  0.47864820641E+02  0.44452964624E+02  0.19198383023E+03  0.17200000000E+03 0. -1.
</event>
<event>
 4    1  0.4653733E+000  0.1842162E+03  0.7818608E-02  0.1163784E+00
         21   -1    0    0  501  502  0.00000000000E+00  0.00000000000E+00  0.44567053459E+03  0.44567053459E+03  0.00000000000E+00 0. -1.
         21   -1    0    0  502  503 -0.00000000000E+00 -0.00000000000E+00 -0.79485743083E+02  0.79485743083E+02  0.00000000000E+00 0. -1.
          6    1    1    2  501    0 -0.32742990782E+02 -0.57267064380E+02  0.23692309884E+03  0.30011360328E+03  0.17200000000E+03 0. -1.
         -6    1    1    2    0  503  0.32742990782E+02  0.57267064380E+02  0.12926169266E+03  0.22504267439E+03  0.17200000000E+03 0. -1.
</event>
<event>
 4    1  0.4653733E+000  0.3181372E+03  0.7818608E-02  0.1076510E+00
         21   -1    0    0  501  502  0.00000000000E+00  0.00000000000E+00  0.41022527612E+03  0.41022527612E+03  0.00000000000E+00 0.  1.
         21   -1    0    0  502  503 -0.00000000000E+00 -0.00000000000E+00 -0.32463651967E+03  0.32463651967E+03  0.00000000000E+00 0. -1.
          6    1    1    2  501    0 -0.26456572398E+03  0.40401314723E+02  0.22280092724E+03  0.38839611444E+03  0.17200000000E+03 0. -1.
         -6    1    1    2    0  503  0.26456572398E+03 -0.40401314723E+02 -0.13721217078E+03  0.34646568134E+03  0.17200000000E+03 0.  1.
</event>
<event>
 4    1  0.4653733E+000  0.1821402E+03  0.7818608E-02  0.1165748E+00
         21   -1    0    0  501  502  0.00000000000E+00  0.00000000000E+00  0.91711656566E+02  0.91711656566E+02  0.00000000000E+00 0. -1.
         21   -1    0    0  502  503 -0.00000000000E+00 -0.00000000000E+00 -0.57564933239E+03  0.57564933239E+03  0.00000000000E+00 0.  1.
          6    1    1    2  501    0  0.41737652228E+02 -0.43000350616E+02 -0.38557772529E+02  0.18617669991E+03  0.17200000000E+03 0. -1.
         -6    1    1    2    0  503 -0.41737652228E+02  0.43000350616E+02 -0.44537990329E+03  0.48118428904E+03  0.17200000000E+03 0.  1.
</event>
<event>
 4    1  0.4653733E+000  0.2441331E+03  0.7818608E-02  0.1117070E+00
         21   -1    0    0  501  502  0.00000000000E+00  0.00000000000E+00  0.20538719014E+03  0.20538719014E+03  0.00000000000E+00 0.  1.
         21   -1    0    0  502  503 -0.00000000000E+00 -0.00000000000E+00 -0.29653713040E+03  0.29653713040E+03  0.00000000000E+00 0. -1.
          6    1    1    2  501    0 -0.16739057795E+03 -0.44692108744E+02 -0.82295629168E+02  0.25763066733E+03  0.17200000000E+03 0. -1.
         -6    1    1    2    0  503  0.16739057795E+03  0.44692108744E+02 -0.88543110880E+01  0.24429365320E+03  0.17200000000E+03 0.  1.
</event>
<event>
 4    1  0.4653733E+000  0.2730302E+03  0.7818608E-02  0.1099558E+00
         21   -1    0    0  501  502  0.00000000000E+00  0.00000000000E+00  0.17975398228E+04  0.17975398228E+04  0.00000000000E+00 0.  1.
         21   -1    0    0  502  503 -0.00000000000E+00 -0.00000000000E+00 -0.41503683533E+02  0.41503683533E+02  0.00000000000E+00 0.  1.
          6    1    1    2  501    0 -0.20033718080E+03  0.69472983887E+02  0.85215014521E+03  0.89482140759E+03  0.17200000000E+03 0.  1.
         -6    1    1    2    0  503  0.20033718080E+03 -0.69472983887E+02  0.90388599401E+03  0.94422209870E+03  0.17200000000E+03 0.  1.
</event>
<event>
 4    1  0.4653733E+000  0.1944474E+03  0.7818608E-02  0.1154510E+00
         21   -1    0    0  503  502  0.00000000000E+00  0.00000000000E+00  0.23491075713E+03  0.23491075713E+03  0.00000000000E+00 0. -1.
         21   -1    0    0  501  503 -0.00000000000E+00 -0.00000000000E+00 -0.21692018779E+03  0.21692018779E+03  0.00000000000E+00 0. -1.
          6    1    1    2  501    0 -0.90450759893E+02 -0.66672444151E+01 -0.10575649044E+03  0.22134639681E+03  0.17200000000E+03 0. -1.
         -6    1    1    2    0  502  0.90450759893E+02  0.66672444151E+01  0.12374705977E+03  0.23048454811E+03  0.17200000000E+03 0. -1.
</event>
<event>
 4    1  0.4653733E+000  0.2066854E+03  0.7818608E-02  0.1144218E+00
         21   -1    0    0  501  502  0.00000000000E+00  0.00000000000E+00  0.32663615728E+03  0.32663615728E+03  0.00000000000E+00 0.  1.
         21   -1    0    0  502  503 -0.00000000000E+00 -0.00000000000E+00 -0.21225274859E+03  0.21225274859E+03  0.00000000000E+00 0.  1.
          6    1    1    2  501    0 -0.11458335130E+03 -0.23478762723E+01  0.22412290106E+03  0.30487691237E+03  0.17200000000E+03 0.  1.
         -6    1    1    2    0  503  0.11458335130E+03  0.23478762723E+01 -0.10973949237E+03  0.23401199350E+03  0.17200000000E+03 0.  1.
</event>
<event>
 4    1  0.4653733E+000  0.1763105E+03  0.7818608E-02  0.1171422E+00
         21   -1    0    0  501  502  0.00000000000E+00  0.00000000000E+00  0.77405511454E+02  0.77405511454E+02  0.00000000000E+00 0.  1.
         21   -1    0    0  502  503 -0.00000000000E+00 -0.00000000000E+00 -0.48478593680E+03  0.48478593680E+03  0.00000000000E+00 0.  1.
          6    1    1    2  501    0 -0.77451033633E+01 -0.37965724143E+02 -0.87243615647E+02  0.19671510188E+03  0.17200000000E+03 0.  1.
         -6    1    1    2    0  503  0.77451033633E+01  0.37965724143E+02 -0.32013680970E+03  0.36547634638E+03  0.17200000000E+03 0.  1.
</event>
<event>
 4    1  0.4653733E+000  0.1875122E+03  0.7818608E-02  0.1160724E+00
         21   -1    0    0  501  502  0.00000000000E+00  0.00000000000E+00  0.63735150726E+03  0.63735150726E+03  0.00000000000E+00 0. -1.
         21   -1    0    0  502  503 -0.00000000000E+00 -0.00000000000E+00 -0.71332265099E+02  0.71332265099E+02  0.00000000000E+00 0.  1.
          6    1    1    2  501    0 -0.70384044382E+02  0.24958219389E+02  0.45169200275E+03  0.48906696041E+03  0.17200000000E+03 0. -1.
         -6    1    1    2    0  503  0.70384044382E+02 -0.24958219389E+02  0.11432723941E+03  0.21961681195E+03  0.17200000000E+03 0.  1.
</event>
<event>
 4    1  0.4653733E+000  0.1889017E+03  0.7818608E-02  0.1159456E+00
         21   -1    0    0  503  502  0.00000000000E+00  0.00000000000E+00  0.26807755601E+03  0.26807755601E+03  0.00000000000E+00 0. -1.
         21   -1    0    0  501  503 -0.00000000000E+00 -0.00000000000E+00 -0.13407491158E+03  0.13407491158E+03  0.00000000000E+00 0. -1.
          6    1    1    2  501    0 -0.58430621537E+02 -0.51823953836E+02  0.49945073475E+02  0.19539286090E+03  0.17200000000E+03 0. -1.
         -6    1    1    2    0  502  0.58430621537E+02  0.51823953836E+02  0.84057570962E+02  0.20675960669E+03  0.17200000000E+03 0. -1.
</event>
<event>
 4    1  0.4653733E+000  0.1891648E+03  0.7818608E-02  0.1159217E+00
         21   -1    0    0  501  502  0.00000000000E+00  0.00000000000E+00  0.45186239569E+02  0.45186239569E+02  0.00000000000E+00 0.  1.
         21   -1    0    0  502  503 -0.00000000000E+00 -0.00000000000E+00 -0.89760156353E+03  0.89760156353E+03  0.00000000000E+00 0.  1.
          6    1    1    2  501    0  0.69358941905E+02 -0.37264524654E+02 -0.58796653461E+03  0.61764711077E+03  0.17200000000E+03 0.  1.
         -6    1    1    2    0  503 -0.69358941905E+02  0.37264524654E+02 -0.26444878935E+03  0.32514069233E+03  0.17200000000E+03 0.  1.
</event>
<event>
 4    1  0.4653733E+000  0.2996561E+03  0.7818608E-02  0.1085413E+00
         21   -1    0    0  503  502  0.00000000000E+00  0.00000000000E+00  0.14208734049E+04  0.14208734049E+04  0.00000000000E+00 0. -1.
         21   -1    0    0  501  503 -0.00000000000E+00 -0.00000000000E+00 -0.73824088728E+02  0.73824088728E+02  0.00000000000E+00 0. -1.
          6    1    1    2  501    0  0.13484177642E+03  0.20500597160E+03  0.38996239373E+03  0.49179713458E+03  0.17200000000E+03 0. -1.
         -6    1    1    2    0  502 -0.13484177642E+03 -0.20500597160E+03  0.95708692240E+03  0.10029003590E+04  0.17200000000E+03 0. -1.
</event>
<event>
 4    1  0.4653733E+000  0.2726328E+03  0.7818608E-02  0.1099782E+00
         21   -1    0    0  503  502  0.00000000000E+00  0.00000000000E+00  0.39082144341E+03  0.39082144341E+03  0.00000000000E+00 0. -1.
         21   -1    0    0  501  503 -0.00000000000E+00 -0.00000000000E+00 -0.22549880575E+03  0.22549880575E+03  0.00000000000E+00 0. -1.
          6    1    1    2  501    0  0.70473141604E+02 -0.19944462086E+03 -0.39286134884E+02  0.27544876270E+03  0.17200000000E+03 0. -1.
         -6    1    1    2    0  502 -0.70473141604E+02  0.19944462086E+03  0.20460877255E+03  0.34087148646E+03  0.17200000000E+03 0. -1.
</event>
<event>
 4    1  0.4653733E+000  0.1783281E+03  0.7818608E-02  0.1169431E+00
         21   -1    0    0  503  502  0.00000000000E+00  0.00000000000E+00  0.26860100877E+02  0.26860100877E+02  0.00000000000E+00 0. -1.
         21   -1    0    0  501  503 -0.00000000000E+00 -0.00000000000E+00 -0.13717625180E+04  0.13717625180E+04  0.00000000000E+00 0. -1.
          6    1    1    2  501    0  0.45205705869E+02 -0.13167055179E+02 -0.93121123992E+03  0.94813253321E+03  0.17200000000E+03 0. -1.
         -6    1    1    2    0  502 -0.45205705869E+02  0.13167055179E+02 -0.41369117721E+03  0.45049008567E+03  0.17200000000E+03 0. -1.
</event>
<event>
 4    1  0.4653733E+000  0.1942025E+03  0.7818608E-02  0.1154725E+00
         21   -1    0    0  503  502  0.00000000000E+00  0.00000000000E+00  0.48867030705E+02  0.48867030705E+02  0.00000000000E+00 0. -1.
         21   -1    0    0  501  503 -0.00000000000E+00 -0.00000000000E+00 -0.19410834317E+04  0.19410834317E+04  0.00000000000E+00 0. -1.
          6    1    1    2  501    0  0.89377888776E+02  0.11925457723E+02 -0.17183506653E+04  0.17292899215E+04  0.17200000000E+03 0. -1.
         -6    1    1    2    0  502 -0.89377888776E+02 -0.11925457723E+02 -0.17386573563E+03  0.26066054088E+03  0.17200000000E+03 0. -1.
</event>
<event>
 4    1  0.4653733E+000  0.2203829E+03  0.7818608E-02  0.1133598E+00
         21   -1    0    0  501  502  0.00000000000E+00  0.00000000000E+00  0.21279605462E+03  0.21279605462E+03  0.00000000000E+00 0. -1.
         21   -1    0    0  502  503 -0.00000000000E+00 -0.00000000000E+00 -0.25410325619E+03  0.25410325619E+03  0.00000000000E+00 0. -1.
          6    1    1    2  501    0  0.87067493842E+02  0.10678891949E+03  0.53824353324E+02  0.22686049198E+03  0.17200000000E+03 0. -1.
         -6    1    1    2    0  503 -0.87067493842E+02 -0.10678891949E+03 -0.95131554892E+02  0.24003881883E+03  0.17200000000E+03 0. -1.
</event>
<event>
 4    1  0.4653733E+000  0.2413218E+03  0.7818608E-02  0.1118915E+00
         21   -1    0    0  503  502  0.00000000000E+00  0.00000000000E+00  0.28303419142E+02  0.28303419142E+02  0.00000000000E+00 0.  1.
         21   -1    0    0  501  503 -0.00000000000E+00 -0.00000000000E+00 -0.22504981897E+04  0.22504981897E+04  0.00000000000E+00 0. -1.
          6    1    1    2  501    0 -0.66298044460E+02  0.15574582003E+03 -0.14447065813E+04  0.14647229421E+04  0.17200000000E+03 0. -1.
         -6    1    1    2    0  502  0.66298044460E+02 -0.15574582003E+03 -0.77748818926E+03  0.81407866671E+03  0.17200000000E+03 0. -1.
</event>
<event>
 4    1  0.4653733E+000  0.1941424E+03  0.7818608E-02  0.1154777E+00
         21   -1    0    0  501  502  0.00000000000E+00  0.00000000000E+00  0.16248781419E+03  0.16248781419E+03  0.00000000000E+00 0.  1.
         21   -1    0    0  502  503 -0.00000000000E+00 -0.00000000000E+00 -0.26396274246E+03  0.26396274246E+03  0.00000000000E+00 0. -1.
          6    1    1    2  501    0  0.34430400961E+02  0.83197488501E+02  0.23502177112E+02  0.19555977841E+03  0.17200000000E+03 0.  1.
         -6    1    1    2    0  503 -0.34430400961E+02 -0.83197488501E+02 -0.12497710539E+03  0.23089077823E+03  0.17200000000E+03 0.  1.
</event>
<event>
 4    1  0.4653733E+000  0.1752074E+03  0.7818608E-02  0.1172524E+00
         21   -1    0    0  503  502  0.00000000000E+00  0.00000000000E+00  0.10271057679E+04  0.10271057679E+04  0.00000000000E+00 0.  1.
         21   -1    0    0  501  503 -0.00000000000E+00 -0.00000000000E+00 -0.70580453555E+02  0.70580453555E+02  0.00000000000E+00 0.  1.
          6    1    1    2  501    0  0.13616225659E+02  0.30467107992E+02  0.61522373011E+02  0.18569504208E+03  0.17200000000E+03 0.  1.
         -6    1    1    2    0  502 -0.13616225659E+02 -0.30467107992E+02  0.89500294133E+03  0.91199117938E+03  0.17200000000E+03 0.  1.
</event>
<event>
 4    1  0.4653733E+000  0.2484743E+03  0.7818608E-02  0.1114273E+00
         21   -1    0    0  501  502  0.00000000000E+00  0.00000000000E+00  0.17335294566E+04  0.17335294566E+04  0.00000000000E+00 0.  1.
         21   -1    0    0  502  503 -0.00000000000E+00 -0.00000000000E+00 -0.47855190942E+02  0.47855190942E+02  0.00000000000E+00 0. -1.
          6    1    1    2  501    0  0.12456241359E+03 -0.12899487925E+03  0.12933001061E+04  0.13169527851E+04  0.17200000000E+03 0.  1.
         -6    1    1    2    0  503 -0.12456241359E+03  0.12899487925E+03  0.39237415949E+03  0.46443186237E+03  0.17200000000E+03 0. -1.
</event>
<event>
 4    1  0.4653733E+000  0.2675384E+03  0.7818608E-02  0.1102697E+00
         21   -1    0    0  503  502  0.00000000000E+00  0.00000000000E+00  0.16634105382E+03  0.16634105382E+03  0.00000000000E+00 0.  1.
         21   -1    0    0  501  503 -0.00000000000E+00 -0.00000000000E+00 -0.44918180440E+03  0.44918180440E+03  0.00000000000E+00 0.  1.
          6    1    1    2  501    0  0.18291982551E+03 -0.92374902601E+02 -0.20451741373E+03  0.33675533807E+03  0.17200000000E+03 0.  1.
         -6    1    1    2    0  502 -0.18291982551E+03  0.92374902601E+02 -0.78323336845E+02  0.27876752015E+03  0.17200000000E+03 0.  1.
</event>
<event>
 4    1  0.4653733E+000  0.1959796E+03  0.7818608E-02  0.1153176E+00
         21   -1    0    0  503  502  0.00000000000E+00  0.00000000000E+00  0.21544684564E+03  0.21544684564E+03  0.00000000000E+00 0. -1.
         21   -1    0    0  501  503 -0.00000000000E+00 -0.00000000000E+00 -0.31339912809E+03  0.31339912809E+03  0.00000000000E+00 0. -1.
          6    1    1    2  501    0  0.64695277719E+02  0.68106768186E+02 -0.22260525634E+03  0.29658238482E+03  0.17200000000E+03 0. -1.
         -6    1    1    2    0  502 -0.64695277719E+02 -0.68106768186E+02  0.12465297389E+03  0.23226358891E+03  0.17200000000E+03 0. -1.
</event>
<event>
 4    1  0.4653733E+000  0.2305734E+03  0.7818608E-02  0.1126237E+00
         21   -1    0    0  501  502  0.00000000000E+00  0.00000000000E+00  0.13911053199E+03  0.13911053199E+03  0.00000000000E+00 0. -1.
         21   -1    0    0  502  503 -0.00000000000E+00 -0.00000000000E+00 -0.49967947370E+03  0.49967947370E+03  0.00000000000E+00 0.  1.
          6    1    1    2  501    0  0.14308867750E+03 -0.55729056380E+02 -0.25397170778E+02  0.23196791510E+03  0.17200000000E+03 0. -1.
         -6    1    1    2    0  503 -0.14308867750E+03  0.55729056380E+02 -0.33517177093E+03  0.40682209058E+03  0.17200000000E+03 0.  1.
</event>
<event>
 4    1  0.4653733E+000  0.3636926E+03  0.7818608E-02  0.1057131E+00
         21   -1    0    0  503  502  0.00000000000E+00  0.00000000000E+00  0.42967817829E+03  0.42967817829E+03  0.00000000000E+00 0.  1.
         21   -1    0    0  501  503 -0.00000000000E+00 -0.00000000000E+00 -0.34936413742E+03  0.34936413742E+03  0.00000000000E+00 0. -1.
          6    1    1    2  501    0  0.93787763604E+02  0.30641832502E+03 -0.94131756109E+02  0.37567688512E+03  0.17200000000E+03 0. -1.
         -6    1    1    2    0  502 -0.93787763604E+02 -0.30641832502E+03  0.17444579697E+03  0.40336543058E+03  0.17200000000E+03 0.  1.
</event>
<event>
 4    1  0.4653733E+000  0.1829980E+03  0.7818608E-02  0.1164933E+00
         21   -1    0    0  503  502  0.00000000000E+00  0.00000000000E+00  0.48012710303E+02  0.48012710303E+02  0.00000000000E+00 0. -1.
         21   -1    0    0  501  503 -0.00000000000E+00 -0.00000000000E+00 -0.22042047117E+04  0.22042047117E+04  0.00000000000E+00 0.  1.
          6    1    1    2  501    0  0.19331611566E+02  0.59418553366E+02 -0.20091399846E+04  0.20174567538E+04  0.17200000000E+03 0.  1.
         -6    1    1    2    0  502 -0.19331611566E+02 -0.59418553366E+02 -0.14705201676E+03  0.23476066818E+03  0.17200000000E+03 0. -1.
</event>
<event>
 4    1  0.4653733E+000  0.1981482E+03  0.7818608E-02  0.1151311E+00
         21   -1    0    0  503  502  0.00000000000E+00  0.00000000000E+00  0.58474425739E+02  0.58474425739E+02  0.00000000000E+00 0.  1.
         21   -1    0    0  501  503 -0.00000000000E+00 -0.00000000000E+00 -0.72690868249E+03  0.72690868249E+03  0.00000000000E+00 0.  1.
          6    1    1    2  501    0  0.79039342293E+02  0.58578795762E+02 -0.44268315791E+03  0.48500625897E+03  0.17200000000E+03 0.  1.
         -6    1    1    2    0  502 -0.79039342293E+02 -0.58578795762E+02 -0.22575109884E+03  0.30037684926E+03  0.17200000000E+03 0.  1.
</event>
<event>
 4    1  0.4653733E+000  0.1911453E+03  0.7818608E-02  0.1157432E+00
         21   -1    0    0  503  502  0.00000000000E+00  0.00000000000E+00  0.13115703398E+04  0.13115703398E+04  0.00000000000E+00 0. -1.
         21   -1    0    0  501  503 -0.00000000000E+00 -0.00000000000E+00 -0.28769347297E+02  0.28769347297E+02  0.00000000000E+00 0. -1.
          6    1    1    2  501    0  0.78454458005E+01 -0.83011919058E+02  0.52206238948E+03  0.55595473578E+03  0.17200000000E+03 0. -1.
         -6    1    1    2    0  502 -0.78454458005E+01  0.83011919058E+02  0.76073860303E+03  0.78438495133E+03  0.17200000000E+03 0. -1.
</event>
<event>
 4    1  0.4653733E+000  0.2268126E+03  0.7818608E-02  0.1128903E+00
         21   -1    0    0  503  502  0.00000000000E+00  0.00000000000E+00  0.16006003278E+03  0.16006003278E+03  0.00000000000E+00 0. -1.
         21   -1    0    0  501  503 -0.00000000000E+00 -0.00000000000E+00 -0.37912352474E+03  0.37912352474E+03  0.00000000000E+00 0.  1.
          6    1    1    2  501    0  0.13542369915E+03 -0.59332943900E+02 -0.21472228232E+03  0.31232936949E+03  0.17200000000E+03 0.  1.
         -6    1    1    2    0  502 -0.13542369915E+03  0.59332943900E+02 -0.43412096360E+01  0.22685418803E+03  0.17200000000E+03 0. -1.
</event>
<event>
 4    1  0.4653733E+000  0.1858552E+03  0.7818608E-02  0.1162254E+00
         21   -1    0    0  503  502  0.00000000000E+00  0.00000000000E+00  0.76754369852E+02  0.76754369852E+02  0.00000000000E+00 0.  1.
         21   -1    0    0  501  503 -0.00000000000E+00 -0.00000000000E+00 -0.61068554290E+03  0.61068554290E+03  0.00000000000E+00 0.  1.
          6    1    1    2  501    0  0.11734794806E+02 -0.69429465337E+02 -0.90671814360E+02  0.20679345731E+03  0.17200000000E+03 0.  1.
         -6    1    1    2    0  502 -0.11734794806E+02  0.69429465337E+02 -0.44325935869E+03  0.48064645544E+03  0.17200000000E+03 0.  1.
</event>
<event>
 4    1  0.4653733E+000  0.1947841E+03  0.7818608E-02  0.1154216E+00
         21   -1    0    0  501  502  0.00000000000E+00  0.00000000000E+00  0.41152571811E+02  0.41152571811E+02  0.00000000000E+00 0. -1.
         21   -1    0    0  502  503 -0.00000000000E+00 -0.00000000000E+00 -0.11086887894E+04  0.11086887894E+04  0.00000000000E+00 0. -1.
          6    1    1    2  501    0  0.96084918117E+01 -0.90909413771E+02 -0.29782144348E+03  0.35586297479E+03  0.17200000000E+03 0. -1.
         -6    1    1    2    0  503 -0.96084918117E+01  0.90909413771E+02 -0.76971477406E+03  0.79397838638E+03  0.17200000000E+03 0. -1.
</event>
<event>
 4    1  0.4653733E+000  0.1769951E+03  0.7818608E-02  0.1170743E+00
         21   -1    0    0  503  502  0.00000000000E+00  0.00000000000E+00  0.98307610023E+03  0.98307610023E+03  0.00000000000E+00 0. -1.
         21   -1    0    0  501  503 -0.00000000000E+00 -0.00000000000E+00 -0.31868073646E+02  0.31868073646E+02  0.00000000000E+00 0. -1.
          6    1    1    2  501    0 -0.22773603459E+02  0.34994890613E+02  0.47213711754E+03  0.50422290422E+03  0.17200000000E+03 0. -1.
         -6    1    1    2    0  502  0.22773603459E+02 -0.34994890613E+02  0.47907090904E+03  0.51072126965E+03  0.17200000000E+03 0. -1.
</event>
<event>
 4    1  0.4653733E+000  0.2034528E+03  0.7818608E-02  0.1146858E+00
         21   -1    0    0  501  502  0.00000000000E+00  0.00000000000E+00  0.10548252639E+04  0.10548252639E+04  0.00000000000E+00 0. -1.
         21   -1    0    0  502  503 -0.00000000000E+00 -0.00000000000E+00 -0.39482727150E+02  0.39482727150E+02  0.00000000000E+00 0. -1.
          6    1    1    2  501    0 -0.34262260729E+02 -0.10312677579E+03  0.55043013907E+03  0.58682737870E+03  0.17200000000E+03 0. -1.
         -6    1    1    2    0  503  0.34262260729E+02  0.10312677579E+03  0.46491239767E+03  0.50748061234E+03  0.17200000000E+03 0. -1.
</event>
<event>
 4    1  0.4653733E+000  0.2557692E+03  0.7818608E-02  0.1109712E+00
         21   -1    0    0  501  502  0.00000000000E+00  0.00000000000E+00  0.11101452333E+04  0.11101452333E+04  0.00000000000E+00 0.  1.
         21   -1    0    0  502  503 -0.00000000000E+00 -0.00000000000E+00 -0.73105781933E+02  0.73105781933E+02  0.00000000000E+00 0. -1.
          6    1    1    2  501    0 -0.40069112004E+01 -0.18925605082E+03  0.77906622767E+03  0.81997688700E+03  0.17200000000E+03 0.  1.
         -6    1    1    2    0  503  0.40069112004E+01  0.18925605082E+03  0.25797322372E+03  0.36327412827E+03  0.17200000000E+03 0. -1.
</event>
<event>
 4    1  0.4653733E+000  0.1937642E+03  0.7818608E-02  0.1155109E+00
         21   -1    0    0  503  502  0.00000000000E+00  0.00000000000E+00  0.64325188974E+02  0.64325188974E+02  0.00000000000E+00 0. -1.
         21   -1    0    0  501  503 -0.00000000000E+00 -0.00000000000E+00 -0.11062603816E+04  0.11062603816E+04  0.00000000000E+00 0. -1.
          6    1    1    2  501    0 -0.50045571620E+02 -0.73864786784E+02 -0.92324529178E+03  0.94335912290E+03  0.17200000000E+03 0. -1.
         -6    1    1    2    0  502  0.50045571620E+02  0.73864786784E+02 -0.11868990087E+03  0.22722644770E+03  0.17200000000E+03 0. -1.
</event>
<event>
 4    1  0.4653733E+000  0.2395089E+03  0.7818608E-02  0.1120120E+00
         21   -1    0    0  503  502  0.00000000000E+00  0.00000000000E+00  0.12326028235E+04  0.12326028235E+04  0.00000000000E+00 0.  1.
         21   -1    0    0  501  503 -0.00000000000E+00 -0.00000000000E+00 -0.15216270120E+03  0.15216270120E+03  0.00000000000E+00 0.  1.
          6    1    1    2  501    0  0.85018333032E+02  0.14336099384E+03 -0.36642275750E+02  0.24229557957E+03  0.17200000000E+03 0.  1.
         -6    1    1    2    0  502 -0.85018333032E+02 -0.14336099384E+03  0.11170823980E+04  0.11424699451E+04  0.17200000000E+03 0.  1.
</event>
<event>
 4    1  0.4653733E+000  0.2336978E+03  0.7818608E-02  0.1124064E+00
         21   -1    0    0  501  502  0.00000000000E+00  0.00000000000E+00  0.27131514254E+03  0.27131514254E+03  0.00000000000E+00 0.  1.
         21   -1    0    0  502  503 -0.00000000000E+00 -0.00000000000E+00 -0.47969441990E+03  0.47969441990E+03  0.00000000000E+00 0.  1.
          6    1    1    2  501    0 -0.68822256423E+02  0.14245759802E+03  0.18187651141E+03  0.29613128105E+03  0.17200000000E+03 0.  1.
         -6    1    1    2    0  503  0.68822256423E+02 -0.14245759802E+03 -0.39025578877E+03  0.45487828139E+03  0.17200000000E+03 0.  1.
</event>
<event>
 4    1  0.4653733E+000  0.2454922E+03  0.7818608E-02  0.1116187E+00
         21   -1    0    0  501  502  0.00000000000E+00  0.00000000000E+00  0.38887870572E+02  0.38887870572E+02  0.00000000000E+00 0. -1.
         21   -1    0    0  502  503 -0.00000000000E+00 -0.00000000000E+00 -0.15818407547E+04  0.15818407547E+04  0.00000000000E+00 0. -1.
          6    1    1    2  501    0  0.13542964613E+03 -0.11109117159E+03 -0.65605251516E+03  0.70047936451E+03  0.17200000000E+03 0. -1.
         -6    1    1    2    0  503 -0.13542964613E+03  0.11109117159E+03 -0.88690036894E+03  0.92024926074E+03  0.17200000000E+03 0. -1.
</event>
<event>
 4    1  0.4653733E+000  0.1812824E+03  0.7818608E-02  0.1166568E+00
         21   -1    0    0  503  502  0.00000000000E+00  0.00000000000E+00  0.39181277778E+03  0.39181277778E+03  0.00000000000E+00 0. -1.
         21   -1    0    0  501  503 -0.00000000000E+00 -0.00000000000E+00 -0.85344773811E+02  0.85344773811E+02  0.00000000000E+00 0.  1.
          6    1    1    2  501    0  0.28139791947E+02 -0.49874500130E+02  0.12192550545E+03  0.21847000374E+03  0.17200000000E+03 0. -1.
         -6    1    1    2    0  502 -0.28139791947E+02  0.49874500130E+02  0.18454249852E+03  0.25868754785E+03  0.17200000000E+03 0. -1.
</event>
<event>
 4    1  0.4653733E+000  0.1754431E+03  0.7818608E-02  0.1172288E+00
         21   -1    0    0  503  502  0.00000000000E+00  0.00000000000E+00  0.43727091266E+02  0.43727091266E+02  0.00000000000E+00 0. -1.
         21   -1    0    0  501  503 -0.00000000000E+00 -0.00000000000E+00 -0.85928296521E+03  0.85928296521E+03  0.00000000000E+00 0. -1.
          6    1    1    2  501    0 -0.34517185486E+02  0.22033273901E+01 -0.59976453129E+03  0.62489821870E+03  0.17200000000E+03 0. -1.
         -6    1    1    2    0  502  0.34517185486E+02 -0.22033273901E+01 -0.21579134266E+03  0.27811183778E+03  0.17200000000E+03 0. -1.
</event>
<event>
 4    1  0.4653733E+000  0.2654454E+03  0.7818608E-02  0.1103915E+00
         21   -1    0    0  503  502  0.00000000000E+00  0.00000000000E+00  0.75490414444E+03  0.75490414444E+03  0.00000000000E+00 0. -1.
         21   -1    0    0  501  503 -0.00000000000E+00 -0.00000000000E+00 -0.10001204302E+03  0.10001204302E+03  0.00000000000E+00 0. -1.
          6    1    1    2  501    0 -0.13683504482E+03 -0.14884033651E+03  0.21702280540E+03  0.34287049060E+03  0.17200000000E+03 0. -1.
         -6    1    1    2    0  502  0.13683504482E+03  0.14884033651E+03  0.43786929603E+03  0.51204569685E+03  0.17200000000E+03 0. -1.
</event>
<event>
 4    1  0.4653733E+000  0.2342443E+03  0.7818608E-02  0.1123688E+00
         21   -1    0    0  501  502  0.00000000000E+00  0.00000000000E+00  0.11548231158E+03  0.11548231158E+03  0.00000000000E+00 0.  1.
         21   -1    0    0  502  503 -0.00000000000E+00 -0.00000000000E+00 -0.10800100358E+04  0.10800100358E+04  0.00000000000E+00 0. -1.
          6    1    1    2  501    0 -0.11557751854E+03  0.10921638846E+03 -0.34928138581E+02  0.23683402873E+03  0.17200000000E+03 0.  1.
         -6    1    1    2    0  503  0.11557751854E+03 -0.10921638846E+03 -0.92959958566E+03  0.95865831867E+03  0.17200000000E+03 0. -1.
</event>
<event>
 4    1  0.4653733E+000  0.1862788E+03  0.7818608E-02  0.1161861E+00
         21   -1    0    0  503  502  0.00000000000E+00  0.00000000000E+00  0.72605847444E+02  0.72605847444E+02  0.00000000000E+00 0. -1.
         21   -1    0    0  501  503 -0.00000000000E+00 -0.00000000000E+00 -0.93309325862E+03  0.93309325862E+03  0.00000000000E+00 0. -1.
          6    1    1    2  501    0 -0.16397178513E+02 -0.69619797360E+02 -0.78145132694E+03  0.80334672466E+03  0.17200000000E+03 0. -1.
         -6    1    1    2    0  502  0.16397178513E+02  0.69619797360E+02 -0.79036084234E+02  0.20235238140E+03  0.17200000000E+03 0. -1.
</event>
<event>
 4    1  0.4653733E+000  0.2750740E+03  0.7818608E-02  0.1098410E+00
         21   -1    0    0  501  502  0.00000000000E+00  0.00000000000E+00  0.41926317199E+03  0.41926317199E+03  0.00000000000E+00 0. -1.
         21   -1    0    0  502  503 -0.00000000000E+00 -0.00000000000E+00 -0.26736261139E+03  0.26736261139E+03  0.00000000000E+00 0. -1.
          6    1    1    2  501    0  0.15889717273E+03  0.14433784427E+03  0.27166498174E+03  0.38661038151E+03  0.17200000000E+03 0. -1.
         -6    1    1    2    0  503 -0.15889717273E+03 -0.14433784427E+03 -0.11976442114E+03  0.30001540187E+03  0.17200000000E+03 0. -1.
</event>
<event>
 4    1  0.4653733E+000  0.1737609E+03  0.7818608E-02  0.1173982E+00
         21   -1    0    0  501  502  0.00000000000E+00  0.00000000000E+00  0.16487381073E+03  0.16487381073E+03  0.00000000000E+00 0. -1.
         21   -1    0    0  502  503 -0.00000000000E+00 -0.00000000000E+00 -0.22235667892E+03  0.22235667892E+03  0.00000000000E+00 0. -1.
          6    1    1    2  501    0 -0.71517597977E+01  0.23615967490E+02 -0.11006591971E+03  0.20568755011E+03  0.17200000000E+03 0. -1.
         -6    1    1    2    0  503  0.71517597977E+01 -0.23615967490E+02  0.52583051523E+02  0.18154293954E+03  0.17200000000E+03 0. -1.
</event>
<event>
 4    1  0.4653733E+000  0.2033450E+03  0.7818608E-02  0.1146947E+00
         21   -1    0    0  503  502  0.00000000000E+00  0.00000000000E+00  0.55535506664E+03  0.55535506664E+03  0.00000000000E+00 0.  1.
         21   -1    0    0  501  503 -0.00000000000E+00 -0.00000000000E+00 -0.15404667323E+03  0.15404667323E+03  0.00000000000E+00 0.  1.
          6    1    1    2  501    0  0.50352421948E+01 -0.10835061292E+03 -0.54303832392E+02  0.21047117427E+03  0.17200000000E+03 0.  1.
         -6    1    1    2    0  502 -0.50352421948E+01  0.10835061292E+03  0.45561222581E+03  0.49893056560E+03  0.17200000000E+03 0.  1.
</event>
<event>
 4    1  0.4653733E+000  0.1870246E+03  0.7818608E-02  0.1161173E+00
         21   -1    0    0  501  502  0.00000000000E+00  0.00000000000E+00  0.74858862393E+03  0.74858862393E+03  0.00000000000E+00 0.  1.
         21   -1    0    0  502  503 -0.00000000000E+00 -0.00000000000E+00 -0.50965567634E+02  0.50965567634E+02  0.00000000000E+00 0.  1.
          6    1    1    2  501    0  0.26802247715E+01 -0.73396238091E+02  0.23350206877E+03  0.29916785839E+03  0.17200000000E+03 0.  1.
         -6    1    1    2    0  503 -0.26802247715E+01  0.73396238091E+02  0.46412098752E+03  0.50038633318E+03  0.17200000000E+03 0.  1.
</event>
<event>
 4    1  0.4653733E+000  0.2488096E+03  0.7818608E-02  0.1114059E+00
         21   -1    0    0  503  502  0.00000000000E+00  0.00000000000E+00  0.27210704459E+03  0.27210704459E+03  0.00000000000E+00 0.  1.
         21   -1    0    0  501  503 -0.00000000000E+00 -0.00000000000E+00 -0.23748255975E+03  0.23748255975E+03  0.00000000000E+00 0.  1.
          6    1    1    2  501    0 -0.16108760274E+03 -0.79831082208E+02  0.69533405029E+02  0.25834301202E+03  0.17200000000E+03 0.  1.
         -6    1    1    2    0  502  0.16108760274E+03  0.79831082208E+02 -0.34908920188E+02  0.25124659232E+03  0.17200000000E+03 0.  1.
</event>
<event>
 4    1  0.4653733E+000  0.1725153E+03  0.7818608E-02  0.1175250E+00
         21   -1    0    0  501  502  0.00000000000E+00  0.00000000000E+00  0.24478832659E+02  0.24478832659E+02  0.00000000000E+00 0.  1.
         21   -1    0    0  502  503 -0.00000000000E+00 -0.00000000000E+00 -0.12308088045E+04  0.12308088045E+04  0.00000000000E+00 0.  1.
          6    1    1    2  501    0 -0.34380785634E+01 -0.12872808776E+02 -0.53387131679E+03  0.56105268245E+03  0.17200000000E+03 0. -1.
         -6    1    1    2    0  503  0.34380785634E+01  0.12872808776E+02 -0.67245865505E+03  0.69423495471E+03  0.17200000000E+03 0. -1.
</event>
<event>
 4    1  0.4653733E+000  0.1820956E+03  0.7818608E-02  0.1165790E+00
         21   -1    0    0  501  502  0.00000000000E+00  0.00000000000E+00  0.25811405902E+02  0.25811405902E+02  0.00000000000E+00 0.  1.
         21   -1    0    0  502  503 -0.00000000000E+00 -0.00000000000E+00 -0.16962952404E+04  0.16962952404E+04  0.00000000000E+00 0.  1.
          6    1    1    2  501    0 -0.58842384791E+02  0.10601208902E+02 -0.41107479173E+03  0.44960126365E+03  0.17200000000E+03 0.  1.
         -6    1    1    2    0  503  0.58842384791E+02 -0.10601208902E+02 -0.12594090428E+04  0.12725053827E+04  0.17200000000E+03 0.  1.
</event>
<event>
 4    1  0.4653733E+000  0.1865666E+03  0.7818608E-02  0.1161595E+00
         21   -1    0    0  503  502  0.00000000000E+00  0.00000000000E+00  0.93384491953E+02  0.93384491953E+02  0.00000000000E+00 0. -1.
         21   -1    0    0  501  503 -0.00000000000E+00 -0.00000000000E+00 -0.37607599708E+03  0.37607599708E+03  0.00000000000E+00 0. -1.
          6    1    1    2  501    0  0.65820824570E+02 -0.29844816445E+02 -0.11920110186E+03  0.22139556613E+03  0.17200000000E+03 0. -1.
         -6    1    1    2    0  502 -0.65820824570E+02  0.29844816445E+02 -0.16349040327E+03  0.24806492291E+03  0.17200000000E+03 0. -1.
</event>
<event>
 4    1  0.4653733E+000  0.1761833E+03  0.7818608E-02  0.1171549E+00
         21   -1    0    0  501  502  0.00000000000E+00  0.00000000000E+00  0.31973481400E+03  0.31973481400E+03  0.00000000000E+00 0. -1.
         21   -1    0    0  502  503 -0.00000000000E+00 -0.00000000000E+00 -0.10226977378E+03  0.10226977378E+03  0.00000000000E+00 0. -1.
          6    1    1    2  501    0 -0.10521969139E+02  0.36685701233E+02  0.15625472066E+03  0.23549116807E+03  0.17200000000E+03 0. -1.
         -6    1    1    2    0  503  0.10521969139E+02 -0.36685701233E+02  0.61210319557E+02  0.18651341970E+03  0.17200000000E+03 0. -1.
</event>
<event>
 4    1  0.4653733E+000  0.2126219E+03  0.7818608E-02  0.1139506E+00
         21   -1    0    0  503  502  0.00000000000E+00  0.00000000000E+00  0.80457254389E+02  0.80457254389E+02  0.00000000000E+00 0.  1.
         21   -1    0    0  501  503 -0.00000000000E+00 -0.00000000000E+00 -0.73443072747E+03  0.73443072747E+03  0.00000000000E+00 0. -1.
          6    1    1    2  501    0 -0.71714211097E+02 -0.10237753747E+03 -0.52447391774E+03  0.56593372284E+03  0.17200000000E+03 0. -1.
         -6    1    1    2    0  502  0.71714211097E+02  0.10237753747E+03 -0.12949955534E+03  0.24895425902E+03  0.17200000000E+03 0.  1.
</event>
<event>
 4    1  0.4653733E+000  0.1840832E+03  0.7818608E-02  0.1163909E+00
         21   -1    0    0  503  502  0.00000000000E+00  0.00000000000E+00  0.46389393403E+03  0.46389393403E+03  0.00000000000E+00 0. -1.
         21   -1    0    0  501  503 -0.00000000000E+00 -0.00000000000E+00 -0.11292107743E+03  0.11292107743E+03  0.00000000000E+00 0. -1.
          6    1    1    2  501    0 -0.56157269702E+02  0.33896734906E+02  0.41073845971E+01  0.18412902592E+03  0.17200000000E+03 0. -1.
         -6    1    1    2    0  502  0.56157269702E+02 -0.33896734906E+02  0.34686547200E+03  0.39268598554E+03  0.17200000000E+03 0. -1.
</event>
<event>
 4    1  0.4653733E+000  0.2461786E+03  0.7818608E-02  0.1115744E+00
         21   -1    0    0  501  502  0.00000000000E+00  0.00000000000E+00  0.53462177334E+02  0.53462177334E+02  0.00000000000E+00 0.  1.
         21   -1    0    0  502  503 -0.00000000000E+00 -0.00000000000E+00 -0.15620584148E+04  0.15620584148E+04  0.00000000000E+00 0. -1.
          6    1    1    2  501    0 -0.96191844228E+01 -0.17586186155E+03 -0.33124412408E+03  0.41270642446E+03  0.17200000000E+03 0.  1.
         -6    1    1    2    0  503  0.96191844228E+01  0.17586186155E+03 -0.11773521134E+04  0.12028141676E+04  0.17200000000E+03 0. -1.
</event>
<event>
 4    1  0.4653733E+000  0.1968040E+03  0.7818608E-02  0.1152464E+00
         21   -1    0    0  503  502  0.00000000000E+00  0.00000000000E+00  0.13212591565E+04  0.13212591565E+04  0.00000000000E+00 0. -1.
         21   -1    0    0  501  503 -0.00000000000E+00 -0.00000000000E+00 -0.29454109994E+02  0.29454109994E+02  0.00000000000E+00 0. -1.
          6    1    1    2  501    0  0.95643997826E+02  0.20657009728E+00  0.69242838359E+03  0.71985337632E+03  0.17200000000E+03 0. -1.
         -6    1    1    2    0  502 -0.95643997826E+02 -0.20657009728E+00  0.59937666296E+03  0.63085989022E+03  0.17200000000E+03 0. -1.
</event>
<event>
 4    1  0.4653733E+000  0.1995087E+03  0.7818608E-02  0.1150154E+00
         21   -1    0    0  501  502  0.00000000000E+00  0.00000000000E+00  0.54032598480E+02  0.54032598480E+02  0.00000000000E+00 0. -1.
         21   -1    0    0  502  503 -0.00000000000E+00 -0.00000000000E+00 -0.84655133096E+03  0.84655133096E+03  0.00000000000E+00 0. -1.
          6    1    1    2  501    0  0.84964845689E+02 -0.54778663636E+02 -0.23402360312E+03  0.30752361505E+03  0.17200000000E+03 0. -1.
         -6    1    1    2    0  503 -0.84964845689E+02  0.54778663636E+02 -0.55849512936E+03  0.59306031439E+03  0.17200000000E+03 0. -1.
</event>
<event>
 4    1  0.4653733E+000  0.2267493E+03  0.7818608E-02  0.1128949E+00
         21   -1    0    0  501  502  0.00000000000E+00  0.00000000000E+00  0.41576018846E+02  0.41576018846E+02  0.00000000000E+00 0. -1.
         21   -1    0    0  502  503 -0.00000000000E+00 -0.00000000000E+00 -0.20662804010E+04  0.20662804010E+04  0.00000000000E+00 0. -1.
          6    1    1    2  501    0  0.91310013295E+02  0.11616252006E+03 -0.16801685541E+04  0.16954001356E+04  0.17200000000E+03 0. -1.
         -6    1    1    2    0  503 -0.91310013295E+02 -0.11616252006E+03 -0.34453582798E+03  0.41245628418E+03  0.17200000000E+03 0. -1.
</event>
<event>
 4    1  0.4653733E+000  0.2381761E+03  0.7818608E-02  0.1121014E+00
         21   -1    0    0  503  502  0.00000000000E+00  0.00000000000E+00  0.11726470233E+03  0.11726470233E+03  0.00000000000E+00 0.  1.
         21   -1    0    0  501  503 -0.00000000000E+00 -0.00000000000E+00 -0.48494320842E+03  0.48494320842E+03  0.00000000000E+00 0. -1.
          6    1    1    2  501    0  0.15427062452E+03  0.57831171523E+02 -0.16896066001E+03  0.29201981888E+03  0.17200000000E+03 0. -1.
         -6    1    1    2    0  502 -0.15427062452E+03 -0.57831171523E+02 -0.19871784607E+03  0.31018809187E+03  0.17200000000E+03 0.  1.
</event>
<event>
 4    1  0.4653733E+000  0.1862967E+03  0.7818608E-02  0.1161845E+00
         21   -1    0    0  501  502  0.00000000000E+00  0.00000000000E+00  0.63319824265E+03  0.63319824265E+03  0.00000000000E+00 0.  1.
         21   -1    0    0  502  503 -0.00000000000E+00 -0.00000000000E+00 -0.56770957411E+02  0.56770957411E+02  0.00000000000E+00 0.  1.
          6    1    1    2  501    0 -0.42360192928E+02  0.57689449776E+02  0.35230798931E+03  0.39853152685E+03  0.17200000000E+03 0.  1.
         -6    1    1    2    0  503  0.42360192928E+02 -0.57689449776E+02  0.22411929593E+03  0.29143767322E+03  0.17200000000E+03 0.  1.
</event>
<event>
 4    1  0.4653733E+000  0.2712764E+03  0.7818608E-02  0.1100551E+00
         21   -1    0    0  503  502  0.00000000000E+00  0.00000000000E+00  0.30521849818E+03  0.30521849818E+03  0.00000000000E+00 0. -1.
         21   -1    0    0  501  503 -0.00000000000E+00 -0.00000000000E+00 -0.37438883993E+03  0.37438883993E+03  0.00000000000E+00 0. -1.
          6    1    1    2  501    0  0.69755810204E+02  0.19784086572E+03 -0.23732967557E+03  0.36043897696E+03  0.17200000000E+03 0. -1.
         -6    1    1    2    0  502 -0.69755810204E+02 -0.19784086572E+03  0.16815933382E+03  0.31916836115E+03  0.17200000000E+03 0. -1.
</event>
<event>
 4    1  0.4653733E+000  0.1767053E+03  0.7818608E-02  0.1171030E+00
         21   -1    0    0  503  502  0.00000000000E+00  0.00000000000E+00  0.22509095197E+03  0.22509095197E+03  0.00000000000E+00 0. -1.
         21   -1    0    0  501  503 -0.00000000000E+00 -0.00000000000E+00 -0.14478123387E+03  0.14478123387E+03  0.00000000000E+00 0. -1.
          6    1    1    2  501    0  0.29214291940E+02 -0.28058879425E+02  0.23175013968E+01  0.17672053186E+03  0.17200000000E+03 0.  1.
         -6    1    1    2    0  502 -0.29214291940E+02  0.28058879425E+02  0.77992216699E+02  0.19315165398E+03  0.17200000000E+03 0.  1.
</event>
<event>
 4    1  0.4653733E+000  0.2247952E+03  0.7818608E-02  0.1130358E+00
         21   -1    0    0  503  502  0.00000000000E+00  0.00000000000E+00  0.31075465194E+03  0.31075465194E+03  0.00000000000E+00 0.  1.
         21   -1    0    0  501  503 -0.00000000000E+00 -0.00000000000E+00 -0.21647507029E+03  0.21647507029E+03  0.00000000000E+00 0.  1.
          6    1    1    2  501    0  0.11304987824E+03  0.90380339727E+02 -0.84354143698E+02  0.24010102528E+03  0.17200000000E+03 0.  1.
         -6    1    1    2    0  502 -0.11304987824E+03 -0.90380339727E+02  0.17863372536E+03  0.28712869695E+03  0.17200000000E+03 0.  1.
</event>
<event>
 4    1  0.4653733E+000  0.2083058E+03  0.7818608E-02  0.1142915E+00
         21   -1    0    0  503  502  0.00000000000E+00  0.00000000000E+00  0.49956700454E+02  0.49956700454E+02  0.00000000000E+00 0. -1.
         21   -1    0    0  501  503 -0.00000000000E+00 -0.00000000000E+00 -0.87948309766E+03  0.87948309766E+03  0.00000000000E+00 0. -1.
          6    1    1    2  501    0  0.99394306410E+02  0.62674362091E+02 -0.46651043733E+03  0.51090438631E+03  0.17200000000E+03 0. -1.
         -6    1    1    2    0  502 -0.99394306410E+02 -0.62674362091E+02 -0.36301595987E+03  0.41853541180E+03  0.17200000000E+03 0. -1.
</event>
<event>
 4    1  0.4653733E+000  0.1989200E+03  0.7818608E-02  0.1150653E+00
         21   -1    0    0  501  502  0.00000000000E+00  0.00000000000E+00  0.97670097790E+03  0.97670097790E+03  0.00000000000E+00 0. -1.
         21   -1    0    0  502  503 -0.00000000000E+00 -0.00000000000E+00 -0.75094934983E+02  0.75094934983E+02  0.00000000000E+00 0. -1.
          6    1    1    2  501    0  0.91798908796E+02  0.39472980922E+02  0.80768150164E+03  0.83181642445E+03  0.17200000000E+03 0. -1.
         -6    1    1    2    0  503 -0.91798908796E+02 -0.39472980922E+02  0.93924541268E+02  0.21997948843E+03  0.17200000000E+03 0. -1.
</event>
<event>
 4    1  0.4653733E+000  0.1889267E+03  0.7818608E-02  0.1159433E+00
         21   -1    0    0  501  502  0.00000000000E+00  0.00000000000E+00  0.92817179058E+02  0.92817179058E+02  0.00000000000E+00 0.  1.
         21   -1    0    0  502  503 -0.00000000000E+00 -0.00000000000E+00 -0.40008004668E+03  0.40008004668E+03  0.00000000000E+00 0.  1.
          6    1    1    2  501    0 -0.76194424843E+02 -0.17427549691E+02 -0.10508364504E+03  0.21618483370E+03  0.17200000000E+03 0.  1.
         -6    1    1    2    0  503  0.76194424843E+02  0.17427549691E+02 -0.20217922258E+03  0.27671239204E+03  0.17200000000E+03 0.  1.
</event>
<event>
 4    1  0.4653733E+000  0.1935594E+03  0.7818608E-02  0.1155290E+00
         21   -1    0    0  501  502  0.00000000000E+00  0.00000000000E+00  0.22527340810E+03  0.22527340810E+03  0.00000000000E+00 0.  1.
         21   -1    0    0  502  503 -0.00000000000E+00 -0.00000000000E+00 -0.18711229326E+03  0.18711229326E+03  0.00000000000E+00 0.  1.
          6    1    1    2  501    0 -0.16327877152E+02  0.87261915685E+02  0.87831249800E+02  0.21255486337E+03  0.17200000000E+03 0.  1.
         -6    1    1    2    0  503  0.16327877152E+02 -0.87261915685E+02 -0.49670134963E+02  0.19983083798E+03  0.17200000000E+03 0.  1.
</event>
<event>
 4    1  0.4653733E+000  0.1882301E+03  0.7818608E-02  0.1160067E+00
         21   -1    0    0  503  502  0.00000000000E+00  0.00000000000E+00  0.33856741254E+03  0.33856741254E+03  0.00000000000E+00 0.  1.
         21   -1    0    0  501  503 -0.00000000000E+00 -0.00000000000E+00 -0.46632903982E+03  0.46632903982E+03  0.00000000000E+00 0.  1.
          6    1    1    2  501    0  0.90545689805E+01  0.75924926105E+02 -0.41830744279E+03  0.45870654706E+03  0.17200000000E+03 0.  1.
         -6    1    1    2    0  502 -0.90545689805E+01 -0.75924926105E+02  0.29054581551E+03  0.34618990530E+03  0.17200000000E+03 0.  1.
</event>
<event>
 4    1  0.4653733E+000  0.2416427E+03  0.7818608E-02  0.1118703E+00
         21   -1    0    0  503  502  0.00000000000E+00  0.00000000000E+00  0.25652547866E+03  0.25652547866E+03  0.00000000000E+00 0. -1.
         21   -1    0    0  501  503 -0.00000000000E+00 -0.00000000000E+00 -0.28356591754E+03  0.28356591754E+03  0.00000000000E+00 0.  1.
          6    1    1    2  501    0 -0.30833442558E+02 -0.16690262845E+03 -0.13346502619E+03  0.27605090433E+03  0.17200000000E+03 0.  1.
         -6    1    1    2    0  502  0.30833442558E+02  0.16690262845E+03  0.10642458731E+03  0.26404049187E+03  0.17200000000E+03 0. -1.
</event>
<event>
 4    1  0.4653733E+000  0.2392395E+03  0.7818608E-02  0.1120300E+00
         21   -1    0    0  503  502  0.00000000000E+00  0.00000000000E+00  0.72011788378E+03  0.72011788378E+03  0.00000000000E+00 0.  1.
         21   -1    0    0  501  503 -0.00000000000E+00 -0.00000000000E+00 -0.27608913951E+03  0.27608913951E+03  0.00000000000E+00 0. -1.
          6    1    1    2  501    0 -0.76347353637E+02 -0.14772480278E+03 -0.19832098660E+03  0.31075190987E+03  0.17200000000E+03 0. -1.
         -6    1    1    2    0  502  0.76347353637E+02  0.14772480278E+03  0.64234973087E+03  0.68545511342E+03  0.17200000000E+03 0.  1.
</event>
<event>
 4    1  0.4653733E+000  0.2503520E+03  0.7818608E-02  0.1113083E+00
         21   -1    0    0  503  502  0.00000000000E+00  0.00000000000E+00  0.47487321576E+03  0.47487321576E+03  0.00000000000E+00 0. -1.
         21   -1    0    0  501  503 -0.00000000000E+00 -0.00000000000E+00 -0.14122547057E+03  0.14122547057E+03  0.00000000000E+00 0. -1.
          6    1    1    2  501    0  0.16754831061E+03  0.70849592350E+02  0.88026305617E+02  0.26537658451E+03  0.17200000000E+03 0. -1.
         -6    1    1    2    0  502 -0.16754831061E+03 -0.70849592350E+02  0.24562143957E+03  0.35072210182E+03  0.17200000000E+03 0. -1.
</event>
<event>
 4    1  0.4653733E+000  0.2125416E+03  0.7818608E-02  0.1139569E+00
         21   -1    0    0  503  502  0.00000000000E+00  0.00000000000E+00  0.39986476788E+03  0.39986476788E+03  0.00000000000E+00 0.  1.
         21   -1    0    0  501  503 -0.00000000000E+00 -0.00000000000E+00 -0.15990016255E+03  0.15990016255E+03  0.00000000000E+00 0. -1.
          6    1    1    2  501    0  0.10278959683E+03 -0.70881678946E+02 -0.31640139462E+02  0.21488371751E+03  0.17200000000E+03 0.  1.
         -6    1    1    2    0  502 -0.10278959683E+03  0.70881678946E+02  0.27160474480E+03  0.34488121292E+03  0.17200000000E+03 0.  1.
</event>
<event>
 4    1  0.4653733E+000  0.1738487E+03  0.7818608E-02  0.1173893E+00
         21   -1    0    0  503  502  0.00000000000E+00  0.00000000000E+00  0.14468781599E+03  0.14468781599E+03  0.00000000000E+00 0. -1.
         21   -1    0    0  501  503 -0.00000000000E+00 -0.00000000000E+00 -0.29793376434E+03  0.29793376434E+03  0.00000000000E+00 0. -1.
          6    1    1    2  501    0 -0.24380130296E+02  0.67078119681E+01 -0.19761370703E+03  0.26320061303E+03  0.17200000000E+03 0. -1.
         -6    1    1    2    0  502  0.24380130296E+02 -0.67078119681E+01  0.44367758688E+02  0.17942096730E+03  0.17200000000E+03 0. -1.
</event>
<event>
 4    1  0.4653733E+000  0.2438146E+03  0.7818608E-02  0.1117277E+00
         21   -1    0    0  503  502  0.00000000000E+00  0.00000000000E+00  0.61609006367E+03  0.61609006367E+03  0.00000000000E+00 0. -1.
         21   -1    0    0  501  503 -0.00000000000E+00 -0.00000000000E+00 -0.12432964681E+03  0.12432964681E+03  0.00000000000E+00 0. -1.
          6    1    1    2  501    0 -0.11906626242E+03 -0.12523899836E+03  0.70692151056E+02  0.25385618325E+03  0.17200000000E+03 0. -1.
         -6    1    1    2    0  502  0.11906626242E+03  0.12523899836E+03  0.42106826581E+03  0.48656352722E+03  0.17200000000E+03 0. -1.
</event>
<event>
 4    1  0.4653733E+000  0.2640704E+03  0.7818608E-02  0.1104722E+00
         21   -1    0    0  501  502  0.00000000000E+00  0.00000000000E+00  0.15289895245E+04  0.15289895245E+04  0.00000000000E+00 0. -1.
         21   -1    0    0  502  503 -0.00000000000E+00 -0.00000000000E+00 -0.64282177508E+02  0.64282177508E+02  0.00000000000E+00 0.  1.
          6    1    1    2  501    0 -0.15248364874E+03 -0.12999189077E+03  0.11617347488E+04  0.11913692884E+04  0.17200000000E+03 0. -1.
         -6    1    1    2    0  503  0.15248364874E+03  0.12999189077E+03  0.30297259820E+03  0.40190241360E+03  0.17200000000E+03 0.  1.
</event>
<event>
 4    1  0.4653733E+000  0.2331301E+03  0.7818608E-02  0.1124456E+00
         21   -1    0    0  503  502  0.00000000000E+00  0.00000000000E+00  0.58137404778E+03  0.58137404778E+03  0.00000000000E+00 0.  1.
         21   -1    0    0  501  503 -0.00000000000E+00 -0.00000000000E+00 -0.44685835726E+03  0.44685835726E+03  0.00000000000E+00 0. -1.
          6    1    1    2  501    0  0.13367896413E+03 -0.83039661154E+02 -0.38992861263E+03  0.45430603531E+03  0.17200000000E+03 0. -1.
         -6    1    1    2    0  502 -0.13367896413E+03  0.83039661154E+02  0.52444430314E+03  0.57392636973E+03  0.17200000000E+03 0.  1.
</event>
<event>
 4    1  0.4653733E+000  0.1930511E+03  0.7818608E-02  0.1155738E+00
         21   -1    0    0  503  502  0.00000000000E+00  0.00000000000E+00  0.22652861617E+03  0.22652861617E+03  0.00000000000E+00 0.  1.
         21   -1    0    0  501  503 -0.00000000000E+00 -0.00000000000E+00 -0.19352646877E+03  0.19352646877E+03  0.00000000000E+00 0.  1.
          6    1    1    2  501    0  0.86730147429E+02 -0.12752163720E+02 -0.64809175497E+02  0.20363930215E+03  0.17200000000E+03 0.  1.
         -6    1    1    2    0  502 -0.86730147429E+02  0.12752163720E+02  0.97811322899E+02  0.21641578279E+03  0.17200000000E+03 0.  1.
</event>
<event>
 4    1  0.4653733E+000  0.2882715E+03  0.7818608E-02  0.1091255E+00
         21   -1    0    0  503  502  0.00000000000E+00  0.00000000000E+00  0.11449274690E+03  0.11449274690E+03  0.00000000000E+00 0. -1.
         21   -1    0    0  501  503 -0.00000000000E+00 -0.00000000000E+00 -0.72815812737E+03  0.72815812737E+03  0.00000000000E+00 0. -1.
          6    1    1    2  501    0 -0.21528062163E+03 -0.84680037133E+02 -0.28292804088E+03  0.40391673777E+03  0.17200000000E+03 0. -1.
         -6    1    1    2    0  502  0.21528062163E+03  0.84680037133E+02 -0.33073733959E+03  0.43873413650E+03  0.17200000000E+03 0. -1.
</event>
<event>
 4    1  0.4653733E+000  0.1798073E+03  0.7818608E-02  0.1167990E+00
         21   -1    0    0  503  502  0.00000000000E+00  0.00000000000E+00  0.18552616785E+02  0.18552616785E+02  0.00000000000E+00 0.  1.
         21   -1    0    0  501  503 -0.00000000000E+00 -0.00000000000E+00 -0.18221963617E+04  0.18221963617E+04  0.00000000000E+00 0.  1.
          6    1    1    2  501    0 -0.51655637262E+02 -0.88513381929E+01 -0.10941252637E+04  0.11088014898E+04  0.17200000000E+03 0.  1.
         -6    1    1    2    0  502  0.51655637262E+02  0.88513381929E+01 -0.70951848116E+03  0.73194748866E+03  0.17200000000E+03 0.  1.
</event>
<event>
 4    1  0.4653733E+000  0.1741743E+03  0.7818608E-02  0.1173563E+00
         21   -1    0    0  503  502  0.00000000000E+00  0.00000000000E+00  0.31267206574E+03  0.31267206574E+03  0.00000000000E+00 0.  1.
         21   -1    0    0  501  503 -0.00000000000E+00 -0.00000000000E+00 -0.12736018416E+03  0.12736018416E+03  0.00000000000E+00 0.  1.
          6    1    1    2  501    0 -0.98465297430E+01 -0.25607071524E+02 -0.14722864085E+02  0.17479542038E+03  0.17200000000E+03 0.  1.
         -6    1    1    2    0  502  0.98465297430E+01  0.25607071524E+02  0.20003474566E+03  0.26523682952E+03  0.17200000000E+03 0.  1.
</event>
<event>
 4    1  0.4653733E+000  0.1803646E+03  0.7818608E-02  0.1167451E+00
         21   -1    0    0  501  502  0.00000000000E+00  0.00000000000E+00  0.10441124279E+03  0.10441124279E+03  0.00000000000E+00 0.  1.
         21   -1    0    0  502  503 -0.00000000000E+00 -0.00000000000E+00 -0.76411792887E+03  0.76411792887E+03  0.00000000000E+00 0.  1.
          6    1    1    2  501    0  0.36571475505E+02  0.40123956112E+02  0.43467286959E+01  0.18041701340E+03  0.17200000000E+03 0.  1.
         -6    1    1    2    0  503 -0.36571475505E+02 -0.40123956112E+02 -0.66405341477E+03  0.68811215826E+03  0.17200000000E+03 0.  1.
</event>
<event>
 4    1  0.4653733E+000  0.2102537E+03  0.7818608E-02  0.1141365E+00
         21   -1    0    0  503  502  0.00000000000E+00  0.00000000000E+00  0.19470443581E+03  0.19470443581E+03  0.00000000000E+00 0.  1.
         21   -1    0    0  501  503 -0.00000000000E+00 -0.00000000000E+00 -0.26085208084E+03  0.26085208084E+03  0.00000000000E+00 0. -1.
          6    1    1    2  501    0 -0.66906610304E+02  0.10072788951E+03 -0.11507519882E+03  0.23968500915E+03  0.17200000000E+03 0. -1.
         -6    1    1    2    0  502  0.66906610304E+02 -0.10072788951E+03  0.48927553794E+02  0.21587150750E+03  0.17200000000E+03 0.  1.
</event>
<event>
 4    1  0.4653733E+000  0.1728982E+03  0.7818608E-02  0.1174859E+00
         21   -1    0    0  503  502  0.00000000000E+00  0.00000000000E+00  0.32033748379E+03  0.32033748379E+03  0.00000000000E+00 0.  1.
         21   -1    0    0  501  503 -0.00000000000E+00 -0.00000000000E+00 -0.10333756920E+03  0.10333756920E+03  0.00000000000E+00 0.  1.
          6    1    1    2  501    0  0.17120566304E+02  0.40846467019E+01  0.42542874651E+02  0.17805531251E+03  0.17200000000E+03 0. -1.
         -6    1    1    2    0  502 -0.17120566304E+02 -0.40846467019E+01  0.17445703994E+03  0.24561974048E+03  0.17200000000E+03 0. -1.
</event>
<event>
 4    1  0.4653733E+000  0.2345921E+03  0.7818608E-02  0.1123449E+00
         21   -1    0    0  503  502  0.00000000000E+00  0.00000000000E+00  0.20259022491E+03  0.20259022491E+03  0.00000000000E+00 0.  1.
         21   -1    0    0  501  503 -0.00000000000E+00 -0.00000000000E+00 -0.34595977889E+03  0.34595977889E+03  0.00000000000E+00 0.  1.
          6    1    1    2  501    0 -0.15503287360E+03 -0.37606591292E+02  0.55430896546E+02  0.24105192781E+03  0.17200000000E+03 0.  1.
         -6    1    1    2    0  502  0.15503287360E+03  0.37606591292E+02 -0.19880045053E+03  0.30749807599E+03  0.17200000000E+03 0.  1.
</event>
<event>
 4    1  0.4653733E+000  0.1786278E+03  0.7818608E-02  0.1169138E+00
         21   -1    0    0  503  502  0.00000000000E+00  0.00000000000E+00  0.10685934505E+03  0.10685934505E+03  0.00000000000E+00 0. -1.
         21   -1    0    0  501  503 -0.00000000000E+00 -0.00000000000E+00 -0.38186442905E+03  0.38186442905E+03  0.00000000000E+00 0. -1.
          6    1    1    2  501    0  0.34021281139E+01 -0.48086573455E+02 -0.25161055003E+03  0.30857051367E+03  0.17200000000E+03 0. -1.
         -6    1    1    2    0  502 -0.34021281139E+01  0.48086573455E+02 -0.23394533970E+02  0.18015326043E+03  0.17200000000E+03 0. -1.
</event>
<event>
 4    1  0.4653733E+000  0.1838373E+03  0.7818608E-02  0.1164140E+00
         21   -1    0    0  503  502  0.00000000000E+00  0.00000000000E+00  0.37082311473E+03  0.37082311473E+03  0.00000000000E+00 0. -1.
         21   -1    0    0  501  503 -0.00000000000E+00 -0.00000000000E+00 -0.10949545103E+03  0.10949545103E+03  0.00000000000E+00 0. -1.
          6    1    1    2  501    0  0.34017710851E+02  0.55271690097E+02  0.32329597066E+02  0.18665842393E+03  0.17200000000E+03 0. -1.
         -6    1    1    2    0  502 -0.34017710851E+02 -0.55271690097E+02  0.22899806663E+03  0.29366014183E+03  0.17200000000E+03 0. -1.
</event>
<event>
 4    1  0.4653733E+000  0.2132235E+03  0.7818608E-02  0.1139038E+00
         21   -1    0    0  501  502  0.00000000000E+00  0.00000000000E+00  0.84586076875E+02  0.84586076875E+02  0.00000000000E+00 0. -1.
         21   -1    0    0  502  503 -0.00000000000E+00 -0.00000000000E+00 -0.73065807017E+03  0.73065807017E+03  0.00000000000E+00 0.  1.
          6    1    1    2  501    0  0.11925935945E+03  0.40711734337E+02 -0.53262444659E+03  0.57371860806E+03  0.17200000000E+03 0.  1.
         -6    1    1    2    0  503 -0.11925935945E+03 -0.40711734337E+02 -0.11344754671E+03  0.24152553899E+03  0.17200000000E+03 0. -1.
</event>
<event>
 4    1  0.4653733E+000  0.2127057E+03  0.7818608E-02  0.1139441E+00
         21   -1    0    0  503  502  0.00000000000E+00  0.00000000000E+00  0.97028231710E+03  0.97028231710E+03  0.00000000000E+00 0. -1.
         21   -1    0    0  501  503 -0.00000000000E+00 -0.00000000000E+00 -0.72761918244E+02  0.72761918244E+02  0.00000000000E+00 0.  1.
          6    1    1    2  501    0 -0.95153943334E+02 -0.81273953458E+02  0.13621639283E+03  0.25258391500E+03  0.17200000000E+03 0.  1.
         -6    1    1    2    0  502  0.95153943334E+02  0.81273953458E+02  0.76130400603E+03  0.79046032035E+03  0.17200000000E+03 0. -1.
</event>
<event>
 4    1  0.4653733E+000  0.2898618E+03  0.7818608E-02  0.1090421E+00
         21   -1    0    0  501  502  0.00000000000E+00  0.00000000000E+00  0.32026422405E+04  0.32026422405E+04  0.00000000000E+00 0.  1.
         21   -1    0    0  502  503 -0.00000000000E+00 -0.00000000000E+00 -0.34678143308E+02  0.34678143308E+02  0.00000000000E+00 0. -1.
          6    1    1    2  501    0 -0.21296980879E+03  0.95287734650E+02  0.23826960728E+04  0.24002625829E+04  0.17200000000E+03 0.  1.
         -6    1    1    2    0  503  0.21296980879E+03 -0.95287734650E+02  0.78526802446E+03  0.83705780091E+03  0.17200000000E+03 0. -1.
</event>
<event>
 4    1  0.4653733E+000  0.1791813E+03  0.7818608E-02  0.1168598E+00
         21   -1    0    0  503  502  0.00000000000E+00  0.00000000000E+00  0.11644025450E+04  0.11644025450E+04  0.00000000000E+00 0.  1.
         21   -1    0    0  501  503 -0.00000000000E+00 -0.00000000000E+00 -0.37389494690E+02  0.37389494690E+02  0.00000000000E+00 0.  1.
          6    1    1    2  501    0  0.10792205895E+02  0.49045572710E+02  0.25560967577E+03  0.31215740622E+03  0.17200000000E+03 0.  1.
         -6    1    1    2    0  502 -0.10792205895E+02 -0.49045572710E+02  0.87140337458E+03  0.88963463351E+03  0.17200000000E+03 0.  1.
</event>
<event>
 4    1  0.4653733E+000  0.1831533E+03  0.7818608E-02  0.1164786E+00
         21   -1    0    0  503  502  0.00000000000E+00  0.00000000000E+00  0.12651332917E+03  0.12651332917E+03  0.00000000000E+00 0.  1.
         21   -1    0    0  501  503 -0.00000000000E+00 -0.00000000000E+00 -0.30123411210E+03  0.30123411210E+03  0.00000000000E+00 0.  1.
          6    1    1    2  501    0  0.59541108793E+02  0.20395356624E+02 -0.16138197431E+03  0.24410910643E+03  0.17200000000E+03 0.  1.
         -6    1    1    2    0  502 -0.59541108793E+02 -0.20395356624E+02 -0.13338808624E+02  0.18363833484E+03  0.17200000000E+03 0.  1.
</event>
<event>
 4    1  0.4653733E+000  0.1811370E+03  0.7818608E-02  0.1166707E+00
         21   -1    0    0  501  502  0.00000000000E+00  0.00000000000E+00  0.66895339567E+03  0.66895339567E+03  0.00000000000E+00 0. -1.
         21   -1    0    0  502  503 -0.00000000000E+00 -0.00000000000E+00 -0.52944626918E+02  0.52944626918E+02  0.00000000000E+00 0. -1.
          6    1    1    2  501    0  0.33568126702E+02 -0.45823466349E+02  0.40593024475E+03  0.44451093665E+03  0.17200000000E+03 0. -1.
         -6    1    1    2    0  503 -0.33568126702E+02  0.45823466349E+02  0.21007852400E+03  0.27738708594E+03  0.17200000000E+03 0. -1.
</event>
<event>
 4    1  0.4653733E+000  0.1986057E+03  0.7818608E-02  0.1150921E+00
         21   -1    0    0  503  502  0.00000000000E+00  0.00000000000E+00  0.31412203033E+04  0.31412203033E+04  0.00000000000E+00 0.  1.
         21   -1    0    0  501  503 -0.00000000000E+00 -0.00000000000E+00 -0.28399361782E+02  0.28399361782E+02  0.00000000000E+00 0.  1.
          6    1    1    2  501    0  0.98827606120E+02 -0.96613790227E+01  0.37273372536E+03  0.42234425294E+03  0.17200000000E+03 0.  1.
         -6    1    1    2    0  502 -0.98827606120E+02  0.96613790227E+01  0.27400872162E+04  0.27472754121E+04  0.17200000000E+03 0.  1.
</event>
<event>
 4    1  0.4653733E+000  0.1826886E+03  0.7818608E-02  0.1165226E+00
         21   -1    0    0  503  502  0.00000000000E+00  0.00000000000E+00  0.15667998768E+04  0.15667998768E+04  0.00000000000E+00 0. -1.
         21   -1    0    0  501  503 -0.00000000000E+00 -0.00000000000E+00 -0.89773085352E+02  0.89773085352E+02  0.00000000000E+00 0. -1.
          6    1    1    2  501    0 -0.53062495414E+02 -0.31232860569E+02  0.15139510947E+02  0.18331482425E+03  0.17200000000E+03 0. -1.
         -6    1    1    2    0  502  0.53062495414E+02  0.31232860569E+02  0.14618872805E+04  0.14732581379E+04  0.17200000000E+03 0. -1.
</event>
<event>
 4    1  0.4653733E+000  0.1884504E+03  0.7818608E-02  0.1159866E+00
         21   -1    0    0  503  502  0.00000000000E+00  0.00000000000E+00  0.48333082957E+02  0.48333082957E+02  0.00000000000E+00 0.  1.
         21   -1    0    0  501  503 -0.00000000000E+00 -0.00000000000E+00 -0.76618900731E+03  0.76618900731E+03  0.00000000000E+00 0.  1.
          6    1    1    2  501    0 -0.93993982914E+01 -0.76427710641E+02 -0.27645275619E+03  0.33457386337E+03  0.17200000000E+03 0.  1.
         -6    1    1    2    0  502  0.93993982914E+01  0.76427710641E+02 -0.44140316816E+03  0.47994822690E+03  0.17200000000E+03 0.  1.
</event>
<event>
 4    1  0.4653733E+000  0.1921973E+03  0.7818608E-02  0.1156494E+00
         21   -1    0    0  501  502  0.00000000000E+00  0.00000000000E+00  0.72714407235E+03  0.72714407235E+03  0.00000000000E+00 0.  1.
         21   -1    0    0  502  503 -0.00000000000E+00 -0.00000000000E+00 -0.10215464527E+03  0.10215464527E+03  0.00000000000E+00 0. -1.
          6    1    1    2  501    0 -0.13109964045E+02  0.84757981649E+02  0.60648755718E+03  0.63621297034E+03  0.17200000000E+03 0.  1.
         -6    1    1    2    0  503  0.13109964045E+02 -0.84757981649E+02  0.18501869893E+02  0.19308574727E+03  0.17200000000E+03 0. -1.
</event>
<event>
 4    1  0.4653733E+000  0.2551506E+03  0.7818608E-02  0.1110092E+00
         21   -1    0    0  501  502  0.00000000000E+00  0.00000000000E+00  0.39275030900E+03  0.39275030900E+03  0.00000000000E+00 0.  1.
         21   -1    0    0  502  503 -0.00000000000E+00 -0.00000000000E+00 -0.16982268311E+03  0.16982268311E+03  0.00000000000E+00 0. -1.
          6    1    1    2  501    0  0.11448580401E+03  0.14970253072E+03  0.15497670511E+03  0.29852910436E+03  0.17200000000E+03 0. -1.
         -6    1    1    2    0  503 -0.11448580401E+03 -0.14970253072E+03  0.67950920780E+02  0.26404388775E+03  0.17200000000E+03 0.  1.
</event>
<event>
 4    1  0.4653733E+000  0.1856541E+03  0.7818608E-02  0.1162440E+00
         21   -1    0    0  501  502  0.00000000000E+00  0.00000000000E+00  0.78331638305E+02  0.78331638305E+02  0.00000000000E+00 0.  1.
         21   -1    0    0  502  503 -0.00000000000E+00 -0.00000000000E+00 -0.44006140171E+03  0.44006140171E+03  0.00000000000E+00 0.  1.
          6    1    1    2  501    0 -0.40657518147E+02  0.56836649186E+02 -0.17833185975E+03  0.25742900123E+03  0.17200000000E+03 0.  1.
         -6    1    1    2    0  503  0.40657518147E+02 -0.56836649186E+02 -0.18339790365E+03  0.26096403878E+03  0.17200000000E+03 0.  1.
</event>
<event>
 4    1  0.4653733E+000  0.2566905E+03  0.7818608E-02  0.1109148E+00
         21   -1    0    0  501  502  0.00000000000E+00  0.00000000000E+00  0.88639262576E+03  0.88639262576E+03  0.00000000000E+00 0.  1.
         21   -1    0    0  502  503 -0.00000000000E+00 -0.00000000000E+00 -0.20155945535E+03  0.20155945535E+03  0.00000000000E+00 0. -1.
          6    1    1    2  501    0 -0.15065231408E+03 -0.11666133692E+03  0.77459542591E+03  0.81601964505E+03  0.17200000000E+03 0.  1.
         -6    1    1    2    0  503  0.15065231408E+03  0.11666133692E+03 -0.89762255497E+02  0.27193243606E+03  0.17200000000E+03 0. -1.
</event>
<event>
 4    1  0.4653733E+000  0.1889740E+03  0.7818608E-02  0.1159390E+00
         21   -1    0    0  501  502  0.00000000000E+00  0.00000000000E+00  0.50276694726E+03  0.50276694726E+03  0.00000000000E+00 0.  1.
         21   -1    0    0  502  503 -0.00000000000E+00 -0.00000000000E+00 -0.74497536373E+02  0.74497536373E+02  0.00000000000E+00 0. -1.
          6    1    1    2  501    0  0.57597478321E+02  0.53006497989E+02  0.27641224809E+03  0.33483561524E+03  0.17200000000E+03 0.  1.
         -6    1    1    2    0  503 -0.57597478321E+02 -0.53006497989E+02  0.15185716279E+03  0.24242886839E+03  0.17200000000E+03 0.  1.
</event>
<event>
 4    1  0.4653733E+000  0.2225757E+03  0.7818608E-02  0.1131977E+00
         21   -1    0    0  501  502  0.00000000000E+00  0.00000000000E+00  0.13900247210E+03  0.13900247210E+03  0.00000000000E+00 0. -1.
         21   -1    0    0  502  503 -0.00000000000E+00 -0.00000000000E+00 -0.93895663723E+03  0.93895663723E+03  0.00000000000E+00 0. -1.
          6    1    1    2  501    0  0.14020342886E+03  0.17289309338E+02  0.24564368977E+02  0.22392706381E+03  0.17200000000E+03 0. -1.
         -6    1    1    2    0  503 -0.14020342886E+03 -0.17289309338E+02 -0.82451853411E+03  0.85403204552E+03  0.17200000000E+03 0. -1.
</event>
<event>
 4    1  0.4653733E+000  0.2042126E+03  0.7818608E-02  0.1146233E+00
         21   -1    0    0  501  502  0.00000000000E+00  0.00000000000E+00  0.70188778803E+03  0.70188778803E+03  0.00000000000E+00 0.  1.
         21   -1    0    0  502  503 -0.00000000000E+00 -0.00000000000E+00 -0.72566195740E+02  0.72566195740E+02  0.00000000000E+00 0. -1.
          6    1    1    2  501    0 -0.10856501119E+03  0.18232912327E+02  0.47950657211E+03  0.52118073011E+03  0.17200000000E+03 0. -1.
         -6    1    1    2    0  503  0.10856501119E+03 -0.18232912327E+02  0.14981502019E+03  0.25327325366E+03  0.17200000000E+03 0.  1.
</event>
<event>
 4    1  0.4653733E+000  0.2033617E+03  0.7818608E-02  0.1146933E+00
         21   -1    0    0  501  502  0.00000000000E+00  0.00000000000E+00  0.10043509163E+03  0.10043509163E+03  0.00000000000E+00 0. -1.
         21   -1    0    0  502  503 -0.00000000000E+00 -0.00000000000E+00 -0.60162643017E+03  0.60162643017E+03  0.00000000000E+00 0. -1.
          6    1    1    2  501    0  0.10454568482E+03 -0.29020564471E+02 -0.53400510629E+02  0.21025605321E+03  0.17200000000E+03 0. -1.
         -6    1    1    2    0  503 -0.10454568482E+03  0.29020564471E+02 -0.44779082791E+03  0.49180546859E+03  0.17200000000E+03 0. -1.
</event>
<event>
 4    1  0.4653733E+000  0.1755861E+03  0.7818608E-02  0.1172145E+00
         21   -1    0    0  501  502  0.00000000000E+00  0.00000000000E+00  0.12238862163E+03  0.12238862163E+03  0.00000000000E+00 0.  1.
         21   -1    0    0  502  503 -0.00000000000E+00 -0.00000000000E+00 -0.37297142409E+03  0.37297142409E+03  0.00000000000E+00 0.  1.
          6    1    1    2  501    0  0.30998630034E+02 -0.16898524338E+02  0.15820152501E+02  0.17629734092E+03  0.17200000000E+03 0.  1.
         -6    1    1    2    0  503 -0.30998630034E+02  0.16898524338E+02 -0.26640295496E+03  0.31906270481E+03  0.17200000000E+03 0.  1.
</event>
<event>
 4    1  0.4653733E+000  0.2584598E+03  0.7818608E-02  0.1108072E+00
         21   -1    0    0  501  502  0.00000000000E+00  0.00000000000E+00  0.86209789465E+02  0.86209789465E+02  0.00000000000E+00 0.  1.
         21   -1    0    0  502  503 -0.00000000000E+00 -0.00000000000E+00 -0.10399834161E+04  0.10399834161E+04  0.00000000000E+00 0. -1.
          6    1    1    2  501    0  0.13535454428E+02 -0.19244286445E+03 -0.19258165125E+03  0.32231840935E+03  0.17200000000E+03 0.  1.
         -6    1    1    2    0  503 -0.13535454428E+02  0.19244286445E+03 -0.76119197535E+03  0.80387479618E+03  0.17200000000E+03 0. -1.
</event>
<event>
 4    1  0.4653733E+000  0.2030158E+03  0.7818608E-02  0.1147219E+00
         21   -1    0    0  503  502  0.00000000000E+00  0.00000000000E+00  0.38944479659E+03  0.38944479659E+03  0.00000000000E+00 0. -1.
         21   -1    0    0  501  503 -0.00000000000E+00 -0.00000000000E+00 -0.12101158129E+03  0.12101158129E+03  0.00000000000E+00 0.  1.
          6    1    1    2  501    0  0.10763484064E+03  0.67942112133E+01  0.43819165738E+02  0.20769097119E+03  0.17200000000E+03 0.  1.
         -6    1    1    2    0  502 -0.10763484064E+03 -0.67942112133E+01  0.22461404957E+03  0.30276540669E+03  0.17200000000E+03 0. -1.
</event>
<event>
 4    1  0.4653733E+000  0.1894115E+03  0.7818608E-02  0.1158993E+00
         21   -1    0    0  501  502  0.00000000000E+00  0.00000000000E+00  0.99185280625E+02  0.99185280625E+02  0.00000000000E+00 0.  1.
         21   -1    0    0  502  503 -0.00000000000E+00 -0.00000000000E+00 -0.47915234884E+03  0.47915234884E+03  0.00000000000E+00 0. -1.
          6    1    1    2  501    0  0.47947689469E+02 -0.63196040014E+02 -0.46824315973E+02  0.19511339515E+03  0.17200000000E+03 0.  1.
         -6    1    1    2    0  503 -0.47947689469E+02  0.63196040014E+02 -0.33314275225E+03  0.38322423432E+03  0.17200000000E+03 0. -1.
</event>
<event>
 4    1  0.4653733E+000  0.2630636E+03  0.7818608E-02  0.1105316E+00
         21   -1    0    0  501  502  0.00000000000E+00  0.00000000000E+00  0.15325383979E+03  0.15325383979E+03  0.00000000000E+00 0.  1.
         21   -1    0    0  502  503 -0.00000000000E+00 -0.00000000000E+00 -0.55097126182E+03  0.55097126182E+03  0.00000000000E+00 0. -1.
          6    1    1    2  501    0 -0.14273896571E+03  0.13872282012E+03 -0.34842965530E+03  0.43658407878E+03  0.17200000000E+03 0. -1.
         -6    1    1    2    0  503  0.14273896571E+03 -0.13872282012E+03 -0.49287766738E+02  0.26764102283E+03  0.17200000000E+03 0.  1.
</event>
<event>
 4    1  0.4653733E+000  0.1797658E+03  0.7818608E-02  0.1168030E+00
         21   -1    0    0  503  502  0.00000000000E+00  0.00000000000E+00  0.12426428303E+03  0.12426428303E+03  0.00000000000E+00 0.  1.
         21   -1    0    0  501  503 -0.00000000000E+00 -0.00000000000E+00 -0.28743528299E+03  0.28743528299E+03  0.00000000000E+00 0.  1.
          6    1    1    2  501    0  0.88102666950E+01  0.51518117223E+02 -0.14511673144E+03  0.23102944173E+03  0.17200000000E+03 0.  1.
         -6    1    1    2    0  502 -0.88102666950E+01 -0.51518117223E+02 -0.18054268513E+02  0.18067012430E+03  0.17200000000E+03 0.  1.
</event>
<event>
 4    1  0.4653733E+000  0.2113930E+03  0.7818608E-02  0.1140468E+00
         21   -1    0    0  501  502  0.00000000000E+00  0.00000000000E+00  0.72386065473E+02  0.72386065473E+02  0.00000000000E+00 0.  1.
         21   -1    0    0  502  503 -0.00000000000E+00 -0.00000000000E+00 -0.63714162073E+03  0.63714162073E+03  0.00000000000E+00 0.  1.
          6    1    1    2  501    0  0.12244397402E+03 -0.10511391776E+02 -0.34491535546E+03  0.40454124457E+03  0.17200000000E+03 0.  1.
         -6    1    1    2    0  503 -0.12244397402E+03  0.10511391776E+02 -0.21984019980E+03  0.30498644163E+03  0.17200000000E+03 0.  1.
</event>
<event>
 4    1  0.4653733E+000  0.2066904E+03  0.7818608E-02  0.1144214E+00
         21   -1    0    0  501  502  0.00000000000E+00  0.00000000000E+00  0.86767858647E+02  0.86767858647E+02  0.00000000000E+00 0. -1.
         21   -1    0    0  502  503 -0.00000000000E+00 -0.00000000000E+00 -0.10347469355E+04  0.10347469355E+04  0.00000000000E+00 0. -1.
          6    1    1    2  501    0 -0.81887258211E+02  0.80196009188E+02 -0.68001715290E+02  0.21758942123E+03  0.17200000000E+03 0. -1.
         -6    1    1    2    0  503  0.81887258211E+02 -0.80196009188E+02 -0.87997736154E+03  0.90392537290E+03  0.17200000000E+03 0. -1.
</event>
<event>
 4    1  0.4653733E+000  0.2004414E+03  0.7818608E-02  0.1149367E+00
         21   -1    0    0  503  502  0.00000000000E+00  0.00000000000E+00  0.80908045972E+02  0.80908045972E+02  0.00000000000E+00 0.  1.
         21   -1    0    0  501  503 -0.00000000000E+00 -0.00000000000E+00 -0.54201452282E+03  0.54201452282E+03  0.00000000000E+00 0.  1.
          6    1    1    2  501    0  0.80155575565E+02  0.64558838245E+02 -0.32073620734E+03  0.37821749641E+03  0.17200000000E+03 0.  1.
         -6    1    1    2    0  502 -0.80155575565E+02 -0.64558838245E+02 -0.14037026951E+03  0.24470507239E+03  0.17200000000E+03 0.  1.
</event>
<event>
 4    1  0.4653733E+000  0.2415217E+03  0.7818608E-02  0.1118783E+00
         21   -1    0    0  501  502  0.00000000000E+00  0.00000000000E+00  0.16471047751E+03  0.16471047751E+03  0.00000000000E+00 0.  1.
         21   -1    0    0  502  503 -0.00000000000E+00 -0.00000000000E+00 -0.35649138973E+03  0.35649138973E+03  0.00000000000E+00 0. -1.
          6    1    1    2  501    0 -0.54236216902E+02  0.16064607523E+03 -0.11699612873E+03  0.26836695558E+03  0.17200000000E+03 0. -1.
         -6    1    1    2    0  503  0.54236216902E+02 -0.16064607523E+03 -0.74784783493E+02  0.25283491166E+03  0.17200000000E+03 0.  1.
</event>
<event>
 4    1  0.4653733E+000  0.2040252E+03  0.7818608E-02  0.1146387E+00
         21   -1    0    0  501  502  0.00000000000E+00  0.00000000000E+00  0.46086768793E+02  0.46086768793E+02  0.00000000000E+00 0.  1.
         21   -1    0    0  502  503 -0.00000000000E+00 -0.00000000000E+00 -0.94477140602E+03  0.94477140602E+03  0.00000000000E+00 0. -1.
          6    1    1    2  501    0  0.79127897864E+02 -0.76033198368E+02 -0.34543744475E+03  0.40118985494E+03  0.17200000000E+03 0.  1.
         -6    1    1    2    0  503 -0.79127897864E+02  0.76033198368E+02 -0.55324719248E+03  0.58966831987E+03  0.17200000000E+03 0.  1.
</event>
<event>
 4    1  0.4653733E+000  0.2170593E+03  0.7818608E-02  0.1136095E+00
         21   -1    0    0  501  502  0.00000000000E+00  0.00000000000E+00  0.35058396515E+03  0.35058396515E+03  0.00000000000E+00 0.  1.
         21   -1    0    0  502  503 -0.00000000000E+00 -0.00000000000E+00 -0.13439001715E+03  0.13439001715E+03  0.00000000000E+00 0.  1.
          6    1    1    2  501    0  0.81311229867E+02 -0.10449498941E+03  0.10752061550E+03  0.24223005939E+03  0.17200000000E+03 0.  1.
         -6    1    1    2    0  503 -0.81311229867E+02  0.10449498941E+03  0.10867333250E+03  0.24274392291E+03  0.17200000000E+03 0.  1.
</event>
<event>
 4    1  0.4653733E+000  0.1920551E+03  0.7818608E-02  0.1156621E+00
         21   -1    0    0  501  502  0.00000000000E+00  0.00000000000E+00  0.62381906950E+02  0.62381906950E+02  0.00000000000E+00 0.  1.
         21   -1    0    0  502  503 -0.00000000000E+00 -0.00000000000E+00 -0.73840691253E+03  0.73840691253E+03  0.00000000000E+00 0.  1.
          6    1    1    2  501    0 -0.99995406763E+01 -0.84859691500E+02 -0.51673802101E+03  0.55127428783E+03  0.17200000000E+03 0.  1.
         -6    1    1    2    0  503  0.99995406763E+01  0.84859691500E+02 -0.15928698457E+03  0.24951453166E+03  0.17200000000E+03 0.  1.
</event>
<event>
 4    1  0.4653733E+000  0.2793977E+03  0.7818608E-02  0.1096018E+00
         21   -1    0    0  501  502  0.00000000000E+00  0.00000000000E+00  0.64371162615E+03  0.64371162615E+03  0.00000000000E+00 0.  1.
         21   -1    0    0  502  503 -0.00000000000E+00 -0.00000000000E+00 -0.13142206134E+03  0.13142206134E+03  0.00000000000E+00 0. -1.
          6    1    1    2  501    0 -0.13682401793E+03  0.17250586393E+03  0.36386165725E+03  0.45875744200E+03  0.17200000000E+03 0. -1.
         -6    1    1    2    0  503  0.13682401793E+03 -0.17250586393E+03  0.14842790755E+03  0.31637624549E+03  0.17200000000E+03 0.  1.
</event>
<event>
 4    1  0.4653733E+000  0.3352588E+03  0.7818608E-02  0.1068833E+00
         21   -1    0    0  503  502  0.00000000000E+00  0.00000000000E+00  0.10074667584E+04  0.10074667584E+04  0.00000000000E+00 0.  1.
         21   -1    0    0  501  503 -0.00000000000E+00 -0.00000000000E+00 -0.25427265540E+03  0.25427265540E+03  0.00000000000E+00 0.  1.
          6    1    1    2  501    0  0.11303015148E+03  0.26464813143E+03 -0.96023765194E+02  0.34873917488E+03  0.17200000000E+03 0.  1.
         -6    1    1    2    0  502 -0.11303015148E+03 -0.26464813143E+03  0.84921786817E+03  0.91300023890E+03  0.17200000000E+03 0.  1.
</event>
<event>
 4    1  0.4653733E+000  0.2624775E+03  0.7818608E-02  0.1105664E+00
         21   -1    0    0  501  502  0.00000000000E+00  0.00000000000E+00  0.82801833132E+03  0.82801833132E+03  0.00000000000E+00 0.  1.
         21   -1    0    0  502  503 -0.00000000000E+00 -0.00000000000E+00 -0.15551205711E+03  0.15551205711E+03  0.00000000000E+00 0. -1.
          6    1    1    2  501    0  0.11244169106E+03 -0.16330121666E+03  0.67158062727E+03  0.72105128817E+03  0.17200000000E+03 0.  1.
         -6    1    1    2    0  503 -0.11244169106E+03  0.16330121666E+03  0.92564693846E+00  0.26247910026E+03  0.17200000000E+03 0. -1.
</event>
<event>
 4    1  0.4653733E+000  0.1822138E+03  0.7818608E-02  0.1165678E+00
         21   -1    0    0  503  502  0.00000000000E+00  0.00000000000E+00  0.10585377985E+04  0.10585377985E+04  0.00000000000E+00 0.  1.
         21   -1    0    0  501  503 -0.00000000000E+00 -0.00000000000E+00 -0.20823693097E+03  0.20823693097E+03  0.00000000000E+00 0.  1.
          6    1    1    2  501    0 -0.19636570404E+02  0.56853168068E+02 -0.15858896052E+03  0.24156228186E+03  0.17200000000E+03 0.  1.
         -6    1    1    2    0  502  0.19636570404E+02 -0.56853168068E+02  0.10088898281E+04  0.10252124477E+04  0.17200000000E+03 0.  1.
</event>
<event>
 4    1  0.4653733E+000  0.1827434E+03  0.7818608E-02  0.1165174E+00
         21   -1    0    0  501  502  0.00000000000E+00  0.00000000000E+00  0.87656463400E+02  0.87656463400E+02  0.00000000000E+00 0.  1.
         21   -1    0    0  502  503 -0.00000000000E+00 -0.00000000000E+00 -0.41122093037E+03  0.41122093037E+03  0.00000000000E+00 0.  1.
          6    1    1    2  501    0  0.27298826587E+02  0.55370799149E+02 -0.94136432538E+02  0.20556463524E+03  0.17200000000E+03 0. -1.
         -6    1    1    2    0  503 -0.27298826587E+02 -0.55370799149E+02 -0.22942803443E+03  0.29331275852E+03  0.17200000000E+03 0. -1.
</event>
<event>
 4    1  0.4653733E+000  0.1918766E+03  0.7818608E-02  0.1156780E+00
         21   -1    0    0  503  502  0.00000000000E+00  0.00000000000E+00  0.21962239661E+03  0.21962239661E+03  0.00000000000E+00 0.  1.
         21   -1    0    0  501  503 -0.00000000000E+00 -0.00000000000E+00 -0.27222605651E+03  0.27222605651E+03  0.00000000000E+00 0. -1.
          6    1    1    2  501    0  0.85003868377E+02  0.26429250951E+01 -0.17873569208E+03  0.26222717311E+03  0.17200000000E+03 0. -1.
         -6    1    1    2    0  502 -0.85003868377E+02 -0.26429250951E+01  0.12613203218E+03  0.22962128001E+03  0.17200000000E+03 0.  1.
</event>
<event>
 4    1  0.4653733E+000  0.1908972E+03  0.7818608E-02  0.1157655E+00
         21   -1    0    0  503  502  0.00000000000E+00  0.00000000000E+00  0.41310652366E+03  0.41310652366E+03  0.00000000000E+00 0. -1.
         21   -1    0    0  501  503 -0.00000000000E+00 -0.00000000000E+00 -0.10096068925E+03  0.10096068925E+03  0.00000000000E+00 0.  1.
          6    1    1    2  501    0 -0.82241191256E+02  0.97011442075E+01  0.64742667072E+02  0.20157712836E+03  0.17200000000E+03 0.  1.
         -6    1    1    2    0  502  0.82241191256E+02 -0.97011442075E+01  0.24740316733E+03  0.31249008455E+03  0.17200000000E+03 0. -1.
</event>
<event>
 4    1  0.4653733E+000  0.2100847E+03  0.7818608E-02  0.1141499E+00
         21   -1    0    0  501  502  0.00000000000E+00  0.00000000000E+00  0.14407612220E+03  0.14407612220E+03  0.00000000000E+00 0. -1.
         21   -1    0    0  502  503 -0.00000000000E+00 -0.00000000000E+00 -0.34839732216E+03  0.34839732216E+03  0.00000000000E+00 0. -1.
          6    1    1    2  501    0 -0.85519499079E+02  0.85076536628E+02 -0.16602623958E+02  0.21073976590E+03  0.17200000000E+03 0. -1.
         -6    1    1    2    0  503  0.85519499079E+02 -0.85076536628E+02 -0.18771857600E+03  0.28173367847E+03  0.17200000000E+03 0. -1.
</event>
<event>
 4    1  0.4653733E+000  0.2264291E+03  0.7818608E-02  0.1129179E+00
         21   -1    0    0  503  502  0.00000000000E+00  0.00000000000E+00  0.89649221302E+03  0.89649221302E+03  0.00000000000E+00 0. -1.
         21   -1    0    0  501  503 -0.00000000000E+00 -0.00000000000E+00 -0.78212077195E+02  0.78212077195E+02  0.00000000000E+00 0.  1.
          6    1    1    2  501    0  0.19225495274E+02 -0.14600170974E+03  0.15647400993E+03  0.27523487188E+03  0.17200000000E+03 0.  1.
         -6    1    1    2    0  502 -0.19225495274E+02  0.14600170974E+03  0.66180612590E+03  0.69946941834E+03  0.17200000000E+03 0. -1.
</event>
<event>
 4    1  0.4653733E+000  0.2810707E+03  0.7818608E-02  0.1095106E+00
         21   -1    0    0  503  502  0.00000000000E+00  0.00000000000E+00  0.22277312674E+03  0.22277312674E+03  0.00000000000E+00 0.  1.
         21   -1    0    0  501  503 -0.00000000000E+00 -0.00000000000E+00 -0.37145053611E+03  0.37145053611E+03  0.00000000000E+00 0.  1.
          6    1    1    2  501    0 -0.21893121726E+03  0.38546835349E+02 -0.11102681918E+02  0.28128989664E+03  0.17200000000E+03 0.  1.
         -6    1    1    2    0  502  0.21893121726E+03 -0.38546835349E+02 -0.13757472745E+03  0.31293376621E+03  0.17200000000E+03 0.  1.
</event>
<event>
 4    1  0.4653733E+000  0.1808517E+03  0.7818608E-02  0.1166981E+00
         21   -1    0    0  503  502  0.00000000000E+00  0.00000000000E+00  0.11519054205E+03  0.11519054205E+03  0.00000000000E+00 0. -1.
         21   -1    0    0  501  503 -0.00000000000E+00 -0.00000000000E+00 -0.40027877236E+03  0.40027877236E+03  0.00000000000E+00 0. -1.
          6    1    1    2  501    0 -0.47307552820E+02 -0.29754291753E+02 -0.28149196702E+03  0.33458190317E+03  0.17200000000E+03 0. -1.
         -6    1    1    2    0  502  0.47307552820E+02  0.29754291753E+02 -0.35962632856E+01  0.18088741123E+03  0.17200000000E+03 0. -1.
</event>
<event>
 4    1  0.4653733E+000  0.3080359E+03  0.7818608E-02  0.1081291E+00
         21   -1    0    0  503  502  0.00000000000E+00  0.00000000000E+00  0.46489378942E+03  0.46489378942E+03  0.00000000000E+00 0. -1.
         21   -1    0    0  501  503 -0.00000000000E+00 -0.00000000000E+00 -0.23811794076E+03  0.23811794076E+03  0.00000000000E+00 0. -1.
          6    1    1    2  501    0  0.16865571989E+03  0.19198268269E+03 -0.19465561098E+02  0.30865030435E+03  0.17200000000E+03 0. -1.
         -6    1    1    2    0  502 -0.16865571989E+03 -0.19198268269E+03  0.24624140976E+03  0.39436142583E+03  0.17200000000E+03 0. -1.
</event>
<event>
 4    1  0.4653733E+000  0.2078153E+03  0.7818608E-02  0.1143308E+00
         21   -1    0    0  501  502  0.00000000000E+00  0.00000000000E+00  0.67717159774E+03  0.67717159774E+03  0.00000000000E+00 0. -1.
         21   -1    0    0  502  503 -0.00000000000E+00 -0.00000000000E+00 -0.72074223823E+02  0.72074223823E+02  0.00000000000E+00 0.  1.
          6    1    1    2  501    0 -0.82202659584E+02  0.82740155390E+02  0.42966468566E+03  0.47728288537E+03  0.17200000000E+03 0. -1.
         -6    1    1    2    0  503  0.82202659584E+02 -0.82740155390E+02  0.17543268825E+03  0.27196293619E+03  0.17200000000E+03 0. -1.
</event>
<event>
 4    1  0.4653733E+000  0.2886453E+03  0.7818608E-02  0.1091059E+00
         21   -1    0    0  503  502  0.00000000000E+00  0.00000000000E+00  0.98480965344E+03  0.98480965344E+03  0.00000000000E+00 0. -1.
         21   -1    0    0  501  503 -0.00000000000E+00 -0.00000000000E+00 -0.87121788807E+02  0.87121788807E+02  0.00000000000E+00 0.  1.
          6    1    1    2  501    0 -0.22769108617E+02  0.23068089895E+03  0.35768023877E+03  0.45962078136E+03  0.17200000000E+03 0.  1.
         -6    1    1    2    0  502  0.22769108617E+02 -0.23068089895E+03  0.54000762586E+03  0.61231066088E+03  0.17200000000E+03 0. -1.
</event>
<event>
 4    1  0.4653733E+000  0.1908037E+03  0.7818608E-02  0.1157738E+00
         21   -1    0    0  503  502  0.00000000000E+00  0.00000000000E+00  0.10867976547E+03  0.10867976547E+03  0.00000000000E+00 0. -1.
         21   -1    0    0  501  503 -0.00000000000E+00 -0.00000000000E+00 -0.45106804769E+03  0.45106804769E+03  0.00000000000E+00 0.  1.
          6    1    1    2  501    0  0.72560007565E+02 -0.39460005999E+02 -0.31317393586E+03  0.36672054875E+03  0.17200000000E+03 0.  1.
         -6    1    1    2    0  502 -0.72560007565E+02  0.39460005999E+02 -0.29214346355E+02  0.19302726441E+03  0.17200000000E+03 0. -1.
</event>
<event>
 4    1  0.4653733E+000  0.1961220E+03  0.7818608E-02  0.1153053E+00
         21   -1    0    0  503  502  0.00000000000E+00  0.00000000000E+00  0.26337955540E+03  0.26337955540E+03  0.00000000000E+00 0. -1.
         21   -1    0    0  501  503 -0.00000000000E+00 -0.00000000000E+00 -0.46021428618E+03  0.46021428618E+03  0.00000000000E+00 0. -1.
          6    1    1    2  501    0  0.82787148015E+02  0.45012451933E+02 -0.39734801457E+03  0.44311316544E+03  0.17200000000E+03 0. -1.
         -6    1    1    2    0  502 -0.82787148015E+02 -0.45012451933E+02  0.20051328379E+03  0.28048067613E+03  0.17200000000E+03 0. -1.
</event>
<event>
 4    1  0.4653733E+000  0.2608928E+03  0.7818608E-02  0.1106608E+00
         21   -1    0    0  503  502  0.00000000000E+00  0.00000000000E+00  0.40478290252E+03  0.40478290252E+03  0.00000000000E+00 0.  1.
         21   -1    0    0  501  503 -0.00000000000E+00 -0.00000000000E+00 -0.31183074704E+03  0.31183074704E+03  0.00000000000E+00 0.  1.
          6    1    1    2  501    0  0.17304932417E+03  0.92385051950E+02 -0.19673975041E+03  0.32675923218E+03  0.17200000000E+03 0.  1.
         -6    1    1    2    0  502 -0.17304932417E+03 -0.92385051950E+02  0.28969190589E+03  0.38985441739E+03  0.17200000000E+03 0.  1.
</event>
<event>
 4    1  0.4653733E+000  0.3565272E+03  0.7818608E-02  0.1059967E+00
         21   -1    0    0  501  502  0.00000000000E+00  0.00000000000E+00  0.22398930734E+03  0.22398930734E+03  0.00000000000E+00 0.  1.
         21   -1    0    0  502  503 -0.00000000000E+00 -0.00000000000E+00 -0.66443092295E+03  0.66443092295E+03  0.00000000000E+00 0. -1.
          6    1    1    2  501    0 -0.20005160834E+03  0.23980615309E+03 -0.50545888948E+02  0.36009238252E+03  0.17200000000E+03 0.  1.
         -6    1    1    2    0  503  0.20005160834E+03 -0.23980615309E+03 -0.38989572666E+03  0.52832784777E+03  0.17200000000E+03 0. -1.
</event>
<event>
 4    1  0.4653733E+000  0.1864257E+03  0.7818608E-02  0.1161725E+00
         21   -1    0    0  503  502  0.00000000000E+00  0.00000000000E+00  0.11815741232E+03  0.11815741232E+03  0.00000000000E+00 0.  1.
         21   -1    0    0  501  503 -0.00000000000E+00 -0.00000000000E+00 -0.66006339133E+03  0.66006339133E+03  0.00000000000E+00 0.  1.
          6    1    1    2  501    0 -0.66270726937E+02 -0.27905473241E+02 -0.56067173304E+03  0.59085304172E+03  0.17200000000E+03 0.  1.
         -6    1    1    2    0  502  0.66270726937E+02  0.27905473241E+02  0.18765754031E+02  0.18736776193E+03  0.17200000000E+03 0.  1.
</event>
<event>
 4    1  0.4653733E+000  0.1912625E+03  0.7818608E-02  0.1157328E+00
         21   -1    0    0  503  502  0.00000000000E+00  0.00000000000E+00  0.59732134437E+02  0.59732134437E+02  0.00000000000E+00 0.  1.
         21   -1    0    0  501  503 -0.00000000000E+00 -0.00000000000E+00 -0.75745653587E+03  0.75745653587E+03  0.00000000000E+00 0.  1.
          6    1    1    2  501    0  0.48706291660E+02  0.68007544770E+02 -0.52765408429E+03  0.56124875203E+03  0.17200000000E+03 0.  1.
         -6    1    1    2    0  502 -0.48706291660E+02 -0.68007544770E+02 -0.17007031715E+03  0.25593991828E+03  0.17200000000E+03 0.  1.
</event>
<event>
 4    1  0.4653733E+000  0.1766056E+03  0.7818608E-02  0.1171129E+00
         21   -1    0    0  503  502  0.00000000000E+00  0.00000000000E+00  0.30485101349E+03  0.30485101349E+03  0.00000000000E+00 0. -1.
         21   -1    0    0  501  503 -0.00000000000E+00 -0.00000000000E+00 -0.17688079634E+03  0.17688079634E+03  0.00000000000E+00 0. -1.
          6    1    1    2  501    0 -0.77183515348E+01 -0.39318860189E+02 -0.92407815112E+02  0.19932072148E+03  0.17200000000E+03 0. -1.
         -6    1    1    2    0  502  0.77183515348E+01  0.39318860189E+02  0.22037803227E+03  0.28241108835E+03  0.17200000000E+03 0. -1.
</event>
<event>
 4    1  0.4653733E+000  0.1967752E+03  0.7818608E-02  0.1152489E+00
         21   -1    0    0  501  502  0.00000000000E+00  0.00000000000E+00  0.29728603190E+03  0.29728603190E+03  0.00000000000E+00 0. -1.
         21   -1    0    0  502  503 -0.00000000000E+00 -0.00000000000E+00 -0.44957863203E+03  0.44957863203E+03  0.00000000000E+00 0. -1.
          6    1    1    2  501    0 -0.89714576179E+02  0.32981513868E+02  0.23857805324E+03  0.30925713075E+03  0.17200000000E+03 0. -1.
         -6    1    1    2    0  503  0.89714576179E+02 -0.32981513868E+02 -0.39087065337E+03  0.43760753318E+03  0.17200000000E+03 0. -1.
</event>
<event>
 4    1  0.4653733E+000  0.2011225E+03  0.7818608E-02  0.1148795E+00
         21   -1    0    0  503  502  0.00000000000E+00  0.00000000000E+00  0.20462783276E+03  0.20462783276E+03  0.00000000000E+00 0. -1.
         21   -1    0    0  501  503 -0.00000000000E+00 -0.00000000000E+00 -0.47457772317E+03  0.47457772317E+03  0.00000000000E+00 0. -1.
          6    1    1    2  501    0  0.82704379769E+01  0.10391270366E+03 -0.39438062116E+03  0.44270342722E+03  0.17200000000E+03 0. -1.
         -6    1    1    2    0  502 -0.82704379769E+01 -0.10391270366E+03  0.12443073076E+03  0.23650212871E+03  0.17200000000E+03 0. -1.
</event>
<event>
 4    1  0.4653733E+000  0.1745847E+03  0.7818608E-02  0.1173149E+00
         21   -1    0    0  503  502  0.00000000000E+00  0.00000000000E+00  0.22989315922E+03  0.22989315922E+03  0.00000000000E+00 0. -1.
         21   -1    0    0  501  503 -0.00000000000E+00 -0.00000000000E+00 -0.62716213982E+03  0.62716213982E+03  0.00000000000E+00 0. -1.
          6    1    1    2  501    0 -0.14237799617E+02 -0.26326841603E+02 -0.57918037902E+03  0.60492125849E+03  0.17200000000E+03 0. -1.
         -6    1    1    2    0  502  0.14237799617E+02  0.26326841603E+02  0.18191139842E+03  0.25213404055E+03  0.17200000000E+03 0. -1.
</event>
<event>
 4    1  0.4653733E+000  0.2321913E+03  0.7818608E-02  0.1125107E+00
         21   -1    0    0  503  502  0.00000000000E+00  0.00000000000E+00  0.39294844905E+02  0.39294844905E+02  0.00000000000E+00 0. -1.
         21   -1    0    0  501  503 -0.00000000000E+00 -0.00000000000E+00 -0.14503119181E+04  0.14503119181E+04  0.00000000000E+00 0. -1.
          6    1    1    2  501    0 -0.10362183547E+03 -0.11658177175E+03 -0.87857224879E+03  0.90873648030E+03  0.17200000000E+03 0. -1.
         -6    1    1    2    0  502  0.10362183547E+03  0.11658177175E+03 -0.53244482441E+03  0.58087028270E+03  0.17200000000E+03 0. -1.
</event>
<event>
 4    1  0.4653733E+000  0.1972663E+03  0.7818608E-02  0.1152066E+00
         21   -1    0    0  501  502  0.00000000000E+00  0.00000000000E+00  0.81445160183E+02  0.81445160183E+02  0.00000000000E+00 0.  1.
         21   -1    0    0  502  503 -0.00000000000E+00 -0.00000000000E+00 -0.11939943422E+04  0.11939943422E+04  0.00000000000E+00 0.  1.
          6    1    1    2  501    0  0.52296501367E+02  0.81210007463E+02 -0.62366582387E+02  0.20689026068E+03  0.17200000000E+03 0.  1.
         -6    1    1    2    0  503 -0.52296501367E+02 -0.81210007463E+02 -0.10501825996E+04  0.10685492417E+04  0.17200000000E+03 0.  1.
</event>
<event>
 4    1  0.4653733E+000  0.1854166E+03  0.7818608E-02  0.1162661E+00
         21   -1    0    0  501  502  0.00000000000E+00  0.00000000000E+00  0.72490772275E+03  0.72490772275E+03  0.00000000000E+00 0.  1.
         21   -1    0    0  502  503 -0.00000000000E+00 -0.00000000000E+00 -0.49628424757E+02  0.49628424757E+02  0.00000000000E+00 0. -1.
          6    1    1    2  501    0  0.61857543806E+02  0.31128257694E+02  0.41922596508E+03  0.45839909898E+03  0.17200000000E+03 0.  1.
         -6    1    1    2    0  503 -0.61857543806E+02 -0.31128257694E+02  0.25605333292E+03  0.31613704853E+03  0.17200000000E+03 0. -1.
</event>
<event>
 4    1  0.4653733E+000  0.1961979E+03  0.7818608E-02  0.1152987E+00
         21   -1    0    0  503  502  0.00000000000E+00  0.00000000000E+00  0.12496615779E+04  0.12496615779E+04  0.00000000000E+00 0. -1.
         21   -1    0    0  501  503 -0.00000000000E+00 -0.00000000000E+00 -0.45327258749E+02  0.45327258749E+02  0.00000000000E+00 0. -1.
          6    1    1    2  501    0  0.74714952262E+02  0.57682730472E+02  0.23564541090E+03  0.30663069182E+03  0.17200000000E+03 0. -1.
         -6    1    1    2    0  502 -0.74714952262E+02 -0.57682730472E+02  0.96868890829E+03  0.98835814487E+03  0.17200000000E+03 0. -1.
</event>
<event>
 4    1  0.4653733E+000  0.1996795E+03  0.7818608E-02  0.1150010E+00
         21   -1    0    0  503  502  0.00000000000E+00  0.00000000000E+00  0.19986288328E+03  0.19986288328E+03  0.00000000000E+00 0. -1.
         21   -1    0    0  501  503 -0.00000000000E+00 -0.00000000000E+00 -0.20104620682E+03  0.20104620682E+03  0.00000000000E+00 0. -1.
          6    1    1    2  501    0  0.98321308628E+02  0.24916023782E+02  0.17009170494E+02  0.20040259442E+03  0.17200000000E+03 0. -1.
         -6    1    1    2    0  502 -0.98321308628E+02 -0.24916023782E+02 -0.18192494033E+02  0.20050649568E+03  0.17200000000E+03 0. -1.
</event>
<event>
 4    1  0.4653733E+000  0.2199027E+03  0.7818608E-02  0.1133956E+00
         21   -1    0    0  501  502  0.00000000000E+00  0.00000000000E+00  0.89761155001E+03  0.89761155001E+03  0.00000000000E+00 0.  1.
         21   -1    0    0  502  503 -0.00000000000E+00 -0.00000000000E+00 -0.76810663191E+02  0.76810663191E+02  0.00000000000E+00 0. -1.
          6    1    1    2  501    0 -0.11471045282E+03 -0.74931334134E+02  0.67664409420E+03  0.71148044459E+03  0.17200000000E+03 0.  1.
         -6    1    1    2    0  503  0.11471045282E+03  0.74931334134E+02  0.14415679262E+03  0.26294176861E+03  0.17200000000E+03 0. -1.
</event>
<event>
 4    1  0.4653733E+000  0.2951416E+03  0.7818608E-02  0.1087695E+00
         21   -1    0    0  503  502  0.00000000000E+00  0.00000000000E+00  0.49259167053E+03  0.49259167053E+03  0.00000000000E+00 0. -1.
         21   -1    0    0  501  503 -0.00000000000E+00 -0.00000000000E+00 -0.18660454712E+03  0.18660454712E+03  0.00000000000E+00 0.  1.
          6    1    1    2  501    0  0.14555356618E+03  0.19062717597E+03  0.75298905312E+02  0.30459561058E+03  0.17200000000E+03 0.  1.
         -6    1    1    2    0  502 -0.14555356618E+03 -0.19062717597E+03  0.23068821810E+03  0.37460060707E+03  0.17200000000E+03 0. -1.
</event>
<event>
 4    1  0.4653733E+000  0.1787390E+03  0.7818608E-02  0.1169029E+00
         21   -1    0    0  501  502  0.00000000000E+00  0.00000000000E+00  0.47492266619E+03  0.47492266619E+03  0.00000000000E+00 0.  1.
         21   -1    0    0  502  503 -0.00000000000E+00 -0.00000000000E+00 -0.81451880670E+02  0.81451880670E+02  0.00000000000E+00 0.  1.
          6    1    1    2  501    0  0.42660825486E+02 -0.23317215087E+02  0.31281790689E+03  0.36028139200E+03  0.17200000000E+03 0. -1.
         -6    1    1    2    0  503 -0.42660825486E+02  0.23317215087E+02  0.80652878624E+02  0.19609315485E+03  0.17200000000E+03 0. -1.
</event>
<event>
 4    1  0.4653733E+000  0.1910005E+03  0.7818608E-02  0.1157562E+00
         21   -1    0    0  503  502  0.00000000000E+00  0.00000000000E+00  0.21319486057E+03  0.21319486057E+03  0.00000000000E+00 0. -1.
         21   -1    0    0  501  503 -0.00000000000E+00 -0.00000000000E+00 -0.29475774504E+03  0.29475774504E+03  0.00000000000E+00 0. -1.
          6    1    1    2  501    0 -0.77129574028E+02  0.30792919672E+02 -0.20527243853E+03  0.28038892473E+03  0.17200000000E+03 0. -1.
         -6    1    1    2    0  502  0.77129574028E+02 -0.30792919672E+02  0.12370955405E+03  0.22756368088E+03  0.17200000000E+03 0. -1.
</event>
<event>
 4    1  0.4653733E+000  0.2132189E+03  0.7818608E-02  0.1139042E+00
         21   -1    0    0  503  502  0.00000000000E+00  0.00000000000E+00  0.70514379979E+02  0.70514379979E+02  0.00000000000E+00 0.  1.
         21   -1    0    0  501  503 -0.00000000000E+00 -0.00000000000E+00 -0.78222293106E+03  0.78222293106E+03  0.00000000000E+00 0.  1.
          6    1    1    2  501    0  0.47912088178E+02 -0.11654491003E+03 -0.17709429201E+03  0.27717264026E+03  0.17200000000E+03 0. -1.
         -6    1    1    2    0  502 -0.47912088178E+02  0.11654491003E+03 -0.53461425907E+03  0.57556467077E+03  0.17200000000E+03 0. -1.
</event>
<event>
 4    1  0.4653733E+000  0.2062479E+03  0.7818608E-02  0.1144572E+00
         21   -1    0    0  501  502  0.00000000000E+00  0.00000000000E+00  0.12226993505E+04  0.12226993505E+04  0.00000000000E+00 0. -1.
         21   -1    0    0  502  503 -0.00000000000E+00 -0.00000000000E+00 -0.48114751038E+02  0.48114751038E+02  0.00000000000E+00 0. -1.
          6    1    1    2  501    0 -0.62641504855E+02 -0.95027610007E+02  0.92166889427E+03  0.94446373962E+03  0.17200000000E+03 0. -1.
         -6    1    1    2    0  503  0.62641504855E+02  0.95027610007E+02  0.25291570521E+03  0.32635036194E+03  0.17200000000E+03 0. -1.
</event>
<event>
 4    1  0.4653733E+000  0.1754216E+03  0.7818608E-02  0.1172309E+00
         21   -1    0    0  501  502  0.00000000000E+00  0.00000000000E+00  0.74470851489E+02  0.74470851489E+02  0.00000000000E+00 0.  1.
         21   -1    0    0  502  503 -0.00000000000E+00 -0.00000000000E+00 -0.81000639479E+03  0.81000639479E+03  0.00000000000E+00 0.  1.
          6    1    1    2  501    0  0.33616564384E+02 -0.76592183477E+01 -0.58245697496E+02  0.18483857364E+03  0.17200000000E+03 0.  1.
         -6    1    1    2    0  503 -0.33616564384E+02  0.76592183477E+01 -0.67728984581E+03  0.69963867264E+03  0.17200000000E+03 0.  1.
</event>
<event>
 4    1  0.4653733E+000  0.1911970E+03  0.7818608E-02  0.1157386E+00
         21   -1    0    0  501  502  0.00000000000E+00  0.00000000000E+00  0.33190045489E+03  0.33190045489E+03  0.00000000000E+00 0.  1.
         21   -1    0    0  502  503 -0.00000000000E+00 -0.00000000000E+00 -0.22149723074E+03  0.22149723074E+03  0.00000000000E+00 0.  1.
          6    1    1    2  501    0 -0.82276718043E+02  0.14242445968E+02  0.25139201766E+03  0.31583896552E+03  0.17200000000E+03 0.  1.
         -6    1    1    2    0  503  0.82276718043E+02 -0.14242445968E+02 -0.14098879352E+03  0.23755872010E+03  0.17200000000E+03 0.  1.
</event>
<event>
 4    1  0.4653733E+000  0.2257683E+03  0.7818608E-02  0.1129654E+00
         21   -1    0    0  503  502  0.00000000000E+00  0.00000000000E+00  0.10013458257E+04  0.10013458257E+04  0.00000000000E+00 0. -1.
         21   -1    0    0  501  503 -0.00000000000E+00 -0.00000000000E+00 -0.77219972762E+02  0.77219972762E+02  0.00000000000E+00 0. -1.
          6    1    1    2  501    0 -0.10599800825E+03  0.10075587891E+03  0.14723642055E+03  0.26953643246E+03  0.17200000000E+03 0. -1.
         -6    1    1    2    0  502  0.10599800825E+03 -0.10075587891E+03  0.77688943240E+03  0.80902936601E+03  0.17200000000E+03 0. -1.
</event>
<event>
 4    1  0.4653733E+000  0.2069990E+03  0.7818608E-02  0.1143965E+00
         21   -1    0    0  503  502  0.00000000000E+00  0.00000000000E+00  0.56596351752E+03  0.56596351752E+03  0.00000000000E+00 0.  1.
         21   -1    0    0  501  503 -0.00000000000E+00 -0.00000000000E+00 -0.13112609681E+03  0.13112609681E+03  0.00000000000E+00 0.  1.
          6    1    1    2  501    0 -0.17500240713E+02 -0.11383460665E+03 -0.91686234522E+01  0.20720192990E+03  0.17200000000E+03 0.  1.
         -6    1    1    2    0  502  0.17500240713E+02  0.11383460665E+03  0.44400604416E+03  0.48988768442E+03  0.17200000000E+03 0.  1.
</event>
<event>
 4    1  0.4653733E+000  0.1848204E+03  0.7818608E-02  0.1163218E+00
         21   -1    0    0  501  502  0.00000000000E+00  0.00000000000E+00  0.39047814204E+03  0.39047814204E+03  0.00000000000E+00 0.  1.
         21   -1    0    0  502  503 -0.00000000000E+00 -0.00000000000E+00 -0.87498308809E+02  0.87498308809E+02  0.00000000000E+00 0.  1.
          6    1    1    2  501    0  0.66816623110E+02 -0.10494071317E+02  0.15505205358E+03  0.24124619370E+03  0.17200000000E+03 0. -1.
         -6    1    1    2    0  503 -0.66816623110E+02  0.10494071317E+02  0.14792777966E+03  0.23673025715E+03  0.17200000000E+03 0. -1.
</event>
<event>
 4    1  0.4653733E+000  0.1971289E+03  0.7818608E-02  0.1152184E+00
         21   -1    0    0  501  502  0.00000000000E+00  0.00000000000E+00  0.89134218617E+02  0.89134218617E+02  0.00000000000E+00 0.  1.
         21   -1    0    0  502  503 -0.00000000000E+00 -0.00000000000E+00 -0.89209991941E+03  0.89209991941E+03  0.00000000000E+00 0.  1.
          6    1    1    2  501    0  0.43735360894E+02  0.85808025150E+02 -0.50666011371E+02  0.20353585355E+03  0.17200000000E+03 0.  1.
         -6    1    1    2    0  503 -0.43735360894E+02 -0.85808025150E+02 -0.75229968942E+03  0.77769828448E+03  0.17200000000E+03 0.  1.
</event>
<event>
 4    1  0.4653733E+000  0.2389982E+03  0.7818608E-02  0.1120462E+00
         21   -1    0    0  501  502  0.00000000000E+00  0.00000000000E+00  0.38031048217E+03  0.38031048217E+03  0.00000000000E+00 0.  1.
         21   -1    0    0  502  503 -0.00000000000E+00 -0.00000000000E+00 -0.18889321880E+03  0.18889321880E+03  0.00000000000E+00 0.  1.
          6    1    1    2  501    0  0.16514918065E+03 -0.16183450854E+02  0.22452870318E+03  0.32792269593E+03  0.17200000000E+03 0.  1.
         -6    1    1    2    0  503 -0.16514918065E+03  0.16183450854E+02 -0.33111439811E+02  0.24128100505E+03  0.17200000000E+03 0.  1.
</event>
<event>
 4    1  0.4653733E+000  0.1913127E+03  0.7818608E-02  0.1157283E+00
         21   -1    0    0  503  502  0.00000000000E+00  0.00000000000E+00  0.31992029975E+03  0.31992029975E+03  0.00000000000E+00 0.  1.
         21   -1    0    0  501  503 -0.00000000000E+00 -0.00000000000E+00 -0.28293614305E+03  0.28293614305E+03  0.00000000000E+00 0.  1.
          6    1    1    2  501    0  0.70152177898E+02  0.45773754389E+02 -0.21414527391E+03  0.28715633894E+03  0.17200000000E+03 0.  1.
         -6    1    1    2    0  502 -0.70152177898E+02 -0.45773754389E+02  0.25112943061E+03  0.31570010385E+03  0.17200000000E+03 0.  1.
</event>
<event>
 4    1  0.4653733E+000  0.1883409E+03  0.7818608E-02  0.1159966E+00
         21   -1    0    0  501  502  0.00000000000E+00  0.00000000000E+00  0.24025498914E+03  0.24025498914E+03  0.00000000000E+00 0.  1.
         21   -1    0    0  502  503 -0.00000000000E+00 -0.00000000000E+00 -0.22243615254E+03  0.22243615254E+03  0.00000000000E+00 0.  1.
          6    1    1    2  501    0 -0.61284083748E+02  0.46179782582E+02  0.14305774690E+03  0.23651179714E+03  0.17200000000E+03 0.  1.
         -6    1    1    2    0  503  0.61284083748E+02 -0.46179782582E+02 -0.12523891031E+03  0.22617934454E+03  0.17200000000E+03 0.  1.
</event>
<event>
 4    1  0.4653733E+000  0.2142083E+03  0.7818608E-02  0.1138276E+00
         21   -1    0    0  503  502  0.00000000000E+00  0.00000000000E+00  0.15566872191E+03  0.15566872191E+03  0.00000000000E+00 0. -1.
         21   -1    0    0  501  503 -0.00000000000E+00 -0.00000000000E+00 -0.29567344540E+03  0.29567344540E+03  0.00000000000E+00 0. -1.
          6    1    1    2  501    0 -0.76942158679E+02 -0.10188771751E+03 -0.57471893796E+02  0.22178417738E+03  0.17200000000E+03 0. -1.
         -6    1    1    2    0  502  0.76942158679E+02  0.10188771751E+03 -0.82532829699E+02  0.22955798993E+03  0.17200000000E+03 0. -1.
</event>
<event>
 4    1  0.4653733E+000  0.1978158E+03  0.7818608E-02  0.1151595E+00
         21   -1    0    0  501  502  0.00000000000E+00  0.00000000000E+00  0.44987536428E+03  0.44987536428E+03  0.00000000000E+00 0. -1.
         21   -1    0    0  502  503 -0.00000000000E+00 -0.00000000000E+00 -0.24637750952E+03  0.24637750952E+03  0.00000000000E+00 0.  1.
          6    1    1    2  501    0  0.95653455923E+02  0.19937424864E+02  0.38175950551E+03  0.42996674823E+03  0.17200000000E+03 0. -1.
         -6    1    1    2    0  503 -0.95653455923E+02 -0.19937424864E+02 -0.17826165074E+03  0.26628612556E+03  0.17200000000E+03 0.  1.
</event>
<event>
 4    1  0.4653733E+000  0.2272623E+03  0.7818608E-02  0.1128582E+00
         21   -1    0    0  501  502  0.00000000000E+00  0.00000000000E+00  0.10300947032E+04  0.10300947032E+04  0.00000000000E+00 0.  1.
         21   -1    0    0  502  503 -0.00000000000E+00 -0.00000000000E+00 -0.51789585276E+02  0.51789585276E+02  0.00000000000E+00 0.  1.
          6    1    1    2  501    0 -0.10710212749E+03 -0.10292373320E+03  0.58571709192E+03  0.62826162729E+03  0.17200000000E+03 0.  1.
         -6    1    1    2    0  503  0.10710212749E+03  0.10292373320E+03  0.39258802596E+03  0.45362266114E+03  0.17200000000E+03 0.  1.
</event>
<event>
 4    1  0.4653733E+000  0.2481568E+03  0.7818608E-02  0.1114475E+00
         21   -1    0    0  501  502  0.00000000000E+00  0.00000000000E+00  0.17860853243E+03  0.17860853243E+03  0.00000000000E+00 0. -1.
         21   -1    0    0  502  503 -0.00000000000E+00 -0.00000000000E+00 -0.67353098024E+03  0.67353098024E+03  0.00000000000E+00 0.  1.
          6    1    1    2  501    0  0.15241999583E+03 -0.93626595617E+02  0.50206135112E+02  0.25318461750E+03  0.17200000000E+03 0. -1.
         -6    1    1    2    0  503 -0.15241999583E+03  0.93626595617E+02 -0.54512858292E+03  0.59895489518E+03  0.17200000000E+03 0.  1.
</event>
<event>
 4    1  0.4653733E+000  0.2155721E+03  0.7818608E-02  0.1137228E+00
         21   -1    0    0  503  502  0.00000000000E+00  0.00000000000E+00  0.73376049010E+02  0.73376049010E+02  0.00000000000E+00 0.  1.
         21   -1    0    0  501  503 -0.00000000000E+00 -0.00000000000E+00 -0.84456669024E+03  0.84456669024E+03  0.00000000000E+00 0.  1.
          6    1    1    2  501    0  0.52803361715E+02  0.11873984394E+03 -0.61513195164E+03  0.65181183134E+03  0.17200000000E+03 0.  1.
         -6    1    1    2    0  502 -0.52803361715E+02 -0.11873984394E+03 -0.15605868959E+03  0.26613090791E+03  0.17200000000E+03 0.  1.
</event>
<event>
 4    1  0.4653733E+000  0.2228543E+03  0.7818608E-02  0.1131773E+00
         21   -1    0    0  503  502  0.00000000000E+00  0.00000000000E+00  0.49853100664E+03  0.49853100664E+03  0.00000000000E+00 0. -1.
         21   -1    0    0  501  503 -0.00000000000E+00 -0.00000000000E+00 -0.99911852406E+02  0.99911852406E+02  0.00000000000E+00 0.  1.
          6    1    1    2  501    0  0.14102298536E+03  0.13877173229E+02  0.18315971408E+03  0.28846410383E+03  0.17200000000E+03 0. -1.
         -6    1    1    2    0  502 -0.14102298536E+03 -0.13877173229E+02  0.21545944015E+03  0.30997875522E+03  0.17200000000E+03 0. -1.
</event>
<event>
 4    1  0.4653733E+000  0.1826018E+03  0.7818608E-02  0.1165308E+00
         21   -1    0    0  503  502  0.00000000000E+00  0.00000000000E+00  0.38329150347E+03  0.38329150347E+03  0.00000000000E+00 0.  1.
         21   -1    0    0  501  503 -0.00000000000E+00 -0.00000000000E+00 -0.90977948379E+02  0.90977948379E+02  0.00000000000E+00 0. -1.
          6    1    1    2  501    0  0.54879006636E+02  0.27344558868E+02  0.96523424014E+02  0.20654346190E+03  0.17200000000E+03 0. -1.
         -6    1    1    2    0  502 -0.54879006636E+02 -0.27344558868E+02  0.19579013108E+03  0.26772598995E+03  0.17200000000E+03 0.  1.
</event>
<event>
 4    1  0.4653733E+000  0.2108253E+03  0.7818608E-02  0.1140914E+00
         21   -1    0    0  503  502  0.00000000000E+00  0.00000000000E+00  0.14028120053E+03  0.14028120053E+03  0.00000000000E+00 0.  1.
         21   -1    0    0  501  503 -0.00000000000E+00 -0.00000000000E+00 -0.32754394060E+03  0.32754394060E+03  0.00000000000E+00 0.  1.
          6    1    1    2  501    0 -0.65875388519E+02  0.10258526039E+03 -0.13590824134E+03  0.25083530957E+03  0.17200000000E+03 0.  1.
         -6    1    1    2    0  502  0.65875388519E+02 -0.10258526039E+03 -0.51354498733E+02  0.21698983156E+03  0.17200000000E+03 0.  1.
</event>
<event>
 4    1  0.4653733E+000  0.1737597E+03  0.7818608E-02  0.1173983E+00
         21   -1    0    0  501  502  0.00000000000E+00  0.00000000000E+00  0.74684000448E+03  0.74684000448E+03  0.00000000000E+00 0.  1.
         21   -1    0    0  502  503 -0.00000000000E+00 -0.00000000000E+00 -0.62924279942E+02  0.62924279942E+02  0.00000000000E+00 0.  1.
          6    1    1    2  501    0 -0.86712526029E+01  0.23091919270E+02  0.99863067948E+02  0.20041222442E+03  0.17200000000E+03 0.  1.
         -6    1    1    2    0  503  0.86712526029E+01 -0.23091919270E+02  0.58405265659E+03  0.60935206001E+03  0.17200000000E+03 0.  1.
</event>
<event>
 4    1  0.4653733E+000  0.3263966E+03  0.7818608E-02  0.1072742E+00
         21   -1    0    0  503  502  0.00000000000E+00  0.00000000000E+00  0.60412203520E+03  0.60412203520E+03  0.00000000000E+00 0. -1.
         21   -1    0    0  501  503 -0.00000000000E+00 -0.00000000000E+00 -0.22721934245E+03  0.22721934245E+03  0.00000000000E+00 0. -1.
          6    1    1    2  501    0  0.31275582528E+02 -0.27563127700E+03 -0.82331198495E+01  0.32650045511E+03  0.17200000000E+03 0. -1.
         -6    1    1    2    0  502 -0.31275582528E+02  0.27563127700E+03  0.38513581259E+03  0.50484092254E+03  0.17200000000E+03 0. -1.
</event>
<event>
 4    1  0.4653733E+000  0.1906086E+03  0.7818608E-02  0.1157914E+00
         21   -1    0    0  501  502  0.00000000000E+00  0.00000000000E+00  0.47365847688E+03  0.47365847688E+03  0.00000000000E+00 0. -1.
         21   -1    0    0  502  503 -0.00000000000E+00 -0.00000000000E+00 -0.84869314844E+02  0.84869314844E+02  0.00000000000E+00 0. -1.
          6    1    1    2  501    0  0.70988159880E+02 -0.41331624585E+02  0.28101475455E+03  0.33955988325E+03  0.17200000000E+03 0. -1.
         -6    1    1    2    0  503 -0.70988159880E+02  0.41331624585E+02  0.10777440748E+03  0.21896790848E+03  0.17200000000E+03 0. -1.
</event>
<event>
 4    1  0.4653733E+000  0.4520330E+03  0.7818608E-02  0.1027118E+00
         21   -1    0    0  501  502  0.00000000000E+00  0.00000000000E+00  0.61223874170E+03  0.61223874170E+03  0.00000000000E+00 0.  1.
         21   -1    0    0  502  503 -0.00000000000E+00 -0.00000000000E+00 -0.35050363519E+03  0.35050363519E+03  0.00000000000E+00 0. -1.
          6    1    1    2  501    0  0.18948407795E+03  0.37261996738E+03  0.23611360287E+03  0.50998381283E+03  0.17200000000E+03 0. -1.
         -6    1    1    2    0  503 -0.18948407795E+03 -0.37261996738E+03  0.25621503651E+02  0.45275856407E+03  0.17200000000E+03 0.  1.
</event>
<event>
 4    1  0.4653733E+000  0.1784306E+03  0.7818608E-02  0.1169331E+00
         21   -1    0    0  503  502  0.00000000000E+00  0.00000000000E+00  0.81159769469E+02  0.81159769469E+02  0.00000000000E+00 0.  1.
         21   -1    0    0  501  503 -0.00000000000E+00 -0.00000000000E+00 -0.40350010699E+03  0.40350010699E+03  0.00000000000E+00 0.  1.
          6    1    1    2  501    0 -0.34265973376E+02 -0.32852777722E+02 -0.20157730681E+03  0.26920414662E+03  0.17200000000E+03 0.  1.
         -6    1    1    2    0  502  0.34265973376E+02  0.32852777722E+02 -0.12076303071E+03  0.21545572984E+03  0.17200000000E+03 0.  1.
</event>
<event>
 4    1  0.4653733E+000  0.2560055E+03  0.7818608E-02  0.1109567E+00
         21   -1    0    0  503  502  0.00000000000E+00  0.00000000000E+00  0.25474911470E+03  0.25474911470E+03  0.00000000000E+00 0.  1.
         21   -1    0    0  501  503 -0.00000000000E+00 -0.00000000000E+00 -0.33863294530E+03  0.33863294530E+03  0.00000000000E+00 0. -1.
          6    1    1    2  501    0 -0.17557309116E+03  0.71616435648E+02 -0.18737331279E+03  0.31725003158E+03  0.17200000000E+03 0. -1.
         -6    1    1    2    0  502  0.17557309116E+03 -0.71616435648E+02  0.10348948219E+03  0.27613202841E+03  0.17200000000E+03 0.  1.
</event>
<event>
 4    1  0.4653733E+000  0.2109529E+03  0.7818608E-02  0.1140814E+00
         21   -1    0    0  503  502  0.00000000000E+00  0.00000000000E+00  0.56726133878E+02  0.56726133878E+02  0.00000000000E+00 0.  1.
         21   -1    0    0  501  503 -0.00000000000E+00 -0.00000000000E+00 -0.83061052000E+03  0.83061052000E+03  0.00000000000E+00 0. -1.
          6    1    1    2  501    0 -0.83572065935E+02  0.89066551704E+02 -0.49148692563E+03  0.53484627595E+03  0.17200000000E+03 0. -1.
         -6    1    1    2    0  502  0.83572065935E+02 -0.89066551704E+02 -0.28239746050E+03  0.35249037793E+03  0.17200000000E+03 0. -1.
</event>
<event>
 4    1  0.4653733E+000  0.2018354E+03  0.7818608E-02  0.1148200E+00
         21   -1    0    0  503  502  0.00000000000E+00  0.00000000000E+00  0.12212246681E+04  0.12212246681E+04  0.00000000000E+00 0. -1.
         21   -1    0    0  501  503 -0.00000000000E+00 -0.00000000000E+00 -0.39738994668E+02  0.39738994668E+02  0.00000000000E+00 0. -1.
          6    1    1    2  501    0 -0.65236303614E+02 -0.83052817555E+02  0.33809813988E+03  0.39376121953E+03  0.17200000000E+03 0. -1.
         -6    1    1    2    0  502  0.65236303614E+02  0.83052817555E+02  0.84338753357E+03  0.86720244326E+03  0.17200000000E+03 0. -1.
</event>
<event>
 4    1  0.4653733E+000  0.1952138E+03  0.7818608E-02  0.1153841E+00
         21   -1    0    0  501  502  0.00000000000E+00  0.00000000000E+00  0.28957761138E+03  0.28957761138E+03  0.00000000000E+00 0. -1.
         21   -1    0    0  502  503 -0.00000000000E+00 -0.00000000000E+00 -0.13704910144E+03  0.13704910144E+03  0.00000000000E+00 0. -1.
          6    1    1    2  501    0 -0.67311617586E+02 -0.63194707035E+02  0.11879870855E+03  0.22852036674E+03  0.17200000000E+03 0. -1.
         -6    1    1    2    0  503  0.67311617586E+02  0.63194707035E+02  0.33729801386E+02  0.19810634609E+03  0.17200000000E+03 0. -1.
</event>
<event>
 4    1  0.4653733E+000  0.2626784E+03  0.7818608E-02  0.1105545E+00
         21   -1    0    0  503  502  0.00000000000E+00  0.00000000000E+00  0.32182726999E+03  0.32182726999E+03  0.00000000000E+00 0.  1.
         21   -1    0    0  501  503 -0.00000000000E+00 -0.00000000000E+00 -0.30068076379E+03  0.30068076379E+03  0.00000000000E+00 0. -1.
          6    1    1    2  501    0 -0.12538540417E+03  0.15393002033E+03 -0.15615826087E+03  0.30559017192E+03  0.17200000000E+03 0. -1.
         -6    1    1    2    0  502  0.12538540417E+03 -0.15393002033E+03  0.17730476708E+03  0.31691786186E+03  0.17200000000E+03 0.  1.
</event>
<event>
 4    1  0.4653733E+000  0.1934354E+03  0.7818608E-02  0.1155399E+00
         21   -1    0    0  501  502  0.00000000000E+00  0.00000000000E+00  0.13994533131E+04  0.13994533131E+04  0.00000000000E+00 0. -1.
         21   -1    0    0  502  503 -0.00000000000E+00 -0.00000000000E+00 -0.18356438739E+03  0.18356438739E+03  0.00000000000E+00 0.  1.
          6    1    1    2  501    0 -0.34508712062E+02 -0.81500821878E+02  0.13395423845E+04  0.13534367495E+04  0.17200000000E+03 0. -1.
         -6    1    1    2    0  503  0.34508712062E+02  0.81500821878E+02 -0.12365345877E+03  0.22958095095E+03  0.17200000000E+03 0.  1.
</event>
<event>
 4    1  0.4653733E+000  0.1920518E+03  0.7818608E-02  0.1156624E+00
         21   -1    0    0  501  502  0.00000000000E+00  0.00000000000E+00  0.15953216678E+03  0.15953216678E+03  0.00000000000E+00 0. -1.
         21   -1    0    0  502  503 -0.00000000000E+00 -0.00000000000E+00 -0.25610009172E+03  0.25610009172E+03  0.00000000000E+00 0. -1.
          6    1    1    2  501    0  0.19547958279E+02 -0.83173028792E+02 -0.11308362693E+03  0.22287167175E+03  0.17200000000E+03 0. -1.
         -6    1    1    2    0  503 -0.19547958279E+02  0.83173028792E+02  0.16515701983E+02  0.19276058675E+03  0.17200000000E+03 0. -1.
</event>
<event>
 4    1  0.4653733E+000  0.2413219E+03  0.7818608E-02  0.1118915E+00
         21   -1    0    0  501  502  0.00000000000E+00  0.00000000000E+00  0.28306059623E+03  0.28306059623E+03  0.00000000000E+00 0.  1.
         21   -1    0    0  502  503 -0.00000000000E+00 -0.00000000000E+00 -0.20724423634E+03  0.20724423634E+03  0.00000000000E+00 0. -1.
          6    1    1    2  501    0 -0.79311993407E+02 -0.14953885970E+03  0.58809373699E+02  0.24838439020E+03  0.17200000000E+03 0. -1.
         -6    1    1    2    0  503  0.79311993407E+02  0.14953885970E+03  0.17006986188E+02  0.24192044237E+03  0.17200000000E+03 0.  1.
</event>
<event>
 4    1  0.4653733E+000  0.2086657E+03  0.7818608E-02  0.1142627E+00
         21   -1    0    0  503  502  0.00000000000E+00  0.00000000000E+00  0.28575034463E+03  0.28575034463E+03  0.00000000000E+00 0. -1.
         21   -1    0    0  501  503 -0.00000000000E+00 -0.00000000000E+00 -0.15345959246E+03  0.15345959246E+03  0.00000000000E+00 0. -1.
          6    1    1    2  501    0 -0.10042521134E+03 -0.62226463700E+02  0.47687771173E+02  0.21404550772E+03  0.17200000000E+03 0. -1.
         -6    1    1    2    0  502  0.10042521134E+03  0.62226463700E+02  0.84602981003E+02  0.22516442937E+03  0.17200000000E+03 0. -1.
</event>
<event>
 4    1  0.4653733E+000  0.2077566E+03  0.7818608E-02  0.1143355E+00
         21   -1    0    0  501  502  0.00000000000E+00  0.00000000000E+00  0.66110565317E+02  0.66110565317E+02  0.00000000000E+00 0. -1.
         21   -1    0    0  502  503 -0.00000000000E+00 -0.00000000000E+00 -0.69689303574E+03  0.69689303574E+03  0.00000000000E+00 0. -1.
          6    1    1    2  501    0 -0.85346831386E+02  0.79339365000E+02 -0.21952556801E+03  0.30224872452E+03  0.17200000000E+03 0. -1.
         -6    1    1    2    0  503  0.85346831386E+02 -0.79339365000E+02 -0.41125690242E+03  0.46075487654E+03  0.17200000000E+03 0. -1.
</event>
<event>
 4    1  0.4653733E+000  0.2164636E+03  0.7818608E-02  0.1136547E+00
         21   -1    0    0  501  502  0.00000000000E+00  0.00000000000E+00  0.12446545080E+04  0.12446545080E+04  0.00000000000E+00 0. -1.
         21   -1    0    0  502  503 -0.00000000000E+00 -0.00000000000E+00 -0.53809186250E+02  0.53809186250E+02  0.00000000000E+00 0. -1.
          6    1    1    2  501    0 -0.97870002408E+02 -0.87715196235E+02  0.95124451269E+03  0.97556271759E+03  0.17200000000E+03 0. -1.
         -6    1    1    2    0  503  0.97870002408E+02  0.87715196235E+02  0.23960080903E+03  0.32290097663E+03  0.17200000000E+03 0. -1.
</event>
<event>
 4    1  0.4653733E+000  0.1887560E+03  0.7818608E-02  0.1159588E+00
         21   -1    0    0  501  502  0.00000000000E+00  0.00000000000E+00  0.53682833273E+03  0.53682833273E+03  0.00000000000E+00 0. -1.
         21   -1    0    0  502  503 -0.00000000000E+00 -0.00000000000E+00 -0.69131177549E+02  0.69131177549E+02  0.00000000000E+00 0. -1.
          6    1    1    2  501    0 -0.75116269599E+02 -0.20058976895E+02  0.29440972519E+03  0.34972260836E+03  0.17200000000E+03 0. -1.
         -6    1    1    2    0  503  0.75116269599E+02  0.20058976895E+02  0.17328743000E+03  0.25623690192E+03  0.17200000000E+03 0. -1.
</event>
<event>
 4    1  0.4653733E+000  0.1987498E+03  0.7818608E-02  0.1150798E+00
         21   -1    0    0  501  502  0.00000000000E+00  0.00000000000E+00  0.40417327855E+02  0.40417327855E+02  0.00000000000E+00 0. -1.
         21   -1    0    0  502  503 -0.00000000000E+00 -0.00000000000E+00 -0.10787390376E+04  0.10787390376E+04  0.00000000000E+00 0.  1.
          6    1    1    2  501    0 -0.47982182302E+02 -0.87265127019E+02 -0.34759992976E+03  0.40040879534E+03  0.17200000000E+03 0. -1.
         -6    1    1    2    0  503  0.47982182302E+02  0.87265127019E+02 -0.69072178003E+03  0.71874757017E+03  0.17200000000E+03 0. -1.
</event>
<event>
 4    1  0.4653733E+000  0.2025547E+03  0.7818608E-02  0.1147601E+00
         21   -1    0    0  501  502  0.00000000000E+00  0.00000000000E+00  0.66263362346E+03  0.66263362346E+03  0.00000000000E+00 0. -1.
         21   -1    0    0  502  503 -0.00000000000E+00 -0.00000000000E+00 -0.62001355438E+02  0.62001355438E+02  0.00000000000E+00 0.  1.
          6    1    1    2  501    0  0.10695374282E+03 -0.23060939494E+01  0.31366424301E+03  0.37338141158E+03  0.17200000000E+03 0.  1.
         -6    1    1    2    0  503 -0.10695374282E+03  0.23060939494E+01  0.28696802501E+03  0.35125356732E+03  0.17200000000E+03 0.  1.
</event>
<event>
 4    1  0.4653733E+000  0.1891676E+03  0.7818608E-02  0.1159214E+00
         21   -1    0    0  503  502  0.00000000000E+00  0.00000000000E+00  0.55898698262E+02  0.55898698262E+02  0.00000000000E+00 0. -1.
         21   -1    0    0  501  503 -0.00000000000E+00 -0.00000000000E+00 -0.70218959136E+03  0.70218959136E+03  0.00000000000E+00 0.  1.
          6    1    1    2  501    0  0.39625584855E+02 -0.68045612663E+02 -0.43579887576E+03  0.47508425830E+03  0.17200000000E+03 0.  1.
         -6    1    1    2    0  502 -0.39625584855E+02  0.68045612663E+02 -0.21049201734E+03  0.28300403132E+03  0.17200000000E+03 0. -1.
</event>
<event>
 4    1  0.4653733E+000  0.1780509E+03  0.7818608E-02  0.1169703E+00
         21   -1    0    0  503  502  0.00000000000E+00  0.00000000000E+00  0.16033024698E+03  0.16033024698E+03  0.00000000000E+00 0. -1.
         21   -1    0    0  501  503 -0.00000000000E+00 -0.00000000000E+00 -0.22566130508E+03  0.22566130508E+03  0.00000000000E+00 0.  1.
          6    1    1    2  501    0 -0.43815885097E+02 -0.14082214585E+02 -0.10056445290E+03  0.20448801858E+03  0.17200000000E+03 0.  1.
         -6    1    1    2    0  502  0.43815885097E+02  0.14082214585E+02  0.35233394801E+02  0.18150353347E+03  0.17200000000E+03 0. -1.
</event>
<event>
 4    1  0.4653733E+000  0.2386824E+03  0.7818608E-02  0.1120674E+00
         21   -1    0    0  503  502  0.00000000000E+00  0.00000000000E+00  0.74824213038E+03  0.74824213038E+03  0.00000000000E+00 0.  1.
         21   -1    0    0  501  503 -0.00000000000E+00 -0.00000000000E+00 -0.15754859311E+03  0.15754859311E+03  0.00000000000E+00 0.  1.
          6    1    1    2  501    0  0.27975714989E+02 -0.16310316352E+03 -0.30214259000E+02  0.24058716513E+03  0.17200000000E+03 0.  1.
         -6    1    1    2    0  502 -0.27975714989E+02  0.16310316352E+03  0.62090779627E+03  0.66520355836E+03  0.17200000000E+03 0.  1.
</event>
<event>
 4    1  0.4653733E+000  0.1752094E+03  0.7818608E-02  0.1172522E+00
         21   -1    0    0  503  502  0.00000000000E+00  0.00000000000E+00  0.74139293071E+02  0.74139293071E+02  0.00000000000E+00 0.  1.
         21   -1    0    0  501  503 -0.00000000000E+00 -0.00000000000E+00 -0.43355653563E+03  0.43355653563E+03  0.00000000000E+00 0.  1.
          6    1    1    2  501    0  0.31579716708E+02 -0.10818434786E+02 -0.23353550093E+03  0.29195401561E+03  0.17200000000E+03 0.  1.
         -6    1    1    2    0  502 -0.31579716708E+02  0.10818434786E+02 -0.12588174163E+03  0.21574181309E+03  0.17200000000E+03 0.  1.
</event>
<event>
 4    1  0.4653733E+000  0.2151498E+03  0.7818608E-02  0.1137552E+00
         21   -1    0    0  501  502  0.00000000000E+00  0.00000000000E+00  0.62743634947E+03  0.62743634947E+03  0.00000000000E+00 0.  1.
         21   -1    0    0  502  503 -0.00000000000E+00 -0.00000000000E+00 -0.78303901658E+02  0.78303901658E+02  0.00000000000E+00 0.  1.
          6    1    1    2  501    0 -0.11388393603E+03  0.61121928506E+02  0.35942462583E+03  0.41889796214E+03  0.17200000000E+03 0.  1.
         -6    1    1    2    0  503  0.11388393603E+03 -0.61121928506E+02  0.18970782198E+03  0.28684228898E+03  0.17200000000E+03 0.  1.
</event>
<event>
 4    1  0.4653733E+000  0.1726990E+03  0.7818608E-02  0.1175062E+00
         21   -1    0    0  503  502  0.00000000000E+00  0.00000000000E+00  0.37728539121E+03  0.37728539121E+03  0.00000000000E+00 0.  1.
         21   -1    0    0  501  503 -0.00000000000E+00 -0.00000000000E+00 -0.14562388420E+03  0.14562388420E+03  0.00000000000E+00 0.  1.
          6    1    1    2  501    0  0.11676963131E+02 -0.10226993950E+02 -0.60946909064E+02  0.18313784043E+03  0.17200000000E+03 0.  1.
         -6    1    1    2    0  502 -0.11676963131E+02  0.10226993950E+02  0.29260841608E+03  0.33977143499E+03  0.17200000000E+03 0.  1.
</event>
<event>
 4    1  0.4653733E+000  0.2205494E+03  0.7818608E-02  0.1133474E+00
         21   -1    0    0  503  502  0.00000000000E+00  0.00000000000E+00  0.26249987011E+03  0.26249987011E+03  0.00000000000E+00 0. -1.
         21   -1    0    0  501  503 -0.00000000000E+00 -0.00000000000E+00 -0.46540207731E+03  0.46540207731E+03  0.00000000000E+00 0. -1.
          6    1    1    2  501    0  0.44633464777E+02  0.13063653816E+03 -0.38379893356E+03  0.44265525263E+03  0.17200000000E+03 0. -1.
         -6    1    1    2    0  502 -0.44633464777E+02 -0.13063653816E+03  0.18089672636E+03  0.28524669479E+03  0.17200000000E+03 0. -1.
</event>
<event>
 4    1  0.4653733E+000  0.2256680E+03  0.7818608E-02  0.1129727E+00
         21   -1    0    0  501  502  0.00000000000E+00  0.00000000000E+00  0.44295750986E+03  0.44295750986E+03  0.00000000000E+00 0. -1.
         21   -1    0    0  502  503 -0.00000000000E+00 -0.00000000000E+00 -0.25595559517E+03  0.25595559517E+03  0.00000000000E+00 0. -1.
          6    1    1    2  501    0 -0.14362244923E+03 -0.26732764420E+02  0.35285973136E+03  0.41885085487E+03  0.17200000000E+03 0. -1.
         -6    1    1    2    0  503  0.14362244923E+03  0.26732764420E+02 -0.16585781667E+03  0.28006225016E+03  0.17200000000E+03 0. -1.
</event>
<event>
 4    1  0.4653733E+000  0.1725842E+03  0.7818608E-02  0.1175179E+00
         21   -1    0    0  501  502  0.00000000000E+00  0.00000000000E+00  0.81402257500E+02  0.81402257500E+02  0.00000000000E+00 0. -1.
         21   -1    0    0  502  503 -0.00000000000E+00 -0.00000000000E+00 -0.36592407344E+03  0.36592407344E+03  0.00000000000E+00 0. -1.
          6    1    1    2  501    0  0.52096602409E+01 -0.13196546099E+02 -0.14397832384E+03  0.22475552746E+03  0.17200000000E+03 0.  1.
         -6    1    1    2    0  503 -0.52096602409E+01  0.13196546099E+02 -0.14054349209E+03  0.22257080347E+03  0.17200000000E+03 0.  1.
</event>
<event>
 4    1  0.4653733E+000  0.1893375E+03  0.7818608E-02  0.1159060E+00
         21   -1    0    0  503  502  0.00000000000E+00  0.00000000000E+00  0.11103537483E+04  0.11103537483E+04  0.00000000000E+00 0. -1.
         21   -1    0    0  501  503 -0.00000000000E+00 -0.00000000000E+00 -0.34834392444E+02  0.34834392444E+02  0.00000000000E+00 0.  1.
          6    1    1    2  501    0 -0.72720064040E+02 -0.31248938212E+02  0.38288176646E+03  0.42713832764E+03  0.17200000000E+03 0. -1.
         -6    1    1    2    0  502  0.72720064040E+02  0.31248938212E+02  0.69263758942E+03  0.71804981313E+03  0.17200000000E+03 0. -1.
</event>
<event>
 4    1  0.4653733E+000  0.2077306E+03  0.7818608E-02  0.1143376E+00
         21   -1    0    0  503  502  0.00000000000E+00  0.00000000000E+00  0.10348911195E+03  0.10348911195E+03  0.00000000000E+00 0. -1.
         21   -1    0    0  501  503 -0.00000000000E+00 -0.00000000000E+00 -0.54279006456E+03  0.54279006456E+03  0.00000000000E+00 0.  1.
          6    1    1    2  501    0 -0.71138472481E+02  0.92235143441E+02 -0.37522794119E+03  0.42889160845E+03  0.17200000000E+03 0. -1.
         -6    1    1    2    0  502  0.71138472481E+02 -0.92235143441E+02 -0.64073011415E+02  0.21738756805E+03  0.17200000000E+03 0.  1.
</event>
<event>
 4    1  0.4653733E+000  0.1993782E+03  0.7818608E-02  0.1150265E+00
         21   -1    0    0  501  502  0.00000000000E+00  0.00000000000E+00  0.30979342699E+03  0.30979342699E+03  0.00000000000E+00 0.  1.
         21   -1    0    0  502  503 -0.00000000000E+00 -0.00000000000E+00 -0.15721369479E+03  0.15721369479E+03  0.00000000000E+00 0.  1.
          6    1    1    2  501    0  0.41941922277E+02 -0.91698120101E+02  0.17639922134E+03  0.26621111052E+03  0.17200000000E+03 0.  1.
         -6    1    1    2    0  503 -0.41941922277E+02  0.91698120101E+02 -0.23819489139E+02  0.20079601126E+03  0.17200000000E+03 0.  1.
</event>
<event>
 4    1  0.4653733E+000  0.2000705E+03  0.7818608E-02  0.1149680E+00
         21   -1    0    0  501  502  0.00000000000E+00  0.00000000000E+00  0.36914832305E+03  0.36914832305E+03  0.00000000000E+00 0.  1.
         21   -1    0    0  502  503 -0.00000000000E+00 -0.00000000000E+00 -0.12697135957E+03  0.12697135957E+03  0.00000000000E+00 0. -1.
          6    1    1    2  501    0  0.69665999759E+02 -0.74772024476E+02  0.21587099378E+03  0.29432718720E+03  0.17200000000E+03 0.  1.
         -6    1    1    2    0  503 -0.69665999759E+02  0.74772024476E+02  0.26305969698E+02  0.20179249542E+03  0.17200000000E+03 0. -1.
</event>
<event>
 4    1  0.4653733E+000  0.1779466E+03  0.7818608E-02  0.1169805E+00
         21   -1    0    0  503  502  0.00000000000E+00  0.00000000000E+00  0.88304604626E+03  0.88304604626E+03  0.00000000000E+00 0.  1.
         21   -1    0    0  501  503 -0.00000000000E+00 -0.00000000000E+00 -0.36668540352E+02  0.36668540352E+02  0.00000000000E+00 0.  1.
          6    1    1    2  501    0  0.51091801498E+01 -0.45331015206E+02  0.35485439679E+03  0.39697184734E+03  0.17200000000E+03 0.  1.
         -6    1    1    2    0  502 -0.51091801498E+01  0.45331015206E+02  0.49152310912E+03  0.52274273927E+03  0.17200000000E+03 0.  1.
</event>
<event>
 4    1  0.4653733E+000  0.1761784E+03  0.7818608E-02  0.1171554E+00
         21   -1    0    0  503  502  0.00000000000E+00  0.00000000000E+00  0.28591007226E+03  0.28591007226E+03  0.00000000000E+00 0.  1.
         21   -1    0    0  501  503 -0.00000000000E+00 -0.00000000000E+00 -0.13246776325E+03  0.13246776325E+03  0.00000000000E+00 0.  1.
          6    1    1    2  501    0 -0.16836333764E+02  0.34225375563E+02 -0.12145541560E+02  0.17659658164E+03  0.17200000000E+03 0.  1.
         -6    1    1    2    0  502  0.16836333764E+02 -0.34225375563E+02  0.16558785057E+03  0.24178125387E+03  0.17200000000E+03 0.  1.
</event>
<event>
 4    1  0.4653733E+000  0.1830161E+03  0.7818608E-02  0.1164916E+00
         21   -1    0    0  501  502  0.00000000000E+00  0.00000000000E+00  0.53003118673E+03  0.53003118673E+03  0.00000000000E+00 0.  1.
         21   -1    0    0  502  503 -0.00000000000E+00 -0.00000000000E+00 -0.23772454906E+03  0.23772454906E+03  0.00000000000E+00 0.  1.
          6    1    1    2  501    0 -0.53631865871E+02  0.32163648509E+02  0.47507430394E+03  0.50910752459E+03  0.17200000000E+03 0.  1.
         -6    1    1    2    0  503  0.53631865871E+02 -0.32163648509E+02 -0.18276766628E+03  0.25864821120E+03  0.17200000000E+03 0.  1.
</event>
<event>
 4    1  0.4653733E+000  0.2233016E+03  0.7818608E-02  0.1131445E+00
         21   -1    0    0  503  502  0.00000000000E+00  0.00000000000E+00  0.14503126568E+03  0.14503126568E+03  0.00000000000E+00 0.  1.
         21   -1    0    0  501  503 -0.00000000000E+00 -0.00000000000E+00 -0.39037795712E+03  0.39037795712E+03  0.00000000000E+00 0.  1.
          6    1    1    2  501    0 -0.12570985089E+03 -0.66907824995E+02 -0.21513106213E+03  0.31007256820E+03  0.17200000000E+03 0.  1.
         -6    1    1    2    0  502  0.12570985089E+03  0.66907824995E+02 -0.30215629316E+02  0.22533665461E+03  0.17200000000E+03 0.  1.
</event>
<event>
 4    1  0.4653733E+000  0.2503848E+03  0.7818608E-02  0.1113062E+00
         21   -1    0    0  503  502  0.00000000000E+00  0.00000000000E+00  0.25132943824E+02  0.25132943824E+02  0.00000000000E+00 0. -1.
         21   -1    0    0  501  503 -0.00000000000E+00 -0.00000000000E+00 -0.27129522494E+04  0.27129522494E+04  0.00000000000E+00 0. -1.
          6    1    1    2  501    0 -0.15774398721E+03  0.90693850410E+02 -0.17324507468E+04  0.17504508362E+04  0.17200000000E+03 0. -1.
         -6    1    1    2    0  502  0.15774398721E+03 -0.90693850410E+02 -0.95536855885E+03  0.98763435706E+03  0.17200000000E+03 0. -1.
</event>
<event>
 4    1  0.4653733E+000  0.2098575E+03  0.7818608E-02  0.1141679E+00
         21   -1    0    0  503  502  0.00000000000E+00  0.00000000000E+00  0.13587652195E+03  0.13587652195E+03  0.00000000000E+00 0. -1.
         21   -1    0    0  501  503 -0.00000000000E+00 -0.00000000000E+00 -0.39461074174E+03  0.39461074174E+03  0.00000000000E+00 0. -1.
          6    1    1    2  501    0  0.10456031220E+03 -0.59357427683E+02 -0.24147330670E+03  0.31992111677E+03  0.17200000000E+03 0. -1.
         -6    1    1    2    0  502 -0.10456031220E+03  0.59357427683E+02 -0.17260913098E+02  0.21056614692E+03  0.17200000000E+03 0. -1.
</event>
<event>
 4    1  0.4653733E+000  0.3848047E+03  0.7818608E-02  0.1049172E+00
         21   -1    0    0  503  502  0.00000000000E+00  0.00000000000E+00  0.54174591174E+03  0.54174591174E+03  0.00000000000E+00 0.  1.
         21   -1    0    0  501  503 -0.00000000000E+00 -0.00000000000E+00 -0.34202414857E+03  0.34202414857E+03  0.00000000000E+00 0.  1.
          6    1    1    2  501    0 -0.32899555103E+03  0.10125510974E+03 -0.98175551502E+02  0.39713109770E+03  0.17200000000E+03 0.  1.
         -6    1    1    2    0  502  0.32899555103E+03 -0.10125510974E+03  0.29789731467E+03  0.48663896261E+03  0.17200000000E+03 0.  1.
</event>
<event>
 4    1  0.4653733E+000  0.1942042E+03  0.7818608E-02  0.1154723E+00
         21   -1    0    0  501  502  0.00000000000E+00  0.00000000000E+00  0.84439552866E+02  0.84439552866E+02  0.00000000000E+00 0.  1.
         21   -1    0    0  502  503 -0.00000000000E+00 -0.00000000000E+00 -0.22143399188E+04  0.22143399188E+04  0.00000000000E+00 0. -1.
          6    1    1    2  501    0  0.46305214608E+02 -0.77376452592E+02 -0.38003998289E+02  0.19788782732E+03  0.17200000000E+03 0.  1.
         -6    1    1    2    0  503 -0.46305214608E+02  0.77376452592E+02 -0.20918963677E+04  0.21008916444E+04  0.17200000000E+03 0. -1.
</event>
<event>
 4    1  0.4653733E+000  0.2806397E+03  0.7818608E-02  0.1095340E+00
         21   -1    0    0  501  502  0.00000000000E+00  0.00000000000E+00  0.28732977704E+04  0.28732977704E+04  0.00000000000E+00 0.  1.
         21   -1    0    0  502  503 -0.00000000000E+00 -0.00000000000E+00 -0.40536882480E+02  0.40536882480E+02  0.00000000000E+00 0.  1.
          6    1    1    2  501    0 -0.72478526232E+02 -0.20957453876E+03  0.58732855606E+03  0.65093275907E+03  0.17200000000E+03 0.  1.
         -6    1    1    2    0  503  0.72478526232E+02  0.20957453876E+03  0.22454323319E+04  0.22629018938E+04  0.17200000000E+03 0.  1.
</event>
<event>
 4    1  0.4653733E+000  0.2740638E+03  0.7818608E-02  0.1098976E+00
         21   -1    0    0  501  502  0.00000000000E+00  0.00000000000E+00  0.26232898672E+03  0.26232898672E+03  0.00000000000E+00 0.  1.
         21   -1    0    0  502  503 -0.00000000000E+00 -0.00000000000E+00 -0.28648315172E+03  0.28648315172E+03  0.00000000000E+00 0. -1.
          6    1    1    2  501    0  0.17534208310E+03 -0.12158171418E+03 -0.18554492957E+02  0.27469115118E+03  0.17200000000E+03 0.  1.
         -6    1    1    2    0  503 -0.17534208310E+03  0.12158171418E+03 -0.55996720387E+01  0.27412098726E+03  0.17200000000E+03 0.  1.
</event>
<event>
 4    1  0.4653733E+000  0.1801157E+03  0.7818608E-02  0.1167691E+00
         21   -1    0    0  503  502  0.00000000000E+00  0.00000000000E+00  0.12972492736E+03  0.12972492736E+03  0.00000000000E+00 0.  1.
         21   -1    0    0  501  503 -0.00000000000E+00 -0.00000000000E+00 -0.25363060756E+03  0.25363060756E+03  0.00000000000E+00 0.  1.
          6    1    1    2  501    0  0.53456906966E+02  0.12485268227E+00 -0.84630605109E+02  0.19900752702E+03  0.17200000000E+03 0.  1.
         -6    1    1    2    0  502 -0.53456906966E+02 -0.12485268227E+00 -0.39275075086E+02  0.18434800789E+03  0.17200000000E+03 0.  1.
</event>
<event>
 4    1  0.4653733E+000  0.2246854E+03  0.7818608E-02  0.1130437E+00
         21   -1    0    0  503  502  0.00000000000E+00  0.00000000000E+00  0.47214025170E+03  0.47214025170E+03  0.00000000000E+00 0.  1.
         21   -1    0    0  501  503 -0.00000000000E+00 -0.00000000000E+00 -0.12928511945E+03  0.12928511945E+03  0.00000000000E+00 0. -1.
          6    1    1    2  501    0  0.14434339367E+03 -0.80322273302E+01  0.46368303438E+02  0.22942003299E+03  0.17200000000E+03 0. -1.
         -6    1    1    2    0  502 -0.14434339367E+03  0.80322273302E+01  0.29648682881E+03  0.37200533817E+03  0.17200000000E+03 0.  1.
</event>
<event>
 4    1  0.4653733E+000  0.2141748E+03  0.7818608E-02  0.1138302E+00
         21   -1    0    0  503  502  0.00000000000E+00  0.00000000000E+00  0.14439216850E+04  0.14439216850E+04  0.00000000000E+00 0. -1.
         21   -1    0    0  501  503 -0.00000000000E+00 -0.00000000000E+00 -0.53174301929E+02  0.53174301929E+02  0.00000000000E+00 0.  1.
          6    1    1    2  501    0  0.12436100053E+03 -0.28656355339E+02  0.22043540707E+03  0.30734770838E+03  0.17200000000E+03 0.  1.
         -6    1    1    2    0  502 -0.12436100053E+03  0.28656355339E+02  0.11703119759E+04  0.11897482785E+04  0.17200000000E+03 0. -1.
</event>
<event>
 4    1  0.4653733E+000  0.1813491E+03  0.7818608E-02  0.1166504E+00
         21   -1    0    0  501  502  0.00000000000E+00  0.00000000000E+00  0.76144606668E+02  0.76144606668E+02  0.00000000000E+00 0. -1.
         21   -1    0    0  502  503 -0.00000000000E+00 -0.00000000000E+00 -0.57055905908E+03  0.57055905908E+03  0.00000000000E+00 0. -1.
          6    1    1    2  501    0  0.56206505037E+02  0.12013212448E+02 -0.87808028024E+02  0.20148880432E+03  0.17200000000E+03 0. -1.
         -6    1    1    2    0  503 -0.56206505037E+02 -0.12013212448E+02 -0.40660642439E+03  0.44521486143E+03  0.17200000000E+03 0. -1.
</event>
<event>
 4    1  0.4653733E+000  0.2016534E+03  0.7818608E-02  0.1148351E+00
         21   -1    0    0  503  502  0.00000000000E+00  0.00000000000E+00  0.30454631660E+03  0.30454631660E+03  0.00000000000E+00 0.  1.
         21   -1    0    0  501  503 -0.00000000000E+00 -0.00000000000E+00 -0.34797386848E+03  0.34797386848E+03  0.00000000000E+00 0.  1.
          6    1    1    2  501    0  0.19053899639E+02 -0.10352312674E+03 -0.27783999702E+03  0.34330620852E+03  0.17200000000E+03 0.  1.
         -6    1    1    2    0  502 -0.19053899639E+02  0.10352312674E+03  0.23441244514E+03  0.30921397656E+03  0.17200000000E+03 0.  1.
</event>
<event>
 4    1  0.4653733E+000  0.1997091E+03  0.7818608E-02  0.1149985E+00
         21   -1    0    0  501  502  0.00000000000E+00  0.00000000000E+00  0.24230564015E+02  0.24230564015E+02  0.00000000000E+00 0. -1.
         21   -1    0    0  502  503 -0.00000000000E+00 -0.00000000000E+00 -0.17614178059E+04  0.17614178059E+04  0.00000000000E+00 0.  1.
          6    1    1    2  501    0  0.10105093876E+03 -0.94029068561E+01 -0.64005702849E+03  0.67048990044E+03  0.17200000000E+03 0.  1.
         -6    1    1    2    0  503 -0.10105093876E+03  0.94029068561E+01 -0.10971302134E+04  0.11151584694E+04  0.17200000000E+03 0. -1.
</event>
<event>
 4    1  0.4653733E+000  0.2098078E+03  0.7818608E-02  0.1141718E+00
         21   -1    0    0  501  502  0.00000000000E+00  0.00000000000E+00  0.15497809108E+03  0.15497809108E+03  0.00000000000E+00 0.  1.
         21   -1    0    0  502  503 -0.00000000000E+00 -0.00000000000E+00 -0.63449449106E+03  0.63449449106E+03  0.00000000000E+00 0.  1.
          6    1    1    2  501    0  0.73899519803E+02  0.94732204863E+02  0.53608983444E+02  0.21654849981E+03  0.17200000000E+03 0.  1.
         -6    1    1    2    0  503 -0.73899519803E+02 -0.94732204863E+02 -0.53312538342E+03  0.57292408233E+03  0.17200000000E+03 0.  1.
</event>
<event>
 4    1  0.4653733E+000  0.1818945E+03  0.7818608E-02  0.1165982E+00
         21   -1    0    0  503  502  0.00000000000E+00  0.00000000000E+00  0.68277508880E+03  0.68277508880E+03  0.00000000000E+00 0. -1.
         21   -1    0    0  501  503 -0.00000000000E+00 -0.00000000000E+00 -0.71288053286E+02  0.71288053286E+02  0.00000000000E+00 0.  1.
          6    1    1    2  501    0 -0.19793640955E+02 -0.55765656099E+02  0.92376522486E+02  0.20400739822E+03  0.17200000000E+03 0.  1.
         -6    1    1    2    0  502  0.19793640955E+02  0.55765656099E+02  0.51911051303E+03  0.55005574387E+03  0.17200000000E+03 0. -1.
</event>
<event>
 4    1  0.4653733E+000  0.2458086E+03  0.7818608E-02  0.1115983E+00
         21   -1    0    0  501  502  0.00000000000E+00  0.00000000000E+00  0.28812867825E+03  0.28812867825E+03  0.00000000000E+00 0. -1.
         21   -1    0    0  502  503 -0.00000000000E+00 -0.00000000000E+00 -0.42787449692E+03  0.42787449692E+03  0.00000000000E+00 0. -1.
          6    1    1    2  501    0 -0.16003824393E+03 -0.72288408251E+02  0.18576447048E+03  0.30810759805E+03  0.17200000000E+03 0. -1.
         -6    1    1    2    0  503  0.16003824393E+03  0.72288408251E+02 -0.32551028916E+03  0.40789557712E+03  0.17200000000E+03 0. -1.
</event>
<event>
 4    1  0.4653733E+000  0.2279787E+03  0.7818608E-02  0.1128071E+00
         21   -1    0    0  503  502  0.00000000000E+00  0.00000000000E+00  0.45915163504E+03  0.45915163504E+03  0.00000000000E+00 0. -1.
         21   -1    0    0  501  503 -0.00000000000E+00 -0.00000000000E+00 -0.20295746964E+03  0.20295746964E+03  0.00000000000E+00 0.  1.
          6    1    1    2  501    0 -0.10423788028E+03 -0.10735348236E+03 -0.92064271104E+02  0.24586609338E+03  0.17200000000E+03 0.  1.
         -6    1    1    2    0  502  0.10423788028E+03  0.10735348236E+03  0.34825843650E+03  0.41624301130E+03  0.17200000000E+03 0. -1.
</event>
<event>
 4    1  0.4653733E+000  0.3226048E+03  0.7818608E-02  0.1074457E+00
         21   -1    0    0  503  502  0.00000000000E+00  0.00000000000E+00  0.42465923162E+03  0.42465923162E+03  0.00000000000E+00 0. -1.
         21   -1    0    0  501  503 -0.00000000000E+00 -0.00000000000E+00 -0.24547963937E+03  0.24547963937E+03  0.00000000000E+00 0. -1.
          6    1    1    2  501    0  0.27187584957E+03 -0.23945700650E+02  0.10317330373E+03  0.33870135040E+03  0.17200000000E+03 0. -1.
         -6    1    1    2    0  502 -0.27187584957E+03  0.23945700650E+02  0.76006288527E+02  0.33143752059E+03  0.17200000000E+03 0. -1.
</event>
<event>
 4    1  0.4653733E+000  0.2269231E+03  0.7818608E-02  0.1128824E+00
         21   -1    0    0  501  502  0.00000000000E+00  0.00000000000E+00  0.79393619659E+02  0.79393619659E+02  0.00000000000E+00 0. -1.
         21   -1    0    0  502  503 -0.00000000000E+00 -0.00000000000E+00 -0.21798740882E+04  0.21798740882E+04  0.00000000000E+00 0. -1.
          6    1    1    2  501    0  0.24007658879E+02  0.14606065552E+03 -0.10345916211E+03  0.24939503003E+03  0.17200000000E+03 0. -1.
         -6    1    1    2    0  503 -0.24007658879E+02 -0.14606065552E+03 -0.19970213064E+04  0.20098726778E+04  0.17200000000E+03 0. -1.
</event>
<event>
 4    1  0.4653733E+000  0.2071340E+03  0.7818608E-02  0.1143856E+00
         21   -1    0    0  503  502  0.00000000000E+00  0.00000000000E+00  0.12062168809E+04  0.12062168809E+04  0.00000000000E+00 0. -1.
         21   -1    0    0  501  503 -0.00000000000E+00 -0.00000000000E+00 -0.38939228846E+02  0.38939228846E+02  0.00000000000E+00 0.  1.
          6    1    1    2  501    0 -0.11522169735E+03 -0.66680954442E+01  0.40049211451E+03  0.45088627925E+03  0.17200000000E+03 0.  1.
         -6    1    1    2    0  502  0.11522169735E+03  0.66680954442E+01  0.76678553755E+03  0.79426983049E+03  0.17200000000E+03 0. -1.
</event>
<event>
 4    1  0.4653733E+000  0.1771726E+03  0.7818608E-02  0.1170568E+00
         21   -1    0    0  501  502  0.00000000000E+00  0.00000000000E+00  0.89793433889E+03  0.89793433889E+03  0.00000000000E+00 0. -1.
         21   -1    0    0  502  503 -0.00000000000E+00 -0.00000000000E+00 -0.41804747730E+02  0.41804747730E+02  0.00000000000E+00 0. -1.
          6    1    1    2  501    0 -0.19374480017E+02  0.37825591547E+02  0.61821688476E+03  0.64310361720E+03  0.17200000000E+03 0.  1.
         -6    1    1    2    0  503  0.19374480017E+02 -0.37825591547E+02  0.23791270639E+03  0.29663546942E+03  0.17200000000E+03 0.  1.
</event>
<event>
 4    1  0.4653733E+000  0.2246104E+03  0.7818608E-02  0.1130492E+00
         21   -1    0    0  503  502  0.00000000000E+00  0.00000000000E+00  0.12702651351E+03  0.12702651351E+03  0.00000000000E+00 0. -1.
         21   -1    0    0  501  503 -0.00000000000E+00 -0.00000000000E+00 -0.41439959529E+03  0.41439959529E+03  0.00000000000E+00 0.  1.
          6    1    1    2  501    0 -0.68092114939E+02 -0.12739423878E+03 -0.19890257924E+03  0.30002010636E+03  0.17200000000E+03 0.  1.
         -6    1    1    2    0  502  0.68092114939E+02  0.12739423878E+03 -0.88470502545E+02  0.24140600244E+03  0.17200000000E+03 0.  1.
</event>
<event>
 4    1  0.4653733E+000  0.1892953E+03  0.7818608E-02  0.1159098E+00
         21   -1    0    0  503  502  0.00000000000E+00  0.00000000000E+00  0.37314457267E+03  0.37314457267E+03  0.00000000000E+00 0.  1.
         21   -1    0    0  501  503 -0.00000000000E+00 -0.00000000000E+00 -0.10064582051E+03  0.10064582051E+03  0.00000000000E+00 0.  1.
          6    1    1    2  501    0  0.70260126469E+02 -0.36224854480E+02  0.85512153373E+02  0.20771387490E+03  0.17200000000E+03 0. -1.
         -6    1    1    2    0  502 -0.70260126469E+02  0.36224854480E+02  0.18698659879E+03  0.26607651828E+03  0.17200000000E+03 0. -1.
</event>
<event>
 4    1  0.4653733E+000  0.3340915E+03  0.7818608E-02  0.1069341E+00
         21   -1    0    0  501  502  0.00000000000E+00  0.00000000000E+00  0.18930768200E+04  0.18930768200E+04  0.00000000000E+00 0. -1.
         21   -1    0    0  502  503 -0.00000000000E+00 -0.00000000000E+00 -0.96185350432E+02  0.96185350432E+02  0.00000000000E+00 0. -1.
          6    1    1    2  501    0  0.22996861781E+02  0.28548958246E+03  0.15172065542E+04  0.15535549187E+04  0.17200000000E+03 0. -1.
         -6    1    1    2    0  503 -0.22996861781E+02 -0.28548958246E+03  0.27968491545E+03  0.43570725180E+03  0.17200000000E+03 0. -1.
</event>
<event>
 4    1  0.4653733E+000  0.1785672E+03  0.7818608E-02  0.1169197E+00
         21   -1    0    0  503  502  0.00000000000E+00  0.00000000000E+00  0.67088588610E+02  0.67088588610E+02  0.00000000000E+00 0.  1.
         21   -1    0    0  501  503 -0.00000000000E+00 -0.00000000000E+00 -0.11123031324E+04  0.11123031324E+04  0.00000000000E+00 0.  1.
          6    1    1    2  501    0  0.44235651646E+02 -0.18586816721E+02 -0.96887150143E+03  0.98518944823E+03  0.17200000000E+03 0.  1.
         -6    1    1    2    0  502 -0.44235651646E+02  0.18586816721E+02 -0.76343042353E+02  0.19420227277E+03  0.17200000000E+03 0.  1.
</event>
<event>
 4    1  0.4653733E+000  0.2186891E+03  0.7818608E-02  0.1134864E+00
         21   -1    0    0  501  502  0.00000000000E+00  0.00000000000E+00  0.24073522332E+03  0.24073522332E+03  0.00000000000E+00 0. -1.
         21   -1    0    0  502  503 -0.00000000000E+00 -0.00000000000E+00 -0.20496759235E+03  0.20496759235E+03  0.00000000000E+00 0. -1.
          6    1    1    2  501    0  0.93630743301E+02  0.97335528716E+02 -0.21203743047E+02  0.21971463301E+03  0.17200000000E+03 0. -1.
         -6    1    1    2    0  503 -0.93630743301E+02 -0.97335528716E+02  0.56971374024E+02  0.22598818266E+03  0.17200000000E+03 0. -1.
</event>
<event>
 4    1  0.4653733E+000  0.2479338E+03  0.7818608E-02  0.1114618E+00
         21   -1    0    0  503  502  0.00000000000E+00  0.00000000000E+00  0.63245480677E+03  0.63245480677E+03  0.00000000000E+00 0. -1.
         21   -1    0    0  501  503 -0.00000000000E+00 -0.00000000000E+00 -0.14666540534E+03  0.14666540534E+03  0.00000000000E+00 0.  1.
          6    1    1    2  501    0  0.17816926509E+03  0.11952363602E+02  0.16646340086E+02  0.24849194485E+03  0.17200000000E+03 0.  1.
         -6    1    1    2    0  502 -0.17816926509E+03 -0.11952363602E+02  0.46914306134E+03  0.53062826727E+03  0.17200000000E+03 0. -1.
</event>
<event>
 4    1  0.4653733E+000  0.1897163E+03  0.7818608E-02  0.1158717E+00
         21   -1    0    0  503  502  0.00000000000E+00  0.00000000000E+00  0.43805180308E+03  0.43805180308E+03  0.00000000000E+00 0.  1.
         21   -1    0    0  501  503 -0.00000000000E+00 -0.00000000000E+00 -0.86852161473E+02  0.86852161473E+02  0.00000000000E+00 0. -1.
          6    1    1    2  501    0  0.78720079763E+02  0.14540985251E+02  0.11462656700E+03  0.22165635807E+03  0.17200000000E+03 0. -1.
         -6    1    1    2    0  502 -0.78720079763E+02 -0.14540985251E+02  0.23657307460E+03  0.30324760648E+03  0.17200000000E+03 0. -1.
</event>
<event>
 4    1  0.4653733E+000  0.2909805E+03  0.7818608E-02  0.1089838E+00
         21   -1    0    0  503  502  0.00000000000E+00  0.00000000000E+00  0.10518332087E+03  0.10518332087E+03  0.00000000000E+00 0. -1.
         21   -1    0    0  501  503 -0.00000000000E+00 -0.00000000000E+00 -0.91460740043E+03  0.91460740043E+03  0.00000000000E+00 0. -1.
          6    1    1    2  501    0  0.20545161415E+03 -0.11346921854E+03 -0.58125039946E+03  0.65001665839E+03  0.17200000000E+03 0. -1.
         -6    1    1    2    0  502 -0.20545161415E+03  0.11346921854E+03 -0.22817368010E+03  0.36977406291E+03  0.17200000000E+03 0. -1.
</event>
<event>
 4    1  0.4653733E+000  0.1813867E+03  0.7818608E-02  0.1166468E+00
         21   -1    0    0  501  502  0.00000000000E+00  0.00000000000E+00  0.12482195646E+03  0.12482195646E+03  0.00000000000E+00 0.  1.
         21   -1    0    0  502  503 -0.00000000000E+00 -0.00000000000E+00 -0.27812773840E+03  0.27812773840E+03  0.00000000000E+00 0.  1.
          6    1    1    2  501    0 -0.52627364406E+02 -0.23398994890E+02 -0.30581967585E+02  0.18394675639E+03  0.17200000000E+03 0. -1.
         -6    1    1    2    0  503  0.52627364406E+02  0.23398994890E+02 -0.12272381436E+03  0.21900293846E+03  0.17200000000E+03 0. -1.
</event>
<event>
 4    1  0.4653733E+000  0.2637448E+03  0.7818608E-02  0.1104914E+00
         21   -1    0    0  503  502  0.00000000000E+00  0.00000000000E+00  0.87892298225E+02  0.87892298225E+02  0.00000000000E+00 0. -1.
         21   -1    0    0  501  503 -0.00000000000E+00 -0.00000000000E+00 -0.79149491927E+03  0.79149491927E+03  0.00000000000E+00 0.  1.
          6    1    1    2  501    0 -0.19646845513E+03 -0.37114009329E+02 -0.34807218785E+03  0.43670991689E+03  0.17200000000E+03 0.  1.
         -6    1    1    2    0  502  0.19646845513E+03  0.37114009329E+02 -0.35553043319E+03  0.44267730061E+03  0.17200000000E+03 0. -1.
</event>
<event>
 4    1  0.4653733E+000  0.2596593E+03  0.7818608E-02  0.1107348E+00
         21   -1    0    0  503  502  0.00000000000E+00  0.00000000000E+00  0.41560188838E+03  0.41560188838E+03  0.00000000000E+00 0. -1.
         21   -1    0    0  501  503 -0.00000000000E+00 -0.00000000000E+00 -0.33668340542E+03  0.33668340542E+03  0.00000000000E+00 0.  1.
          6    1    1    2  501    0  0.15865110560E+03  0.11255565977E+03 -0.23129912124E+03  0.34773874294E+03  0.17200000000E+03 0.  1.
         -6    1    1    2    0  502 -0.15865110560E+03 -0.11255565977E+03  0.31021760421E+03  0.40454655086E+03  0.17200000000E+03 0. -1.
</event>
<event>
 4    1  0.4653733E+000  0.2340179E+03  0.7818608E-02  0.1123843E+00
         21   -1    0    0  503  502  0.00000000000E+00  0.00000000000E+00  0.16248340294E+03  0.16248340294E+03  0.00000000000E+00 0.  1.
         21   -1    0    0  501  503 -0.00000000000E+00 -0.00000000000E+00 -0.37684335886E+03  0.37684335886E+03  0.00000000000E+00 0.  1.
          6    1    1    2  501    0  0.15810888364E+03  0.13489055394E+02 -0.19481322703E+03  0.30449395253E+03  0.17200000000E+03 0.  1.
         -6    1    1    2    0  502 -0.15810888364E+03 -0.13489055394E+02 -0.19546728896E+02  0.23483280928E+03  0.17200000000E+03 0.  1.
</event>
<event>
 4    1  0.4653733E+000  0.2180024E+03  0.7818608E-02  0.1135381E+00
         21   -1    0    0  503  502  0.00000000000E+00  0.00000000000E+00  0.10480976223E+04  0.10480976223E+04  0.00000000000E+00 0.  1.
         21   -1    0    0  501  503 -0.00000000000E+00 -0.00000000000E+00 -0.45641613844E+02  0.45641613844E+02  0.00000000000E+00 0.  1.
          6    1    1    2  501    0 -0.13392453280E+03  0.22919689701E+01  0.45707464949E+03  0.50640129228E+03  0.17200000000E+03 0.  1.
         -6    1    1    2    0  502  0.13392453280E+03 -0.22919689701E+01  0.54538135898E+03  0.58733794389E+03  0.17200000000E+03 0.  1.
</event>
<event>
 4    1  0.4653733E+000  0.1807518E+03  0.7818608E-02  0.1167077E+00
         21   -1    0    0  501  502  0.00000000000E+00  0.00000000000E+00  0.21916629458E+03  0.21916629458E+03  0.00000000000E+00 0.  1.
         21   -1    0    0  502  503 -0.00000000000E+00 -0.00000000000E+00 -0.15362037833E+03  0.15362037833E+03  0.00000000000E+00 0.  1.
          6    1    1    2  501    0  0.45243559948E+02 -0.32252416705E+02  0.64851351767E+02  0.19203358020E+03  0.17200000000E+03 0.  1.
         -6    1    1    2    0  503 -0.45243559948E+02  0.32252416705E+02  0.69456448167E+00  0.18075309270E+03  0.17200000000E+03 0.  1.
</event>
<event>
 4    1  0.4653733E+000  0.1911320E+03  0.7818608E-02  0.1157444E+00
         21   -1    0    0  503  502  0.00000000000E+00  0.00000000000E+00  0.32728197306E+03  0.32728197306E+03  0.00000000000E+00 0. -1.
         21   -1    0    0  501  503 -0.00000000000E+00 -0.00000000000E+00 -0.16198515862E+03  0.16198515862E+03  0.00000000000E+00 0. -1.
          6    1    1    2  501    0 -0.15328092700E+02 -0.81929706647E+02 -0.53759870150E+02  0.19854861091E+03  0.17200000000E+03 0. -1.
         -6    1    1    2    0  502  0.15328092700E+02  0.81929706647E+02  0.21905668459E+03  0.29071852077E+03  0.17200000000E+03 0. -1.
</event>
<event>
 4    1  0.4653733E+000  0.2283202E+03  0.7818608E-02  0.1127828E+00
         21   -1    0    0  501  502  0.00000000000E+00  0.00000000000E+00  0.52024305113E+03  0.52024305113E+03  0.00000000000E+00 0. -1.
         21   -1    0    0  502  503 -0.00000000000E+00 -0.00000000000E+00 -0.12484791129E+03  0.12484791129E+03  0.00000000000E+00 0. -1.
          6    1    1    2  501    0 -0.45220844701E+02  0.14318242088E+03  0.34100222327E+03  0.41038109937E+03  0.17200000000E+03 0. -1.
         -6    1    1    2    0  503  0.45220844701E+02 -0.14318242088E+03  0.54392916565E+02  0.23470986306E+03  0.17200000000E+03 0. -1.
</event>
<event>
 4    1  0.4653733E+000  0.3576666E+03  0.7818608E-02  0.1059512E+00
         21   -1    0    0  501  502  0.00000000000E+00  0.00000000000E+00  0.17827804683E+03  0.17827804683E+03  0.00000000000E+00 0.  1.
         21   -1    0    0  502  503 -0.00000000000E+00 -0.00000000000E+00 -0.74468232909E+03  0.74468232909E+03  0.00000000000E+00 0.  1.
          6    1    1    2  501    0  0.20630724633E+03 -0.23617521257E+03 -0.19513349034E+03  0.40743403144E+03  0.17200000000E+03 0.  1.
         -6    1    1    2    0  503 -0.20630724633E+03  0.23617521257E+03 -0.37127079191E+03  0.51552634448E+03  0.17200000000E+03 0.  1.
</event>
<event>
 4    1  0.4653733E+000  0.2809789E+03  0.7818608E-02  0.1095155E+00
         21   -1    0    0  501  502  0.00000000000E+00  0.00000000000E+00  0.14735088747E+04  0.14735088747E+04  0.00000000000E+00 0.  1.
         21   -1    0    0  502  503 -0.00000000000E+00 -0.00000000000E+00 -0.54047127339E+02  0.54047127339E+02  0.00000000000E+00 0.  1.
          6    1    1    2  501    0 -0.41453173670E+02  0.21828146931E+03  0.78081167408E+03  0.82982891961E+03  0.17200000000E+03 0.  1.
         -6    1    1    2    0  503  0.41453173670E+02 -0.21828146931E+03  0.63865007332E+03  0.69772708247E+03  0.17200000000E+03 0.  1.
</event>
<event>
 4    1  0.4653733E+000  0.1857425E+03  0.7818608E-02  0.1162358E+00
         21   -1    0    0  501  502  0.00000000000E+00  0.00000000000E+00  0.19121669491E+03  0.19121669491E+03  0.00000000000E+00 0.  1.
         21   -1    0    0  502  503 -0.00000000000E+00 -0.00000000000E+00 -0.90054984747E+03  0.90054984747E+03  0.00000000000E+00 0. -1.
          6    1    1    2  501    0 -0.68496611953E+02  0.14983128537E+02  0.13347948864E+03  0.22872921518E+03  0.17200000000E+03 0.  1.
         -6    1    1    2    0  503  0.68496611953E+02 -0.14983128537E+02 -0.84281264119E+03  0.86303732720E+03  0.17200000000E+03 0. -1.
</event>
<event>
 4    1  0.4653733E+000  0.1826742E+03  0.7818608E-02  0.1165240E+00
         21   -1    0    0  503  502  0.00000000000E+00  0.00000000000E+00  0.42534672312E+03  0.42534672312E+03  0.00000000000E+00 0.  1.
         21   -1    0    0  501  503 -0.00000000000E+00 -0.00000000000E+00 -0.87268041493E+02  0.87268041493E+02  0.00000000000E+00 0.  1.
          6    1    1    2  501    0 -0.53907845287E+02 -0.29661382508E+02  0.87580480454E+02  0.20258379489E+03  0.17200000000E+03 0.  1.
         -6    1    1    2    0  502  0.53907845287E+02  0.29661382508E+02  0.25049820117E+03  0.31003096972E+03  0.17200000000E+03 0.  1.
</event>
<event>
 4    1  0.4653733E+000  0.1970171E+03  0.7818608E-02  0.1152280E+00
         21   -1    0    0  501  502  0.00000000000E+00  0.00000000000E+00  0.41324612250E+02  0.41324612250E+02  0.00000000000E+00 0. -1.
         21   -1    0    0  502  503 -0.00000000000E+00 -0.00000000000E+00 -0.97184959664E+03  0.97184959664E+03  0.00000000000E+00 0.  1.
          6    1    1    2  501    0 -0.53584426061E+02  0.79752451716E+02 -0.37253632639E+03  0.42142503337E+03  0.17200000000E+03 0. -1.
         -6    1    1    2    0  503  0.53584426061E+02 -0.79752451716E+02 -0.55798865801E+03  0.59174917552E+03  0.17200000000E+03 0.  1.
</event>
<event>
 4    1  0.4653733E+000  0.1739633E+03  0.7818608E-02  0.1173777E+00
         21   -1    0    0  503  502  0.00000000000E+00  0.00000000000E+00  0.15917416560E+03  0.15917416560E+03  0.00000000000E+00 0. -1.
         21   -1    0    0  501  503 -0.00000000000E+00 -0.00000000000E+00 -0.19636589757E+03  0.19636589757E+03  0.00000000000E+00 0. -1.
          6    1    1    2  501    0 -0.21743764076E+02 -0.14367910908E+02 -0.50283994843E+02  0.18108480963E+03  0.17200000000E+03 0.  1.
         -6    1    1    2    0  502  0.21743764076E+02  0.14367910908E+02  0.13092262877E+02  0.17445525354E+03  0.17200000000E+03 0.  1.
</event>
<event>
 4    1  0.4653733E+000  0.1782593E+03  0.7818608E-02  0.1169498E+00
         21   -1    0    0  503  502  0.00000000000E+00  0.00000000000E+00  0.21327439589E+02  0.21327439589E+02  0.00000000000E+00 0.  1.
         21   -1    0    0  501  503 -0.00000000000E+00 -0.00000000000E+00 -0.18244408188E+04  0.18244408188E+04  0.00000000000E+00 0.  1.
          6    1    1    2  501    0 -0.14793248537E+02  0.44424539902E+02 -0.12967301231E+04  0.13089252814E+04  0.17200000000E+03 0. -1.
         -6    1    1    2    0  502  0.14793248537E+02 -0.44424539902E+02 -0.50638325610E+03  0.53684297705E+03  0.17200000000E+03 0. -1.
</event>
<event>
 4    1  0.4653733E+000  0.1855727E+03  0.7818608E-02  0.1162516E+00
         21   -1    0    0  503  502  0.00000000000E+00  0.00000000000E+00  0.79882671351E+02  0.79882671351E+02  0.00000000000E+00 0.  1.
         21   -1    0    0  501  503 -0.00000000000E+00 -0.00000000000E+00 -0.53568204584E+03  0.53568204584E+03  0.00000000000E+00 0.  1.
          6    1    1    2  501    0 -0.68269321270E+02 -0.13875649895E+02 -0.91904489674E+02  0.20708372488E+03  0.17200000000E+03 0.  1.
         -6    1    1    2    0  502  0.68269321270E+02  0.13875649895E+02 -0.36389488482E+03  0.40848099231E+03  0.17200000000E+03 0.  1.
</event>
<event>
 4    1  0.4653733E+000  0.2109912E+03  0.7818608E-02  0.1140783E+00
         21   -1    0    0  503  502  0.00000000000E+00  0.00000000000E+00  0.20269095387E+04  0.20269095387E+04  0.00000000000E+00 0.  1.
         21   -1    0    0  501  503 -0.00000000000E+00 -0.00000000000E+00 -0.28629892213E+02  0.28629892213E+02  0.00000000000E+00 0. -1.
          6    1    1    2  501    0  0.11765226189E+03 -0.33033502876E+02  0.50318329202E+03  0.54562871296E+03  0.17200000000E+03 0. -1.
         -6    1    1    2    0  502 -0.11765226189E+03  0.33033502876E+02  0.14950963545E+04  0.15099107180E+04  0.17200000000E+03 0.  1.
</event>
<event>
 4    1  0.4653733E+000  0.4821365E+03  0.7818608E-02  0.1018550E+00
         21   -1    0    0  503  502  0.00000000000E+00  0.00000000000E+00  0.26528778423E+03  0.26528778423E+03  0.00000000000E+00 0.  1.
         21   -1    0    0  501  503 -0.00000000000E+00 -0.00000000000E+00 -0.10911873536E+04  0.10911873536E+04  0.00000000000E+00 0. -1.
          6    1    1    2  501    0 -0.39100397402E+03 -0.22357881950E+03 -0.11192733473E+03  0.49495790173E+03  0.17200000000E+03 0.  1.
         -6    1    1    2    0  502  0.39100397402E+03  0.22357881950E+03 -0.71397223461E+03  0.86151723605E+03  0.17200000000E+03 0. -1.
</event>
<event>
 4    1  0.4653733E+000  0.2201734E+03  0.7818608E-02  0.1133754E+00
         21   -1    0    0  501  502  0.00000000000E+00  0.00000000000E+00  0.10094057212E+04  0.10094057212E+04  0.00000000000E+00 0. -1.
         21   -1    0    0  502  503 -0.00000000000E+00 -0.00000000000E+00 -0.48689416997E+02  0.48689416997E+02  0.00000000000E+00 0. -1.
          6    1    1    2  501    0  0.60997184305E+02 -0.12317338027E+03  0.41853970307E+03  0.47291840855E+03  0.17200000000E+03 0. -1.
         -6    1    1    2    0  503 -0.60997184305E+02  0.12317338027E+03  0.54217660110E+03  0.58517672961E+03  0.17200000000E+03 0. -1.
</event>
<event>
 4    1  0.4653733E+000  0.1807686E+03  0.7818608E-02  0.1167061E+00
         21   -1    0    0  501  502  0.00000000000E+00  0.00000000000E+00  0.37735835102E+03  0.37735835102E+03  0.00000000000E+00 0.  1.
         21   -1    0    0  502  503 -0.00000000000E+00 -0.00000000000E+00 -0.15321126888E+03  0.15321126888E+03  0.00000000000E+00 0.  1.
          6    1    1    2  501    0 -0.54986835669E+02 -0.83512581419E+01  0.28700085186E+03  0.33918547224E+03  0.17200000000E+03 0.  1.
         -6    1    1    2    0  503  0.54986835669E+02  0.83512581419E+01 -0.62853769723E+02  0.19138414767E+03  0.17200000000E+03 0.  1.
</event>
<event>
 4    1  0.4653733E+000  0.2361317E+03  0.7818608E-02  0.1122397E+00
         21   -1    0    0  503  502  0.00000000000E+00  0.00000000000E+00  0.58041541523E+03  0.58041541523E+03  0.00000000000E+00 0. -1.
         21   -1    0    0  501  503 -0.00000000000E+00 -0.00000000000E+00 -0.96697919681E+02  0.96697919681E+02  0.00000000000E+00 0.  1.
          6    1    1    2  501    0 -0.65985883089E+02 -0.14771606655E+03  0.21448954475E+03  0.31900460481E+03  0.17200000000E+03 0. -1.
         -6    1    1    2    0  502  0.65985883089E+02  0.14771606655E+03  0.26922795080E+03  0.35810873010E+03  0.17200000000E+03 0.  1.
</event>
<event>
 4    1  0.4653733E+000  0.2034153E+03  0.7818608E-02  0.1146889E+00
         21   -1    0    0  503  502  0.00000000000E+00  0.00000000000E+00  0.10279548781E+03  0.10279548781E+03  0.00000000000E+00 0.  1.
         21   -1    0    0  501  503 -0.00000000000E+00 -0.00000000000E+00 -0.52089061719E+03  0.52089061719E+03  0.00000000000E+00 0.  1.
          6    1    1    2  501    0  0.10780020526E+03  0.13149309584E+02 -0.60394123581E+02  0.21219151434E+03  0.17200000000E+03 0. -1.
         -6    1    1    2    0  502 -0.10780020526E+03 -0.13149309584E+02 -0.35770100580E+03  0.41149459066E+03  0.17200000000E+03 0. -1.
</event>
<event>
 4    1  0.4653733E+000  0.1972274E+03  0.7818608E-02  0.1152100E+00
         21   -1    0    0  503  502  0.00000000000E+00  0.00000000000E+00  0.25049867558E+03  0.25049867558E+03  0.00000000000E+00 0. -1.
         21   -1    0    0  501  503 -0.00000000000E+00 -0.00000000000E+00 -0.16941969282E+03  0.16941969282E+03  0.00000000000E+00 0. -1.
          6    1    1    2  501    0 -0.81021236430E+02  0.52442456427E+02 -0.20105963267E+02  0.19824959457E+03  0.17200000000E+03 0. -1.
         -6    1    1    2    0  502  0.81021236430E+02 -0.52442456427E+02  0.10118494602E+03  0.22166877383E+03  0.17200000000E+03 0. -1.
</event>
<event>
 4    1  0.4653733E+000  0.2692172E+03  0.7818608E-02  0.1101728E+00
         21   -1    0    0  501  502  0.00000000000E+00  0.00000000000E+00  0.67027385865E+03  0.67027385865E+03  0.00000000000E+00 0. -1.
         21   -1    0    0  502  503 -0.00000000000E+00 -0.00000000000E+00 -0.12734215091E+03  0.12734215091E+03  0.00000000000E+00 0.  1.
          6    1    1    2  501    0  0.18246050806E+03  0.97990213069E+02  0.42636371634E+03  0.50424590972E+03  0.17200000000E+03 0.  1.
         -6    1    1    2    0  503 -0.18246050806E+03 -0.97990213069E+02  0.11656799141E+03  0.29337009984E+03  0.17200000000E+03 0. -1.
</event>
<event>
 4    1  0.4653733E+000  0.1931615E+03  0.7818608E-02  0.1155640E+00
         21   -1    0    0  501  502  0.00000000000E+00  0.00000000000E+00  0.69223459405E+02  0.69223459405E+02  0.00000000000E+00 0. -1.
         21   -1    0    0  502  503 -0.00000000000E+00 -0.00000000000E+00 -0.90148638792E+03  0.90148638792E+03  0.00000000000E+00 0.  1.
          6    1    1    2  501    0 -0.77108061582E+02 -0.42210275248E+02 -0.10836135960E+03  0.22148034845E+03  0.17200000000E+03 0. -1.
         -6    1    1    2    0  503  0.77108061582E+02  0.42210275248E+02 -0.72390156892E+03  0.74922949888E+03  0.17200000000E+03 0.  1.
</event>
<event>
 4    1  0.4653733E+000  0.1945939E+03  0.7818608E-02  0.1154382E+00
         21   -1    0    0  501  502  0.00000000000E+00  0.00000000000E+00  0.15117894879E+04  0.15117894879E+04  0.00000000000E+00 0. -1.
         21   -1    0    0  502  503 -0.00000000000E+00 -0.00000000000E+00 -0.25055671844E+02  0.25055671844E+02  0.00000000000E+00 0.  1.
          6    1    1    2  501    0  0.27592529962E+02  0.86726148789E+02  0.75711710103E+03  0.78172442540E+03  0.17200000000E+03 0. -1.
         -6    1    1    2    0  503 -0.27592529962E+02 -0.86726148789E+02  0.72961671506E+03  0.75512073438E+03  0.17200000000E+03 0.  1.
</event>
<event>
 4    1  0.4653733E+000  0.2831716E+03  0.7818608E-02  0.1093969E+00
         21   -1    0    0  503  502  0.00000000000E+00  0.00000000000E+00  0.33443750830E+03  0.33443750830E+03  0.00000000000E+00 0.  1.
         21   -1    0    0  501  503 -0.00000000000E+00 -0.00000000000E+00 -0.64566149898E+03  0.64566149898E+03  0.00000000000E+00 0.  1.
          6    1    1    2  501    0 -0.12639785641E+03 -0.18607997521E+03 -0.54416076264E+03  0.61343060803E+03  0.17200000000E+03 0.  1.
         -6    1    1    2    0  502  0.12639785641E+03  0.18607997521E+03  0.23293677196E+03  0.36666839925E+03  0.17200000000E+03 0.  1.
</event>
<event>
 4    1  0.4653733E+000  0.1975526E+03  0.7818608E-02  0.1151820E+00
         21   -1    0    0  501  502  0.00000000000E+00  0.00000000000E+00  0.88013799212E+02  0.88013799212E+02  0.00000000000E+00 0.  1.
         21   -1    0    0  502  503 -0.00000000000E+00 -0.00000000000E+00 -0.54166303968E+03  0.54166303968E+03  0.00000000000E+00 0. -1.
          6    1    1    2  501    0 -0.19659414176E+02 -0.95165826116E+02 -0.92741126001E+02  0.21823827226E+03  0.17200000000E+03 0.  1.
         -6    1    1    2    0  503  0.19659414176E+02  0.95165826116E+02 -0.36090811446E+03  0.41143856663E+03  0.17200000000E+03 0. -1.
</event>
<event>
 4    1  0.4653733E+000  0.2010000E+03  0.7818608E-02  0.1148898E+00
         21   -1    0    0  501  502  0.00000000000E+00  0.00000000000E+00  0.11553532960E+04  0.11553532960E+04  0.00000000000E+00 0. -1.
         21   -1    0    0  502  503 -0.00000000000E+00 -0.00000000000E+00 -0.37190056026E+02  0.37190056026E+02  0.00000000000E+00 0. -1.
          6    1    1    2  501    0  0.95747938105E+01  0.10356322856E+03  0.41334946028E+03  0.45962897570E+03  0.17200000000E+03 0. -1.
         -6    1    1    2    0  503 -0.95747938105E+01 -0.10356322856E+03  0.70481377971E+03  0.73291437634E+03  0.17200000000E+03 0. -1.
</event>
<event>
 4    1  0.4653733E+000  0.2718394E+03  0.7818608E-02  0.1100231E+00
         21   -1    0    0  503  502  0.00000000000E+00  0.00000000000E+00  0.19843803430E+03  0.19843803430E+03  0.00000000000E+00 0.  1.
         21   -1    0    0  501  503 -0.00000000000E+00 -0.00000000000E+00 -0.40276855491E+03  0.40276855491E+03  0.00000000000E+00 0. -1.
          6    1    1    2  501    0 -0.10206375756E+02  0.21025810838E+03 -0.18471935342E+03  0.32866073963E+03  0.17200000000E+03 0.  1.
         -6    1    1    2    0  502  0.10206375756E+02 -0.21025810838E+03 -0.19611167190E+02  0.27254584958E+03  0.17200000000E+03 0.  1.
</event>
<event>
 4    1  0.4653733E+000  0.2571983E+03  0.7818608E-02  0.1108838E+00
         21   -1    0    0  503  502  0.00000000000E+00  0.00000000000E+00  0.10094288836E+03  0.10094288836E+03  0.00000000000E+00 0.  1.
         21   -1    0    0  501  503 -0.00000000000E+00 -0.00000000000E+00 -0.67477530050E+03  0.67477530050E+03  0.00000000000E+00 0.  1.
          6    1    1    2  501    0  0.15008873280E+03  0.11849190736E+03 -0.35275705731E+03  0.43656442973E+03  0.17200000000E+03 0.  1.
         -6    1    1    2    0  502 -0.15008873280E+03 -0.11849190736E+03 -0.22107535483E+03  0.33915375914E+03  0.17200000000E+03 0.  1.
</event>
<event>
 4    1  0.4653733E+000  0.1883748E+03  0.7818608E-02  0.1159935E+00
         21   -1    0    0  501  502  0.00000000000E+00  0.00000000000E+00  0.12260694932E+03  0.12260694932E+03  0.00000000000E+00 0.  1.
         21   -1    0    0  502  503 -0.00000000000E+00 -0.00000000000E+00 -0.46753733194E+03  0.46753733194E+03  0.00000000000E+00 0.  1.
          6    1    1    2  501    0 -0.39853746052E+02  0.65671454858E+02  0.96606545775E+01  0.18862234572E+03  0.17200000000E+03 0.  1.
         -6    1    1    2    0  503  0.39853746052E+02 -0.65671454858E+02 -0.35459103719E+03  0.40152193554E+03  0.17200000000E+03 0.  1.
</event>
<event>
 4    1  0.4653733E+000  0.3260745E+03  0.7818608E-02  0.1072887E+00
         21   -1    0    0  503  502  0.00000000000E+00  0.00000000000E+00  0.44012510218E+03  0.44012510218E+03  0.00000000000E+00 0. -1.
         21   -1    0    0  501  503 -0.00000000000E+00 -0.00000000000E+00 -0.24332846763E+03  0.24332846763E+03  0.00000000000E+00 0.  1.
          6    1    1    2  501    0  0.27291157495E+03  0.47537670418E+02  0.12738210343E+03  0.35007250409E+03  0.17200000000E+03 0. -1.
         -6    1    1    2    0  502 -0.27291157495E+03 -0.47537670418E+02  0.69414531118E+02  0.33338106572E+03  0.17200000000E+03 0.  1.
</event>
<event>
 4    1  0.4653733E+000  0.3144801E+03  0.7818608E-02  0.1078218E+00
         21   -1    0    0  503  502  0.00000000000E+00  0.00000000000E+00  0.89776846488E+02  0.89776846488E+02  0.00000000000E+00 0.  1.
         21   -1    0    0  501  503 -0.00000000000E+00 -0.00000000000E+00 -0.11879999356E+04  0.11879999356E+04  0.00000000000E+00 0.  1.
          6    1    1    2  501    0 -0.26275289722E+03 -0.16573143797E+02 -0.72141153563E+03  0.78697672001E+03  0.17200000000E+03 0.  1.
         -6    1    1    2    0  502  0.26275289722E+03  0.16573143797E+02 -0.37681155345E+03  0.49080006205E+03  0.17200000000E+03 0.  1.
</event>
<event>
 4    1  0.4653733E+000  0.2401554E+03  0.7818608E-02  0.1119689E+00
         21   -1    0    0  501  502  0.00000000000E+00  0.00000000000E+00  0.64442602326E+02  0.64442602326E+02  0.00000000000E+00 0.  1.
         21   -1    0    0  502  503 -0.00000000000E+00 -0.00000000000E+00 -0.93421025791E+03  0.93421025791E+03  0.00000000000E+00 0. -1.
          6    1    1    2  501    0 -0.15627039928E+03 -0.60581836182E+02 -0.33255600156E+03  0.41020493749E+03  0.17200000000E+03 0.  1.
         -6    1    1    2    0  503  0.15627039928E+03  0.60581836182E+02 -0.53721165402E+03  0.58844792274E+03  0.17200000000E+03 0. -1.
</event>
<event>
 4    1  0.4653733E+000  0.2250483E+03  0.7818608E-02  0.1130174E+00
         21   -1    0    0  503  502  0.00000000000E+00  0.00000000000E+00  0.72464605275E+02  0.72464605275E+02  0.00000000000E+00 0.  1.
         21   -1    0    0  501  503 -0.00000000000E+00 -0.00000000000E+00 -0.83190040562E+03  0.83190040562E+03  0.00000000000E+00 0.  1.
          6    1    1    2  501    0 -0.93184256811E+02  0.11126281596E+03 -0.56050913346E+03  0.60400100052E+03  0.17200000000E+03 0.  1.
         -6    1    1    2    0  502  0.93184256811E+02 -0.11126281596E+03 -0.19892666688E+03  0.30036401038E+03  0.17200000000E+03 0.  1.
</event>
<event>
 4    1  0.4653733E+000  0.3073891E+03  0.7818608E-02  0.1081604E+00
         21   -1    0    0  503  502  0.00000000000E+00  0.00000000000E+00  0.13939247787E+04  0.13939247787E+04  0.00000000000E+00 0. -1.
         21   -1    0    0  501  503 -0.00000000000E+00 -0.00000000000E+00 -0.40989469392E+03  0.40989469392E+03  0.00000000000E+00 0.  1.
          6    1    1    2  501    0 -0.10863129101E+03  0.23044148411E+03 -0.33195084677E+03  0.45241507452E+03  0.17200000000E+03 0.  1.
         -6    1    1    2    0  502  0.10863129101E+03 -0.23044148411E+03  0.13159809316E+04  0.13514043981E+04  0.17200000000E+03 0. -1.
</event>
<event>
 4    1  0.4653733E+000  0.1901520E+03  0.7818608E-02  0.1158324E+00
         21   -1    0    0  501  502  0.00000000000E+00  0.00000000000E+00  0.84295449145E+02  0.84295449145E+02  0.00000000000E+00 0.  1.
         21   -1    0    0  502  503 -0.00000000000E+00 -0.00000000000E+00 -0.44627999471E+03  0.44627999471E+03  0.00000000000E+00 0.  1.
          6    1    1    2  501    0 -0.18634440825E+02  0.78908459713E+02 -0.12870169453E+03  0.22961252922E+03  0.17200000000E+03 0.  1.
         -6    1    1    2    0  503  0.18634440825E+02 -0.78908459713E+02 -0.23328285103E+03  0.30096291463E+03  0.17200000000E+03 0.  1.
</event>
<event>
 4    1  0.4653733E+000  0.1983009E+03  0.7818608E-02  0.1151180E+00
         21   -1    0    0  501  502  0.00000000000E+00  0.00000000000E+00  0.82926784541E+03  0.82926784541E+03  0.00000000000E+00 0.  1.
         21   -1    0    0  502  503 -0.00000000000E+00 -0.00000000000E+00 -0.83079879740E+02  0.83079879740E+02  0.00000000000E+00 0.  1.
          6    1    1    2  501    0 -0.22288697139E+02 -0.96137734136E+02  0.67196034745E+03  0.70060970482E+03  0.17200000000E+03 0.  1.
         -6    1    1    2    0  503  0.22288697139E+02  0.96137734136E+02  0.74227618216E+02  0.21173802032E+03  0.17200000000E+03 0.  1.
</event>
<event>
 4    1  0.4653733E+000  0.1760757E+03  0.7818608E-02  0.1171656E+00
         21   -1    0    0  501  502  0.00000000000E+00  0.00000000000E+00  0.71685506881E+02  0.71685506881E+02  0.00000000000E+00 0. -1.
         21   -1    0    0  502  503 -0.00000000000E+00 -0.00000000000E+00 -0.53433701280E+03  0.53433701280E+03  0.00000000000E+00 0. -1.
          6    1    1    2  501    0 -0.75775614571E+01  0.36894748449E+02 -0.99030636314E+02  0.20201413027E+03  0.17200000000E+03 0. -1.
         -6    1    1    2    0  503  0.75775614571E+01 -0.36894748449E+02 -0.36362086960E+03  0.40400838941E+03  0.17200000000E+03 0. -1.
</event>
<event>
 4    1  0.4653733E+000  0.2045908E+03  0.7818608E-02  0.1145923E+00
         21   -1    0    0  503  502  0.00000000000E+00  0.00000000000E+00  0.19488412607E+04  0.19488412607E+04  0.00000000000E+00 0. -1.
         21   -1    0    0  501  503 -0.00000000000E+00 -0.00000000000E+00 -0.36843373371E+02  0.36843373371E+02  0.00000000000E+00 0. -1.
          6    1    1    2  501    0 -0.86681949984E+02  0.68990094024E+02  0.31483242938E+03  0.37546884307E+03  0.17200000000E+03 0. -1.
         -6    1    1    2    0  502  0.86681949984E+02 -0.68990094024E+02  0.15971654580E+04  0.16102157910E+04  0.17200000000E+03 0. -1.
</event>
<event>
 4    1  0.4653733E+000  0.2215450E+03  0.7818608E-02  0.1132736E+00
         21   -1    0    0  501  502  0.00000000000E+00  0.00000000000E+00  0.32171817703E+03  0.32171817703E+03  0.00000000000E+00 0. -1.
         21   -1    0    0  502  503 -0.00000000000E+00 -0.00000000000E+00 -0.15320629561E+03  0.15320629561E+03  0.00000000000E+00 0. -1.
          6    1    1    2  501    0 -0.29089540599E+01  0.13960563964E+03  0.99646689050E+02  0.24292315507E+03  0.17200000000E+03 0. -1.
         -6    1    1    2    0  503  0.29089540599E+01 -0.13960563964E+03  0.68865192364E+02  0.23200131756E+03  0.17200000000E+03 0. -1.
</event>
<event>
 4    1  0.4653733E+000  0.2044276E+03  0.7818608E-02  0.1146056E+00
         21   -1    0    0  501  502  0.00000000000E+00  0.00000000000E+00  0.46391057419E+02  0.46391057419E+02  0.00000000000E+00 0.  1.
         21   -1    0    0  502  503 -0.00000000000E+00 -0.00000000000E+00 -0.99683826615E+03  0.99683826615E+03  0.00000000000E+00 0.  1.
          6    1    1    2  501    0 -0.76034474495E+02 -0.80158580284E+02 -0.31334746866E+03  0.37413537045E+03  0.17200000000E+03 0.  1.
         -6    1    1    2    0  503  0.76034474495E+02  0.80158580284E+02 -0.63709974008E+03  0.66909395313E+03  0.17200000000E+03 0.  1.
</event>
<event>
 4    1  0.4653733E+000  0.1905422E+03  0.7818608E-02  0.1157973E+00
         21   -1    0    0  501  502  0.00000000000E+00  0.00000000000E+00  0.14777352286E+04  0.14777352286E+04  0.00000000000E+00 0. -1.
         21   -1    0    0  502  503 -0.00000000000E+00 -0.00000000000E+00 -0.27969760263E+02  0.27969760263E+02  0.00000000000E+00 0. -1.
          6    1    1    2  501    0  0.25474931533E+01  0.81950341977E+02  0.98740073328E+03  0.10056175000E+04  0.17200000000E+03 0. -1.
         -6    1    1    2    0  503 -0.25474931533E+01 -0.81950341977E+02  0.46236473510E+03  0.50008748888E+03  0.17200000000E+03 0. -1.
</event>
<event>
 4    1  0.4653733E+000  0.1838567E+03  0.7818608E-02  0.1164122E+00
         21   -1    0    0  501  502  0.00000000000E+00  0.00000000000E+00  0.45017454636E+02  0.45017454636E+02  0.00000000000E+00 0. -1.
         21   -1    0    0  502  503 -0.00000000000E+00 -0.00000000000E+00 -0.86930041650E+03  0.86930041650E+03  0.00000000000E+00 0. -1.
          6    1    1    2  501    0  0.64877331168E+02  0.31946832993E+01 -0.24341920187E+03  0.30505111365E+03  0.17200000000E+03 0. -1.
         -6    1    1    2    0  503 -0.64877331168E+02 -0.31946832993E+01 -0.58086376000E+03  0.60926675749E+03  0.17200000000E+03 0. -1.
</event>
<event>
 4    1  0.4653733E+000  0.2027041E+03  0.7818608E-02  0.1147477E+00
         21   -1    0    0  501  502  0.00000000000E+00  0.00000000000E+00  0.10816127772E+03  0.10816127772E+03  0.00000000000E+00 0. -1.
         21   -1    0    0  502  503 -0.00000000000E+00 -0.00000000000E+00 -0.39653343212E+03  0.39653343212E+03  0.00000000000E+00 0. -1.
          6    1    1    2  501    0  0.99790281045E+02  0.39330040686E+02 -0.92481043757E+02  0.22280416456E+03  0.17200000000E+03 0. -1.
         -6    1    1    2    0  503 -0.99790281045E+02 -0.39330040686E+02 -0.19589111064E+03  0.28189054528E+03  0.17200000000E+03 0. -1.
</event>
<event>
 4    1  0.4653733E+000  0.1819193E+03  0.7818608E-02  0.1165958E+00
         21   -1    0    0  501  502  0.00000000000E+00  0.00000000000E+00  0.71790825864E+03  0.71790825864E+03  0.00000000000E+00 0. -1.
         21   -1    0    0  502  503 -0.00000000000E+00 -0.00000000000E+00 -0.65246493830E+02  0.65246493830E+02  0.00000000000E+00 0. -1.
          6    1    1    2  501    0  0.59164801978E+02  0.31861030708E+01  0.11420260278E+03  0.21479492435E+03  0.17200000000E+03 0. -1.
         -6    1    1    2    0  503 -0.59164801978E+02 -0.31861030708E+01  0.53845916203E+03  0.56835982812E+03  0.17200000000E+03 0. -1.
</event>
<event>
 4    1  0.4653733E+000  0.1956378E+03  0.7818608E-02  0.1153472E+00
         21   -1    0    0  503  502  0.00000000000E+00  0.00000000000E+00  0.17070127190E+03  0.17070127190E+03  0.00000000000E+00 0.  1.
         21   -1    0    0  501  503 -0.00000000000E+00 -0.00000000000E+00 -0.43951640270E+03  0.43951640270E+03  0.00000000000E+00 0.  1.
          6    1    1    2  501    0 -0.64239766940E+01 -0.92999411949E+02  0.79136974946E+02  0.21103748222E+03  0.17200000000E+03 0.  1.
         -6    1    1    2    0  502  0.64239766940E+01  0.92999411949E+02 -0.34795210574E+03  0.39918019238E+03  0.17200000000E+03 0.  1.
</event>
<event>
 4    1  0.4653733E+000  0.1768854E+03  0.7818608E-02  0.1170852E+00
         21   -1    0    0  501  502  0.00000000000E+00  0.00000000000E+00  0.59851972938E+03  0.59851972938E+03  0.00000000000E+00 0. -1.
         21   -1    0    0  502  503 -0.00000000000E+00 -0.00000000000E+00 -0.91457929270E+02  0.91457929270E+02  0.00000000000E+00 0. -1.
          6    1    1    2  501    0 -0.14017289759E+02  0.38832375726E+02  0.47933676498E+03  0.51093264925E+03  0.17200000000E+03 0. -1.
         -6    1    1    2    0  503  0.14017289759E+02 -0.38832375726E+02  0.27725035136E+02  0.17904500940E+03  0.17200000000E+03 0. -1.
</event>
<event>
 4    1  0.4653733E+000  0.1881711E+03  0.7818608E-02  0.1160121E+00
         21   -1    0    0  501  502  0.00000000000E+00  0.00000000000E+00  0.69996527810E+02  0.69996527810E+02  0.00000000000E+00 0. -1.
         21   -1    0    0  502  503 -0.00000000000E+00 -0.00000000000E+00 -0.54268148941E+03  0.54268148941E+03  0.00000000000E+00 0. -1.
          6    1    1    2  501    0 -0.38871304787E+01 -0.76218408201E+02 -0.15654523714E+03  0.24477493091E+03  0.17200000000E+03 0. -1.
         -6    1    1    2    0  503  0.38871304787E+01  0.76218408201E+02 -0.31613972446E+03  0.36790308630E+03  0.17200000000E+03 0. -1.
</event>
<event>
 4    1  0.4653733E+000  0.1847640E+03  0.7818608E-02  0.1163270E+00
         21   -1    0    0  503  502  0.00000000000E+00  0.00000000000E+00  0.11216192446E+03  0.11216192446E+03  0.00000000000E+00 0.  1.
         21   -1    0    0  501  503 -0.00000000000E+00 -0.00000000000E+00 -0.30497239722E+03  0.30497239722E+03  0.00000000000E+00 0.  1.
          6    1    1    2  501    0 -0.66644716504E+02 -0.10592748958E+02 -0.10574312402E+03  0.21288337851E+03  0.17200000000E+03 0. -1.
         -6    1    1    2    0  502  0.66644716504E+02  0.10592748958E+02 -0.87067348750E+02  0.20425094317E+03  0.17200000000E+03 0. -1.
</event>
<event>
 4    1  0.4653733E+000  0.2195198E+03  0.7818608E-02  0.1134242E+00
         21   -1    0    0  503  502  0.00000000000E+00  0.00000000000E+00  0.24033382077E+03  0.24033382077E+03  0.00000000000E+00 0.  1.
         21   -1    0    0  501  503 -0.00000000000E+00 -0.00000000000E+00 -0.32191952433E+03  0.32191952433E+03  0.00000000000E+00 0. -1.
          6    1    1    2  501    0  0.52135335329E+02  0.12604311842E+03 -0.21343926176E+03  0.30617850896E+03  0.17200000000E+03 0. -1.
         -6    1    1    2    0  502 -0.52135335329E+02 -0.12604311842E+03  0.13185355819E+03  0.25607483613E+03  0.17200000000E+03 0.  1.
</event>
<event>
 4    1  0.4653733E+000  0.1732686E+03  0.7818608E-02  0.1174481E+00
         21   -1    0    0  503  502  0.00000000000E+00  0.00000000000E+00  0.32226459611E+03  0.32226459611E+03  0.00000000000E+00 0. -1.
         21   -1    0    0  501  503 -0.00000000000E+00 -0.00000000000E+00 -0.93503821148E+02  0.93503821148E+02  0.00000000000E+00 0. -1.
          6    1    1    2  501    0 -0.81755193506E+01 -0.19265476449E+02  0.10176472444E+03  0.20094291936E+03  0.17200000000E+03 0.  1.
         -6    1    1    2    0  502  0.81755193506E+01  0.19265476449E+02  0.12699605052E+03  0.21482549790E+03  0.17200000000E+03 0.  1.
</event>
<event>
 4    1  0.4653733E+000  0.2217078E+03  0.7818608E-02  0.1132616E+00
         21   -1    0    0  503  502  0.00000000000E+00  0.00000000000E+00  0.11527111976E+03  0.11527111976E+03  0.00000000000E+00 0. -1.
         21   -1    0    0  501  503 -0.00000000000E+00 -0.00000000000E+00 -0.42933808449E+03  0.42933808449E+03  0.00000000000E+00 0.  1.
          6    1    1    2  501    0 -0.13989231206E+03 -0.71168270405E+00 -0.17946768050E+03  0.28524202672E+03  0.17200000000E+03 0.  1.
         -6    1    1    2    0  502  0.13989231206E+03  0.71168270405E+00 -0.13459928422E+03  0.25936717753E+03  0.17200000000E+03 0. -1.
</event>
<event>
 4    1  0.4653733E+000  0.1723689E+03  0.7818608E-02  0.1175400E+00
         21   -1    0    0  501  502  0.00000000000E+00  0.00000000000E+00  0.77922667486E+02  0.77922667486E+02  0.00000000000E+00 0. -1.
         21   -1    0    0  502  503 -0.00000000000E+00 -0.00000000000E+00 -0.59846174597E+03  0.59846174597E+03  0.00000000000E+00 0. -1.
          6    1    1    2  501    0 -0.73214537672E+00  0.11247509826E+02 -0.56542707264E+02  0.18140595431E+03  0.17200000000E+03 0. -1.
         -6    1    1    2    0  503  0.73214537672E+00 -0.11247509826E+02 -0.46399637122E+03  0.49497845915E+03  0.17200000000E+03 0. -1.
</event>
<event>
 4    1  0.4653733E+000  0.2812865E+03  0.7818608E-02  0.1094988E+00
         21   -1    0    0  501  502  0.00000000000E+00  0.00000000000E+00  0.35250590739E+03  0.35250590739E+03  0.00000000000E+00 0. -1.
         21   -1    0    0  502  503 -0.00000000000E+00 -0.00000000000E+00 -0.36084663417E+03  0.36084663417E+03  0.00000000000E+00 0. -1.
          6    1    1    2  501    0  0.21998529181E+03 -0.33831133106E+02  0.21511271786E+03  0.35411234879E+03  0.17200000000E+03 0. -1.
         -6    1    1    2    0  503 -0.21998529181E+03  0.33831133106E+02 -0.22345344464E+03  0.35924019277E+03  0.17200000000E+03 0. -1.
</event>
<event>
 4    1  0.4653733E+000  0.2124541E+03  0.7818608E-02  0.1139637E+00
         21   -1    0    0  501  502  0.00000000000E+00  0.00000000000E+00  0.41441149683E+03  0.41441149683E+03  0.00000000000E+00 0.  1.
         21   -1    0    0  502  503 -0.00000000000E+00 -0.00000000000E+00 -0.16132601970E+03  0.16132601970E+03  0.00000000000E+00 0. -1.
          6    1    1    2  501    0 -0.11377205419E+03 -0.51074948905E+02  0.29061781170E+03  0.35999367105E+03  0.17200000000E+03 0.  1.
         -6    1    1    2    0  503  0.11377205419E+03  0.51074948905E+02 -0.37532334575E+02  0.21574384547E+03  0.17200000000E+03 0. -1.
</event>
<event>
 4    1  0.4653733E+000  0.2741168E+03  0.7818608E-02  0.1098946E+00
         21   -1    0    0  501  502  0.00000000000E+00  0.00000000000E+00  0.47061086675E+03  0.47061086675E+03  0.00000000000E+00 0. -1.
         21   -1    0    0  502  503 -0.00000000000E+00 -0.00000000000E+00 -0.33595373458E+03  0.33595373458E+03  0.00000000000E+00 0. -1.
          6    1    1    2  501    0 -0.61420858563E+02 -0.20441016127E+03  0.35946238200E+03  0.45205446571E+03  0.17200000000E+03 0. -1.
         -6    1    1    2    0  503  0.61420858563E+02  0.20441016127E+03 -0.22480524983E+03  0.35451013561E+03  0.17200000000E+03 0. -1.
</event>
<event>
 4    1  0.4653733E+000  0.1779094E+03  0.7818608E-02  0.1169842E+00
         21   -1    0    0  501  502  0.00000000000E+00  0.00000000000E+00  0.51433259000E+02  0.51433259000E+02  0.00000000000E+00 0. -1.
         21   -1    0    0  502  503 -0.00000000000E+00 -0.00000000000E+00 -0.64515699432E+03  0.64515699432E+03  0.00000000000E+00 0. -1.
          6    1    1    2  501    0  0.26302277038E+02  0.37093925878E+02 -0.22205423815E+03  0.28453445098E+03  0.17200000000E+03 0. -1.
         -6    1    1    2    0  503 -0.26302277038E+02 -0.37093925878E+02 -0.37166949718E+03  0.41205580235E+03  0.17200000000E+03 0. -1.
</event>
<event>
 4    1  0.4653733E+000  0.1911560E+03  0.7818608E-02  0.1157423E+00
         21   -1    0    0  501  502  0.00000000000E+00  0.00000000000E+00  0.32208760192E+04  0.32208760192E+04  0.00000000000E+00 0.  1.
         21   -1    0    0  502  503 -0.00000000000E+00 -0.00000000000E+00 -0.11919177486E+02  0.11919177486E+02  0.00000000000E+00 0.  1.
          6    1    1    2  501    0 -0.61587433382E+02 -0.56245821589E+02  0.19592718857E+04  0.19685748465E+04  0.17200000000E+03 0.  1.
         -6    1    1    2    0  503  0.61587433382E+02  0.56245821589E+02  0.12496849561E+04  0.12642203502E+04  0.17200000000E+03 0.  1.
</event>
<event>
 4    1  0.4653733E+000  0.2135484E+03  0.7818608E-02  0.1138786E+00
         21   -1    0    0  503  502  0.00000000000E+00  0.00000000000E+00  0.46785009834E+03  0.46785009834E+03  0.00000000000E+00 0. -1.
         21   -1    0    0  501  503 -0.00000000000E+00 -0.00000000000E+00 -0.97566657613E+02  0.97566657613E+02  0.00000000000E+00 0.  1.
          6    1    1    2  501    0  0.48095031130E+02 -0.11707179775E+03  0.19388228928E+03  0.28843245300E+03  0.17200000000E+03 0. -1.
         -6    1    1    2    0  502 -0.48095031130E+02  0.11707179775E+03  0.17640115145E+03  0.27698430295E+03  0.17200000000E+03 0.  1.
</event>
<event>
 4    1  0.4653733E+000  0.2107838E+03  0.7818608E-02  0.1140947E+00
         21   -1    0    0  503  502  0.00000000000E+00  0.00000000000E+00  0.46506526114E+02  0.46506526114E+02  0.00000000000E+00 0.  1.
         21   -1    0    0  501  503 -0.00000000000E+00 -0.00000000000E+00 -0.11555682946E+04  0.11555682946E+04  0.00000000000E+00 0. -1.
          6    1    1    2  501    0 -0.12046300094E+03  0.18288756683E+02 -0.80471524451E+03  0.83186323273E+03  0.17200000000E+03 0. -1.
         -6    1    1    2    0  502  0.12046300094E+03 -0.18288756683E+02 -0.30434652394E+03  0.37021158795E+03  0.17200000000E+03 0.  1.
</event>
<event>
 4    1  0.4653733E+000  0.1868120E+03  0.7818608E-02  0.1161368E+00
         21   -1    0    0  503  502  0.00000000000E+00  0.00000000000E+00  0.37502003857E+03  0.37502003857E+03  0.00000000000E+00 0. -1.
         21   -1    0    0  501  503 -0.00000000000E+00 -0.00000000000E+00 -0.95127194987E+02  0.95127194987E+02  0.00000000000E+00 0.  1.
          6    1    1    2  501    0 -0.72824574634E+02 -0.33643035154E+01  0.17461355920E+03  0.25571201040E+03  0.17200000000E+03 0. -1.
         -6    1    1    2    0  502  0.72824574634E+02  0.33643035154E+01  0.10527928439E+03  0.21443522315E+03  0.17200000000E+03 0.  1.
</event>
<event>
 4    1  0.4653733E+000  0.1767865E+03  0.7818608E-02  0.1170950E+00
         21   -1    0    0  501  502  0.00000000000E+00  0.00000000000E+00  0.18580320850E+04  0.18580320850E+04  0.00000000000E+00 0. -1.
         21   -1    0    0  502  503 -0.00000000000E+00 -0.00000000000E+00 -0.20248312634E+02  0.20248312634E+02  0.00000000000E+00 0. -1.
          6    1    1    2  501    0 -0.15791908400E+02 -0.37684134804E+02  0.53249891622E+03  0.56107804641E+03  0.17200000000E+03 0. -1.
         -6    1    1    2    0  503  0.15791908400E+02  0.37684134804E+02  0.13052848562E+04  0.13172023512E+04  0.17200000000E+03 0. -1.
</event>
<event>
 4    1  0.4653733E+000  0.1968306E+03  0.7818608E-02  0.1152441E+00
         21   -1    0    0  503  502  0.00000000000E+00  0.00000000000E+00  0.10672693072E+03  0.10672693072E+03  0.00000000000E+00 0.  1.
         21   -1    0    0  501  503 -0.00000000000E+00 -0.00000000000E+00 -0.42548042126E+03  0.42548042126E+03  0.00000000000E+00 0. -1.
          6    1    1    2  501    0  0.82710029925E+02  0.48138647982E+02 -0.26134616472E+03  0.32717594089E+03  0.17200000000E+03 0. -1.
         -6    1    1    2    0  502 -0.82710029925E+02 -0.48138647982E+02 -0.57407325814E+02  0.20503141110E+03  0.17200000000E+03 0. -1.
</event>
<event>
 4    1  0.4653733E+000  0.1968296E+03  0.7818608E-02  0.1152442E+00
         21   -1    0    0  501  502  0.00000000000E+00  0.00000000000E+00  0.25980128209E+02  0.25980128209E+02  0.00000000000E+00 0. -1.
         21   -1    0    0  502  503 -0.00000000000E+00 -0.00000000000E+00 -0.14915359817E+04  0.14915359817E+04  0.00000000000E+00 0. -1.
          6    1    1    2  501    0  0.89202537599E+02  0.34652714030E+02 -0.72161141712E+03  0.74797389034E+03  0.17200000000E+03 0. -1.
         -6    1    1    2    0  503 -0.89202537599E+02 -0.34652714030E+02 -0.74394443640E+03  0.76954221961E+03  0.17200000000E+03 0. -1.
</event>
<event>
 4    1  0.4653733E+000  0.1880021E+03  0.7818608E-02  0.1160276E+00
         21   -1    0    0  501  502  0.00000000000E+00  0.00000000000E+00  0.25406620145E+02  0.25406620145E+02  0.00000000000E+00 0. -1.
         21   -1    0    0  502  503 -0.00000000000E+00 -0.00000000000E+00 -0.17399398647E+04  0.17399398647E+04  0.00000000000E+00 0. -1.
          6    1    1    2  501    0 -0.51063882218E+02  0.56153896231E+02 -0.46207663180E+03  0.49885829029E+03  0.17200000000E+03 0. -1.
         -6    1    1    2    0  503  0.51063882218E+02 -0.56153896231E+02 -0.12524566128E+04  0.12664881946E+04  0.17200000000E+03 0. -1.
</event>
<event>
 4    1  0.4653733E+000  0.3470899E+03  0.7818608E-02  0.1063816E+00
         21   -1    0    0  503  502  0.00000000000E+00  0.00000000000E+00  0.33252896946E+03  0.33252896946E+03  0.00000000000E+00 0. -1.
         21   -1    0    0  501  503 -0.00000000000E+00 -0.00000000000E+00 -0.74197416877E+03  0.74197416877E+03  0.00000000000E+00 0. -1.
          6    1    1    2  501    0  0.25567551956E+03 -0.15974174911E+03 -0.58904477430E+03  0.68369960058E+03  0.17200000000E+03 0. -1.
         -6    1    1    2    0  502 -0.25567551956E+03  0.15974174911E+03  0.17959957499E+03  0.39080353765E+03  0.17200000000E+03 0. -1.
</event>
<event>
 4    1  0.4653733E+000  0.1914811E+03  0.7818608E-02  0.1157132E+00
         21   -1    0    0  503  502  0.00000000000E+00  0.00000000000E+00  0.31335295156E+03  0.31335295156E+03  0.00000000000E+00 0. -1.
         21   -1    0    0  501  503 -0.00000000000E+00 -0.00000000000E+00 -0.17591443066E+03  0.17591443066E+03  0.00000000000E+00 0. -1.
          6    1    1    2  501    0  0.63311256220E+02  0.55431796178E+02 -0.72842048826E+02  0.20486816070E+03  0.17200000000E+03 0.  1.
         -6    1    1    2    0  502 -0.63311256220E+02 -0.55431796178E+02  0.21028056973E+03  0.28439922151E+03  0.17200000000E+03 0.  1.
</event>
<event>
 4    1  0.4653733E+000  0.2353024E+03  0.7818608E-02  0.1122962E+00
         21   -1    0    0  501  502  0.00000000000E+00  0.00000000000E+00  0.22540540171E+03  0.22540540171E+03  0.00000000000E+00 0. -1.
         21   -1    0    0  502  503 -0.00000000000E+00 -0.00000000000E+00 -0.28371381512E+03  0.28371381512E+03  0.00000000000E+00 0. -1.
          6    1    1    2  501    0  0.41292677821E+02  0.15517130285E+03  0.64106128223E+02  0.24387868736E+03  0.17200000000E+03 0. -1.
         -6    1    1    2    0  503 -0.41292677821E+02 -0.15517130285E+03 -0.12241454163E+03  0.26524052947E+03  0.17200000000E+03 0. -1.
</event>
<event>
 4    1  0.4653733E+000  0.1981753E+03  0.7818608E-02  0.1151288E+00
         21   -1    0    0  503  502  0.00000000000E+00  0.00000000000E+00  0.37591413094E+03  0.37591413094E+03  0.00000000000E+00 0. -1.
         21   -1    0    0  501  503 -0.00000000000E+00 -0.00000000000E+00 -0.10604551579E+03  0.10604551579E+03  0.00000000000E+00 0. -1.
          6    1    1    2  501    0 -0.76947528785E+02  0.61388385967E+02  0.10560382578E+03  0.22455650544E+03  0.17200000000E+03 0. -1.
         -6    1    1    2    0  502  0.76947528785E+02 -0.61388385967E+02  0.16426478936E+03  0.25740314128E+03  0.17200000000E+03 0. -1.
</event>
<event>
 4    1  0.4653733E+000  0.1928376E+03  0.7818608E-02  0.1155927E+00
         21   -1    0    0  501  502  0.00000000000E+00  0.00000000000E+00  0.12236507842E+03  0.12236507842E+03  0.00000000000E+00 0. -1.
         21   -1    0    0  502  503 -0.00000000000E+00 -0.00000000000E+00 -0.31814280540E+03  0.31814280540E+03  0.00000000000E+00 0.  1.
          6    1    1    2  501    0 -0.64262590513E+00 -0.87189074765E+02 -0.14449683373E+03  0.24096821924E+03  0.17200000000E+03 0.  1.
         -6    1    1    2    0  503  0.64262590513E+00  0.87189074765E+02 -0.51280893245E+02  0.19953966457E+03  0.17200000000E+03 0. -1.
</event>
<event>
 4    1  0.4653733E+000  0.1796767E+03  0.7818608E-02  0.1168116E+00
         21   -1    0    0  501  502  0.00000000000E+00  0.00000000000E+00  0.22905182693E+03  0.22905182693E+03  0.00000000000E+00 0. -1.
         21   -1    0    0  502  503 -0.00000000000E+00 -0.00000000000E+00 -0.19039066343E+03  0.19039066343E+03  0.00000000000E+00 0. -1.
          6    1    1    2  501    0  0.12360888845E+01 -0.51944058707E+02  0.12620743116E+03  0.21957237720E+03  0.17200000000E+03 0. -1.
         -6    1    1    2    0  503 -0.12360888845E+01  0.51944058707E+02 -0.87546267657E+02  0.19987011315E+03  0.17200000000E+03 0. -1.
</event>
<event>
 4    1  0.4653733E+000  0.1926130E+03  0.7818608E-02  0.1156126E+00
         21   -1    0    0  503  502  0.00000000000E+00  0.00000000000E+00  0.13302558210E+03  0.13302558210E+03  0.00000000000E+00 0.  1.
         21   -1    0    0  501  503 -0.00000000000E+00 -0.00000000000E+00 -0.27976670549E+03  0.27976670549E+03  0.00000000000E+00 0.  1.
          6    1    1    2  501    0  0.27449044903E+01  0.86649973856E+02 -0.61828898430E+02  0.20229326521E+03  0.17200000000E+03 0.  1.
         -6    1    1    2    0  502 -0.27449044903E+01 -0.86649973856E+02 -0.84912224960E+02  0.21049902237E+03  0.17200000000E+03 0.  1.
</event>
<event>
 4    1  0.4653733E+000  0.1753122E+03  0.7818608E-02  0.1172419E+00
         21   -1    0    0  503  502  0.00000000000E+00  0.00000000000E+00  0.82943644092E+02  0.82943644092E+02  0.00000000000E+00 0.  1.
         21   -1    0    0  501  503 -0.00000000000E+00 -0.00000000000E+00 -0.37503777977E+03  0.37503777977E+03  0.00000000000E+00 0.  1.
          6    1    1    2  501    0 -0.29883371923E+02 -0.16041746085E+02 -0.12098381829E+03  0.21300572251E+03  0.17200000000E+03 0.  1.
         -6    1    1    2    0  502  0.29883371923E+02  0.16041746085E+02 -0.17111031738E+03  0.24497570135E+03  0.17200000000E+03 0.  1.
</event>
<event>
 4    1  0.4653733E+000  0.1773190E+03  0.7818608E-02  0.1170423E+00
         21   -1    0    0  503  502  0.00000000000E+00  0.00000000000E+00  0.80810378679E+03  0.80810378679E+03  0.00000000000E+00 0.  1.
         21   -1    0    0  501  503 -0.00000000000E+00 -0.00000000000E+00 -0.41032287370E+02  0.41032287370E+02  0.00000000000E+00 0.  1.
          6    1    1    2  501    0 -0.43065936904E+02 -0.18272504824E+01  0.28694141794E+03  0.33730904390E+03  0.17200000000E+03 0.  1.
         -6    1    1    2    0  502  0.43065936904E+02  0.18272504824E+01  0.48013008147E+03  0.51182703026E+03  0.17200000000E+03 0.  1.
</event>
<event>
 4    1  0.4653733E+000  0.4097261E+03  0.7818608E-02  0.1040463E+00
         21   -1    0    0  501  502  0.00000000000E+00  0.00000000000E+00  0.83834349812E+03  0.83834349812E+03  0.00000000000E+00 0.  1.
         21   -1    0    0  502  503 -0.00000000000E+00 -0.00000000000E+00 -0.20110617894E+03  0.20110617894E+03  0.00000000000E+00 0.  1.
          6    1    1    2  501    0  0.36475161780E+03  0.72441012797E+02  0.28464038897E+03  0.49889437165E+03  0.17200000000E+03 0.  1.
         -6    1    1    2    0  503 -0.36475161780E+03 -0.72441012797E+02  0.35259693021E+03  0.54055530542E+03  0.17200000000E+03 0.  1.
</event>
<event>
 4    1  0.4653733E+000  0.2022717E+03  0.7818608E-02  0.1147836E+00
         21   -1    0    0  503  502  0.00000000000E+00  0.00000000000E+00  0.13490518302E+04  0.13490518302E+04  0.00000000000E+00 0.  1.
         21   -1    0    0  501  503 -0.00000000000E+00 -0.00000000000E+00 -0.60301860190E+02  0.60301860190E+02  0.00000000000E+00 0. -1.
          6    1    1    2  501    0  0.55333492559E+02 -0.90928793634E+02  0.14755726737E+03  0.25037369683E+03  0.17200000000E+03 0. -1.
         -6    1    1    2    0  502 -0.55333492559E+02  0.90928793634E+02  0.11411927026E+04  0.11589799935E+04  0.17200000000E+03 0.  1.
</event>
<event>
 4    1  0.4653733E+000  0.2309533E+03  0.7818608E-02  0.1125971E+00
         21   -1    0    0  501  502  0.00000000000E+00  0.00000000000E+00  0.13147865243E+03  0.13147865243E+03  0.00000000000E+00 0. -1.
         21   -1    0    0  502  503 -0.00000000000E+00 -0.00000000000E+00 -0.71392976048E+03  0.71392976048E+03  0.00000000000E+00 0.  1.
          6    1    1    2  501    0  0.85525096597E+02 -0.12822208889E+03 -0.13475697544E+02  0.23134614899E+03  0.17200000000E+03 0. -1.
         -6    1    1    2    0  503 -0.85525096597E+02  0.12822208889E+03 -0.56897541051E+03  0.61406226393E+03  0.17200000000E+03 0.  1.
</event>
<event>
 4    1  0.4653733E+000  0.1762707E+03  0.7818608E-02  0.1171462E+00
         21   -1    0    0  503  502  0.00000000000E+00  0.00000000000E+00  0.19026733919E+03  0.19026733919E+03  0.00000000000E+00 0.  1.
         21   -1    0    0  501  503 -0.00000000000E+00 -0.00000000000E+00 -0.19166751793E+03  0.19166751793E+03  0.00000000000E+00 0.  1.
          6    1    1    2  501    0  0.24161101333E+02  0.30059895184E+02  0.72762724757E+02  0.19069811281E+03  0.17200000000E+03 0.  1.
         -6    1    1    2    0  502 -0.24161101333E+02 -0.30059895184E+02 -0.74162903502E+02  0.19123674430E+03  0.17200000000E+03 0.  1.
</event>
<event>
 4    1  0.4653733E+000  0.1859621E+03  0.7818608E-02  0.1162155E+00
         21   -1    0    0  501  502  0.00000000000E+00  0.00000000000E+00  0.10891581015E+04  0.10891581015E+04  0.00000000000E+00 0. -1.
         21   -1    0    0  502  503 -0.00000000000E+00 -0.00000000000E+00 -0.41136231156E+02  0.41136231156E+02  0.00000000000E+00 0.  1.
          6    1    1    2  501    0 -0.24467312619E+02  0.66326846349E+02  0.25406865050E+03  0.31485358359E+03  0.17200000000E+03 0.  1.
         -6    1    1    2    0  503  0.24467312619E+02 -0.66326846349E+02  0.79395321987E+03  0.81544074909E+03  0.17200000000E+03 0. -1.
</event>
<event>
 4    1  0.4653733E+000  0.2567712E+03  0.7818608E-02  0.1109099E+00
         21   -1    0    0  503  502  0.00000000000E+00  0.00000000000E+00  0.14752791964E+03  0.14752791964E+03  0.00000000000E+00 0.  1.
         21   -1    0    0  501  503 -0.00000000000E+00 -0.00000000000E+00 -0.73673723485E+03  0.73673723485E+03  0.00000000000E+00 0.  1.
          6    1    1    2  501    0 -0.77941467098E+02 -0.17399018723E+03 -0.57191562570E+03  0.62691222708E+03  0.17200000000E+03 0.  1.
         -6    1    1    2    0  502  0.77941467098E+02  0.17399018723E+03 -0.17293689505E+02  0.25735292740E+03  0.17200000000E+03 0.  1.
</event>
<event>
 4    1  0.4653733E+000  0.2142354E+03  0.7818608E-02  0.1138255E+00
         21   -1    0    0  503  502  0.00000000000E+00  0.00000000000E+00  0.72915892827E+03  0.72915892827E+03  0.00000000000E+00 0.  1.
         21   -1    0    0  501  503 -0.00000000000E+00 -0.00000000000E+00 -0.84120177425E+02  0.84120177425E+02  0.00000000000E+00 0. -1.
          6    1    1    2  501    0  0.97647690131E+02 -0.82327008502E+02  0.11849856006E+03  0.24482384780E+03  0.17200000000E+03 0. -1.
         -6    1    1    2    0  502 -0.97647690131E+02  0.82327008502E+02  0.52654019078E+03  0.56845525789E+03  0.17200000000E+03 0. -1.
</event>
<event>
 4    1  0.4653733E+000  0.1943514E+03  0.7818608E-02  0.1154594E+00
         21   -1    0    0  501  502  0.00000000000E+00  0.00000000000E+00  0.10862073650E+04  0.10862073650E+04  0.00000000000E+00 0.  1.
         21   -1    0    0  502  503 -0.00000000000E+00 -0.00000000000E+00 -0.40109976289E+02  0.40109976289E+02  0.00000000000E+00 0.  1.
          6    1    1    2  501    0 -0.28588399123E+02 -0.85855416291E+02  0.72844198796E+03  0.75392319164E+03  0.17200000000E+03 0.  1.
         -6    1    1    2    0  503  0.28588399123E+02  0.85855416291E+02  0.31765540080E+03  0.37239414969E+03  0.17200000000E+03 0.  1.
</event>
<event>
 4    1  0.4653733E+000  0.6962962E+03  0.7818608E-02  0.9723587E-01
         21   -1    0    0  503  502  0.00000000000E+00  0.00000000000E+00  0.93056503493E+03  0.93056503493E+03  0.00000000000E+00 0.  1.
         21   -1    0    0  501  503 -0.00000000000E+00 -0.00000000000E+00 -0.10802560520E+04  0.10802560520E+04  0.00000000000E+00 0. -1.
          6    1    1    2  501    0  0.14749656861E+03 -0.65839892924E+03 -0.79825425696E+03  0.10592630677E+04  0.17200000000E+03 0. -1.
         -6    1    1    2    0  502 -0.14749656861E+03  0.65839892924E+03  0.64856323992E+03  0.95155801923E+03  0.17200000000E+03 0.  1.
</event>
<event>
 4    1  0.4653733E+000  0.3320510E+03  0.7818608E-02  0.1070233E+00
         21   -1    0    0  501  502  0.00000000000E+00  0.00000000000E+00  0.12864406198E+03  0.12864406198E+03  0.00000000000E+00 0. -1.
         21   -1    0    0  502  503 -0.00000000000E+00 -0.00000000000E+00 -0.11129383410E+04  0.11129383410E+04  0.00000000000E+00 0.  1.
          6    1    1    2  501    0 -0.27178556892E+03 -0.82501409814E+02 -0.19449277043E+03  0.38481854925E+03  0.17200000000E+03 0. -1.
         -6    1    1    2    0  503  0.27178556892E+03  0.82501409814E+02 -0.78980150857E+03  0.85676385371E+03  0.17200000000E+03 0.  1.
</event>
<event>
 4    1  0.4653733E+000  0.2268414E+03  0.7818608E-02  0.1128883E+00
         21   -1    0    0  503  502  0.00000000000E+00  0.00000000000E+00  0.17802846786E+03  0.17802846786E+03  0.00000000000E+00 0. -1.
         21   -1    0    0  501  503 -0.00000000000E+00 -0.00000000000E+00 -0.29542111445E+03  0.29542111445E+03  0.00000000000E+00 0. -1.
          6    1    1    2  501    0  0.15387294713E+02  0.14709259189E+03 -0.93493012854E+02  0.24535269079E+03  0.17200000000E+03 0. -1.
         -6    1    1    2    0  502 -0.15387294713E+02 -0.14709259189E+03 -0.23899633733E+02  0.22809689152E+03  0.17200000000E+03 0. -1.
</event>
<event>
 4    1  0.4653733E+000  0.2859724E+03  0.7818608E-02  0.1092471E+00
         21   -1    0    0  503  502  0.00000000000E+00  0.00000000000E+00  0.52438635661E+03  0.52438635661E+03  0.00000000000E+00 0. -1.
         21   -1    0    0  501  503 -0.00000000000E+00 -0.00000000000E+00 -0.15599104140E+03  0.15599104140E+03  0.00000000000E+00 0. -1.
          6    1    1    2  501    0  0.16721590149E+03  0.15567611988E+03  0.17896384893E+03  0.33735481504E+03  0.17200000000E+03 0. -1.
         -6    1    1    2    0  502 -0.16721590149E+03 -0.15567611988E+03  0.18943146628E+03  0.34302258297E+03  0.17200000000E+03 0. -1.
</event>
<event>
 4    1  0.4653733E+000  0.1986700E+03  0.7818608E-02  0.1150866E+00
         21   -1    0    0  503  502  0.00000000000E+00  0.00000000000E+00  0.21284504496E+03  0.21284504496E+03  0.00000000000E+00 0. -1.
         21   -1    0    0  501  503 -0.00000000000E+00 -0.00000000000E+00 -0.19529152447E+03  0.19529152447E+03  0.00000000000E+00 0.  1.
          6    1    1    2  501    0 -0.67530946949E+01  0.99197568425E+02  0.54612965604E+02  0.20603965124E+03  0.17200000000E+03 0. -1.
         -6    1    1    2    0  502  0.67530946949E+01 -0.99197568425E+02 -0.37059445114E+02  0.20209691819E+03  0.17200000000E+03 0.  1.
</event>
<event>
 4    1  0.4653733E+000  0.2445314E+03  0.7818608E-02  0.1116810E+00
         21   -1    0    0  501  502  0.00000000000E+00  0.00000000000E+00  0.85329502251E+03  0.85329502251E+03  0.00000000000E+00 0. -1.
         21   -1    0    0  502  503 -0.00000000000E+00 -0.00000000000E+00 -0.98504908110E+02  0.98504908110E+02  0.00000000000E+00 0. -1.
          6    1    1    2  501    0 -0.11838612558E+03 -0.12726471171E+03  0.63305701808E+03  0.67864333027E+03  0.17200000000E+03 0. -1.
         -6    1    1    2    0  503  0.11838612558E+03  0.12726471171E+03  0.12173309632E+03  0.27315660035E+03  0.17200000000E+03 0. -1.
</event>
<event>
 4    1  0.4653733E+000  0.2062687E+03  0.7818608E-02  0.1144555E+00
         21   -1    0    0  501  502  0.00000000000E+00  0.00000000000E+00  0.10987649123E+03  0.10987649123E+03  0.00000000000E+00 0. -1.
         21   -1    0    0  502  503 -0.00000000000E+00 -0.00000000000E+00 -0.87952112973E+03  0.87952112973E+03  0.00000000000E+00 0. -1.
          6    1    1    2  501    0 -0.40323380993E+02  0.10647438709E+03 -0.14711690739E+02  0.20679265946E+03  0.17200000000E+03 0. -1.
         -6    1    1    2    0  503  0.40323380993E+02 -0.10647438709E+03 -0.75493294776E+03  0.78260496150E+03  0.17200000000E+03 0. -1.
</event>
<event>
 4    1  0.4653733E+000  0.2174512E+03  0.7818608E-02  0.1135798E+00
         21   -1    0    0  501  502  0.00000000000E+00  0.00000000000E+00  0.38293895770E+03  0.38293895770E+03  0.00000000000E+00 0.  1.
         21   -1    0    0  502  503 -0.00000000000E+00 -0.00000000000E+00 -0.77032466806E+03  0.77032466806E+03  0.00000000000E+00 0.  1.
          6    1    1    2  501    0  0.10660150289E+02 -0.13261736801E+03  0.33470610961E+03  0.39914055784E+03  0.17200000000E+03 0.  1.
         -6    1    1    2    0  503 -0.10660150289E+02  0.13261736801E+03 -0.72209181997E+03  0.75412306792E+03  0.17200000000E+03 0.  1.
</event>
<event>
 4    1  0.4653733E+000  0.2405900E+03  0.7818608E-02  0.1119400E+00
         21   -1    0    0  503  502  0.00000000000E+00  0.00000000000E+00  0.21897035093E+03  0.21897035093E+03  0.00000000000E+00 0. -1.
         21   -1    0    0  501  503 -0.00000000000E+00 -0.00000000000E+00 -0.27069637233E+03  0.27069637233E+03  0.00000000000E+00 0. -1.
          6    1    1    2  501    0 -0.62188602114E+02 -0.15630779197E+03  0.11642026866E+02  0.24087151108E+03  0.17200000000E+03 0. -1.
         -6    1    1    2    0  502  0.62188602114E+02  0.15630779197E+03 -0.63368048262E+02  0.24879521218E+03  0.17200000000E+03 0. -1.
</event>
<event>
 4    1  0.4653733E+000  0.1732034E+03  0.7818608E-02  0.1174548E+00
         21   -1    0    0  503  502  0.00000000000E+00  0.00000000000E+00  0.78051604478E+03  0.78051604478E+03  0.00000000000E+00 0.  1.
         21   -1    0    0  501  503 -0.00000000000E+00 -0.00000000000E+00 -0.11384349839E+03  0.11384349839E+03  0.00000000000E+00 0.  1.
          6    1    1    2  501    0  0.20139125427E+02  0.31357997787E+01 -0.30609880470E+02  0.17588741398E+03  0.17200000000E+03 0.  1.
         -6    1    1    2    0  502 -0.20139125427E+02 -0.31357997787E+01  0.69728242686E+03  0.71847212919E+03  0.17200000000E+03 0.  1.
</event>
<event>
 4    1  0.4653733E+000  0.1726650E+03  0.7818608E-02  0.1175097E+00
         21   -1    0    0  503  502  0.00000000000E+00  0.00000000000E+00  0.26728877459E+03  0.26728877459E+03  0.00000000000E+00 0.  1.
         21   -1    0    0  501  503 -0.00000000000E+00 -0.00000000000E+00 -0.11791356983E+03  0.11791356983E+03  0.00000000000E+00 0.  1.
          6    1    1    2  501    0 -0.93900703108E+01 -0.11876095162E+02  0.29906921375E+02  0.17523595237E+03  0.17200000000E+03 0.  1.
         -6    1    1    2    0  502  0.93900703108E+01  0.11876095162E+02  0.11946828338E+03  0.20996639205E+03  0.17200000000E+03 0.  1.
</event>
<event>
 4    1  0.4653733E+000  0.2591680E+03  0.7818608E-02  0.1107644E+00
         21   -1    0    0  503  502  0.00000000000E+00  0.00000000000E+00  0.66700087001E+02  0.66700087001E+02  0.00000000000E+00 0.  1.
         21   -1    0    0  501  503 -0.00000000000E+00 -0.00000000000E+00 -0.11279863478E+04  0.11279863478E+04  0.00000000000E+00 0.  1.
          6    1    1    2  501    0 -0.13407748629E+03 -0.14002601849E+03 -0.33502397068E+03  0.42356713649E+03  0.17200000000E+03 0.  1.
         -6    1    1    2    0  502  0.13407748629E+03  0.14002601849E+03 -0.72626229016E+03  0.77111929835E+03  0.17200000000E+03 0.  1.
</event>
<event>
 4    1  0.4653733E+000  0.1732253E+03  0.7818608E-02  0.1174526E+00
         21   -1    0    0  503  502  0.00000000000E+00  0.00000000000E+00  0.57324191522E+03  0.57324191522E+03  0.00000000000E+00 0.  1.
         21   -1    0    0  501  503 -0.00000000000E+00 -0.00000000000E+00 -0.58292554882E+02  0.58292554882E+02  0.00000000000E+00 0.  1.
          6    1    1    2  501    0  0.63317041780E+01  0.19568034155E+02  0.15662179646E+03  0.23353240795E+03  0.17200000000E+03 0.  1.
         -6    1    1    2    0  502 -0.63317041780E+01 -0.19568034155E+02  0.35832756388E+03  0.39800206214E+03  0.17200000000E+03 0.  1.
</event>
<event>
 4    1  0.4653733E+000  0.2187775E+03  0.7818608E-02  0.1134798E+00
         21   -1    0    0  501  502  0.00000000000E+00  0.00000000000E+00  0.17188666220E+03  0.17188666220E+03  0.00000000000E+00 0.  1.
         21   -1    0    0  502  503 -0.00000000000E+00 -0.00000000000E+00 -0.35159393155E+03  0.35159393155E+03  0.00000000000E+00 0.  1.
          6    1    1    2  501    0 -0.43369645273E+02 -0.12805722227E+03  0.29520173557E+02  0.22076009366E+03  0.17200000000E+03 0.  1.
         -6    1    1    2    0  503  0.43369645273E+02  0.12805722227E+03 -0.20922744291E+03  0.30272050009E+03  0.17200000000E+03 0.  1.
</event>
<event>
 4    1  0.4653733E+000  0.1836540E+03  0.7818608E-02  0.1164313E+00
         21   -1    0    0  501  502  0.00000000000E+00  0.00000000000E+00  0.92657790406E+02  0.92657790406E+02  0.00000000000E+00 0. -1.
         21   -1    0    0  502  503 -0.00000000000E+00 -0.00000000000E+00 -0.95963740185E+03  0.95963740185E+03  0.00000000000E+00 0. -1.
          6    1    1    2  501    0 -0.61927672726E+02  0.17600136283E+02 -0.18975413527E+02  0.18463170845E+03  0.17200000000E+03 0. -1.
         -6    1    1    2    0  503  0.61927672726E+02 -0.17600136283E+02 -0.84800419792E+03  0.86766348381E+03  0.17200000000E+03 0. -1.
</event>
<event>
 4    1  0.4653733E+000  0.2296419E+03  0.7818608E-02  0.1126892E+00
         21   -1    0    0  503  502  0.00000000000E+00  0.00000000000E+00  0.22617469259E+02  0.22617469259E+02  0.00000000000E+00 0.  1.
         21   -1    0    0  501  503 -0.00000000000E+00 -0.00000000000E+00 -0.23316223337E+04  0.23316223337E+04  0.00000000000E+00 0. -1.
          6    1    1    2  501    0 -0.14452463599E+03  0.47581729305E+02 -0.11541369191E+04  0.11767614114E+04  0.17200000000E+03 0. -1.
         -6    1    1    2    0  502  0.14452463599E+03 -0.47581729305E+02 -0.11548679453E+04  0.11774783915E+04  0.17200000000E+03 0. -1.
</event>
<event>
 4    1  0.4653733E+000  0.1804180E+03  0.7818608E-02  0.1167399E+00
         21   -1    0    0  501  502  0.00000000000E+00  0.00000000000E+00  0.60476126366E+02  0.60476126366E+02  0.00000000000E+00 0. -1.
         21   -1    0    0  502  503 -0.00000000000E+00 -0.00000000000E+00 -0.11356923943E+04  0.11356923943E+04  0.00000000000E+00 0. -1.
          6    1    1    2  501    0 -0.35287657358E+01  0.54352421430E+02 -0.10381381309E+03  0.20815365885E+03  0.17200000000E+03 0. -1.
         -6    1    1    2    0  503  0.35287657358E+01 -0.54352421430E+02 -0.97140245481E+03  0.98801486179E+03  0.17200000000E+03 0. -1.
</event>
<event>
 4    1  0.4653733E+000  0.2414717E+03  0.7818608E-02  0.1118816E+00
         21   -1    0    0  501  502  0.00000000000E+00  0.00000000000E+00  0.36418576498E+03  0.36418576498E+03  0.00000000000E+00 0. -1.
         21   -1    0    0  502  503 -0.00000000000E+00 -0.00000000000E+00 -0.16532847044E+03  0.16532847044E+03  0.00000000000E+00 0.  1.
          6    1    1    2  501    0 -0.11316111932E+03 -0.12617115198E+03  0.14648093131E+03  0.28242744512E+03  0.17200000000E+03 0.  1.
         -6    1    1    2    0  503  0.11316111932E+03  0.12617115198E+03  0.52376363231E+02  0.24708679031E+03  0.17200000000E+03 0.  1.
</event>
<event>
 4    1  0.4653733E+000  0.3108637E+03  0.7818608E-02  0.1079933E+00
         21   -1    0    0  501  502  0.00000000000E+00  0.00000000000E+00  0.20392220137E+03  0.20392220137E+03  0.00000000000E+00 0. -1.
         21   -1    0    0  502  503 -0.00000000000E+00 -0.00000000000E+00 -0.54870014846E+03  0.54870014846E+03  0.00000000000E+00 0.  1.
          6    1    1    2  501    0 -0.24803797418E+03 -0.74359916858E+02 -0.33436476461E+02  0.31265673162E+03  0.17200000000E+03 0. -1.
         -6    1    1    2    0  503  0.24803797418E+03  0.74359916858E+02 -0.31134147063E+03  0.43996561821E+03  0.17200000000E+03 0.  1.
</event>
<event>
 4    1  0.4653733E+000  0.2050245E+03  0.7818608E-02  0.1145568E+00
         21   -1    0    0  503  502  0.00000000000E+00  0.00000000000E+00  0.56375833152E+02  0.56375833152E+02  0.00000000000E+00 0.  1.
         21   -1    0    0  501  503 -0.00000000000E+00 -0.00000000000E+00 -0.81455151146E+03  0.81455151146E+03  0.00000000000E+00 0.  1.
          6    1    1    2  501    0  0.10312380101E+03 -0.42620875364E+02 -0.50576417239E+03  0.54574028203E+03  0.17200000000E+03 0.  1.
         -6    1    1    2    0  502 -0.10312380101E+03  0.42620875364E+02 -0.25241150591E+03  0.32518706258E+03  0.17200000000E+03 0.  1.
</event>
<event>
 4    1  0.4653733E+000  0.2339036E+03  0.7818608E-02  0.1123922E+00
         21   -1    0    0  503  502  0.00000000000E+00  0.00000000000E+00  0.93379624948E+03  0.93379624948E+03  0.00000000000E+00 0.  1.
         21   -1    0    0  501  503 -0.00000000000E+00 -0.00000000000E+00 -0.59603656090E+02  0.59603656090E+02  0.00000000000E+00 0.  1.
          6    1    1    2  501    0 -0.54917196924E+02  0.14869761765E+03  0.37231367021E+03  0.43969119736E+03  0.17200000000E+03 0.  1.
         -6    1    1    2    0  502  0.54917196924E+02 -0.14869761765E+03  0.50187892317E+03  0.55370870820E+03  0.17200000000E+03 0.  1.
</event>
<event>
 4    1  0.4653733E+000  0.2077540E+03  0.7818608E-02  0.1143357E+00
         21   -1    0    0  503  502  0.00000000000E+00  0.00000000000E+00  0.11778675259E+04  0.11778675259E+04  0.00000000000E+00 0. -1.
         21   -1    0    0  501  503 -0.00000000000E+00 -0.00000000000E+00 -0.42693958711E+02  0.42693958711E+02  0.00000000000E+00 0.  1.
          6    1    1    2  501    0 -0.93510820161E+01 -0.11614765948E+03  0.33785326345E+03  0.39661889663E+03  0.17200000000E+03 0.  1.
         -6    1    1    2    0  502  0.93510820161E+01  0.11614765948E+03  0.79732030374E+03  0.82394258799E+03  0.17200000000E+03 0. -1.
</event>
<event>
 4    1  0.4653733E+000  0.2543051E+03  0.7818608E-02  0.1110614E+00
         21   -1    0    0  503  502  0.00000000000E+00  0.00000000000E+00  0.40778348083E+03  0.40778348083E+03  0.00000000000E+00 0.  1.
         21   -1    0    0  501  503 -0.00000000000E+00 -0.00000000000E+00 -0.19143811032E+03  0.19143811032E+03  0.00000000000E+00 0.  1.
          6    1    1    2  501    0 -0.18558367595E+03  0.25412327786E+02 -0.15931670725E+02  0.25480366033E+03  0.17200000000E+03 0.  1.
         -6    1    1    2    0  502  0.18558367595E+03 -0.25412327786E+02  0.23227704123E+03  0.34441793082E+03  0.17200000000E+03 0.  1.
</event>
<event>
 4    1  0.4653733E+000  0.2371703E+03  0.7818608E-02  0.1121692E+00
         21   -1    0    0  501  502  0.00000000000E+00  0.00000000000E+00  0.13142413250E+03  0.13142413250E+03  0.00000000000E+00 0. -1.
         21   -1    0    0  502  503 -0.00000000000E+00 -0.00000000000E+00 -0.42804988260E+03  0.42804988260E+03  0.00000000000E+00 0. -1.
          6    1    1    2  501    0  0.10053936410E+03 -0.12867622994E+03 -0.15128456930E+03  0.28131256067E+03  0.17200000000E+03 0. -1.
         -6    1    1    2    0  503 -0.10053936410E+03  0.12867622994E+03 -0.14534118080E+03  0.27816145442E+03  0.17200000000E+03 0. -1.
</event>
<event>
 4    1  0.4653733E+000  0.1859308E+03  0.7818608E-02  0.1162184E+00
         21   -1    0    0  501  502  0.00000000000E+00  0.00000000000E+00  0.47932670511E+03  0.47932670511E+03  0.00000000000E+00 0. -1.
         21   -1    0    0  502  503 -0.00000000000E+00 -0.00000000000E+00 -0.85565676748E+02  0.85565676748E+02  0.00000000000E+00 0. -1.
          6    1    1    2  501    0  0.68314070268E+02 -0.17872765149E+02  0.30883374320E+03  0.36048374287E+03  0.17200000000E+03 0. -1.
         -6    1    1    2    0  503 -0.68314070268E+02  0.17872765149E+02  0.84927285163E+02  0.20440863899E+03  0.17200000000E+03 0. -1.
</event>
<event>
 4    1  0.4653733E+000  0.1752219E+03  0.7818608E-02  0.1172509E+00
         21   -1    0    0  503  502  0.00000000000E+00  0.00000000000E+00  0.40475029512E+03  0.40475029512E+03  0.00000000000E+00 0.  1.
         21   -1    0    0  501  503 -0.00000000000E+00 -0.00000000000E+00 -0.12939266773E+03  0.12939266773E+03  0.00000000000E+00 0.  1.
          6    1    1    2  501    0  0.14112934157E+02  0.30323970138E+02 -0.34111452841E+02  0.17851137020E+03  0.17200000000E+03 0.  1.
         -6    1    1    2    0  502 -0.14112934157E+02 -0.30323970138E+02  0.30946908023E+03  0.35563159265E+03  0.17200000000E+03 0.  1.
</event>
<event>
 4    1  0.4653733E+000  0.1900596E+03  0.7818608E-02  0.1158408E+00
         21   -1    0    0  501  502  0.00000000000E+00  0.00000000000E+00  0.24298116257E+03  0.24298116257E+03  0.00000000000E+00 0.  1.
         21   -1    0    0  502  503 -0.00000000000E+00 -0.00000000000E+00 -0.17312982346E+03  0.17312982346E+03  0.00000000000E+00 0.  1.
          6    1    1    2  501    0 -0.32246989526E+02 -0.74153834348E+02  0.11313691824E+03  0.22118458751E+03  0.17200000000E+03 0.  1.
         -6    1    1    2    0  503  0.32246989526E+02  0.74153834348E+02 -0.43285579120E+02  0.19492639852E+03  0.17200000000E+03 0.  1.
</event>
<event>
 4    1  0.4653733E+000  0.1731111E+03  0.7818608E-02  0.1174642E+00
         21   -1    0    0  503  502  0.00000000000E+00  0.00000000000E+00  0.30770595337E+03  0.30770595337E+03  0.00000000000E+00 0.  1.
         21   -1    0    0  501  503 -0.00000000000E+00 -0.00000000000E+00 -0.22147680103E+03  0.22147680103E+03  0.00000000000E+00 0.  1.
          6    1    1    2  501    0 -0.23137891145E+01  0.19444867700E+02 -0.15493527011E+03  0.23231959543E+03  0.17200000000E+03 0.  1.
         -6    1    1    2    0  502  0.23137891145E+01 -0.19444867700E+02  0.24116442244E+03  0.29686315897E+03  0.17200000000E+03 0.  1.
</event>
<event>
 4    1  0.4653733E+000  0.2347260E+03  0.7818608E-02  0.1123357E+00
         21   -1    0    0  501  502  0.00000000000E+00  0.00000000000E+00  0.91991076892E+02  0.91991076892E+02  0.00000000000E+00 0.  1.
         21   -1    0    0  502  503 -0.00000000000E+00 -0.00000000000E+00 -0.76689299314E+03  0.76689299314E+03  0.00000000000E+00 0.  1.
          6    1    1    2  501    0 -0.49393502031E+01  0.15964934301E+03 -0.13647567658E+03  0.27151780826E+03  0.17200000000E+03 0.  1.
         -6    1    1    2    0  503  0.49393502031E+01 -0.15964934301E+03 -0.53842623967E+03  0.58736626177E+03  0.17200000000E+03 0.  1.
</event>
<event>
 4    1  0.4653733E+000  0.1785603E+03  0.7818608E-02  0.1169204E+00
         21   -1    0    0  501  502  0.00000000000E+00  0.00000000000E+00  0.52498539109E+03  0.52498539109E+03  0.00000000000E+00 0.  1.
         21   -1    0    0  502  503 -0.00000000000E+00 -0.00000000000E+00 -0.65948651679E+02  0.65948651679E+02  0.00000000000E+00 0.  1.
          6    1    1    2  501    0 -0.41937183030E+02 -0.23260891700E+02  0.31261273088E+03  0.36001460513E+03  0.17200000000E+03 0.  1.
         -6    1    1    2    0  503  0.41937183030E+02  0.23260891700E+02  0.14642400854E+03  0.23091943764E+03  0.17200000000E+03 0.  1.
</event>
<event>
 4    1  0.4653733E+000  0.2705381E+03  0.7818608E-02  0.1100972E+00
         21   -1    0    0  503  502  0.00000000000E+00  0.00000000000E+00  0.40928758675E+03  0.40928758675E+03  0.00000000000E+00 0. -1.
         21   -1    0    0  501  503 -0.00000000000E+00 -0.00000000000E+00 -0.19613601923E+03  0.19613601923E+03  0.00000000000E+00 0.  1.
          6    1    1    2  501    0 -0.10386089089E+03  0.18116223362E+03  0.16644167422E+02  0.27104956716E+03  0.17200000000E+03 0.  1.
         -6    1    1    2    0  502  0.10386089089E+03 -0.18116223362E+03  0.19650740010E+03  0.33437403883E+03  0.17200000000E+03 0. -1.
</event>
<event>
 4    1  0.4653733E+000  0.1974978E+03  0.7818608E-02  0.1151867E+00
         21   -1    0    0  501  502  0.00000000000E+00  0.00000000000E+00  0.11214781910E+04  0.11214781910E+04  0.00000000000E+00 0.  1.
         21   -1    0    0  502  503 -0.00000000000E+00 -0.00000000000E+00 -0.39524915403E+02  0.39524915403E+02  0.00000000000E+00 0.  1.
          6    1    1    2  501    0 -0.96028020927E+02 -0.14142270313E+02  0.33985123746E+03  0.39307028406E+03  0.17200000000E+03 0.  1.
         -6    1    1    2    0  503  0.96028020927E+02  0.14142270313E+02  0.74210203813E+03  0.76793282233E+03  0.17200000000E+03 0.  1.
</event>
<event>
 4    1  0.4653733E+000  0.1974984E+03  0.7818608E-02  0.1151867E+00
         21   -1    0    0  503  502  0.00000000000E+00  0.00000000000E+00  0.16037176246E+03  0.16037176246E+03  0.00000000000E+00 0. -1.
         21   -1    0    0  501  503 -0.00000000000E+00 -0.00000000000E+00 -0.24447296862E+03  0.24447296862E+03  0.00000000000E+00 0. -1.
          6    1    1    2  501    0  0.86415874007E+02 -0.44203249459E+02 -0.56541719507E+02  0.20543270574E+03  0.17200000000E+03 0. -1.
         -6    1    1    2    0  502 -0.86415874007E+02  0.44203249459E+02 -0.27559486656E+02  0.19941202533E+03  0.17200000000E+03 0. -1.
</event>
<event>
 4    1  0.4653733E+000  0.1921258E+03  0.7818608E-02  0.1156558E+00
         21   -1    0    0  503  502  0.00000000000E+00  0.00000000000E+00  0.22901096335E+03  0.22901096335E+03  0.00000000000E+00 0. -1.
         21   -1    0    0  501  503 -0.00000000000E+00 -0.00000000000E+00 -0.16119328855E+03  0.16119328855E+03  0.00000000000E+00 0. -1.
          6    1    1    2  501    0 -0.19484959476E+02  0.83358695274E+02  0.32241953569E+02  0.19481242079E+03  0.17200000000E+03 0. -1.
         -6    1    1    2    0  502  0.19484959476E+02 -0.83358695274E+02  0.35575721233E+02  0.19539183111E+03  0.17200000000E+03 0. -1.
</event>
<event>
 4    1  0.4653733E+000  0.2811557E+03  0.7818608E-02  0.1095059E+00
         21   -1    0    0  503  502  0.00000000000E+00  0.00000000000E+00  0.18902039755E+03  0.18902039755E+03  0.00000000000E+00 0. -1.
         21   -1    0    0  501  503 -0.00000000000E+00 -0.00000000000E+00 -0.50422857789E+03  0.50422857789E+03  0.00000000000E+00 0. -1.
          6    1    1    2  501    0  0.13192332610E+03  0.17905517364E+03 -0.30077815716E+03  0.41172323107E+03  0.17200000000E+03 0. -1.
         -6    1    1    2    0  502 -0.13192332610E+03 -0.17905517364E+03 -0.14430023172E+02  0.28152574437E+03  0.17200000000E+03 0. -1.
</event>
<event>
 4    1  0.4653733E+000  0.2675765E+03  0.7818608E-02  0.1102675E+00
         21   -1    0    0  501  502  0.00000000000E+00  0.00000000000E+00  0.12483554110E+03  0.12483554110E+03  0.00000000000E+00 0.  1.
         21   -1    0    0  502  503 -0.00000000000E+00 -0.00000000000E+00 -0.69178693259E+03  0.69178693259E+03  0.00000000000E+00 0. -1.
          6    1    1    2  501    0  0.84492991460E+02 -0.18674606959E+03 -0.11465913667E+03  0.29110801730E+03  0.17200000000E+03 0.  1.
         -6    1    1    2    0  503 -0.84492991460E+02  0.18674606959E+03 -0.45229225481E+03  0.52551445639E+03  0.17200000000E+03 0.  1.
</event>
<event>
 4    1  0.4653733E+000  0.2070789E+03  0.7818608E-02  0.1143900E+00
         21   -1    0    0  501  502  0.00000000000E+00  0.00000000000E+00  0.10935340604E+03  0.10935340604E+03  0.00000000000E+00 0.  1.
         21   -1    0    0  502  503 -0.00000000000E+00 -0.00000000000E+00 -0.47855515482E+03  0.47855515482E+03  0.00000000000E+00 0. -1.
          6    1    1    2  501    0  0.18313520846E+01  0.11530093898E+03 -0.59686338239E+02  0.21550897743E+03  0.17200000000E+03 0.  1.
         -6    1    1    2    0  503 -0.18313520846E+01 -0.11530093898E+03 -0.30951541054E+03  0.37239958343E+03  0.17200000000E+03 0. -1.
</event>
<event>
 4    1  0.4653733E+000  0.1945642E+03  0.7818608E-02  0.1154408E+00
         21   -1    0    0  501  502  0.00000000000E+00  0.00000000000E+00  0.41496727408E+03  0.41496727408E+03  0.00000000000E+00 0. -1.
         21   -1    0    0  502  503 -0.00000000000E+00 -0.00000000000E+00 -0.43016332001E+03  0.43016332001E+03  0.00000000000E+00 0. -1.
          6    1    1    2  501    0 -0.90607953633E+02 -0.78386501540E+01  0.36749388815E+03  0.41582087914E+03  0.17200000000E+03 0. -1.
         -6    1    1    2    0  503  0.90607953633E+02  0.78386501540E+01 -0.38268993408E+03  0.42930971495E+03  0.17200000000E+03 0. -1.
</event>
<event>
 4    1  0.4653733E+000  0.2384618E+03  0.7818608E-02  0.1120822E+00
         21   -1    0    0  501  502  0.00000000000E+00  0.00000000000E+00  0.20919599499E+03  0.20919599499E+03  0.00000000000E+00 0.  1.
         21   -1    0    0  502  503 -0.00000000000E+00 -0.00000000000E+00 -0.27673546561E+03  0.27673546561E+03  0.00000000000E+00 0.  1.
          6    1    1    2  501    0  0.16515094350E+03  0.22783336745E+01 -0.13942056384E+01  0.23846586497E+03  0.17200000000E+03 0.  1.
         -6    1    1    2    0  503 -0.16515094350E+03 -0.22783336745E+01 -0.66145264983E+02  0.24746559564E+03  0.17200000000E+03 0.  1.
</event>
<event>
 4    1  0.4653733E+000  0.1755659E+03  0.7818608E-02  0.1172165E+00
         21   -1    0    0  501  502  0.00000000000E+00  0.00000000000E+00  0.74248777291E+03  0.74248777291E+03  0.00000000000E+00 0.  1.
         21   -1    0    0  502  503 -0.00000000000E+00 -0.00000000000E+00 -0.44976589883E+02  0.44976589883E+02  0.00000000000E+00 0.  1.
          6    1    1    2  501    0 -0.11837221548E+02  0.33154947737E+02  0.45800792752E+03  0.49050446689E+03  0.17200000000E+03 0.  1.
         -6    1    1    2    0  503  0.11837221548E+02 -0.33154947737E+02  0.23950325551E+03  0.29695989590E+03  0.17200000000E+03 0.  1.
</event>
<event>
 4    1  0.4653733E+000  0.1955570E+03  0.7818608E-02  0.1153543E+00
         21   -1    0    0  501  502  0.00000000000E+00  0.00000000000E+00  0.41286655290E+04  0.41286655290E+04  0.00000000000E+00 0. -1.
         21   -1    0    0  502  503 -0.00000000000E+00 -0.00000000000E+00 -0.93639316455E+01  0.93639316455E+01  0.00000000000E+00 0. -1.
          6    1    1    2  501    0 -0.60619635154E+02  0.70595914735E+02  0.22747938598E+04  0.22831840986E+04  0.17200000000E+03 0. -1.
         -6    1    1    2    0  503  0.60619635154E+02 -0.70595914735E+02  0.18445077376E+04  0.18548453621E+04  0.17200000000E+03 0. -1.
</event>
<event>
 4    1  0.4653733E+000  0.1914030E+03  0.7818608E-02  0.1157202E+00
         21   -1    0    0  503  502  0.00000000000E+00  0.00000000000E+00  0.44076336642E+03  0.44076336642E+03  0.00000000000E+00 0.  1.
         21   -1    0    0  501  503 -0.00000000000E+00 -0.00000000000E+00 -0.14908238593E+03  0.14908238593E+03  0.00000000000E+00 0. -1.
          6    1    1    2  501    0  0.28771942335E+02 -0.78887769197E+02 -0.50338290986E+02  0.19791171854E+03  0.17200000000E+03 0. -1.
         -6    1    1    2    0  502 -0.28771942335E+02  0.78887769197E+02  0.34201927148E+03  0.39193403381E+03  0.17200000000E+03 0.  1.
</event>
<event>
 4    1  0.4653733E+000  0.2113251E+03  0.7818608E-02  0.1140521E+00
         21   -1    0    0  503  502  0.00000000000E+00  0.00000000000E+00  0.11774212708E+04  0.11774212708E+04  0.00000000000E+00 0.  1.
         21   -1    0    0  501  503 -0.00000000000E+00 -0.00000000000E+00 -0.41182777756E+02  0.41182777756E+02  0.00000000000E+00 0. -1.
          6    1    1    2  501    0 -0.72533004158E+02 -0.99061876114E+02  0.39685152791E+03  0.44961030593E+03  0.17200000000E+03 0. -1.
         -6    1    1    2    0  502  0.72533004158E+02  0.99061876114E+02  0.73938696509E+03  0.76899374258E+03  0.17200000000E+03 0.  1.
</event>
<event>
 4    1  0.4653733E+000  0.1900403E+03  0.7818608E-02  0.1158425E+00
         21   -1    0    0  501  502  0.00000000000E+00  0.00000000000E+00  0.23232164419E+03  0.23232164419E+03  0.00000000000E+00 0. -1.
         21   -1    0    0  502  503 -0.00000000000E+00 -0.00000000000E+00 -0.16840305077E+03  0.16840305077E+03  0.00000000000E+00 0. -1.
          6    1    1    2  501    0 -0.62132934408E+01 -0.80577240861E+02  0.87519319955E+02  0.20922458776E+03  0.17200000000E+03 0. -1.
         -6    1    1    2    0  503  0.62132934408E+01  0.80577240861E+02 -0.23600726534E+02  0.19150010719E+03  0.17200000000E+03 0. -1.
</event>
<event>
 4    1  0.4653733E+000  0.1832570E+03  0.7818608E-02  0.1164688E+00
         21   -1    0    0  503  502  0.00000000000E+00  0.00000000000E+00  0.11782283309E+03  0.11782283309E+03  0.00000000000E+00 0. -1.
         21   -1    0    0  501  503 -0.00000000000E+00 -0.00000000000E+00 -0.34526033274E+03  0.34526033274E+03  0.00000000000E+00 0. -1.
          6    1    1    2  501    0  0.53930294830E+02 -0.33025069892E+02 -0.17011164804E+02  0.18404486320E+03  0.17200000000E+03 0. -1.
         -6    1    1    2    0  502 -0.53930294830E+02  0.33025069892E+02 -0.21042633485E+03  0.27903830264E+03  0.17200000000E+03 0. -1.
</event>
<event>
 4    1  0.4653733E+000  0.3806301E+03  0.7818608E-02  0.1050701E+00
         21   -1    0    0  503  502  0.00000000000E+00  0.00000000000E+00  0.25783782655E+03  0.25783782655E+03  0.00000000000E+00 0. -1.
         21   -1    0    0  501  503 -0.00000000000E+00 -0.00000000000E+00 -0.56190162538E+03  0.56190162538E+03  0.00000000000E+00 0. -1.
          6    1    1    2  501    0  0.32985869751E+03 -0.80551430192E+02 -0.15251417580E+03  0.41004861547E+03  0.17200000000E+03 0. -1.
         -6    1    1    2    0  502 -0.32985869751E+03  0.80551430192E+02 -0.15154962304E+03  0.40969083646E+03  0.17200000000E+03 0. -1.
</event>
<event>
 4    1  0.4653733E+000  0.2115990E+03  0.7818608E-02  0.1140306E+00
         21   -1    0    0  503  502  0.00000000000E+00  0.00000000000E+00  0.19945491021E+03  0.19945491021E+03  0.00000000000E+00 0. -1.
         21   -1    0    0  501  503 -0.00000000000E+00 -0.00000000000E+00 -0.33000549023E+03  0.33000549023E+03  0.00000000000E+00 0. -1.
          6    1    1    2  501    0  0.12080586250E+03  0.24414597575E+02 -0.21497347392E+03  0.30164171376E+03  0.17200000000E+03 0. -1.
         -6    1    1    2    0  502 -0.12080586250E+03 -0.24414597575E+02  0.84422893896E+02  0.22781868668E+03  0.17200000000E+03 0. -1.
</event>
<event>
 4    1  0.4653733E+000  0.2211197E+03  0.7818608E-02  0.1133051E+00
         21   -1    0    0  503  502  0.00000000000E+00  0.00000000000E+00  0.46250208308E+03  0.46250208308E+03  0.00000000000E+00 0. -1.
         21   -1    0    0  501  503 -0.00000000000E+00 -0.00000000000E+00 -0.11765793781E+03  0.11765793781E+03  0.00000000000E+00 0. -1.
          6    1    1    2  501    0  0.54762063790E+02 -0.12771466022E+03  0.80007021629E+02  0.23514897741E+03  0.17200000000E+03 0. -1.
         -6    1    1    2    0  502 -0.54762063790E+02  0.12771466022E+03  0.26483712364E+03  0.34501104348E+03  0.17200000000E+03 0. -1.
</event>
<event>
 4    1  0.4653733E+000  0.3284240E+03  0.7818608E-02  0.1071836E+00
         21   -1    0    0  503  502  0.00000000000E+00  0.00000000000E+00  0.41921001341E+03  0.41921001341E+03  0.00000000000E+00 0. -1.
         21   -1    0    0  501  503 -0.00000000000E+00 -0.00000000000E+00 -0.40977365802E+03  0.40977365802E+03  0.00000000000E+00 0.  1.
          6    1    1    2  501    0 -0.14014758957E+03  0.24215070850E+03 -0.24812009367E+03  0.41161376723E+03  0.17200000000E+03 0.  1.
         -6    1    1    2    0  502  0.14014758957E+03 -0.24215070850E+03  0.25755644906E+03  0.41736990421E+03  0.17200000000E+03 0. -1.
</event>
<event>
 4    1  0.4653733E+000  0.2065629E+03  0.7818608E-02  0.1144317E+00
         21   -1    0    0  503  502  0.00000000000E+00  0.00000000000E+00  0.38149415427E+02  0.38149415427E+02  0.00000000000E+00 0. -1.
         21   -1    0    0  501  503 -0.00000000000E+00 -0.00000000000E+00 -0.15856967238E+04  0.15856967238E+04  0.00000000000E+00 0. -1.
          6    1    1    2  501    0  0.68716544656E+02 -0.91445464704E+02 -0.12145087869E+04  0.12319496053E+04  0.17200000000E+03 0. -1.
         -6    1    1    2    0  502 -0.68716544656E+02  0.91445464704E+02 -0.33303852146E+03  0.39189653392E+03  0.17200000000E+03 0. -1.
</event>
<event>
 4    1  0.4653733E+000  0.1726761E+03  0.7818608E-02  0.1175085E+00
         21   -1    0    0  501  502  0.00000000000E+00  0.00000000000E+00  0.41916641786E+03  0.41916641786E+03  0.00000000000E+00 0.  1.
         21   -1    0    0  502  503 -0.00000000000E+00 -0.00000000000E+00 -0.92496024173E+02  0.92496024173E+02  0.00000000000E+00 0.  1.
          6    1    1    2  501    0 -0.11484972526E+02  0.10056454833E+02  0.28628049622E+03  0.33432552908E+03  0.17200000000E+03 0.  1.
         -6    1    1    2    0  503  0.11484972526E+02 -0.10056454833E+02  0.40389897461E+02  0.17733691295E+03  0.17200000000E+03 0.  1.
</event>
<event>
 4    1  0.4653733E+000  0.1833130E+03  0.7818608E-02  0.1164635E+00
         21   -1    0    0  503  502  0.00000000000E+00  0.00000000000E+00  0.12311432201E+04  0.12311432201E+04  0.00000000000E+00 0.  1.
         21   -1    0    0  501  503 -0.00000000000E+00 -0.00000000000E+00 -0.27298942305E+02  0.27298942305E+02  0.00000000000E+00 0.  1.
          6    1    1    2  501    0 -0.21871178599E+02  0.59508761766E+02  0.59404552833E+03  0.62168619971E+03  0.17200000000E+03 0.  1.
         -6    1    1    2    0  502  0.21871178599E+02 -0.59508761766E+02  0.60979874947E+03  0.63675596270E+03  0.17200000000E+03 0.  1.
</event>
<event>
 4    1  0.4653733E+000  0.2032833E+03  0.7818608E-02  0.1146998E+00
         21   -1    0    0  503  502  0.00000000000E+00  0.00000000000E+00  0.37247094627E+03  0.37247094627E+03  0.00000000000E+00 0.  1.
         21   -1    0    0  501  503 -0.00000000000E+00 -0.00000000000E+00 -0.11307324680E+03  0.11307324680E+03  0.00000000000E+00 0. -1.
          6    1    1    2  501    0 -0.10133620704E+03 -0.38354391958E+02  0.96398527916E+02  0.22498169353E+03  0.17200000000E+03 0.  1.
         -6    1    1    2    0  502  0.10133620704E+03  0.38354391958E+02  0.16299917155E+03  0.26056249954E+03  0.17200000000E+03 0. -1.
</event>
<event>
 4    1  0.4653733E+000  0.2372009E+03  0.7818608E-02  0.1121672E+00
         21   -1    0    0  501  502  0.00000000000E+00  0.00000000000E+00  0.80047518919E+03  0.80047518919E+03  0.00000000000E+00 0. -1.
         21   -1    0    0  502  503 -0.00000000000E+00 -0.00000000000E+00 -0.12279599595E+03  0.12279599595E+03  0.00000000000E+00 0.  1.
          6    1    1    2  501    0  0.11617608568E+03 -0.11481885376E+03  0.64070793874E+03  0.68320634864E+03  0.17200000000E+03 0.  1.
         -6    1    1    2    0  503 -0.11617608568E+03  0.11481885376E+03  0.36971254504E+02  0.24006483650E+03  0.17200000000E+03 0. -1.
</event>
<event>
 4    1  0.4653733E+000  0.1877988E+03  0.7818608E-02  0.1160462E+00
         21   -1    0    0  501  502  0.00000000000E+00  0.00000000000E+00  0.27725654752E+02  0.27725654752E+02  0.00000000000E+00 0. -1.
         21   -1    0    0  502  503 -0.00000000000E+00 -0.00000000000E+00 -0.19186646739E+04  0.19186646739E+04  0.00000000000E+00 0. -1.
          6    1    1    2  501    0 -0.43924425593E+01 -0.75266941408E+02 -0.38050217379E+03  0.42432335580E+03  0.17200000000E+03 0. -1.
         -6    1    1    2    0  503  0.43924425593E+01  0.75266941408E+02 -0.15104368453E+04  0.15220669728E+04  0.17200000000E+03 0. -1.
</event>
<event>
 4    1  0.4653733E+000  0.3266539E+03  0.7818608E-02  0.1072627E+00
         21   -1    0    0  503  502  0.00000000000E+00  0.00000000000E+00  0.84419627062E+03  0.84419627062E+03  0.00000000000E+00 0.  1.
         21   -1    0    0  501  503 -0.00000000000E+00 -0.00000000000E+00 -0.29156422060E+03  0.29156422060E+03  0.00000000000E+00 0.  1.
          6    1    1    2  501    0 -0.22550983178E+03 -0.16206203425E+03 -0.15110243317E+03  0.35990933925E+03  0.17200000000E+03 0.  1.
         -6    1    1    2    0  502  0.22550983178E+03  0.16206203425E+03  0.70373448319E+03  0.77585115196E+03  0.17200000000E+03 0.  1.
</event>
<event>
 4    1  0.4653733E+000  0.1928632E+03  0.7818608E-02  0.1155904E+00
         21   -1    0    0  503  502  0.00000000000E+00  0.00000000000E+00  0.12336096112E+03  0.12336096112E+03  0.00000000000E+00 0.  1.
         21   -1    0    0  501  503 -0.00000000000E+00 -0.00000000000E+00 -0.30153211732E+03  0.30153211732E+03  0.00000000000E+00 0.  1.
          6    1    1    2  501    0 -0.39584198616E+01 -0.87158154898E+02 -0.87941504173E+02  0.21196679270E+03  0.17200000000E+03 0.  1.
         -6    1    1    2    0  502  0.39584198616E+01  0.87158154898E+02 -0.90229652030E+02  0.21292628574E+03  0.17200000000E+03 0.  1.
</event>
<event>
 4    1  0.4653733E+000  0.1849683E+03  0.7818608E-02  0.1163079E+00
         21   -1    0    0  501  502  0.00000000000E+00  0.00000000000E+00  0.26984947424E+03  0.26984947424E+03  0.00000000000E+00 0.  1.
         21   -1    0    0  502  503 -0.00000000000E+00 -0.00000000000E+00 -0.12854974319E+03  0.12854974319E+03  0.00000000000E+00 0.  1.
          6    1    1    2  501    0  0.59855744119E+02 -0.32350812107E+02  0.93979193879E+02  0.20747379119E+03  0.17200000000E+03 0.  1.
         -6    1    1    2    0  503 -0.59855744119E+02  0.32350812107E+02  0.47320537171E+02  0.19092542624E+03  0.17200000000E+03 0.  1.
</event>
<event>
 4    1  0.4653733E+000  0.2055595E+03  0.7818608E-02  0.1145131E+00
         21   -1    0    0  501  502  0.00000000000E+00  0.00000000000E+00  0.89930402189E+02  0.89930402189E+02  0.00000000000E+00 0.  1.
         21   -1    0    0  502  503 -0.00000000000E+00 -0.00000000000E+00 -0.47061465594E+03  0.47061465594E+03  0.00000000000E+00 0. -1.
          6    1    1    2  501    0  0.51731742571E+02  0.99972671084E+02 -0.17911955773E+03  0.27265091988E+03  0.17200000000E+03 0. -1.
         -6    1    1    2    0  503 -0.51731742571E+02 -0.99972671084E+02 -0.20156469602E+03  0.28789413824E+03  0.17200000000E+03 0. -1.
</event>
<event>
 4    1  0.4653733E+000  0.2348104E+03  0.7818608E-02  0.1123299E+00
         21   -1    0    0  501  502  0.00000000000E+00  0.00000000000E+00  0.93014507344E+02  0.93014507344E+02  0.00000000000E+00 0. -1.
         21   -1    0    0  502  503 -0.00000000000E+00 -0.00000000000E+00 -0.85531776512E+03  0.85531776512E+03  0.00000000000E+00 0. -1.
          6    1    1    2  501    0  0.14119283825E+03 -0.74943232155E+02 -0.11844341400E+03  0.26299191611E+03  0.17200000000E+03 0. -1.
         -6    1    1    2    0  503 -0.14119283825E+03  0.74943232155E+02 -0.64385984378E+03  0.68534035635E+03  0.17200000000E+03 0. -1.
</event>
<event>
 4    1  0.4653733E+000  0.3478243E+03  0.7818608E-02  0.1063512E+00
         21   -1    0    0  503  502  0.00000000000E+00  0.00000000000E+00  0.26236025432E+03  0.26236025432E+03  0.00000000000E+00 0. -1.
         21   -1    0    0  501  503 -0.00000000000E+00 -0.00000000000E+00 -0.84773691977E+03  0.84773691977E+03  0.00000000000E+00 0.  1.
          6    1    1    2  501    0  0.30196973930E+03  0.14562024448E+02 -0.66751988186E+03  0.75270483504E+03  0.17200000000E+03 0.  1.
         -6    1    1    2    0  502 -0.30196973930E+03 -0.14562024448E+02  0.82143216412E+02  0.35739233905E+03  0.17200000000E+03 0. -1.
</event>
<event>
 4    1  0.4653733E+000  0.2739184E+03  0.7818608E-02  0.1099058E+00
         21   -1    0    0  503  502  0.00000000000E+00  0.00000000000E+00  0.17001792496E+03  0.17001792496E+03  0.00000000000E+00 0. -1.
         21   -1    0    0  501  503 -0.00000000000E+00 -0.00000000000E+00 -0.53313809498E+03  0.53313809498E+03  0.00000000000E+00 0. -1.
          6    1    1    2  501    0 -0.11791333626E+02 -0.21285742020E+03 -0.32746832119E+03  0.42692718146E+03  0.17200000000E+03 0. -1.
         -6    1    1    2    0  502  0.11791333626E+02  0.21285742020E+03 -0.35651848823E+02  0.27622883848E+03  0.17200000000E+03 0. -1.
</event>
<event>
 4    1  0.4653733E+000  0.2233884E+03  0.7818608E-02  0.1131382E+00
         21   -1    0    0  501  502  0.00000000000E+00  0.00000000000E+00  0.42281581496E+03  0.42281581496E+03  0.00000000000E+00 0.  1.
         21   -1    0    0  502  503 -0.00000000000E+00 -0.00000000000E+00 -0.12344592256E+03  0.12344592256E+03  0.00000000000E+00 0.  1.
          6    1    1    2  501    0  0.13009861303E+03  0.58246956768E+02  0.92442994428E+02  0.24176034477E+03  0.17200000000E+03 0.  1.
         -6    1    1    2    0  503 -0.13009861303E+03 -0.58246956768E+02  0.20692689797E+03  0.30450139276E+03  0.17200000000E+03 0.  1.
</event>
<event>
 4    1  0.4653733E+000  0.4998977E+03  0.7818608E-02  0.1013806E+00
         21   -1    0    0  503  502  0.00000000000E+00  0.00000000000E+00  0.41337365414E+03  0.41337365414E+03  0.00000000000E+00 0.  1.
         21   -1    0    0  501  503 -0.00000000000E+00 -0.00000000000E+00 -0.80149871995E+03  0.80149871995E+03  0.00000000000E+00 0. -1.
          6    1    1    2  501    0 -0.36548952411E+03 -0.29450145468E+03 -0.49518656112E+03  0.70363870655E+03  0.17200000000E+03 0. -1.
         -6    1    1    2    0  502  0.36548952411E+03  0.29450145468E+03  0.10706149531E+03  0.51123366753E+03  0.17200000000E+03 0.  1.
</event>
<event>
 4    1  0.4653733E+000  0.2644696E+03  0.7818608E-02  0.1104487E+00
         21   -1    0    0  503  502  0.00000000000E+00  0.00000000000E+00  0.14275984760E+03  0.14275984760E+03  0.00000000000E+00 0. -1.
         21   -1    0    0  501  503 -0.00000000000E+00 -0.00000000000E+00 -0.16775455107E+04  0.16775455107E+04  0.00000000000E+00 0.  1.
          6    1    1    2  501    0  0.11482090707E+03 -0.16485252409E+03 -0.15331880324E+04  0.15558308835E+04  0.17200000000E+03 0.  1.
         -6    1    1    2    0  502 -0.11482090707E+03  0.16485252409E+03 -0.15976307102E+01  0.26447447481E+03  0.17200000000E+03 0. -1.
</event>
<event>
 4    1  0.4653733E+000  0.2341799E+03  0.7818608E-02  0.1123732E+00
         21   -1    0    0  503  502  0.00000000000E+00  0.00000000000E+00  0.93423830934E+03  0.93423830934E+03  0.00000000000E+00 0.  1.
         21   -1    0    0  501  503 -0.00000000000E+00 -0.00000000000E+00 -0.64874209684E+02  0.64874209684E+02  0.00000000000E+00 0.  1.
          6    1    1    2  501    0 -0.61060746680E+02 -0.14672357648E+03  0.28057492555E+03  0.36546205210E+03  0.17200000000E+03 0.  1.
         -6    1    1    2    0  502  0.61060746680E+02  0.14672357648E+03  0.58878917411E+03  0.63365046692E+03  0.17200000000E+03 0.  1.
</event>
<event>
 4    1  0.4653733E+000  0.2441695E+03  0.7818608E-02  0.1117046E+00
         21   -1    0    0  501  502  0.00000000000E+00  0.00000000000E+00  0.38057008468E+03  0.38057008468E+03  0.00000000000E+00 0. -1.
         21   -1    0    0  502  503 -0.00000000000E+00 -0.00000000000E+00 -0.29980677767E+03  0.29980677767E+03  0.00000000000E+00 0.  1.
          6    1    1    2  501    0 -0.16205103700E+03 -0.61434558880E+02  0.27545048551E+03  0.36809199065E+03  0.17200000000E+03 0. -1.
         -6    1    1    2    0  503  0.16205103700E+03  0.61434558880E+02 -0.19468717850E+03  0.31228487169E+03  0.17200000000E+03 0. -1.
</event>
<event>
 4    1  0.4653733E+000  0.1848530E+03  0.7818608E-02  0.1163187E+00
         21   -1    0    0  501  502  0.00000000000E+00  0.00000000000E+00  0.27138141194E+04  0.27138141194E+04  0.00000000000E+00 0.  1.
         21   -1    0    0  502  503 -0.00000000000E+00 -0.00000000000E+00 -0.13534559063E+02  0.13534559063E+02  0.00000000000E+00 0.  1.
          6    1    1    2  501    0  0.51081610510E+02 -0.44466926443E+02  0.99015186355E+03  0.10072593268E+04  0.17200000000E+03 0.  1.
         -6    1    1    2    0  503 -0.51081610510E+02  0.44466926443E+02  0.17101276968E+04  0.17200893517E+04  0.17200000000E+03 0.  1.
</event>
<event>
 4    1  0.4653733E+000  0.2641502E+03  0.7818608E-02  0.1104675E+00
         21   -1    0    0  503  502  0.00000000000E+00  0.00000000000E+00  0.29872189255E+03  0.29872189255E+03  0.00000000000E+00 0.  1.
         21   -1    0    0  501  503 -0.00000000000E+00 -0.00000000000E+00 -0.28415443028E+03  0.28415443028E+03  0.00000000000E+00 0. -1.
          6    1    1    2  501    0  0.12303258693E+03  0.15828554753E+03 -0.11566853485E+03  0.28836529256E+03  0.17200000000E+03 0. -1.
         -6    1    1    2    0  502 -0.12303258693E+03 -0.15828554753E+03  0.13023599712E+03  0.29451103026E+03  0.17200000000E+03 0.  1.
</event>
<event>
 4    1  0.4653733E+000  0.1742624E+03  0.7818608E-02  0.1173474E+00
         21   -1    0    0  501  502  0.00000000000E+00  0.00000000000E+00  0.49182067198E+03  0.49182067198E+03  0.00000000000E+00 0.  1.
         21   -1    0    0  502  503 -0.00000000000E+00 -0.00000000000E+00 -0.68064725382E+02  0.68064725382E+02  0.00000000000E+00 0.  1.
          6    1    1    2  501    0  0.13071653707E+02 -0.24749168771E+02  0.12657529981E+03  0.21538035195E+03  0.17200000000E+03 0.  1.
         -6    1    1    2    0  503 -0.13071653707E+02  0.24749168771E+02  0.29718064679E+03  0.34450504541E+03  0.17200000000E+03 0.  1.
</event>
<event>
 4    1  0.4653733E+000  0.1816270E+03  0.7818608E-02  0.1166238E+00
         21   -1    0    0  503  502  0.00000000000E+00  0.00000000000E+00  0.21621918078E+03  0.21621918078E+03  0.00000000000E+00 0. -1.
         21   -1    0    0  501  503 -0.00000000000E+00 -0.00000000000E+00 -0.24892032569E+03  0.24892032569E+03  0.00000000000E+00 0.  1.
          6    1    1    2  501    0  0.52893159375E+02  0.24631122557E+02 -0.16104491185E+03  0.24274233693E+03  0.17200000000E+03 0.  1.
         -6    1    1    2    0  502 -0.52893159375E+02 -0.24631122557E+02  0.12834376693E+03  0.22239716954E+03  0.17200000000E+03 0. -1.
</event>
<event>
 4    1  0.4653733E+000  0.2002364E+03  0.7818608E-02  0.1149540E+00
         21   -1    0    0  503  502  0.00000000000E+00  0.00000000000E+00  0.16270452241E+03  0.16270452241E+03  0.00000000000E+00 0. -1.
         21   -1    0    0  501  503 -0.00000000000E+00 -0.00000000000E+00 -0.24652464462E+03  0.24652464462E+03  0.00000000000E+00 0. -1.
          6    1    1    2  501    0  0.82226065459E+02  0.61233163459E+02 -0.37817240402E+02  0.20377627394E+03  0.17200000000E+03 0. -1.
         -6    1    1    2    0  502 -0.82226065459E+02 -0.61233163459E+02 -0.46002881804E+02  0.20545289310E+03  0.17200000000E+03 0. -1.
</event>
<event>
 4    1  0.4653733E+000  0.2841408E+03  0.7818608E-02  0.1093449E+00
         21   -1    0    0  501  502  0.00000000000E+00  0.00000000000E+00  0.60157602649E+03  0.60157602649E+03  0.00000000000E+00 0.  1.
         21   -1    0    0  502  503 -0.00000000000E+00 -0.00000000000E+00 -0.16547899959E+03  0.16547899959E+03  0.00000000000E+00 0. -1.
          6    1    1    2  501    0  0.11820921361E+02 -0.22585898919E+03  0.38477300620E+03  0.47831609160E+03  0.17200000000E+03 0.  1.
         -6    1    1    2    0  503 -0.11820921361E+02  0.22585898919E+03  0.51324020695E+02  0.28873893447E+03  0.17200000000E+03 0. -1.
</event>
<event>
 4    1  0.4653733E+000  0.1962798E+03  0.7818608E-02  0.1152916E+00
         21   -1    0    0  503  502  0.00000000000E+00  0.00000000000E+00  0.55455370271E+02  0.55455370271E+02  0.00000000000E+00 0. -1.
         21   -1    0    0  501  503 -0.00000000000E+00 -0.00000000000E+00 -0.16986453800E+04  0.16986453800E+04  0.00000000000E+00 0. -1.
          6    1    1    2  501    0  0.18988298094E+02  0.92634851430E+02 -0.14958506803E+04  0.15086732678E+04  0.17200000000E+03 0. -1.
         -6    1    1    2    0  502 -0.18988298094E+02 -0.92634851430E+02 -0.14733932943E+03  0.24542748249E+03  0.17200000000E+03 0. -1.
</event>
<event>
 4    1  0.4653733E+000  0.1756867E+03  0.7818608E-02  0.1172044E+00
         21   -1    0    0  501  502  0.00000000000E+00  0.00000000000E+00  0.87212904106E+03  0.87212904106E+03  0.00000000000E+00 0.  1.
         21   -1    0    0  502  503 -0.00000000000E+00 -0.00000000000E+00 -0.44683644602E+02  0.44683644602E+02  0.00000000000E+00 0.  1.
          6    1    1    2  501    0  0.15055466560E+02  0.32483106314E+02  0.62276681007E+03  0.64707365809E+03  0.17200000000E+03 0.  1.
         -6    1    1    2    0  503 -0.15055466560E+02 -0.32483106314E+02  0.20467858638E+03  0.26973902757E+03  0.17200000000E+03 0.  1.
</event>
<event>
 4    1  0.4653733E+000  0.1980529E+03  0.7818608E-02  0.1151392E+00
         21   -1    0    0  501  502  0.00000000000E+00  0.00000000000E+00  0.45733085656E+03  0.45733085656E+03  0.00000000000E+00 0. -1.
         21   -1    0    0  502  503 -0.00000000000E+00 -0.00000000000E+00 -0.92580446710E+02  0.92580446710E+02  0.00000000000E+00 0. -1.
          6    1    1    2  501    0  0.97789136164E+02  0.88452104359E+01  0.25695355165E+03  0.32442268818E+03  0.17200000000E+03 0.  1.
         -6    1    1    2    0  503 -0.97789136164E+02 -0.88452104359E+01  0.10779685820E+03  0.22548861510E+03  0.17200000000E+03 0.  1.
</event>
<event>
 4    1  0.4653733E+000  0.2227537E+03  0.7818608E-02  0.1131847E+00
         21   -1    0    0  501  502  0.00000000000E+00  0.00000000000E+00  0.80748386180E+03  0.80748386180E+03  0.00000000000E+00 0. -1.
         21   -1    0    0  502  503 -0.00000000000E+00 -0.00000000000E+00 -0.76104647152E+02  0.76104647152E+02  0.00000000000E+00 0.  1.
          6    1    1    2  501    0  0.27185894620E+02  0.13891048312E+03  0.55956147101E+03  0.60226923799E+03  0.17200000000E+03 0.  1.
         -6    1    1    2    0  503 -0.27185894620E+02 -0.13891048312E+03  0.17181774364E+03  0.28131927097E+03  0.17200000000E+03 0.  1.
</event>
<event>
 4    1  0.4653733E+000  0.3435068E+03  0.7818608E-02  0.1065312E+00
         21   -1    0    0  501  502  0.00000000000E+00  0.00000000000E+00  0.80131338454E+03  0.80131338454E+03  0.00000000000E+00 0.  1.
         21   -1    0    0  502  503 -0.00000000000E+00 -0.00000000000E+00 -0.19511702441E+03  0.19511702441E+03  0.00000000000E+00 0. -1.
          6    1    1    2  501    0 -0.27489305872E+00  0.29734292713E+03  0.54985423469E+03  0.64833368823E+03  0.17200000000E+03 0.  1.
         -6    1    1    2    0  503  0.27489305872E+00 -0.29734292713E+03  0.56342125432E+02  0.34809672073E+03  0.17200000000E+03 0. -1.
</event>
<event>
 4    1  0.4653733E+000  0.2170275E+03  0.7818608E-02  0.1136119E+00
         21   -1    0    0  501  502  0.00000000000E+00  0.00000000000E+00  0.72616748499E+02  0.72616748499E+02  0.00000000000E+00 0.  1.
         21   -1    0    0  502  503 -0.00000000000E+00 -0.00000000000E+00 -0.64863209373E+03  0.64863209373E+03  0.00000000000E+00 0.  1.
          6    1    1    2  501    0 -0.50727418171E+02  0.12224425962E+03 -0.28669544285E+03  0.35957642709E+03  0.17200000000E+03 0.  1.
         -6    1    1    2    0  503  0.50727418171E+02 -0.12224425962E+03 -0.28931990238E+03  0.36167241514E+03  0.17200000000E+03 0.  1.
</event>
<event>
 4    1  0.4653733E+000  0.2814635E+03  0.7818608E-02  0.1094892E+00
         21   -1    0    0  501  502  0.00000000000E+00  0.00000000000E+00  0.67550921791E+03  0.67550921791E+03  0.00000000000E+00 0.  1.
         21   -1    0    0  502  503 -0.00000000000E+00 -0.00000000000E+00 -0.41453402563E+03  0.41453402563E+03  0.00000000000E+00 0. -1.
          6    1    1    2  501    0 -0.22261478218E+03 -0.89641851905E+01  0.59201734549E+03  0.65551982062E+03  0.17200000000E+03 0.  1.
         -6    1    1    2    0  503  0.22261478218E+03  0.89641851905E+01 -0.33104215321E+03  0.43452342292E+03  0.17200000000E+03 0. -1.
</event>
<event>
 4    1  0.4653733E+000  0.1732976E+03  0.7818608E-02  0.1174452E+00
         21   -1    0    0  503  502  0.00000000000E+00  0.00000000000E+00  0.21649229408E+03  0.21649229408E+03  0.00000000000E+00 0.  1.
         21   -1    0    0  501  503 -0.00000000000E+00 -0.00000000000E+00 -0.23784083745E+03  0.23784083745E+03  0.00000000000E+00 0.  1.
          6    1    1    2  501    0  0.18528028492E+02 -0.10236120880E+02 -0.15732394539E+03  0.23405744979E+03  0.17200000000E+03 0.  1.
         -6    1    1    2    0  502 -0.18528028492E+02  0.10236120880E+02  0.13597540202E+03  0.22027568174E+03  0.17200000000E+03 0.  1.
</event>
<event>
 4    1  0.4653733E+000  0.4776715E+03  0.7818608E-02  0.1019777E+00
         21   -1    0    0  501  502  0.00000000000E+00  0.00000000000E+00  0.47239938981E+03  0.47239938981E+03  0.00000000000E+00 0.  1.
         21   -1    0    0  502  503 -0.00000000000E+00 -0.00000000000E+00 -0.48770203004E+03  0.48770203004E+03  0.00000000000E+00 0. -1.
          6    1    1    2  501    0 -0.29841716407E+02 -0.44462962303E+03 -0.54775367345E+02  0.48080179968E+03  0.17200000000E+03 0. -1.
         -6    1    1    2    0  503  0.29841716407E+02  0.44462962303E+03  0.39472727112E+02  0.47929962017E+03  0.17200000000E+03 0.  1.
</event>
<event>
 4    1  0.4653733E+000  0.1980430E+03  0.7818608E-02  0.1151401E+00
         21   -1    0    0  503  502  0.00000000000E+00  0.00000000000E+00  0.47882240789E+03  0.47882240789E+03  0.00000000000E+00 0. -1.
         21   -1    0    0  501  503 -0.00000000000E+00 -0.00000000000E+00 -0.20674234026E+03  0.20674234026E+03  0.00000000000E+00 0.  1.
          6    1    1    2  501    0 -0.86392886685E+02 -0.46618694641E+02 -0.13031739708E+03  0.23707310590E+03  0.17200000000E+03 0.  1.
         -6    1    1    2    0  502  0.86392886685E+02  0.46618694641E+02  0.40239746472E+03  0.44849164225E+03  0.17200000000E+03 0. -1.
</event>
<event>
 4    1  0.4653733E+000  0.1808629E+03  0.7818608E-02  0.1166971E+00
         21   -1    0    0  503  502  0.00000000000E+00  0.00000000000E+00  0.26874839569E+03  0.26874839569E+03  0.00000000000E+00 0.  1.
         21   -1    0    0  501  503 -0.00000000000E+00 -0.00000000000E+00 -0.12275623944E+03  0.12275623944E+03  0.00000000000E+00 0.  1.
          6    1    1    2  501    0 -0.52025607222E+02  0.20511229427E+02  0.91003231200E+02  0.20246718852E+03  0.17200000000E+03 0.  1.
         -6    1    1    2    0  502  0.52025607222E+02 -0.20511229427E+02  0.54988925052E+02  0.18903744660E+03  0.17200000000E+03 0.  1.
</event>
<event>
 4    1  0.4653733E+000  0.1755886E+03  0.7818608E-02  0.1172142E+00
         21   -1    0    0  503  502  0.00000000000E+00  0.00000000000E+00  0.76702372161E+03  0.76702372161E+03  0.00000000000E+00 0.  1.
         21   -1    0    0  501  503 -0.00000000000E+00 -0.00000000000E+00 -0.51800777180E+02  0.51800777180E+02  0.00000000000E+00 0.  1.
          6    1    1    2  501    0 -0.24765014550E+02 -0.25180408063E+02  0.16383131344E+03  0.24015007424E+03  0.17200000000E+03 0.  1.
         -6    1    1    2    0  502  0.24765014550E+02  0.25180408063E+02  0.55139163099E+03  0.57867442455E+03  0.17200000000E+03 0.  1.
</event>
<event>
 4    1  0.4653733E+000  0.1854568E+03  0.7818608E-02  0.1162624E+00
         21   -1    0    0  501  502  0.00000000000E+00  0.00000000000E+00  0.17915461413E+03  0.17915461413E+03  0.00000000000E+00 0.  1.
         21   -1    0    0  502  503 -0.00000000000E+00 -0.00000000000E+00 -0.21099673829E+03  0.21099673829E+03  0.00000000000E+00 0.  1.
          6    1    1    2  501    0 -0.27059388803E+02 -0.63859409134E+02  0.42642146362E+02  0.19029605173E+03  0.17200000000E+03 0.  1.
         -6    1    1    2    0  503  0.27059388803E+02  0.63859409134E+02 -0.74484270523E+02  0.19985530069E+03  0.17200000000E+03 0.  1.
</event>
<event>
 4    1  0.4653733E+000  0.1897140E+03  0.7818608E-02  0.1158720E+00
         21   -1    0    0  503  502  0.00000000000E+00  0.00000000000E+00  0.60443635483E+02  0.60443635483E+02  0.00000000000E+00 0. -1.
         21   -1    0    0  501  503 -0.00000000000E+00 -0.00000000000E+00 -0.75341079905E+03  0.75341079905E+03  0.00000000000E+00 0. -1.
          6    1    1    2  501    0  0.79854145361E+02 -0.55409257188E+01 -0.53280826549E+03  0.56557584298E+03  0.17200000000E+03 0. -1.
         -6    1    1    2    0  502 -0.79854145361E+02  0.55409257188E+01 -0.16015889808E+03  0.24827859155E+03  0.17200000000E+03 0. -1.
</event>
<event>
 4    1  0.4653733E+000  0.1736803E+03  0.7818608E-02  0.1174063E+00
         21   -1    0    0  503  502  0.00000000000E+00  0.00000000000E+00  0.54355497187E+02  0.54355497187E+02  0.00000000000E+00 0. -1.
         21   -1    0    0  501  503 -0.00000000000E+00 -0.00000000000E+00 -0.56078482472E+03  0.56078482472E+03  0.00000000000E+00 0. -1.
          6    1    1    2  501    0  0.21082520633E+02  0.11678044716E+02 -0.28457477658E+03  0.33338814147E+03  0.17200000000E+03 0.  1.
         -6    1    1    2    0  502 -0.21082520633E+02 -0.11678044716E+02 -0.22185455095E+03  0.28175218044E+03  0.17200000000E+03 0.  1.
</event>
<event>
 4    1  0.4653733E+000  0.1754934E+03  0.7818608E-02  0.1172237E+00
         21   -1    0    0  503  502  0.00000000000E+00  0.00000000000E+00  0.16490724344E+03  0.16490724344E+03  0.00000000000E+00 0.  1.
         21   -1    0    0  501  503 -0.00000000000E+00 -0.00000000000E+00 -0.18677911694E+03  0.18677911694E+03  0.00000000000E+00 0.  1.
          6    1    1    2  501    0 -0.31364081912E+02 -0.15173557916E+02 -0.91194638062E+01  0.17573021116E+03  0.17200000000E+03 0.  1.
         -6    1    1    2    0  502  0.31364081912E+02  0.15173557916E+02 -0.12752409689E+02  0.17595614922E+03  0.17200000000E+03 0.  1.
</event>
<event>
 4    1  0.4653733E+000  0.1827894E+03  0.7818608E-02  0.1165130E+00
         21   -1    0    0  503  502  0.00000000000E+00  0.00000000000E+00  0.76705529229E+02  0.76705529229E+02  0.00000000000E+00 0. -1.
         21   -1    0    0  501  503 -0.00000000000E+00 -0.00000000000E+00 -0.50667351578E+03  0.50667351578E+03  0.00000000000E+00 0. -1.
          6    1    1    2  501    0 -0.60681815881E+02 -0.12069828093E+02 -0.32424094025E+03  0.37221519430E+03  0.17200000000E+03 0. -1.
         -6    1    1    2    0  502  0.60681815881E+02  0.12069828093E+02 -0.10572704630E+03  0.21116385071E+03  0.17200000000E+03 0. -1.
</event>
<event>
 4    1  0.4653733E+000  0.2464612E+03  0.7818608E-02  0.1115562E+00
         21   -1    0    0  503  502  0.00000000000E+00  0.00000000000E+00  0.38488784016E+03  0.38488784016E+03  0.00000000000E+00 0. -1.
         21   -1    0    0  501  503 -0.00000000000E+00 -0.00000000000E+00 -0.19943144241E+03  0.19943144241E+03  0.00000000000E+00 0. -1.
          6    1    1    2  501    0  0.53603071172E+02 -0.16818395899E+03 -0.40724687361E+02  0.24980318945E+03  0.17200000000E+03 0. -1.
         -6    1    1    2    0  502 -0.53603071172E+02  0.16818395899E+03  0.22618108511E+03  0.33451609313E+03  0.17200000000E+03 0. -1.
</event>
<event>
 4    1  0.4653733E+000  0.1921564E+03  0.7818608E-02  0.1156531E+00
         21   -1    0    0  501  502  0.00000000000E+00  0.00000000000E+00  0.11805192368E+03  0.11805192368E+03  0.00000000000E+00 0. -1.
         21   -1    0    0  502  503 -0.00000000000E+00 -0.00000000000E+00 -0.73262579009E+03  0.73262579009E+03  0.00000000000E+00 0. -1.
          6    1    1    2  501    0 -0.61144373371E+02  0.60012127301E+02  0.14701073671E+02  0.19271795813E+03  0.17200000000E+03 0. -1.
         -6    1    1    2    0  503  0.61144373371E+02 -0.60012127301E+02 -0.62927494008E+03  0.65795975564E+03  0.17200000000E+03 0. -1.
</event>
<event>
 4    1  0.4653733E+000  0.1772716E+03  0.7818608E-02  0.1170470E+00
         21   -1    0    0  503  502  0.00000000000E+00  0.00000000000E+00  0.40236395438E+03  0.40236395438E+03  0.00000000000E+00 0.  1.
         21   -1    0    0  501  503 -0.00000000000E+00 -0.00000000000E+00 -0.37957015372E+03  0.37957015372E+03  0.00000000000E+00 0.  1.
          6    1    1    2  501    0  0.82984922098E+01  0.42099357380E+02 -0.33703284879E+03  0.38081013909E+03  0.17200000000E+03 0.  1.
         -6    1    1    2    0  502 -0.82984922098E+01 -0.42099357380E+02  0.35982664945E+03  0.40112396901E+03  0.17200000000E+03 0.  1.
</event>
<event>
 4    1  0.4653733E+000  0.2439993E+03  0.7818608E-02  0.1117157E+00
         21   -1    0    0  501  502  0.00000000000E+00  0.00000000000E+00  0.20246915782E+03  0.20246915782E+03  0.00000000000E+00 0. -1.
         21   -1    0    0  502  503 -0.00000000000E+00 -0.00000000000E+00 -0.36410279972E+03  0.36410279972E+03  0.00000000000E+00 0.  1.
          6    1    1    2  501    0  0.15051415232E+03 -0.85423357367E+02 -0.20507697246E+03  0.31873535208E+03  0.17200000000E+03 0.  1.
         -6    1    1    2    0  503 -0.15051415232E+03  0.85423357367E+02  0.43443330563E+02  0.24783660546E+03  0.17200000000E+03 0. -1.
</event>
<event>
 4    1  0.4653733E+000  0.2243615E+03  0.7818608E-02  0.1130673E+00
         21   -1    0    0  503  502  0.00000000000E+00  0.00000000000E+00  0.42289583479E+03  0.42289583479E+03  0.00000000000E+00 0. -1.
         21   -1    0    0  501  503 -0.00000000000E+00 -0.00000000000E+00 -0.13032705944E+03  0.13032705944E+03  0.00000000000E+00 0. -1.
          6    1    1    2  501    0  0.30943586735E+02  0.14070023443E+03  0.22771740784E+03  0.31967683582E+03  0.17200000000E+03 0. -1.
         -6    1    1    2    0  502 -0.30943586735E+02 -0.14070023443E+03  0.64851367520E+02  0.23354605841E+03  0.17200000000E+03 0. -1.
</event>
<event>
 4    1  0.4653733E+000  0.2030036E+03  0.7818608E-02  0.1147229E+00
         21   -1    0    0  503  502  0.00000000000E+00  0.00000000000E+00  0.40586763240E+03  0.40586763240E+03  0.00000000000E+00 0. -1.
         21   -1    0    0  501  503 -0.00000000000E+00 -0.00000000000E+00 -0.13001888522E+03  0.13001888522E+03  0.00000000000E+00 0.  1.
          6    1    1    2  501    0 -0.10781730489E+03  0.13779983129E+01  0.12516131587E+02  0.20338909426E+03  0.17200000000E+03 0.  1.
         -6    1    1    2    0  502  0.10781730489E+03 -0.13779983129E+01  0.26333261559E+03  0.33249742337E+03  0.17200000000E+03 0. -1.
</event>
<event>
 4    1  0.4653733E+000  0.1963371E+03  0.7818608E-02  0.1152867E+00
         21   -1    0    0  501  502  0.00000000000E+00  0.00000000000E+00  0.12092526115E+04  0.12092526115E+04  0.00000000000E+00 0. -1.
         21   -1    0    0  502  503 -0.00000000000E+00 -0.00000000000E+00 -0.42666795422E+02  0.42666795422E+02  0.00000000000E+00 0. -1.
          6    1    1    2  501    0 -0.11800689775E+02  0.93941373710E+02  0.89806274921E+03  0.91927413729E+03  0.17200000000E+03 0. -1.
         -6    1    1    2    0  503  0.11800689775E+02 -0.93941373710E+02  0.26852306691E+03  0.33264526968E+03  0.17200000000E+03 0. -1.
</event>
<event>
 4    1  0.4653733E+000  0.2795433E+03  0.7818608E-02  0.1095939E+00
         21   -1    0    0  501  502  0.00000000000E+00  0.00000000000E+00  0.14503675641E+03  0.14503675641E+03  0.00000000000E+00 0. -1.
         21   -1    0    0  502  503 -0.00000000000E+00 -0.00000000000E+00 -0.55622687330E+03  0.55622687330E+03  0.00000000000E+00 0.  1.
          6    1    1    2  501    0 -0.71256774954E+02  0.20852561990E+03 -0.26767486517E+03  0.38703268024E+03  0.17200000000E+03 0. -1.
         -6    1    1    2    0  503  0.71256774954E+02 -0.20852561990E+03 -0.14351525172E+03  0.31423094947E+03  0.17200000000E+03 0.  1.
</event>
<event>
 4    1  0.4653733E+000  0.1954881E+03  0.7818608E-02  0.1153602E+00
         21   -1    0    0  501  502  0.00000000000E+00  0.00000000000E+00  0.36478561817E+02  0.36478561817E+02  0.00000000000E+00 0.  1.
         21   -1    0    0  502  503 -0.00000000000E+00 -0.00000000000E+00 -0.12568581845E+04  0.12568581845E+04  0.00000000000E+00 0. -1.
          6    1    1    2  501    0  0.72458611487E+02  0.58149400866E+02 -0.34633751336E+03  0.39769998285E+03  0.17200000000E+03 0.  1.
         -6    1    1    2    0  503 -0.72458611487E+02 -0.58149400866E+02 -0.87404210935E+03  0.89563676349E+03  0.17200000000E+03 0. -1.
</event>
<event>
 4    1  0.4653733E+000  0.2985873E+03  0.7818608E-02  0.1085949E+00
         21   -1    0    0  503  502  0.00000000000E+00  0.00000000000E+00  0.54351030180E+03  0.54351030180E+03  0.00000000000E+00 0.  1.
         21   -1    0    0  501  503 -0.00000000000E+00 -0.00000000000E+00 -0.23146847986E+03  0.23146847986E+03  0.00000000000E+00 0. -1.
          6    1    1    2  501    0 -0.15819549381E+03 -0.18586172862E+03  0.36516882830E+03  0.47170188635E+03  0.17200000000E+03 0.  1.
         -6    1    1    2    0  502  0.15819549381E+03  0.18586172862E+03 -0.53127006358E+02  0.30327689531E+03  0.17200000000E+03 0. -1.
</event>
<event>
 4    1  0.4653733E+000  0.2304468E+03  0.7818608E-02  0.1126326E+00
         21   -1    0    0  501  502  0.00000000000E+00  0.00000000000E+00  0.63932706527E+03  0.63932706527E+03  0.00000000000E+00 0. -1.
         21   -1    0    0  502  503 -0.00000000000E+00 -0.00000000000E+00 -0.93388919067E+02  0.93388919067E+02  0.00000000000E+00 0.  1.
          6    1    1    2  501    0  0.11412974673E+03 -0.10245064652E+03  0.39477803976E+03  0.45711643455E+03  0.17200000000E+03 0. -1.
         -6    1    1    2    0  503 -0.11412974673E+03  0.10245064652E+03  0.15116010644E+03  0.27559954979E+03  0.17200000000E+03 0. -1.
</event>
<event>
 4    1  0.4653733E+000  0.2210811E+03  0.7818608E-02  0.1133080E+00
         21   -1    0    0  503  502  0.00000000000E+00  0.00000000000E+00  0.39985431447E+03  0.39985431447E+03  0.00000000000E+00 0. -1.
         21   -1    0    0  501  503 -0.00000000000E+00 -0.00000000000E+00 -0.23507220621E+03  0.23507220621E+03  0.00000000000E+00 0.  1.
          6    1    1    2  501    0 -0.74144670758E+02  0.11745392521E+03 -0.13755480706E+03  0.26038083973E+03  0.17200000000E+03 0.  1.
         -6    1    1    2    0  502  0.74144670758E+02 -0.11745392521E+03  0.30233691532E+03  0.37454568095E+03  0.17200000000E+03 0. -1.
</event>
<event>
 4    1  0.4653733E+000  0.2165889E+03  0.7818608E-02  0.1136452E+00
         21   -1    0    0  501  502  0.00000000000E+00  0.00000000000E+00  0.34537688928E+03  0.34537688928E+03  0.00000000000E+00 0. -1.
         21   -1    0    0  502  503 -0.00000000000E+00 -0.00000000000E+00 -0.13817258644E+03  0.13817258644E+03  0.00000000000E+00 0. -1.
          6    1    1    2  501    0 -0.12839143250E+03 -0.29024184536E+02  0.72086600546E+02  0.22827010581E+03  0.17200000000E+03 0. -1.
         -6    1    1    2    0  503  0.12839143250E+03  0.29024184536E+02  0.13511770230E+03  0.25527936991E+03  0.17200000000E+03 0. -1.
</event>
<event>
 4    1  0.4653733E+000  0.1862193E+03  0.7818608E-02  0.1161916E+00
         21   -1    0    0  503  502  0.00000000000E+00  0.00000000000E+00  0.51232100714E+03  0.51232100714E+03  0.00000000000E+00 0. -1.
         21   -1    0    0  501  503 -0.00000000000E+00 -0.00000000000E+00 -0.71581441609E+02  0.71581441609E+02  0.00000000000E+00 0. -1.
          6    1    1    2  501    0  0.19457117014E+02 -0.68666144091E+02  0.15227455006E+03  0.24055177684E+03  0.17200000000E+03 0. -1.
         -6    1    1    2    0  502 -0.19457117014E+02  0.68666144091E+02  0.28846501547E+03  0.34335067191E+03  0.17200000000E+03 0. -1.
</event>
<event>
 4    1  0.4653733E+000  0.2245318E+03  0.7818608E-02  0.1130549E+00
         21   -1    0    0  501  502  0.00000000000E+00  0.00000000000E+00  0.42599410754E+03  0.42599410754E+03  0.00000000000E+00 0.  1.
         21   -1    0    0  502  503 -0.00000000000E+00 -0.00000000000E+00 -0.14040667113E+03  0.14040667113E+03  0.00000000000E+00 0.  1.
          6    1    1    2  501    0  0.72589518994E+02 -0.12474483294E+03  0.25505077631E+03  0.33980201605E+03  0.17200000000E+03 0.  1.
         -6    1    1    2    0  503 -0.72589518994E+02  0.12474483294E+03  0.30536660092E+02  0.22659876262E+03  0.17200000000E+03 0.  1.
</event>
<event>
 4    1  0.4653733E+000  0.2183436E+03  0.7818608E-02  0.1135124E+00
         21   -1    0    0  503  502  0.00000000000E+00  0.00000000000E+00  0.24252036140E+03  0.24252036140E+03  0.00000000000E+00 0.  1.
         21   -1    0    0  501  503 -0.00000000000E+00 -0.00000000000E+00 -0.20227271928E+03  0.20227271928E+03  0.00000000000E+00 0.  1.
          6    1    1    2  501    0 -0.23270659983E+02  0.13247045326E+03  0.57442871930E+02  0.22577339998E+03  0.17200000000E+03 0.  1.
         -6    1    1    2    0  502  0.23270659983E+02 -0.13247045326E+03 -0.17195229809E+02  0.21901968069E+03  0.17200000000E+03 0.  1.
</event>
<event>
 4    1  0.4653733E+000  0.2146339E+03  0.7818608E-02  0.1137948E+00
         21   -1    0    0  501  502  0.00000000000E+00  0.00000000000E+00  0.45781971488E+03  0.45781971488E+03  0.00000000000E+00 0. -1.
         21   -1    0    0  502  503 -0.00000000000E+00 -0.00000000000E+00 -0.11212205382E+03  0.11212205382E+03  0.00000000000E+00 0. -1.
          6    1    1    2  501    0 -0.99967108071E+02  0.80562279435E+02  0.26410557420E+03  0.34032257916E+03  0.17200000000E+03 0. -1.
         -6    1    1    2    0  503  0.99967108071E+02 -0.80562279435E+02  0.81592086861E+02  0.22961918953E+03  0.17200000000E+03 0. -1.
</event>
<event>
 4    1  0.4653733E+000  0.2637447E+03  0.7818608E-02  0.1104914E+00
         21   -1    0    0  503  502  0.00000000000E+00  0.00000000000E+00  0.11861988294E+03  0.11861988294E+03  0.00000000000E+00 0. -1.
         21   -1    0    0  501  503 -0.00000000000E+00 -0.00000000000E+00 -0.59380319014E+03  0.59380319014E+03  0.00000000000E+00 0.  1.
          6    1    1    2  501    0 -0.19992539507E+03 -0.26638146566E+01 -0.19787595657E+03  0.32972132732E+03  0.17200000000E+03 0. -1.
         -6    1    1    2    0  502  0.19992539507E+03  0.26638146566E+01 -0.27730735063E+03  0.38270174577E+03  0.17200000000E+03 0. -1.
</event>
<event>
 4    1  0.4653733E+000  0.2328488E+03  0.7818608E-02  0.1124651E+00
         21   -1    0    0  501  502  0.00000000000E+00  0.00000000000E+00  0.46573852579E+03  0.46573852579E+03  0.00000000000E+00 0. -1.
         21   -1    0    0  502  503 -0.00000000000E+00 -0.00000000000E+00 -0.14592641082E+03  0.14592641082E+03  0.00000000000E+00 0.  1.
          6    1    1    2  501    0 -0.78461146551E+02 -0.13593527096E+03  0.29744255538E+03  0.37774412392E+03  0.17200000000E+03 0. -1.
         -6    1    1    2    0  503  0.78461146551E+02  0.13593527096E+03  0.22369559594E+02  0.23392081268E+03  0.17200000000E+03 0.  1.
</event>
<event>
 4    1  0.4653733E+000  0.2129225E+03  0.7818608E-02  0.1139272E+00
         21   -1    0    0  503  502  0.00000000000E+00  0.00000000000E+00  0.18750909459E+03  0.18750909459E+03  0.00000000000E+00 0.  1.
         21   -1    0    0  501  503 -0.00000000000E+00 -0.00000000000E+00 -0.62415570267E+03  0.62415570267E+03  0.00000000000E+00 0. -1.
          6    1    1    2  501    0 -0.36023145589E+02 -0.12022615610E+03 -0.53597066093E+03  0.57671530672E+03  0.17200000000E+03 0. -1.
         -6    1    1    2    0  502  0.36023145589E+02  0.12022615610E+03  0.99324052848E+02  0.23494949053E+03  0.17200000000E+03 0.  1.
</event>
<event>
 4    1  0.4653733E+000  0.3029302E+03  0.7818608E-02  0.1083785E+00
         21   -1    0    0  503  502  0.00000000000E+00  0.00000000000E+00  0.18623828348E+03  0.18623828348E+03  0.00000000000E+00 0. -1.
         21   -1    0    0  501  503 -0.00000000000E+00 -0.00000000000E+00 -0.51477515455E+03  0.51477515455E+03  0.00000000000E+00 0.  1.
          6    1    1    2  501    0  0.12536077167E+03  0.21556287812E+03 -0.23678970774E+03  0.38449452946E+03  0.17200000000E+03 0.  1.
         -6    1    1    2    0  502 -0.12536077167E+03 -0.21556287812E+03 -0.91747163333E+02  0.31651890856E+03  0.17200000000E+03 0.  1.
</event>
<event>
 4    1  0.4653733E+000  0.1790414E+03  0.7818608E-02  0.1168734E+00
         21   -1    0    0  501  502  0.00000000000E+00  0.00000000000E+00  0.21147001353E+02  0.21147001353E+02  0.00000000000E+00 0. -1.
         21   -1    0    0  502  503 -0.00000000000E+00 -0.00000000000E+00 -0.26911252885E+04  0.26911252885E+04  0.00000000000E+00 0. -1.
          6    1    1    2  501    0  0.12438808493E+02  0.48136399336E+02 -0.43878946945E+03  0.47391142147E+03  0.17200000000E+03 0. -1.
         -6    1    1    2    0  503 -0.12438808493E+02 -0.48136399336E+02 -0.22311888177E+04  0.22383608683E+04  0.17200000000E+03 0. -1.
</event>
<event>
 4    1  0.4653733E+000  0.1986229E+03  0.7818608E-02  0.1150906E+00
         21   -1    0    0  503  502  0.00000000000E+00  0.00000000000E+00  0.48615122616E+03  0.48615122616E+03  0.00000000000E+00 0.  1.
         21   -1    0    0  501  503 -0.00000000000E+00 -0.00000000000E+00 -0.86459014403E+02  0.86459014403E+02  0.00000000000E+00 0.  1.
          6    1    1    2  501    0 -0.86084872375E+02  0.49562554324E+02  0.27079424664E+03  0.33582819425E+03  0.17200000000E+03 0.  1.
         -6    1    1    2    0  502  0.86084872375E+02 -0.49562554324E+02  0.12889796512E+03  0.23678204631E+03  0.17200000000E+03 0.  1.
</event>
<event>
 4    1  0.4653733E+000  0.2200435E+03  0.7818608E-02  0.1133851E+00
         21   -1    0    0  503  502  0.00000000000E+00  0.00000000000E+00  0.13176818999E+03  0.13176818999E+03  0.00000000000E+00 0.  1.
         21   -1    0    0  501  503 -0.00000000000E+00 -0.00000000000E+00 -0.48340906263E+03  0.48340906263E+03  0.00000000000E+00 0.  1.
          6    1    1    2  501    0  0.10698857932E+03  0.85956788986E+02 -0.32646462237E+03  0.39369820337E+03  0.17200000000E+03 0.  1.
         -6    1    1    2    0  502 -0.10698857932E+03 -0.85956788986E+02 -0.25176250264E+02  0.22147904925E+03  0.17200000000E+03 0.  1.
</event>
<event>
 4    1  0.4653733E+000  0.2012949E+03  0.7818608E-02  0.1148651E+00
         21   -1    0    0  501  502  0.00000000000E+00  0.00000000000E+00  0.12352640028E+04  0.12352640028E+04  0.00000000000E+00 0. -1.
         21   -1    0    0  502  503 -0.00000000000E+00 -0.00000000000E+00 -0.86092181201E+02  0.86092181201E+02  0.00000000000E+00 0. -1.
          6    1    1    2  501    0 -0.71113130328E+02 -0.76671742121E+02  0.10943783856E+04  0.11127370239E+04  0.17200000000E+03 0.  1.
         -6    1    1    2    0  503  0.71113130328E+02  0.76671742121E+02  0.54793435950E+02  0.20861916012E+03  0.17200000000E+03 0.  1.
</event>
<event>
 4    1  0.4653733E+000  0.2670895E+03  0.7818608E-02  0.1102957E+00
         21   -1    0    0  503  502  0.00000000000E+00  0.00000000000E+00  0.55438025569E+02  0.55438025569E+02  0.00000000000E+00 0.  1.
         21   -1    0    0  501  503 -0.00000000000E+00 -0.00000000000E+00 -0.13451473359E+04  0.13451473359E+04  0.00000000000E+00 0. -1.
          6    1    1    2  501    0 -0.59033036097E+02 -0.19562183761E+03 -0.79072336278E+03  0.83461382636E+03  0.17200000000E+03 0.  1.
         -6    1    1    2    0  502  0.59033036097E+02  0.19562183761E+03 -0.49898594751E+03  0.56597153508E+03  0.17200000000E+03 0. -1.
</event>
<event>
 4    1  0.4653733E+000  0.2921650E+03  0.7818608E-02  0.1089224E+00
         21   -1    0    0  503  502  0.00000000000E+00  0.00000000000E+00  0.96683580933E+03  0.96683580933E+03  0.00000000000E+00 0. -1.
         21   -1    0    0  501  503 -0.00000000000E+00 -0.00000000000E+00 -0.10220478041E+03  0.10220478041E+03  0.00000000000E+00 0. -1.
          6    1    1    2  501    0  0.17048438529E+03  0.16343643471E+03  0.23507704441E+03  0.37499548081E+03  0.17200000000E+03 0. -1.
         -6    1    1    2    0  502 -0.17048438529E+03 -0.16343643471E+03  0.62955398452E+03  0.69404510894E+03  0.17200000000E+03 0. -1.
</event>
<event>
 4    1  0.4653733E+000  0.1987816E+03  0.7818608E-02  0.1150771E+00
         21   -1    0    0  501  502  0.00000000000E+00  0.00000000000E+00  0.17074630940E+03  0.17074630940E+03  0.00000000000E+00 0.  1.
         21   -1    0    0  502  503 -0.00000000000E+00 -0.00000000000E+00 -0.44358783454E+03  0.44358783454E+03  0.00000000000E+00 0.  1.
          6    1    1    2  501    0 -0.95653192179E+02  0.27939364963E+02  0.76013436787E+02  0.21281960403E+03  0.17200000000E+03 0.  1.
         -6    1    1    2    0  503  0.95653192179E+02 -0.27939364963E+02 -0.34885496193E+03  0.40151453990E+03  0.17200000000E+03 0.  1.
</event>
<event>
 4    1  0.4653733E+000  0.2299299E+03  0.7818608E-02  0.1126689E+00
         21   -1    0    0  503  502  0.00000000000E+00  0.00000000000E+00  0.59305307043E+03  0.59305307043E+03  0.00000000000E+00 0.  1.
         21   -1    0    0  501  503 -0.00000000000E+00 -0.00000000000E+00 -0.90001802829E+02  0.90001802829E+02  0.00000000000E+00 0.  1.
          6    1    1    2  501    0  0.12199673639E+03  0.91654520855E+02  0.21820419027E+03  0.31698710310E+03  0.17200000000E+03 0.  1.
         -6    1    1    2    0  502 -0.12199673639E+03 -0.91654520855E+02  0.28484707734E+03  0.36606777016E+03  0.17200000000E+03 0.  1.
</event>
<event>
 4    1  0.4653733E+000  0.1750293E+03  0.7818608E-02  0.1172702E+00
         21   -1    0    0  501  502  0.00000000000E+00  0.00000000000E+00  0.31097760504E+03  0.31097760504E+03  0.00000000000E+00 0.  1.
         21   -1    0    0  502  503 -0.00000000000E+00 -0.00000000000E+00 -0.98531004814E+02  0.98531004814E+02  0.00000000000E+00 0.  1.
          6    1    1    2  501    0  0.20916240369E+02  0.24773968038E+02  0.10901530644E+03  0.20620275372E+03  0.17200000000E+03 0.  1.
         -6    1    1    2    0  503 -0.20916240369E+02 -0.24773968038E+02  0.10343129379E+03  0.20330585613E+03  0.17200000000E+03 0.  1.
</event>
<event>
 4    1  0.4653733E+000  0.1773024E+03  0.7818608E-02  0.1170440E+00
         21   -1    0    0  501  502  0.00000000000E+00  0.00000000000E+00  0.14908208008E+03  0.14908208008E+03  0.00000000000E+00 0. -1.
         21   -1    0    0  502  503 -0.00000000000E+00 -0.00000000000E+00 -0.23547382621E+03  0.23547382621E+03  0.00000000000E+00 0. -1.
          6    1    1    2  501    0 -0.17429650681E+02 -0.39348898504E+02 -0.10535536043E+03  0.20624228593E+03  0.17200000000E+03 0. -1.
         -6    1    1    2    0  503  0.17429650681E+02  0.39348898504E+02  0.18963614301E+02  0.17831362035E+03  0.17200000000E+03 0. -1.
</event>
<event>
 4    1  0.4653733E+000  0.3110679E+03  0.7818608E-02  0.1079835E+00
         21   -1    0    0  503  502  0.00000000000E+00  0.00000000000E+00  0.20199760238E+03  0.20199760238E+03  0.00000000000E+00 0.  1.
         21   -1    0    0  501  503 -0.00000000000E+00 -0.00000000000E+00 -0.11961880014E+04  0.11961880014E+04  0.00000000000E+00 0. -1.
          6    1    1    2  501    0  0.24831891548E+03  0.74276313690E+02 -0.10384001755E+04  0.10839917800E+04  0.17200000000E+03 0. -1.
         -6    1    1    2    0  502 -0.24831891548E+03 -0.74276313690E+02  0.44209776519E+02  0.31419382378E+03  0.17200000000E+03 0.  1.
</event>
<event>
 4    1  0.4653733E+000  0.1771520E+03  0.7818608E-02  0.1170588E+00
         21   -1    0    0  501  502  0.00000000000E+00  0.00000000000E+00  0.34410219205E+02  0.34410219205E+02  0.00000000000E+00 0. -1.
         21   -1    0    0  502  503 -0.00000000000E+00 -0.00000000000E+00 -0.16164890725E+04  0.16164890725E+04  0.00000000000E+00 0. -1.
          6    1    1    2  501    0 -0.38665599414E+02  0.17429768896E+02 -0.24611658870E+03  0.30324280808E+03  0.17200000000E+03 0. -1.
         -6    1    1    2    0  503  0.38665599414E+02 -0.17429768896E+02 -0.13359622646E+04  0.13476564836E+04  0.17200000000E+03 0. -1.
</event>
<event>
 4    1  0.4653733E+000  0.2750451E+03  0.7818608E-02  0.1098426E+00
         21   -1    0    0  501  502  0.00000000000E+00  0.00000000000E+00  0.14126168843E+04  0.14126168843E+04  0.00000000000E+00 0.  1.
         21   -1    0    0  502  503 -0.00000000000E+00 -0.00000000000E+00 -0.58390323307E+02  0.58390323307E+02  0.00000000000E+00 0.  1.
          6    1    1    2  501    0  0.11959622708E+03 -0.17822055853E+03  0.88881209003E+03  0.93039602127E+03  0.17200000000E+03 0.  1.
         -6    1    1    2    0  503 -0.11959622708E+03  0.17822055853E+03  0.46541447100E+03  0.54061118638E+03  0.17200000000E+03 0.  1.
</event>
<event>
 4    1  0.4653733E+000  0.2347457E+03  0.7818608E-02  0.1123343E+00
         21   -1    0    0  501  502  0.00000000000E+00  0.00000000000E+00  0.43898551497E+03  0.43898551497E+03  0.00000000000E+00 0. -1.
         21   -1    0    0  502  503 -0.00000000000E+00 -0.00000000000E+00 -0.13632733013E+03  0.13632733013E+03  0.00000000000E+00 0.  1.
          6    1    1    2  501    0 -0.14571310199E+03  0.65492266631E+02  0.70372010279E+02  0.24506685804E+03  0.17200000000E+03 0.  1.
         -6    1    1    2    0  503  0.14571310199E+03 -0.65492266631E+02  0.23228617456E+03  0.33024598706E+03  0.17200000000E+03 0.  1.
</event>
<event>
 4    1  0.4653733E+000  0.1849277E+03  0.7818608E-02  0.1163117E+00
         21   -1    0    0  501  502  0.00000000000E+00  0.00000000000E+00  0.17699952194E+03  0.17699952194E+03  0.00000000000E+00 0. -1.
         21   -1    0    0  502  503 -0.00000000000E+00 -0.00000000000E+00 -0.25197131880E+03  0.25197131880E+03  0.00000000000E+00 0.  1.
          6    1    1    2  501    0 -0.63703805949E+02 -0.23581345361E+02  0.66091331313E+02  0.19638309198E+03  0.17200000000E+03 0. -1.
         -6    1    1    2    0  503  0.63703805949E+02  0.23581345361E+02 -0.14106312818E+03  0.23258774876E+03  0.17200000000E+03 0.  1.
</event>
<event>
 4    1  0.4653733E+000  0.2641469E+03  0.7818608E-02  0.1104677E+00
         21   -1    0    0  503  502  0.00000000000E+00  0.00000000000E+00  0.28467954065E+03  0.28467954065E+03  0.00000000000E+00 0. -1.
         21   -1    0    0  501  503 -0.00000000000E+00 -0.00000000000E+00 -0.24873372725E+03  0.24873372725E+03  0.00000000000E+00 0. -1.
          6    1    1    2  501    0  0.16709952715E+03 -0.11075809921E+03  0.50229997358E+02  0.26888038446E+03  0.17200000000E+03 0. -1.
         -6    1    1    2    0  502 -0.16709952715E+03  0.11075809921E+03 -0.14284183956E+02  0.26453288345E+03  0.17200000000E+03 0. -1.
</event>
<event>
 4    1  0.4653733E+000  0.1750126E+03  0.7818608E-02  0.1172719E+00
         21   -1    0    0  501  502  0.00000000000E+00  0.00000000000E+00  0.84447122610E+02  0.84447122610E+02  0.00000000000E+00 0.  1.
         21   -1    0    0  502  503 -0.00000000000E+00 -0.00000000000E+00 -0.36788571899E+03  0.36788571899E+03  0.00000000000E+00 0.  1.
          6    1    1    2  501    0 -0.32212057622E+02 -0.27947512061E+01 -0.11488130991E+03  0.20934933164E+03  0.17200000000E+03 0.  1.
         -6    1    1    2    0  503  0.32212057622E+02  0.27947512061E+01 -0.16855728647E+03  0.24298350996E+03  0.17200000000E+03 0.  1.
</event>
<event>
 4    1  0.4653733E+000  0.2502384E+03  0.7818608E-02  0.1113154E+00
         21   -1    0    0  501  502  0.00000000000E+00  0.00000000000E+00  0.54305497356E+03  0.54305497356E+03  0.00000000000E+00 0. -1.
         21   -1    0    0  502  503 -0.00000000000E+00 -0.00000000000E+00 -0.15821173661E+03  0.15821173661E+03  0.00000000000E+00 0.  1.
          6    1    1    2  501    0 -0.54692981696E+02 -0.17333193374E+03  0.37501075142E+03  0.45083516409E+03  0.17200000000E+03 0.  1.
         -6    1    1    2    0  503  0.54692981696E+02  0.17333193374E+03  0.98324855337E+01  0.25043154608E+03  0.17200000000E+03 0. -1.
</event>
<event>
 4    1  0.4653733E+000  0.1729834E+03  0.7818608E-02  0.1174772E+00
         21   -1    0    0  503  502  0.00000000000E+00  0.00000000000E+00  0.39711443624E+03  0.39711443624E+03  0.00000000000E+00 0.  1.
         21   -1    0    0  501  503 -0.00000000000E+00 -0.00000000000E+00 -0.83377674160E+02  0.83377674160E+02  0.00000000000E+00 0.  1.
          6    1    1    2  501    0 -0.18306773184E+02 -0.20293596643E+01  0.82330046481E+02  0.19157633674E+03  0.17200000000E+03 0.  1.
         -6    1    1    2    0  502  0.18306773184E+02  0.20293596643E+01  0.23140671560E+03  0.28891577366E+03  0.17200000000E+03 0.  1.
</event>
<event>
 4    1  0.4653733E+000  0.2681184E+03  0.7818608E-02  0.1102361E+00
         21   -1    0    0  503  502  0.00000000000E+00  0.00000000000E+00  0.29237081900E+03  0.29237081900E+03  0.00000000000E+00 0. -1.
         21   -1    0    0  501  503 -0.00000000000E+00 -0.00000000000E+00 -0.25492533042E+03  0.25492533042E+03  0.00000000000E+00 0. -1.
          6    1    1    2  501    0 -0.46130470075E+02  0.20043814137E+03 -0.32830141118E+02  0.27012087470E+03  0.17200000000E+03 0. -1.
         -6    1    1    2    0  502  0.46130470075E+02 -0.20043814137E+03  0.70275629693E+02  0.27717527472E+03  0.17200000000E+03 0. -1.
</event>
<event>
 4    1  0.4653733E+000  0.2187530E+03  0.7818608E-02  0.1134816E+00
         21   -1    0    0  503  502  0.00000000000E+00  0.00000000000E+00  0.14972085371E+03  0.14972085371E+03  0.00000000000E+00 0. -1.
         21   -1    0    0  501  503 -0.00000000000E+00 -0.00000000000E+00 -0.36630511126E+03  0.36630511126E+03  0.00000000000E+00 0. -1.
          6    1    1    2  501    0 -0.12113160416E+03  0.59966597744E+02 -0.20040872366E+03  0.29667577402E+03  0.17200000000E+03 0. -1.
         -6    1    1    2    0  502  0.12113160416E+03 -0.59966597744E+02 -0.16175533879E+02  0.21935019095E+03  0.17200000000E+03 0. -1.
</event>
<event>
 4    1  0.4653733E+000  0.1952367E+03  0.7818608E-02  0.1153821E+00
         21   -1    0    0  501  502  0.00000000000E+00  0.00000000000E+00  0.52107987557E+03  0.52107987557E+03  0.00000000000E+00 0.  1.
         21   -1    0    0  502  503 -0.00000000000E+00 -0.00000000000E+00 -0.98598514804E+02  0.98598514804E+02  0.00000000000E+00 0.  1.
          6    1    1    2  501    0  0.84143834089E+02  0.38120741507E+02  0.36864843387E+03  0.41715589837E+03  0.17200000000E+03 0.  1.
         -6    1    1    2    0  503 -0.84143834089E+02 -0.38120741507E+02  0.53832926891E+02  0.20252249200E+03  0.17200000000E+03 0.  1.
</event>
<event>
 4    1  0.4653733E+000  0.1897313E+03  0.7818608E-02  0.1158704E+00
         21   -1    0    0  503  502  0.00000000000E+00  0.00000000000E+00  0.27863807963E+02  0.27863807963E+02  0.00000000000E+00 0. -1.
         21   -1    0    0  501  503 -0.00000000000E+00 -0.00000000000E+00 -0.14397684073E+04  0.14397684073E+04  0.00000000000E+00 0. -1.
          6    1    1    2  501    0  0.77361475319E+02  0.20716659754E+02 -0.94109983943E+03  0.96003483563E+03  0.17200000000E+03 0. -1.
         -6    1    1    2    0  502 -0.77361475319E+02 -0.20716659754E+02 -0.47080475991E+03  0.50759737963E+03  0.17200000000E+03 0. -1.
</event>
<event>
 4    1  0.4653733E+000  0.1721574E+03  0.7818608E-02  0.1175617E+00
         21   -1    0    0  501  502  0.00000000000E+00  0.00000000000E+00  0.64642700822E+02  0.64642700822E+02  0.00000000000E+00 0. -1.
         21   -1    0    0  502  503 -0.00000000000E+00 -0.00000000000E+00 -0.71495968766E+03  0.71495968766E+03  0.00000000000E+00 0. -1.
          6    1    1    2  501    0 -0.46244250868E+01  0.57264497862E+01 -0.91695257007E+02  0.19505434548E+03  0.17200000000E+03 0.  1.
         -6    1    1    2    0  503  0.46244250868E+01 -0.57264497862E+01 -0.55862172984E+03  0.58454804300E+03  0.17200000000E+03 0.  1.
</event>
<event>
 4    1  0.4653733E+000  0.1774893E+03  0.7818608E-02  0.1170255E+00
         21   -1    0    0  503  502  0.00000000000E+00  0.00000000000E+00  0.76333276239E+02  0.76333276239E+02  0.00000000000E+00 0. -1.
         21   -1    0    0  501  503 -0.00000000000E+00 -0.00000000000E+00 -0.10233678703E+04  0.10233678703E+04  0.00000000000E+00 0. -1.
          6    1    1    2  501    0 -0.43308708085E+02  0.65440575299E+01 -0.89826653276E+03  0.91563378747E+03  0.17200000000E+03 0. -1.
         -6    1    1    2    0  502  0.43308708085E+02 -0.65440575299E+01 -0.48768061354E+02  0.18406735912E+03  0.17200000000E+03 0. -1.
</event>
<event>
 4    1  0.4653733E+000  0.2053329E+03  0.7818608E-02  0.1145316E+00
         21   -1    0    0  501  502  0.00000000000E+00  0.00000000000E+00  0.62772079958E+02  0.62772079958E+02  0.00000000000E+00 0.  1.
         21   -1    0    0  502  503 -0.00000000000E+00 -0.00000000000E+00 -0.68598512987E+03  0.68598512987E+03  0.00000000000E+00 0.  1.
          6    1    1    2  501    0  0.12930139470E+02  0.11140210891E+03 -0.25750952097E+03  0.32935204837E+03  0.17200000000E+03 0.  1.
         -6    1    1    2    0  503 -0.12930139470E+02 -0.11140210891E+03 -0.36570352894E+03  0.41940516146E+03  0.17200000000E+03 0.  1.
</event>
<event>
 4    1  0.4653733E+000  0.4238312E+03  0.7818608E-02  0.1035827E+00
         21   -1    0    0  503  502  0.00000000000E+00  0.00000000000E+00  0.50210868122E+03  0.50210868122E+03  0.00000000000E+00 0.  1.
         21   -1    0    0  501  503 -0.00000000000E+00 -0.00000000000E+00 -0.41380488244E+03  0.41380488244E+03  0.00000000000E+00 0. -1.
          6    1    1    2  501    0  0.37484363187E+03 -0.97678808119E+02 -0.12438937569E+03  0.44170761222E+03  0.17200000000E+03 0. -1.
         -6    1    1    2    0  502 -0.37484363187E+03  0.97678808119E+02  0.21269317447E+03  0.47420595144E+03  0.17200000000E+03 0.  1.
</event>
