<event>
 4    1 -0.6855026E-004  0.1935673E+03  0.7818608E-02  0.1155283E+00
          5   -1    0    0  501    0  0.00000000000E+00  0.00000000000E+00  0.25079513121E+03  0.25083916728E+03  0.47000000000E+01 0. -1.
         -5   -1    0    0    0  501 -0.00000000000E+00 -0.00000000000E+00 -0.13984645962E+04  0.13984724941E+04  0.47000000000E+01 0.  1.
          6    1    1    2  502    0 -0.77928353432E+02  0.42561321126E+02  0.20553397024E+03  0.28233403487E+03  0.17200000000E+03 0. -1.
         -6    1    1    2    0  502  0.77928353432E+02 -0.42561321126E+02 -0.13532034352E+04  0.13669776265E+04  0.17200000000E+03 0.  1.
</event>
<event>
 4    1 -0.6855026E-004  0.2129124E+03  0.7818608E-02  0.1139280E+00
         -5   -1    0    0    0  501 -0.00000000000E+00  0.00000000000E+00  0.48701261139E+03  0.48703528995E+03  0.47000000000E+01 0.  1.
          5   -1    0    0  501    0  0.00000000000E+00 -0.00000000000E+00 -0.11786741459E+03  0.11796108435E+03  0.47000000000E+01 0. -1.
          6    1    1    2  502    0 -0.10952566223E+03 -0.61252142533E+02  0.32344964133E+03  0.38723554348E+03  0.17200000000E+03 0. -1.
         -6    1    1    2    0  502  0.10952566223E+03  0.61252142533E+02  0.45695555473E+02  0.21776083082E+03  0.17200000000E+03 0. -1.
</event>
<event>
 4    1 -0.6855026E-004  0.2170989E+03  0.7818608E-02  0.1136065E+00
         -5   -1    0    0    0  501 -0.00000000000E+00  0.00000000000E+00  0.39001994682E+02  0.39284164611E+02  0.47000000000E+01 0.  1.
          5   -1    0    0  501    0  0.00000000000E+00 -0.00000000000E+00 -0.12077587349E+04  0.12077678800E+04  0.47000000000E+01 0. -1.
          6    1    1    2  502    0  0.12636523614E+03  0.39746386157E+02 -0.62003928720E+03  0.65694799321E+03  0.17200000000E+03 0. -1.
         -6    1    1    2    0  502 -0.12636523614E+03 -0.39746386157E+02 -0.54871745307E+03  0.59010405135E+03  0.17200000000E+03 0.  1.
</event>
<event>
 4    1 -0.6855026E-004  0.2676959E+03  0.7818608E-02  0.1102606E+00
          5   -1    0    0  501    0  0.00000000000E+00  0.00000000000E+00  0.54473686890E+03  0.54475714437E+03  0.47000000000E+01 0. -1.
         -5   -1    0    0    0  501 -0.00000000000E+00 -0.00000000000E+00 -0.49860889534E+03  0.49863104648E+03  0.47000000000E+01 0.  1.
          6    1    1    2  502    0 -0.14775129310E+03  0.14229071491E+03  0.47068358057E+03  0.54148326399E+03  0.17200000000E+03 0. -1.
         -6    1    1    2    0  502  0.14775129310E+03 -0.14229071491E+03 -0.42455560701E+03  0.50190492686E+03  0.17200000000E+03 0.  1.
</event>
<event>
 4    1 -0.6855026E-004  0.3060305E+03  0.7818608E-02  0.1082264E+00
         -5   -1    0    0    0  501 -0.00000000000E+00  0.00000000000E+00  0.27636099224E+03  0.27640095520E+03  0.47000000000E+01 0.  1.
          5   -1    0    0  501    0  0.00000000000E+00 -0.00000000000E+00 -0.39262158216E+03  0.39264971257E+03  0.47000000000E+01 0. -1.
          6    1    1    2  502    0  0.31838633913E+02 -0.25111149649E+03 -0.18197085150E+03  0.35604504360E+03  0.17200000000E+03 0. -1.
         -6    1    1    2    0  502 -0.31838633913E+02  0.25111149649E+03  0.65710261584E+02  0.31300562416E+03  0.17200000000E+03 0.  1.
</event>
<event>
 4    1 -0.6855026E-004  0.1835498E+03  0.7818608E-02  0.1164411E+00
          5   -1    0    0  501    0  0.00000000000E+00  0.00000000000E+00  0.20524295415E+03  0.20529676137E+03  0.47000000000E+01 0. -1.
         -5   -1    0    0    0  501 -0.00000000000E+00 -0.00000000000E+00 -0.23916985329E+03  0.23921602940E+03  0.47000000000E+01 0.  1.
          6    1    1    2  502    0 -0.54465246821E+02  0.33765100088E+02  0.10757550823E+03  0.21275111061E+03  0.17200000000E+03 0. -1.
         -6    1    1    2    0  502  0.54465246821E+02 -0.33765100088E+02 -0.14150240737E+03  0.23176168015E+03  0.17200000000E+03 0.  1.
</event>
<event>
 4    1 -0.6855026E-004  0.1741607E+03  0.7818608E-02  0.1173577E+00
          5   -1    0    0  501    0  0.00000000000E+00  0.00000000000E+00  0.43988135081E+03  0.43990645913E+03  0.47000000000E+01 0. -1.
         -5   -1    0    0    0  501 -0.00000000000E+00 -0.00000000000E+00 -0.31939404128E+03  0.31942862052E+03  0.47000000000E+01 0.  1.
          6    1    1    2  502    0  0.18919587410E+02 -0.19748215764E+02  0.39644610206E+03  0.43301438158E+03  0.17200000000E+03 0. -1.
         -6    1    1    2    0  502 -0.18919587410E+02  0.19748215764E+02 -0.27595879254E+03  0.32632069807E+03  0.17200000000E+03 0.  1.
</event>
<event>
 4    1 -0.6855026E-004  0.1769653E+03  0.7818608E-02  0.1170773E+00
         -5   -1    0    0    0  501 -0.00000000000E+00  0.00000000000E+00  0.40073459798E+03  0.40076215892E+03  0.47000000000E+01 0.  1.
          5   -1    0    0  501    0  0.00000000000E+00 -0.00000000000E+00 -0.54851083079E+03  0.54853096676E+03  0.47000000000E+01 0. -1.
          6    1    1    2  502    0  0.31972212975E+02  0.26654992807E+02 -0.51342753577E+03  0.54306955865E+03  0.17200000000E+03 0. -1.
         -6    1    1    2    0  502 -0.31972212975E+02 -0.26654992807E+02  0.36565130297E+03  0.40622356703E+03  0.17200000000E+03 0.  1.
</event>
<event>
 4    1 -0.6855026E-004  0.1748614E+03  0.7818608E-02  0.1172871E+00
          5   -1    0    0  501    0  0.00000000000E+00  0.00000000000E+00  0.84321017623E+03  0.84322327487E+03  0.47000000000E+01 0. -1.
         -5   -1    0    0    0  501 -0.00000000000E+00 -0.00000000000E+00 -0.13781600360E+03  0.13789612340E+03  0.47000000000E+01 0.  1.
          6    1    1    2  502    0  0.18135843116E+02  0.25760440241E+02  0.77383176646E+03  0.79334236737E+03  0.17200000000E+03 0. -1.
         -6    1    1    2    0  502 -0.18135843116E+02 -0.25760440241E+02 -0.68437593835E+02  0.18777703091E+03  0.17200000000E+03 0.  1.
</event>
<event>
 4    1 -0.6855026E-004  0.1804450E+03  0.7818608E-02  0.1167373E+00
         -5   -1    0    0    0  501 -0.00000000000E+00  0.00000000000E+00  0.16827099423E+03  0.16833661960E+03  0.47000000000E+01 0.  1.
          5   -1    0    0  501    0  0.00000000000E+00 -0.00000000000E+00 -0.23696556632E+03  0.23701217188E+03  0.47000000000E+01 0. -1.
          6    1    1    2  502    0 -0.19981019165E+02  0.50765720862E+02 -0.12125942113E+03  0.21740341937E+03  0.17200000000E+03 0. -1.
         -6    1    1    2    0  502  0.19981019165E+02 -0.50765720862E+02  0.52564849042E+02  0.18794537211E+03  0.17200000000E+03 0.  1.
</event>
<event>
 4    1 -0.6855026E-004  0.2569645E+03  0.7818608E-02  0.1108981E+00
         -5   -1    0    0    0  501 -0.00000000000E+00  0.00000000000E+00  0.15696419489E+03  0.15703454549E+03  0.47000000000E+01 0.  1.
          5   -1    0    0  501    0  0.00000000000E+00 -0.00000000000E+00 -0.42918322500E+03  0.42920895916E+03  0.47000000000E+01 0. -1.
          6    1    1    2  502    0 -0.18072874825E+03  0.61513020740E+02 -0.17780755594E+03  0.31248401418E+03  0.17200000000E+03 0. -1.
         -6    1    1    2    0  502  0.18072874825E+03 -0.61513020740E+02 -0.94411474171E+02  0.27375949047E+03  0.17200000000E+03 0. -1.
</event>
<event>
 4    1 -0.6855026E-004  0.2165448E+03  0.7818608E-02  0.1136486E+00
          5   -1    0    0  501    0  0.00000000000E+00  0.00000000000E+00  0.45385530656E+03  0.45387964186E+03  0.47000000000E+01 0. -1.
         -5   -1    0    0    0  501 -0.00000000000E+00 -0.00000000000E+00 -0.29054486034E+03  0.29058287264E+03  0.47000000000E+01 0.  1.
          6    1    1    2  502    0  0.73513800206E+02  0.10910249672E+03  0.38047604948E+03  0.43778266050E+03  0.17200000000E+03 0. -1.
         -6    1    1    2    0  502 -0.73513800206E+02 -0.10910249672E+03 -0.21716560325E+03  0.30667985400E+03  0.17200000000E+03 0.  1.
</event>
<event>
 4    1 -0.6855026E-004  0.2159734E+03  0.7818608E-02  0.1136921E+00
          5   -1    0    0  501    0  0.00000000000E+00  0.00000000000E+00  0.34370396943E+03  0.34373610314E+03  0.47000000000E+01 0. -1.
         -5   -1    0    0    0  501 -0.00000000000E+00 -0.00000000000E+00 -0.31165367647E+03  0.31168911443E+03  0.47000000000E+01 0.  1.
          6    1    1    2  502    0 -0.74256419052E+02 -0.10745454541E+03  0.26227553679E+03  0.33975425280E+03  0.17200000000E+03 0. -1.
         -6    1    1    2    0  502  0.74256419052E+02  0.10745454541E+03 -0.23022524383E+03  0.31567096477E+03  0.17200000000E+03 0.  1.
</event>
<event>
 4    1 -0.6855026E-004  0.1987715E+03  0.7818608E-02  0.1150780E+00
          5   -1    0    0  501    0  0.00000000000E+00  0.00000000000E+00  0.20523659673E+03  0.20529040562E+03  0.47000000000E+01 0. -1.
         -5   -1    0    0    0  501 -0.00000000000E+00 -0.00000000000E+00 -0.30087905472E+03  0.30091576158E+03  0.47000000000E+01 0.  1.
          6    1    1    2  502    0  0.98187034792E+02 -0.16894639324E+02  0.10412742331E+03  0.22439394583E+03  0.17200000000E+03 0. -1.
         -6    1    1    2    0  502 -0.98187034792E+02  0.16894639324E+02 -0.19976988130E+03  0.28181222137E+03  0.17200000000E+03 0.  1.
</event>
<event>
 4    1 -0.6855026E-004  0.1783781E+03  0.7818608E-02  0.1169382E+00
         -5   -1    0    0    0  501 -0.00000000000E+00  0.00000000000E+00  0.36131032098E+02  0.36435442641E+02  0.47000000000E+01 0.  1.
          5   -1    0    0  501    0  0.00000000000E+00 -0.00000000000E+00 -0.11392804309E+04  0.11392901256E+04  0.47000000000E+01 0. -1.
          6    1    1    2  502    0  0.47051370115E+02  0.45732205226E+01 -0.83378849435E+03  0.85265585032E+03  0.17200000000E+03 0. -1.
         -6    1    1    2    0  502 -0.47051370115E+02 -0.45732205226E+01 -0.26936090447E+03  0.32306971792E+03  0.17200000000E+03 0.  1.
</event>
<event>
 4    1 -0.6855026E-004  0.2209510E+03  0.7818608E-02  0.1133176E+00
          5   -1    0    0  501    0  0.00000000000E+00  0.00000000000E+00  0.41016498560E+03  0.41019191291E+03  0.47000000000E+01 0. -1.
         -5   -1    0    0    0  501 -0.00000000000E+00 -0.00000000000E+00 -0.42172658831E+03  0.42175277746E+03  0.47000000000E+01 0.  1.
          6    1    1    2  502    0  0.88407551014E+02  0.10686177398E+03  0.34664540070E+03  0.41107464972E+03  0.17200000000E+03 0. -1.
         -6    1    1    2    0  502 -0.88407551014E+02 -0.10686177398E+03 -0.35820700341E+03  0.42087004064E+03  0.17200000000E+03 0.  1.
</event>
<event>
 4    1 -0.6855026E-004  0.2445466E+03  0.7818608E-02  0.1116801E+00
          5   -1    0    0  501    0  0.00000000000E+00  0.00000000000E+00  0.10404736008E+03  0.10415345957E+03  0.47000000000E+01 0. -1.
         -5   -1    0    0    0  501 -0.00000000000E+00 -0.00000000000E+00 -0.10503348536E+04  0.10503453692E+04  0.47000000000E+01 0.  1.
          6    1    1    2  502    0  0.11113544471E+03  0.13367103101E+03 -0.84575632373E+02  0.25875870844E+03  0.17200000000E+03 0. -1.
         -6    1    1    2    0  502 -0.11113544471E+03 -0.13367103101E+03 -0.86171186112E+03  0.89574012035E+03  0.17200000000E+03 0. -1.
</event>
<event>
 4    1 -0.6855026E-004  0.4569747E+03  0.7818608E-02  0.1025662E+00
          5   -1    0    0  501    0  0.00000000000E+00  0.00000000000E+00  0.91632431433E+03  0.91633636785E+03  0.47000000000E+01 0. -1.
         -5   -1    0    0    0  501 -0.00000000000E+00 -0.00000000000E+00 -0.99798952509E+03  0.99800059228E+03  0.47000000000E+01 0.  1.
          6    1    1    2  502    0 -0.41279912669E+03  0.94014539131E+02  0.79997945477E+03  0.92129961501E+03  0.17200000000E+03 0. -1.
         -6    1    1    2    0  502  0.41279912669E+03 -0.94014539131E+02 -0.88164466552E+03  0.99303734512E+03  0.17200000000E+03 0.  1.
</event>
<event>
 4    1 -0.6855026E-004  0.1773316E+03  0.7818608E-02  0.1170411E+00
          5   -1    0    0  501    0  0.00000000000E+00  0.00000000000E+00  0.16280299915E+03  0.16287082775E+03  0.47000000000E+01 0. -1.
         -5   -1    0    0    0  501 -0.00000000000E+00 -0.00000000000E+00 -0.61730654021E+03  0.61732443220E+03  0.47000000000E+01 0.  1.
          6    1    1    2  502    0 -0.24898390712E+02  0.35250253340E+02  0.96129863567E+02  0.20171133059E+03  0.17200000000E+03 0. -1.
         -6    1    1    2    0  502  0.24898390712E+02 -0.35250253340E+02 -0.55063340463E+03  0.57848392935E+03  0.17200000000E+03 0.  1.
</event>
<event>
 4    1 -0.6855026E-004  0.2590611E+03  0.7818608E-02  0.1107709E+00
         -5   -1    0    0    0  501 -0.00000000000E+00  0.00000000000E+00  0.76512702192E+03  0.76514145729E+03  0.47000000000E+01 0.  1.
          5   -1    0    0  501    0  0.00000000000E+00 -0.00000000000E+00 -0.19486324078E+03  0.19491991332E+03  0.47000000000E+01 0. -1.
          6    1    1    2  502    0  0.33764811695E+02  0.19075795544E+03 -0.70858646481E+02  0.26857700545E+03  0.17200000000E+03 0. -1.
         -6    1    1    2    0  502 -0.33764811695E+02 -0.19075795544E+03  0.64112242761E+03  0.69148436516E+03  0.17200000000E+03 0.  1.
</event>
<event>
 4    1 -0.6855026E-004  0.4224297E+03  0.7818608E-02  0.1036278E+00
          5   -1    0    0  501    0  0.00000000000E+00  0.00000000000E+00  0.80640695759E+03  0.80642065404E+03  0.47000000000E+01 0. -1.
         -5   -1    0    0    0  501 -0.00000000000E+00 -0.00000000000E+00 -0.28134799339E+03  0.28138724808E+03  0.47000000000E+01 0.  1.
          6    1    1    2  502    0  0.17714939528E+03  0.34275498437E+03  0.11167108814E+02  0.42257732059E+03  0.17200000000E+03 0. -1.
         -6    1    1    2    0  502 -0.17714939528E+03 -0.34275498437E+03  0.51389185539E+03  0.66523058153E+03  0.17200000000E+03 0.  1.
</event>
<event>
 4    1 -0.6855026E-004  0.1767357E+03  0.7818608E-02  0.1171000E+00
         -5   -1    0    0    0  501 -0.00000000000E+00  0.00000000000E+00  0.10403538172E+04  0.10403644337E+04  0.47000000000E+01 0.  1.
          5   -1    0    0  501    0  0.00000000000E+00 -0.00000000000E+00 -0.35986244597E+02  0.36291869616E+02  0.47000000000E+01 0. -1.
          6    1    1    2  502    0 -0.23541861769E+02  0.33125392845E+02  0.28057869264E+03  0.33160204112E+03  0.17200000000E+03 0. -1.
         -6    1    1    2    0  502  0.23541861769E+02 -0.33125392845E+02  0.72378887991E+03  0.74505426218E+03  0.17200000000E+03 0.  1.
</event>
<event>
 4    1 -0.6855026E-004  0.2285795E+03  0.7818608E-02  0.1127644E+00
          5   -1    0    0  501    0  0.00000000000E+00  0.00000000000E+00  0.61341505653E+03  0.61343306202E+03  0.47000000000E+01 0. -1.
         -5   -1    0    0    0  501 -0.00000000000E+00 -0.00000000000E+00 -0.16134610010E+03  0.16141454091E+03  0.47000000000E+01 0.  1.
          6    1    1    2  502    0  0.91775380397E+02  0.11933934481E+03  0.49227844766E+03  0.54275838980E+03  0.17200000000E+03 0. -1.
         -6    1    1    2    0  502 -0.91775380397E+02 -0.11933934481E+03 -0.40209491229E+02  0.23208921313E+03  0.17200000000E+03 0.  1.
</event>
<event>
 4    1 -0.6855026E-004  0.2287264E+03  0.7818608E-02  0.1127539E+00
          5   -1    0    0  501    0  0.00000000000E+00  0.00000000000E+00  0.86066350247E+03  0.86067633550E+03  0.47000000000E+01 0. -1.
         -5   -1    0    0    0  501 -0.00000000000E+00 -0.00000000000E+00 -0.10634379045E+03  0.10644760104E+03  0.47000000000E+01 0.  1.
          6    1    1    2  502    0  0.38033986658E+02 -0.14589439580E+03  0.69379469538E+03  0.73052504283E+03  0.17200000000E+03 0. -1.
         -6    1    1    2    0  502 -0.38033986658E+02  0.14589439580E+03  0.60525016649E+02  0.23659889371E+03  0.17200000000E+03 0.  1.
</event>
<event>
 4    1 -0.6855026E-004  0.1911020E+03  0.7818608E-02  0.1157471E+00
          5   -1    0    0  501    0  0.00000000000E+00  0.00000000000E+00  0.67139884369E+03  0.67141529421E+03  0.47000000000E+01 0. -1.
         -5   -1    0    0    0  501 -0.00000000000E+00 -0.00000000000E+00 -0.62226086734E+02  0.62403332204E+02  0.47000000000E+01 0.  1.
          6    1    1    2  502    0  0.49715265575E+02 -0.66816034015E+02  0.43552270715E+03  0.47560489744E+03  0.17200000000E+03 0. -1.
         -6    1    1    2    0  502 -0.49715265575E+02  0.66816034015E+02  0.17365004981E+03  0.25821372897E+03  0.17200000000E+03 0.  1.
</event>
<event>
 4    1 -0.6855026E-004  0.1977949E+03  0.7818608E-02  0.1151613E+00
         -5   -1    0    0    0  501 -0.00000000000E+00  0.00000000000E+00  0.27449659822E+03  0.27453683256E+03  0.47000000000E+01 0.  1.
          5   -1    0    0  501    0  0.00000000000E+00 -0.00000000000E+00 -0.38650002277E+03  0.38652859869E+03  0.47000000000E+01 0. -1.
          6    1    1    2  502    0  0.97384141233E+02  0.74259962720E+01 -0.31862845500E+03  0.37502921048E+03  0.17200000000E+03 0. -1.
         -6    1    1    2    0  502 -0.97384141233E+02 -0.74259962720E+01  0.20662503044E+03  0.28603622076E+03  0.17200000000E+03 0.  1.
</event>
<event>
 4    1 -0.6855026E-004  0.2391865E+03  0.7818608E-02  0.1120336E+00
          5   -1    0    0  501    0  0.00000000000E+00  0.00000000000E+00  0.99343879380E+03  0.99344991169E+03  0.47000000000E+01 0. -1.
         -5   -1    0    0    0  501 -0.00000000000E+00 -0.00000000000E+00 -0.47453645136E+03  0.47455972613E+03  0.47000000000E+01 0.  1.
          6    1    1    2  502    0  0.20810655993E+02  0.16490325947E+03  0.94748042271E+03  0.97720485048E+03  0.17200000000E+03 0. -1.
         -6    1    1    2    0  502 -0.20810655993E+02 -0.16490325947E+03 -0.42857808027E+03  0.49080478733E+03  0.17200000000E+03 0.  1.
</event>
<event>
 4    1 -0.6855026E-004  0.2026567E+03  0.7818608E-02  0.1147517E+00
         -5   -1    0    0    0  501 -0.00000000000E+00  0.00000000000E+00  0.88732807586E+03  0.88734052326E+03  0.47000000000E+01 0.  1.
          5   -1    0    0  501    0  0.00000000000E+00 -0.00000000000E+00 -0.77811746764E+02  0.77953562680E+02  0.47000000000E+01 0. -1.
          6    1    1    2  502    0 -0.66521867958E+02  0.84027246817E+02  0.97296031365E+02  0.22480270204E+03  0.17200000000E+03 0. -1.
         -6    1    1    2    0  502  0.66521867958E+02 -0.84027246817E+02  0.71222029773E+03  0.74049138390E+03  0.17200000000E+03 0.  1.
</event>
<event>
 4    1 -0.6855026E-004  0.1823821E+03  0.7818608E-02  0.1165517E+00
         -5   -1    0    0    0  501 -0.00000000000E+00  0.00000000000E+00  0.36463192622E+03  0.36466221578E+03  0.47000000000E+01 0.  1.
          5   -1    0    0  501    0  0.00000000000E+00 -0.00000000000E+00 -0.73043942681E+03  0.73045454768E+03  0.47000000000E+01 0. -1.
          6    1    1    2  502    0  0.32598655767E+02  0.51152210419E+02 -0.69513351258E+03  0.71866113107E+03  0.17200000000E+03 0. -1.
         -6    1    1    2    0  502 -0.32598655767E+02 -0.51152210419E+02  0.32932601200E+03  0.37645563240E+03  0.17200000000E+03 0.  1.
</event>
<event>
 4    1 -0.6855026E-004  0.3361839E+03  0.7818608E-02  0.1068433E+00
         -5   -1    0    0    0  501 -0.00000000000E+00  0.00000000000E+00  0.33698131017E+03  0.33701408487E+03  0.47000000000E+01 0.  1.
          5   -1    0    0  501    0  0.00000000000E+00 -0.00000000000E+00 -0.33964340715E+03  0.33967592500E+03  0.47000000000E+01 0. -1.
          6    1    1    2  502    0 -0.63694390997E+01  0.28878201197E+03 -0.39488262938E+02  0.33849511533E+03  0.17200000000E+03 0. -1.
         -6    1    1    2    0  502  0.63694390997E+01 -0.28878201197E+03  0.36826165951E+02  0.33819489454E+03  0.17200000000E+03 0. -1.
</event>
<event>
 4    1 -0.6855026E-004  0.3151853E+03  0.7818608E-02  0.1077887E+00
         -5   -1    0    0    0  501 -0.00000000000E+00  0.00000000000E+00  0.33760039482E+03  0.33763310943E+03  0.47000000000E+01 0.  1.
          5   -1    0    0  501    0  0.00000000000E+00 -0.00000000000E+00 -0.63938343353E+03  0.63940070776E+03  0.47000000000E+01 0. -1.
          6    1    1    2  502    0  0.18331082499E+03 -0.19014441620E+03 -0.50982012580E+03  0.59938161320E+03  0.17200000000E+03 0. -1.
         -6    1    1    2    0  502 -0.18331082499E+03  0.19014441620E+03  0.20803708709E+03  0.37765220399E+03  0.17200000000E+03 0.  1.
</event>
<event>
 4    1 -0.6855026E-004  0.1805171E+03  0.7818608E-02  0.1167303E+00
          5   -1    0    0  501    0  0.00000000000E+00  0.00000000000E+00  0.20510750559E+03  0.20516134833E+03  0.47000000000E+01 0. -1.
         -5   -1    0    0    0  501 -0.00000000000E+00 -0.00000000000E+00 -0.22939003639E+03  0.22943818077E+03  0.47000000000E+01 0.  1.
          6    1    1    2  502    0  0.26275714477E+02 -0.48083509638E+02  0.10840209890E+03  0.21056460319E+03  0.17200000000E+03 0. -1.
         -6    1    1    2    0  502 -0.26275714477E+02  0.48083509638E+02 -0.13268462970E+03  0.22403492591E+03  0.17200000000E+03 0.  1.
</event>
<event>
 4    1 -0.6855026E-004  0.4236826E+03  0.7818608E-02  0.1035874E+00
         -5   -1    0    0    0  501 -0.00000000000E+00  0.00000000000E+00  0.77548424906E+03  0.77549849164E+03  0.47000000000E+01 0.  1.
          5   -1    0    0  501    0  0.00000000000E+00 -0.00000000000E+00 -0.24671433236E+03  0.24675909667E+03  0.47000000000E+01 0. -1.
          6    1    1    2  502    0  0.38696866784E+03  0.13349175400E+02  0.39156049425E+03  0.57691123323E+03  0.17200000000E+03 0. -1.
         -6    1    1    2    0  502 -0.38696866784E+03 -0.13349175400E+02  0.13720942244E+03  0.44534635508E+03  0.17200000000E+03 0.  1.
</event>
<event>
 4    1 -0.6855026E-004  0.1724412E+03  0.7818608E-02  0.1175326E+00
         -5   -1    0    0    0  501 -0.00000000000E+00  0.00000000000E+00  0.23571009593E+03  0.23575694968E+03  0.47000000000E+01 0.  1.
          5   -1    0    0  501    0  0.00000000000E+00 -0.00000000000E+00 -0.17692813293E+03  0.17699054840E+03  0.47000000000E+01 0. -1.
          6    1    1    2  502    0 -0.88861678614E+01 -0.85435917833E+01 -0.81237066434E+02  0.19061851406E+03  0.17200000000E+03 0. -1.
         -6    1    1    2    0  502  0.88861678614E+01  0.85435917833E+01  0.14001902943E+03  0.22212898402E+03  0.17200000000E+03 0.  1.
</event>
<event>
 4    1 -0.6855026E-004  0.2339170E+03  0.7818608E-02  0.1123913E+00
         -5   -1    0    0    0  501 -0.00000000000E+00  0.00000000000E+00  0.25015859956E+03  0.25020274766E+03  0.47000000000E+01 0.  1.
          5   -1    0    0  501    0  0.00000000000E+00 -0.00000000000E+00 -0.21942800884E+03  0.21947833849E+03  0.47000000000E+01 0. -1.
          6    1    1    2  502    0  0.74570193038E+01 -0.15835888124E+03  0.13049871163E+01  0.23392059634E+03  0.17200000000E+03 0.  1.
         -6    1    1    2    0  502 -0.74570193038E+01  0.15835888124E+03  0.29425603606E+02  0.23576048980E+03  0.17200000000E+03 0. -1.
</event>
<event>
 4    1 -0.6855026E-004  0.3242292E+03  0.7818608E-02  0.1073719E+00
          5   -1    0    0  501    0  0.00000000000E+00  0.00000000000E+00  0.88039823856E+03  0.88041078393E+03  0.47000000000E+01 0. -1.
         -5   -1    0    0    0  501 -0.00000000000E+00 -0.00000000000E+00 -0.27874373705E+03  0.27878335844E+03  0.47000000000E+01 0.  1.
          6    1    1    2  502    0 -0.19989270751E+03 -0.18863587391E+03  0.73905852695E+03  0.80705148144E+03  0.17200000000E+03 0. -1.
         -6    1    1    2    0  502  0.19989270751E+03  0.18863587391E+03 -0.13740402543E+03  0.35214266093E+03  0.17200000000E+03 0.  1.
</event>
<event>
 4    1 -0.6855026E-004  0.2312506E+03  0.7818608E-02  0.1125763E+00
         -5   -1    0    0    0  501 -0.00000000000E+00  0.00000000000E+00  0.58639577447E+03  0.58641460957E+03  0.47000000000E+01 0.  1.
          5   -1    0    0  501    0  0.00000000000E+00 -0.00000000000E+00 -0.10498840029E+03  0.10509354973E+03  0.47000000000E+01 0. -1.
          6    1    1    2  502    0 -0.15164917247E+03  0.29922958956E+02  0.11509612970E+03  0.25830984119E+03  0.17200000000E+03 0. -1.
         -6    1    1    2    0  502  0.15164917247E+03 -0.29922958956E+02  0.36631124448E+03  0.43319831811E+03  0.17200000000E+03 0.  1.
</event>
<event>
 4    1 -0.6855026E-004  0.1827496E+03  0.7818608E-02  0.1165168E+00
         -5   -1    0    0    0  501 -0.00000000000E+00  0.00000000000E+00  0.10696521029E+03  0.10706841837E+03  0.47000000000E+01 0.  1.
          5   -1    0    0  501    0  0.00000000000E+00 -0.00000000000E+00 -0.87419588446E+03  0.87420851884E+03  0.47000000000E+01 0. -1.
          6    1    1    2  502    0  0.32240468165E+02  0.52668373069E+02 -0.77706275527E+03  0.79826307126E+03  0.17200000000E+03 0. -1.
         -6    1    1    2    0  502 -0.32240468165E+02 -0.52668373069E+02  0.98320810983E+01  0.18301386594E+03  0.17200000000E+03 0.  1.
</event>
<event>
 4    1 -0.6855026E-004  0.2114006E+03  0.7818608E-02  0.1140462E+00
         -5   -1    0    0    0  501 -0.00000000000E+00  0.00000000000E+00  0.74265051936E+02  0.74413627374E+02  0.47000000000E+01 0.  1.
          5   -1    0    0  501    0  0.00000000000E+00 -0.00000000000E+00 -0.16836915425E+04  0.16836981025E+04  0.47000000000E+01 0. -1.
          6    1    1    2  502    0 -0.12211731366E+03 -0.13913306157E+02 -0.15095934878E+04  0.15243236916E+04  0.17200000000E+03 0. -1.
         -6    1    1    2    0  502  0.12211731366E+03  0.13913306157E+02 -0.99833002754E+02  0.23378803824E+03  0.17200000000E+03 0.  1.
</event>
<event>
 4    1 -0.6855026E-004  0.2474198E+03  0.7818608E-02  0.1114946E+00
          5   -1    0    0  501    0  0.00000000000E+00  0.00000000000E+00  0.41185757185E+03  0.41188438850E+03  0.47000000000E+01 0. -1.
         -5   -1    0    0    0  501 -0.00000000000E+00 -0.00000000000E+00 -0.24219617211E+03  0.24224177135E+03  0.47000000000E+01 0.  1.
          6    1    1    2  502    0 -0.17781281482E+03  0.38963568525E+01  0.28814918129E+03  0.37979801130E+03  0.17200000000E+03 0. -1.
         -6    1    1    2    0  502  0.17781281482E+03 -0.38963568525E+01 -0.11848778154E+03  0.27432814855E+03  0.17200000000E+03 0.  1.
</event>
<event>
 4    1 -0.6855026E-004  0.2113163E+03  0.7818608E-02  0.1140528E+00
         -5   -1    0    0    0  501 -0.00000000000E+00  0.00000000000E+00  0.76133988684E+03  0.76135439402E+03  0.47000000000E+01 0.  1.
          5   -1    0    0  501    0  0.00000000000E+00 -0.00000000000E+00 -0.11301252498E+03  0.11311021529E+03  0.47000000000E+01 0. -1.
          6    1    1    2  502    0 -0.93547558980E+02 -0.79494976339E+02  0.20829283499E+02  0.21234042504E+03  0.17200000000E+03 0. -1.
         -6    1    1    2    0  502  0.93547558980E+02  0.79494976339E+02  0.62749807836E+03  0.66212418427E+03  0.17200000000E+03 0.  1.
</event>
<event>
 4    1 -0.6855026E-004  0.1746604E+03  0.7818608E-02  0.1173073E+00
          5   -1    0    0  501    0  0.00000000000E+00  0.00000000000E+00  0.48521440248E+03  0.48523716508E+03  0.47000000000E+01 0. -1.
         -5   -1    0    0    0  501 -0.00000000000E+00 -0.00000000000E+00 -0.12590059119E+03  0.12598828859E+03  0.47000000000E+01 0.  1.
          6    1    1    2  502    0  0.82877751227E+01  0.29215656824E+02  0.39595219501E+03  0.43276365669E+03  0.17200000000E+03 0. -1.
         -6    1    1    2    0  502 -0.82877751227E+01 -0.29215656824E+02 -0.36638383710E+02  0.17846179698E+03  0.17200000000E+03 0.  1.
</event>
<event>
 4    1 -0.6855026E-004  0.1880753E+03  0.7818608E-02  0.1160209E+00
         -5   -1    0    0    0  501 -0.00000000000E+00  0.00000000000E+00  0.36403873450E+02  0.36706021334E+02  0.47000000000E+01 0.  1.
          5   -1    0    0  501    0  0.00000000000E+00 -0.00000000000E+00 -0.13133483590E+04  0.13133567687E+04  0.47000000000E+01 0. -1.
          6    1    1    2  502    0 -0.12505801249E+02  0.75046056998E+02 -0.98491054550E+03  0.10027068806E+04  0.17200000000E+03 0. -1.
         -6    1    1    2    0  502  0.12505801249E+02 -0.75046056998E+02 -0.29203394001E+03  0.34735590949E+03  0.17200000000E+03 0.  1.
</event>
<event>
 4    1 -0.6855026E-004  0.2485968E+03  0.7818608E-02  0.1114195E+00
          5   -1    0    0  501    0  0.00000000000E+00  0.00000000000E+00  0.74227377668E+03  0.74228865649E+03  0.47000000000E+01 0. -1.
         -5   -1    0    0    0  501 -0.00000000000E+00 -0.00000000000E+00 -0.40411021783E+03  0.40413754855E+03  0.47000000000E+01 0.  1.
          6    1    1    2  502    0  0.15031459999E+03  0.98091187065E+02  0.67984914629E+03  0.72387514232E+03  0.17200000000E+03 0. -1.
         -6    1    1    2    0  502 -0.15031459999E+03 -0.98091187065E+02 -0.34168558743E+03  0.42255106273E+03  0.17200000000E+03 0.  1.
</event>
<event>
 4    1 -0.6855026E-004  0.1882916E+03  0.7818608E-02  0.1160011E+00
         -5   -1    0    0    0  501 -0.00000000000E+00  0.00000000000E+00  0.34354692250E+03  0.34357907089E+03  0.47000000000E+01 0.  1.
          5   -1    0    0  501    0  0.00000000000E+00 -0.00000000000E+00 -0.16324362148E+03  0.16331126707E+03  0.47000000000E+01 0. -1.
          6    1    1    2  502    0 -0.71524934450E+02  0.27457672137E+02 -0.63618021158E+02  0.19874856634E+03  0.17200000000E+03 0. -1.
         -6    1    1    2    0  502  0.71524934450E+02 -0.27457672137E+02  0.24392132218E+03  0.30814177162E+03  0.17200000000E+03 0.  1.
</event>
<event>
 4    1 -0.6855026E-004  0.1868275E+03  0.7818608E-02  0.1161354E+00
          5   -1    0    0  501    0  0.00000000000E+00  0.00000000000E+00  0.14132091439E+04  0.14132169594E+04  0.47000000000E+01 0. -1.
         -5   -1    0    0    0  501 -0.00000000000E+00 -0.00000000000E+00 -0.11936531292E+03  0.11945780816E+03  0.47000000000E+01 0.  1.
          6    1    1    2  502    0  0.60125501395E+02 -0.41297161009E+02  0.13294255958E+04  0.13424890861E+04  0.17200000000E+03 0. -1.
         -6    1    1    2    0  502 -0.60125501395E+02  0.41297161009E+02 -0.35581764917E+02  0.19018568143E+03  0.17200000000E+03 0.  1.
</event>
<event>
 4    1 -0.6855026E-004  0.1753731E+03  0.7818608E-02  0.1172358E+00
          5   -1    0    0  501    0  0.00000000000E+00  0.00000000000E+00  0.66232448402E+03  0.66234115992E+03  0.47000000000E+01 0. -1.
         -5   -1    0    0    0  501 -0.00000000000E+00 -0.00000000000E+00 -0.37482450225E+03  0.37485396821E+03  0.47000000000E+01 0.  1.
          6    1    1    2  502    0  0.18413152544E+01 -0.34180927062E+02  0.62916521205E+03  0.65314974567E+03  0.17200000000E+03 0. -1.
         -6    1    1    2    0  502 -0.18413152544E+01  0.34180927062E+02 -0.34166523028E+03  0.38404538247E+03  0.17200000000E+03 0.  1.
</event>
<event>
 4    1 -0.6855026E-004  0.1889591E+03  0.7818608E-02  0.1159403E+00
          5   -1    0    0  501    0  0.00000000000E+00  0.00000000000E+00  0.35902760334E+03  0.35905836568E+03  0.47000000000E+01 0. -1.
         -5   -1    0    0    0  501 -0.00000000000E+00 -0.00000000000E+00 -0.14052971092E+03  0.14060828443E+03  0.47000000000E+01 0.  1.
          6    1    1    2  502    0 -0.70747850730E+02  0.33410965259E+02  0.24441276678E+03  0.30893875048E+03  0.17200000000E+03 0. -1.
         -6    1    1    2    0  502  0.70747850730E+02 -0.33410965259E+02 -0.25914874357E+02  0.19072789962E+03  0.17200000000E+03 0.  1.
</event>
<event>
 4    1 -0.6855026E-004  0.3387326E+03  0.7818608E-02  0.1067337E+00
         -5   -1    0    0    0  501 -0.00000000000E+00  0.00000000000E+00  0.38163071812E+03  0.38165965862E+03  0.47000000000E+01 0.  1.
          5   -1    0    0  501    0  0.00000000000E+00 -0.00000000000E+00 -0.52072543952E+03  0.52074664988E+03  0.47000000000E+01 0. -1.
          6    1    1    2  502    0  0.20987852139E+03  0.20274799733E+03 -0.36289385897E+03  0.49641887256E+03  0.17200000000E+03 0. -1.
         -6    1    1    2    0  502 -0.20987852139E+03 -0.20274799733E+03  0.22379913757E+03  0.40598743594E+03  0.17200000000E+03 0.  1.
</event>
<event>
 4    1 -0.6855026E-004  0.1796356E+03  0.7818608E-02  0.1168156E+00
         -5   -1    0    0    0  501 -0.00000000000E+00  0.00000000000E+00  0.49991747140E+02  0.50212197543E+02  0.47000000000E+01 0.  1.
          5   -1    0    0  501    0  0.00000000000E+00 -0.00000000000E+00 -0.66535546121E+03  0.66537206115E+03  0.47000000000E+01 0. -1.
          6    1    1    2  502    0  0.31740269289E+02 -0.40957399772E+02 -0.37201537505E+03  0.41311547122E+03  0.17200000000E+03 0. -1.
         -6    1    1    2    0  502 -0.31740269289E+02  0.40957399772E+02 -0.24334833902E+03  0.30246878747E+03  0.17200000000E+03 0.  1.
</event>
<event>
 4    1 -0.6855026E-004  0.2017364E+03  0.7818608E-02  0.1148282E+00
          5   -1    0    0  501    0  0.00000000000E+00  0.00000000000E+00  0.18083774442E+04  0.18083835519E+04  0.47000000000E+01 0. -1.
         -5   -1    0    0    0  501 -0.00000000000E+00 -0.00000000000E+00 -0.22783467029E+02  0.23263197756E+02  0.47000000000E+01 0.  1.
          6    1    1    2  502    0 -0.10538614608E+03  0.27110018775E+01  0.10310012036E+04  0.10505527456E+04  0.17200000000E+03 0. -1.
         -6    1    1    2    0  502  0.10538614608E+03 -0.27110018775E+01  0.75459277355E+03  0.78109400408E+03  0.17200000000E+03 0.  1.
</event>
<event>
 4    1 -0.6855026E-004  0.1893699E+03  0.7818608E-02  0.1159031E+00
         -5   -1    0    0    0  501 -0.00000000000E+00  0.00000000000E+00  0.16787393048E+03  0.16793971101E+03  0.47000000000E+01 0.  1.
          5   -1    0    0  501    0  0.00000000000E+00 -0.00000000000E+00 -0.55388210340E+03  0.55390204411E+03  0.47000000000E+01 0. -1.
          6    1    1    2  502    0  0.72669077890E+02 -0.31562295282E+02 -0.47591938949E+03  0.51221112704E+03  0.17200000000E+03 0. -1.
         -6    1    1    2    0  502 -0.72669077890E+02  0.31562295282E+02  0.89911216573E+02  0.20963062808E+03  0.17200000000E+03 0.  1.
</event>
<event>
 4    1 -0.6855026E-004  0.1875378E+03  0.7818608E-02  0.1160701E+00
         -5   -1    0    0    0  501 -0.00000000000E+00  0.00000000000E+00  0.14250115782E+04  0.14250193290E+04  0.47000000000E+01 0.  1.
          5   -1    0    0  501    0  0.00000000000E+00 -0.00000000000E+00 -0.61339215965E+02  0.61519016695E+02  0.47000000000E+01 0. -1.
          6    1    1    2  502    0 -0.37553856057E+02  0.64622984854E+02  0.10693060682E+03  0.21588093235E+03  0.17200000000E+03 0. -1.
         -6    1    1    2    0  502  0.37553856057E+02 -0.64622984854E+02  0.12567417554E+04  0.12706574134E+04  0.17200000000E+03 0.  1.
</event>
<event>
 4    1 -0.6855026E-004  0.2160952E+03  0.7818608E-02  0.1136828E+00
          5   -1    0    0  501    0  0.00000000000E+00  0.00000000000E+00  0.18623949829E+03  0.18629879421E+03  0.47000000000E+01 0. -1.
         -5   -1    0    0    0  501 -0.00000000000E+00 -0.00000000000E+00 -0.25581847794E+03  0.25586164944E+03  0.47000000000E+01 0.  1.
          6    1    1    2  502    0  0.13077761453E+03  0.32173949890E+01 -0.32676796184E+01  0.21611990612E+03  0.17200000000E+03 0. -1.
         -6    1    1    2    0  502 -0.13077761453E+03 -0.32173949890E+01 -0.66311300027E+02  0.22604053752E+03  0.17200000000E+03 0.  1.
</event>
<event>
 4    1 -0.6855026E-004  0.1865495E+03  0.7818608E-02  0.1161611E+00
         -5   -1    0    0    0  501 -0.00000000000E+00  0.00000000000E+00  0.85838306087E+02  0.85966881948E+02  0.47000000000E+01 0.  1.
          5   -1    0    0  501    0  0.00000000000E+00 -0.00000000000E+00 -0.57044223760E+03  0.57046159945E+03  0.47000000000E+01 0. -1.
          6    1    1    2  502    0 -0.63412366035E+02 -0.34577530015E+02 -0.41904733230E+03  0.45869532421E+03  0.17200000000E+03 0. -1.
         -6    1    1    2    0  502  0.63412366035E+02  0.34577530015E+02 -0.65556599220E+02  0.19773315718E+03  0.17200000000E+03 0.  1.
</event>
<event>
 4    1 -0.6855026E-004  0.1954019E+03  0.7818608E-02  0.1153677E+00
         -5   -1    0    0    0  501 -0.00000000000E+00  0.00000000000E+00  0.48003422217E+02  0.48232961184E+02  0.47000000000E+01 0.  1.
          5   -1    0    0  501    0  0.00000000000E+00 -0.00000000000E+00 -0.19276517813E+04  0.19276575110E+04  0.47000000000E+01 0. -1.
          6    1    1    2  502    0  0.37971501887E+01  0.92647170796E+02 -0.16976544701E+04  0.17088629601E+04  0.17200000000E+03 0. -1.
         -6    1    1    2    0  502 -0.37971501887E+01 -0.92647170796E+02 -0.18199388898E+03  0.26702751213E+03  0.17200000000E+03 0.  1.
</event>
<event>
 4    1 -0.6855026E-004  0.3280036E+03  0.7818608E-02  0.1072024E+00
          5   -1    0    0  501    0  0.00000000000E+00  0.00000000000E+00  0.22848712475E+03  0.22853545934E+03  0.47000000000E+01 0. -1.
         -5   -1    0    0    0  501 -0.00000000000E+00 -0.00000000000E+00 -0.54516938663E+03  0.54518964601E+03  0.47000000000E+01 0.  1.
          6    1    1    2  502    0 -0.27789138976E+03  0.27905366340E+02 -0.30126156721E+03  0.44535925482E+03  0.17200000000E+03 0. -1.
         -6    1    1    2    0  502  0.27789138976E+03 -0.27905366340E+02 -0.15420694662E+02  0.32836585054E+03  0.17200000000E+03 0. -1.
</event>
<event>
 4    1 -0.6855026E-004  0.3649532E+03  0.7818608E-02  0.1056640E+00
         -5   -1    0    0    0  501 -0.00000000000E+00  0.00000000000E+00  0.41390624540E+03  0.41393292933E+03  0.47000000000E+01 0.  1.
          5   -1    0    0  501    0  0.00000000000E+00 -0.00000000000E+00 -0.54700996812E+03  0.54703015933E+03  0.47000000000E+01 0. -1.
          6    1    1    2  502    0  0.38401302292E+02  0.31958130756E+03 -0.37488019605E+03  0.52318833468E+03  0.17200000000E+03 0. -1.
         -6    1    1    2    0  502 -0.38401302292E+02 -0.31958130756E+03  0.24177647333E+03  0.43777475398E+03  0.17200000000E+03 0.  1.
</event>
<event>
 4    1 -0.6855026E-004  0.2079439E+03  0.7818608E-02  0.1143205E+00
         -5   -1    0    0    0  501 -0.00000000000E+00  0.00000000000E+00  0.21585365309E+04  0.21585416478E+04  0.47000000000E+01 0.  1.
          5   -1    0    0  501    0  0.00000000000E+00 -0.00000000000E+00 -0.30920940632E+03  0.30924512439E+03  0.47000000000E+01 0. -1.
          6    1    1    2  502    0 -0.58930356098E+02  0.10091522992E+03 -0.26859428994E+03  0.33968156130E+03  0.17200000000E+03 0. -1.
         -6    1    1    2    0  502  0.58930356098E+02 -0.10091522992E+03  0.21179214146E+04  0.21281052109E+04  0.17200000000E+03 0.  1.
</event>
<event>
 4    1 -0.6855026E-004  0.2355906E+03  0.7818608E-02  0.1122766E+00
         -5   -1    0    0    0  501 -0.00000000000E+00  0.00000000000E+00  0.23188687086E+03  0.23193449696E+03  0.47000000000E+01 0.  1.
          5   -1    0    0  501    0  0.00000000000E+00 -0.00000000000E+00 -0.27588465481E+03  0.27592468676E+03  0.47000000000E+01 0. -1.
          6    1    1    2  502    0  0.16038123697E+03  0.14028115255E+02 -0.11450611037E+03  0.26194384608E+03  0.17200000000E+03 0. -1.
         -6    1    1    2    0  502 -0.16038123697E+03 -0.14028115255E+02  0.70508326417E+02  0.24591533763E+03  0.17200000000E+03 0.  1.
</event>
<event>
 4    1 -0.6855026E-004  0.1844005E+03  0.7818608E-02  0.1163611E+00
          5   -1    0    0  501    0  0.00000000000E+00  0.00000000000E+00  0.16632006144E+03  0.16638645629E+03  0.47000000000E+01 0. -1.
         -5   -1    0    0    0  501 -0.00000000000E+00 -0.00000000000E+00 -0.50882817325E+03  0.50884987952E+03  0.47000000000E+01 0.  1.
          6    1    1    2  502    0 -0.36996322949E+01  0.66376611022E+02  0.89902404839E+02  0.20514868795E+03  0.17200000000E+03 0. -1.
         -6    1    1    2    0  502  0.36996322949E+01 -0.66376611022E+02 -0.43241051665E+03  0.47008764787E+03  0.17200000000E+03 0.  1.
</event>
<event>
 4    1 -0.6855026E-004  0.6176368E+03  0.7818608E-02  0.9869476E-01
          5   -1    0    0  501    0  0.00000000000E+00  0.00000000000E+00  0.87559531307E+03  0.87560792726E+03  0.47000000000E+01 0. -1.
         -5   -1    0    0    0  501 -0.00000000000E+00 -0.00000000000E+00 -0.79038961203E+03  0.79040358603E+03  0.47000000000E+01 0.  1.
          6    1    1    2  502    0  0.53825250944E+03 -0.24935014915E+03  0.60065562884E+03  0.86154654272E+03  0.17200000000E+03 0. -1.
         -6    1    1    2    0  502 -0.53825250944E+03  0.24935014915E+03 -0.51544992780E+03  0.80446497057E+03  0.17200000000E+03 0.  1.
</event>
<event>
 4    1 -0.6855026E-004  0.2546456E+03  0.7818608E-02  0.1110404E+00
          5   -1    0    0  501    0  0.00000000000E+00  0.00000000000E+00  0.62589660150E+02  0.62765878928E+02  0.47000000000E+01 0. -1.
         -5   -1    0    0    0  501 -0.00000000000E+00 -0.00000000000E+00 -0.12655255777E+04  0.12655343053E+04  0.47000000000E+01 0.  1.
          6    1    1    2  502    0  0.14491720586E+03  0.11941262278E+03 -0.31765235070E+03  0.40712085053E+03  0.17200000000E+03 0. -1.
         -6    1    1    2    0  502 -0.14491720586E+03 -0.11941262278E+03 -0.88528356687E+03  0.92117933368E+03  0.17200000000E+03 0.  1.
</event>
<event>
 4    1 -0.6855026E-004  0.2279520E+03  0.7818608E-02  0.1128090E+00
         -5   -1    0    0    0  501 -0.00000000000E+00  0.00000000000E+00  0.16626465417E+04  0.16626531847E+04  0.47000000000E+01 0.  1.
          5   -1    0    0  501    0  0.00000000000E+00 -0.00000000000E+00 -0.31696342518E+02  0.32042910745E+02  0.47000000000E+01 0. -1.
          6    1    1    2  502    0  0.35874678592E+02 -0.14522786375E+03  0.69695096480E+03  0.73328219146E+03  0.17200000000E+03 0.  1.
         -6    1    1    2    0  502 -0.35874678592E+02  0.14522786375E+03  0.93399923434E+03  0.96141390395E+03  0.17200000000E+03 0.  1.
</event>
<event>
 4    1 -0.6855026E-004  0.1987922E+03  0.7818608E-02  0.1150762E+00
         -5   -1    0    0    0  501 -0.00000000000E+00  0.00000000000E+00  0.32250043361E+03  0.32253467981E+03  0.47000000000E+01 0.  1.
          5   -1    0    0  501    0  0.00000000000E+00 -0.00000000000E+00 -0.12976307164E+03  0.12984816041E+03  0.47000000000E+01 0. -1.
          6    1    1    2  502    0  0.99483925202E+02  0.61072208476E+01  0.42702388982E+02  0.20332693758E+03  0.17200000000E+03 0. -1.
         -6    1    1    2    0  502 -0.99483925202E+02 -0.61072208476E+01  0.15003497299E+03  0.24905590264E+03  0.17200000000E+03 0.  1.
</event>
<event>
 4    1 -0.6855026E-004  0.2240161E+03  0.7818608E-02  0.1130924E+00
          5   -1    0    0  501    0  0.00000000000E+00  0.00000000000E+00  0.12865886586E+03  0.12874468441E+03  0.47000000000E+01 0. -1.
         -5   -1    0    0    0  501 -0.00000000000E+00 -0.00000000000E+00 -0.76711980272E+03  0.76713420059E+03  0.47000000000E+01 0.  1.
          6    1    1    2  502    0  0.66970988128E+02  0.12694134058E+03 -0.51062284275E+01  0.22407429743E+03  0.17200000000E+03 0. -1.
         -6    1    1    2    0  502 -0.66970988128E+02 -0.12694134058E+03 -0.63335470843E+03  0.67180458758E+03  0.17200000000E+03 0.  1.
</event>
<event>
 4    1 -0.6855026E-004  0.2424029E+03  0.7818608E-02  0.1118202E+00
          5   -1    0    0  501    0  0.00000000000E+00  0.00000000000E+00  0.32325379204E+03  0.32328795844E+03  0.47000000000E+01 0. -1.
         -5   -1    0    0    0  501 -0.00000000000E+00 -0.00000000000E+00 -0.64004256171E+03  0.64005981814E+03  0.47000000000E+01 0.  1.
          6    1    1    2  502    0  0.17064626641E+03 -0.74177149161E+01  0.24919134069E+03  0.34764276925E+03  0.17200000000E+03 0. -1.
         -6    1    1    2    0  502 -0.17064626641E+03  0.74177149161E+01 -0.56598011035E+03  0.61570500733E+03  0.17200000000E+03 0.  1.
</event>
<event>
 4    1 -0.6855026E-004  0.1800540E+03  0.7818608E-02  0.1167751E+00
         -5   -1    0    0    0  501 -0.00000000000E+00  0.00000000000E+00  0.93489370508E+02  0.93607437728E+02  0.47000000000E+01 0.  1.
          5   -1    0    0  501    0  0.00000000000E+00 -0.00000000000E+00 -0.34721146785E+03  0.34724327698E+03  0.47000000000E+01 0. -1.
          6    1    1    2  502    0  0.13671242335E+02 -0.51464049717E+02 -0.13739159664E+03  0.22648598656E+03  0.17200000000E+03 0. -1.
         -6    1    1    2    0  502 -0.13671242335E+02  0.51464049717E+02 -0.11633050070E+03  0.21436472814E+03  0.17200000000E+03 0. -1.
</event>
<event>
 4    1 -0.6855026E-004  0.1738576E+03  0.7818608E-02  0.1173884E+00
          5   -1    0    0  501    0  0.00000000000E+00  0.00000000000E+00  0.18963972190E+03  0.18969795497E+03  0.47000000000E+01 0. -1.
         -5   -1    0    0    0  501 -0.00000000000E+00 -0.00000000000E+00 -0.17803717732E+03  0.17809920412E+03  0.47000000000E+01 0.  1.
          6    1    1    2  502    0 -0.14214853818E+02 -0.20985753993E+02  0.65484718126E+02  0.18578135603E+03  0.17200000000E+03 0.  1.
         -6    1    1    2    0  502  0.14214853818E+02  0.20985753993E+02 -0.53882173550E+02  0.18201580307E+03  0.17200000000E+03 0.  1.
</event>
<event>
 4    1 -0.6855026E-004  0.1765778E+03  0.7818608E-02  0.1171157E+00
         -5   -1    0    0    0  501 -0.00000000000E+00  0.00000000000E+00  0.78738573627E+03  0.78739976358E+03  0.47000000000E+01 0.  1.
          5   -1    0    0  501    0  0.00000000000E+00 -0.00000000000E+00 -0.63082042681E+03  0.63083793551E+03  0.47000000000E+01 0. -1.
          6    1    1    2  502    0  0.22565828622E+02  0.32962091402E+02 -0.60821946096E+03  0.63333295254E+03  0.17200000000E+03 0. -1.
         -6    1    1    2    0  502 -0.22565828622E+02 -0.32962091402E+02  0.76478477042E+03  0.78490474655E+03  0.17200000000E+03 0.  1.
</event>
<event>
 4    1 -0.6855026E-004  0.2554633E+03  0.7818608E-02  0.1109900E+00
          5   -1    0    0  501    0  0.00000000000E+00  0.00000000000E+00  0.11524175192E+03  0.11533755410E+03  0.47000000000E+01 0. -1.
         -5   -1    0    0    0  501 -0.00000000000E+00 -0.00000000000E+00 -0.86035362283E+03  0.86036646048E+03  0.47000000000E+01 0.  1.
          6    1    1    2  502    0  0.60409225322E+02 -0.17896433185E+03 -0.87200920040E+02  0.26993611658E+03  0.17200000000E+03 0. -1.
         -6    1    1    2    0  502 -0.60409225322E+02  0.17896433185E+03 -0.65791095087E+03  0.70576789800E+03  0.17200000000E+03 0.  1.
</event>
<event>
 4    1 -0.6855026E-004  0.1739019E+03  0.7818608E-02  0.1173839E+00
          5   -1    0    0  501    0  0.00000000000E+00  0.00000000000E+00  0.23858936918E+04  0.23858983211E+04  0.47000000000E+01 0. -1.
         -5   -1    0    0    0  501 -0.00000000000E+00 -0.00000000000E+00 -0.72374656859E+02  0.72527104971E+02  0.47000000000E+01 0.  1.
          6    1    1    2  502    0  0.24715667609E+02 -0.68558258183E+01  0.22732889508E+04  0.22799308148E+04  0.17200000000E+03 0. -1.
         -6    1    1    2    0  502 -0.24715667609E+02  0.68558258183E+01  0.40230084158E+02  0.17849461125E+03  0.17200000000E+03 0.  1.
</event>
<event>
 4    1 -0.6855026E-004  0.2132578E+03  0.7818608E-02  0.1139012E+00
         -5   -1    0    0    0  501 -0.00000000000E+00  0.00000000000E+00  0.25847907231E+03  0.25852179951E+03  0.47000000000E+01 0.  1.
          5   -1    0    0  501    0  0.00000000000E+00 -0.00000000000E+00 -0.19938764275E+03  0.19944302967E+03  0.47000000000E+01 0. -1.
          6    1    1    2  502    0  0.12526418687E+03 -0.14274828908E+02 -0.49093126802E+02  0.21883560577E+03  0.17200000000E+03 0.  1.
         -6    1    1    2    0  502 -0.12526418687E+03  0.14274828908E+02  0.10818455635E+03  0.23912922340E+03  0.17200000000E+03 0.  1.
</event>
<event>
 4    1 -0.6855026E-004  0.1881967E+03  0.7818608E-02  0.1160098E+00
          5   -1    0    0  501    0  0.00000000000E+00  0.00000000000E+00  0.49507977722E+02  0.49730572670E+02  0.47000000000E+01 0. -1.
         -5   -1    0    0    0  501 -0.00000000000E+00 -0.00000000000E+00 -0.72361527398E+03  0.72363053746E+03  0.47000000000E+01 0.  1.
          6    1    1    2  502    0 -0.28777317055E+02  0.70752153988E+02 -0.29148995339E+03  0.34696454314E+03  0.17200000000E+03 0. -1.
         -6    1    1    2    0  502  0.28777317055E+02 -0.70752153988E+02 -0.38261734287E+03  0.42639656698E+03  0.17200000000E+03 0.  1.
</event>
<event>
 4    1 -0.6855026E-004  0.2329948E+03  0.7818608E-02  0.1124549E+00
         -5   -1    0    0    0  501 -0.00000000000E+00  0.00000000000E+00  0.80727362914E+03  0.80728731088E+03  0.47000000000E+01 0.  1.
          5   -1    0    0  501    0  0.00000000000E+00 -0.00000000000E+00 -0.75272003968E+03  0.75273471299E+03  0.47000000000E+01 0. -1.
          6    1    1    2  502    0 -0.15706061125E+03 -0.58777046394E+01 -0.71707804555E+03  0.75398110483E+03  0.17200000000E+03 0. -1.
         -6    1    1    2    0  502  0.15706061125E+03  0.58777046394E+01  0.77163163501E+03  0.80604091904E+03  0.17200000000E+03 0.  1.
</event>
<event>
 4    1 -0.6855026E-004  0.1744547E+03  0.7818608E-02  0.1173280E+00
         -5   -1    0    0    0  501 -0.00000000000E+00  0.00000000000E+00  0.56959967948E+03  0.56961906996E+03  0.47000000000E+01 0.  1.
          5   -1    0    0  501    0  0.00000000000E+00 -0.00000000000E+00 -0.12734018867E+03  0.12742689531E+03  0.47000000000E+01 0. -1.
          6    1    1    2  502    0  0.23453095091E+02  0.17332313608E+02 -0.44438995278E+02  0.18002577889E+03  0.17200000000E+03 0. -1.
         -6    1    1    2    0  502 -0.23453095091E+02 -0.17332313608E+02  0.48669848609E+03  0.51702018638E+03  0.17200000000E+03 0.  1.
</event>
<event>
 4    1 -0.6855026E-004  0.1852208E+03  0.7818608E-02  0.1162844E+00
          5   -1    0    0  501    0  0.00000000000E+00  0.00000000000E+00  0.16638184686E+04  0.16638251069E+04  0.47000000000E+01 0. -1.
         -5   -1    0    0    0  501 -0.00000000000E+00 -0.00000000000E+00 -0.39410565416E+02  0.39689830769E+02  0.47000000000E+01 0.  1.
          6    1    1    2  502    0  0.16205219831E+02  0.66784116531E+02  0.14015463650E+04  0.14137322734E+04  0.17200000000E+03 0. -1.
         -6    1    1    2    0  502 -0.16205219831E+02 -0.66784116531E+02  0.22286153814E+03  0.28978266434E+03  0.17200000000E+03 0.  1.
</event>
<event>
 4    1 -0.6855026E-004  0.1730329E+03  0.7818608E-02  0.1174721E+00
          5   -1    0    0  501    0  0.00000000000E+00  0.00000000000E+00  0.16617670626E+03  0.16624315837E+03  0.47000000000E+01 0. -1.
         -5   -1    0    0    0  501 -0.00000000000E+00 -0.00000000000E+00 -0.10638561838E+04  0.10638665658E+04  0.47000000000E+01 0.  1.
          6    1    1    2  502    0 -0.15474443543E+02  0.10813045285E+02  0.11173404110E+03  0.20597299894E+03  0.17200000000E+03 0. -1.
         -6    1    1    2    0  502  0.15474443543E+02 -0.10813045285E+02 -0.10094135187E+04  0.10241367253E+04  0.17200000000E+03 0.  1.
</event>
<event>
 4    1 -0.6855026E-004  0.1917020E+03  0.7818608E-02  0.1156935E+00
          5   -1    0    0  501    0  0.00000000000E+00  0.00000000000E+00  0.63605054530E+03  0.63606791003E+03  0.47000000000E+01 0. -1.
         -5   -1    0    0    0  501 -0.00000000000E+00 -0.00000000000E+00 -0.64694970803E+02  0.64865470376E+02  0.47000000000E+01 0.  1.
          6    1    1    2  502    0 -0.28687653212E+02 -0.79640955227E+02  0.40103656980E+03  0.44449971149E+03  0.17200000000E+03 0. -1.
         -6    1    1    2    0  502  0.28687653212E+02  0.79640955227E+02  0.17031900470E+03  0.25643366892E+03  0.17200000000E+03 0.  1.
</event>
<event>
 4    1 -0.6855026E-004  0.2130302E+03  0.7818608E-02  0.1139189E+00
         -5   -1    0    0    0  501 -0.00000000000E+00  0.00000000000E+00  0.14340006757E+03  0.14347706918E+03  0.47000000000E+01 0.  1.
          5   -1    0    0  501    0  0.00000000000E+00 -0.00000000000E+00 -0.31710051762E+03  0.31713534693E+03  0.47000000000E+01 0. -1.
          6    1    1    2  502    0  0.11505783194E+03 -0.50592204386E+02 -0.75215712493E+02  0.22591874477E+03  0.17200000000E+03 0.  1.
         -6    1    1    2    0  502 -0.11505783194E+03  0.50592204386E+02 -0.98484737554E+02  0.23469367134E+03  0.17200000000E+03 0.  1.
</event>
<event>
 4    1 -0.6855026E-004  0.2477821E+03  0.7818608E-02  0.1114715E+00
         -5   -1    0    0    0  501 -0.00000000000E+00  0.00000000000E+00  0.12561251118E+03  0.12570040957E+03  0.47000000000E+01 0.  1.
          5   -1    0    0  501    0  0.00000000000E+00 -0.00000000000E+00 -0.63781032620E+03  0.63782764302E+03  0.47000000000E+01 0. -1.
          6    1    1    2  502    0  0.45791662657E+01 -0.17830032768E+03 -0.44079326373E+03  0.50566261179E+03  0.17200000000E+03 0. -1.
         -6    1    1    2    0  502 -0.45791662657E+01  0.17830032768E+03 -0.71404551287E+02  0.25786544080E+03  0.17200000000E+03 0.  1.
</event>
<event>
 4    1 -0.6855026E-004  0.2292827E+03  0.7818608E-02  0.1127146E+00
          5   -1    0    0  501    0  0.00000000000E+00  0.00000000000E+00  0.18737365325E+03  0.18743259037E+03  0.47000000000E+01 0. -1.
         -5   -1    0    0    0  501 -0.00000000000E+00 -0.00000000000E+00 -0.47965419954E+03  0.47967722599E+03  0.47000000000E+01 0.  1.
          6    1    1    2  502    0 -0.12641935787E+03 -0.83693997366E+02  0.68800992434E+02  0.23938278092E+03  0.17200000000E+03 0. -1.
         -6    1    1    2    0  502  0.12641935787E+03  0.83693997366E+02 -0.36108153872E+03  0.42772703544E+03  0.17200000000E+03 0.  1.
</event>
<event>
 4    1 -0.6855026E-004  0.4535481E+03  0.7818608E-02  0.1026669E+00
         -5   -1    0    0    0  501 -0.00000000000E+00  0.00000000000E+00  0.12609103434E+03  0.12617859938E+03  0.47000000000E+01 0.  1.
          5   -1    0    0  501    0  0.00000000000E+00 -0.00000000000E+00 -0.20345418404E+04  0.20345472692E+04  0.47000000000E+01 0. -1.
          6    1    1    2  502    0 -0.30018652268E+03  0.29327443928E+03 -0.14355134203E+04  0.15054582774E+04  0.17200000000E+03 0. -1.
         -6    1    1    2    0  502  0.30018652268E+03 -0.29327443928E+03 -0.47293738584E+03  0.65526759118E+03  0.17200000000E+03 0.  1.
</event>
<event>
 4    1 -0.6855026E-004  0.2350828E+03  0.7818608E-02  0.1123113E+00
          5   -1    0    0  501    0  0.00000000000E+00  0.00000000000E+00  0.64498291508E+03  0.64500003934E+03  0.47000000000E+01 0. -1.
         -5   -1    0    0    0  501 -0.00000000000E+00 -0.00000000000E+00 -0.27104380621E+03  0.27108455302E+03  0.47000000000E+01 0.  1.
          6    1    1    2  502    0  0.46504262898E+01 -0.16018203172E+03  0.56576984533E+03  0.61266583684E+03  0.17200000000E+03 0. -1.
         -6    1    1    2    0  502 -0.46504262898E+01  0.16018203172E+03 -0.19183073646E+03  0.30341875552E+03  0.17200000000E+03 0.  1.
</event>
<event>
 4    1 -0.6855026E-004  0.1725734E+03  0.7818608E-02  0.1175190E+00
         -5   -1    0    0    0  501 -0.00000000000E+00  0.00000000000E+00  0.73944738123E+02  0.74093955867E+02  0.47000000000E+01 0.  1.
          5   -1    0    0  501    0  0.00000000000E+00 -0.00000000000E+00 -0.73852593060E+03  0.73854088592E+03  0.47000000000E+01 0. -1.
          6    1    1    2  502    0 -0.38259386987E+00  0.14050841630E+02 -0.60646188738E+03  0.63053754319E+03  0.17200000000E+03 0. -1.
         -6    1    1    2    0  502  0.38259386987E+00 -0.14050841630E+02 -0.58119305094E+02  0.18209729859E+03  0.17200000000E+03 0.  1.
</event>
<event>
 4    1 -0.6855026E-004  0.2645811E+03  0.7818608E-02  0.1104422E+00
          5   -1    0    0  501    0  0.00000000000E+00  0.00000000000E+00  0.79697159326E+02  0.79835626162E+02  0.47000000000E+01 0. -1.
         -5   -1    0    0    0  501 -0.00000000000E+00 -0.00000000000E+00 -0.28982176775E+04  0.28982214885E+04  0.47000000000E+01 0.  1.
          6    1    1    2  502    0 -0.38871142061E+02  0.19725163709E+03 -0.16593740918E+03  0.31231137953E+03  0.17200000000E+03 0. -1.
         -6    1    1    2    0  502  0.38871142061E+02 -0.19725163709E+03 -0.26525831090E+04  0.26657457351E+04  0.17200000000E+03 0.  1.
</event>
<event>
 4    1 -0.6855026E-004  0.2127531E+03  0.7818608E-02  0.1139404E+00
          5   -1    0    0  501    0  0.00000000000E+00  0.00000000000E+00  0.15655916239E+04  0.15655986787E+04  0.47000000000E+01 0. -1.
         -5   -1    0    0    0  501 -0.00000000000E+00 -0.00000000000E+00 -0.34884492712E+02  0.35199685109E+02  0.47000000000E+01 0.  1.
          6    1    1    2  502    0 -0.10556155461E+03 -0.67354475998E+02  0.11002920832E+04  0.11206723588E+04  0.17200000000E+03 0. -1.
         -6    1    1    2    0  502  0.10556155461E+03  0.67354475998E+02  0.43041504795E+03  0.48012600507E+03  0.17200000000E+03 0. -1.
</event>
<event>
 4    1 -0.6855026E-004  0.1961724E+03  0.7818608E-02  0.1153009E+00
          5   -1    0    0  501    0  0.00000000000E+00  0.00000000000E+00  0.86181857635E+03  0.86183139217E+03  0.47000000000E+01 0. -1.
         -5   -1    0    0    0  501 -0.00000000000E+00 -0.00000000000E+00 -0.17549972228E+03  0.17556264557E+03  0.47000000000E+01 0.  1.
          6    1    1    2  502    0  0.91287295578E+02  0.23796153308E+02  0.79105274057E+03  0.81501415056E+03  0.17200000000E+03 0. -1.
         -6    1    1    2    0  502 -0.91287295578E+02 -0.23796153308E+02 -0.10473388650E+03  0.22237988719E+03  0.17200000000E+03 0.  1.
</event>
<event>
 4    1 -0.6855026E-004  0.2005199E+03  0.7818608E-02  0.1149301E+00
          5   -1    0    0  501    0  0.00000000000E+00  0.00000000000E+00  0.54321360912E+03  0.54323394144E+03  0.47000000000E+01 0. -1.
         -5   -1    0    0    0  501 -0.00000000000E+00 -0.00000000000E+00 -0.82692434810E+02  0.82825894350E+02  0.47000000000E+01 0.  1.
          6    1    1    2  502    0 -0.10126666434E+03 -0.19217278316E+02  0.33210050339E+03  0.38794198721E+03  0.17200000000E+03 0. -1.
         -6    1    1    2    0  502  0.10126666434E+03  0.19217278316E+02  0.12842067092E+03  0.23811784858E+03  0.17200000000E+03 0.  1.
</event>
<event>
 4    1 -0.6855026E-004  0.1759089E+03  0.7818608E-02  0.1171822E+00
          5   -1    0    0  501    0  0.00000000000E+00  0.00000000000E+00  0.15258793474E+04  0.15258865859E+04  0.47000000000E+01 0. -1.
         -5   -1    0    0    0  501 -0.00000000000E+00 -0.00000000000E+00 -0.99675499011E+03  0.99676607101E+03  0.47000000000E+01 0.  1.
          6    1    1    2  502    0 -0.94310303423E+01 -0.35651227308E+02  0.15129916450E+04  0.15231834007E+04  0.17200000000E+03 0. -1.
         -6    1    1    2    0  502  0.94310303423E+01  0.35651227308E+02 -0.98386728766E+03  0.99946925619E+03  0.17200000000E+03 0.  1.
</event>
<event>
 4    1 -0.6855026E-004  0.1928112E+03  0.7818608E-02  0.1155950E+00
         -5   -1    0    0    0  501 -0.00000000000E+00  0.00000000000E+00  0.36258408710E+03  0.36261454772E+03  0.47000000000E+01 0.  1.
          5   -1    0    0  501    0  0.00000000000E+00 -0.00000000000E+00 -0.10264836582E+03  0.10275590983E+03  0.47000000000E+01 0. -1.
          6    1    1    2  502    0  0.86443325753E+02  0.10941682076E+02  0.14038086800E+03  0.23850148233E+03  0.17200000000E+03 0. -1.
         -6    1    1    2    0  502 -0.86443325753E+02 -0.10941682076E+02  0.11955485329E+03  0.22686897522E+03  0.17200000000E+03 0. -1.
</event>
<event>
 4    1 -0.6855026E-004  0.1854128E+03  0.7818608E-02  0.1162665E+00
          5   -1    0    0  501    0  0.00000000000E+00  0.00000000000E+00  0.35075552958E+03  0.35078701734E+03  0.47000000000E+01 0. -1.
         -5   -1    0    0    0  501 -0.00000000000E+00 -0.00000000000E+00 -0.53408217162E+03  0.53410285156E+03  0.47000000000E+01 0.  1.
          6    1    1    2  502    0 -0.36291217255E+01  0.69142846559E+02  0.30813400263E+03  0.35961711212E+03  0.17200000000E+03 0. -1.
         -6    1    1    2    0  502  0.36291217255E+01 -0.69142846559E+02 -0.49146064467E+03  0.52527275678E+03  0.17200000000E+03 0.  1.
</event>
<event>
 4    1 -0.6855026E-004  0.2144750E+03  0.7818608E-02  0.1138070E+00
         -5   -1    0    0    0  501 -0.00000000000E+00  0.00000000000E+00  0.57896580648E+03  0.57898488328E+03  0.47000000000E+01 0.  1.
          5   -1    0    0  501    0  0.00000000000E+00 -0.00000000000E+00 -0.92676968600E+02  0.92796069469E+02  0.47000000000E+01 0. -1.
          6    1    1    2  502    0  0.37582394963E+02 -0.12248710332E+03  0.11592698852E+03  0.24380031493E+03  0.17200000000E+03 0. -1.
         -6    1    1    2    0  502 -0.37582394963E+02  0.12248710332E+03  0.37036184936E+03  0.42798063783E+03  0.17200000000E+03 0.  1.
</event>
<event>
 4    1 -0.6855026E-004  0.2020096E+03  0.7818608E-02  0.1148054E+00
          5   -1    0    0  501    0  0.00000000000E+00  0.00000000000E+00  0.12910991479E+04  0.12911077026E+04  0.47000000000E+01 0. -1.
         -5   -1    0    0    0  501 -0.00000000000E+00 -0.00000000000E+00 -0.37364509978E+02  0.37658951206E+02  0.47000000000E+01 0.  1.
          6    1    1    2  502    0 -0.10580309043E+03 -0.54393643888E+01  0.89062238543E+03  0.91324482701E+03  0.17200000000E+03 0. -1.
         -6    1    1    2    0  502  0.10580309043E+03  0.54393643888E+01  0.36311225246E+03  0.41552182677E+03  0.17200000000E+03 0.  1.
</event>
<event>
 4    1 -0.6855026E-004  0.2774755E+03  0.7818608E-02  0.1097076E+00
          5   -1    0    0  501    0  0.00000000000E+00  0.00000000000E+00  0.68331841982E+03  0.68333458340E+03  0.47000000000E+01 0. -1.
         -5   -1    0    0    0  501 -0.00000000000E+00 -0.00000000000E+00 -0.46691542056E+03  0.46693907521E+03  0.47000000000E+01 0.  1.
          6    1    1    2  502    0 -0.26047174045E+02 -0.21617172334E+03  0.60916524169E+03  0.66938401604E+03  0.17200000000E+03 0. -1.
         -6    1    1    2    0  502  0.26047174045E+02  0.21617172334E+03 -0.39276224243E+03  0.48088964257E+03  0.17200000000E+03 0.  1.
</event>
<event>
 4    1 -0.6855026E-004  0.2738719E+03  0.7818608E-02  0.1099084E+00
         -5   -1    0    0    0  501 -0.00000000000E+00  0.00000000000E+00  0.18626072802E+03  0.18632001719E+03  0.47000000000E+01 0.  1.
          5   -1    0    0  501    0  0.00000000000E+00 -0.00000000000E+00 -0.77674035293E+03  0.77675457248E+03  0.47000000000E+01 0. -1.
          6    1    1    2  502    0  0.20814159066E+03  0.45813856859E+02 -0.62944458544E+03  0.68644469361E+03  0.17200000000E+03 0. -1.
         -6    1    1    2    0  502 -0.20814159066E+03 -0.45813856859E+02  0.38964960534E+02  0.27662989606E+03  0.17200000000E+03 0.  1.
</event>
<event>
 4    1 -0.6855026E-004  0.2236688E+03  0.7818608E-02  0.1131177E+00
         -5   -1    0    0    0  501 -0.00000000000E+00  0.00000000000E+00  0.96693007055E+03  0.96694149323E+03  0.47000000000E+01 0.  1.
          5   -1    0    0  501    0  0.00000000000E+00 -0.00000000000E+00 -0.31252124840E+03  0.31255658800E+03  0.47000000000E+01 0. -1.
          6    1    1    2  502    0  0.12341369805E+03  0.72199809534E+02 -0.25719982227E+03  0.34085114338E+03  0.17200000000E+03 0. -1.
         -6    1    1    2    0  502 -0.12341369805E+03 -0.72199809534E+02  0.91160864443E+03  0.93864693786E+03  0.17200000000E+03 0.  1.
</event>
<event>
 4    1 -0.6855026E-004  0.2201643E+03  0.7818608E-02  0.1133761E+00
          5   -1    0    0  501    0  0.00000000000E+00  0.00000000000E+00  0.48413258507E+03  0.48415539853E+03  0.47000000000E+01 0. -1.
         -5   -1    0    0    0  501 -0.00000000000E+00 -0.00000000000E+00 -0.63835789184E+03  0.63837519381E+03  0.47000000000E+01 0.  1.
          6    1    1    2  502    0 -0.13187489432E+02 -0.13680067215E+03  0.43826470466E+03  0.49045722049E+03  0.17200000000E+03 0. -1.
         -6    1    1    2    0  502  0.13187489432E+02  0.13680067215E+03 -0.59249001142E+03  0.63207337186E+03  0.17200000000E+03 0.  1.
</event>
<event>
 4    1 -0.6855026E-004  0.2462714E+03  0.7818608E-02  0.1115684E+00
         -5   -1    0    0    0  501 -0.00000000000E+00  0.00000000000E+00  0.41552380706E+03  0.41555038712E+03  0.47000000000E+01 0.  1.
          5   -1    0    0  501    0  0.00000000000E+00 -0.00000000000E+00 -0.36950256970E+03  0.36953246003E+03  0.47000000000E+01 0. -1.
          6    1    1    2  502    0  0.50133699041E+02 -0.16897400446E+03 -0.28232532916E+03  0.37464275443E+03  0.17200000000E+03 0. -1.
         -6    1    1    2    0  502 -0.50133699041E+02  0.16897400446E+03  0.32834656652E+03  0.41044009272E+03  0.17200000000E+03 0.  1.
</event>
<event>
 4    1 -0.6855026E-004  0.3373107E+03  0.7818608E-02  0.1067947E+00
         -5   -1    0    0    0  501 -0.00000000000E+00  0.00000000000E+00  0.82734925196E+02  0.82868316305E+02  0.47000000000E+01 0.  1.
          5   -1    0    0  501    0  0.00000000000E+00 -0.00000000000E+00 -0.15761789636E+04  0.15761859711E+04  0.47000000000E+01 0. -1.
          6    1    1    2  502    0  0.28537175898E+03 -0.52511353553E+02 -0.10438246678E+04  0.10969723880E+04  0.17200000000E+03 0.  1.
         -6    1    1    2    0  502 -0.28537175898E+03  0.52511353553E+02 -0.44961937065E+03  0.56208189932E+03  0.17200000000E+03 0.  1.
</event>
<event>
 4    1 -0.6855026E-004  0.1801805E+03  0.7818608E-02  0.1167628E+00
          5   -1    0    0  501    0  0.00000000000E+00  0.00000000000E+00  0.87136048647E+02  0.87262712390E+02  0.47000000000E+01 0. -1.
         -5   -1    0    0    0  501 -0.00000000000E+00 -0.00000000000E+00 -0.49174410262E+03  0.49176656297E+03  0.47000000000E+01 0.  1.
          6    1    1    2  502    0 -0.51174801237E+02 -0.16191241286E+02 -0.59559763968E+02  0.18976928640E+03  0.17200000000E+03 0. -1.
         -6    1    1    2    0  502  0.51174801237E+02  0.16191241286E+02 -0.34504829000E+03  0.38925998896E+03  0.17200000000E+03 0.  1.
</event>
<event>
 4    1 -0.6855026E-004  0.2885796E+03  0.7818608E-02  0.1091093E+00
         -5   -1    0    0    0  501 -0.00000000000E+00  0.00000000000E+00  0.33534901233E+03  0.33538194654E+03  0.47000000000E+01 0.  1.
          5   -1    0    0  501    0  0.00000000000E+00 -0.00000000000E+00 -0.31552665079E+03  0.31556165381E+03  0.47000000000E+01 0. -1.
          6    1    1    2  502    0  0.23155251902E+03 -0.88092447116E+01 -0.14034335212E+03  0.32089628907E+03  0.17200000000E+03 0. -1.
         -6    1    1    2    0  502 -0.23155251902E+03  0.88092447116E+01  0.16016571365E+03  0.33004731129E+03  0.17200000000E+03 0.  1.
</event>
<event>
 4    1 -0.6855026E-004  0.1790320E+03  0.7818608E-02  0.1168743E+00
          5   -1    0    0  501    0  0.00000000000E+00  0.00000000000E+00  0.14138920850E+03  0.14146730464E+03  0.47000000000E+01 0. -1.
         -5   -1    0    0    0  501 -0.00000000000E+00 -0.00000000000E+00 -0.39003335586E+03  0.39006167292E+03  0.47000000000E+01 0.  1.
          6    1    1    2  502    0 -0.47116285040E+02 -0.15764389557E+02  0.47723053322E+02  0.18528343183E+03  0.17200000000E+03 0. -1.
         -6    1    1    2    0  502  0.47116285040E+02  0.15764389557E+02 -0.29636720068E+03  0.34624554572E+03  0.17200000000E+03 0.  1.
</event>
<event>
 4    1 -0.6855026E-004  0.2075915E+03  0.7818608E-02  0.1143488E+00
          5   -1    0    0  501    0  0.00000000000E+00  0.00000000000E+00  0.10449481911E+03  0.10460046473E+03  0.47000000000E+01 0. -1.
         -5   -1    0    0    0  501 -0.00000000000E+00 -0.00000000000E+00 -0.42497377949E+03  0.42499976854E+03  0.47000000000E+01 0.  1.
          6    1    1    2  502    0  0.91954894153E+02  0.71095297290E+02 -0.11411927849E+03  0.23689122732E+03  0.17200000000E+03 0.  1.
         -6    1    1    2    0  502 -0.91954894153E+02 -0.71095297290E+02 -0.20635968189E+03  0.29270900595E+03  0.17200000000E+03 0. -1.
</event>
<event>
 4    1 -0.6855026E-004  0.6705458E+03  0.7818608E-02  0.9768972E-01
         -5   -1    0    0    0  501 -0.00000000000E+00  0.00000000000E+00  0.37109358173E+03  0.37112334392E+03  0.47000000000E+01 0.  1.
          5   -1    0    0  501    0  0.00000000000E+00 -0.00000000000E+00 -0.12133707993E+04  0.12133799020E+04  0.47000000000E+01 0. -1.
          6    1    1    2  502    0 -0.64509832052E+03 -0.62416307853E+02 -0.39050461108E+03  0.77596745415E+03  0.17200000000E+03 0. -1.
         -6    1    1    2    0  502  0.64509832052E+03  0.62416307853E+02 -0.45177260649E+03  0.80853579178E+03  0.17200000000E+03 0.  1.
</event>
<event>
 4    1 -0.6855026E-004  0.4559825E+03  0.7818608E-02  0.1025953E+00
          5   -1    0    0  501    0  0.00000000000E+00  0.00000000000E+00  0.35232644918E+03  0.35235779655E+03  0.47000000000E+01 0. -1.
         -5   -1    0    0    0  501 -0.00000000000E+00 -0.00000000000E+00 -0.60794634281E+03  0.60796451026E+03  0.47000000000E+01 0.  1.
          6    1    1    2  502    0 -0.17824342217E+03 -0.38283846263E+03 -0.45470990176E+02  0.45824405829E+03  0.17200000000E+03 0. -1.
         -6    1    1    2    0  502  0.17824342217E+03  0.38283846263E+03 -0.21014890345E+03  0.50207824852E+03  0.17200000000E+03 0.  1.
</event>
<event>
 4    1 -0.6855026E-004  0.2025964E+03  0.7818608E-02  0.1147567E+00
         -5   -1    0    0    0  501 -0.00000000000E+00  0.00000000000E+00  0.13393527207E+04  0.13393609672E+04  0.47000000000E+01 0.  1.
          5   -1    0    0  501    0  0.00000000000E+00 -0.00000000000E+00 -0.59558368472E+02  0.59743528980E+02  0.47000000000E+01 0. -1.
          6    1    1    2  502    0  0.31838204653E+02  0.10221360677E+03  0.15205111487E+03  0.25330778554E+03  0.17200000000E+03 0. -1.
         -6    1    1    2    0  502 -0.31838204653E+02 -0.10221360677E+03  0.11277432373E+04  0.11457967106E+04  0.17200000000E+03 0.  1.
</event>
<event>
 4    1 -0.6855026E-004  0.2349857E+03  0.7818608E-02  0.1123179E+00
          5   -1    0    0  501    0  0.00000000000E+00  0.00000000000E+00  0.10992195395E+04  0.10992295875E+04  0.47000000000E+01 0. -1.
         -5   -1    0    0    0  501 -0.00000000000E+00 -0.00000000000E+00 -0.10629577649E+03  0.10639963392E+03  0.47000000000E+01 0.  1.
          6    1    1    2  502    0  0.49272584460E+01  0.16003120353E+03  0.93436011130E+03  0.96345580157E+03  0.17200000000E+03 0. -1.
         -6    1    1    2    0  502 -0.49272584460E+01 -0.16003120353E+03  0.58563651712E+02  0.24217341985E+03  0.17200000000E+03 0.  1.
</event>
<event>
 4    1 -0.6855026E-004  0.1791448E+03  0.7818608E-02  0.1168633E+00
          5   -1    0    0  501    0  0.00000000000E+00  0.00000000000E+00  0.46453880138E+03  0.46456257704E+03  0.47000000000E+01 0. -1.
         -5   -1    0    0    0  501 -0.00000000000E+00 -0.00000000000E+00 -0.51943637544E+03  0.51945763844E+03  0.47000000000E+01 0.  1.
          6    1    1    2  502    0 -0.38882781620E+02 -0.31575056162E+02  0.43067880756E+03  0.46645159465E+03  0.17200000000E+03 0. -1.
         -6    1    1    2    0  502  0.38882781620E+02  0.31575056162E+02 -0.48557638162E+03  0.51756862082E+03  0.17200000000E+03 0.  1.
</event>
<event>
 4    1 -0.6855026E-004  0.2024687E+03  0.7818608E-02  0.1147673E+00
         -5   -1    0    0    0  501 -0.00000000000E+00  0.00000000000E+00  0.46145385354E+02  0.46384120014E+02  0.47000000000E+01 0.  1.
          5   -1    0    0  501    0  0.00000000000E+00 -0.00000000000E+00 -0.15740905728E+04  0.15740975895E+04  0.47000000000E+01 0. -1.
          6    1    1    2  502    0 -0.10304254599E+03  0.28138862063E+02 -0.12997010398E+04  0.13153768869E+04  0.17200000000E+03 0. -1.
         -6    1    1    2    0  502  0.10304254599E+03 -0.28138862063E+02 -0.22824414764E+03  0.30510482260E+03  0.17200000000E+03 0.  1.
</event>
<event>
 4    1 -0.6855026E-004  0.2471719E+03  0.7818608E-02  0.1115105E+00
         -5   -1    0    0    0  501 -0.00000000000E+00  0.00000000000E+00  0.85095829130E+03  0.85097127068E+03  0.47000000000E+01 0.  1.
          5   -1    0    0  501    0  0.00000000000E+00 -0.00000000000E+00 -0.25462581681E+03  0.25466919050E+03  0.47000000000E+01 0. -1.
          6    1    1    2  502    0  0.17646831146E+03 -0.19205752018E+02 -0.17029163250E+03  0.30015523644E+03  0.17200000000E+03 0. -1.
         -6    1    1    2    0  502 -0.17646831146E+03  0.19205752018E+02  0.76662410699E+03  0.80548522474E+03  0.17200000000E+03 0.  1.
</event>
<event>
 4    1 -0.6855026E-004  0.1853221E+03  0.7818608E-02  0.1162749E+00
          5   -1    0    0  501    0  0.00000000000E+00  0.00000000000E+00  0.11515705986E+03  0.11525293244E+03  0.47000000000E+01 0. -1.
         -5   -1    0    0    0  501 -0.00000000000E+00 -0.00000000000E+00 -0.37368810925E+03  0.37371766482E+03  0.47000000000E+01 0.  1.
          6    1    1    2  502    0 -0.37600000338E+02  0.57849047870E+02 -0.19254349374E+02  0.18631962413E+03  0.17200000000E+03 0. -1.
         -6    1    1    2    0  502  0.37600000338E+02 -0.57849047870E+02 -0.23927670002E+03  0.30265097313E+03  0.17200000000E+03 0.  1.
</event>
<event>
 4    1 -0.6855026E-004  0.2150517E+03  0.7818608E-02  0.1137627E+00
         -5   -1    0    0    0  501 -0.00000000000E+00  0.00000000000E+00  0.15074739471E+03  0.15082064518E+03  0.47000000000E+01 0.  1.
          5   -1    0    0  501    0  0.00000000000E+00 -0.00000000000E+00 -0.39206671357E+03  0.39209488378E+03  0.47000000000E+01 0. -1.
          6    1    1    2  502    0 -0.16062118256E+02 -0.12808296073E+03 -0.24736948347E+03  0.32777873303E+03  0.17200000000E+03 0. -1.
         -6    1    1    2    0  502  0.16062118256E+02  0.12808296073E+03  0.60501646142E+01  0.21513679593E+03  0.17200000000E+03 0.  1.
</event>
<event>
 4    1 -0.6855026E-004  0.2747912E+03  0.7818608E-02  0.1098568E+00
         -5   -1    0    0    0  501 -0.00000000000E+00  0.00000000000E+00  0.82511332135E+02  0.82645084129E+02  0.47000000000E+01 0.  1.
          5   -1    0    0  501    0  0.00000000000E+00 -0.00000000000E+00 -0.96260957630E+03  0.96262105025E+03  0.47000000000E+01 0. -1.
          6    1    1    2  502    0 -0.21032483570E+03  0.41105644895E+02 -0.55715979564E+03  0.62123847951E+03  0.17200000000E+03 0.  1.
         -6    1    1    2    0  502  0.21032483570E+03 -0.41105644895E+02 -0.32293844852E+03  0.42402765486E+03  0.17200000000E+03 0.  1.
</event>
<event>
 4    1 -0.6855026E-004  0.2004794E+03  0.7818608E-02  0.1149335E+00
          5   -1    0    0  501    0  0.00000000000E+00  0.00000000000E+00  0.42105847149E+03  0.42108470219E+03  0.47000000000E+01 0. -1.
         -5   -1    0    0    0  501 -0.00000000000E+00 -0.00000000000E+00 -0.10066940476E+03  0.10077906060E+03  0.47000000000E+01 0.  1.
          6    1    1    2  502    0 -0.65790233955E+02 -0.79244070124E+02  0.22003473069E+03  0.29766971671E+03  0.17200000000E+03 0. -1.
         -6    1    1    2    0  502  0.65790233955E+02  0.79244070124E+02  0.10035433605E+03  0.22419404608E+03  0.17200000000E+03 0.  1.
</event>
<event>
 4    1 -0.6855026E-004  0.2373666E+03  0.7818608E-02  0.1121560E+00
         -5   -1    0    0    0  501 -0.00000000000E+00  0.00000000000E+00  0.18188776047E+03  0.18194847460E+03  0.47000000000E+01 0.  1.
          5   -1    0    0  501    0  0.00000000000E+00 -0.00000000000E+00 -0.89219007372E+03  0.89220245328E+03  0.47000000000E+01 0. -1.
          6    1    1    2  502    0  0.96570191550E+02  0.13203443856E+03 -0.78911514559E+03  0.82404223670E+03  0.17200000000E+03 0. -1.
         -6    1    1    2    0  502 -0.96570191550E+02 -0.13203443856E+03  0.78812832343E+02  0.25010869118E+03  0.17200000000E+03 0.  1.
</event>
<event>
 4    1 -0.6855026E-004  0.4501115E+03  0.7818608E-02  0.1027689E+00
         -5   -1    0    0    0  501 -0.00000000000E+00  0.00000000000E+00  0.87120468163E+03  0.87121735938E+03  0.47000000000E+01 0.  1.
          5   -1    0    0  501    0  0.00000000000E+00 -0.00000000000E+00 -0.11908622076E+04  0.11908714823E+04  0.47000000000E+01 0. -1.
          6    1    1    2  502    0 -0.19154129184E+03 -0.36922658997E+03 -0.10847416693E+04  0.11744210617E+04  0.17200000000E+03 0. -1.
         -6    1    1    2    0  502  0.19154129184E+03  0.36922658997E+03  0.76508414332E+03  0.88766777997E+03  0.17200000000E+03 0.  1.
</event>
<event>
 4    1 -0.6855026E-004  0.2614324E+03  0.7818608E-02  0.1106286E+00
         -5   -1    0    0    0  501 -0.00000000000E+00  0.00000000000E+00  0.74159121516E+03  0.74160610866E+03  0.47000000000E+01 0.  1.
          5   -1    0    0  501    0  0.00000000000E+00 -0.00000000000E+00 -0.22286278645E+03  0.22291234058E+03  0.47000000000E+01 0. -1.
          6    1    1    2  502    0  0.15461828779E+03 -0.12188554951E+03 -0.10997788893E+03  0.28362305645E+03  0.17200000000E+03 0. -1.
         -6    1    1    2    0  502 -0.15461828779E+03  0.12188554951E+03  0.62870631763E+03  0.68089539280E+03  0.17200000000E+03 0.  1.
</event>
<event>
 4    1 -0.6855026E-004  0.2636884E+03  0.7818608E-02  0.1104947E+00
          5   -1    0    0  501    0  0.00000000000E+00  0.00000000000E+00  0.70500790798E+03  0.70502357430E+03  0.47000000000E+01 0. -1.
         -5   -1    0    0    0  501 -0.00000000000E+00 -0.00000000000E+00 -0.11135099285E+03  0.11145013957E+03  0.47000000000E+01 0.  1.
          6    1    1    2  502    0  0.11741697856E+03 -0.16174309609E+03  0.43515600126E+03  0.50881462383E+03  0.17200000000E+03 0. -1.
         -6    1    1    2    0  502 -0.11741697856E+03  0.16174309609E+03  0.15850091387E+03  0.30765909004E+03  0.17200000000E+03 0.  1.
</event>
<event>
 4    1 -0.6855026E-004  0.1764778E+03  0.7818608E-02  0.1171256E+00
         -5   -1    0    0    0  501 -0.00000000000E+00  0.00000000000E+00  0.11020036088E+04  0.11020136314E+04  0.47000000000E+01 0.  1.
          5   -1    0    0  501    0  0.00000000000E+00 -0.00000000000E+00 -0.42111770801E+02  0.42373237308E+02  0.47000000000E+01 0. -1.
          6    1    1    2  502    0 -0.36945671913E+02  0.13979315340E+02  0.20068400009E+03  0.26724234661E+03  0.17200000000E+03 0. -1.
         -6    1    1    2    0  502  0.36945671913E+02 -0.13979315340E+02  0.85920783794E+03  0.87714452213E+03  0.17200000000E+03 0.  1.
</event>
<event>
 4    1 -0.6855026E-004  0.2364210E+03  0.7818608E-02  0.1122200E+00
         -5   -1    0    0    0  501 -0.00000000000E+00  0.00000000000E+00  0.36232190705E+03  0.36235238971E+03  0.47000000000E+01 0.  1.
          5   -1    0    0  501    0  0.00000000000E+00 -0.00000000000E+00 -0.24832644046E+03  0.24837091422E+03  0.47000000000E+01 0. -1.
          6    1    1    2  502    0  0.16137367811E+03  0.16414276421E+02 -0.13097336440E+03  0.27027562717E+03  0.17200000000E+03 0. -1.
         -6    1    1    2    0  502 -0.16137367811E+03 -0.16414276421E+02  0.24496883099E+03  0.34044767676E+03  0.17200000000E+03 0.  1.
</event>
<event>
 4    1 -0.6855026E-004  0.1934078E+03  0.7818608E-02  0.1155423E+00
         -5   -1    0    0    0  501 -0.00000000000E+00  0.00000000000E+00  0.18731290496E+04  0.18731349461E+04  0.47000000000E+01 0.  1.
          5   -1    0    0  501    0  0.00000000000E+00 -0.00000000000E+00 -0.56803640438E+02  0.56997750543E+02  0.47000000000E+01 0. -1.
          6    1    1    2  502    0 -0.53764996128E+02  0.70227498054E+02  0.13065645971E+03  0.23340455599E+03  0.17200000000E+03 0. -1.
         -6    1    1    2    0  502  0.53764996128E+02 -0.70227498054E+02  0.16856689494E+04  0.16967281407E+04  0.17200000000E+03 0.  1.
</event>
<event>
 4    1 -0.6855026E-004  0.2028863E+03  0.7818608E-02  0.1147326E+00
          5   -1    0    0  501    0  0.00000000000E+00  0.00000000000E+00  0.31266598565E+03  0.31270130889E+03  0.47000000000E+01 0. -1.
         -5   -1    0    0    0  501 -0.00000000000E+00 -0.00000000000E+00 -0.18494723756E+04  0.18494783475E+04  0.47000000000E+01 0.  1.
          6    1    1    2  502    0 -0.10747580342E+03 -0.52741989523E+01  0.27350178066E+03  0.34053794138E+03  0.17200000000E+03 0. -1.
         -6    1    1    2    0  502  0.10747580342E+03  0.52741989523E+01 -0.18103081706E+04  0.18216417150E+04  0.17200000000E+03 0.  1.
</event>
<event>
 4    1 -0.6855026E-004  0.2029206E+03  0.7818608E-02  0.1147298E+00
          5   -1    0    0  501    0  0.00000000000E+00  0.00000000000E+00  0.76936137328E+03  0.76937572921E+03  0.47000000000E+01 0. -1.
         -5   -1    0    0    0  501 -0.00000000000E+00 -0.00000000000E+00 -0.11184078538E+03  0.11193949827E+03  0.47000000000E+01 0.  1.
          6    1    1    2  502    0  0.65970762727E+02  0.85091882338E+02  0.64705211874E+03  0.67812477786E+03  0.17200000000E+03 0. -1.
         -6    1    1    2    0  502 -0.65970762727E+02 -0.85091882338E+02  0.10468469165E+02  0.20319044963E+03  0.17200000000E+03 0.  1.
</event>
<event>
 4    1 -0.6855026E-004  0.1757031E+03  0.7818608E-02  0.1172028E+00
          5   -1    0    0  501    0  0.00000000000E+00  0.00000000000E+00  0.55967182063E+03  0.55969155506E+03  0.47000000000E+01 0. -1.
         -5   -1    0    0    0  501 -0.00000000000E+00 -0.00000000000E+00 -0.56718093886E+02  0.56912495764E+02  0.47000000000E+01 0.  1.
          6    1    1    2  502    0 -0.35691368755E+02 -0.37035152700E+01  0.30441692412E+03  0.35148435743E+03  0.17200000000E+03 0. -1.
         -6    1    1    2    0  502  0.35691368755E+02  0.37035152700E+01  0.19853680263E+03  0.26511969340E+03  0.17200000000E+03 0.  1.
</event>
<event>
 4    1 -0.6855026E-004  0.1765032E+03  0.7818608E-02  0.1171231E+00
         -5   -1    0    0    0  501 -0.00000000000E+00  0.00000000000E+00  0.14037059608E+03  0.14044925861E+03  0.47000000000E+01 0.  1.
          5   -1    0    0  501    0  0.00000000000E+00 -0.00000000000E+00 -0.28407225862E+03  0.28411113691E+03  0.47000000000E+01 0. -1.
          6    1    1    2  502    0 -0.44716619995E+01  0.39362030613E+02 -0.17124253394E+03  0.24592147252E+03  0.17200000000E+03 0. -1.
         -6    1    1    2    0  502  0.44716619995E+01 -0.39362030613E+02  0.27540871400E+02  0.17863892301E+03  0.17200000000E+03 0.  1.
</event>
<event>
 4    1 -0.6855026E-004  0.1925786E+03  0.7818608E-02  0.1156156E+00
          5   -1    0    0  501    0  0.00000000000E+00  0.00000000000E+00  0.77878185255E+02  0.78019880407E+02  0.47000000000E+01 0. -1.
         -5   -1    0    0    0  501 -0.00000000000E+00 -0.00000000000E+00 -0.76060575606E+03  0.76062027725E+03  0.47000000000E+01 0.  1.
          6    1    1    2  502    0 -0.66413495224E+02  0.55603782739E+02 -0.84722179936E+02  0.21039101876E+03  0.17200000000E+03 0. -1.
         -6    1    1    2    0  502  0.66413495224E+02 -0.55603782739E+02 -0.59800539087E+03  0.62824913889E+03  0.17200000000E+03 0.  1.
</event>
<event>
 4    1 -0.6855026E-004  0.1980532E+03  0.7818608E-02  0.1151392E+00
          5   -1    0    0  501    0  0.00000000000E+00  0.00000000000E+00  0.14881012819E+03  0.14888433179E+03  0.47000000000E+01 0. -1.
         -5   -1    0    0    0  501 -0.00000000000E+00 -0.00000000000E+00 -0.44098570222E+03  0.44101074767E+03  0.47000000000E+01 0.  1.
          6    1    1    2  502    0 -0.71061740263E+02  0.67759263617E+02  0.41043330850E+02  0.20226132538E+03  0.17200000000E+03 0. -1.
         -6    1    1    2    0  502  0.71061740263E+02 -0.67759263617E+02 -0.33321890488E+03  0.38763375408E+03  0.17200000000E+03 0.  1.
</event>
<event>
 4    1 -0.6855026E-004  0.4858836E+03  0.7818608E-02  0.1017531E+00
         -5   -1    0    0    0  501 -0.00000000000E+00  0.00000000000E+00  0.42758024491E+03  0.42760607554E+03  0.47000000000E+01 0.  1.
          5   -1    0    0  501    0  0.00000000000E+00 -0.00000000000E+00 -0.55352859636E+03  0.55354854981E+03  0.47000000000E+01 0. -1.
          6    1    1    2  502    0 -0.43777816314E+03  0.12185719288E+03 -0.37918190718E+02  0.48736093890E+03  0.17200000000E+03 0. -1.
         -6    1    1    2    0  502  0.43777816314E+03 -0.12185719288E+03 -0.88030160734E+02  0.49379368645E+03  0.17200000000E+03 0.  1.
</event>
<event>
 4    1 -0.6855026E-004  0.1814123E+03  0.7818608E-02  0.1166443E+00
         -5   -1    0    0    0  501 -0.00000000000E+00  0.00000000000E+00  0.38671792058E+03  0.38674648039E+03  0.47000000000E+01 0.  1.
          5   -1    0    0  501    0  0.00000000000E+00 -0.00000000000E+00 -0.11340233307E+03  0.11349968786E+03  0.47000000000E+01 0. -1.
          6    1    1    2  502    0 -0.94984042946E+01 -0.56887756831E+02  0.11572220372E+02  0.18178105744E+03  0.17200000000E+03 0. -1.
         -6    1    1    2    0  502  0.94984042946E+01  0.56887756831E+02  0.26174336714E+03  0.31846511081E+03  0.17200000000E+03 0.  1.
</event>
<event>
 4    1 -0.6855026E-004  0.1853900E+03  0.7818608E-02  0.1162686E+00
          5   -1    0    0  501    0  0.00000000000E+00  0.00000000000E+00  0.27009309639E+03  0.27013398661E+03  0.47000000000E+01 0. -1.
         -5   -1    0    0    0  501 -0.00000000000E+00 -0.00000000000E+00 -0.19022419702E+03  0.19028225122E+03  0.47000000000E+01 0.  1.
          6    1    1    2  502    0 -0.67617599949E+02 -0.14604763315E+02  0.17244859240E+03  0.25319548960E+03  0.17200000000E+03 0. -1.
         -6    1    1    2    0  502  0.67617599949E+02  0.14604763315E+02 -0.92579693026E+02  0.20722074823E+03  0.17200000000E+03 0.  1.
</event>
<event>
 4    1 -0.6855026E-004  0.2221114E+03  0.7818608E-02  0.1132319E+00
          5   -1    0    0  501    0  0.00000000000E+00  0.00000000000E+00  0.49677944841E+03  0.49680168112E+03  0.47000000000E+01 0. -1.
         -5   -1    0    0    0  501 -0.00000000000E+00 -0.00000000000E+00 -0.31012722714E+03  0.31016283951E+03  0.47000000000E+01 0.  1.
          6    1    1    2  502    0  0.76064610185E+02 -0.11816779182E+03  0.42600603458E+03  0.48043167406E+03  0.17200000000E+03 0. -1.
         -6    1    1    2    0  502 -0.76064610185E+02  0.11816779182E+03 -0.23935381330E+03  0.32653284657E+03  0.17200000000E+03 0.  1.
</event>
<event>
 4    1 -0.6855026E-004  0.3277578E+03  0.7818608E-02  0.1072133E+00
          5   -1    0    0  501    0  0.00000000000E+00  0.00000000000E+00  0.68448350155E+03  0.68449963761E+03  0.47000000000E+01 0. -1.
         -5   -1    0    0    0  501 -0.00000000000E+00 -0.00000000000E+00 -0.22786216549E+03  0.22791063262E+03  0.47000000000E+01 0.  1.
          6    1    1    2  502    0  0.13146705131E+03 -0.24608448576E+03  0.48287376538E+03  0.58360280414E+03  0.17200000000E+03 0. -1.
         -6    1    1    2    0  502 -0.13146705131E+03  0.24608448576E+03 -0.26252429312E+02  0.32880746609E+03  0.17200000000E+03 0.  1.
</event>
<event>
 4    1 -0.6855026E-004  0.1768104E+03  0.7818608E-02  0.1170926E+00
          5   -1    0    0  501    0  0.00000000000E+00  0.00000000000E+00  0.10164420588E+03  0.10175281121E+03  0.47000000000E+01 0. -1.
         -5   -1    0    0    0  501 -0.00000000000E+00 -0.00000000000E+00 -0.36851060809E+03  0.36854057887E+03  0.47000000000E+01 0.  1.
          6    1    1    2  502    0 -0.34810837094E+02 -0.21589885267E+02 -0.22927285233E+03  0.28953058274E+03  0.17200000000E+03 0.  1.
         -6    1    1    2    0  502  0.34810837094E+02  0.21589885267E+02 -0.37593549880E+02  0.18076280734E+03  0.17200000000E+03 0. -1.
</event>
<event>
 4    1 -0.6855026E-004  0.1917317E+03  0.7818608E-02  0.1156909E+00
         -5   -1    0    0    0  501 -0.00000000000E+00  0.00000000000E+00  0.55576259210E+03  0.55578246533E+03  0.47000000000E+01 0.  1.
          5   -1    0    0  501    0  0.00000000000E+00 -0.00000000000E+00 -0.73011743869E+02  0.73162864507E+02  0.47000000000E+01 0. -1.
          6    1    1    2  502    0 -0.75109767822E+02 -0.39186535518E+02  0.14432348607E+03  0.23997985420E+03  0.17200000000E+03 0. -1.
         -6    1    1    2    0  502  0.75109767822E+02  0.39186535518E+02  0.33842736216E+03  0.38896547564E+03  0.17200000000E+03 0.  1.
</event>
<event>
 4    1 -0.6855026E-004  0.2053633E+03  0.7818608E-02  0.1145291E+00
         -5   -1    0    0    0  501 -0.00000000000E+00  0.00000000000E+00  0.74888758753E+02  0.75036099230E+02  0.47000000000E+01 0.  1.
          5   -1    0    0  501    0  0.00000000000E+00 -0.00000000000E+00 -0.14785448716E+04  0.14785523417E+04  0.47000000000E+01 0. -1.
          6    1    1    2  502    0 -0.98200777548E+02  0.54283576431E+02 -0.13132433205E+04  0.13292035654E+04  0.17200000000E+03 0. -1.
         -6    1    1    2    0  502  0.98200777548E+02 -0.54283576431E+02 -0.90412792336E+02  0.22438487560E+03  0.17200000000E+03 0.  1.
</event>
<event>
 4    1 -0.6855026E-004  0.1832974E+03  0.7818608E-02  0.1164649E+00
          5   -1    0    0  501    0  0.00000000000E+00  0.00000000000E+00  0.85147453958E+03  0.85148751110E+03  0.47000000000E+01 0. -1.
         -5   -1    0    0    0  501 -0.00000000000E+00 -0.00000000000E+00 -0.16330236626E+03  0.16336998754E+03  0.47000000000E+01 0.  1.
          6    1    1    2  502    0 -0.46622524609E+02 -0.42898300953E+02  0.78599869133E+03  0.80708851237E+03  0.17200000000E+03 0. -1.
         -6    1    1    2    0  502  0.46622524609E+02  0.42898300953E+02 -0.97826518015E+02  0.20776898626E+03  0.17200000000E+03 0.  1.
</event>
<event>
 4    1 -0.6855026E-004  0.1925839E+03  0.7818608E-02  0.1156151E+00
          5   -1    0    0  501    0  0.00000000000E+00  0.00000000000E+00  0.19151360339E+03  0.19157126685E+03  0.47000000000E+01 0. -1.
         -5   -1    0    0    0  501 -0.00000000000E+00 -0.00000000000E+00 -0.37147771037E+03  0.37150744179E+03  0.47000000000E+01 0.  1.
          6    1    1    2  502    0 -0.19941977072E+02 -0.84302255181E+02  0.10484165206E+03  0.21927226155E+03  0.17200000000E+03 0. -1.
         -6    1    1    2    0  502  0.19941977072E+02  0.84302255181E+02 -0.28480575904E+03  0.34380644709E+03  0.17200000000E+03 0.  1.
</event>
<event>
 4    1 -0.6855026E-004  0.2931531E+03  0.7818608E-02  0.1088714E+00
         -5   -1    0    0    0  501 -0.00000000000E+00  0.00000000000E+00  0.35891856117E+03  0.35894933285E+03  0.47000000000E+01 0.  1.
          5   -1    0    0  501    0  0.00000000000E+00 -0.00000000000E+00 -0.28852482730E+03  0.28856310570E+03  0.47000000000E+01 0. -1.
          6    1    1    2  502    0  0.23739098165E+03  0.53829989670E+00 -0.98412580644E+02  0.30923098804E+03  0.17200000000E+03 0. -1.
         -6    1    1    2    0  502 -0.23739098165E+03 -0.53829989670E+00  0.16880631451E+03  0.33828145050E+03  0.17200000000E+03 0.  1.
</event>
<event>
 4    1 -0.6855026E-004  0.1774544E+03  0.7818608E-02  0.1170290E+00
         -5   -1    0    0    0  501 -0.00000000000E+00  0.00000000000E+00  0.46752595026E+03  0.46754957402E+03  0.47000000000E+01 0.  1.
          5   -1    0    0  501    0  0.00000000000E+00 -0.00000000000E+00 -0.26955590679E+03  0.26959687848E+03  0.47000000000E+01 0. -1.
          6    1    1    2  502    0  0.22226070606E+02  0.37577420616E+02 -0.22024587084E+03  0.28283971499E+03  0.17200000000E+03 0. -1.
         -6    1    1    2    0  502 -0.22226070606E+02 -0.37577420616E+02  0.41821591431E+03  0.45430673750E+03  0.17200000000E+03 0.  1.
</event>
<event>
 4    1 -0.6855026E-004  0.2718644E+03  0.7818608E-02  0.1100217E+00
         -5   -1    0    0    0  501 -0.00000000000E+00  0.00000000000E+00  0.37070238843E+03  0.37073218202E+03  0.47000000000E+01 0.  1.
          5   -1    0    0  501    0  0.00000000000E+00 -0.00000000000E+00 -0.38076452405E+03  0.38079353037E+03  0.47000000000E+01 0. -1.
          6    1    1    2  502    0 -0.18178909624E+03 -0.10620250854E+03 -0.26440381880E+03  0.37923558341E+03  0.17200000000E+03 0. -1.
         -6    1    1    2    0  502  0.18178909624E+03  0.10620250854E+03  0.25434168318E+03  0.37229012898E+03  0.17200000000E+03 0.  1.
</event>
<event>
 4    1 -0.6855026E-004  0.1736270E+03  0.7818608E-02  0.1174117E+00
         -5   -1    0    0    0  501 -0.00000000000E+00  0.00000000000E+00  0.10880232201E+04  0.10880333715E+04  0.47000000000E+01 0.  1.
          5   -1    0    0  501    0  0.00000000000E+00 -0.00000000000E+00 -0.10872155299E+03  0.10882309536E+03  0.47000000000E+01 0. -1.
          6    1    1    2  502    0  0.23443467520E+02 -0.35712972930E+01 -0.26975448780E+02  0.17571005996E+03  0.17200000000E+03 0. -1.
         -6    1    1    2    0  502 -0.23443467520E+02  0.35712972930E+01  0.10062771159E+04  0.10211464069E+04  0.17200000000E+03 0.  1.
</event>
<event>
 4    1 -0.6855026E-004  0.1960263E+03  0.7818608E-02  0.1153136E+00
         -5   -1    0    0    0  501 -0.00000000000E+00  0.00000000000E+00  0.93143229460E+03  0.93144415261E+03  0.47000000000E+01 0.  1.
          5   -1    0    0  501    0  0.00000000000E+00 -0.00000000000E+00 -0.22576941765E+03  0.22581833394E+03  0.47000000000E+01 0. -1.
          6    1    1    2  502    0  0.20379115740E+02 -0.91798666875E+02 -0.17027794802E+03  0.25965531610E+03  0.17200000000E+03 0. -1.
         -6    1    1    2    0  502 -0.20379115740E+02  0.91798666875E+02  0.87594082497E+03  0.89760717046E+03  0.17200000000E+03 0. -1.
</event>
<event>
 4    1 -0.6855026E-004  0.1783307E+03  0.7818608E-02  0.1169428E+00
          5   -1    0    0  501    0  0.00000000000E+00  0.00000000000E+00  0.44003008177E+03  0.44005518161E+03  0.47000000000E+01 0. -1.
         -5   -1    0    0    0  501 -0.00000000000E+00 -0.00000000000E+00 -0.14274937977E+03  0.14282673218E+03  0.47000000000E+01 0.  1.
          6    1    1    2  502    0 -0.39493997143E+02  0.25652919602E+02  0.35347062697E+03  0.39590823713E+03  0.17200000000E+03 0. -1.
         -6    1    1    2    0  502  0.39493997143E+02 -0.25652919602E+02 -0.56189924972E+02  0.18697367666E+03  0.17200000000E+03 0.  1.
</event>
<event>
 4    1 -0.6855026E-004  0.1871678E+03  0.7818608E-02  0.1161041E+00
          5   -1    0    0  501    0  0.00000000000E+00  0.00000000000E+00  0.48008119085E+03  0.48010419683E+03  0.47000000000E+01 0. -1.
         -5   -1    0    0    0  501 -0.00000000000E+00 -0.00000000000E+00 -0.49478123418E+03  0.49480355668E+03  0.47000000000E+01 0.  1.
          6    1    1    2  502    0 -0.11746955095E+02  0.72868297036E+02  0.44272945546E+03  0.48066740102E+03  0.17200000000E+03 0. -1.
         -6    1    1    2    0  502  0.11746955095E+02 -0.72868297036E+02 -0.45742949879E+03  0.49424035249E+03  0.17200000000E+03 0.  1.
</event>
<event>
 4    1 -0.6855026E-004  0.4606801E+03  0.7818608E-02  0.1024584E+00
          5   -1    0    0  501    0  0.00000000000E+00  0.00000000000E+00  0.39610683866E+03  0.39613472157E+03  0.47000000000E+01 0. -1.
         -5   -1    0    0    0  501 -0.00000000000E+00 -0.00000000000E+00 -0.60511297743E+03  0.60513122994E+03  0.47000000000E+01 0.  1.
          6    1    1    2  502    0  0.36411528591E+03 -0.22374578048E+03 -0.27402770251E+03  0.53601986666E+03  0.17200000000E+03 0. -1.
         -6    1    1    2    0  502 -0.36411528591E+03  0.22374578048E+03  0.65021563743E+02  0.46524608485E+03  0.17200000000E+03 0.  1.
</event>
<event>
 4    1 -0.6855026E-004  0.1919066E+03  0.7818608E-02  0.1156753E+00
         -5   -1    0    0    0  501 -0.00000000000E+00  0.00000000000E+00  0.12893056025E+03  0.12901619808E+03  0.47000000000E+01 0.  1.
          5   -1    0    0  501    0  0.00000000000E+00 -0.00000000000E+00 -0.58774979062E+03  0.58776858233E+03  0.47000000000E+01 0. -1.
          6    1    1    2  502    0  0.35775259738E+02 -0.77228774354E+02 -0.48641597869E+03  0.52290406111E+03  0.17200000000E+03 0. -1.
         -6    1    1    2    0  502 -0.35775259738E+02  0.77228774354E+02  0.27596748323E+02  0.19388071930E+03  0.17200000000E+03 0.  1.
</event>
<event>
 4    1 -0.6855026E-004  0.1913297E+03  0.7818608E-02  0.1157267E+00
          5   -1    0    0  501    0  0.00000000000E+00  0.00000000000E+00  0.12775231442E+03  0.12783874154E+03  0.47000000000E+01 0. -1.
         -5   -1    0    0    0  501 -0.00000000000E+00 -0.00000000000E+00 -0.33103506012E+03  0.33106842349E+03  0.47000000000E+01 0.  1.
          6    1    1    2  502    0  0.58113842137E+02  0.60380735161E+02 -0.17349509053E+02  0.19211469827E+03  0.17200000000E+03 0. -1.
         -6    1    1    2    0  502 -0.58113842137E+02 -0.60380735161E+02 -0.18593323666E+03  0.26679246676E+03  0.17200000000E+03 0.  1.
</event>
<event>
 4    1 -0.6855026E-004  0.1978566E+03  0.7818608E-02  0.1151560E+00
         -5   -1    0    0    0  501 -0.00000000000E+00  0.00000000000E+00  0.41348567402E+03  0.41351238508E+03  0.47000000000E+01 0.  1.
          5   -1    0    0  501    0  0.00000000000E+00 -0.00000000000E+00 -0.21024241265E+03  0.21029494069E+03  0.47000000000E+01 0. -1.
          6    1    1    2  502    0  0.65623669949E+02 -0.72503509392E+02 -0.12965216417E+03  0.23655212661E+03  0.17200000000E+03 0. -1.
         -6    1    1    2    0  502 -0.65623669949E+02  0.72503509392E+02  0.33289542553E+03  0.38725519915E+03  0.17200000000E+03 0.  1.
</event>
<event>
 4    1 -0.6855026E-004  0.1738946E+03  0.7818608E-02  0.1173846E+00
         -5   -1    0    0    0  501 -0.00000000000E+00  0.00000000000E+00  0.58590089735E+02  0.58778300546E+02  0.47000000000E+01 0.  1.
          5   -1    0    0  501    0  0.00000000000E+00 -0.00000000000E+00 -0.82805550565E+03  0.82806884402E+03  0.47000000000E+01 0. -1.
          6    1    1    2  502    0  0.94356963011E+01 -0.23796933082E+02 -0.65730597697E+03  0.67991946122E+03  0.17200000000E+03 0. -1.
         -6    1    1    2    0  502 -0.94356963011E+01  0.23796933082E+02 -0.11215943894E+03  0.20692768334E+03  0.17200000000E+03 0.  1.
</event>
<event>
 4    1 -0.6855026E-004  0.1865926E+03  0.7818608E-02  0.1161571E+00
          5   -1    0    0  501    0  0.00000000000E+00  0.00000000000E+00  0.40340562298E+02  0.40613433325E+02  0.47000000000E+01 0. -1.
         -5   -1    0    0    0  501 -0.00000000000E+00 -0.00000000000E+00 -0.12952447095E+04  0.12952532369E+04  0.47000000000E+01 0.  1.
          6    1    1    2  502    0 -0.67163781545E+02 -0.26866861414E+02 -0.24025272989E+03  0.30420088102E+03  0.17200000000E+03 0. -1.
         -6    1    1    2    0  502  0.67163781545E+02  0.26866861414E+02 -0.10146514174E+04  0.10316657892E+04  0.17200000000E+03 0.  1.
</event>
<event>
 4    1 -0.6855026E-004  0.1894068E+03  0.7818608E-02  0.1158997E+00
         -5   -1    0    0    0  501 -0.00000000000E+00  0.00000000000E+00  0.58553489003E+03  0.58555375282E+03  0.47000000000E+01 0.  1.
          5   -1    0    0  501    0  0.00000000000E+00 -0.00000000000E+00 -0.10917947867E+03  0.10928059555E+03  0.47000000000E+01 0. -1.
          6    1    1    2  502    0 -0.23627361776E+02 -0.75714545005E+02  0.79389797965E+01  0.18957313088E+03  0.17200000000E+03 0. -1.
         -6    1    1    2    0  502  0.23627361776E+02  0.75714545005E+02  0.46841643156E+03  0.50526121749E+03  0.17200000000E+03 0.  1.
</event>
<event>
 4    1 -0.6855026E-004  0.1772491E+03  0.7818608E-02  0.1170492E+00
          5   -1    0    0  501    0  0.00000000000E+00  0.00000000000E+00  0.15162311693E+03  0.15169594453E+03  0.47000000000E+01 0. -1.
         -5   -1    0    0    0  501 -0.00000000000E+00 -0.00000000000E+00 -0.40892454398E+03  0.40895155297E+03  0.47000000000E+01 0.  1.
          6    1    1    2  502    0  0.35881813358E+02 -0.23361238069E+02  0.68279154608E+02  0.18994550515E+03  0.17200000000E+03 0. -1.
         -6    1    1    2    0  502 -0.35881813358E+02  0.23361238069E+02 -0.32558058166E+03  0.37070199235E+03  0.17200000000E+03 0.  1.
</event>
<event>
 4    1 -0.6855026E-004  0.1940570E+03  0.7818608E-02  0.1154852E+00
         -5   -1    0    0    0  501 -0.00000000000E+00  0.00000000000E+00  0.40606586943E+03  0.40609306854E+03  0.47000000000E+01 0.  1.
          5   -1    0    0  501    0  0.00000000000E+00 -0.00000000000E+00 -0.14420235645E+03  0.14427892987E+03  0.47000000000E+01 0. -1.
          6    1    1    2  502    0  0.89309641708E+02  0.98942393059E+01  0.29539930114E+03  0.35343861587E+03  0.17200000000E+03 0.  1.
         -6    1    1    2    0  502 -0.89309641708E+02 -0.98942393059E+01 -0.33535788155E+02  0.19693338255E+03  0.17200000000E+03 0.  1.
</event>
<event>
 4    1 -0.6855026E-004  0.1794771E+03  0.7818608E-02  0.1168310E+00
         -5   -1    0    0    0  501 -0.00000000000E+00  0.00000000000E+00  0.34519303685E+03  0.34522503195E+03  0.47000000000E+01 0.  1.
          5   -1    0    0  501    0  0.00000000000E+00 -0.00000000000E+00 -0.58202714100E+03  0.58204611746E+03  0.47000000000E+01 0. -1.
          6    1    1    2  502    0 -0.51215652068E+02 -0.22332626103E+01 -0.54326755168E+03  0.57214653996E+03  0.17200000000E+03 0. -1.
         -6    1    1    2    0  502  0.51215652068E+02  0.22332626103E+01  0.30643344753E+03  0.35512460946E+03  0.17200000000E+03 0.  1.
</event>
<event>
 4    1 -0.6855026E-004  0.1722050E+03  0.7818608E-02  0.1175568E+00
          5   -1    0    0  501    0  0.00000000000E+00  0.00000000000E+00  0.90639401903E+03  0.90640620459E+03  0.47000000000E+01 0. -1.
         -5   -1    0    0    0  501 -0.00000000000E+00 -0.00000000000E+00 -0.72011505441E+02  0.72164720716E+02  0.47000000000E+01 0.  1.
          6    1    1    2  502    0 -0.74147755134E+01  0.39496675023E+01  0.77880965479E+03  0.79762087307E+03  0.17200000000E+03 0. -1.
         -6    1    1    2    0  502  0.74147755134E+01 -0.39496675023E+01  0.55572858794E+02  0.18095005224E+03  0.17200000000E+03 0.  1.
</event>
<event>
 4    1 -0.6855026E-004  0.3650349E+03  0.7818608E-02  0.1056608E+00
         -5   -1    0    0    0  501 -0.00000000000E+00  0.00000000000E+00  0.14646878757E+04  0.14646954165E+04  0.47000000000E+01 0.  1.
          5   -1    0    0  501    0  0.00000000000E+00 -0.00000000000E+00 -0.30990561562E+03  0.30994125345E+03  0.47000000000E+01 0. -1.
          6    1    1    2  502    0  0.28882799010E+03  0.14228458216E+03 -0.16841377940E+03  0.40201207852E+03  0.17200000000E+03 0. -1.
         -6    1    1    2    0  502 -0.28882799010E+03 -0.14228458216E+03  0.13231960395E+04  0.13726245914E+04  0.17200000000E+03 0.  1.
</event>
<event>
 4    1 -0.6855026E-004  0.3370966E+03  0.7818608E-02  0.1068039E+00
          5   -1    0    0  501    0  0.00000000000E+00  0.00000000000E+00  0.15705874579E+03  0.15712905406E+03  0.47000000000E+01 0. -1.
         -5   -1    0    0    0  501 -0.00000000000E+00 -0.00000000000E+00 -0.13735014455E+04  0.13735094870E+04  0.47000000000E+01 0.  1.
          6    1    1    2  502    0  0.35634690051E+02  0.28771558690E+03 -0.81661227938E+02  0.34684671864E+03  0.17200000000E+03 0. -1.
         -6    1    1    2    0  502 -0.35634690051E+02 -0.28771558690E+03 -0.11347814718E+04  0.11837918224E+04  0.17200000000E+03 0.  1.
</event>
<event>
 4    1 -0.6855026E-004  0.1779002E+03  0.7818608E-02  0.1169851E+00
         -5   -1    0    0    0  501 -0.00000000000E+00  0.00000000000E+00  0.76296623362E+03  0.76298070987E+03  0.47000000000E+01 0.  1.
          5   -1    0    0  501    0  0.00000000000E+00 -0.00000000000E+00 -0.93012010768E+02  0.93130683167E+02  0.47000000000E+01 0. -1.
          6    1    1    2  502    0 -0.38185672789E+02  0.24623717713E+02  0.16259526304E+02  0.17864166724E+03  0.17200000000E+03 0. -1.
         -6    1    1    2    0  502  0.38185672789E+02 -0.24623717713E+02  0.65369469654E+03  0.67746972580E+03  0.17200000000E+03 0.  1.
</event>
<event>
 4    1 -0.6855026E-004  0.2219335E+03  0.7818608E-02  0.1132450E+00
          5   -1    0    0  501    0  0.00000000000E+00  0.00000000000E+00  0.48864433128E+02  0.49089946271E+02  0.47000000000E+01 0. -1.
         -5   -1    0    0    0  501 -0.00000000000E+00 -0.00000000000E+00 -0.11883899416E+04  0.11883992356E+04  0.47000000000E+01 0.  1.
          6    1    1    2  502    0 -0.42576255157E+01  0.14018682853E+03 -0.32700880610E+03  0.39520783587E+03  0.17200000000E+03 0. -1.
         -6    1    1    2    0  502  0.42576255157E+01 -0.14018682853E+03 -0.81251670236E+03  0.84228134604E+03  0.17200000000E+03 0.  1.
</event>
<event>
 4    1 -0.6855026E-004  0.1881438E+03  0.7818608E-02  0.1160146E+00
          5   -1    0    0  501    0  0.00000000000E+00  0.00000000000E+00  0.65686871098E+02  0.65854802670E+02  0.47000000000E+01 0. -1.
         -5   -1    0    0    0  501 -0.00000000000E+00 -0.00000000000E+00 -0.54462739819E+03  0.54464767773E+03  0.47000000000E+01 0.  1.
          6    1    1    2  502    0  0.94179729799E+01  0.75666360016E+02 -0.27307287760E+03  0.33161256420E+03  0.17200000000E+03 0.  1.
         -6    1    1    2    0  502 -0.94179729799E+01 -0.75666360016E+02 -0.20586764949E+03  0.27888991620E+03  0.17200000000E+03 0. -1.
</event>
<event>
 4    1 -0.6855026E-004  0.2125572E+03  0.7818608E-02  0.1139557E+00
         -5   -1    0    0    0  501 -0.00000000000E+00  0.00000000000E+00  0.39491071054E+03  0.39493867790E+03  0.47000000000E+01 0.  1.
          5   -1    0    0  501    0  0.00000000000E+00 -0.00000000000E+00 -0.17423614819E+03  0.17429952764E+03  0.47000000000E+01 0. -1.
          6    1    1    2  502    0  0.12449563428E+03 -0.98696706423E+01 -0.56505674613E+02  0.21993968405E+03  0.17200000000E+03 0. -1.
         -6    1    1    2    0  502 -0.12449563428E+03  0.98696706423E+01  0.27718023696E+03  0.34929852149E+03  0.17200000000E+03 0.  1.
</event>
<event>
 4    1 -0.6855026E-004  0.1918034E+03  0.7818608E-02  0.1156845E+00
          5   -1    0    0  501    0  0.00000000000E+00  0.00000000000E+00  0.13386872647E+03  0.13395120726E+03  0.47000000000E+01 0. -1.
         -5   -1    0    0    0  501 -0.00000000000E+00 -0.00000000000E+00 -0.60086605559E+03  0.60088443710E+03  0.47000000000E+01 0.  1.
          6    1    1    2  502    0  0.15814580550E+01  0.84864761997E+02  0.37209564824E+02  0.19537932478E+03  0.17200000000E+03 0. -1.
         -6    1    1    2    0  502 -0.15814580550E+01 -0.84864761997E+02 -0.50420689394E+03  0.53945631958E+03  0.17200000000E+03 0.  1.
</event>
<event>
 4    1 -0.6855026E-004  0.2029148E+03  0.7818608E-02  0.1147303E+00
          5   -1    0    0  501    0  0.00000000000E+00  0.00000000000E+00  0.12561325046E+04  0.12561412974E+04  0.47000000000E+01 0. -1.
         -5   -1    0    0    0  501 -0.00000000000E+00 -0.00000000000E+00 -0.58385815772E+02  0.58574682955E+02  0.47000000000E+01 0.  1.
          6    1    1    2  502    0  0.24967426820E+00  0.10765842614E+03  0.10347057648E+04  0.10544147280E+04  0.17200000000E+03 0.  1.
         -6    1    1    2    0  502 -0.24967426820E+00 -0.10765842614E+03  0.16304092406E+03  0.26030125235E+03  0.17200000000E+03 0.  1.
</event>
<event>
 4    1 -0.6855026E-004  0.4556423E+03  0.7818608E-02  0.1026053E+00
         -5   -1    0    0    0  501 -0.00000000000E+00  0.00000000000E+00  0.65550332302E+03  0.65552017245E+03  0.47000000000E+01 0.  1.
          5   -1    0    0  501    0  0.00000000000E+00 -0.00000000000E+00 -0.34572449335E+03  0.34575643928E+03  0.47000000000E+01 0. -1.
          6    1    1    2  502    0 -0.41647939290E+03  0.67607893111E+02  0.97920205202E+01  0.45574751298E+03  0.17200000000E+03 0. -1.
         -6    1    1    2    0  502  0.41647939290E+03 -0.67607893111E+02  0.29998680915E+03  0.54552909875E+03  0.17200000000E+03 0.  1.
</event>
<event>
 4    1 -0.6855026E-004  0.1830169E+03  0.7818608E-02  0.1164915E+00
          5   -1    0    0  501    0  0.00000000000E+00  0.00000000000E+00  0.51785876686E+03  0.51788009463E+03  0.47000000000E+01 0. -1.
         -5   -1    0    0    0  501 -0.00000000000E+00 -0.00000000000E+00 -0.78078042652E+02  0.78219375760E+02  0.47000000000E+01 0.  1.
          6    1    1    2  502    0 -0.72243170220E+01 -0.62120821545E+02  0.34371129014E+03  0.38940035721E+03  0.17200000000E+03 0. -1.
         -6    1    1    2    0  502  0.72243170220E+01  0.62120821545E+02  0.96069434063E+02  0.20669911317E+03  0.17200000000E+03 0.  1.
</event>
<event>
 4    1 -0.6855026E-004  0.1765670E+03  0.7818608E-02  0.1171167E+00
          5   -1    0    0  501    0  0.00000000000E+00  0.00000000000E+00  0.40953099740E+02  0.41221916238E+02  0.47000000000E+01 0. -1.
         -5   -1    0    0    0  501 -0.00000000000E+00 -0.00000000000E+00 -0.79245103021E+03  0.79246496786E+03  0.47000000000E+01 0.  1.
          6    1    1    2  502    0  0.35972427640E+02 -0.17259566085E+02 -0.28947411873E+03  0.33907399426E+03  0.17200000000E+03 0.  1.
         -6    1    1    2    0  502 -0.35972427640E+02  0.17259566085E+02 -0.46202381174E+03  0.49461288983E+03  0.17200000000E+03 0.  1.
</event>
<event>
 4    1 -0.6855026E-004  0.2552997E+03  0.7818608E-02  0.1110001E+00
         -5   -1    0    0    0  501 -0.00000000000E+00  0.00000000000E+00  0.68339182250E+03  0.68340798434E+03  0.47000000000E+01 0.  1.
          5   -1    0    0  501    0  0.00000000000E+00 -0.00000000000E+00 -0.11937209047E+04  0.11937301572E+04  0.47000000000E+01 0. -1.
          6    1    1    2  502    0  0.87008182417E+02 -0.16740222741E+03 -0.11554601280E+04  0.11833283724E+04  0.17200000000E+03 0. -1.
         -6    1    1    2    0  502 -0.87008182417E+02  0.16740222741E+03  0.64513104580E+03  0.69380976918E+03  0.17200000000E+03 0.  1.
</event>
<event>
 4    1 -0.6855026E-004  0.1726100E+03  0.7818608E-02  0.1175153E+00
          5   -1    0    0  501    0  0.00000000000E+00  0.00000000000E+00  0.16618022876E+03  0.16624667946E+03  0.47000000000E+01 0. -1.
         -5   -1    0    0    0  501 -0.00000000000E+00 -0.00000000000E+00 -0.26237839118E+03  0.26242048349E+03  0.47000000000E+01 0.  1.
          6    1    1    2  502    0 -0.10889085066E+02  0.95725232470E+01  0.72584990584E+02  0.18725059742E+03  0.17200000000E+03 0. -1.
         -6    1    1    2    0  502  0.10889085066E+02 -0.95725232470E+01 -0.16878315300E+03  0.24141656553E+03  0.17200000000E+03 0.  1.
</event>
<event>
 4    1 -0.6855026E-004  0.2041007E+03  0.7818608E-02  0.1146325E+00
         -5   -1    0    0    0  501 -0.00000000000E+00  0.00000000000E+00  0.53097035539E+03  0.53099115652E+03  0.47000000000E+01 0.  1.
          5   -1    0    0  501    0  0.00000000000E+00 -0.00000000000E+00 -0.88577306370E+02  0.88701912064E+02  0.47000000000E+01 0. -1.
          6    1    1    2  502    0 -0.90558693643E+02  0.62227068968E+02  0.11606389990E+03  0.23479334310E+03  0.17200000000E+03 0. -1.
         -6    1    1    2    0  502  0.90558693643E+02 -0.62227068968E+02  0.32632914912E+03  0.38489972548E+03  0.17200000000E+03 0.  1.
</event>
<event>
 4    1 -0.6855026E-004  0.1975512E+03  0.7818608E-02  0.1151822E+00
         -5   -1    0    0    0  501 -0.00000000000E+00  0.00000000000E+00  0.77310464404E+02  0.77453198167E+02  0.47000000000E+01 0.  1.
          5   -1    0    0  501    0  0.00000000000E+00 -0.00000000000E+00 -0.68927501344E+03  0.68929103734E+03  0.47000000000E+01 0. -1.
          6    1    1    2  502    0  0.47609172977E+02  0.84710346124E+02 -0.50462262585E+03  0.54191371141E+03  0.17200000000E+03 0. -1.
         -6    1    1    2    0  502 -0.47609172977E+02 -0.84710346124E+02 -0.10734192319E+03  0.22483052410E+03  0.17200000000E+03 0.  1.
</event>
<event>
 4    1 -0.6855026E-004  0.1871536E+03  0.7818608E-02  0.1161054E+00
          5   -1    0    0  501    0  0.00000000000E+00  0.00000000000E+00  0.58545889406E+02  0.58734241855E+02  0.47000000000E+01 0. -1.
         -5   -1    0    0    0  501 -0.00000000000E+00 -0.00000000000E+00 -0.10234037810E+04  0.10234145733E+04  0.47000000000E+01 0.  1.
          6    1    1    2  502    0 -0.73742587274E+02  0.21247394058E+01 -0.13325480093E+03  0.22974622013E+03  0.17200000000E+03 0. -1.
         -6    1    1    2    0  502  0.73742587274E+02 -0.21247394058E+01 -0.83160309064E+03  0.85240259505E+03  0.17200000000E+03 0.  1.
</event>
<event>
 4    1 -0.6855026E-004  0.2516700E+03  0.7818608E-02  0.1112254E+00
         -5   -1    0    0    0  501 -0.00000000000E+00  0.00000000000E+00  0.58621000710E+03  0.58622884817E+03  0.47000000000E+01 0.  1.
          5   -1    0    0  501    0  0.00000000000E+00 -0.00000000000E+00 -0.38542836937E+03  0.38545702473E+03  0.47000000000E+01 0. -1.
          6    1    1    2  502    0  0.12869130698E+03  0.13111960257E+03 -0.31177494023E+03  0.40067619848E+03  0.17200000000E+03 0. -1.
         -6    1    1    2    0  502 -0.12869130698E+03 -0.13111960257E+03  0.51255657797E+03  0.57100967443E+03  0.17200000000E+03 0.  1.
</event>
<event>
 4    1 -0.6855026E-004  0.4313644E+03  0.7818608E-02  0.1033430E+00
          5   -1    0    0  501    0  0.00000000000E+00  0.00000000000E+00  0.33108196599E+03  0.33111532463E+03  0.47000000000E+01 0. -1.
         -5   -1    0    0    0  501 -0.00000000000E+00 -0.00000000000E+00 -0.10571617291E+04  0.10571721769E+04  0.47000000000E+01 0.  1.
          6    1    1    2  502    0  0.37189135993E+03  0.13486326521E+03  0.11203720596E+03  0.44567658612E+03  0.17200000000E+03 0. -1.
         -6    1    1    2    0  502 -0.37189135993E+03 -0.13486326521E+03 -0.83811696911E+03  0.94261091539E+03  0.17200000000E+03 0.  1.
</event>
<event>
 4    1 -0.6855026E-004  0.2644889E+03  0.7818608E-02  0.1104476E+00
         -5   -1    0    0    0  501 -0.00000000000E+00  0.00000000000E+00  0.23387528319E+03  0.23392250445E+03  0.47000000000E+01 0.  1.
          5   -1    0    0  501    0  0.00000000000E+00 -0.00000000000E+00 -0.75967874836E+03  0.75969328726E+03  0.47000000000E+01 0. -1.
          6    1    1    2  502    0 -0.90071192404E+02  0.17960386777E+03 -0.64975406219E+03  0.70152313600E+03  0.17200000000E+03 0. -1.
         -6    1    1    2    0  502  0.90071192404E+02 -0.17960386777E+03  0.12395059702E+03  0.29209265571E+03  0.17200000000E+03 0.  1.
</event>
<event>
 4    1 -0.6855026E-004  0.1879616E+03  0.7818608E-02  0.1160313E+00
         -5   -1    0    0    0  501 -0.00000000000E+00  0.00000000000E+00  0.93802153938E+02  0.93919827957E+02  0.47000000000E+01 0.  1.
          5   -1    0    0  501    0  0.00000000000E+00 -0.00000000000E+00 -0.46928399868E+03  0.46930753395E+03  0.47000000000E+01 0. -1.
          6    1    1    2  502    0  0.73616220714E+01  0.75441191327E+02 -0.31309591852E+03  0.36518299662E+03  0.17200000000E+03 0. -1.
         -6    1    1    2    0  502 -0.73616220714E+01 -0.75441191327E+02 -0.62385926223E+02  0.19804436528E+03  0.17200000000E+03 0.  1.
</event>
<event>
 4    1 -0.6855026E-004  0.2398906E+03  0.7818608E-02  0.1119866E+00
          5   -1    0    0  501    0  0.00000000000E+00  0.00000000000E+00  0.17044070534E+03  0.17050549562E+03  0.47000000000E+01 0. -1.
         -5   -1    0    0    0  501 -0.00000000000E+00 -0.00000000000E+00 -0.45398451187E+03  0.45400884024E+03  0.47000000000E+01 0.  1.
          6    1    1    2  502    0 -0.15222440238E+03 -0.69218794757E+02  0.16386491443E+02  0.24044963575E+03  0.17200000000E+03 0. -1.
         -6    1    1    2    0  502  0.15222440238E+03  0.69218794757E+02 -0.29993029797E+03  0.38406470011E+03  0.17200000000E+03 0.  1.
</event>
<event>
 4    1 -0.6855026E-004  0.1930164E+03  0.7818608E-02  0.1155769E+00
         -5   -1    0    0    0  501 -0.00000000000E+00  0.00000000000E+00  0.13712010512E+03  0.13720063130E+03  0.47000000000E+01 0.  1.
          5   -1    0    0  501    0  0.00000000000E+00 -0.00000000000E+00 -0.39856888538E+03  0.39859659606E+03  0.47000000000E+01 0. -1.
          6    1    1    2  502    0 -0.64561207832E+02  0.59187530778E+02 -0.28195701947E+03  0.34169441638E+03  0.17200000000E+03 0. -1.
         -6    1    1    2    0  502  0.64561207832E+02 -0.59187530778E+02  0.20508239211E+02  0.19410281098E+03  0.17200000000E+03 0.  1.
</event>
<event>
 4    1 -0.6855026E-004  0.1812242E+03  0.7818608E-02  0.1166624E+00
          5   -1    0    0  501    0  0.00000000000E+00  0.00000000000E+00  0.12861524898E+03  0.12870109661E+03  0.47000000000E+01 0. -1.
         -5   -1    0    0    0  501 -0.00000000000E+00 -0.00000000000E+00 -0.10469028459E+04  0.10469133960E+04  0.47000000000E+01 0.  1.
          6    1    1    2  502    0  0.29694491533E+02 -0.48748782130E+02  0.52008738668E+02  0.18853942687E+03  0.17200000000E+03 0. -1.
         -6    1    1    2    0  502 -0.29694491533E+02  0.48748782130E+02 -0.97029633558E+03  0.98707506575E+03  0.17200000000E+03 0.  1.
</event>
<event>
 4    1 -0.6855026E-004  0.1813781E+03  0.7818608E-02  0.1166476E+00
          5   -1    0    0  501    0  0.00000000000E+00  0.00000000000E+00  0.35360564904E+03  0.35363688302E+03  0.47000000000E+01 0. -1.
         -5   -1    0    0    0  501 -0.00000000000E+00 -0.00000000000E+00 -0.48060879571E+03  0.48063177643E+03  0.47000000000E+01 0.  1.
          6    1    1    2  502    0  0.23733140282E+02  0.52447769533E+02  0.31109490752E+03  0.36010841695E+03  0.17200000000E+03 0. -1.
         -6    1    1    2    0  502 -0.23733140282E+02 -0.52447769533E+02 -0.43809805419E+03  0.47416024250E+03  0.17200000000E+03 0.  1.
</event>
<event>
 4    1 -0.6855026E-004  0.2351342E+03  0.7818608E-02  0.1123077E+00
         -5   -1    0    0    0  501 -0.00000000000E+00  0.00000000000E+00  0.33825886076E+03  0.33829151170E+03  0.47000000000E+01 0.  1.
          5   -1    0    0  501    0  0.00000000000E+00 -0.00000000000E+00 -0.16337651435E+03  0.16344410495E+03  0.47000000000E+01 0. -1.
          6    1    1    2  502    0  0.16001071726E+03 -0.10032900913E+02  0.88274278489E+02  0.25115819115E+03  0.17200000000E+03 0. -1.
         -6    1    1    2    0  502 -0.16001071726E+03  0.10032900913E+02  0.86608067923E+02  0.25057742550E+03  0.17200000000E+03 0. -1.
</event>
<event>
 4    1 -0.6855026E-004  0.1737936E+03  0.7818608E-02  0.1173949E+00
          5   -1    0    0  501    0  0.00000000000E+00  0.00000000000E+00  0.15557893931E+03  0.15564991602E+03  0.47000000000E+01 0. -1.
         -5   -1    0    0    0  501 -0.00000000000E+00 -0.00000000000E+00 -0.32768063929E+03  0.32771434416E+03  0.47000000000E+01 0.  1.
          6    1    1    2  502    0 -0.20601363815E+02 -0.13992214154E+02  0.68290150903E+02  0.18672906297E+03  0.17200000000E+03 0. -1.
         -6    1    1    2    0  502  0.20601363815E+02  0.13992214154E+02 -0.24039185089E+03  0.29663519721E+03  0.17200000000E+03 0.  1.
</event>
<event>
 4    1 -0.6855026E-004  0.5253306E+03  0.7818608E-02  0.1007371E+00
          5   -1    0    0  501    0  0.00000000000E+00  0.00000000000E+00  0.81997265796E+03  0.81998612781E+03  0.47000000000E+01 0. -1.
         -5   -1    0    0    0  501 -0.00000000000E+00 -0.00000000000E+00 -0.53588898267E+03  0.53590959289E+03  0.47000000000E+01 0.  1.
          6    1    1    2  502    0 -0.20197320259E+03  0.45342596306E+03  0.55552740170E+03  0.76458025908E+03  0.17200000000E+03 0. -1.
         -6    1    1    2    0  502  0.20197320259E+03 -0.45342596306E+03 -0.27144372641E+03  0.59131546162E+03  0.17200000000E+03 0.  1.
</event>
<event>
 4    1 -0.6855026E-004  0.3033575E+03  0.7818608E-02  0.1083574E+00
          5   -1    0    0  501    0  0.00000000000E+00  0.00000000000E+00  0.91112648465E+03  0.91113860692E+03  0.47000000000E+01 0. -1.
         -5   -1    0    0    0  501 -0.00000000000E+00 -0.00000000000E+00 -0.61213154969E+03  0.61214959293E+03  0.47000000000E+01 0.  1.
          6    1    1    2  502    0  0.52303412783E+02  0.24434831592E+03  0.84547768080E+03  0.89825289046E+03  0.17200000000E+03 0. -1.
         -6    1    1    2    0  502 -0.52303412783E+02 -0.24434831592E+03 -0.54648274585E+03  0.62503530939E+03  0.17200000000E+03 0.  1.
</event>
<event>
 4    1 -0.6855026E-004  0.1814740E+03  0.7818608E-02  0.1166384E+00
         -5   -1    0    0    0  501 -0.00000000000E+00  0.00000000000E+00  0.24186811228E+03  0.24191377335E+03  0.47000000000E+01 0.  1.
          5   -1    0    0  501    0  0.00000000000E+00 -0.00000000000E+00 -0.15660119338E+04  0.15660189867E+04  0.47000000000E+01 0. -1.
          6    1    1    2  502    0 -0.57851267517E+02  0.14301924504E+01 -0.15258513192E+04  0.15366050445E+04  0.17200000000E+03 0. -1.
         -6    1    1    2    0  502  0.57851267517E+02 -0.14301924504E+01  0.20170749768E+03  0.27132771555E+03  0.17200000000E+03 0.  1.
</event>
<event>
 4    1 -0.6855026E-004  0.1870967E+03  0.7818608E-02  0.1161106E+00
          5   -1    0    0  501    0  0.00000000000E+00  0.00000000000E+00  0.81042705126E+03  0.81044067976E+03  0.47000000000E+01 0. -1.
         -5   -1    0    0    0  501 -0.00000000000E+00 -0.00000000000E+00 -0.59396125732E+02  0.59581790440E+02  0.47000000000E+01 0.  1.
          6    1    1    2  502    0 -0.59362591139E+02  0.43557609639E+02  0.60326221096E+03  0.63160943451E+03  0.17200000000E+03 0. -1.
         -6    1    1    2    0  502  0.59362591139E+02 -0.43557609639E+02  0.14776871456E+03  0.23841303569E+03  0.17200000000E+03 0.  1.
</event>
<event>
 4    1 -0.6855026E-004  0.2114458E+03  0.7818608E-02  0.1140426E+00
          5   -1    0    0  501    0  0.00000000000E+00  0.00000000000E+00  0.79538998807E+03  0.79540387422E+03  0.47000000000E+01 0. -1.
         -5   -1    0    0    0  501 -0.00000000000E+00 -0.00000000000E+00 -0.85490482815E+02  0.85619581008E+02  0.47000000000E+01 0.  1.
          6    1    1    2  502    0  0.87199649722E+02 -0.86726808751E+02  0.61297901026E+03  0.64842315296E+03  0.17200000000E+03 0. -1.
         -6    1    1    2    0  502 -0.87199649722E+02  0.86726808751E+02  0.96920494996E+02  0.23260030227E+03  0.17200000000E+03 0.  1.
</event>
<event>
 4    1 -0.6855026E-004  0.2069143E+03  0.7818608E-02  0.1144033E+00
         -5   -1    0    0    0  501 -0.00000000000E+00  0.00000000000E+00  0.10893020564E+03  0.10903155369E+03  0.47000000000E+01 0.  1.
          5   -1    0    0  501    0  0.00000000000E+00 -0.00000000000E+00 -0.40227128005E+03  0.40229873571E+03  0.47000000000E+01 0. -1.
          6    1    1    2  502    0 -0.27803933367E+02 -0.11160851261E+03 -0.18602208428E+03  0.27824042596E+03  0.17200000000E+03 0. -1.
         -6    1    1    2    0  502  0.27803933367E+02  0.11160851261E+03 -0.10731899013E+03  0.23308986345E+03  0.17200000000E+03 0.  1.
</event>
<event>
 4    1 -0.6855026E-004  0.2241011E+03  0.7818608E-02  0.1130862E+00
          5   -1    0    0  501    0  0.00000000000E+00  0.00000000000E+00  0.10093007198E+04  0.10093116630E+04  0.47000000000E+01 0. -1.
         -5   -1    0    0    0  501 -0.00000000000E+00 -0.00000000000E+00 -0.36874422697E+03  0.36877417876E+03  0.47000000000E+01 0.  1.
          6    1    1    2  502    0  0.14360638467E+03 -0.38067566526E+01  0.96115106675E+03  0.98693092880E+03  0.17200000000E+03 0. -1.
         -6    1    1    2    0  502 -0.14360638467E+03  0.38067566526E+01 -0.32059457389E+03  0.39115491295E+03  0.17200000000E+03 0.  1.
</event>
<event>
 4    1 -0.6855026E-004  0.4691526E+03  0.7818608E-02  0.1022160E+00
         -5   -1    0    0    0  501 -0.00000000000E+00  0.00000000000E+00  0.23762562200E+03  0.23767209813E+03  0.47000000000E+01 0.  1.
          5   -1    0    0  501    0  0.00000000000E+00 -0.00000000000E+00 -0.22169093176E+04  0.22169142997E+04  0.47000000000E+01 0. -1.
          6    1    1    2  502    0 -0.28948186427E+03  0.32668090395E+03 -0.19261173580E+04  0.19824308915E+04  0.17200000000E+03 0. -1.
         -6    1    1    2    0  502  0.28948186427E+03 -0.32668090395E+03 -0.53166337582E+02  0.47215550637E+03  0.17200000000E+03 0.  1.
</event>
<event>
 4    1 -0.6855026E-004  0.2039929E+03  0.7818608E-02  0.1146413E+00
          5   -1    0    0  501    0  0.00000000000E+00  0.00000000000E+00  0.14701762537E+03  0.14709273323E+03  0.47000000000E+01 0. -1.
         -5   -1    0    0    0  501 -0.00000000000E+00 -0.00000000000E+00 -0.24276334174E+04  0.24276379671E+04  0.47000000000E+01 0.  1.
          6    1    1    2  502    0 -0.10530311080E+03  0.30665076860E+02  0.69705381919E+02  0.21557349640E+03  0.17200000000E+03 0. -1.
         -6    1    1    2    0  502  0.10530311080E+03 -0.30665076860E+02 -0.23503211740E+04  0.23591572039E+04  0.17200000000E+03 0.  1.
</event>
<event>
 4    1 -0.6855026E-004  0.1900691E+03  0.7818608E-02  0.1158399E+00
         -5   -1    0    0    0  501 -0.00000000000E+00  0.00000000000E+00  0.80239851182E+02  0.80377383123E+02  0.47000000000E+01 0.  1.
          5   -1    0    0  501    0  0.00000000000E+00 -0.00000000000E+00 -0.60566947498E+03  0.60568771073E+03  0.47000000000E+01 0. -1.
          6    1    1    2  502    0  0.42333670750E+02  0.68921155685E+02 -0.43677116328E+03  0.47633529625E+03  0.17200000000E+03 0. -1.
         -6    1    1    2    0  502 -0.42333670750E+02 -0.68921155685E+02 -0.88658460521E+02  0.20972979760E+03  0.17200000000E+03 0.  1.
</event>
<event>
 4    1 -0.6855026E-004  0.2078469E+03  0.7818608E-02  0.1143282E+00
          5   -1    0    0  501    0  0.00000000000E+00  0.00000000000E+00  0.23190734968E+03  0.23195497156E+03  0.47000000000E+01 0. -1.
         -5   -1    0    0    0  501 -0.00000000000E+00 -0.00000000000E+00 -0.88071177116E+03  0.88072431206E+03  0.47000000000E+01 0.  1.
          6    1    1    2  502    0 -0.11343624202E+03  0.27360071341E+02  0.16962009696E+03  0.26827473195E+03  0.17200000000E+03 0. -1.
         -6    1    1    2    0  502  0.11343624202E+03 -0.27360071341E+02 -0.81842451844E+03  0.84440455168E+03  0.17200000000E+03 0.  1.
</event>
<event>
 4    1 -0.6855026E-004  0.1888835E+03  0.7818608E-02  0.1159472E+00
         -5   -1    0    0    0  501 -0.00000000000E+00  0.00000000000E+00  0.34152241431E+03  0.34155475327E+03  0.47000000000E+01 0.  1.
          5   -1    0    0  501    0  0.00000000000E+00 -0.00000000000E+00 -0.35680097921E+03  0.35683193350E+03  0.47000000000E+01 0. -1.
          6    1    1    2  502    0 -0.15928719877E+02  0.76414931006E+02 -0.30130906651E+03  0.35561794016E+03  0.17200000000E+03 0. -1.
         -6    1    1    2    0  502  0.15928719877E+02 -0.76414931006E+02  0.28603050162E+03  0.34276874661E+03  0.17200000000E+03 0.  1.
</event>
<event>
 4    1 -0.6855026E-004  0.2560999E+03  0.7818608E-02  0.1109509E+00
         -5   -1    0    0    0  501 -0.00000000000E+00  0.00000000000E+00  0.13459086755E+03  0.13467290606E+03  0.47000000000E+01 0.  1.
          5   -1    0    0  501    0  0.00000000000E+00 -0.00000000000E+00 -0.13335008884E+04  0.13335091711E+04  0.47000000000E+01 0. -1.
          6    1    1    2  502    0 -0.12288844495E+03  0.14457376719E+03 -0.11842912102E+04  0.12116653064E+04  0.17200000000E+03 0. -1.
         -6    1    1    2    0  502  0.12288844495E+03 -0.14457376719E+03 -0.14618810626E+02  0.25651677077E+03  0.17200000000E+03 0.  1.
</event>
<event>
 4    1 -0.6855026E-004  0.2194888E+03  0.7818608E-02  0.1134265E+00
         -5   -1    0    0    0  501 -0.00000000000E+00  0.00000000000E+00  0.76709079515E+03  0.76710519357E+03  0.47000000000E+01 0.  1.
          5   -1    0    0  501    0  0.00000000000E+00 -0.00000000000E+00 -0.36850786794E+03  0.36853783894E+03  0.47000000000E+01 0. -1.
          6    1    1    2  502    0 -0.12506813536E+03 -0.54307339668E+02 -0.31789109725E+03  0.38630308740E+03  0.17200000000E+03 0. -1.
         -6    1    1    2    0  502  0.12506813536E+03  0.54307339668E+02  0.71647402445E+03  0.74933994511E+03  0.17200000000E+03 0.  1.
</event>
<event>
 4    1 -0.6855026E-004  0.4308094E+03  0.7818608E-02  0.1033605E+00
          5   -1    0    0  501    0  0.00000000000E+00  0.00000000000E+00  0.11768761502E+03  0.11778142778E+03  0.47000000000E+01 0. -1.
         -5   -1    0    0    0  501 -0.00000000000E+00 -0.00000000000E+00 -0.19080633628E+04  0.19080691514E+04  0.47000000000E+01 0.  1.
          6    1    1    2  502    0  0.24250883242E+03 -0.31177271296E+03 -0.47282888353E+03  0.63965921509E+03  0.17200000000E+03 0. -1.
         -6    1    1    2    0  502 -0.24250883242E+03  0.31177271296E+03 -0.13175468643E+04  0.13861913641E+04  0.17200000000E+03 0.  1.
</event>
<event>
 4    1 -0.6855026E-004  0.2021508E+03  0.7818608E-02  0.1147937E+00
         -5   -1    0    0    0  501 -0.00000000000E+00  0.00000000000E+00  0.27955733220E+03  0.27959683830E+03  0.47000000000E+01 0.  1.
          5   -1    0    0  501    0  0.00000000000E+00 -0.00000000000E+00 -0.28997964892E+03  0.29001773530E+03  0.47000000000E+01 0. -1.
          6    1    1    2  502    0 -0.66459912962E+02 -0.82849419095E+02 -0.20580168350E+03  0.28847751941E+03  0.17200000000E+03 0. -1.
         -6    1    1    2    0  502  0.66459912962E+02  0.82849419095E+02  0.19537936678E+03  0.28113705419E+03  0.17200000000E+03 0.  1.
</event>
<event>
 4    1 -0.6855026E-004  0.1721659E+03  0.7818608E-02  0.1175608E+00
          5   -1    0    0  501    0  0.00000000000E+00  0.00000000000E+00  0.21204964071E+03  0.21210172118E+03  0.47000000000E+01 0. -1.
         -5   -1    0    0    0  501 -0.00000000000E+00 -0.00000000000E+00 -0.29263854752E+03  0.29267628789E+03  0.47000000000E+01 0.  1.
          6    1    1    2  502    0  0.56774894320E+01 -0.49877627922E+01  0.14214408465E+03  0.22326229521E+03  0.17200000000E+03 0. -1.
         -6    1    1    2    0  502 -0.56774894320E+01  0.49877627922E+01 -0.22273299145E+03  0.28151571385E+03  0.17200000000E+03 0.  1.
</event>
<event>
 4    1 -0.6855026E-004  0.3061594E+03  0.7818608E-02  0.1082201E+00
         -5   -1    0    0    0  501 -0.00000000000E+00  0.00000000000E+00  0.46266653290E+03  0.46269040477E+03  0.47000000000E+01 0.  1.
          5   -1    0    0  501    0  0.00000000000E+00 -0.00000000000E+00 -0.25639128624E+03  0.25643436131E+03  0.47000000000E+01 0. -1.
          6    1    1    2  502    0 -0.97888661813E+02  0.23359663296E+03 -0.61628396669E+02  0.31230055447E+03  0.17200000000E+03 0. -1.
         -6    1    1    2    0  502  0.97888661813E+02 -0.23359663296E+03  0.26790364334E+03  0.40682421161E+03  0.17200000000E+03 0.  1.
</event>
<event>
 4    1 -0.6855026E-004  0.2418729E+03  0.7818608E-02  0.1118551E+00
         -5   -1    0    0    0  501 -0.00000000000E+00  0.00000000000E+00  0.13434302466E+03  0.13442521443E+03  0.47000000000E+01 0.  1.
          5   -1    0    0  501    0  0.00000000000E+00 -0.00000000000E+00 -0.52311255830E+03  0.52313367188E+03  0.47000000000E+01 0. -1.
          6    1    1    2  502    0 -0.89128326072E+02 -0.14482631725E+03 -0.32912029209E+03  0.40843933129E+03  0.17200000000E+03 0. -1.
         -6    1    1    2    0  502  0.89128326072E+02  0.14482631725E+03 -0.59649241559E+02  0.24911955502E+03  0.17200000000E+03 0.  1.
</event>
<event>
 4    1 -0.6855026E-004  0.1776139E+03  0.7818608E-02  0.1170132E+00
          5   -1    0    0  501    0  0.00000000000E+00  0.00000000000E+00  0.92085174311E+03  0.92086373736E+03  0.47000000000E+01 0. -1.
         -5   -1    0    0    0  501 -0.00000000000E+00 -0.00000000000E+00 -0.34181405970E+02  0.34503021811E+02  0.47000000000E+01 0.  1.
          6    1    1    2  502    0  0.96368073941E+01  0.43241600441E+02  0.41805049051E+03  0.45421681682E+03  0.17200000000E+03 0. -1.
         -6    1    1    2    0  502 -0.96368073941E+01 -0.43241600441E+02  0.46861984662E+03  0.50114994235E+03  0.17200000000E+03 0. -1.
</event>
<event>
 4    1 -0.6855026E-004  0.4497755E+03  0.7818608E-02  0.1027789E+00
         -5   -1    0    0    0  501 -0.00000000000E+00  0.00000000000E+00  0.37270732224E+03  0.37273695557E+03  0.47000000000E+01 0.  1.
          5   -1    0    0  501    0  0.00000000000E+00 -0.00000000000E+00 -0.69446830311E+03  0.69448420718E+03  0.47000000000E+01 0. -1.
          6    1    1    2  502    0  0.41371688235E+03 -0.39399478870E+02 -0.41030985729E+03  0.60881208650E+03  0.17200000000E+03 0. -1.
         -6    1    1    2    0  502 -0.41371688235E+03  0.39399478870E+02  0.88548876416E+02  0.45840907626E+03  0.17200000000E+03 0.  1.
</event>
<event>
 4    1 -0.6855026E-004  0.2140661E+03  0.7818608E-02  0.1138386E+00
          5   -1    0    0  501    0  0.00000000000E+00  0.00000000000E+00  0.14017232253E+04  0.14017311049E+04  0.47000000000E+01 0. -1.
         -5   -1    0    0    0  501 -0.00000000000E+00 -0.00000000000E+00 -0.67086851512E+02  0.67251287317E+02  0.47000000000E+01 0.  1.
          6    1    1    2  502    0 -0.11290261890E+03  0.59104159593E+02  0.11935723815E+04  0.12126167296E+04  0.17200000000E+03 0. -1.
         -6    1    1    2    0  502  0.11290261890E+03 -0.59104159593E+02  0.14106399231E+03  0.25636566260E+03  0.17200000000E+03 0.  1.
</event>
<event>
 4    1 -0.6855026E-004  0.1784209E+03  0.7818608E-02  0.1169340E+00
          5   -1    0    0  501    0  0.00000000000E+00  0.00000000000E+00  0.21010984401E+03  0.21016240518E+03  0.47000000000E+01 0. -1.
         -5   -1    0    0    0  501 -0.00000000000E+00 -0.00000000000E+00 -0.21215138909E+03  0.21220344458E+03  0.47000000000E+01 0.  1.
          6    1    1    2  502    0 -0.47077050411E+02  0.58103568337E+01  0.11195477820E+03  0.21063684693E+03  0.17200000000E+03 0. -1.
         -6    1    1    2    0  502  0.47077050411E+02 -0.58103568337E+01 -0.11399632327E+03  0.21172900283E+03  0.17200000000E+03 0.  1.
</event>
<event>
 4    1 -0.6855026E-004  0.2208250E+03  0.7818608E-02  0.1133269E+00
          5   -1    0    0  501    0  0.00000000000E+00  0.00000000000E+00  0.13292278521E+04  0.13292361614E+04  0.47000000000E+01 0. -1.
         -5   -1    0    0    0  501 -0.00000000000E+00 -0.00000000000E+00 -0.47981494860E+02  0.48211138226E+02  0.47000000000E+01 0.  1.
          6    1    1    2  502    0  0.13583537695E+03  0.26989776141E+02  0.97617976410E+03  0.10008449578E+04  0.17200000000E+03 0. -1.
         -6    1    1    2    0  502 -0.13583537695E+03 -0.26989776141E+02  0.30506659311E+03  0.37660234184E+03  0.17200000000E+03 0.  1.
</event>
<event>
 4    1 -0.6855026E-004  0.1745287E+03  0.7818608E-02  0.1173206E+00
          5   -1    0    0  501    0  0.00000000000E+00  0.00000000000E+00  0.69327741805E+03  0.69329334944E+03  0.47000000000E+01 0. -1.
         -5   -1    0    0    0  501 -0.00000000000E+00 -0.00000000000E+00 -0.43847764200E+02  0.44098939050E+02  0.47000000000E+01 0.  1.
          6    1    1    2  502    0 -0.23849160223E+02 -0.17535378504E+02  0.33753203109E+03  0.37998439962E+03  0.17200000000E+03 0.  1.
         -6    1    1    2    0  502  0.23849160223E+02  0.17535378504E+02  0.31189762275E+03  0.35740788886E+03  0.17200000000E+03 0.  1.
</event>
<event>
 4    1 -0.6855026E-004  0.1864356E+03  0.7818608E-02  0.1161716E+00
          5   -1    0    0  501    0  0.00000000000E+00  0.00000000000E+00  0.41074501445E+03  0.41077190373E+03  0.47000000000E+01 0. -1.
         -5   -1    0    0    0  501 -0.00000000000E+00 -0.00000000000E+00 -0.27127524693E+03  0.27131595898E+03  0.47000000000E+01 0.  1.
          6    1    1    2  502    0  0.64658370503E+02  0.31520562235E+02  0.35264133655E+03  0.39889116682E+03  0.17200000000E+03 0. -1.
         -6    1    1    2    0  502 -0.64658370503E+02 -0.31520562235E+02 -0.21317156903E+03  0.28319669589E+03  0.17200000000E+03 0.  1.
</event>
<event>
 4    1 -0.6855026E-004  0.1985139E+03  0.7818608E-02  0.1150999E+00
          5   -1    0    0  501    0  0.00000000000E+00  0.00000000000E+00  0.51763209398E+03  0.51765343109E+03  0.47000000000E+01 0. -1.
         -5   -1    0    0    0  501 -0.00000000000E+00 -0.00000000000E+00 -0.91845091197E+02  0.91965269406E+02  0.47000000000E+01 0.  1.
          6    1    1    2  502    0  0.10312851575E+02  0.98576923579E+02  0.33925030419E+03  0.39306301488E+03  0.17200000000E+03 0. -1.
         -6    1    1    2    0  502 -0.10312851575E+02 -0.98576923579E+02  0.86536698589E+02  0.21655568562E+03  0.17200000000E+03 0.  1.
</event>
<event>
 4    1 -0.6855026E-004  0.1721181E+03  0.7818608E-02  0.1175657E+00
          5   -1    0    0  501    0  0.00000000000E+00  0.00000000000E+00  0.59632342043E+03  0.59634194197E+03  0.47000000000E+01 0. -1.
         -5   -1    0    0    0  501 -0.00000000000E+00 -0.00000000000E+00 -0.19800393577E+03  0.19805970964E+03  0.47000000000E+01 0.  1.
          6    1    1    2  502    0  0.63591195935E+01 -0.44494372352E+00  0.54295411893E+03  0.56958213775E+03  0.17200000000E+03 0. -1.
         -6    1    1    2    0  502 -0.63591195935E+01  0.44494372352E+00 -0.14463463428E+03  0.22481951385E+03  0.17200000000E+03 0.  1.
</event>
<event>
 4    1 -0.6855026E-004  0.4174738E+03  0.7818608E-02  0.1037892E+00
         -5   -1    0    0    0  501 -0.00000000000E+00  0.00000000000E+00  0.33576765747E+03  0.33580055063E+03  0.47000000000E+01 0.  1.
          5   -1    0    0  501    0  0.00000000000E+00 -0.00000000000E+00 -0.51899344019E+03  0.51901472133E+03  0.47000000000E+01 0. -1.
          6    1    1    2  502    0  0.17305385606E+03 -0.33875167667E+03 -0.91435894750E+02  0.42736969756E+03  0.17200000000E+03 0. -1.
         -6    1    1    2    0  502 -0.17305385606E+03  0.33875167667E+03 -0.91789887966E+02  0.42744557440E+03  0.17200000000E+03 0.  1.
</event>
<event>
 4    1 -0.6855026E-004  0.1865808E+03  0.7818608E-02  0.1161582E+00
         -5   -1    0    0    0  501 -0.00000000000E+00  0.00000000000E+00  0.48378721921E+03  0.48381004895E+03  0.47000000000E+01 0.  1.
          5   -1    0    0  501    0  0.00000000000E+00 -0.00000000000E+00 -0.19578874673E+03  0.19584515145E+03  0.47000000000E+01 0. -1.
          6    1    1    2  502    0  0.50817078033E+01  0.72128787699E+02 -0.12628131479E+03  0.22529837157E+03  0.17200000000E+03 0. -1.
         -6    1    1    2    0  502 -0.50817078033E+01 -0.72128787699E+02  0.41427978727E+03  0.45435682883E+03  0.17200000000E+03 0.  1.
</event>
<event>
 4    1 -0.6855026E-004  0.1752144E+03  0.7818608E-02  0.1172517E+00
          5   -1    0    0  501    0  0.00000000000E+00  0.00000000000E+00  0.21586765702E+03  0.21591881657E+03  0.47000000000E+01 0. -1.
         -5   -1    0    0    0  501 -0.00000000000E+00 -0.00000000000E+00 -0.36340148512E+03  0.36343187723E+03  0.47000000000E+01 0.  1.
          6    1    1    2  502    0 -0.33399370078E+02  0.75121687004E+00  0.15224815670E+03  0.23211976105E+03  0.17200000000E+03 0. -1.
         -6    1    1    2    0  502  0.33399370078E+02 -0.75121687004E+00 -0.29978198480E+03  0.34723093275E+03  0.17200000000E+03 0.  1.
</event>
<event>
 4    1 -0.6855026E-004  0.1887795E+03  0.7818608E-02  0.1159567E+00
          5   -1    0    0  501    0  0.00000000000E+00  0.00000000000E+00  0.49005129913E+02  0.49229998556E+02  0.47000000000E+01 0. -1.
         -5   -1    0    0    0  501 -0.00000000000E+00 -0.00000000000E+00 -0.81622897447E+03  0.81624250610E+03  0.47000000000E+01 0.  1.
          6    1    1    2  502    0  0.60109484872E+02 -0.49401967467E+02 -0.23922069445E+03  0.30473635361E+03  0.17200000000E+03 0. -1.
         -6    1    1    2    0  502 -0.60109484872E+02  0.49401967467E+02 -0.52800315011E+03  0.56073615104E+03  0.17200000000E+03 0. -1.
</event>
<event>
 4    1 -0.6855026E-004  0.1798933E+03  0.7818608E-02  0.1167906E+00
         -5   -1    0    0    0  501 -0.00000000000E+00  0.00000000000E+00  0.24333417430E+03  0.24337956032E+03  0.47000000000E+01 0.  1.
          5   -1    0    0  501    0  0.00000000000E+00 -0.00000000000E+00 -0.31915213751E+03  0.31918674296E+03  0.47000000000E+01 0. -1.
          6    1    1    2  502    0  0.52699899472E+02 -0.56623445559E+00 -0.25275762899E+03  0.31023864853E+03  0.17200000000E+03 0. -1.
         -6    1    1    2    0  502 -0.52699899472E+02  0.56623445559E+00  0.17693966578E+03  0.25232765475E+03  0.17200000000E+03 0.  1.
</event>
<event>
 4    1 -0.6855026E-004  0.1857964E+03  0.7818608E-02  0.1162308E+00
          5   -1    0    0  501    0  0.00000000000E+00  0.00000000000E+00  0.58627981823E+03  0.58629865705E+03  0.47000000000E+01 0. -1.
         -5   -1    0    0    0  501 -0.00000000000E+00 -0.00000000000E+00 -0.12702678673E+03  0.12711370715E+03  0.47000000000E+01 0.  1.
          6    1    1    2  502    0 -0.36700555187E+02 -0.59911517567E+02  0.49095078183E+03  0.52493141539E+03  0.17200000000E+03 0.  1.
         -6    1    1    2    0  502  0.36700555187E+02  0.59911517567E+02 -0.31697750328E+02  0.18848094881E+03  0.17200000000E+03 0.  1.
</event>
<event>
 4    1 -0.6855026E-004  0.1772568E+03  0.7818608E-02  0.1170485E+00
         -5   -1    0    0    0  501 -0.00000000000E+00  0.00000000000E+00  0.22447167625E+03  0.22452087529E+03  0.47000000000E+01 0.  1.
          5   -1    0    0  501    0  0.00000000000E+00 -0.00000000000E+00 -0.14133099882E+03  0.14140912710E+03  0.47000000000E+01 0. -1.
          6    1    1    2  502    0 -0.40122226020E+02 -0.15038824031E+02  0.22969251855E+02  0.17873876407E+03  0.17200000000E+03 0. -1.
         -6    1    1    2    0  502  0.40122226020E+02  0.15038824031E+02  0.60171425579E+02  0.18719123832E+03  0.17200000000E+03 0.  1.
</event>
<event>
 4    1 -0.6855026E-004  0.1795213E+03  0.7818608E-02  0.1168267E+00
         -5   -1    0    0    0  501 -0.00000000000E+00  0.00000000000E+00  0.12810692361E+03  0.12819311166E+03  0.47000000000E+01 0.  1.
          5   -1    0    0  501    0  0.00000000000E+00 -0.00000000000E+00 -0.93371217170E+03  0.93372400076E+03  0.47000000000E+01 0. -1.
          6    1    1    2  502    0 -0.37465399328E+02 -0.35217033962E+02 -0.85666720811E+03  0.87527515735E+03  0.17200000000E+03 0. -1.
         -6    1    1    2    0  502  0.37465399328E+02  0.35217033962E+02  0.51061960013E+02  0.18664195506E+03  0.17200000000E+03 0.  1.
</event>
<event>
 4    1 -0.6855026E-004  0.1914805E+03  0.7818608E-02  0.1157133E+00
         -5   -1    0    0    0  501 -0.00000000000E+00  0.00000000000E+00  0.19467383954E+03  0.19473056720E+03  0.47000000000E+01 0.  1.
          5   -1    0    0  501    0  0.00000000000E+00 -0.00000000000E+00 -0.21014227250E+03  0.21019482555E+03  0.47000000000E+01 0. -1.
          6    1    1    2  502    0 -0.79942983888E+02  0.26265660284E+02 -0.73100836382E+02  0.20495974693E+03  0.17200000000E+03 0. -1.
         -6    1    1    2    0  502  0.79942983888E+02 -0.26265660284E+02  0.57632403426E+02  0.19996564582E+03  0.17200000000E+03 0.  1.
</event>
<event>
 4    1 -0.6855026E-004  0.1906713E+03  0.7818608E-02  0.1157857E+00
          5   -1    0    0  501    0  0.00000000000E+00  0.00000000000E+00  0.30913039185E+03  0.30916611905E+03  0.47000000000E+01 0. -1.
         -5   -1    0    0    0  501 -0.00000000000E+00 -0.00000000000E+00 -0.11887732370E+03  0.11897019833E+03  0.47000000000E+01 0.  1.
          6    1    1    2  502    0  0.54153519462E+02  0.61959105309E+02  0.11801917251E+03  0.22424107447E+03  0.17200000000E+03 0. -1.
         -6    1    1    2    0  502 -0.54153519462E+02 -0.61959105309E+02  0.72233895637E+02  0.20389524291E+03  0.17200000000E+03 0. -1.
</event>
<event>
 4    1 -0.6855026E-004  0.2284643E+03  0.7818608E-02  0.1127725E+00
         -5   -1    0    0    0  501 -0.00000000000E+00  0.00000000000E+00  0.28400060310E+03  0.28403949120E+03  0.47000000000E+01 0.  1.
          5   -1    0    0  501    0  0.00000000000E+00 -0.00000000000E+00 -0.27589732950E+03  0.27593735960E+03  0.47000000000E+01 0. -1.
          6    1    1    2  502    0 -0.11898870158E+03  0.91943715833E+02 -0.15777119269E+03  0.27764673099E+03  0.17200000000E+03 0. -1.
         -6    1    1    2    0  502  0.11898870158E+03 -0.91943715833E+02  0.16587446629E+03  0.28233011981E+03  0.17200000000E+03 0.  1.
</event>
<event>
 4    1 -0.6855026E-004  0.3437359E+03  0.7818608E-02  0.1065216E+00
          5   -1    0    0  501    0  0.00000000000E+00  0.00000000000E+00  0.84841252042E+03  0.84842553876E+03  0.47000000000E+01 0. -1.
         -5   -1    0    0    0  501 -0.00000000000E+00 -0.00000000000E+00 -0.52222598827E+03  0.52224713768E+03  0.47000000000E+01 0.  1.
          6    1    1    2  502    0 -0.64248817255E+02  0.29058985812E+03  0.74998206698E+03  0.82500150119E+03  0.17200000000E+03 0. -1.
         -6    1    1    2    0  502  0.64248817255E+02 -0.29058985812E+03 -0.42379553483E+03  0.54567117525E+03  0.17200000000E+03 0.  1.
</event>
<event>
 4    1 -0.6855026E-004  0.1949901E+03  0.7818608E-02  0.1154036E+00
          5   -1    0    0  501    0  0.00000000000E+00  0.00000000000E+00  0.73522944442E+03  0.73524446679E+03  0.47000000000E+01 0. -1.
         -5   -1    0    0    0  501 -0.00000000000E+00 -0.00000000000E+00 -0.15100650373E+03  0.15107962857E+03  0.47000000000E+01 0.  1.
          6    1    1    2  502    0 -0.17055350892E+02 -0.90256555477E+02  0.65150007092E+03  0.68005402227E+03  0.17200000000E+03 0. -1.
         -6    1    1    2    0  502  0.17055350892E+02  0.90256555477E+02 -0.67277130226E+02  0.20627007309E+03  0.17200000000E+03 0.  1.
</event>
<event>
 4    1 -0.6855026E-004  0.1802245E+03  0.7818608E-02  0.1167586E+00
          5   -1    0    0  501    0  0.00000000000E+00  0.00000000000E+00  0.17296989974E+02  0.17924169776E+02  0.47000000000E+01 0. -1.
         -5   -1    0    0    0  501 -0.00000000000E+00 -0.00000000000E+00 -0.21458397167E+04  0.21458448638E+04  0.47000000000E+01 0.  1.
          6    1    1    2  502    0 -0.51833907937E+02  0.14494896005E+02 -0.65841162348E+03  0.68263220108E+03  0.17200000000E+03 0. -1.
         -6    1    1    2    0  502  0.51833907937E+02 -0.14494896005E+02 -0.14701311032E+04  0.14811368325E+04  0.17200000000E+03 0.  1.
</event>
<event>
 4    1 -0.6855026E-004  0.1742753E+03  0.7818608E-02  0.1173461E+00
          5   -1    0    0  501    0  0.00000000000E+00  0.00000000000E+00  0.35771312385E+03  0.35774399922E+03  0.47000000000E+01 0. -1.
         -5   -1    0    0    0  501 -0.00000000000E+00 -0.00000000000E+00 -0.22638076295E+03  0.22642954717E+03  0.47000000000E+01 0.  1.
          6    1    1    2  502    0 -0.11447859964E+02  0.25628416386E+02  0.29659044382E+03  0.34400255898E+03  0.17200000000E+03 0. -1.
         -6    1    1    2    0  502  0.11447859964E+02 -0.25628416386E+02 -0.16525808291E+03  0.24017098741E+03  0.17200000000E+03 0.  1.
</event>
<event>
 4    1 -0.6855026E-004  0.2209421E+03  0.7818608E-02  0.1133183E+00
          5   -1    0    0  501    0  0.00000000000E+00  0.00000000000E+00  0.74728471789E+02  0.74876127678E+02  0.47000000000E+01 0. -1.
         -5   -1    0    0    0  501 -0.00000000000E+00 -0.00000000000E+00 -0.13509650107E+04  0.13509731863E+04  0.47000000000E+01 0.  1.
          6    1    1    2  502    0  0.13141457745E+03 -0.44290120453E+02 -0.12550717780E+03  0.25410127433E+03  0.17200000000E+03 0. -1.
         -6    1    1    2    0  502 -0.13141457745E+03  0.44290120453E+02 -0.11507293611E+04  0.11717480397E+04  0.17200000000E+03 0.  1.
</event>
<event>
 4    1 -0.6855026E-004  0.1987176E+03  0.7818608E-02  0.1150826E+00
         -5   -1    0    0    0  501 -0.00000000000E+00  0.00000000000E+00  0.10090249268E+04  0.10090358730E+04  0.47000000000E+01 0.  1.
          5   -1    0    0  501    0  0.00000000000E+00 -0.00000000000E+00 -0.37183878984E+03  0.37186849238E+03  0.47000000000E+01 0. -1.
          6    1    1    2  502    0 -0.34414027308E+02 -0.93382838434E+02 -0.33451752544E+03  0.38908952005E+03  0.17200000000E+03 0. -1.
         -6    1    1    2    0  502  0.34414027308E+02  0.93382838434E+02  0.97170366244E+03  0.99181484532E+03  0.17200000000E+03 0.  1.
</event>
<event>
 4    1 -0.6855026E-004  0.2897181E+03  0.7818608E-02  0.1090496E+00
         -5   -1    0    0    0  501 -0.00000000000E+00  0.00000000000E+00  0.36178805505E+03  0.36181858269E+03  0.47000000000E+01 0.  1.
          5   -1    0    0  501    0  0.00000000000E+00 -0.00000000000E+00 -0.47055672393E+03  0.47058019555E+03  0.47000000000E+01 0. -1.
          6    1    1    2  502    0 -0.63758151110E+00  0.23313548833E+03 -0.35074106115E+03  0.45492400948E+03  0.17200000000E+03 0. -1.
         -6    1    1    2    0  502  0.63758151110E+00 -0.23313548833E+03  0.24197239227E+03  0.37747476875E+03  0.17200000000E+03 0.  1.
</event>
<event>
 4    1 -0.6855026E-004  0.2765299E+03  0.7818608E-02  0.1097599E+00
         -5   -1    0    0    0  501 -0.00000000000E+00  0.00000000000E+00  0.86813703356E+02  0.86940836724E+02  0.47000000000E+01 0.  1.
          5   -1    0    0  501    0  0.00000000000E+00 -0.00000000000E+00 -0.89371681986E+03  0.89372917828E+03  0.47000000000E+01 0. -1.
          6    1    1    2  502    0  0.14462346729E+03 -0.16114850904E+03 -0.34284272424E+03  0.44046557507E+03  0.17200000000E+03 0.  1.
         -6    1    1    2    0  502 -0.14462346729E+03  0.16114850904E+03 -0.46406039226E+03  0.54020443993E+03  0.17200000000E+03 0.  1.
</event>
<event>
 4    1 -0.6855026E-004  0.2363659E+03  0.7818608E-02  0.1122238E+00
          5   -1    0    0  501    0  0.00000000000E+00  0.00000000000E+00  0.57929491714E+03  0.57931398311E+03  0.47000000000E+01 0. -1.
         -5   -1    0    0    0  501 -0.00000000000E+00 -0.00000000000E+00 -0.20829824356E+03  0.20835126174E+03  0.47000000000E+01 0.  1.
          6    1    1    2  502    0 -0.13948744888E+03  0.82632341983E+02  0.47412827868E+03  0.52977964946E+03  0.17200000000E+03 0. -1.
         -6    1    1    2    0  502  0.13948744888E+03 -0.82632341983E+02 -0.10313160510E+03  0.25788559539E+03  0.17200000000E+03 0.  1.
</event>
<event>
 4    1 -0.6855026E-004  0.1906364E+03  0.7818608E-02  0.1157889E+00
         -5   -1    0    0    0  501 -0.00000000000E+00  0.00000000000E+00  0.35548237282E+02  0.35857595762E+02  0.47000000000E+01 0.  1.
          5   -1    0    0  501    0  0.00000000000E+00 -0.00000000000E+00 -0.14401857403E+04  0.14401934094E+04  0.47000000000E+01 0. -1.
          6    1    1    2  502    0 -0.80800585776E+02 -0.15149286096E+02 -0.30258051253E+03  0.35762718311E+03  0.17200000000E+03 0.  1.
         -6    1    1    2    0  502  0.80800585776E+02  0.15149286096E+02 -0.11020569904E+04  0.11184238220E+04  0.17200000000E+03 0. -1.
</event>
<event>
 4    1 -0.6855026E-004  0.2210662E+03  0.7818608E-02  0.1133091E+00
         -5   -1    0    0    0  501 -0.00000000000E+00  0.00000000000E+00  0.41522348337E+03  0.41525008265E+03  0.47000000000E+01 0.  1.
          5   -1    0    0  501    0  0.00000000000E+00 -0.00000000000E+00 -0.13269681933E+04  0.13269765167E+04  0.47000000000E+01 0. -1.
          6    1    1    2  502    0 -0.16914073542E+01 -0.13886470258E+03 -0.12874590544E+04  0.13063005333E+04  0.17200000000E+03 0. -1.
         -6    1    1    2    0  502  0.16914073542E+01  0.13886470258E+03  0.37571434448E+03  0.43592606613E+03  0.17200000000E+03 0.  1.
</event>
<event>
 4    1 -0.6855026E-004  0.2959306E+03  0.7818608E-02  0.1087293E+00
         -5   -1    0    0    0  501 -0.00000000000E+00  0.00000000000E+00  0.74680414224E+03  0.74681893178E+03  0.47000000000E+01 0.  1.
          5   -1    0    0  501    0  0.00000000000E+00 -0.00000000000E+00 -0.19704326716E+03  0.19709931287E+03  0.47000000000E+01 0. -1.
          6    1    1    2  502    0 -0.21342717117E+03  0.11153372385E+03 -0.25474612782E+02  0.29702505760E+03  0.17200000000E+03 0. -1.
         -6    1    1    2    0  502  0.21342717117E+03 -0.11153372385E+03  0.57523548786E+03  0.64689318704E+03  0.17200000000E+03 0.  1.
</event>
<event>
 4    1 -0.6855026E-004  0.1811881E+03  0.7818608E-02  0.1166658E+00
         -5   -1    0    0    0  501 -0.00000000000E+00  0.00000000000E+00  0.67132772275E+02  0.67297095875E+02  0.47000000000E+01 0.  1.
          5   -1    0    0  501    0  0.00000000000E+00 -0.00000000000E+00 -0.68259350851E+03  0.68260968925E+03  0.47000000000E+01 0. -1.
          6    1    1    2  502    0 -0.50259515519E+02 -0.26816230542E+02 -0.50777592518E+03  0.53913404578E+03  0.17200000000E+03 0. -1.
         -6    1    1    2    0  502  0.50259515519E+02  0.26816230542E+02 -0.10768481105E+03  0.21077273935E+03  0.17200000000E+03 0. -1.
</event>
<event>
 4    1 -0.6855026E-004  0.1977428E+03  0.7818608E-02  0.1151658E+00
          5   -1    0    0  501    0  0.00000000000E+00  0.00000000000E+00  0.29142844775E+03  0.29146634481E+03  0.47000000000E+01 0. -1.
         -5   -1    0    0    0  501 -0.00000000000E+00 -0.00000000000E+00 -0.86783336759E+03  0.86784609459E+03  0.47000000000E+01 0.  1.
          6    1    1    2  502    0 -0.96513209952E+02  0.14262141619E+02  0.24476915436E+03  0.31466513519E+03  0.17200000000E+03 0. -1.
         -6    1    1    2    0  502  0.96513209952E+02 -0.14262141619E+02 -0.82117407420E+03  0.84464730421E+03  0.17200000000E+03 0.  1.
</event>
<event>
 4    1 -0.6855026E-004  0.1799331E+03  0.7818608E-02  0.1167868E+00
         -5   -1    0    0    0  501 -0.00000000000E+00  0.00000000000E+00  0.13613218456E+04  0.13613299590E+04  0.47000000000E+01 0.  1.
          5   -1    0    0  501    0  0.00000000000E+00 -0.00000000000E+00 -0.10384912122E+03  0.10395542304E+03  0.47000000000E+01 0. -1.
          6    1    1    2  502    0  0.15275956800E+02 -0.50582211839E+02 -0.14623885296E+02  0.18052637766E+03  0.17200000000E+03 0. -1.
         -6    1    1    2    0  502 -0.15275956800E+02  0.50582211839E+02  0.12720966096E+04  0.12847590044E+04  0.17200000000E+03 0.  1.
</event>
<event>
 4    1 -0.6855026E-004  0.2156450E+03  0.7818608E-02  0.1137172E+00
          5   -1    0    0  501    0  0.00000000000E+00  0.00000000000E+00  0.34116268153E+03  0.34119505458E+03  0.47000000000E+01 0. -1.
         -5   -1    0    0    0  501 -0.00000000000E+00 -0.00000000000E+00 -0.42299359496E+03  0.42301970566E+03  0.47000000000E+01 0.  1.
          6    1    1    2  502    0 -0.32079083878E+02  0.12605427819E+03  0.27366986747E+03  0.34842207886E+03  0.17200000000E+03 0. -1.
         -6    1    1    2    0  502  0.32079083878E+02 -0.12605427819E+03 -0.35550078090E+03  0.41579268138E+03  0.17200000000E+03 0.  1.
</event>
<event>
 4    1 -0.6855026E-004  0.1792119E+03  0.7818608E-02  0.1168568E+00
          5   -1    0    0  501    0  0.00000000000E+00  0.00000000000E+00  0.52574452915E+03  0.52576553704E+03  0.47000000000E+01 0. -1.
         -5   -1    0    0    0  501 -0.00000000000E+00 -0.00000000000E+00 -0.87038148279E+02  0.87164954287E+02  0.47000000000E+01 0.  1.
          6    1    1    2  502    0 -0.42070176434E+02 -0.27622812779E+02  0.38688506521E+03  0.42637656269E+03  0.17200000000E+03 0. -1.
         -6    1    1    2    0  502  0.42070176434E+02  0.27622812779E+02  0.51821315668E+02  0.18655392863E+03  0.17200000000E+03 0.  1.
</event>
<event>
 4    1 -0.6855026E-004  0.1722908E+03  0.7818608E-02  0.1175480E+00
         -5   -1    0    0    0  501 -0.00000000000E+00  0.00000000000E+00  0.19560791618E+03  0.19566437302E+03  0.47000000000E+01 0.  1.
          5   -1    0    0  501    0  0.00000000000E+00 -0.00000000000E+00 -0.91214222644E+03  0.91215433521E+03  0.47000000000E+01 0. -1.
          6    1    1    2  502    0  0.15760675128E+00  0.10004585560E+02 -0.86401562425E+03  0.88102617187E+03  0.17200000000E+03 0. -1.
         -6    1    1    2    0  502 -0.15760675128E+00 -0.10004585560E+02  0.14748131399E+03  0.22679253636E+03  0.17200000000E+03 0.  1.
</event>
<event>
 4    1 -0.6855026E-004  0.2571103E+03  0.7818608E-02  0.1108892E+00
          5   -1    0    0  501    0  0.00000000000E+00  0.00000000000E+00  0.13208628753E+03  0.13216988066E+03  0.47000000000E+01 0. -1.
         -5   -1    0    0    0  501 -0.00000000000E+00 -0.00000000000E+00 -0.73148615242E+03  0.73150125166E+03  0.47000000000E+01 0.  1.
          6    1    1    2  502    0  0.13422851273E+03  0.13603092645E+03 -0.56904561613E+02  0.26333217751E+03  0.17200000000E+03 0. -1.
         -6    1    1    2    0  502 -0.13422851273E+03 -0.13603092645E+03 -0.54249530328E+03  0.60033895481E+03  0.17200000000E+03 0.  1.
</event>
<event>
 4    1 -0.6855026E-004  0.2748696E+03  0.7818608E-02  0.1098525E+00
          5   -1    0    0  501    0  0.00000000000E+00  0.00000000000E+00  0.60524706426E+03  0.60526531273E+03  0.47000000000E+01 0. -1.
         -5   -1    0    0    0  501 -0.00000000000E+00 -0.00000000000E+00 -0.54537144836E+03  0.54539170024E+03  0.47000000000E+01 0.  1.
          6    1    1    2  502    0 -0.36039083650E+02  0.21135394481E+03  0.53515503854E+03  0.60161800240E+03  0.17200000000E+03 0. -1.
         -6    1    1    2    0  502  0.36039083650E+02 -0.21135394481E+03 -0.47527942265E+03  0.54903901057E+03  0.17200000000E+03 0.  1.
</event>
<event>
 4    1 -0.6855026E-004  0.1785485E+03  0.7818608E-02  0.1169215E+00
         -5   -1    0    0    0  501 -0.00000000000E+00  0.00000000000E+00  0.25855531193E+03  0.25859802653E+03  0.47000000000E+01 0.  1.
          5   -1    0    0  501    0  0.00000000000E+00 -0.00000000000E+00 -0.22304934921E+03  0.22309886191E+03  0.47000000000E+01 0. -1.
          6    1    1    2  502    0 -0.45460514412E+02  0.15129964379E+02 -0.14335023056E+03  0.22897349802E+03  0.17200000000E+03 0. -1.
         -6    1    1    2    0  502  0.45460514412E+02 -0.15129964379E+02  0.17885619328E+03  0.25272339042E+03  0.17200000000E+03 0.  1.
</event>
<event>
 4    1 -0.6855026E-004  0.1770504E+03  0.7818608E-02  0.1170689E+00
          5   -1    0    0  501    0  0.00000000000E+00  0.00000000000E+00  0.29151811963E+03  0.29155600503E+03  0.47000000000E+01 0. -1.
         -5   -1    0    0    0  501 -0.00000000000E+00 -0.00000000000E+00 -0.14613695642E+03  0.14621251668E+03  0.47000000000E+01 0.  1.
          6    1    1    2  502    0  0.25279550710E+02  0.33522914220E+02  0.18528613590E+03  0.25627679102E+03  0.17200000000E+03 0. -1.
         -6    1    1    2    0  502 -0.25279550710E+02 -0.33522914220E+02 -0.39904972691E+02  0.18149173069E+03  0.17200000000E+03 0.  1.
</event>
<event>
 4    1 -0.6855026E-004  0.3882114E+03  0.7818608E-02  0.1047940E+00
          5   -1    0    0  501    0  0.00000000000E+00  0.00000000000E+00  0.43764140324E+03  0.43766664007E+03  0.47000000000E+01 0. -1.
         -5   -1    0    0    0  501 -0.00000000000E+00 -0.00000000000E+00 -0.35382609331E+03  0.35385730783E+03  0.47000000000E+01 0.  1.
          6    1    1    2  502    0  0.30076591151E+03  0.17511119500E+03  0.10679552440E+03  0.40263301923E+03  0.17200000000E+03 0. -1.
         -6    1    1    2    0  502 -0.30076591151E+03 -0.17511119500E+03 -0.22980214471E+02  0.38889092867E+03  0.17200000000E+03 0.  1.
</event>
<event>
 4    1 -0.6855026E-004  0.1899794E+03  0.7818608E-02  0.1158480E+00
         -5   -1    0    0    0  501 -0.00000000000E+00  0.00000000000E+00  0.31136825911E+03  0.31140372956E+03  0.47000000000E+01 0.  1.
          5   -1    0    0  501    0  0.00000000000E+00 -0.00000000000E+00 -0.38757551707E+03  0.38760401370E+03  0.47000000000E+01 0. -1.
          6    1    1    2  502    0  0.80186024787E+02 -0.88521229876E+01 -0.33072395127E+03  0.38140593938E+03  0.17200000000E+03 0. -1.
         -6    1    1    2    0  502 -0.80186024787E+02  0.88521229876E+01  0.25451669331E+03  0.31760180388E+03  0.17200000000E+03 0.  1.
</event>
<event>
 4    1 -0.6855026E-004  0.1728905E+03  0.7818608E-02  0.1174867E+00
          5   -1    0    0  501    0  0.00000000000E+00  0.00000000000E+00  0.34495266400E+03  0.34498468140E+03  0.47000000000E+01 0. -1.
         -5   -1    0    0    0  501 -0.00000000000E+00 -0.00000000000E+00 -0.20093658935E+03  0.20099154942E+03  0.47000000000E+01 0.  1.
          6    1    1    2  502    0 -0.69808473214E+01 -0.16074861838E+02  0.27791110022E+03  0.32730064625E+03  0.17200000000E+03 0. -1.
         -6    1    1    2    0  502  0.69808473214E+01  0.16074861838E+02 -0.13389502557E+03  0.21867558457E+03  0.17200000000E+03 0.  1.
</event>
<event>
 4    1 -0.6855026E-004  0.4382976E+03  0.7818608E-02  0.1031270E+00
         -5   -1    0    0    0  501 -0.00000000000E+00  0.00000000000E+00  0.21537773434E+03  0.21542901024E+03  0.47000000000E+01 0.  1.
          5   -1    0    0  501    0  0.00000000000E+00 -0.00000000000E+00 -0.92447254111E+03  0.92448448839E+03  0.47000000000E+01 0. -1.
          6    1    1    2  502    0 -0.14229728113E+03 -0.37718995154E+03 -0.46172525045E+03  0.63662782115E+03  0.17200000000E+03 0. -1.
         -6    1    1    2    0  502  0.14229728113E+03  0.37718995154E+03 -0.24736955632E+03  0.50328567747E+03  0.17200000000E+03 0.  1.
</event>
<event>
 4    1 -0.6855026E-004  0.1752615E+03  0.7818608E-02  0.1172469E+00
          5   -1    0    0  501    0  0.00000000000E+00  0.00000000000E+00  0.27508537770E+03  0.27512552594E+03  0.47000000000E+01 0. -1.
         -5   -1    0    0    0  501 -0.00000000000E+00 -0.00000000000E+00 -0.32379831533E+03  0.32383242428E+03  0.47000000000E+01 0.  1.
          6    1    1    2  502    0  0.24694722630E+02  0.22863870066E+02  0.21806164817E+03  0.27976323612E+03  0.17200000000E+03 0. -1.
         -6    1    1    2    0  502 -0.24694722630E+02 -0.22863870066E+02 -0.26677458580E+03  0.31919471410E+03  0.17200000000E+03 0.  1.
</event>
<event>
 4    1 -0.6855026E-004  0.2268550E+03  0.7818608E-02  0.1128873E+00
          5   -1    0    0  501    0  0.00000000000E+00  0.00000000000E+00  0.21615205909E+03  0.21620315134E+03  0.47000000000E+01 0. -1.
         -5   -1    0    0    0  501 -0.00000000000E+00 -0.00000000000E+00 -0.35540757441E+03  0.35543865005E+03  0.47000000000E+01 0.  1.
          6    1    1    2  502    0 -0.75711490704E+02  0.12707068658E+03  0.94639384172E+02  0.24580439835E+03  0.17200000000E+03 0. -1.
         -6    1    1    2    0  502  0.75711490704E+02 -0.12707068658E+03 -0.23389489949E+03  0.32583740304E+03  0.17200000000E+03 0.  1.
</event>
<event>
 4    1 -0.6855026E-004  0.1819745E+03  0.7818608E-02  0.1165906E+00
         -5   -1    0    0    0  501 -0.00000000000E+00  0.00000000000E+00  0.99898491506E+02  0.10000899262E+03  0.47000000000E+01 0.  1.
          5   -1    0    0  501    0  0.00000000000E+00 -0.00000000000E+00 -0.44214470044E+03  0.44216968024E+03  0.47000000000E+01 0. -1.
          6    1    1    2  502    0  0.13867174807E+02 -0.57779124710E+02 -0.30691289353E+03  0.35680561936E+03  0.17200000000E+03 0. -1.
         -6    1    1    2    0  502 -0.13867174807E+02  0.57779124710E+02 -0.35333315402E+02  0.18537305351E+03  0.17200000000E+03 0.  1.
</event>
<event>
 4    1 -0.6855026E-004  0.1922518E+03  0.7818608E-02  0.1156446E+00
          5   -1    0    0  501    0  0.00000000000E+00  0.00000000000E+00  0.12417472512E+04  0.12417561459E+04  0.47000000000E+01 0. -1.
         -5   -1    0    0    0  501 -0.00000000000E+00 -0.00000000000E+00 -0.76150128111E+02  0.76295032678E+02  0.47000000000E+01 0.  1.
          6    1    1    2  502    0 -0.83815262105E+02 -0.18755283816E+02  0.10973216971E+04  0.11140357561E+04  0.17200000000E+03 0. -1.
         -6    1    1    2    0  502  0.83815262105E+02  0.18755283816E+02  0.68275425991E+02  0.20401542252E+03  0.17200000000E+03 0.  1.
</event>
<event>
 4    1 -0.6855026E-004  0.2013871E+03  0.7818608E-02  0.1148574E+00
         -5   -1    0    0    0  501 -0.00000000000E+00  0.00000000000E+00  0.86898896088E+03  0.86900167096E+03  0.47000000000E+01 0.  1.
          5   -1    0    0  501    0  0.00000000000E+00 -0.00000000000E+00 -0.72166012781E+03  0.72167543264E+03  0.47000000000E+01 0. -1.
          6    1    1    2  502    0 -0.93936487475E+02  0.46353964169E+02 -0.69552719269E+03  0.72409587034E+03  0.17200000000E+03 0. -1.
         -6    1    1    2    0  502  0.93936487475E+02 -0.46353964169E+02  0.84285602576E+03  0.86658123326E+03  0.17200000000E+03 0.  1.
</event>
<event>
 4    1 -0.6855026E-004  0.2159900E+03  0.7818608E-02  0.1136908E+00
          5   -1    0    0  501    0  0.00000000000E+00  0.00000000000E+00  0.57170567238E+02  0.57363435726E+02  0.47000000000E+01 0. -1.
         -5   -1    0    0    0  501 -0.00000000000E+00 -0.00000000000E+00 -0.10866917883E+04  0.10867019521E+04  0.47000000000E+01 0.  1.
          6    1    1    2  502    0 -0.10915305874E+03  0.71786296779E+02 -0.22846386688E+03  0.31440006537E+03  0.17200000000E+03 0. -1.
         -6    1    1    2    0  502  0.10915305874E+03 -0.71786296779E+02 -0.80105735415E+03  0.82966532245E+03  0.17200000000E+03 0.  1.
</event>
<event>
 4    1 -0.6855026E-004  0.1778341E+03  0.7818608E-02  0.1169916E+00
         -5   -1    0    0    0  501 -0.00000000000E+00  0.00000000000E+00  0.28782909104E+03  0.28786746195E+03  0.47000000000E+01 0.  1.
          5   -1    0    0  501    0  0.00000000000E+00 -0.00000000000E+00 -0.27602721757E+03  0.27606722884E+03  0.47000000000E+01 0. -1.
          6    1    1    2  502    0 -0.29700929594E+02 -0.34041733121E+02 -0.21288375695E+03  0.27738867819E+03  0.17200000000E+03 0. -1.
         -6    1    1    2    0  502  0.29700929594E+02  0.34041733121E+02  0.22468563043E+03  0.28654601259E+03  0.17200000000E+03 0.  1.
</event>
<event>
 4    1 -0.6855026E-004  0.1847225E+03  0.7818608E-02  0.1163309E+00
         -5   -1    0    0    0  501 -0.00000000000E+00  0.00000000000E+00  0.31533333224E+02  0.31881673485E+02  0.47000000000E+01 0.  1.
          5   -1    0    0  501    0  0.00000000000E+00 -0.00000000000E+00 -0.13676532184E+04  0.13676612943E+04  0.47000000000E+01 0. -1.
          6    1    1    2  502    0 -0.32923216879E+01 -0.67287168659E+02 -0.99127202219E+03  0.10083365631E+04  0.17200000000E+03 0. -1.
         -6    1    1    2    0  502  0.32923216879E+01  0.67287168659E+02 -0.34484786299E+03  0.39120640468E+03  0.17200000000E+03 0.  1.
</event>
<event>
 4    1 -0.6855026E-004  0.1834446E+03  0.7818608E-02  0.1164510E+00
         -5   -1    0    0    0  501 -0.00000000000E+00  0.00000000000E+00  0.18504764037E+04  0.18504823724E+04  0.47000000000E+01 0.  1.
          5   -1    0    0  501    0  0.00000000000E+00 -0.00000000000E+00 -0.93329964150E+02  0.93448232772E+02  0.47000000000E+01 0. -1.
          6    1    1    2  502    0  0.51539671221E+02 -0.37571229634E+02  0.63547651892E+01  0.18355467318E+03  0.17200000000E+03 0. -1.
         -6    1    1    2    0  502 -0.51539671221E+02  0.37571229634E+02  0.17507916744E+04  0.17603759320E+04  0.17200000000E+03 0.  1.
</event>
<event>
 4    1 -0.6855026E-004  0.2840092E+03  0.7818608E-02  0.1093519E+00
         -5   -1    0    0    0  501 -0.00000000000E+00  0.00000000000E+00  0.24034821489E+03  0.24039416465E+03  0.47000000000E+01 0.  1.
          5   -1    0    0  501    0  0.00000000000E+00 -0.00000000000E+00 -0.10239046362E+04  0.10239154233E+04  0.47000000000E+01 0. -1.
          6    1    1    2  502    0 -0.13999915558E+03  0.17741888914E+03 -0.91009941626E+03  0.95338458833E+03  0.17200000000E+03 0. -1.
         -6    1    1    2    0  502  0.13999915558E+03 -0.17741888914E+03  0.12654299497E+03  0.31092499958E+03  0.17200000000E+03 0.  1.
</event>
<event>
 4    1 -0.6855026E-004  0.2283567E+03  0.7818608E-02  0.1127802E+00
         -5   -1    0    0    0  501 -0.00000000000E+00  0.00000000000E+00  0.47595348936E+03  0.47597669484E+03  0.47000000000E+01 0.  1.
          5   -1    0    0  501    0  0.00000000000E+00 -0.00000000000E+00 -0.40004989083E+03  0.40007749893E+03  0.47000000000E+01 0. -1.
          6    1    1    2  502    0  0.82907565421E+02  0.12525624812E+03 -0.33531288149E+03  0.40568648066E+03  0.17200000000E+03 0. -1.
         -6    1    1    2    0  502 -0.82907565421E+02 -0.12525624812E+03  0.41121648002E+03  0.47036771311E+03  0.17200000000E+03 0.  1.
</event>
<event>
 4    1 -0.6855026E-004  0.1966666E+03  0.7818608E-02  0.1152582E+00
         -5   -1    0    0    0  501 -0.00000000000E+00  0.00000000000E+00  0.33200865860E+03  0.33204192413E+03  0.47000000000E+01 0.  1.
          5   -1    0    0  501    0  0.00000000000E+00 -0.00000000000E+00 -0.14630782985E+03  0.14638330190E+03  0.47000000000E+01 0. -1.
          6    1    1    2  502    0 -0.53387900996E+02 -0.79015780164E+02 -0.15242308099E+02  0.19725640533E+03  0.17200000000E+03 0. -1.
         -6    1    1    2    0  502  0.53387900996E+02  0.79015780164E+02  0.20094313685E+03  0.28116882070E+03  0.17200000000E+03 0.  1.
</event>
<event>
 4    1 -0.6855026E-004  0.1965894E+03  0.7818608E-02  0.1152649E+00
         -5   -1    0    0    0  501 -0.00000000000E+00  0.00000000000E+00  0.10734955222E+03  0.10745239114E+03  0.47000000000E+01 0.  1.
          5   -1    0    0  501    0  0.00000000000E+00 -0.00000000000E+00 -0.39424695072E+03  0.39427496516E+03  0.47000000000E+01 0. -1.
          6    1    1    2  502    0  0.61408532637E+02  0.72748864427E+02 -0.21767102415E+03  0.29330543791E+03  0.17200000000E+03 0. -1.
         -6    1    1    2    0  502 -0.61408532637E+02 -0.72748864427E+02 -0.69226374358E+02  0.20842191838E+03  0.17200000000E+03 0.  1.
</event>
<event>
 4    1 -0.6855026E-004  0.1776475E+03  0.7818608E-02  0.1170099E+00
          5   -1    0    0  501    0  0.00000000000E+00  0.00000000000E+00  0.14925275372E+03  0.14932673737E+03  0.47000000000E+01 0. -1.
         -5   -1    0    0    0  501 -0.00000000000E+00 -0.00000000000E+00 -0.83193572969E+03  0.83194900585E+03  0.47000000000E+01 0.  1.
          6    1    1    2  502    0  0.38372446251E+02  0.22409811579E+02  0.82408379117E+02  0.19583101193E+03  0.17200000000E+03 0. -1.
         -6    1    1    2    0  502 -0.38372446251E+02 -0.22409811579E+02 -0.76509135508E+03  0.78544473129E+03  0.17200000000E+03 0.  1.
</event>
<event>
 4    1 -0.6855026E-004  0.1750961E+03  0.7818608E-02  0.1172635E+00
          5   -1    0    0  501    0  0.00000000000E+00  0.00000000000E+00  0.77810449580E+02  0.77952267856E+02  0.47000000000E+01 0. -1.
         -5   -1    0    0    0  501 -0.00000000000E+00 -0.00000000000E+00 -0.87350660835E+03  0.87351925270E+03  0.47000000000E+01 0.  1.
          6    1    1    2  502    0 -0.25867918928E+02 -0.20136566168E+02 -0.45221564998E+02  0.18084142354E+03  0.17200000000E+03 0. -1.
         -6    1    1    2    0  502  0.25867918928E+02  0.20136566168E+02 -0.75047459377E+03  0.77063009702E+03  0.17200000000E+03 0.  1.
</event>
<event>
 4    1 -0.6855026E-004  0.1794057E+03  0.7818608E-02  0.1168379E+00
         -5   -1    0    0    0  501 -0.00000000000E+00  0.00000000000E+00  0.20358323677E+04  0.20358377930E+04  0.47000000000E+01 0.  1.
          5   -1    0    0  501    0  0.00000000000E+00 -0.00000000000E+00 -0.39889367152E+02  0.40165303581E+02  0.47000000000E+01 0. -1.
          6    1    1    2  502    0 -0.50843043400E+02 -0.41694504257E+01  0.19054550837E+03  0.26171356507E+03  0.17200000000E+03 0. -1.
         -6    1    1    2    0  502  0.50843043400E+02  0.41694504257E+01  0.18053974922E+04  0.18142895315E+04  0.17200000000E+03 0.  1.
</event>
<event>
 4    1 -0.6855026E-004  0.1910771E+03  0.7818608E-02  0.1157493E+00
         -5   -1    0    0    0  501 -0.00000000000E+00  0.00000000000E+00  0.39625688892E+03  0.39628476127E+03  0.47000000000E+01 0.  1.
          5   -1    0    0  501    0  0.00000000000E+00 -0.00000000000E+00 -0.21191241023E+03  0.21196452441E+03  0.47000000000E+01 0. -1.
          6    1    1    2  502    0 -0.12743958837E+02  0.82243942332E+02 -0.13649454577E+03  0.23482171016E+03  0.17200000000E+03 0. -1.
         -6    1    1    2    0  502  0.12743958837E+02 -0.82243942332E+02  0.32083902447E+03  0.37342757552E+03  0.17200000000E+03 0.  1.
</event>
<event>
 4    1 -0.6855026E-004  0.1898735E+03  0.7818608E-02  0.1158575E+00
         -5   -1    0    0    0  501 -0.00000000000E+00  0.00000000000E+00  0.36388734872E+03  0.36391770025E+03  0.47000000000E+01 0.  1.
          5   -1    0    0  501    0  0.00000000000E+00 -0.00000000000E+00 -0.62383658386E+03  0.62385428856E+03  0.47000000000E+01 0. -1.
          6    1    1    2  502    0  0.62999339879E+02  0.49990233941E+02 -0.58295231489E+03  0.61309488804E+03  0.17200000000E+03 0. -1.
         -6    1    1    2    0  502 -0.62999339879E+02 -0.49990233941E+02  0.32300307975E+03  0.37467710077E+03  0.17200000000E+03 0.  1.
</event>
<event>
 4    1 -0.6855026E-004  0.1827195E+03  0.7818608E-02  0.1165197E+00
         -5   -1    0    0    0  501 -0.00000000000E+00  0.00000000000E+00  0.20201580792E+03  0.20207047447E+03  0.47000000000E+01 0.  1.
          5   -1    0    0  501    0  0.00000000000E+00 -0.00000000000E+00 -0.38837618370E+03  0.38840462158E+03  0.47000000000E+01 0. -1.
          6    1    1    2  502    0 -0.38604969822E+02 -0.48084092002E+02 -0.31697751062E+03  0.36587042220E+03  0.17200000000E+03 0. -1.
         -6    1    1    2    0  502  0.38604969822E+02  0.48084092002E+02  0.13061713485E+03  0.22460467385E+03  0.17200000000E+03 0.  1.
</event>
<event>
 4    1 -0.6855026E-004  0.1834704E+03  0.7818608E-02  0.1164486E+00
          5   -1    0    0  501    0  0.00000000000E+00  0.00000000000E+00  0.33920898277E+03  0.33924154226E+03  0.47000000000E+01 0. -1.
         -5   -1    0    0    0  501 -0.00000000000E+00 -0.00000000000E+00 -0.13392434172E+03  0.13400678828E+03  0.47000000000E+01 0.  1.
          6    1    1    2  502    0  0.61529404257E+02 -0.17073609172E+02  0.22317349873E+03  0.28890792003E+03  0.17200000000E+03 0. -1.
         -6    1    1    2    0  502 -0.61529404257E+02  0.17073609172E+02 -0.17888857683E+02  0.18434041051E+03  0.17200000000E+03 0.  1.
</event>
<event>
 4    1 -0.6855026E-004  0.1844144E+03  0.7818608E-02  0.1163598E+00
         -5   -1    0    0    0  501 -0.00000000000E+00  0.00000000000E+00  0.61988810303E+03  0.61990592051E+03  0.47000000000E+01 0.  1.
          5   -1    0    0  501    0  0.00000000000E+00 -0.00000000000E+00 -0.19084837350E+03  0.19090623790E+03  0.47000000000E+01 0. -1.
          6    1    1    2  502    0  0.39019875749E+02  0.53871427141E+02 -0.12770806818E+03  0.22431681177E+03  0.17200000000E+03 0. -1.
         -6    1    1    2    0  502 -0.39019875749E+02 -0.53871427141E+02  0.55674779771E+03  0.58649534663E+03  0.17200000000E+03 0.  1.
</event>
<event>
 4    1 -0.6855026E-004  0.2383714E+03  0.7818608E-02  0.1120883E+00
          5   -1    0    0  501    0  0.00000000000E+00  0.00000000000E+00  0.19751582336E+04  0.19751638255E+04  0.47000000000E+01 0. -1.
         -5   -1    0    0    0  501 -0.00000000000E+00 -0.00000000000E+00 -0.21092227862E+03  0.21097463739E+03  0.47000000000E+01 0.  1.
          6    1    1    2  502    0  0.16146276315E+03  0.34156718483E+02  0.18979259427E+04  0.19128365820E+04  0.17200000000E+03 0. -1.
         -6    1    1    2    0  502 -0.16146276315E+03 -0.34156718483E+02 -0.13368998776E+03  0.27330188094E+03  0.17200000000E+03 0.  1.
</event>
<event>
 4    1 -0.6855026E-004  0.2085011E+03  0.7818608E-02  0.1142758E+00
          5   -1    0    0  501    0  0.00000000000E+00  0.00000000000E+00  0.66144231289E+02  0.66311004613E+02  0.47000000000E+01 0. -1.
         -5   -1    0    0    0  501 -0.00000000000E+00 -0.00000000000E+00 -0.66919265827E+03  0.66920916303E+03  0.47000000000E+01 0.  1.
          6    1    1    2  502    0  0.10241705290E+03 -0.58304913477E+02 -0.25036379505E+03  0.32581397381E+03  0.17200000000E+03 0.  1.
         -6    1    1    2    0  502 -0.10241705290E+03  0.58304913477E+02 -0.35268463193E+03  0.40970619383E+03  0.17200000000E+03 0.  1.
</event>
<event>
 4    1 -0.6855026E-004  0.1943563E+03  0.7818608E-02  0.1154590E+00
         -5   -1    0    0    0  501 -0.00000000000E+00  0.00000000000E+00  0.26233355546E+03  0.26237565496E+03  0.47000000000E+01 0.  1.
          5   -1    0    0  501    0  0.00000000000E+00 -0.00000000000E+00 -0.86758514855E+03  0.86759787919E+03  0.47000000000E+01 0. -1.
          6    1    1    2  502    0  0.81210307527E+02 -0.39940878999E+02 -0.81860809781E+03  0.84136413381E+03  0.17200000000E+03 0. -1.
         -6    1    1    2    0  502 -0.81210307527E+02  0.39940878999E+02  0.21335650472E+03  0.28860940035E+03  0.17200000000E+03 0.  1.
</event>
<event>
 4    1 -0.6855026E-004  0.1941029E+03  0.7818608E-02  0.1154812E+00
         -5   -1    0    0    0  501 -0.00000000000E+00  0.00000000000E+00  0.27364745704E+04  0.27364786066E+04  0.47000000000E+01 0.  1.
          5   -1    0    0  501    0  0.00000000000E+00 -0.00000000000E+00 -0.23493940472E+02  0.23959449888E+02  0.47000000000E+01 0. -1.
          6    1    1    2  502    0 -0.55455558770E+02 -0.70828119254E+02  0.46219570812E+03  0.50129912635E+03  0.17200000000E+03 0. -1.
         -6    1    1    2    0  502  0.55455558770E+02  0.70828119254E+02  0.22507849218E+04  0.22591389302E+04  0.17200000000E+03 0.  1.
</event>
<event>
 4    1 -0.6855026E-004  0.1735031E+03  0.7818608E-02  0.1174243E+00
          5   -1    0    0  501    0  0.00000000000E+00  0.00000000000E+00  0.12054392486E+03  0.12063551641E+03  0.47000000000E+01 0. -1.
         -5   -1    0    0    0  501 -0.00000000000E+00 -0.00000000000E+00 -0.31917767700E+03  0.31921227967E+03  0.47000000000E+01 0.  1.
          6    1    1    2  502    0  0.19463410100E+02 -0.11853454225E+02  0.34018910820E+01  0.17353645603E+03  0.17200000000E+03 0. -1.
         -6    1    1    2    0  502 -0.19463410100E+02  0.11853454225E+02 -0.20203564322E+03  0.26631134005E+03  0.17200000000E+03 0.  1.
</event>
<event>
 4    1 -0.6855026E-004  0.2595337E+03  0.7818608E-02  0.1107424E+00
          5   -1    0    0  501    0  0.00000000000E+00  0.00000000000E+00  0.32645502112E+03  0.32648885251E+03  0.47000000000E+01 0. -1.
         -5   -1    0    0    0  501 -0.00000000000E+00 -0.00000000000E+00 -0.42507066786E+03  0.42509665098E+03  0.47000000000E+01 0.  1.
          6    1    1    2  502    0  0.90459341378E+02 -0.17201992956E+03  0.22028908222E+03  0.34041890129E+03  0.17200000000E+03 0. -1.
         -6    1    1    2    0  502 -0.90459341378E+02  0.17201992956E+03 -0.31890472897E+03  0.41116660220E+03  0.17200000000E+03 0.  1.
</event>
<event>
 4    1 -0.6855026E-004  0.2026562E+03  0.7818608E-02  0.1147517E+00
          5   -1    0    0  501    0  0.00000000000E+00  0.00000000000E+00  0.54722800621E+03  0.54724818938E+03  0.47000000000E+01 0. -1.
         -5   -1    0    0    0  501 -0.00000000000E+00 -0.00000000000E+00 -0.79701337433E+02  0.79839797023E+02  0.47000000000E+01 0.  1.
          6    1    1    2  502    0 -0.95971062268E+02  0.47697981536E+02  0.31020012944E+03  0.37053159452E+03  0.17200000000E+03 0. -1.
         -6    1    1    2    0  502  0.95971062268E+02 -0.47697981536E+02  0.15732653934E+03  0.25655639188E+03  0.17200000000E+03 0. -1.
</event>
<event>
 4    1 -0.6855026E-004  0.1971358E+03  0.7818608E-02  0.1152178E+00
          5   -1    0    0  501    0  0.00000000000E+00  0.00000000000E+00  0.99785316385E+02  0.99895942690E+02  0.47000000000E+01 0. -1.
         -5   -1    0    0    0  501 -0.00000000000E+00 -0.00000000000E+00 -0.75251210163E+03  0.75252677899E+03  0.47000000000E+01 0.  1.
          6    1    1    2  502    0 -0.60703078497E+02  0.74790843632E+02 -0.30209550685E+02  0.19943708527E+03  0.17200000000E+03 0. -1.
         -6    1    1    2    0  502  0.60703078497E+02 -0.74790843632E+02 -0.62251723456E+03  0.65298563641E+03  0.17200000000E+03 0.  1.
</event>
<event>
 4    1 -0.6855026E-004  0.1832161E+03  0.7818608E-02  0.1164726E+00
         -5   -1    0    0    0  501 -0.00000000000E+00  0.00000000000E+00  0.78012915685E+03  0.78014331463E+03  0.47000000000E+01 0.  1.
          5   -1    0    0  501    0  0.00000000000E+00 -0.00000000000E+00 -0.86103204385E+02  0.86231385269E+02  0.47000000000E+01 0. -1.
          6    1    1    2  502    0 -0.35857036945E+02 -0.51946394689E+02  0.40482461803E+02  0.18763524385E+03  0.17200000000E+03 0. -1.
         -6    1    1    2    0  502  0.35857036945E+02  0.51946394689E+02  0.65354349066E+03  0.67873945605E+03  0.17200000000E+03 0.  1.
</event>
<event>
 4    1 -0.6855026E-004  0.1936981E+03  0.7818608E-02  0.1155168E+00
          5   -1    0    0  501    0  0.00000000000E+00  0.00000000000E+00  0.44366618952E+03  0.44369108367E+03  0.47000000000E+01 0. -1.
         -5   -1    0    0    0  501 -0.00000000000E+00 -0.00000000000E+00 -0.38867418484E+03  0.38870260092E+03  0.47000000000E+01 0.  1.
          6    1    1    2  502    0  0.57405647158E+02  0.68114252345E+02  0.39564866066E+03  0.44051881048E+03  0.17200000000E+03 0. -1.
         -6    1    1    2    0  502 -0.57405647158E+02 -0.68114252345E+02 -0.34065665598E+03  0.39187487411E+03  0.17200000000E+03 0.  1.
</event>
<event>
 4    1 -0.6855026E-004  0.2352436E+03  0.7818608E-02  0.1123003E+00
         -5   -1    0    0    0  501 -0.00000000000E+00  0.00000000000E+00  0.70352441496E+03  0.70354011431E+03  0.47000000000E+01 0.  1.
          5   -1    0    0  501    0  0.00000000000E+00 -0.00000000000E+00 -0.21602342685E+03  0.21607454951E+03  0.47000000000E+01 0. -1.
          6    1    1    2  502    0 -0.18641395712E+02 -0.15939908276E+03 -0.12292796349E+03  0.26542579646E+03  0.17200000000E+03 0. -1.
         -6    1    1    2    0  502  0.18641395712E+02  0.15939908276E+03  0.61042895160E+03  0.65418886736E+03  0.17200000000E+03 0.  1.
</event>
<event>
 4    1 -0.6855026E-004  0.6318335E+03  0.7818608E-02  0.9841477E-01
         -5   -1    0    0    0  501 -0.00000000000E+00  0.00000000000E+00  0.98786175753E+03  0.98787293818E+03  0.47000000000E+01 0.  1.
          5   -1    0    0  501    0  0.00000000000E+00 -0.00000000000E+00 -0.97781929571E+03  0.97783059119E+03  0.47000000000E+01 0. -1.
          6    1    1    2  502    0  0.17639021852E+03 -0.58182131685E+03 -0.74782245644E+03  0.97900560789E+03  0.17200000000E+03 0. -1.
         -6    1    1    2    0  502 -0.17639021852E+03  0.58182131685E+03  0.75786491825E+03  0.98669792148E+03  0.17200000000E+03 0.  1.
</event>
<event>
 4    1 -0.6855026E-004  0.1919923E+03  0.7818608E-02  0.1156677E+00
          5   -1    0    0  501    0  0.00000000000E+00  0.00000000000E+00  0.52551863040E+02  0.52761617763E+02  0.47000000000E+01 0. -1.
         -5   -1    0    0    0  501 -0.00000000000E+00 -0.00000000000E+00 -0.28729988438E+04  0.28730026882E+04  0.47000000000E+01 0.  1.
          6    1    1    2  502    0  0.32204253963E+02  0.78993220500E+02 -0.13796896711E+03  0.23642436157E+03  0.17200000000E+03 0. -1.
         -6    1    1    2    0  502 -0.32204253963E+02 -0.78993220500E+02 -0.26824780137E+04  0.26893399444E+04  0.17200000000E+03 0.  1.
</event>
<event>
 4    1 -0.6855026E-004  0.1863275E+03  0.7818608E-02  0.1161816E+00
         -5   -1    0    0    0  501 -0.00000000000E+00  0.00000000000E+00  0.13705413677E+04  0.13705494266E+04  0.47000000000E+01 0.  1.
          5   -1    0    0  501    0  0.00000000000E+00 -0.00000000000E+00 -0.33792580690E+02  0.34117862032E+02  0.47000000000E+01 0. -1.
          6    1    1    2  502    0 -0.67282072978E+02 -0.24638663481E+02  0.31430417529E+03  0.36538343653E+03  0.17200000000E+03 0. -1.
         -6    1    1    2    0  502  0.67282072978E+02  0.24638663481E+02  0.10224446118E+04  0.10392838521E+04  0.17200000000E+03 0.  1.
</event>
<event>
 4    1 -0.6855026E-004  0.1865139E+03  0.7818608E-02  0.1161644E+00
         -5   -1    0    0    0  501 -0.00000000000E+00  0.00000000000E+00  0.22487537951E+03  0.22492449024E+03  0.47000000000E+01 0.  1.
          5   -1    0    0  501    0  0.00000000000E+00 -0.00000000000E+00 -0.21567644493E+03  0.21572764982E+03  0.47000000000E+01 0. -1.
          6    1    1    2  502    0 -0.22377087047E+02 -0.68576165654E+02 -0.11262248365E+03  0.21787897637E+03  0.17200000000E+03 0. -1.
         -6    1    1    2    0  502  0.22377087047E+02  0.68576165654E+02  0.12182141824E+03  0.22277316369E+03  0.17200000000E+03 0.  1.
</event>
<event>
 4    1 -0.6855026E-004  0.1867280E+03  0.7818608E-02  0.1161446E+00
          5   -1    0    0  501    0  0.00000000000E+00  0.00000000000E+00  0.25563440275E+03  0.25567760534E+03  0.47000000000E+01 0. -1.
         -5   -1    0    0    0  501 -0.00000000000E+00 -0.00000000000E+00 -0.30857247221E+03  0.30860826399E+03  0.47000000000E+01 0.  1.
          6    1    1    2  502    0  0.48687881813E+02  0.53970545069E+02  0.18430978236E+03  0.26236887286E+03  0.17200000000E+03 0. -1.
         -6    1    1    2    0  502 -0.48687881813E+02 -0.53970545069E+02 -0.23724785181E+03  0.30191699647E+03  0.17200000000E+03 0.  1.
</event>
<event>
 4    1 -0.6855026E-004  0.2776824E+03  0.7818608E-02  0.1096962E+00
          5   -1    0    0  501    0  0.00000000000E+00  0.00000000000E+00  0.15394051197E+04  0.15394122945E+04  0.47000000000E+01 0. -1.
         -5   -1    0    0    0  501 -0.00000000000E+00 -0.00000000000E+00 -0.83841400830E+02  0.83973034322E+02  0.47000000000E+01 0.  1.
          6    1    1    2  502    0 -0.15870467663E+03 -0.14945339223E+03  0.12431227643E+04  0.12737588853E+04  0.17200000000E+03 0. -1.
         -6    1    1    2    0  502  0.15870467663E+03  0.14945339223E+03  0.21244095458E+03  0.34962644353E+03  0.17200000000E+03 0.  1.
</event>
<event>
 4    1 -0.6855026E-004  0.2138046E+03  0.7818608E-02  0.1138588E+00
          5   -1    0    0  501    0  0.00000000000E+00  0.00000000000E+00  0.14950917756E+03  0.14958303438E+03  0.47000000000E+01 0. -1.
         -5   -1    0    0    0  501 -0.00000000000E+00 -0.00000000000E+00 -0.86070695063E+03  0.86071978301E+03  0.47000000000E+01 0.  1.
          6    1    1    2  502    0 -0.11381987712E+03 -0.56333155843E+02  0.50063147609E+02  0.21958758531E+03  0.17200000000E+03 0. -1.
         -6    1    1    2    0  502  0.11381987712E+03  0.56333155843E+02 -0.76126092068E+03  0.79071523207E+03  0.17200000000E+03 0.  1.
</event>
<event>
 4    1 -0.6855026E-004  0.2102542E+03  0.7818608E-02  0.1141365E+00
          5   -1    0    0  501    0  0.00000000000E+00  0.00000000000E+00  0.58914883949E+03  0.58916758658E+03  0.47000000000E+01 0. -1.
         -5   -1    0    0    0  501 -0.00000000000E+00 -0.00000000000E+00 -0.26872212505E+03  0.26876322384E+03  0.47000000000E+01 0.  1.
          6    1    1    2  502    0 -0.10280533895E+03  0.63670044502E+02  0.52440880688E+03  0.56498797245E+03  0.17200000000E+03 0. -1.
         -6    1    1    2    0  502  0.10280533895E+03 -0.63670044502E+02 -0.20398209244E+03  0.29294283797E+03  0.17200000000E+03 0.  1.
</event>
<event>
 4    1 -0.6855026E-004  0.2135541E+03  0.7818608E-02  0.1138782E+00
          5   -1    0    0  501    0  0.00000000000E+00  0.00000000000E+00  0.29232712303E+03  0.29236490360E+03  0.47000000000E+01 0. -1.
         -5   -1    0    0    0  501 -0.00000000000E+00 -0.00000000000E+00 -0.45632112880E+03  0.45634533261E+03  0.47000000000E+01 0.  1.
          6    1    1    2  502    0 -0.55383406033E+02  0.11381582600E+03  0.22171032956E+03  0.30783247741E+03  0.17200000000E+03 0. -1.
         -6    1    1    2    0  502  0.55383406033E+02 -0.11381582600E+03 -0.38570433533E+03  0.44087775880E+03  0.17200000000E+03 0.  1.
</event>
<event>
 4    1 -0.6855026E-004  0.1779249E+03  0.7818608E-02  0.1169827E+00
          5   -1    0    0  501    0  0.00000000000E+00  0.00000000000E+00  0.48568605662E+03  0.48570879712E+03  0.47000000000E+01 0. -1.
         -5   -1    0    0    0  501 -0.00000000000E+00 -0.00000000000E+00 -0.12352625419E+03  0.12361563604E+03  0.47000000000E+01 0.  1.
          6    1    1    2  502    0  0.11225704130E+02 -0.44127555063E+02  0.39053049448E+03  0.42915186667E+03  0.17200000000E+03 0. -1.
         -6    1    1    2    0  502 -0.11225704130E+02  0.44127555063E+02 -0.28370692039E+02  0.18017256649E+03  0.17200000000E+03 0.  1.
</event>
<event>
 4    1 -0.6855026E-004  0.1973236E+03  0.7818608E-02  0.1152017E+00
         -5   -1    0    0    0  501 -0.00000000000E+00  0.00000000000E+00  0.16123730728E+04  0.16123799229E+04  0.47000000000E+01 0.  1.
          5   -1    0    0  501    0  0.00000000000E+00 -0.00000000000E+00 -0.58887501921E+02  0.59074765192E+02  0.47000000000E+01 0. -1.
          6    1    1    2  502    0 -0.95913674014E+02 -0.12376542681E+02  0.13447201298E+03  0.23878721479E+03  0.17200000000E+03 0. -1.
         -6    1    1    2    0  502  0.95913674014E+02  0.12376542681E+02  0.14190135579E+04  0.14326674733E+04  0.17200000000E+03 0.  1.
</event>
<event>
 4    1 -0.6855026E-004  0.2386480E+03  0.7818608E-02  0.1120697E+00
          5   -1    0    0  501    0  0.00000000000E+00  0.00000000000E+00  0.19920677219E+04  0.19920732664E+04  0.47000000000E+01 0. -1.
         -5   -1    0    0    0  501 -0.00000000000E+00 -0.00000000000E+00 -0.56414679488E+02  0.56610123315E+02  0.47000000000E+01 0.  1.
          6    1    1    2  502    0  0.14657128461E+03  0.76718515530E+02  0.16878933685E+04  0.17046808779E+04  0.17200000000E+03 0. -1.
         -6    1    1    2    0  502 -0.14657128461E+03 -0.76718515530E+02  0.24775967391E+03  0.34400251178E+03  0.17200000000E+03 0.  1.
</event>
<event>
 4    1 -0.6855026E-004  0.1858032E+03  0.7818608E-02  0.1162302E+00
         -5   -1    0    0    0  501 -0.00000000000E+00  0.00000000000E+00  0.18350454550E+03  0.18356472487E+03  0.47000000000E+01 0.  1.
          5   -1    0    0  501    0  0.00000000000E+00 -0.00000000000E+00 -0.24051493868E+03  0.24056085660E+03  0.47000000000E+01 0. -1.
          6    1    1    2  502    0 -0.66074289519E+02  0.23937545082E+02 -0.12756356431E+03  0.22537808398E+03  0.17200000000E+03 0. -1.
         -6    1    1    2    0  502  0.66074289519E+02 -0.23937545082E+02  0.70553171132E+02  0.19874749749E+03  0.17200000000E+03 0.  1.
</event>
<event>
 4    1 -0.6855026E-004  0.1821558E+03  0.7818608E-02  0.1165733E+00
          5   -1    0    0  501    0  0.00000000000E+00  0.00000000000E+00  0.21374483029E+03  0.21379649781E+03  0.47000000000E+01 0. -1.
         -5   -1    0    0    0  501 -0.00000000000E+00 -0.00000000000E+00 -0.50344206678E+03  0.50346400527E+03  0.47000000000E+01 0.  1.
          6    1    1    2  502    0  0.26210932159E+02 -0.53941769935E+02  0.15342480423E+03  0.23815939633E+03  0.17200000000E+03 0. -1.
         -6    1    1    2    0  502 -0.26210932159E+02  0.53941769935E+02 -0.44312204073E+03  0.47910110675E+03  0.17200000000E+03 0.  1.
</event>
<event>
 4    1 -0.6855026E-004  0.1951428E+03  0.7818608E-02  0.1153903E+00
         -5   -1    0    0    0  501 -0.00000000000E+00  0.00000000000E+00  0.14761164933E+03  0.14768645509E+03  0.47000000000E+01 0.  1.
          5   -1    0    0  501    0  0.00000000000E+00 -0.00000000000E+00 -0.29809879545E+03  0.29813584462E+03  0.47000000000E+01 0. -1.
          6    1    1    2  502    0 -0.61321118554E+02  0.68821885721E+02 -0.15716911238E+03  0.25056508420E+03  0.17200000000E+03 0. -1.
         -6    1    1    2    0  502  0.61321118554E+02 -0.68821885721E+02  0.66819662603E+01  0.19525721551E+03  0.17200000000E+03 0.  1.
</event>
<event>
 4    1 -0.6855026E-004  0.1942099E+03  0.7818608E-02  0.1154718E+00
         -5   -1    0    0    0  501 -0.00000000000E+00  0.00000000000E+00  0.77547607618E+02  0.77689905697E+02  0.47000000000E+01 0.  1.
          5   -1    0    0  501    0  0.00000000000E+00 -0.00000000000E+00 -0.11972212644E+04  0.11972304899E+04  0.47000000000E+01 0. -1.
          6    1    1    2  502    0 -0.90031900282E+02  0.52663819623E+01 -0.10512050123E+04  0.10689946004E+04  0.17200000000E+03 0. -1.
         -6    1    1    2    0  502  0.90031900282E+02 -0.52663819623E+01 -0.68468644515E+02  0.20592579520E+03  0.17200000000E+03 0.  1.
</event>
<event>
 4    1 -0.6855026E-004  0.6787667E+03  0.7818608E-02  0.9754249E-01
         -5   -1    0    0    0  501 -0.00000000000E+00  0.00000000000E+00  0.20317710134E+03  0.20323145551E+03  0.47000000000E+01 0.  1.
          5   -1    0    0  501    0  0.00000000000E+00 -0.00000000000E+00 -0.27600655852E+04  0.27600695869E+04  0.47000000000E+01 0. -1.
          6    1    1    2  502    0 -0.22838210004E+03  0.61561502793E+03 -0.19045222174E+04  0.20218627854E+04  0.17200000000E+03 0. -1.
         -6    1    1    2    0  502  0.22838210004E+03 -0.61561502793E+03 -0.65236626640E+03  0.94143825701E+03  0.17200000000E+03 0.  1.
</event>
<event>
 4    1 -0.6855026E-004  0.1857014E+03  0.7818608E-02  0.1162396E+00
         -5   -1    0    0    0  501 -0.00000000000E+00  0.00000000000E+00  0.44620088130E+03  0.44622563404E+03  0.47000000000E+01 0.  1.
          5   -1    0    0  501    0  0.00000000000E+00 -0.00000000000E+00 -0.11884313065E+03  0.11893603198E+03  0.47000000000E+01 0. -1.
          6    1    1    2  502    0 -0.35632825203E+02 -0.60260515957E+02 -0.35194493503E+01  0.18573479625E+03  0.17200000000E+03 0. -1.
         -6    1    1    2    0  502  0.35632825203E+02  0.60260515957E+02  0.33087720000E+03  0.37942686976E+03  0.17200000000E+03 0.  1.
</event>
<event>
 4    1 -0.6855026E-004  0.2064056E+03  0.7818608E-02  0.1144444E+00
         -5   -1    0    0    0  501 -0.00000000000E+00  0.00000000000E+00  0.11734808752E+04  0.11734902873E+04  0.47000000000E+01 0.  1.
          5   -1    0    0  501    0  0.00000000000E+00 -0.00000000000E+00 -0.37808389671E+02  0.38099400645E+02  0.47000000000E+01 0. -1.
          6    1    1    2  502    0 -0.77571419009E+01  0.11383811380E+03  0.44122047160E+03  0.48711271176E+03  0.17200000000E+03 0.  1.
         -6    1    1    2    0  502  0.77571419009E+01 -0.11383811380E+03  0.69445201390E+03  0.72447697618E+03  0.17200000000E+03 0. -1.
</event>
<event>
 4    1 -0.6855026E-004  0.2056374E+03  0.7818608E-02  0.1145068E+00
         -5   -1    0    0    0  501 -0.00000000000E+00  0.00000000000E+00  0.59634063190E+02  0.59818989398E+02  0.47000000000E+01 0.  1.
          5   -1    0    0  501    0  0.00000000000E+00 -0.00000000000E+00 -0.16769760470E+04  0.16769826332E+04  0.47000000000E+01 0. -1.
          6    1    1    2  502    0 -0.93962244626E+02 -0.62240000354E+02 -0.14688015544E+04  0.14831266727E+04  0.17200000000E+03 0. -1.
         -6    1    1    2    0  502  0.93962244626E+02  0.62240000354E+02 -0.14854042940E+03  0.25367494994E+03  0.17200000000E+03 0.  1.
</event>
<event>
 4    1 -0.6855026E-004  0.1888372E+03  0.7818608E-02  0.1159514E+00
         -5   -1    0    0    0  501 -0.00000000000E+00  0.00000000000E+00  0.20909426439E+03  0.20914708079E+03  0.47000000000E+01 0.  1.
          5   -1    0    0  501    0  0.00000000000E+00 -0.00000000000E+00 -0.19854726379E+03  0.19860288507E+03  0.47000000000E+01 0. -1.
          6    1    1    2  502    0 -0.14357918763E+02 -0.76611622304E+02 -0.71418373929E+02  0.20189124458E+03  0.17200000000E+03 0.  1.
         -6    1    1    2    0  502  0.14357918763E+02  0.76611622304E+02  0.81965374537E+02  0.20585872128E+03  0.17200000000E+03 0.  1.
</event>
<event>
 4    1 -0.6855026E-004  0.1860363E+03  0.7818608E-02  0.1162086E+00
          5   -1    0    0  501    0  0.00000000000E+00  0.00000000000E+00  0.76888303653E+02  0.77031819651E+02  0.47000000000E+01 0. -1.
         -5   -1    0    0    0  501 -0.00000000000E+00 -0.00000000000E+00 -0.32931450881E+04  0.32931484421E+04  0.47000000000E+01 0.  1.
          6    1    1    2  502    0  0.29043674718E+02  0.64668260331E+02 -0.42311172906E+02  0.19078719634E+03  0.17200000000E+03 0. -1.
         -6    1    1    2    0  502 -0.29043674718E+02 -0.64668260331E+02 -0.31739456116E+04  0.31793930654E+04  0.17200000000E+03 0.  1.
</event>
<event>
 4    1 -0.6855026E-004  0.1938323E+03  0.7818608E-02  0.1155050E+00
          5   -1    0    0  501    0  0.00000000000E+00  0.00000000000E+00  0.10119044485E+03  0.10129953667E+03  0.47000000000E+01 0. -1.
         -5   -1    0    0    0  501 -0.00000000000E+00 -0.00000000000E+00 -0.43009789965E+03  0.43012357909E+03  0.47000000000E+01 0.  1.
          6    1    1    2  502    0 -0.83576337851E+02 -0.31653868293E+02 -0.65946128145E+02  0.20474340879E+03  0.17200000000E+03 0. -1.
         -6    1    1    2    0  502  0.83576337851E+02  0.31653868293E+02 -0.26296132666E+03  0.32667970697E+03  0.17200000000E+03 0.  1.
</event>
<event>
 4    1 -0.6855026E-004  0.2158704E+03  0.7818608E-02  0.1137000E+00
          5   -1    0    0  501    0  0.00000000000E+00  0.00000000000E+00  0.15456108773E+03  0.15463253163E+03  0.47000000000E+01 0. -1.
         -5   -1    0    0    0  501 -0.00000000000E+00 -0.00000000000E+00 -0.18697013402E+04  0.18697072476E+04  0.47000000000E+01 0.  1.
          6    1    1    2  502    0 -0.13040743037E+03 -0.31515435994E+01  0.69429661727E+02  0.22676090503E+03  0.17200000000E+03 0. -1.
         -6    1    1    2    0  502  0.13040743037E+03  0.31515435994E+01 -0.17845699142E+04  0.17975788742E+04  0.17200000000E+03 0.  1.
</event>
<event>
 4    1 -0.6855026E-004  0.1990539E+03  0.7818608E-02  0.1150540E+00
         -5   -1    0    0    0  501 -0.00000000000E+00  0.00000000000E+00  0.38652300844E+03  0.38655158266E+03  0.47000000000E+01 0.  1.
          5   -1    0    0  501    0  0.00000000000E+00 -0.00000000000E+00 -0.19682680166E+03  0.19688290899E+03  0.47000000000E+01 0. -1.
          6    1    1    2  502    0  0.15044970360E+02  0.99055982016E+02 -0.10712396702E+03  0.22604862976E+03  0.17200000000E+03 0. -1.
         -6    1    1    2    0  502 -0.15044970360E+02 -0.99055982016E+02  0.29682017380E+03  0.35738586189E+03  0.17200000000E+03 0.  1.
</event>
<event>
 4    1 -0.6855026E-004  0.1879341E+03  0.7818608E-02  0.1160338E+00
         -5   -1    0    0    0  501 -0.00000000000E+00  0.00000000000E+00  0.11049794789E+03  0.11059785932E+03  0.47000000000E+01 0.  1.
          5   -1    0    0  501    0  0.00000000000E+00 -0.00000000000E+00 -0.10681114541E+04  0.10681217947E+04  0.47000000000E+01 0. -1.
          6    1    1    2  502    0  0.70717976878E+02  0.27095737397E+02 -0.97222113944E+03  0.99021874109E+03  0.17200000000E+03 0. -1.
         -6    1    1    2    0  502 -0.70717976878E+02 -0.27095737397E+02  0.14607633225E+02  0.18850091296E+03  0.17200000000E+03 0.  1.
</event>
<event>
 4    1 -0.6855026E-004  0.1858563E+03  0.7818608E-02  0.1162253E+00
          5   -1    0    0  501    0  0.00000000000E+00  0.00000000000E+00  0.12350979294E+04  0.12351068719E+04  0.47000000000E+01 0. -1.
         -5   -1    0    0    0  501 -0.00000000000E+00 -0.00000000000E+00 -0.55020696299E+02  0.55221074068E+02  0.47000000000E+01 0.  1.
          6    1    1    2  502    0  0.50207371570E+02  0.49373752223E+02  0.10428959881E+04  0.10593274232E+04  0.17200000000E+03 0. -1.
         -6    1    1    2    0  502 -0.50207371570E+02 -0.49373752223E+02  0.13718124499E+03  0.23100052282E+03  0.17200000000E+03 0.  1.
</event>
<event>
 4    1 -0.6855026E-004  0.2043609E+03  0.7818608E-02  0.1146111E+00
          5   -1    0    0  501    0  0.00000000000E+00  0.00000000000E+00  0.79163128603E+03  0.79164523811E+03  0.47000000000E+01 0. -1.
         -5   -1    0    0    0  501 -0.00000000000E+00 -0.00000000000E+00 -0.63298346690E+02  0.63472597975E+02  0.47000000000E+01 0.  1.
          6    1    1    2  502    0 -0.10132542800E+03  0.43732517237E+02  0.53935334201E+03  0.57677153445E+03  0.17200000000E+03 0. -1.
         -6    1    1    2    0  502  0.10132542800E+03 -0.43732517237E+02  0.18897959734E+03  0.27834630163E+03  0.17200000000E+03 0.  1.
</event>
<event>
 4    1 -0.6855026E-004  0.1870634E+03  0.7818608E-02  0.1161137E+00
         -5   -1    0    0    0  501 -0.00000000000E+00  0.00000000000E+00  0.40317688977E+03  0.40320428376E+03  0.47000000000E+01 0.  1.
          5   -1    0    0  501    0  0.00000000000E+00 -0.00000000000E+00 -0.87613638074E+02  0.87739612357E+02  0.47000000000E+01 0. -1.
          6    1    1    2  502    0  0.22406574926E+02 -0.70047587076E+02  0.13271572189E+03  0.22936037559E+03  0.17200000000E+03 0. -1.
         -6    1    1    2    0  502 -0.22406574926E+02  0.70047587076E+02  0.18284752981E+03  0.26158352053E+03  0.17200000000E+03 0. -1.
</event>
<event>
 4    1 -0.6855026E-004  0.1874967E+03  0.7818608E-02  0.1160739E+00
          5   -1    0    0  501    0  0.00000000000E+00  0.00000000000E+00  0.32292705774E+03  0.32296125870E+03  0.47000000000E+01 0. -1.
         -5   -1    0    0    0  501 -0.00000000000E+00 -0.00000000000E+00 -0.20424013310E+04  0.20424067388E+04  0.47000000000E+01 0.  1.
          6    1    1    2  502    0 -0.71818796186E+02  0.20323914983E+02  0.29099799693E+03  0.34617168460E+03  0.17200000000E+03 0. -1.
         -6    1    1    2    0  502  0.71818796186E+02 -0.20323914983E+02 -0.20104722702E+04  0.20191963129E+04  0.17200000000E+03 0.  1.
</event>
<event>
 4    1 -0.6855026E-004  0.3098432E+03  0.7818608E-02  0.1080421E+00
          5   -1    0    0  501    0  0.00000000000E+00  0.00000000000E+00  0.18151936117E+03  0.18158019848E+03  0.47000000000E+01 0. -1.
         -5   -1    0    0    0  501 -0.00000000000E+00 -0.00000000000E+00 -0.62694659333E+03  0.62696421022E+03  0.47000000000E+01 0.  1.
          6    1    1    2  502    0 -0.10671457784E+03 -0.23458648010E+03 -0.62708180647E+02  0.31612518673E+03  0.17200000000E+03 0. -1.
         -6    1    1    2    0  502  0.10671457784E+03  0.23458648010E+03 -0.38271905152E+03  0.49241922196E+03  0.17200000000E+03 0.  1.
</event>
<event>
 4    1 -0.6855026E-004  0.2332323E+03  0.7818608E-02  0.1124385E+00
         -5   -1    0    0    0  501 -0.00000000000E+00  0.00000000000E+00  0.12516600725E+04  0.12516688968E+04  0.47000000000E+01 0.  1.
          5   -1    0    0  501    0  0.00000000000E+00 -0.00000000000E+00 -0.44016487162E+02  0.44266704667E+02  0.47000000000E+01 0. -1.
          6    1    1    2  502    0 -0.56343164197E+02 -0.14710112680E+03  0.52279024330E+03  0.57245692602E+03  0.17200000000E+03 0. -1.
         -6    1    1    2    0  502  0.56343164197E+02  0.14710112680E+03  0.68485334207E+03  0.72347867543E+03  0.17200000000E+03 0.  1.
</event>
<event>
 4    1 -0.6855026E-004  0.2881733E+03  0.7818608E-02  0.1091307E+00
         -5   -1    0    0    0  501 -0.00000000000E+00  0.00000000000E+00  0.23044825222E+04  0.23044873150E+04  0.47000000000E+01 0.  1.
          5   -1    0    0  501    0  0.00000000000E+00 -0.00000000000E+00 -0.13001161682E+03  0.13009654303E+03  0.47000000000E+01 0. -1.
          6    1    1    2  502    0 -0.22829844182E+03  0.36601698182E+02  0.52231365353E+02  0.29286853428E+03  0.17200000000E+03 0. -1.
         -6    1    1    2    0  502  0.22829844182E+03 -0.36601698182E+02  0.21222395400E+04  0.21417153238E+04  0.17200000000E+03 0.  1.
</event>
<event>
 4    1 -0.6855026E-004  0.1844083E+03  0.7818608E-02  0.1163604E+00
          5   -1    0    0  501    0  0.00000000000E+00  0.00000000000E+00  0.13332122719E+04  0.13332205563E+04  0.47000000000E+01 0. -1.
         -5   -1    0    0    0  501 -0.00000000000E+00 -0.00000000000E+00 -0.17658911239E+03  0.17665164764E+03  0.47000000000E+01 0.  1.
          6    1    1    2  502    0 -0.13845379543E+02  0.65043922298E+02  0.12766129695E+04  0.12898632022E+04  0.17200000000E+03 0. -1.
         -6    1    1    2    0  502  0.13845379543E+02 -0.65043922298E+02 -0.11998981005E+03  0.22000900181E+03  0.17200000000E+03 0.  1.
</event>
<event>
 4    1 -0.6855026E-004  0.1800750E+03  0.7818608E-02  0.1167730E+00
         -5   -1    0    0    0  501 -0.00000000000E+00  0.00000000000E+00  0.20817879303E+04  0.20817932358E+04  0.47000000000E+01 0.  1.
          5   -1    0    0  501    0  0.00000000000E+00 -0.00000000000E+00 -0.36724870386E+02  0.37024398778E+02  0.47000000000E+01 0. -1.
          6    1    1    2  502    0  0.22567609298E+02  0.48308621256E+02  0.21735092179E+03  0.28225598857E+03  0.17200000000E+03 0. -1.
         -6    1    1    2    0  502 -0.22567609298E+02 -0.48308621256E+02  0.18277121381E+04  0.18365616460E+04  0.17200000000E+03 0.  1.
</event>
<event>
 4    1 -0.6855026E-004  0.1817038E+03  0.7818608E-02  0.1166164E+00
         -5   -1    0    0    0  501 -0.00000000000E+00  0.00000000000E+00  0.44961709506E+03  0.44964165973E+03  0.47000000000E+01 0.  1.
          5   -1    0    0  501    0  0.00000000000E+00 -0.00000000000E+00 -0.24865022018E+03  0.24869463604E+03  0.47000000000E+01 0. -1.
          6    1    1    2  502    0 -0.47136569482E+02  0.34790765294E+02 -0.19263929966E+03  0.26481343113E+03  0.17200000000E+03 0. -1.
         -6    1    1    2    0  502  0.47136569482E+02 -0.34790765294E+02  0.39360617454E+03  0.43352286464E+03  0.17200000000E+03 0.  1.
</event>
<event>
 4    1 -0.6855026E-004  0.3747947E+03  0.7818608E-02  0.1052875E+00
         -5   -1    0    0    0  501 -0.00000000000E+00  0.00000000000E+00  0.13320781794E+04  0.13320864709E+04  0.47000000000E+01 0.  1.
          5   -1    0    0  501    0  0.00000000000E+00 -0.00000000000E+00 -0.42604085604E+03  0.42606678000E+03  0.47000000000E+01 0. -1.
          6    1    1    2  502    0 -0.49186652968E+02  0.32934445953E+03 -0.30954955763E+03  0.48609878469E+03  0.17200000000E+03 0. -1.
         -6    1    1    2    0  502  0.49186652968E+02 -0.32934445953E+03  0.12155868810E+04  0.12720544662E+04  0.17200000000E+03 0.  1.
</event>
<event>
 4    1 -0.6855026E-004  0.2012571E+03  0.7818608E-02  0.1148683E+00
          5   -1    0    0  501    0  0.00000000000E+00  0.00000000000E+00  0.29037421393E+03  0.29041224857E+03  0.47000000000E+01 0. -1.
         -5   -1    0    0    0  501 -0.00000000000E+00 -0.00000000000E+00 -0.14102798761E+03  0.14110628366E+03  0.47000000000E+01 0.  1.
          6    1    1    2  502    0 -0.89653328264E+02  0.53690781235E+02  0.51527066329E+02  0.20774854469E+03  0.17200000000E+03 0.  1.
         -6    1    1    2    0  502  0.89653328264E+02 -0.53690781235E+02  0.97819159998E+02  0.22376998753E+03  0.17200000000E+03 0.  1.
</event>
<event>
 4    1 -0.6855026E-004  0.3314511E+03  0.7818608E-02  0.1070497E+00
         -5   -1    0    0    0  501 -0.00000000000E+00  0.00000000000E+00  0.14411549671E+03  0.14419211626E+03  0.47000000000E+01 0.  1.
          5   -1    0    0  501    0  0.00000000000E+00 -0.00000000000E+00 -0.18135644306E+04  0.18135705208E+04  0.47000000000E+01 0. -1.
          6    1    1    2  502    0 -0.16420859232E+03  0.23089257150E+03 -0.15800867775E+04  0.16144764061E+04  0.17200000000E+03 0. -1.
         -6    1    1    2    0  502  0.16420859232E+03 -0.23089257150E+03 -0.89362156331E+02  0.34328623093E+03  0.17200000000E+03 0. -1.
</event>
<event>
 4    1 -0.6855026E-004  0.2201565E+03  0.7818608E-02  0.1133766E+00
         -5   -1    0    0    0  501 -0.00000000000E+00  0.00000000000E+00  0.41340948057E+03  0.41343619656E+03  0.47000000000E+01 0.  1.
          5   -1    0    0  501    0  0.00000000000E+00 -0.00000000000E+00 -0.20462422959E+03  0.20467819946E+03  0.47000000000E+01 0. -1.
          6    1    1    2  502    0 -0.12047324509E+03 -0.66114009117E+02 -0.97610583206E+02  0.24082502141E+03  0.17200000000E+03 0. -1.
         -6    1    1    2    0  502  0.12047324509E+03  0.66114009117E+02  0.30639583419E+03  0.37728937461E+03  0.17200000000E+03 0.  1.
</event>
<event>
 4    1 -0.6855026E-004  0.2143025E+03  0.7818608E-02  0.1138203E+00
         -5   -1    0    0    0  501 -0.00000000000E+00  0.00000000000E+00  0.49055330322E+03  0.49057581809E+03  0.47000000000E+01 0.  1.
          5   -1    0    0  501    0  0.00000000000E+00 -0.00000000000E+00 -0.28995124329E+03  0.28998933340E+03  0.47000000000E+01 0. -1.
          6    1    1    2  502    0  0.69577827914E+02 -0.10724025066E+03 -0.22086434794E+03  0.30774438369E+03  0.17200000000E+03 0. -1.
         -6    1    1    2    0  502 -0.69577827914E+02  0.10724025066E+03  0.42146640787E+03  0.47282076780E+03  0.17200000000E+03 0.  1.
</event>
<event>
 4    1 -0.6855026E-004  0.2292470E+03  0.7818608E-02  0.1127171E+00
          5   -1    0    0  501    0  0.00000000000E+00  0.00000000000E+00  0.61974150565E+03  0.61975932734E+03  0.47000000000E+01 0. -1.
         -5   -1    0    0    0  501 -0.00000000000E+00 -0.00000000000E+00 -0.15645300847E+03  0.15652358882E+03  0.47000000000E+01 0.  1.
          6    1    1    2  502    0  0.12868742081E+03  0.80060879210E+02  0.49437179164E+03  0.54493822129E+03  0.17200000000E+03 0. -1.
         -6    1    1    2    0  502 -0.12868742081E+03 -0.80060879210E+02 -0.31083294451E+02  0.23134469488E+03  0.17200000000E+03 0.  1.
</event>
<event>
 4    1 -0.6855026E-004  0.1776960E+03  0.7818608E-02  0.1170052E+00
         -5   -1    0    0    0  501 -0.00000000000E+00  0.00000000000E+00  0.98776940616E+03  0.98778058786E+03  0.47000000000E+01 0.  1.
          5   -1    0    0  501    0  0.00000000000E+00 -0.00000000000E+00 -0.42501788897E+03  0.42504387532E+03  0.47000000000E+01 0. -1.
          6    1    1    2  502    0 -0.44120964176E+02 -0.67247099195E+01 -0.39795328357E+03  0.43582415847E+03  0.17200000000E+03 0. -1.
         -6    1    1    2    0  502  0.44120964176E+02  0.67247099195E+01  0.96070480076E+03  0.97700030471E+03  0.17200000000E+03 0.  1.
</event>
<event>
 4    1 -0.6855026E-004  0.1948826E+03  0.7818608E-02  0.1154130E+00
         -5   -1    0    0    0  501 -0.00000000000E+00  0.00000000000E+00  0.30351960457E+03  0.30355599213E+03  0.47000000000E+01 0.  1.
          5   -1    0    0  501    0  0.00000000000E+00 -0.00000000000E+00 -0.48161182674E+03  0.48163475960E+03  0.47000000000E+01 0. -1.
          6    1    1    2  502    0  0.25672387152E+01  0.91589491415E+02 -0.42682135217E+03  0.46920751520E+03  0.17200000000E+03 0. -1.
         -6    1    1    2    0  502 -0.25672387152E+01 -0.91589491415E+02  0.24872913000E+03  0.31598323652E+03  0.17200000000E+03 0.  1.
</event>
<event>
 4    1 -0.6855026E-004  0.3321799E+03  0.7818608E-02  0.1070176E+00
         -5   -1    0    0    0  501 -0.00000000000E+00  0.00000000000E+00  0.47467598157E+03  0.47469924950E+03  0.47000000000E+01 0.  1.
          5   -1    0    0  501    0  0.00000000000E+00 -0.00000000000E+00 -0.26573297123E+03  0.26577453226E+03  0.47000000000E+01 0. -1.
          6    1    1    2  502    0  0.24419799730E+03 -0.14535066451E+03 -0.26623781822E+02  0.33324510997E+03  0.17200000000E+03 0. -1.
         -6    1    1    2    0  502 -0.24419799730E+03  0.14535066451E+03  0.23556679216E+03  0.40722867179E+03  0.17200000000E+03 0.  1.
</event>
<event>
 4    1 -0.6855026E-004  0.1737134E+03  0.7818608E-02  0.1174030E+00
         -5   -1    0    0    0  501 -0.00000000000E+00  0.00000000000E+00  0.22190772342E+03  0.22195749078E+03  0.47000000000E+01 0.  1.
          5   -1    0    0  501    0  0.00000000000E+00 -0.00000000000E+00 -0.18942127029E+03  0.18947957051E+03  0.47000000000E+01 0. -1.
          6    1    1    2  502    0 -0.10034672542E+02 -0.22173232042E+02 -0.93093198979E+02  0.19708549051E+03  0.17200000000E+03 0. -1.
         -6    1    1    2    0  502  0.10034672542E+02  0.22173232042E+02  0.12557965211E+03  0.21435157078E+03  0.17200000000E+03 0.  1.
</event>
<event>
 4    1 -0.6855026E-004  0.2585942E+03  0.7818608E-02  0.1107991E+00
          5   -1    0    0  501    0  0.00000000000E+00  0.00000000000E+00  0.10762477980E+04  0.10762580605E+04  0.47000000000E+01 0. -1.
         -5   -1    0    0    0  501 -0.00000000000E+00 -0.00000000000E+00 -0.70459034340E+03  0.70460601900E+03  0.47000000000E+01 0.  1.
          6    1    1    2  502    0  0.12950294062E+03  0.14323385297E+03  0.10360952579E+04  0.10678784255E+04  0.17200000000E+03 0. -1.
         -6    1    1    2    0  502 -0.12950294062E+03 -0.14323385297E+03 -0.66443780329E+03  0.71298565393E+03  0.17200000000E+03 0.  1.
</event>
<event>
 4    1 -0.6855026E-004  0.2316690E+03  0.7818608E-02  0.1125471E+00
          5   -1    0    0  501    0  0.00000000000E+00  0.00000000000E+00  0.22310769997E+03  0.22315719972E+03  0.47000000000E+01 0. -1.
         -5   -1    0    0    0  501 -0.00000000000E+00 -0.00000000000E+00 -0.24451297000E+03  0.24455813726E+03  0.47000000000E+01 0.  1.
          6    1    1    2  502    0 -0.11173962563E+03 -0.10770688888E+03  0.19401234864E+02  0.23247994701E+03  0.17200000000E+03 0. -1.
         -6    1    1    2    0  502  0.11173962563E+03  0.10770688888E+03 -0.40806504895E+02  0.23523538996E+03  0.17200000000E+03 0.  1.
</event>
<event>
 4    1 -0.6855026E-004  0.1783951E+03  0.7818608E-02  0.1169365E+00
          5   -1    0    0  501    0  0.00000000000E+00  0.00000000000E+00  0.19622566624E+04  0.19622622911E+04  0.47000000000E+01 0. -1.
         -5   -1    0    0    0  501 -0.00000000000E+00 -0.00000000000E+00 -0.19552797697E+03  0.19558445689E+03  0.47000000000E+01 0.  1.
          6    1    1    2  502    0  0.45054481936E+02  0.14522659526E+02  0.19165805932E+04  0.19248651860E+04  0.17200000000E+03 0. -1.
         -6    1    1    2    0  502 -0.45054481936E+02 -0.14522659526E+02 -0.14985190777E+03  0.23298156203E+03  0.17200000000E+03 0.  1.
</event>
<event>
 4    1 -0.6855026E-004  0.1720419E+03  0.7818608E-02  0.1175735E+00
          5   -1    0    0  501    0  0.00000000000E+00  0.00000000000E+00  0.10780900705E+03  0.10791140812E+03  0.47000000000E+01 0. -1.
         -5   -1    0    0    0  501 -0.00000000000E+00 -0.00000000000E+00 -0.35215203257E+03  0.35218339547E+03  0.47000000000E+01 0.  1.
          6    1    1    2  502    0 -0.27276176160E+01  0.26417796835E+01 -0.14022127013E+02  0.17261239510E+03  0.17200000000E+03 0. -1.
         -6    1    1    2    0  502  0.27276176160E+01 -0.26417796835E+01 -0.23032089850E+03  0.28748240848E+03  0.17200000000E+03 0.  1.
</event>
<event>
 4    1 -0.6855026E-004  0.1996246E+03  0.7818608E-02  0.1150056E+00
          5   -1    0    0  501    0  0.00000000000E+00  0.00000000000E+00  0.22817705423E+03  0.22822545448E+03  0.47000000000E+01 0. -1.
         -5   -1    0    0    0  501 -0.00000000000E+00 -0.00000000000E+00 -0.65004552184E+03  0.65006251274E+03  0.47000000000E+01 0.  1.
          6    1    1    2  502    0 -0.65063326255E+02  0.77670726549E+02  0.16462662688E+03  0.25875066080E+03  0.17200000000E+03 0. -1.
         -6    1    1    2    0  502  0.65063326255E+02 -0.77670726549E+02 -0.58649509449E+03  0.61953730642E+03  0.17200000000E+03 0.  1.
</event>
<event>
 4    1 -0.6855026E-004  0.1743389E+03  0.7818608E-02  0.1173397E+00
          5   -1    0    0  501    0  0.00000000000E+00  0.00000000000E+00  0.11321939675E+04  0.11322037229E+04  0.47000000000E+01 0. -1.
         -5   -1    0    0    0  501 -0.00000000000E+00 -0.00000000000E+00 -0.72223939360E+02  0.72376704931E+02  0.47000000000E+01 0.  1.
          6    1    1    2  502    0  0.72400701232E+01 -0.27525202747E+02  0.10075633449E+04  0.10225350602E+04  0.17200000000E+03 0. -1.
         -6    1    1    2    0  502 -0.72400701232E+01  0.27525202747E+02  0.52406683239E+02  0.18204536756E+03  0.17200000000E+03 0.  1.
</event>
<event>
 4    1 -0.6855026E-004  0.1748551E+03  0.7818608E-02  0.1172877E+00
         -5   -1    0    0    0  501 -0.00000000000E+00  0.00000000000E+00  0.68276936760E+03  0.68278554417E+03  0.47000000000E+01 0.  1.
          5   -1    0    0  501    0  0.00000000000E+00 -0.00000000000E+00 -0.97040156078E+02  0.97153908268E+02  0.47000000000E+01 0. -1.
          6    1    1    2  502    0  0.19681941310E+02 -0.24554752745E+02  0.65897405449E+01  0.17497925413E+03  0.17200000000E+03 0. -1.
         -6    1    1    2    0  502 -0.19681941310E+02  0.24554752745E+02  0.57913947098E+03  0.60496019831E+03  0.17200000000E+03 0.  1.
</event>
<event>
 4    1 -0.6855026E-004  0.2104805E+03  0.7818608E-02  0.1141186E+00
          5   -1    0    0  501    0  0.00000000000E+00  0.00000000000E+00  0.20055591275E+03  0.20061097712E+03  0.47000000000E+01 0. -1.
         -5   -1    0    0    0  501 -0.00000000000E+00 -0.00000000000E+00 -0.84383146539E+03  0.84384455439E+03  0.47000000000E+01 0.  1.
          6    1    1    2  502    0 -0.29224436730E+02 -0.11774537587E+03  0.12707635331E+03  0.24586671351E+03  0.17200000000E+03 0. -1.
         -6    1    1    2    0  502  0.29224436730E+02  0.11774537587E+03 -0.77035190595E+03  0.79858881800E+03  0.17200000000E+03 0.  1.
</event>
<event>
 4    1 -0.6855026E-004  0.2284418E+03  0.7818608E-02  0.1127741E+00
          5   -1    0    0  501    0  0.00000000000E+00  0.00000000000E+00  0.58813300994E+03  0.58815178941E+03  0.47000000000E+01 0. -1.
         -5   -1    0    0    0  501 -0.00000000000E+00 -0.00000000000E+00 -0.10959219613E+03  0.10969293255E+03  0.47000000000E+01 0.  1.
          6    1    1    2  502    0 -0.10009884258E+03  0.11216892281E+03  0.39171240509E+03  0.45345810593E+03  0.17200000000E+03 0.  1.
         -6    1    1    2    0  502  0.10009884258E+03 -0.11216892281E+03  0.86828408722E+02  0.24438661603E+03  0.17200000000E+03 0.  1.
</event>
<event>
 4    1 -0.6855026E-004  0.2798100E+03  0.7818608E-02  0.1095793E+00
          5   -1    0    0  501    0  0.00000000000E+00  0.00000000000E+00  0.14695161571E+04  0.14695236731E+04  0.47000000000E+01 0. -1.
         -5   -1    0    0    0  501 -0.00000000000E+00 -0.00000000000E+00 -0.96639517154E+02  0.96753740371E+02  0.47000000000E+01 0.  1.
          6    1    1    2  502    0 -0.16241237750E+03  0.14943855022E+03  0.12112334725E+04  0.12431332132E+04  0.17200000000E+03 0. -1.
         -6    1    1    2    0  502  0.16241237750E+03 -0.14943855022E+03  0.16164316739E+03  0.32314420035E+03  0.17200000000E+03 0.  1.
</event>
<event>
 4    1 -0.6855026E-004  0.1883758E+03  0.7818608E-02  0.1159934E+00
          5   -1    0    0  501    0  0.00000000000E+00  0.00000000000E+00  0.36105151234E+03  0.36108210225E+03  0.47000000000E+01 0. -1.
         -5   -1    0    0    0  501 -0.00000000000E+00 -0.00000000000E+00 -0.20252243607E+03  0.20257696590E+03  0.47000000000E+01 0.  1.
          6    1    1    2  502    0 -0.75651977554E+02  0.13350160900E+02  0.28148812357E+03  0.33870490433E+03  0.17200000000E+03 0. -1.
         -6    1    1    2    0  502  0.75651977554E+02 -0.13350160900E+02 -0.12295904730E+03  0.22495416381E+03  0.17200000000E+03 0.  1.
</event>
<event>
 4    1 -0.6855026E-004  0.1815297E+03  0.7818608E-02  0.1166331E+00
          5   -1    0    0  501    0  0.00000000000E+00  0.00000000000E+00  0.47582394972E+03  0.47584716152E+03  0.47000000000E+01 0. -1.
         -5   -1    0    0    0  501 -0.00000000000E+00 -0.00000000000E+00 -0.21365386940E+03  0.21370555891E+03  0.47000000000E+01 0.  1.
          6    1    1    2  502    0  0.37941687265E+02  0.43925657207E+02  0.41454447923E+03  0.45254851701E+03  0.17200000000E+03 0. -1.
         -6    1    1    2    0  502 -0.37941687265E+02 -0.43925657207E+02 -0.15237439891E+03  0.23700420342E+03  0.17200000000E+03 0.  1.
</event>
<event>
 4    1 -0.6855026E-004  0.2352570E+03  0.7818608E-02  0.1122993E+00
         -5   -1    0    0    0  501 -0.00000000000E+00  0.00000000000E+00  0.97654341363E+03  0.97655472386E+03  0.47000000000E+01 0.  1.
          5   -1    0    0  501    0  0.00000000000E+00 -0.00000000000E+00 -0.58714273681E+02  0.58902087687E+02  0.47000000000E+01 0. -1.
          6    1    1    2  502    0 -0.15274892826E+02 -0.15977644957E+03  0.55777262315E+03  0.60535620532E+03  0.17200000000E+03 0. -1.
         -6    1    1    2    0  502  0.15274892826E+02  0.15977644957E+03  0.36005651680E+03  0.43010060623E+03  0.17200000000E+03 0.  1.
</event>
<event>
 4    1 -0.6855026E-004  0.5786326E+03  0.7818608E-02  0.9950756E-01
         -5   -1    0    0    0  501 -0.00000000000E+00  0.00000000000E+00  0.52089320419E+03  0.52091440772E+03  0.47000000000E+01 0.  1.
          5   -1    0    0  501    0  0.00000000000E+00 -0.00000000000E+00 -0.67184894663E+03  0.67186538614E+03  0.47000000000E+01 0. -1.
          6    1    1    2  502    0  0.33641764350E+02  0.55145259118E+03 -0.19963573426E+03  0.61210305915E+03  0.17200000000E+03 0. -1.
         -6    1    1    2    0  502 -0.33641764350E+02 -0.55145259118E+03  0.48679991815E+02  0.58067673471E+03  0.17200000000E+03 0.  1.
</event>
<event>
 4    1 -0.6855026E-004  0.1981677E+03  0.7818608E-02  0.1151294E+00
          5   -1    0    0  501    0  0.00000000000E+00  0.00000000000E+00  0.65355026779E+02  0.65523808842E+02  0.47000000000E+01 0. -1.
         -5   -1    0    0    0  501 -0.00000000000E+00 -0.00000000000E+00 -0.92284887318E+03  0.92286084147E+03  0.47000000000E+01 0.  1.
          6    1    1    2  502    0  0.66275279536E+02 -0.72759985188E+02 -0.13644134195E+03  0.24059648359E+03  0.17200000000E+03 0. -1.
         -6    1    1    2    0  502 -0.66275279536E+02  0.72759985188E+02 -0.72105250445E+03  0.74778816673E+03  0.17200000000E+03 0.  1.
</event>
<event>
 4    1 -0.6855026E-004  0.2565852E+03  0.7818608E-02  0.1109212E+00
         -5   -1    0    0    0  501 -0.00000000000E+00  0.00000000000E+00  0.71532471913E+03  0.71534015950E+03  0.47000000000E+01 0.  1.
          5   -1    0    0  501    0  0.00000000000E+00 -0.00000000000E+00 -0.27717265010E+03  0.27721249604E+03  0.47000000000E+01 0. -1.
          6    1    1    2  502    0  0.45545289459E+02 -0.18487183183E+03 -0.18653424111E+03  0.31722388104E+03  0.17200000000E+03 0. -1.
         -6    1    1    2    0  502 -0.45545289459E+02  0.18487183183E+03  0.62468631014E+03  0.67532877450E+03  0.17200000000E+03 0.  1.
</event>
<event>
 4    1 -0.6855026E-004  0.1860043E+03  0.7818608E-02  0.1162115E+00
         -5   -1    0    0    0  501 -0.00000000000E+00  0.00000000000E+00  0.72852007239E+02  0.73003458540E+02  0.47000000000E+01 0.  1.
          5   -1    0    0  501    0  0.00000000000E+00 -0.00000000000E+00 -0.84182544670E+03  0.84183856690E+03  0.47000000000E+01 0. -1.
          6    1    1    2  502    0 -0.51110464930E+02  0.49003323247E+02 -0.68671613674E+03  0.71146093200E+03  0.17200000000E+03 0. -1.
         -6    1    1    2    0  502  0.51110464930E+02 -0.49003323247E+02 -0.82257302730E+02  0.20338109344E+03  0.17200000000E+03 0.  1.
</event>
<event>
 4    1 -0.6855026E-004  0.2059780E+03  0.7818608E-02  0.1144791E+00
          5   -1    0    0  501    0  0.00000000000E+00  0.00000000000E+00  0.56002372140E+03  0.56004344344E+03  0.47000000000E+01 0. -1.
         -5   -1    0    0    0  501 -0.00000000000E+00 -0.00000000000E+00 -0.92324702714E+02  0.92444257427E+02  0.47000000000E+01 0.  1.
          6    1    1    2  502    0 -0.39550115618E+02 -0.10620125070E+03  0.37231978442E+03  0.42549845965E+03  0.17200000000E+03 0. -1.
         -6    1    1    2    0  502  0.39550115618E+02  0.10620125070E+03  0.95379234267E+02  0.22698924121E+03  0.17200000000E+03 0.  1.
</event>
<event>
 4    1 -0.6855026E-004  0.1735669E+03  0.7818608E-02  0.1174178E+00
          5   -1    0    0  501    0  0.00000000000E+00  0.00000000000E+00  0.23833391661E+04  0.23833438003E+04  0.47000000000E+01 0. -1.
         -5   -1    0    0    0  501 -0.00000000000E+00 -0.00000000000E+00 -0.19984339963E+03  0.19989866027E+03  0.47000000000E+01 0.  1.
          6    1    1    2  502    0 -0.41956567012E+01 -0.22888198476E+02  0.23418614974E+04  0.23482846391E+04  0.17200000000E+03 0. -1.
         -6    1    1    2    0  502  0.41956567012E+01  0.22888198476E+02 -0.15836573093E+03  0.23495782153E+03  0.17200000000E+03 0.  1.
</event>
<event>
 4    1 -0.6855026E-004  0.1819497E+03  0.7818608E-02  0.1165929E+00
         -5   -1    0    0    0  501 -0.00000000000E+00  0.00000000000E+00  0.19431036140E+03  0.19436719514E+03  0.47000000000E+01 0.  1.
          5   -1    0    0  501    0  0.00000000000E+00 -0.00000000000E+00 -0.34445889943E+03  0.34449096272E+03  0.47000000000E+01 0. -1.
          6    1    1    2  502    0 -0.54712131733E+02 -0.22984069067E+02 -0.26664568205E+03  0.32280892885E+03  0.17200000000E+03 0. -1.
         -6    1    1    2    0  502  0.54712131733E+02  0.22984069067E+02  0.11649714403E+03  0.21604922901E+03  0.17200000000E+03 0.  1.
</event>
<event>
 4    1 -0.6855026E-004  0.3172452E+03  0.7818608E-02  0.1076924E+00
         -5   -1    0    0    0  501 -0.00000000000E+00  0.00000000000E+00  0.31590839501E+03  0.31594335574E+03  0.47000000000E+01 0.  1.
          5   -1    0    0  501    0  0.00000000000E+00 -0.00000000000E+00 -0.14051501819E+04  0.14051580423E+04  0.47000000000E+01 0. -1.
          6    1    1    2  502    0  0.15590133558E+03 -0.21622973649E+03 -0.13013627035E+04  0.13394735575E+04  0.17200000000E+03 0. -1.
         -6    1    1    2    0  502 -0.15590133558E+03  0.21622973649E+03  0.21212091656E+03  0.38162784047E+03  0.17200000000E+03 0.  1.
</event>
<event>
 4    1 -0.6855026E-004  0.4147620E+03  0.7818608E-02  0.1038785E+00
          5   -1    0    0  501    0  0.00000000000E+00  0.00000000000E+00  0.34013116063E+03  0.34016363184E+03  0.47000000000E+01 0. -1.
         -5   -1    0    0    0  501 -0.00000000000E+00 -0.00000000000E+00 -0.59681099150E+03  0.59682949791E+03  0.47000000000E+01 0.  1.
          6    1    1    2  502    0  0.39440395581E+02 -0.37535042012E+03  0.54703007459E+02  0.41835379968E+03  0.17200000000E+03 0. -1.
         -6    1    1    2    0  502 -0.39440395581E+02  0.37535042012E+03 -0.31138283833E+03  0.51863933007E+03  0.17200000000E+03 0.  1.
</event>
<event>
 4    1 -0.6855026E-004  0.1730925E+03  0.7818608E-02  0.1174661E+00
          5   -1    0    0  501    0  0.00000000000E+00  0.00000000000E+00  0.14097859230E+03  0.14105691577E+03  0.47000000000E+01 0. -1.
         -5   -1    0    0    0  501 -0.00000000000E+00 -0.00000000000E+00 -0.46133586515E+03  0.46135980587E+03  0.47000000000E+01 0.  1.
          6    1    1    2  502    0 -0.17770759718E+02 -0.78247195015E+01  0.61071547341E+02  0.18355042912E+03  0.17200000000E+03 0. -1.
         -6    1    1    2    0  502  0.17770759718E+02  0.78247195015E+01 -0.38142882019E+03  0.41886629252E+03  0.17200000000E+03 0.  1.
</event>
<event>
 4    1 -0.6855026E-004  0.1813323E+03  0.7818608E-02  0.1166520E+00
         -5   -1    0    0    0  501 -0.00000000000E+00  0.00000000000E+00  0.12238863591E+03  0.12247884797E+03  0.47000000000E+01 0.  1.
          5   -1    0    0  501    0  0.00000000000E+00 -0.00000000000E+00 -0.61424857531E+03  0.61426655636E+03  0.47000000000E+01 0. -1.
          6    1    1    2  502    0 -0.26508157055E+02 -0.50938506543E+02 -0.52229430397E+03  0.55287679803E+03  0.17200000000E+03 0. -1.
         -6    1    1    2    0  502  0.26508157055E+02  0.50938506543E+02  0.30434364569E+02  0.18386860631E+03  0.17200000000E+03 0.  1.
</event>
<event>
 4    1 -0.6855026E-004  0.2439030E+03  0.7818608E-02  0.1117220E+00
         -5   -1    0    0    0  501 -0.00000000000E+00  0.00000000000E+00  0.21957198452E+03  0.21962228117E+03  0.47000000000E+01 0.  1.
          5   -1    0    0  501    0  0.00000000000E+00 -0.00000000000E+00 -0.55168628547E+03  0.55170630555E+03  0.47000000000E+01 0. -1.
          6    1    1    2  502    0  0.10009536366E+03 -0.14101627186E+03 -0.44121053518E+03  0.50413828173E+03  0.17200000000E+03 0. -1.
         -6    1    1    2    0  502 -0.10009536366E+03  0.14101627186E+03  0.10909623423E+03  0.26719030498E+03  0.17200000000E+03 0.  1.
</event>
<event>
 4    1 -0.6855026E-004  0.2400306E+03  0.7818608E-02  0.1119772E+00
         -5   -1    0    0    0  501 -0.00000000000E+00  0.00000000000E+00  0.51613039024E+03  0.51615178943E+03  0.47000000000E+01 0.  1.
          5   -1    0    0  501    0  0.00000000000E+00 -0.00000000000E+00 -0.14381328784E+03  0.14389006831E+03  0.47000000000E+01 0. -1.
          6    1    1    2  502    0 -0.13896395331E+03  0.93379336292E+02  0.29916474781E+02  0.24188773477E+03  0.17200000000E+03 0.  1.
         -6    1    1    2    0  502  0.13896395331E+03 -0.93379336292E+02  0.34240062762E+03  0.41815412297E+03  0.17200000000E+03 0.  1.
</event>
<event>
 4    1 -0.6855026E-004  0.2358355E+03  0.7818608E-02  0.1122599E+00
          5   -1    0    0  501    0  0.00000000000E+00  0.00000000000E+00  0.19736113693E+03  0.19741709239E+03  0.47000000000E+01 0. -1.
         -5   -1    0    0    0  501 -0.00000000000E+00 -0.00000000000E+00 -0.36919429729E+03  0.36922421258E+03  0.47000000000E+01 0.  1.
          6    1    1    2  502    0 -0.70654299445E+02 -0.14505984075E+03  0.51994915659E+02  0.24149918982E+03  0.17200000000E+03 0. -1.
         -6    1    1    2    0  502  0.70654299445E+02  0.14505984075E+03 -0.22382807602E+03  0.32514211515E+03  0.17200000000E+03 0.  1.
</event>
<event>
 4    1 -0.6855026E-004  0.2118850E+03  0.7818608E-02  0.1140082E+00
         -5   -1    0    0    0  501 -0.00000000000E+00  0.00000000000E+00  0.25728888818E+02  0.26154650061E+02  0.47000000000E+01 0.  1.
          5   -1    0    0  501    0  0.00000000000E+00 -0.00000000000E+00 -0.17800978120E+04  0.17801040167E+04  0.47000000000E+01 0. -1.
          6    1    1    2  502    0  0.87448677422E+01 -0.12342931377E+03 -0.10283901110E+04  0.10499911850E+04  0.17200000000E+03 0.  1.
         -6    1    1    2    0  502 -0.87448677422E+01  0.12342931377E+03 -0.72597881212E+03  0.75626748169E+03  0.17200000000E+03 0. -1.
</event>
<event>
 4    1 -0.6855026E-004  0.3106417E+03  0.7818608E-02  0.1080039E+00
          5   -1    0    0  501    0  0.00000000000E+00  0.00000000000E+00  0.35692424215E+03  0.35695518575E+03  0.47000000000E+01 0. -1.
         -5   -1    0    0    0  501 -0.00000000000E+00 -0.00000000000E+00 -0.69972702357E+03  0.69974280812E+03  0.47000000000E+01 0.  1.
          6    1    1    2  502    0 -0.23960219590E+03  0.97493820791E+02  0.24248782531E+03  0.39407943716E+03  0.17200000000E+03 0. -1.
         -6    1    1    2    0  502  0.23960219590E+03 -0.97493820791E+02 -0.58529060673E+03  0.66261855671E+03  0.17200000000E+03 0.  1.
</event>
<event>
 4    1 -0.6855026E-004  0.2555663E+03  0.7818608E-02  0.1109837E+00
          5   -1    0    0  501    0  0.00000000000E+00  0.00000000000E+00  0.17649565250E+04  0.17649627830E+04  0.47000000000E+01 0. -1.
         -5   -1    0    0    0  501 -0.00000000000E+00 -0.00000000000E+00 -0.37231988503E+02  0.37527469511E+02  0.47000000000E+01 0.  1.
          6    1    1    2  502    0 -0.15449929471E+03  0.10890407241E+03  0.95472014728E+03  0.98833430006E+03  0.17200000000E+03 0.  1.
         -6    1    1    2    0  502  0.15449929471E+03 -0.10890407241E+03  0.77300438924E+03  0.81415595241E+03  0.17200000000E+03 0.  1.
</event>
<event>
 4    1 -0.6855026E-004  0.1918974E+03  0.7818608E-02  0.1156761E+00
         -5   -1    0    0    0  501 -0.00000000000E+00  0.00000000000E+00  0.76779002235E+02  0.76922722158E+02  0.47000000000E+01 0.  1.
          5   -1    0    0  501    0  0.00000000000E+00 -0.00000000000E+00 -0.71043489305E+03  0.71045043970E+03  0.47000000000E+01 0. -1.
          6    1    1    2  502    0 -0.83413956999E+02 -0.16814960470E+02 -0.54149489374E+03  0.57449225501E+03  0.17200000000E+03 0. -1.
         -6    1    1    2    0  502  0.83413956999E+02  0.16814960470E+02 -0.92160997076E+02  0.21288090685E+03  0.17200000000E+03 0.  1.
</event>
<event>
 4    1 -0.6855026E-004  0.2359413E+03  0.7818608E-02  0.1122527E+00
          5   -1    0    0  501    0  0.00000000000E+00  0.00000000000E+00  0.15472245918E+04  0.15472317304E+04  0.47000000000E+01 0. -1.
         -5   -1    0    0    0  501 -0.00000000000E+00 -0.00000000000E+00 -0.11345506198E+03  0.11355237156E+03  0.47000000000E+01 0.  1.
          6    1    1    2  502    0  0.15699145612E+03 -0.37920816071E+02  0.14031682013E+04  0.14228665808E+04  0.17200000000E+03 0. -1.
         -6    1    1    2    0  502 -0.15699145612E+03  0.37920816071E+02  0.30601328587E+02  0.23791752121E+03  0.17200000000E+03 0.  1.
</event>
<event>
 4    1 -0.6855026E-004  0.1860704E+03  0.7818608E-02  0.1162054E+00
         -5   -1    0    0    0  501 -0.00000000000E+00  0.00000000000E+00  0.12907591235E+04  0.12907676805E+04  0.47000000000E+01 0.  1.
          5   -1    0    0  501    0  0.00000000000E+00 -0.00000000000E+00 -0.31330081337E+02  0.31680656505E+02  0.47000000000E+01 0. -1.
          6    1    1    2  502    0  0.50513570198E+02 -0.49865406449E+02  0.37460562931E+03  0.41827210885E+03  0.17200000000E+03 0. -1.
         -6    1    1    2    0  502 -0.50513570198E+02  0.49865406449E+02  0.88482341285E+03  0.90417622810E+03  0.17200000000E+03 0.  1.
</event>
<event>
 4    1 -0.6855026E-004  0.2653561E+03  0.7818608E-02  0.1103967E+00
          5   -1    0    0  501    0  0.00000000000E+00  0.00000000000E+00  0.78246639576E+02  0.78387668704E+02  0.47000000000E+01 0. -1.
         -5   -1    0    0    0  501 -0.00000000000E+00 -0.00000000000E+00 -0.89948771572E+03  0.89949999485E+03  0.47000000000E+01 0.  1.
          6    1    1    2  502    0  0.42760259084E+02 -0.19748771044E+03 -0.42270079350E+03  0.49908896637E+03  0.17200000000E+03 0. -1.
         -6    1    1    2    0  502 -0.42760259084E+02  0.19748771044E+03 -0.39854028265E+03  0.47879869718E+03  0.17200000000E+03 0.  1.
</event>
<event>
 4    1 -0.6855026E-004  0.2064156E+03  0.7818608E-02  0.1144436E+00
         -5   -1    0    0    0  501 -0.00000000000E+00  0.00000000000E+00  0.55951045302E+03  0.55953019315E+03  0.47000000000E+01 0.  1.
          5   -1    0    0  501    0  0.00000000000E+00 -0.00000000000E+00 -0.16544063673E+03  0.16550738437E+03  0.47000000000E+01 0. -1.
          6    1    1    2  502    0 -0.93354962609E+02 -0.65637190649E+02 -0.69327033015E+02  0.21774670456E+03  0.17200000000E+03 0. -1.
         -6    1    1    2    0  502  0.93354962609E+02  0.65637190649E+02  0.46339684931E+03  0.50729087296E+03  0.17200000000E+03 0.  1.
</event>
<event>
 4    1 -0.6855026E-004  0.4509785E+03  0.7818608E-02  0.1027431E+00
         -5   -1    0    0    0  501 -0.00000000000E+00  0.00000000000E+00  0.46884897039E+03  0.46887252749E+03  0.47000000000E+01 0.  1.
          5   -1    0    0  501    0  0.00000000000E+00 -0.00000000000E+00 -0.12614385097E+04  0.12614472656E+04  0.47000000000E+01 0. -1.
          6    1    1    2  502    0  0.41508775023E+03  0.38727071917E+02 -0.10970912172E+04  0.11861664155E+04  0.17200000000E+03 0. -1.
         -6    1    1    2    0  502 -0.41508775023E+03 -0.38727071917E+02  0.30450167784E+03  0.54415337755E+03  0.17200000000E+03 0.  1.
</event>
<event>
 4    1 -0.6855026E-004  0.1727242E+03  0.7818608E-02  0.1175036E+00
         -5   -1    0    0    0  501 -0.00000000000E+00  0.00000000000E+00  0.43963055293E+02  0.44213575186E+02  0.47000000000E+01 0.  1.
          5   -1    0    0  501    0  0.00000000000E+00 -0.00000000000E+00 -0.81959260228E+03  0.81960607838E+03  0.47000000000E+01 0. -1.
          6    1    1    2  502    0 -0.55539427034E+01  0.14791920552E+02 -0.56830467774E+03  0.59397294040E+03  0.17200000000E+03 0. -1.
         -6    1    1    2    0  502  0.55539427034E+01 -0.14791920552E+02 -0.20732486925E+03  0.26984671316E+03  0.17200000000E+03 0.  1.
</event>
<event>
 4    1 -0.6855026E-004  0.2477851E+03  0.7818608E-02  0.1114713E+00
          5   -1    0    0  501    0  0.00000000000E+00  0.00000000000E+00  0.10238963724E+03  0.10249745272E+03  0.47000000000E+01 0. -1.
         -5   -1    0    0    0  501 -0.00000000000E+00 -0.00000000000E+00 -0.20379726413E+04  0.20379780609E+04  0.47000000000E+01 0.  1.
          6    1    1    2  502    0 -0.12122455676E+03 -0.13083603618E+03 -0.68578650221E+02  0.25710016101E+03  0.17200000000E+03 0. -1.
         -6    1    1    2    0  502  0.12122455676E+03  0.13083603618E+03 -0.18670043538E+04  0.18833753526E+04  0.17200000000E+03 0.  1.
</event>
<event>
 4    1 -0.6855026E-004  0.1910738E+03  0.7818608E-02  0.1157496E+00
          5   -1    0    0  501    0  0.00000000000E+00  0.00000000000E+00  0.46048538687E+03  0.46050937181E+03  0.47000000000E+01 0. -1.
         -5   -1    0    0    0  501 -0.00000000000E+00 -0.00000000000E+00 -0.17976744222E+03  0.17982887221E+03  0.47000000000E+01 0.  1.
          6    1    1    2  502    0  0.81099383155E+02 -0.18656771279E+02  0.37976079938E+03  0.42512051210E+03  0.17200000000E+03 0. -1.
         -6    1    1    2    0  502 -0.81099383155E+02  0.18656771279E+02 -0.99042854723E+02  0.21521773192E+03  0.17200000000E+03 0.  1.
</event>
<event>
 4    1 -0.6855026E-004  0.1845686E+03  0.7818608E-02  0.1163453E+00
         -5   -1    0    0    0  501 -0.00000000000E+00  0.00000000000E+00  0.62238656713E+02  0.62415866487E+02  0.47000000000E+01 0.  1.
          5   -1    0    0  501    0  0.00000000000E+00 -0.00000000000E+00 -0.93531347657E+03  0.93532528537E+03  0.47000000000E+01 0. -1.
          6    1    1    2  502    0 -0.63117281381E+02  0.22311288810E+02 -0.75820419502E+03  0.78034555561E+03  0.17200000000E+03 0. -1.
         -6    1    1    2    0  502  0.63117281381E+02 -0.22311288810E+02 -0.11487062484E+03  0.21739559625E+03  0.17200000000E+03 0.  1.
</event>
<event>
 4    1 -0.6855026E-004  0.2475606E+03  0.7818608E-02  0.1114856E+00
         -5   -1    0    0    0  501 -0.00000000000E+00  0.00000000000E+00  0.14055206145E+04  0.14055284728E+04  0.47000000000E+01 0.  1.
          5   -1    0    0  501    0  0.00000000000E+00 -0.00000000000E+00 -0.27826752559E+03  0.27830721478E+03  0.47000000000E+01 0. -1.
          6    1    1    2  502    0  0.68956576439E+02  0.16415617173E+03 -0.20952640548E+03  0.32432633680E+03  0.17200000000E+03 0. -1.
         -6    1    1    2    0  502 -0.68956576439E+02 -0.16415617173E+03  0.13367794944E+04  0.13595093508E+04  0.17200000000E+03 0.  1.
</event>
<event>
 4    1 -0.6855026E-004  0.2759808E+03  0.7818608E-02  0.1097905E+00
          5   -1    0    0  501    0  0.00000000000E+00  0.00000000000E+00  0.69198309531E+03  0.69199905649E+03  0.47000000000E+01 0. -1.
         -5   -1    0    0    0  501 -0.00000000000E+00 -0.00000000000E+00 -0.20672778463E+03  0.20678120548E+03  0.47000000000E+01 0.  1.
          6    1    1    2  502    0 -0.70960440514E+02 -0.20382840517E+03  0.54995430228E+03  0.61531710318E+03  0.17200000000E+03 0. -1.
         -6    1    1    2    0  502  0.70960440514E+02  0.20382840517E+03 -0.64698991605E+02  0.28346315879E+03  0.17200000000E+03 0.  1.
</event>
<event>
 4    1 -0.6855026E-004  0.2464994E+03  0.7818608E-02  0.1115537E+00
          5   -1    0    0  501    0  0.00000000000E+00  0.00000000000E+00  0.19768009850E+03  0.19773596371E+03  0.47000000000E+01 0. -1.
         -5   -1    0    0    0  501 -0.00000000000E+00 -0.00000000000E+00 -0.43434757717E+03  0.43437300537E+03  0.47000000000E+01 0.  1.
          6    1    1    2  502    0 -0.16575174756E+03 -0.60863062665E+02  0.52610754102E+02  0.25205127586E+03  0.17200000000E+03 0.  1.
         -6    1    1    2    0  502  0.16575174756E+03  0.60863062665E+02 -0.28927823276E+03  0.38005769321E+03  0.17200000000E+03 0.  1.
</event>
<event>
 4    1 -0.6855026E-004  0.1757790E+03  0.7818608E-02  0.1171952E+00
         -5   -1    0    0    0  501 -0.00000000000E+00  0.00000000000E+00  0.55132950691E+03  0.55134953994E+03  0.47000000000E+01 0.  1.
          5   -1    0    0  501    0  0.00000000000E+00 -0.00000000000E+00 -0.11174263017E+03  0.11184142970E+03  0.47000000000E+01 0. -1.
          6    1    1    2  502    0 -0.29045277357E+02 -0.21693916074E+02 -0.14394352637E+02  0.17636737657E+03  0.17200000000E+03 0. -1.
         -6    1    1    2    0  502  0.29045277357E+02  0.21693916074E+02  0.45398122938E+03  0.48682359307E+03  0.17200000000E+03 0.  1.
</event>
<event>
 4    1 -0.6855026E-004  0.1724572E+03  0.7818608E-02  0.1175309E+00
          5   -1    0    0  501    0  0.00000000000E+00  0.00000000000E+00  0.68781711215E+02  0.68942104680E+02  0.47000000000E+01 0. -1.
         -5   -1    0    0    0  501 -0.00000000000E+00 -0.00000000000E+00 -0.10199960948E+04  0.10200069232E+04  0.47000000000E+01 0.  1.
          6    1    1    2  502    0 -0.12128108930E+02 -0.32242475459E+01 -0.62152224635E+02  0.18331499073E+03  0.17200000000E+03 0. -1.
         -6    1    1    2    0  502  0.12128108930E+02  0.32242475459E+01 -0.88906215890E+03  0.90563403712E+03  0.17200000000E+03 0.  1.
</event>
<event>
 4    1 -0.6855026E-004  0.1929431E+03  0.7818608E-02  0.1155833E+00
         -5   -1    0    0    0  501 -0.00000000000E+00  0.00000000000E+00  0.40501482024E+02  0.40773276127E+02  0.47000000000E+01 0.  1.
          5   -1    0    0  501    0  0.00000000000E+00 -0.00000000000E+00 -0.20145806450E+04  0.20145861275E+04  0.47000000000E+01 0. -1.
          6    1    1    2  502    0 -0.87424309164E+02  0.18551600817E+00 -0.17459499832E+04  0.17565786029E+04  0.17200000000E+03 0. -1.
         -6    1    1    2    0  502  0.87424309164E+02 -0.18551600817E+00 -0.22812917980E+03  0.29878080080E+03  0.17200000000E+03 0.  1.
</event>
<event>
 4    1 -0.6855026E-004  0.1753989E+03  0.7818608E-02  0.1172332E+00
          5   -1    0    0  501    0  0.00000000000E+00  0.00000000000E+00  0.12265220377E+03  0.12274222211E+03  0.47000000000E+01 0. -1.
         -5   -1    0    0    0  501 -0.00000000000E+00 -0.00000000000E+00 -0.47075267160E+03  0.47077613344E+03  0.47000000000E+01 0.  1.
          6    1    1    2  502    0 -0.15692754759E+01  0.34326456159E+02  0.28852427859E+02  0.17775609922E+03  0.17200000000E+03 0. -1.
         -6    1    1    2    0  502  0.15692754759E+01 -0.34326456159E+02 -0.37695289569E+03  0.41576225633E+03  0.17200000000E+03 0.  1.
</event>
<event>
 4    1 -0.6855026E-004  0.1829456E+03  0.7818608E-02  0.1164982E+00
         -5   -1    0    0    0  501 -0.00000000000E+00  0.00000000000E+00  0.33031810099E+03  0.33035153676E+03  0.47000000000E+01 0.  1.
          5   -1    0    0  501    0  0.00000000000E+00 -0.00000000000E+00 -0.14337125837E+03  0.14344827544E+03  0.47000000000E+01 0. -1.
          6    1    1    2  502    0 -0.36517853855E+02 -0.50512617824E+02 -0.34905155021E+02  0.18624566587E+03  0.17200000000E+03 0. -1.
         -6    1    1    2    0  502  0.36517853855E+02  0.50512617824E+02  0.22185199765E+03  0.28755414633E+03  0.17200000000E+03 0.  1.
</event>
<event>
 4    1 -0.6855026E-004  0.1748927E+03  0.7818608E-02  0.1172840E+00
          5   -1    0    0  501    0  0.00000000000E+00  0.00000000000E+00  0.17114433983E+04  0.17114498519E+04  0.47000000000E+01 0. -1.
         -5   -1    0    0    0  501 -0.00000000000E+00 -0.00000000000E+00 -0.49623793125E+02  0.49845870883E+02  0.47000000000E+01 0.  1.
          6    1    1    2  502    0  0.22388720593E+01  0.31598001571E+02  0.15358107053E+04  0.15457367074E+04  0.17200000000E+03 0. -1.
         -6    1    1    2    0  502 -0.22388720593E+01 -0.31598001571E+02  0.12600889991E+03  0.21555901537E+03  0.17200000000E+03 0.  1.
</event>
<event>
 4    1 -0.6855026E-004  0.1793457E+03  0.7818608E-02  0.1168438E+00
          5   -1    0    0  501    0  0.00000000000E+00  0.00000000000E+00  0.53232058211E+03  0.53234133048E+03  0.47000000000E+01 0. -1.
         -5   -1    0    0    0  501 -0.00000000000E+00 -0.00000000000E+00 -0.10397486615E+03  0.10408103954E+03  0.47000000000E+01 0.  1.
          6    1    1    2  502    0  0.29450341133E+02 -0.41395188378E+02  0.42022148126E+03  0.45689274182E+03  0.17200000000E+03 0. -1.
         -6    1    1    2    0  502 -0.29450341133E+02  0.41395188378E+02  0.81242347054E+01  0.17952962820E+03  0.17200000000E+03 0.  1.
</event>
<event>
 4    1 -0.6855026E-004  0.1860727E+03  0.7818608E-02  0.1162052E+00
          5   -1    0    0  501    0  0.00000000000E+00  0.00000000000E+00  0.56008672467E+02  0.56205528123E+02  0.47000000000E+01 0. -1.
         -5   -1    0    0    0  501 -0.00000000000E+00 -0.00000000000E+00 -0.14356496912E+04  0.14356573845E+04  0.47000000000E+01 0.  1.
          6    1    1    2  502    0  0.21830404537E+02 -0.67546236519E+02 -0.12654214479E+03  0.22502438765E+03  0.17200000000E+03 0. -1.
         -6    1    1    2    0  502 -0.21830404537E+02  0.67546236519E+02 -0.12530988739E+04  0.12668385250E+04  0.17200000000E+03 0.  1.
</event>
<event>
 4    1 -0.6855026E-004  0.1965277E+03  0.7818608E-02  0.1152702E+00
          5   -1    0    0  501    0  0.00000000000E+00  0.00000000000E+00  0.23355399200E+04  0.23355446491E+04  0.47000000000E+01 0. -1.
         -5   -1    0    0    0  501 -0.00000000000E+00 -0.00000000000E+00 -0.19167161864E+03  0.19172923458E+03  0.47000000000E+01 0.  1.
          6    1    1    2  502    0  0.39514113527E+01 -0.94992212825E+02  0.22798393538E+04  0.22882942585E+04  0.17200000000E+03 0. -1.
         -6    1    1    2    0  502 -0.39514113527E+01  0.94992212825E+02 -0.13597105247E+03  0.23897962520E+03  0.17200000000E+03 0.  1.
</event>
<event>
 4    1 -0.6855026E-004  0.2161362E+03  0.7818608E-02  0.1136797E+00
         -5   -1    0    0    0  501 -0.00000000000E+00  0.00000000000E+00  0.67542490963E+03  0.67544126210E+03  0.47000000000E+01 0.  1.
          5   -1    0    0  501    0  0.00000000000E+00 -0.00000000000E+00 -0.10987631202E+03  0.10997678820E+03  0.47000000000E+01 0. -1.
          6    1    1    2  502    0  0.90362816954E+02  0.94686004371E+02  0.43601839861E+02  0.22049035932E+03  0.17200000000E+03 0. -1.
         -6    1    1    2    0  502 -0.90362816954E+02 -0.94686004371E+02  0.52194675775E+03  0.56492769098E+03  0.17200000000E+03 0.  1.
</event>
<event>
 4    1 -0.6855026E-004  0.1845102E+03  0.7818608E-02  0.1163508E+00
         -5   -1    0    0    0  501 -0.00000000000E+00  0.00000000000E+00  0.98036107589E+03  0.98037234208E+03  0.47000000000E+01 0.  1.
          5   -1    0    0  501    0  0.00000000000E+00 -0.00000000000E+00 -0.28845320806E+03  0.28849149596E+03  0.47000000000E+01 0. -1.
          6    1    1    2  502    0 -0.60482552071E+02  0.28317257568E+02 -0.24906964102E+03  0.30996724385E+03  0.17200000000E+03 0. -1.
         -6    1    1    2    0  502  0.60482552071E+02 -0.28317257568E+02  0.94097750885E+03  0.95889659419E+03  0.17200000000E+03 0.  1.
</event>
<event>
 4    1 -0.6855026E-004  0.3540428E+03  0.7818608E-02  0.1060968E+00
         -5   -1    0    0    0  501 -0.00000000000E+00  0.00000000000E+00  0.20850870542E+04  0.20850923514E+04  0.47000000000E+01 0.  1.
          5   -1    0    0  501    0  0.00000000000E+00 -0.00000000000E+00 -0.42802559541E+03  0.42805139917E+03  0.47000000000E+01 0. -1.
          6    1    1    2  502    0  0.29758949409E+03  0.84869168653E+02 -0.33646626647E+03  0.48842177598E+03  0.17200000000E+03 0. -1.
         -6    1    1    2    0  502 -0.29758949409E+03 -0.84869168653E+02  0.19935277253E+04  0.20247219746E+04  0.17200000000E+03 0.  1.
</event>
<event>
 4    1 -0.6855026E-004  0.2277811E+03  0.7818608E-02  0.1128211E+00
         -5   -1    0    0    0  501 -0.00000000000E+00  0.00000000000E+00  0.25665932543E+03  0.25670235553E+03  0.47000000000E+01 0.  1.
          5   -1    0    0  501    0  0.00000000000E+00 -0.00000000000E+00 -0.11023847733E+04  0.11023947924E+04  0.47000000000E+01 0. -1.
          6    1    1    2  502    0 -0.77842748146E+02 -0.12743921828E+03 -0.10369604303E+04  0.10616831834E+04  0.17200000000E+03 0. -1.
         -6    1    1    2    0  502  0.77842748146E+02  0.12743921828E+03  0.19123498249E+03  0.29741396457E+03  0.17200000000E+03 0.  1.
</event>
<event>
 4    1 -0.6855026E-004  0.1725022E+03  0.7818608E-02  0.1175263E+00
         -5   -1    0    0    0  501 -0.00000000000E+00  0.00000000000E+00  0.20117462622E+03  0.20122952129E+03  0.47000000000E+01 0.  1.
          5   -1    0    0  501    0  0.00000000000E+00 -0.00000000000E+00 -0.61282526295E+03  0.61284328576E+03  0.47000000000E+01 0. -1.
          6    1    1    2  502    0 -0.84991511481E+01 -0.10038078871E+02 -0.56036555231E+03  0.58631608439E+03  0.17200000000E+03 0. -1.
         -6    1    1    2    0  502  0.84991511481E+01  0.10038078871E+02  0.14871491559E+03  0.22775672266E+03  0.17200000000E+03 0.  1.
</event>
<event>
 4    1 -0.6855026E-004  0.4299158E+03  0.7818608E-02  0.1033887E+00
         -5   -1    0    0    0  501 -0.00000000000E+00  0.00000000000E+00  0.21098031013E+03  0.21103265450E+03  0.47000000000E+01 0.  1.
          5   -1    0    0  501    0  0.00000000000E+00 -0.00000000000E+00 -0.11639229373E+04  0.11639324267E+04  0.47000000000E+01 0. -1.
          6    1    1    2  502    0 -0.29663063788E+03  0.25933342888E+03 -0.81846692295E+03  0.92450833778E+03  0.17200000000E+03 0. -1.
         -6    1    1    2    0  502  0.29663063788E+03 -0.25933342888E+03 -0.13447570419E+03  0.45045674341E+03  0.17200000000E+03 0.  1.
</event>
<event>
 4    1 -0.6855026E-004  0.2161395E+03  0.7818608E-02  0.1136794E+00
         -5   -1    0    0    0  501 -0.00000000000E+00  0.00000000000E+00  0.79084381154E+03  0.79085777752E+03  0.47000000000E+01 0.  1.
          5   -1    0    0  501    0  0.00000000000E+00 -0.00000000000E+00 -0.15573337742E+03  0.15580428377E+03  0.47000000000E+01 0. -1.
          6    1    1    2  502    0 -0.12791098920E+03  0.27768108495E+02 -0.55390067301E+02  0.22312406541E+03  0.17200000000E+03 0. -1.
         -6    1    1    2    0  502  0.12791098920E+03 -0.27768108495E+02  0.69050050143E+03  0.72353799588E+03  0.17200000000E+03 0.  1.
</event>
<event>
 4    1 -0.6855026E-004  0.2271776E+03  0.7818608E-02  0.1128642E+00
         -5   -1    0    0    0  501 -0.00000000000E+00  0.00000000000E+00  0.29828177300E+03  0.29831879944E+03  0.47000000000E+01 0.  1.
          5   -1    0    0  501    0  0.00000000000E+00 -0.00000000000E+00 -0.17579656369E+03  0.17585938077E+03  0.47000000000E+01 0. -1.
          6    1    1    2  502    0  0.39960610781E+02  0.14292940203E+03  0.31047378913E+02  0.22928934584E+03  0.17200000000E+03 0. -1.
         -6    1    1    2    0  502 -0.39960610781E+02 -0.14292940203E+03  0.91437830389E+02  0.24488883438E+03  0.17200000000E+03 0. -1.
</event>
<event>
 4    1 -0.6855026E-004  0.2310805E+03  0.7818608E-02  0.1125882E+00
         -5   -1    0    0    0  501 -0.00000000000E+00  0.00000000000E+00  0.43113694093E+03  0.43116255848E+03  0.47000000000E+01 0.  1.
          5   -1    0    0  501    0  0.00000000000E+00 -0.00000000000E+00 -0.36414963203E+03  0.36417996171E+03  0.47000000000E+01 0. -1.
          6    1    1    2  502    0  0.21229362315E+02 -0.15285133448E+03 -0.28955853062E+03  0.37046235832E+03  0.17200000000E+03 0. -1.
         -6    1    1    2    0  502 -0.21229362315E+02  0.15285133448E+03  0.35654583952E+03  0.42488016188E+03  0.17200000000E+03 0.  1.
</event>
<event>
 4    1 -0.6855026E-004  0.1904619E+03  0.7818608E-02  0.1158045E+00
          5   -1    0    0  501    0  0.00000000000E+00  0.00000000000E+00  0.22487522431E+03  0.22492433508E+03  0.47000000000E+01 0. -1.
         -5   -1    0    0    0  501 -0.00000000000E+00 -0.00000000000E+00 -0.82847322325E+03  0.82848655489E+03  0.47000000000E+01 0.  1.
          6    1    1    2  502    0 -0.73318333129E+02  0.36278861954E+02  0.17086472981E+03  0.25587201818E+03  0.17200000000E+03 0. -1.
         -6    1    1    2    0  502  0.73318333129E+02 -0.36278861954E+02 -0.77446272874E+03  0.79753887178E+03  0.17200000000E+03 0.  1.
</event>
<event>
 4    1 -0.6855026E-004  0.4518917E+03  0.7818608E-02  0.1027159E+00
          5   -1    0    0  501    0  0.00000000000E+00  0.00000000000E+00  0.29346418030E+03  0.29350181450E+03  0.47000000000E+01 0. -1.
         -5   -1    0    0    0  501 -0.00000000000E+00 -0.00000000000E+00 -0.90370078998E+03  0.90371301187E+03  0.47000000000E+01 0.  1.
          6    1    1    2  502    0  0.32651196604E+03 -0.26079127235E+03 -0.17980366552E+02  0.45224931762E+03  0.17200000000E+03 0. -1.
         -6    1    1    2    0  502 -0.32651196604E+03  0.26079127235E+03 -0.59225624314E+03  0.74496550876E+03  0.17200000000E+03 0.  1.
</event>
<event>
 4    1 -0.6855026E-004  0.2998968E+03  0.7818608E-02  0.1085292E+00
          5   -1    0    0  501    0  0.00000000000E+00  0.00000000000E+00  0.20462201199E+03  0.20467598245E+03  0.47000000000E+01 0. -1.
         -5   -1    0    0    0  501 -0.00000000000E+00 -0.00000000000E+00 -0.89364418163E+03  0.89365654105E+03  0.47000000000E+01 0.  1.
          6    1    1    2  502    0  0.24556130194E+03  0.73321376025E+01  0.47000408548E+02  0.30355749316E+03  0.17200000000E+03 0. -1.
         -6    1    1    2    0  502 -0.24556130194E+03 -0.73321376025E+01 -0.73602257818E+03  0.79477503034E+03  0.17200000000E+03 0.  1.
</event>
<event>
 4    1 -0.6855026E-004  0.1774791E+03  0.7818608E-02  0.1170265E+00
          5   -1    0    0  501    0  0.00000000000E+00  0.00000000000E+00  0.30328163574E+03  0.30331805185E+03  0.47000000000E+01 0. -1.
         -5   -1    0    0    0  501 -0.00000000000E+00 -0.00000000000E+00 -0.23528643923E+03  0.23533337733E+03  0.47000000000E+01 0.  1.
          6    1    1    2  502    0 -0.43687831448E+02 -0.24935836297E+01  0.23531189841E+03  0.29473807713E+03  0.17200000000E+03 0. -1.
         -6    1    1    2    0  502  0.43687831448E+02  0.24935836297E+01 -0.16731670190E+03  0.24391335205E+03  0.17200000000E+03 0.  1.
</event>
<event>
 4    1 -0.6855026E-004  0.1738822E+03  0.7818608E-02  0.1173859E+00
         -5   -1    0    0    0  501 -0.00000000000E+00  0.00000000000E+00  0.28786384725E+02  0.29167549529E+02  0.47000000000E+01 0.  1.
          5   -1    0    0  501    0  0.00000000000E+00 -0.00000000000E+00 -0.14315785850E+04  0.14315863002E+04  0.47000000000E+01 0. -1.
          6    1    1    2  502    0  0.24725761620E+02  0.62967149219E+01 -0.10818513262E+04  0.10957359645E+04  0.17200000000E+03 0. -1.
         -6    1    1    2    0  502 -0.24725761620E+02 -0.62967149219E+01 -0.32094087403E+03  0.36501788521E+03  0.17200000000E+03 0.  1.
</event>
<event>
 4    1 -0.6855026E-004  0.1855753E+03  0.7818608E-02  0.1162514E+00
         -5   -1    0    0    0  501 -0.00000000000E+00  0.00000000000E+00  0.52116644030E+03  0.52118763272E+03  0.47000000000E+01 0.  1.
          5   -1    0    0  501    0  0.00000000000E+00 -0.00000000000E+00 -0.73589449681E+02  0.73739386384E+02  0.47000000000E+01 0. -1.
          6    1    1    2  502    0  0.35833516219E+02  0.59750599815E+02  0.12820666280E+03  0.22555514503E+03  0.17200000000E+03 0. -1.
         -6    1    1    2    0  502 -0.35833516219E+02 -0.59750599815E+02  0.31937032782E+03  0.36937187407E+03  0.17200000000E+03 0.  1.
</event>
<event>
 4    1 -0.6855026E-004  0.1762561E+03  0.7818608E-02  0.1171476E+00
          5   -1    0    0  501    0  0.00000000000E+00  0.00000000000E+00  0.89805648766E+02  0.89928552475E+02  0.47000000000E+01 0. -1.
         -5   -1    0    0    0  501 -0.00000000000E+00 -0.00000000000E+00 -0.13834174969E+04  0.13834254808E+04  0.47000000000E+01 0.  1.
          6    1    1    2  502    0 -0.26333738089E+02 -0.28084838294E+02 -0.87648580400E+01  0.17647392623E+03  0.17200000000E+03 0. -1.
         -6    1    1    2    0  502  0.26333738089E+02  0.28084838294E+02 -0.12848469901E+04  0.12968801070E+04  0.17200000000E+03 0.  1.
</event>
<event>
 4    1 -0.6855026E-004  0.2500137E+03  0.7818608E-02  0.1113296E+00
          5   -1    0    0  501    0  0.00000000000E+00  0.00000000000E+00  0.26511921343E+03  0.26516087066E+03  0.47000000000E+01 0. -1.
         -5   -1    0    0    0  501 -0.00000000000E+00 -0.00000000000E+00 -0.76596113443E+03  0.76597555409E+03  0.47000000000E+01 0.  1.
          6    1    1    2  502    0 -0.10520691964E+03 -0.14783216521E+03  0.17853551030E+03  0.30721616729E+03  0.17200000000E+03 0. -1.
         -6    1    1    2    0  502  0.10520691964E+03  0.14783216521E+03 -0.67937743129E+03  0.72392025746E+03  0.17200000000E+03 0.  1.
</event>
<event>
 4    1 -0.6855026E-004  0.2073313E+03  0.7818608E-02  0.1143697E+00
         -5   -1    0    0    0  501 -0.00000000000E+00  0.00000000000E+00  0.58103314125E+03  0.58105215018E+03  0.47000000000E+01 0.  1.
          5   -1    0    0  501    0  0.00000000000E+00 -0.00000000000E+00 -0.16030871069E+03  0.16037759421E+03  0.47000000000E+01 0. -1.
          6    1    1    2  502    0 -0.11554883797E+03  0.71232731808E+01 -0.61718581537E+02  0.21632257923E+03  0.17200000000E+03 0. -1.
         -6    1    1    2    0  502  0.11554883797E+03 -0.71232731808E+01  0.48244301210E+03  0.52510716516E+03  0.17200000000E+03 0.  1.
</event>
<event>
 4    1 -0.6855026E-004  0.1747530E+03  0.7818608E-02  0.1172980E+00
          5   -1    0    0  501    0  0.00000000000E+00  0.00000000000E+00  0.26899852170E+03  0.26903957828E+03  0.47000000000E+01 0. -1.
         -5   -1    0    0    0  501 -0.00000000000E+00 -0.00000000000E+00 -0.57125643142E+03  0.57127576566E+03  0.47000000000E+01 0.  1.
          6    1    1    2  502    0 -0.17042602985E+02 -0.25771151410E+02  0.22497685631E+03  0.28487398694E+03  0.17200000000E+03 0. -1.
         -6    1    1    2    0  502  0.17042602985E+02  0.25771151410E+02 -0.52723476602E+03  0.55544135700E+03  0.17200000000E+03 0.  1.
</event>
<event>
 4    1 -0.6855026E-004  0.2091314E+03  0.7818608E-02  0.1142256E+00
         -5   -1    0    0    0  501 -0.00000000000E+00  0.00000000000E+00  0.60146442642E+02  0.60329798296E+02  0.47000000000E+01 0.  1.
          5   -1    0    0  501    0  0.00000000000E+00 -0.00000000000E+00 -0.15506365594E+04  0.15506436822E+04  0.47000000000E+01 0. -1.
          6    1    1    2  502    0  0.82163585258E+01  0.11867791881E+03 -0.13326590027E+04  0.13489684853E+04  0.17200000000E+03 0. -1.
         -6    1    1    2    0  502 -0.82163585258E+01 -0.11867791881E+03 -0.15783111408E+03  0.26200499524E+03  0.17200000000E+03 0.  1.
</event>
<event>
 4    1 -0.6855026E-004  0.1777143E+03  0.7818608E-02  0.1170034E+00
          5   -1    0    0  501    0  0.00000000000E+00  0.00000000000E+00  0.22363697433E+03  0.22368635696E+03  0.47000000000E+01 0. -1.
         -5   -1    0    0    0  501 -0.00000000000E+00 -0.00000000000E+00 -0.14461169275E+03  0.14468804954E+03  0.47000000000E+01 0.  1.
          6    1    1    2  502    0 -0.34709187387E+02 -0.28171733132E+02  0.68130702789E+02  0.19032647451E+03  0.17200000000E+03 0. -1.
         -6    1    1    2    0  502  0.34709187387E+02  0.28171733132E+02  0.10894578798E+02  0.17804793198E+03  0.17200000000E+03 0. -1.
</event>
<event>
 4    1 -0.6855026E-004  0.1878491E+03  0.7818608E-02  0.1160416E+00
          5   -1    0    0  501    0  0.00000000000E+00  0.00000000000E+00  0.33024252151E+03  0.33027596493E+03  0.47000000000E+01 0. -1.
         -5   -1    0    0    0  501 -0.00000000000E+00 -0.00000000000E+00 -0.13648118100E+03  0.13656208393E+03  0.47000000000E+01 0.  1.
          6    1    1    2  502    0  0.56057592980E+02 -0.50604724835E+02  0.20575306425E+03  0.27860656014E+03  0.17200000000E+03 0. -1.
         -6    1    1    2    0  502 -0.56057592980E+02  0.50604724835E+02 -0.11991723740E+02  0.18823148872E+03  0.17200000000E+03 0.  1.
</event>
<event>
 4    1 -0.6855026E-004  0.2075620E+03  0.7818608E-02  0.1143511E+00
         -5   -1    0    0    0  501 -0.00000000000E+00  0.00000000000E+00  0.14554775504E+03  0.14562362101E+03  0.47000000000E+01 0.  1.
          5   -1    0    0  501    0  0.00000000000E+00 -0.00000000000E+00 -0.55551824894E+03  0.55553813092E+03  0.47000000000E+01 0. -1.
          6    1    1    2  502    0  0.11543894779E+03  0.13107745481E+02 -0.44466245896E+03  0.49072055802E+03  0.17200000000E+03 0. -1.
         -6    1    1    2    0  502 -0.11543894779E+03 -0.13107745481E+02  0.34691965053E+02  0.21044119392E+03  0.17200000000E+03 0.  1.
</event>
<event>
 4    1 -0.6855026E-004  0.2920269E+03  0.7818608E-02  0.1089296E+00
         -5   -1    0    0    0  501 -0.00000000000E+00  0.00000000000E+00  0.95924518952E+03  0.95925670372E+03  0.47000000000E+01 0.  1.
          5   -1    0    0  501    0  0.00000000000E+00 -0.00000000000E+00 -0.15883505563E+03  0.15890457797E+03  0.47000000000E+01 0. -1.
          6    1    1    2  502    0  0.20224973496E+03 -0.12161723854E+03  0.29164254050E+02  0.29347957631E+03  0.17200000000E+03 0. -1.
         -6    1    1    2    0  502 -0.20224973496E+03  0.12161723854E+03  0.77124587984E+03  0.82468170537E+03  0.17200000000E+03 0.  1.
</event>
<event>
 4    1 -0.6855026E-004  0.1905166E+03  0.7818608E-02  0.1157996E+00
          5   -1    0    0  501    0  0.00000000000E+00  0.00000000000E+00  0.52891824565E+03  0.52893912749E+03  0.47000000000E+01 0. -1.
         -5   -1    0    0    0  501 -0.00000000000E+00 -0.00000000000E+00 -0.14269876706E+03  0.14277614689E+03  0.47000000000E+01 0.  1.
          6    1    1    2  502    0 -0.64063487595E+01  0.81679571894E+02  0.43513882772E+03  0.47501830824E+03  0.17200000000E+03 0. -1.
         -6    1    1    2    0  502  0.64063487595E+01 -0.81679571894E+02 -0.48919349129E+02  0.19669696614E+03  0.17200000000E+03 0.  1.
</event>
<event>
 4    1 -0.6855026E-004  0.1811031E+03  0.7818608E-02  0.1166740E+00
         -5   -1    0    0    0  501 -0.00000000000E+00  0.00000000000E+00  0.20252912995E+04  0.20252967530E+04  0.47000000000E+01 0.  1.
          5   -1    0    0  501    0  0.00000000000E+00 -0.00000000000E+00 -0.42461130460E+02  0.42720458798E+02  0.47000000000E+01 0. -1.
          6    1    1    2  502    0 -0.31951602381E+02 -0.46833907044E+02  0.17735575535E+03  0.25348251162E+03  0.17200000000E+03 0. -1.
         -6    1    1    2    0  502  0.31951602381E+02  0.46833907044E+02  0.18054744137E+04  0.18145347002E+04  0.17200000000E+03 0.  1.
</event>
<event>
 4    1 -0.6855026E-004  0.2356596E+03  0.7818608E-02  0.1122718E+00
          5   -1    0    0  501    0  0.00000000000E+00  0.00000000000E+00  0.16424657472E+04  0.16424724719E+04  0.47000000000E+01 0. -1.
         -5   -1    0    0    0  501 -0.00000000000E+00 -0.00000000000E+00 -0.53782160725E+02  0.53987135618E+02  0.47000000000E+01 0.  1.
          6    1    1    2  502    0  0.31828969197E+02  0.15791887456E+03  0.13121001017E+04  0.13330949445E+04  0.17200000000E+03 0. -1.
         -6    1    1    2    0  502 -0.31828969197E+02 -0.15791887456E+03  0.27658348480E+03  0.36336466296E+03  0.17200000000E+03 0.  1.
</event>
<event>
 4    1 -0.6855026E-004  0.2032928E+03  0.7818608E-02  0.1146990E+00
          5   -1    0    0  501    0  0.00000000000E+00  0.00000000000E+00  0.49420583865E+03  0.49422818713E+03  0.47000000000E+01 0. -1.
         -5   -1    0    0    0  501 -0.00000000000E+00 -0.00000000000E+00 -0.29754015029E+03  0.29757726902E+03  0.47000000000E+01 0.  1.
          6    1    1    2  502    0  0.58322067010E+02  0.91337353440E+02  0.43403183849E+03  0.47928239322E+03  0.17200000000E+03 0. -1.
         -6    1    1    2    0  502 -0.58322067010E+02 -0.91337353440E+02 -0.23736615013E+03  0.31252306293E+03  0.17200000000E+03 0.  1.
</event>
<event>
 4    1 -0.6855026E-004  0.2057021E+03  0.7818608E-02  0.1145015E+00
         -5   -1    0    0    0  501 -0.00000000000E+00  0.00000000000E+00  0.21886203044E+03  0.21891249021E+03  0.47000000000E+01 0.  1.
          5   -1    0    0  501    0  0.00000000000E+00 -0.00000000000E+00 -0.28099082397E+03  0.28103012855E+03  0.47000000000E+01 0. -1.
          6    1    1    2  502    0  0.71693222881E+02  0.87117267563E+02 -0.17073759827E+03  0.26732875636E+03  0.17200000000E+03 0. -1.
         -6    1    1    2    0  502 -0.71693222881E+02 -0.87117267563E+02  0.10860880474E+03  0.23261386240E+03  0.17200000000E+03 0.  1.
</event>
<event>
 4    1 -0.6855026E-004  0.1887263E+03  0.7818608E-02  0.1159615E+00
         -5   -1    0    0    0  501 -0.00000000000E+00  0.00000000000E+00  0.50373898386E+03  0.50376090942E+03  0.47000000000E+01 0.  1.
          5   -1    0    0  501    0  0.00000000000E+00 -0.00000000000E+00 -0.12867061861E+03  0.12875642932E+03  0.47000000000E+01 0. -1.
          6    1    1    2  502    0 -0.58496056250E+02  0.51106101999E+02 -0.24800757162E+02  0.19034888971E+03  0.17200000000E+03 0. -1.
         -6    1    1    2    0  502  0.58496056250E+02 -0.51106101999E+02  0.39986912242E+03  0.44216844903E+03  0.17200000000E+03 0.  1.
</event>
<event>
 4    1 -0.6855026E-004  0.1777373E+03  0.7818608E-02  0.1170011E+00
         -5   -1    0    0    0  501 -0.00000000000E+00  0.00000000000E+00  0.25717916498E+03  0.25722210811E+03  0.47000000000E+01 0.  1.
          5   -1    0    0  501    0  0.00000000000E+00 -0.00000000000E+00 -0.55068098936E+03  0.55070104598E+03  0.47000000000E+01 0. -1.
          6    1    1    2  502    0  0.44792315450E+02 -0.45079067658E+00 -0.50282883229E+03  0.53331734392E+03  0.17200000000E+03 0. -1.
         -6    1    1    2    0  502 -0.44792315450E+02  0.45079067658E+00  0.20932700791E+03  0.27460581017E+03  0.17200000000E+03 0.  1.
</event>
<event>
 4    1 -0.6855026E-004  0.2437250E+03  0.7818608E-02  0.1117336E+00
         -5   -1    0    0    0  501 -0.00000000000E+00  0.00000000000E+00  0.79650084281E+03  0.79651470959E+03  0.47000000000E+01 0.  1.
          5   -1    0    0  501    0  0.00000000000E+00 -0.00000000000E+00 -0.30832635412E+03  0.30836217447E+03  0.47000000000E+01 0. -1.
          6    1    1    2  502    0  0.32217829916E+02 -0.16964630907E+03 -0.23692939842E+03  0.33990792662E+03  0.17200000000E+03 0. -1.
         -6    1    1    2    0  502 -0.32217829916E+02  0.16964630907E+03  0.72510388711E+03  0.76496895744E+03  0.17200000000E+03 0.  1.
</event>
<event>
 4    1 -0.6855026E-004  0.2208496E+03  0.7818608E-02  0.1133251E+00
          5   -1    0    0  501    0  0.00000000000E+00  0.00000000000E+00  0.17408398144E+04  0.17408461590E+04  0.47000000000E+01 0. -1.
         -5   -1    0    0    0  501 -0.00000000000E+00 -0.00000000000E+00 -0.30265687315E+03  0.30269336442E+03  0.47000000000E+01 0.  1.
          6    1    1    2  502    0  0.63862678061E+02  0.12293136602E+03  0.16924229073E+04  0.17067717655E+04  0.17200000000E+03 0. -1.
         -6    1    1    2    0  502 -0.63862678061E+02 -0.12293136602E+03 -0.25423996608E+03  0.33676775789E+03  0.17200000000E+03 0.  1.
</event>
<event>
 4    1 -0.6855026E-004  0.1875832E+03  0.7818608E-02  0.1160659E+00
         -5   -1    0    0    0  501 -0.00000000000E+00  0.00000000000E+00  0.33944251599E+03  0.33947505308E+03  0.47000000000E+01 0.  1.
          5   -1    0    0  501    0  0.00000000000E+00 -0.00000000000E+00 -0.12881038177E+03  0.12889609945E+03  0.47000000000E+01 0. -1.
          6    1    1    2  502    0  0.60499504558E+02  0.44082618693E+02  0.17062291116E+01  0.18759098736E+03  0.17200000000E+03 0. -1.
         -6    1    1    2    0  502 -0.60499504558E+02 -0.44082618693E+02  0.20892590511E+03  0.28078016516E+03  0.17200000000E+03 0.  1.
</event>
<event>
 4    1 -0.6855026E-004  0.1720321E+03  0.7818608E-02  0.1175745E+00
         -5   -1    0    0    0  501 -0.00000000000E+00  0.00000000000E+00  0.21196633641E+04  0.21196685749E+04  0.47000000000E+01 0.  1.
          5   -1    0    0  501    0  0.00000000000E+00 -0.00000000000E+00 -0.16176180341E+04  0.16176248620E+04  0.47000000000E+01 0. -1.
          6    1    1    2  502    0 -0.17097798044E+01 -0.28492195717E+01 -0.16095422067E+04  0.16187097197E+04  0.17200000000E+03 0. -1.
         -6    1    1    2    0  502  0.17097798044E+01  0.28492195717E+01  0.21115875368E+04  0.21185837172E+04  0.17200000000E+03 0.  1.
</event>
<event>
 4    1 -0.6855026E-004  0.2049256E+03  0.7818608E-02  0.1145649E+00
          5   -1    0    0  501    0  0.00000000000E+00  0.00000000000E+00  0.20557997603E+03  0.20563369506E+03  0.47000000000E+01 0. -1.
         -5   -1    0    0    0  501 -0.00000000000E+00 -0.00000000000E+00 -0.29844332865E+03  0.29848033505E+03  0.47000000000E+01 0.  1.
          6    1    1    2  502    0  0.65462166640E+01  0.11120995000E+03  0.95212769818E+02  0.22596454914E+03  0.17200000000E+03 0.  1.
         -6    1    1    2    0  502 -0.65462166640E+01 -0.11120995000E+03 -0.18807612244E+03  0.27814948097E+03  0.17200000000E+03 0. -1.
</event>
<event>
 4    1 -0.6855026E-004  0.1854071E+03  0.7818608E-02  0.1162670E+00
         -5   -1    0    0    0  501 -0.00000000000E+00  0.00000000000E+00  0.11942822549E+03  0.11952067204E+03  0.47000000000E+01 0.  1.
          5   -1    0    0  501    0  0.00000000000E+00 -0.00000000000E+00 -0.73550582462E+03  0.73552084134E+03  0.47000000000E+01 0. -1.
          6    1    1    2  502    0  0.38171934838E+01  0.69117420967E+02 -0.64163096273E+03  0.66788178683E+03  0.17200000000E+03 0. -1.
         -6    1    1    2    0  502 -0.38171934838E+01 -0.69117420967E+02  0.25553363607E+02  0.18715972654E+03  0.17200000000E+03 0.  1.
</event>
<event>
 4    1 -0.6855026E-004  0.2373849E+03  0.7818608E-02  0.1121547E+00
          5   -1    0    0  501    0  0.00000000000E+00  0.00000000000E+00  0.34254561832E+03  0.34257786068E+03  0.47000000000E+01 0. -1.
         -5   -1    0    0    0  501 -0.00000000000E+00 -0.00000000000E+00 -0.67581611971E+03  0.67583246271E+03  0.47000000000E+01 0.  1.
          6    1    1    2  502    0  0.96513060153E+02  0.13210908660E+03  0.27628672284E+03  0.36426080596E+03  0.17200000000E+03 0. -1.
         -6    1    1    2    0  502 -0.96513060153E+02 -0.13210908660E+03 -0.60955722423E+03  0.65414951743E+03  0.17200000000E+03 0.  1.
</event>
<event>
 4    1 -0.6855026E-004  0.1847575E+03  0.7818608E-02  0.1163277E+00
          5   -1    0    0  501    0  0.00000000000E+00  0.00000000000E+00  0.20348482047E+03  0.20353909246E+03  0.47000000000E+01 0. -1.
         -5   -1    0    0    0  501 -0.00000000000E+00 -0.00000000000E+00 -0.22589954458E+03  0.22594843271E+03  0.47000000000E+01 0.  1.
          6    1    1    2  502    0  0.45968206104E+01  0.67306819206E+02  0.97817016721E+02  0.20905383860E+03  0.17200000000E+03 0. -1.
         -6    1    1    2    0  502 -0.45968206104E+01 -0.67306819206E+02 -0.12023174084E+03  0.22043368657E+03  0.17200000000E+03 0.  1.
</event>
<event>
 4    1 -0.6855026E-004  0.2313476E+03  0.7818608E-02  0.1125695E+00
         -5   -1    0    0    0  501 -0.00000000000E+00  0.00000000000E+00  0.57260553817E+03  0.57262482686E+03  0.47000000000E+01 0.  1.
          5   -1    0    0  501    0  0.00000000000E+00 -0.00000000000E+00 -0.17866370678E+03  0.17872551614E+03  0.47000000000E+01 0. -1.
          6    1    1    2  502    0  0.13689278706E+03  0.72097801248E+02 -0.62487469373E+02  0.23963808529E+03  0.17200000000E+03 0. -1.
         -6    1    1    2    0  502 -0.13689278706E+03 -0.72097801248E+02  0.45642930076E+03  0.51171225771E+03  0.17200000000E+03 0.  1.
</event>
<event>
 4    1 -0.6855026E-004  0.2303281E+03  0.7818608E-02  0.1126409E+00
          5   -1    0    0  501    0  0.00000000000E+00  0.00000000000E+00  0.63625202998E+03  0.63626938922E+03  0.47000000000E+01 0. -1.
         -5   -1    0    0    0  501 -0.00000000000E+00 -0.00000000000E+00 -0.22954222802E+03  0.22959034049E+03  0.47000000000E+01 0.  1.
          6    1    1    2  502    0 -0.33895357646E+02  0.14939254024E+03  0.54883822232E+03  0.59520956026E+03  0.17200000000E+03 0. -1.
         -6    1    1    2    0  502  0.33895357646E+02 -0.14939254024E+03 -0.14212842036E+03  0.27065016945E+03  0.17200000000E+03 0.  1.
</event>
<event>
 4    1 -0.6855026E-004  0.2217942E+03  0.7818608E-02  0.1132552E+00
         -5   -1    0    0    0  501 -0.00000000000E+00  0.00000000000E+00  0.46980400275E+03  0.46982751197E+03  0.47000000000E+01 0.  1.
          5   -1    0    0  501    0  0.00000000000E+00 -0.00000000000E+00 -0.26609179968E+03  0.26613330467E+03  0.47000000000E+01 0. -1.
          6    1    1    2  502    0 -0.11654912056E+02  0.13954506405E+03 -0.18473629175E+03  0.28865231571E+03  0.17200000000E+03 0. -1.
         -6    1    1    2    0  502  0.11654912056E+02 -0.13954506405E+03  0.38844849482E+03  0.44730850093E+03  0.17200000000E+03 0.  1.
</event>
<event>
 4    1 -0.6855026E-004  0.1802831E+03  0.7818608E-02  0.1167529E+00
         -5   -1    0    0    0  501 -0.00000000000E+00  0.00000000000E+00  0.11746763960E+03  0.11756162790E+03  0.47000000000E+01 0.  1.
          5   -1    0    0  501    0  0.00000000000E+00 -0.00000000000E+00 -0.27690224148E+03  0.27694212633E+03  0.47000000000E+01 0. -1.
          6    1    1    2  502    0 -0.33401605598E+02  0.42453963696E+02 -0.71875611095E+02  0.19408273947E+03  0.17200000000E+03 0.  1.
         -6    1    1    2    0  502  0.33401605598E+02 -0.42453963696E+02 -0.87558990777E+02  0.20042101476E+03  0.17200000000E+03 0.  1.
</event>
<event>
 4    1 -0.6855026E-004  0.1974292E+03  0.7818608E-02  0.1151926E+00
         -5   -1    0    0    0  501 -0.00000000000E+00  0.00000000000E+00  0.15610800208E+03  0.15617873836E+03  0.47000000000E+01 0.  1.
          5   -1    0    0  501    0  0.00000000000E+00 -0.00000000000E+00 -0.28524783542E+03  0.28528655351E+03  0.47000000000E+01 0. -1.
          6    1    1    2  502    0  0.81724482733E+02 -0.52109454453E+02 -0.14265368000E+03  0.24357413397E+03  0.17200000000E+03 0. -1.
         -6    1    1    2    0  502 -0.81724482733E+02  0.52109454453E+02  0.13513846661E+02  0.19789115789E+03  0.17200000000E+03 0. -1.
</event>
<event>
 4    1 -0.6855026E-004  0.2073752E+03  0.7818608E-02  0.1143662E+00
         -5   -1    0    0    0  501 -0.00000000000E+00  0.00000000000E+00  0.66656865198E+03  0.66658522171E+03  0.47000000000E+01 0.  1.
          5   -1    0    0  501    0  0.00000000000E+00 -0.00000000000E+00 -0.17392974791E+03  0.17399323897E+03  0.47000000000E+01 0. -1.
          6    1    1    2  502    0 -0.11516344731E+03 -0.12564246248E+02 -0.87056304805E+02  0.22490726997E+03  0.17200000000E+03 0. -1.
         -6    1    1    2    0  502  0.11516344731E+03  0.12564246248E+02  0.57969520887E+03  0.61567119071E+03  0.17200000000E+03 0.  1.
</event>
<event>
 4    1 -0.6855026E-004  0.2364231E+03  0.7818608E-02  0.1122199E+00
         -5   -1    0    0    0  501 -0.00000000000E+00  0.00000000000E+00  0.17790340093E+03  0.17796547436E+03  0.47000000000E+01 0.  1.
          5   -1    0    0  501    0  0.00000000000E+00 -0.00000000000E+00 -0.66906364346E+03  0.66908015140E+03  0.47000000000E+01 0. -1.
          6    1    1    2  502    0 -0.51313113937E+02  0.15387935121E+03 -0.55406384126E+03  0.60239740254E+03  0.17200000000E+03 0. -1.
         -6    1    1    2    0  502  0.51313113937E+02 -0.15387935121E+03  0.62903598735E+02  0.24464822322E+03  0.17200000000E+03 0.  1.
</event>
<event>
 4    1 -0.6855026E-004  0.1867165E+03  0.7818608E-02  0.1161457E+00
          5   -1    0    0  501    0  0.00000000000E+00  0.00000000000E+00  0.99651058095E+02  0.99761833281E+02  0.47000000000E+01 0. -1.
         -5   -1    0    0    0  501 -0.00000000000E+00 -0.00000000000E+00 -0.13010751778E+04  0.13010836669E+04  0.47000000000E+01 0.  1.
          6    1    1    2  502    0  0.61639258597E+02  0.38466453449E+02 -0.17465668851E+01  0.18672470843E+03  0.17200000000E+03 0. -1.
         -6    1    1    2    0  502 -0.61639258597E+02 -0.38466453449E+02 -0.11996775528E+04  0.12141207917E+04  0.17200000000E+03 0.  1.
</event>
<event>
 4    1 -0.6855026E-004  0.2352962E+03  0.7818608E-02  0.1122967E+00
         -5   -1    0    0    0  501 -0.00000000000E+00  0.00000000000E+00  0.48767215820E+03  0.48769480609E+03  0.47000000000E+01 0.  1.
          5   -1    0    0  501    0  0.00000000000E+00 -0.00000000000E+00 -0.15713536384E+03  0.15720563784E+03  0.47000000000E+01 0. -1.
          6    1    1    2  502    0 -0.84665960439E+02  0.13642566316E+03 -0.46843041675E+01  0.23534279069E+03  0.17200000000E+03 0. -1.
         -6    1    1    2    0  502  0.84665960439E+02 -0.13642566316E+03  0.33522109853E+03  0.40955765324E+03  0.17200000000E+03 0.  1.
</event>
<event>
 4    1 -0.6855026E-004  0.1737104E+03  0.7818608E-02  0.1174033E+00
          5   -1    0    0  501    0  0.00000000000E+00  0.00000000000E+00  0.86315556353E+02  0.86443422356E+02  0.47000000000E+01 0. -1.
         -5   -1    0    0    0  501 -0.00000000000E+00 -0.00000000000E+00 -0.86764869871E+03  0.86766142842E+03  0.47000000000E+01 0.  1.
          6    1    1    2  502    0  0.24161400143E+02  0.27416558604E+01 -0.21932251358E+02  0.17508944452E+03  0.17200000000E+03 0. -1.
         -6    1    1    2    0  502 -0.24161400143E+02 -0.27416558604E+01 -0.75940089100E+03  0.77901540626E+03  0.17200000000E+03 0.  1.
</event>
<event>
 4    1 -0.6855026E-004  0.1834642E+03  0.7818608E-02  0.1164492E+00
          5   -1    0    0  501    0  0.00000000000E+00  0.00000000000E+00  0.75065028344E+02  0.75212023509E+02  0.47000000000E+01 0. -1.
         -5   -1    0    0    0  501 -0.00000000000E+00 -0.00000000000E+00 -0.77516416035E+03  0.77517840881E+03  0.47000000000E+01 0.  1.
          6    1    1    2  502    0 -0.23703332949E+02 -0.59272930330E+02 -0.73763253188E+02  0.19773756796E+03  0.17200000000E+03 0. -1.
         -6    1    1    2    0  502  0.23703332949E+02  0.59272930330E+02 -0.62633587881E+03  0.65265286436E+03  0.17200000000E+03 0.  1.
</event>
<event>
 4    1 -0.6855026E-004  0.2148320E+03  0.7818608E-02  0.1137796E+00
          5   -1    0    0  501    0  0.00000000000E+00  0.00000000000E+00  0.38715325261E+03  0.38718178032E+03  0.47000000000E+01 0. -1.
         -5   -1    0    0    0  501 -0.00000000000E+00 -0.00000000000E+00 -0.14182203572E+03  0.14189989364E+03  0.47000000000E+01 0.  1.
          6    1    1    2  502    0  0.18968850426E+02  0.12731438222E+03  0.22843759054E+03  0.31358651434E+03  0.17200000000E+03 0. -1.
         -6    1    1    2    0  502 -0.18968850426E+02 -0.12731438222E+03  0.16893626352E+02  0.21549515961E+03  0.17200000000E+03 0.  1.
</event>
<event>
 4    1 -0.6855026E-004  0.2042318E+03  0.7818608E-02  0.1146217E+00
         -5   -1    0    0    0  501 -0.00000000000E+00  0.00000000000E+00  0.26011376137E+03  0.26015622009E+03  0.47000000000E+01 0.  1.
          5   -1    0    0  501    0  0.00000000000E+00 -0.00000000000E+00 -0.22367272461E+03  0.22372209934E+03  0.47000000000E+01 0. -1.
          6    1    1    2  502    0  0.52869817378E+02  0.96599253310E+02 -0.11056615151E+03  0.23224019288E+03  0.17200000000E+03 0. -1.
         -6    1    1    2    0  502 -0.52869817378E+02 -0.96599253310E+02  0.14700718827E+03  0.25163812655E+03  0.17200000000E+03 0.  1.
</event>
<event>
 4    1 -0.6855026E-004  0.1778031E+03  0.7818608E-02  0.1169946E+00
          5   -1    0    0  501    0  0.00000000000E+00  0.00000000000E+00  0.53923419832E+02  0.54127859799E+02  0.47000000000E+01 0. -1.
         -5   -1    0    0    0  501 -0.00000000000E+00 -0.00000000000E+00 -0.82920170921E+03  0.82921502915E+03  0.47000000000E+01 0.  1.
          6    1    1    2  502    0  0.43313507157E+02 -0.12404709449E+02 -0.14796073350E+03  0.23131432160E+03  0.17200000000E+03 0. -1.
         -6    1    1    2    0  502 -0.43313507157E+02  0.12404709449E+02 -0.62731755588E+03  0.65202856735E+03  0.17200000000E+03 0.  1.
</event>
<event>
 4    1 -0.6855026E-004  0.2268597E+03  0.7818608E-02  0.1128870E+00
          5   -1    0    0  501    0  0.00000000000E+00  0.00000000000E+00  0.16615052623E+03  0.16621698881E+03  0.47000000000E+01 0. -1.
         -5   -1    0    0    0  501 -0.00000000000E+00 -0.00000000000E+00 -0.31099022207E+03  0.31102573562E+03  0.47000000000E+01 0.  1.
          6    1    1    2  502    0  0.14641304320E+03 -0.21084073471E+02 -0.56496362727E+02  0.23378870027E+03  0.17200000000E+03 0.  1.
         -6    1    1    2    0  502 -0.14641304320E+03  0.21084073471E+02 -0.88343333106E+02  0.24345402416E+03  0.17200000000E+03 0.  1.
</event>
<event>
 4    1 -0.6855026E-004  0.2735672E+03  0.7818608E-02  0.1099255E+00
         -5   -1    0    0    0  501 -0.00000000000E+00  0.00000000000E+00  0.51332666899E+03  0.51334818505E+03  0.47000000000E+01 0.  1.
          5   -1    0    0  501    0  0.00000000000E+00 -0.00000000000E+00 -0.23672731024E+03  0.23677396270E+03  0.47000000000E+01 0. -1.
          6    1    1    2  502    0  0.21257935002E+03  0.80649865797E+01 -0.94197039930E+02  0.28933044499E+03  0.17200000000E+03 0. -1.
         -6    1    1    2    0  502 -0.21257935002E+03 -0.80649865797E+01  0.37079639868E+03  0.46079170277E+03  0.17200000000E+03 0.  1.
</event>
<event>
 4    1 -0.6855026E-004  0.1741012E+03  0.7818608E-02  0.1173637E+00
         -5   -1    0    0    0  501 -0.00000000000E+00  0.00000000000E+00  0.94318769289E+02  0.94435799569E+02  0.47000000000E+01 0.  1.
          5   -1    0    0  501    0  0.00000000000E+00 -0.00000000000E+00 -0.41530761358E+03  0.41533420747E+03  0.47000000000E+01 0. -1.
          6    1    1    2  502    0 -0.12504367963E+02  0.23892564080E+02 -0.28190925096E+03  0.33133674655E+03  0.17200000000E+03 0. -1.
         -6    1    1    2    0  502  0.12504367963E+02 -0.23892564080E+02 -0.39079593334E+02  0.17843326050E+03  0.17200000000E+03 0.  1.
</event>
<event>
 4    1 -0.6855026E-004  0.1803905E+03  0.7818608E-02  0.1167426E+00
         -5   -1    0    0    0  501 -0.00000000000E+00  0.00000000000E+00  0.10905008672E+04  0.10905109956E+04  0.47000000000E+01 0.  1.
          5   -1    0    0  501    0  0.00000000000E+00 -0.00000000000E+00 -0.56414324229E+02  0.56609769282E+02  0.47000000000E+01 0. -1.
          6    1    1    2  502    0  0.64787645832E+01  0.53988365574E+02  0.12296710249E+03  0.21831542846E+03  0.17200000000E+03 0. -1.
         -6    1    1    2    0  502 -0.64787645832E+01 -0.53988365574E+02  0.91111944052E+03  0.92880533639E+03  0.17200000000E+03 0.  1.
</event>
<event>
 4    1 -0.6855026E-004  0.3287416E+03  0.7818608E-02  0.1071695E+00
          5   -1    0    0  501    0  0.00000000000E+00  0.00000000000E+00  0.99442827917E+03  0.99443938599E+03  0.47000000000E+01 0. -1.
         -5   -1    0    0    0  501 -0.00000000000E+00 -0.00000000000E+00 -0.35073980482E+03  0.35077129398E+03  0.47000000000E+01 0.  1.
          6    1    1    2  502    0 -0.18680788604E+03  0.20878177408E+03  0.88062345027E+03  0.93998333849E+03  0.17200000000E+03 0. -1.
         -6    1    1    2    0  502  0.18680788604E+03 -0.20878177408E+03 -0.23693497591E+03  0.40522734148E+03  0.17200000000E+03 0.  1.
</event>
<event>
 4    1 -0.6855026E-004  0.2344241E+03  0.7818608E-02  0.1123564E+00
          5   -1    0    0  501    0  0.00000000000E+00  0.00000000000E+00  0.24826356074E+03  0.24830804576E+03  0.47000000000E+01 0. -1.
         -5   -1    0    0    0  501 -0.00000000000E+00 -0.00000000000E+00 -0.41170673798E+03  0.41173356445E+03  0.47000000000E+01 0.  1.
          6    1    1    2  502    0 -0.11642790674E+03 -0.10869774128E+03  0.14270928772E+03  0.27444598235E+03  0.17200000000E+03 0. -1.
         -6    1    1    2    0  502  0.11642790674E+03  0.10869774128E+03 -0.30615246496E+03  0.38559562787E+03  0.17200000000E+03 0.  1.
</event>
<event>
 4    1 -0.6855026E-004  0.1735838E+03  0.7818608E-02  0.1174161E+00
         -5   -1    0    0    0  501 -0.00000000000E+00  0.00000000000E+00  0.16874614872E+03  0.16881158938E+03  0.47000000000E+01 0.  1.
          5   -1    0    0  501    0  0.00000000000E+00 -0.00000000000E+00 -0.21977586440E+03  0.21982611440E+03  0.47000000000E+01 0. -1.
          6    1    1    2  502    0  0.21591773382E+02  0.90075548887E+01 -0.10977561236E+03  0.20538263264E+03  0.17200000000E+03 0. -1.
         -6    1    1    2    0  502 -0.21591773382E+02 -0.90075548887E+01  0.58745896673E+02  0.18325507114E+03  0.17200000000E+03 0.  1.
</event>
<event>
 4    1 -0.6855026E-004  0.1721808E+03  0.7818608E-02  0.1175593E+00
          5   -1    0    0  501    0  0.00000000000E+00  0.00000000000E+00  0.31884407084E+02  0.32228953056E+02  0.47000000000E+01 0. -1.
         -5   -1    0    0    0  501 -0.00000000000E+00 -0.00000000000E+00 -0.17917369085E+04  0.17917430729E+04  0.47000000000E+01 0.  1.
          6    1    1    2  502    0 -0.30313565560E+01 -0.72827148007E+01 -0.24548983892E+03  0.29985244383E+03  0.17200000000E+03 0. -1.
         -6    1    1    2    0  502  0.30313565560E+01  0.72827148007E+01 -0.15143626625E+04  0.15241195822E+04  0.17200000000E+03 0.  1.
</event>
<event>
 4    1 -0.6855026E-004  0.1751216E+03  0.7818608E-02  0.1172610E+00
          5   -1    0    0  501    0  0.00000000000E+00  0.00000000000E+00  0.17857230936E+03  0.17863415034E+03  0.47000000000E+01 0. -1.
         -5   -1    0    0    0  501 -0.00000000000E+00 -0.00000000000E+00 -0.26337964950E+03  0.26342158182E+03  0.47000000000E+01 0.  1.
          6    1    1    2  502    0 -0.31923557774E+02  0.80294365761E+01  0.88033536743E+02  0.19600379839E+03  0.17200000000E+03 0.  1.
         -6    1    1    2    0  502  0.31923557774E+02 -0.80294365761E+01 -0.17284087689E+03  0.24605193378E+03  0.17200000000E+03 0.  1.
</event>
<event>
 4    1 -0.6855026E-004  0.3046607E+03  0.7818608E-02  0.1082934E+00
          5   -1    0    0  501    0  0.00000000000E+00  0.00000000000E+00  0.11189239882E+04  0.11189338593E+04  0.47000000000E+01 0. -1.
         -5   -1    0    0    0  501 -0.00000000000E+00 -0.00000000000E+00 -0.57924014951E+03  0.57925921728E+03  0.47000000000E+01 0.  1.
          6    1    1    2  502    0  0.19330960008E+03  0.16082767709E+03  0.10557931830E+04  0.10988709608E+04  0.17200000000E+03 0. -1.
         -6    1    1    2    0  502 -0.19330960008E+03 -0.16082767709E+03 -0.51610934428E+03  0.59932211577E+03  0.17200000000E+03 0.  1.
</event>
<event>
 4    1 -0.6855026E-004  0.2094176E+03  0.7818608E-02  0.1142028E+00
          5   -1    0    0  501    0  0.00000000000E+00  0.00000000000E+00  0.12814822053E+03  0.12823438082E+03  0.47000000000E+01 0. -1.
         -5   -1    0    0    0  501 -0.00000000000E+00 -0.00000000000E+00 -0.34818053168E+03  0.34821225228E+03  0.47000000000E+01 0.  1.
          6    1    1    2  502    0  0.36379103001E+02 -0.11379061539E+03 -0.78306515880E+02  0.22357918892E+03  0.17200000000E+03 0. -1.
         -6    1    1    2    0  502 -0.36379103001E+02  0.11379061539E+03 -0.14172579527E+03  0.25286744419E+03  0.17200000000E+03 0. -1.
</event>
<event>
 4    1 -0.6855026E-004  0.1844841E+03  0.7818608E-02  0.1163533E+00
         -5   -1    0    0    0  501 -0.00000000000E+00  0.00000000000E+00  0.67142096939E+03  0.67143741937E+03  0.47000000000E+01 0.  1.
          5   -1    0    0  501    0  0.00000000000E+00 -0.00000000000E+00 -0.51397637008E+02  0.51612082791E+02  0.47000000000E+01 0. -1.
          6    1    1    2  502    0 -0.22047970388E+01 -0.66674708657E+02  0.35594939290E+03  0.40091688441E+03  0.17200000000E+03 0.  1.
         -6    1    1    2    0  502  0.22047970388E+01  0.66674708657E+02  0.26407393948E+03  0.32213261775E+03  0.17200000000E+03 0. -1.
</event>
<event>
 4    1 -0.6855026E-004  0.2053805E+03  0.7818608E-02  0.1145277E+00
         -5   -1    0    0    0  501 -0.00000000000E+00  0.00000000000E+00  0.16209829404E+04  0.16209897542E+04  0.47000000000E+01 0.  1.
          5   -1    0    0  501    0  0.00000000000E+00 -0.00000000000E+00 -0.19754843326E+03  0.19760433569E+03  0.47000000000E+01 0. -1.
          6    1    1    2  502    0 -0.63187915372E+02  0.92760029111E+02 -0.13558906139E+03  0.24610064855E+03  0.17200000000E+03 0. -1.
         -6    1    1    2    0  502  0.63187915372E+02 -0.92760029111E+02  0.15590235686E+04  0.15724934413E+04  0.17200000000E+03 0.  1.
</event>
<event>
 4    1 -0.6855026E-004  0.1866388E+03  0.7818608E-02  0.1161528E+00
         -5   -1    0    0    0  501 -0.00000000000E+00  0.00000000000E+00  0.41203663618E+03  0.41206344118E+03  0.47000000000E+01 0.  1.
          5   -1    0    0  501    0  0.00000000000E+00 -0.00000000000E+00 -0.16018854274E+03  0.16025747790E+03  0.47000000000E+01 0. -1.
          6    1    1    2  502    0  0.42534981300E+02  0.58658495243E+02 -0.70770169885E+02  0.19960576305E+03  0.17200000000E+03 0. -1.
         -6    1    1    2    0  502 -0.42534981300E+02 -0.58658495243E+02  0.32261826333E+03  0.37271515603E+03  0.17200000000E+03 0.  1.
</event>
<event>
 4    1 -0.6855026E-004  0.2348637E+03  0.7818608E-02  0.1123263E+00
          5   -1    0    0  501    0  0.00000000000E+00  0.00000000000E+00  0.90759968722E+03  0.90761185660E+03  0.47000000000E+01 0. -1.
         -5   -1    0    0    0  501 -0.00000000000E+00 -0.00000000000E+00 -0.65030611909E+02  0.65200233782E+02  0.47000000000E+01 0.  1.
          6    1    1    2  502    0  0.14910512648E+03  0.57832600773E+02  0.54701024192E+03  0.59529921318E+03  0.17200000000E+03 0. -1.
         -6    1    1    2    0  502 -0.14910512648E+03 -0.57832600773E+02  0.29555883340E+03  0.37751287720E+03  0.17200000000E+03 0.  1.
</event>
<event>
 4    1 -0.6855026E-004  0.1783728E+03  0.7818608E-02  0.1169387E+00
          5   -1    0    0  501    0  0.00000000000E+00  0.00000000000E+00  0.40465674121E+03  0.40468403503E+03  0.47000000000E+01 0. -1.
         -5   -1    0    0    0  501 -0.00000000000E+00 -0.00000000000E+00 -0.21766582542E+03  0.21771656243E+03  0.47000000000E+01 0.  1.
          6    1    1    2  502    0 -0.30599708815E+02  0.36007125161E+02  0.34223630870E+03  0.38593075316E+03  0.17200000000E+03 0. -1.
         -6    1    1    2    0  502  0.30599708815E+02 -0.36007125161E+02 -0.15524539291E+03  0.23646984429E+03  0.17200000000E+03 0.  1.
</event>
<event>
 4    1 -0.6855026E-004  0.4088288E+03  0.7818608E-02  0.1040765E+00
          5   -1    0    0  501    0  0.00000000000E+00  0.00000000000E+00  0.98915391368E+03  0.98916507972E+03  0.47000000000E+01 0. -1.
         -5   -1    0    0    0  501 -0.00000000000E+00 -0.00000000000E+00 -0.25673273372E+03  0.25677575151E+03  0.47000000000E+01 0.  1.
          6    1    1    2  502    0 -0.34412349544E+03  0.13833285745E+03  0.73048475209E+03  0.83710747972E+03  0.17200000000E+03 0.  1.
         -6    1    1    2    0  502  0.34412349544E+03 -0.13833285745E+03  0.19364278653E+01  0.40883335152E+03  0.17200000000E+03 0.  1.
</event>
<event>
 4    1 -0.6855026E-004  0.1915574E+03  0.7818608E-02  0.1157064E+00
          5   -1    0    0  501    0  0.00000000000E+00  0.00000000000E+00  0.27598858458E+03  0.27602860145E+03  0.47000000000E+01 0. -1.
         -5   -1    0    0    0  501 -0.00000000000E+00 -0.00000000000E+00 -0.30568949203E+03  0.30572562133E+03  0.47000000000E+01 0.  1.
          6    1    1    2  502    0 -0.83760137117E+02  0.97198309295E+01  0.20382593777E+03  0.27971279662E+03  0.17200000000E+03 0. -1.
         -6    1    1    2    0  502  0.83760137117E+02 -0.97198309295E+01 -0.23352684521E+03  0.30204142616E+03  0.17200000000E+03 0.  1.
</event>
<event>
 4    1 -0.6855026E-004  0.1954138E+03  0.7818608E-02  0.1153667E+00
         -5   -1    0    0    0  501 -0.00000000000E+00  0.00000000000E+00  0.68474505157E+02  0.68635616530E+02  0.47000000000E+01 0.  1.
          5   -1    0    0  501    0  0.00000000000E+00 -0.00000000000E+00 -0.10456308457E+04  0.10456414087E+04  0.47000000000E+01 0. -1.
          6    1    1    2  502    0  0.57808354905E+02  0.72531100568E+02 -0.86946394397E+03  0.89115325074E+03  0.17200000000E+03 0. -1.
         -6    1    1    2    0  502 -0.57808354905E+02 -0.72531100568E+02 -0.10769239661E+03  0.22312377447E+03  0.17200000000E+03 0.  1.
</event>
<event>
 4    1 -0.6855026E-004  0.3328652E+03  0.7818608E-02  0.1069876E+00
         -5   -1    0    0    0  501 -0.00000000000E+00  0.00000000000E+00  0.83662901155E+03  0.83664221323E+03  0.47000000000E+01 0.  1.
          5   -1    0    0  501    0  0.00000000000E+00 -0.00000000000E+00 -0.39579113044E+03  0.39581903559E+03  0.47000000000E+01 0. -1.
          6    1    1    2  502    0 -0.22313064291E+03  0.17727938904E+03 -0.28225922250E+03  0.43642815476E+03  0.17200000000E+03 0. -1.
         -6    1    1    2    0  502  0.22313064291E+03 -0.17727938904E+03  0.72309710361E+03  0.79603309406E+03  0.17200000000E+03 0.  1.
</event>
<event>
 4    1 -0.6855026E-004  0.2156917E+03  0.7818608E-02  0.1137136E+00
         -5   -1    0    0    0  501 -0.00000000000E+00  0.00000000000E+00  0.75247654648E+03  0.75249122453E+03  0.47000000000E+01 0.  1.
          5   -1    0    0  501    0  0.00000000000E+00 -0.00000000000E+00 -0.76497719393E+02  0.76641966783E+02  0.47000000000E+01 0. -1.
          6    1    1    2  502    0  0.15727616846E+02 -0.12919581374E+03  0.15599912422E+03  0.26619286800E+03  0.17200000000E+03 0. -1.
         -6    1    1    2    0  502 -0.15727616846E+02  0.12919581374E+03  0.51997970287E+03  0.56294032332E+03  0.17200000000E+03 0.  1.
</event>
<event>
 4    1 -0.6855026E-004  0.1974332E+03  0.7818608E-02  0.1151923E+00
          5   -1    0    0  501    0  0.00000000000E+00  0.00000000000E+00  0.47444046092E+02  0.47676278269E+02  0.47000000000E+01 0. -1.
         -5   -1    0    0    0  501 -0.00000000000E+00 -0.00000000000E+00 -0.86834100597E+03  0.86835372554E+03  0.47000000000E+01 0.  1.
          6    1    1    2  502    0  0.53284689649E+02  0.80972956538E+02 -0.30167506974E+03  0.36053810554E+03  0.17200000000E+03 0. -1.
         -6    1    1    2    0  502 -0.53284689649E+02 -0.80972956538E+02 -0.51922189014E+03  0.55549189827E+03  0.17200000000E+03 0. -1.
</event>
<event>
 4    1 -0.6855026E-004  0.1759026E+03  0.7818608E-02  0.1171828E+00
         -5   -1    0    0    0  501 -0.00000000000E+00  0.00000000000E+00  0.50719426360E+03  0.50721603980E+03  0.47000000000E+01 0.  1.
          5   -1    0    0  501    0  0.00000000000E+00 -0.00000000000E+00 -0.69462244018E+02  0.69621069685E+02  0.47000000000E+01 0. -1.
          6    1    1    2  502    0 -0.11476573287E+02 -0.35014479341E+02  0.11769732462E+03  0.21164684198E+03  0.17200000000E+03 0. -1.
         -6    1    1    2    0  502  0.11476573287E+02  0.35014479341E+02  0.32003469496E+03  0.36519026750E+03  0.17200000000E+03 0.  1.
</event>
<event>
 4    1 -0.6855026E-004  0.1795817E+03  0.7818608E-02  0.1168209E+00
          5   -1    0    0  501    0  0.00000000000E+00  0.00000000000E+00  0.15508203737E+04  0.15508274958E+04  0.47000000000E+01 0. -1.
         -5   -1    0    0    0  501 -0.00000000000E+00 -0.00000000000E+00 -0.13713909212E+03  0.13721960716E+03  0.47000000000E+01 0.  1.
          6    1    1    2  502    0 -0.51241160342E+02  0.63186287561E+01  0.14842670038E+04  0.14950913418E+04  0.17200000000E+03 0. -1.
         -6    1    1    2    0  502  0.51241160342E+02 -0.63186287561E+01 -0.70585722209E+02  0.19295576115E+03  0.17200000000E+03 0.  1.
</event>
<event>
 4    1 -0.6855026E-004  0.1766518E+03  0.7818608E-02  0.1171083E+00
          5   -1    0    0  501    0  0.00000000000E+00  0.00000000000E+00  0.40091340207E+03  0.40094095072E+03  0.47000000000E+01 0. -1.
         -5   -1    0    0    0  501 -0.00000000000E+00 -0.00000000000E+00 -0.24520948779E+03  0.24525452677E+03  0.47000000000E+01 0.  1.
          6    1    1    2  502    0  0.12487431990E+02  0.38287393360E+02  0.34480293674E+03  0.38742086370E+03  0.17200000000E+03 0. -1.
         -6    1    1    2    0  502 -0.12487431990E+02 -0.38287393360E+02 -0.18909902245E+03  0.25877461379E+03  0.17200000000E+03 0.  1.
</event>
<event>
 4    1 -0.6855026E-004  0.1782106E+03  0.7818608E-02  0.1169546E+00
         -5   -1    0    0    0  501 -0.00000000000E+00  0.00000000000E+00  0.91209421358E+02  0.91330436025E+02  0.47000000000E+01 0.  1.
          5   -1    0    0  501    0  0.00000000000E+00 -0.00000000000E+00 -0.11104741072E+04  0.11104840534E+04  0.47000000000E+01 0. -1.
          6    1    1    2  502    0 -0.21232170995E+01  0.46588794816E+02 -0.10075827564E+04  0.10232214007E+04  0.17200000000E+03 0. -1.
         -6    1    1    2    0  502  0.21232170995E+01 -0.46588794816E+02 -0.11681929451E+02  0.17859308869E+03  0.17200000000E+03 0.  1.
</event>
<event>
 4    1 -0.6855026E-004  0.2776401E+03  0.7818608E-02  0.1096985E+00
          5   -1    0    0  501    0  0.00000000000E+00  0.00000000000E+00  0.40057329553E+03  0.40060086757E+03  0.47000000000E+01 0. -1.
         -5   -1    0    0    0  501 -0.00000000000E+00 -0.00000000000E+00 -0.81386804604E+03  0.81388161692E+03  0.47000000000E+01 0.  1.
          6    1    1    2  502    0  0.85340998353E+02  0.20054165185E+03  0.32397655464E+03  0.42666713968E+03  0.17200000000E+03 0. -1.
         -6    1    1    2    0  502 -0.85340998353E+02 -0.20054165185E+03 -0.73727130515E+03  0.78781534481E+03  0.17200000000E+03 0.  1.
</event>
<event>
 4    1 -0.6855026E-004  0.2137705E+03  0.7818608E-02  0.1138614E+00
         -5   -1    0    0    0  501 -0.00000000000E+00  0.00000000000E+00  0.10336322511E+04  0.10336429366E+04  0.47000000000E+01 0.  1.
          5   -1    0    0  501    0  0.00000000000E+00 -0.00000000000E+00 -0.11213583766E+03  0.11223429105E+03  0.47000000000E+01 0. -1.
          6    1    1    2  502    0 -0.10955045458E+01 -0.12693547259E+03  0.14756600632E+02  0.21427919076E+03  0.17200000000E+03 0. -1.
         -6    1    1    2    0  502  0.10955045458E+01  0.12693547259E+03  0.90673981279E+03  0.93159803694E+03  0.17200000000E+03 0.  1.
</event>
<event>
 4    1 -0.6855026E-004  0.1768244E+03  0.7818608E-02  0.1170912E+00
          5   -1    0    0  501    0  0.00000000000E+00  0.00000000000E+00  0.57074209625E+02  0.57267402633E+02  0.47000000000E+01 0. -1.
         -5   -1    0    0    0  501 -0.00000000000E+00 -0.00000000000E+00 -0.89224266996E+03  0.89225504879E+03  0.47000000000E+01 0.  1.
          6    1    1    2  502    0  0.21998546865E+02 -0.34625458484E+02 -0.12216817234E+03  0.21492305779E+03  0.17200000000E+03 0. -1.
         -6    1    1    2    0  502 -0.21998546865E+02  0.34625458484E+02 -0.71300028800E+03  0.73459939363E+03  0.17200000000E+03 0.  1.
</event>
<event>
 4    1 -0.6855026E-004  0.1884527E+03  0.7818608E-02  0.1159864E+00
         -5   -1    0    0    0  501 -0.00000000000E+00  0.00000000000E+00  0.14802549805E+04  0.14802624420E+04  0.47000000000E+01 0.  1.
          5   -1    0    0  501    0  0.00000000000E+00 -0.00000000000E+00 -0.10303970341E+03  0.10314683940E+03  0.47000000000E+01 0. -1.
          6    1    1    2  502    0 -0.55133319338E+02 -0.53765505739E+02 -0.48891340768E+01  0.18851608987E+03  0.17200000000E+03 0. -1.
         -6    1    1    2    0  502  0.55133319338E+02  0.53765505739E+02  0.13821044112E+04  0.13948931916E+04  0.17200000000E+03 0.  1.
</event>
<event>
 4    1 -0.6855026E-004  0.2103311E+03  0.7818608E-02  0.1141304E+00
          5   -1    0    0  501    0  0.00000000000E+00  0.00000000000E+00  0.30673790395E+03  0.30677390978E+03  0.47000000000E+01 0. -1.
         -5   -1    0    0    0  501 -0.00000000000E+00 -0.00000000000E+00 -0.28325074072E+03  0.28328973175E+03  0.47000000000E+01 0.  1.
          6    1    1    2  502    0 -0.52329144748E+02  0.10916418264E+03  0.21846661753E+03  0.30326031910E+03  0.17200000000E+03 0. -1.
         -6    1    1    2    0  502  0.52329144748E+02 -0.10916418264E+03 -0.19497945430E+03  0.28680332244E+03  0.17200000000E+03 0.  1.
</event>
<event>
 4    1 -0.6855026E-004  0.1721701E+03  0.7818608E-02  0.1175603E+00
          5   -1    0    0  501    0  0.00000000000E+00  0.00000000000E+00  0.14156407382E+03  0.14164207354E+03  0.47000000000E+01 0. -1.
         -5   -1    0    0    0  501 -0.00000000000E+00 -0.00000000000E+00 -0.97020563006E+03  0.97021701417E+03  0.47000000000E+01 0.  1.
          6    1    1    2  502    0 -0.55619844040E+01  0.52552516419E+01  0.78000122753E+02  0.18901474146E+03  0.17200000000E+03 0. -1.
         -6    1    1    2    0  502  0.55619844040E+01 -0.52552516419E+01 -0.90664167899E+03  0.92284434626E+03  0.17200000000E+03 0.  1.
</event>
<event>
 4    1 -0.6855026E-004  0.1765372E+03  0.7818608E-02  0.1171197E+00
         -5   -1    0    0    0  501 -0.00000000000E+00  0.00000000000E+00  0.40053958096E+03  0.40056715532E+03  0.47000000000E+01 0.  1.
          5   -1    0    0  501    0  0.00000000000E+00 -0.00000000000E+00 -0.11841596027E+03  0.11850919647E+03  0.47000000000E+01 0. -1.
          6    1    1    2  502    0 -0.14401219861E+02  0.37067460946E+02 -0.11018716710E+02  0.17688076185E+03  0.17200000000E+03 0. -1.
         -6    1    1    2    0  502  0.14401219861E+02 -0.37067460946E+02  0.29314233740E+03  0.34219558994E+03  0.17200000000E+03 0.  1.
</event>
<event>
 4    1 -0.6855026E-004  0.2079919E+03  0.7818608E-02  0.1143166E+00
         -5   -1    0    0    0  501 -0.00000000000E+00  0.00000000000E+00  0.90159465477E+03  0.90160690520E+03  0.47000000000E+01 0.  1.
          5   -1    0    0  501    0  0.00000000000E+00 -0.00000000000E+00 -0.77165366585E+02  0.77308368242E+02  0.47000000000E+01 0. -1.
          6    1    1    2  502    0 -0.52590000574E+02  0.10445527248E+03  0.11094297306E+03  0.23573068400E+03  0.17200000000E+03 0. -1.
         -6    1    1    2    0  502  0.52590000574E+02 -0.10445527248E+03  0.71348631513E+03  0.74318458944E+03  0.17200000000E+03 0.  1.
</event>
<event>
 4    1 -0.6855026E-004  0.1926599E+03  0.7818608E-02  0.1156084E+00
          5   -1    0    0  501    0  0.00000000000E+00  0.00000000000E+00  0.19144208299E+04  0.19144265992E+04  0.47000000000E+01 0. -1.
         -5   -1    0    0    0  501 -0.00000000000E+00 -0.00000000000E+00 -0.12927737884E+03  0.12936278708E+03  0.47000000000E+01 0.  1.
          6    1    1    2  502    0 -0.45211361100E+02 -0.74093069602E+02  0.18347564493E+04  0.18448439171E+04  0.17200000000E+03 0. -1.
         -6    1    1    2    0  502  0.45211361100E+02  0.74093069602E+02 -0.49612998256E+02  0.19894546924E+03  0.17200000000E+03 0.  1.
</event>
<event>
 4    1 -0.6855026E-004  0.1818791E+03  0.7818608E-02  0.1165997E+00
          5   -1    0    0  501    0  0.00000000000E+00  0.00000000000E+00  0.72614390636E+03  0.72615911668E+03  0.47000000000E+01 0. -1.
         -5   -1    0    0    0  501 -0.00000000000E+00 -0.00000000000E+00 -0.68543211749E+02  0.68704162005E+02  0.47000000000E+01 0.  1.
          6    1    1    2  502    0 -0.57658218136E+02 -0.13097438268E+02  0.55927836878E+03  0.58810909429E+03  0.17200000000E+03 0. -1.
         -6    1    1    2    0  502  0.57658218136E+02  0.13097438268E+02  0.98322325833E+02  0.20675418440E+03  0.17200000000E+03 0.  1.
</event>
<event>
 4    1 -0.6855026E-004  0.1741744E+03  0.7818608E-02  0.1173563E+00
          5   -1    0    0  501    0  0.00000000000E+00  0.00000000000E+00  0.44158257108E+03  0.44160758268E+03  0.47000000000E+01 0. -1.
         -5   -1    0    0    0  501 -0.00000000000E+00 -0.00000000000E+00 -0.20335419309E+03  0.20340849994E+03  0.47000000000E+01 0.  1.
          6    1    1    2  502    0  0.17250336524E+02  0.21334202094E+02  0.38156956372E+03  0.41944255178E+03  0.17200000000E+03 0. -1.
         -6    1    1    2    0  502 -0.17250336524E+02 -0.21334202094E+02 -0.14334118573E+03  0.22557353084E+03  0.17200000000E+03 0.  1.
</event>
<event>
 4    1 -0.6855026E-004  0.2805480E+03  0.7818608E-02  0.1095390E+00
          5   -1    0    0  501    0  0.00000000000E+00  0.00000000000E+00  0.86409506756E+03  0.86410784962E+03  0.47000000000E+01 0. -1.
         -5   -1    0    0    0  501 -0.00000000000E+00 -0.00000000000E+00 -0.14690583029E+03  0.14698099528E+03  0.47000000000E+01 0.  1.
          6    1    1    2  502    0 -0.22163182466E+03  0.15920751406E+01  0.67030912942E+03  0.72665089926E+03  0.17200000000E+03 0. -1.
         -6    1    1    2    0  502  0.22163182466E+03 -0.15920751406E+01  0.46880107846E+02  0.28443794564E+03  0.17200000000E+03 0.  1.
</event>
<event>
 4    1 -0.6855026E-004  0.1820495E+03  0.7818608E-02  0.1165834E+00
          5   -1    0    0  501    0  0.00000000000E+00  0.00000000000E+00  0.57291303482E+03  0.57293231316E+03  0.47000000000E+01 0. -1.
         -5   -1    0    0    0  501 -0.00000000000E+00 -0.00000000000E+00 -0.10329822707E+03  0.10340509521E+03  0.47000000000E+01 0.  1.
          6    1    1    2  502    0  0.54228537823E+02  0.24845291145E+02  0.45922284206E+03  0.49399153988E+03  0.17200000000E+03 0. -1.
         -6    1    1    2    0  502 -0.54228537823E+02 -0.24845291145E+02  0.10391965688E+02  0.18234586850E+03  0.17200000000E+03 0.  1.
</event>
<event>
 4    1 -0.6855026E-004  0.1984644E+03  0.7818608E-02  0.1151041E+00
          5   -1    0    0  501    0  0.00000000000E+00  0.00000000000E+00  0.12261571383E+03  0.12270575894E+03  0.47000000000E+01 0. -1.
         -5   -1    0    0    0  501 -0.00000000000E+00 -0.00000000000E+00 -0.76509007862E+03  0.76510451470E+03  0.47000000000E+01 0.  1.
          6    1    1    2  502    0  0.87270211307E+02 -0.46776529017E+02  0.16931526825E+02  0.19918536605E+03  0.17200000000E+03 0. -1.
         -6    1    1    2    0  502 -0.87270211307E+02  0.46776529017E+02 -0.65940589162E+03  0.68862490759E+03  0.17200000000E+03 0.  1.
</event>
<event>
 4    1 -0.6855026E-004  0.1827569E+03  0.7818608E-02  0.1165161E+00
          5   -1    0    0  501    0  0.00000000000E+00  0.00000000000E+00  0.33095260847E+03  0.33098598014E+03  0.47000000000E+01 0. -1.
         -5   -1    0    0    0  501 -0.00000000000E+00 -0.00000000000E+00 -0.20124077470E+04  0.20124132355E+04  0.47000000000E+01 0.  1.
          6    1    1    2  502    0 -0.23910189912E+02 -0.56959620616E+02  0.30121618691E+03  0.35232270267E+03  0.17200000000E+03 0. -1.
         -6    1    1    2    0  502  0.23910189912E+02  0.56959620616E+02 -0.19826713255E+04  0.19910765130E+04  0.17200000000E+03 0.  1.
</event>
<event>
 4    1 -0.6855026E-004  0.1882795E+03  0.7818608E-02  0.1160022E+00
          5   -1    0    0  501    0  0.00000000000E+00  0.00000000000E+00  0.92860992357E+02  0.92979857504E+02  0.47000000000E+01 0. -1.
         -5   -1    0    0    0  501 -0.00000000000E+00 -0.00000000000E+00 -0.12050614424E+04  0.12050706078E+04  0.47000000000E+01 0.  1.
          6    1    1    2  502    0  0.61996653585E+02  0.44961903856E+02 -0.19543987795E+02  0.18929111261E+03  0.17200000000E+03 0. -1.
         -6    1    1    2    0  502 -0.61996653585E+02 -0.44961903856E+02 -0.10926564622E+04  0.11087593527E+04  0.17200000000E+03 0.  1.
</event>
<event>
 4    1 -0.6855026E-004  0.2034958E+03  0.7818608E-02  0.1146823E+00
          5   -1    0    0  501    0  0.00000000000E+00  0.00000000000E+00  0.10771499129E+04  0.10771601668E+04  0.47000000000E+01 0. -1.
         -5   -1    0    0    0  501 -0.00000000000E+00 -0.00000000000E+00 -0.56230516528E+02  0.56426598241E+02  0.47000000000E+01 0.  1.
          6    1    1    2  502    0 -0.10236156609E+03 -0.36724236904E+02  0.82989275778E+03  0.85447793956E+03  0.17200000000E+03 0. -1.
         -6    1    1    2    0  502  0.10236156609E+03  0.36724236904E+02  0.19102663860E+03  0.27910882545E+03  0.17200000000E+03 0.  1.
</event>
<event>
 4    1 -0.6855026E-004  0.2221166E+03  0.7818608E-02  0.1132315E+00
         -5   -1    0    0    0  501 -0.00000000000E+00  0.00000000000E+00  0.12760415321E+04  0.12760501877E+04  0.47000000000E+01 0.  1.
          5   -1    0    0  501    0  0.00000000000E+00 -0.00000000000E+00 -0.61986524410E+02  0.62164452933E+02  0.47000000000E+01 0. -1.
          6    1    1    2  502    0 -0.46169366665E+02  0.13274102294E+03  0.19605829809E+03  0.29626786164E+03  0.17200000000E+03 0. -1.
         -6    1    1    2    0  502  0.46169366665E+02 -0.13274102294E+03  0.10179967096E+04  0.10419467790E+04  0.17200000000E+03 0.  1.
</event>
<event>
 4    1 -0.6855026E-004  0.3096902E+03  0.7818608E-02  0.1080494E+00
          5   -1    0    0  501    0  0.00000000000E+00  0.00000000000E+00  0.13536503046E+04  0.13536584640E+04  0.47000000000E+01 0. -1.
         -5   -1    0    0    0  501 -0.00000000000E+00 -0.00000000000E+00 -0.16004997044E+04  0.16005066054E+04  0.47000000000E+01 0.  1.
          6    1    1    2  502    0 -0.25600244638E+03 -0.28049104556E+02  0.13205941533E+04  0.13564206289E+04  0.17200000000E+03 0. -1.
         -6    1    1    2    0  502  0.25600244638E+03  0.28049104556E+02 -0.15674435531E+04  0.15977444404E+04  0.17200000000E+03 0.  1.
</event>
<event>
 4    1 -0.6855026E-004  0.1782236E+03  0.7818608E-02  0.1169533E+00
          5   -1    0    0  501    0  0.00000000000E+00  0.00000000000E+00  0.27152456427E+03  0.27156523894E+03  0.47000000000E+01 0. -1.
         -5   -1    0    0    0  501 -0.00000000000E+00 -0.00000000000E+00 -0.11980786585E+03  0.11990001968E+03  0.47000000000E+01 0.  1.
          6    1    1    2  502    0 -0.46544593522E+02 -0.36426488022E+01  0.45308583376E+02  0.18389272907E+03  0.17200000000E+03 0.  1.
         -6    1    1    2    0  502  0.46544593522E+02  0.36426488022E+01  0.10640811504E+03  0.20757252955E+03  0.17200000000E+03 0. -1.
</event>
<event>
 4    1 -0.6855026E-004  0.1865588E+03  0.7818608E-02  0.1161602E+00
         -5   -1    0    0    0  501 -0.00000000000E+00  0.00000000000E+00  0.24618327692E+03  0.24622813778E+03  0.47000000000E+01 0.  1.
          5   -1    0    0  501    0  0.00000000000E+00 -0.00000000000E+00 -0.25421123332E+03  0.25425467772E+03  0.47000000000E+01 0. -1.
          6    1    1    2  502    0  0.50705733783E+02  0.51469601396E+02 -0.17077012829E+03  0.25291624705E+03  0.17200000000E+03 0. -1.
         -6    1    1    2    0  502 -0.50705733783E+02 -0.51469601396E+02  0.16274217189E+03  0.24756656845E+03  0.17200000000E+03 0.  1.
</event>
<event>
 4    1 -0.6855026E-004  0.1808667E+03  0.7818608E-02  0.1166967E+00
         -5   -1    0    0    0  501 -0.00000000000E+00  0.00000000000E+00  0.42747543318E+03  0.42750127014E+03  0.47000000000E+01 0.  1.
          5   -1    0    0  501    0  0.00000000000E+00 -0.00000000000E+00 -0.30615999137E+03  0.30619606515E+03  0.47000000000E+01 0. -1.
          6    1    1    2  502    0  0.75763467940E+01  0.55419729289E+02 -0.25706179725E+03  0.31431435702E+03  0.17200000000E+03 0. -1.
         -6    1    1    2    0  502 -0.75763467940E+01 -0.55419729289E+02  0.37837723906E+03  0.41938297827E+03  0.17200000000E+03 0.  1.
</event>
<event>
 4    1 -0.6855026E-004  0.4304518E+03  0.7818608E-02  0.1033717E+00
          5   -1    0    0  501    0  0.00000000000E+00  0.00000000000E+00  0.15655011984E+03  0.15662065643E+03  0.47000000000E+01 0. -1.
         -5   -1    0    0    0  501 -0.00000000000E+00 -0.00000000000E+00 -0.16743486693E+04  0.16743552659E+04  0.47000000000E+01 0.  1.
          6    1    1    2  502    0  0.64440787610E+02  0.38929694445E+03 -0.26309354854E+03  0.50448680988E+03  0.17200000000E+03 0. -1.
         -6    1    1    2    0  502 -0.64440787610E+02 -0.38929694445E+03 -0.12547050009E+04  0.13264891124E+04  0.17200000000E+03 0.  1.
</event>
<event>
 4    1 -0.6855026E-004  0.2387823E+03  0.7818608E-02  0.1120607E+00
          5   -1    0    0  501    0  0.00000000000E+00  0.00000000000E+00  0.14033511999E+03  0.14041380240E+03  0.47000000000E+01 0. -1.
         -5   -1    0    0    0  501 -0.00000000000E+00 -0.00000000000E+00 -0.74981756823E+03  0.74983229834E+03  0.47000000000E+01 0.  1.
          6    1    1    2  502    0  0.98233931231E+02 -0.13335327636E+03 -0.33827666592E+01  0.23880629110E+03  0.17200000000E+03 0. -1.
         -6    1    1    2    0  502 -0.98233931231E+02  0.13335327636E+03 -0.60609968158E+03  0.65143980963E+03  0.17200000000E+03 0.  1.
</event>
<event>
 4    1 -0.6855026E-004  0.1865670E+03  0.7818608E-02  0.1161595E+00
         -5   -1    0    0    0  501 -0.00000000000E+00  0.00000000000E+00  0.12024937855E+03  0.12034119429E+03  0.47000000000E+01 0.  1.
          5   -1    0    0  501    0  0.00000000000E+00 -0.00000000000E+00 -0.41094521134E+03  0.41097208752E+03  0.47000000000E+01 0. -1.
          6    1    1    2  502    0  0.41773257415E+02  0.58976680446E+02 -0.28989921842E+03  0.34474455864E+03  0.17200000000E+03 0. -1.
         -6    1    1    2    0  502 -0.41773257415E+02 -0.58976680446E+02 -0.79661436709E+00  0.18656872317E+03  0.17200000000E+03 0.  1.
</event>
<event>
 4    1 -0.6855026E-004  0.1899777E+03  0.7818608E-02  0.1158481E+00
          5   -1    0    0  501    0  0.00000000000E+00  0.00000000000E+00  0.78834967213E+03  0.78836368229E+03  0.47000000000E+01 0. -1.
         -5   -1    0    0    0  501 -0.00000000000E+00 -0.00000000000E+00 -0.58179699637E+02  0.58369233761E+02  0.47000000000E+01 0.  1.
          6    1    1    2  502    0 -0.26813500021E+02  0.76082586173E+02  0.56120192150E+03  0.59248554446E+03  0.17200000000E+03 0. -1.
         -6    1    1    2    0  502  0.26813500021E+02 -0.76082586173E+02  0.16896805100E+03  0.25424737159E+03  0.17200000000E+03 0.  1.
</event>
<event>
 4    1 -0.6855026E-004  0.1875335E+03  0.7818608E-02  0.1160705E+00
          5   -1    0    0  501    0  0.00000000000E+00  0.00000000000E+00  0.94645984427E+02  0.94762610602E+02  0.47000000000E+01 0. -1.
         -5   -1    0    0    0  501 -0.00000000000E+00 -0.00000000000E+00 -0.76535884060E+03  0.76537327161E+03  0.47000000000E+01 0.  1.
          6    1    1    2  502    0  0.47482778712E+02  0.57707840101E+02 -0.26761724200E+02  0.18943336286E+03  0.17200000000E+03 0. -1.
         -6    1    1    2    0  502 -0.47482778712E+02 -0.57707840101E+02 -0.64395113197E+03  0.67070251934E+03  0.17200000000E+03 0.  1.
</event>
<event>
 4    1 -0.6855026E-004  0.2045097E+03  0.7818608E-02  0.1145989E+00
         -5   -1    0    0    0  501 -0.00000000000E+00  0.00000000000E+00  0.44405789844E+02  0.44653825947E+02  0.47000000000E+01 0.  1.
          5   -1    0    0  501    0  0.00000000000E+00 -0.00000000000E+00 -0.10851391990E+04  0.10851493773E+04  0.47000000000E+01 0. -1.
          6    1    1    2  502    0 -0.44478552616E+02  0.10130085041E+03 -0.72765816340E+03  0.75585091566E+03  0.17200000000E+03 0. -1.
         -6    1    1    2    0  502  0.44478552616E+02 -0.10130085041E+03 -0.31307524572E+03  0.37395228763E+03  0.17200000000E+03 0.  1.
</event>
<event>
 4    1 -0.6855026E-004  0.1780993E+03  0.7818608E-02  0.1169655E+00
          5   -1    0    0  501    0  0.00000000000E+00  0.00000000000E+00  0.55529809549E+02  0.55728356772E+02  0.47000000000E+01 0. -1.
         -5   -1    0    0    0  501 -0.00000000000E+00 -0.00000000000E+00 -0.11254511629E+04  0.11254609767E+04  0.47000000000E+01 0.  1.
          6    1    1    2  502    0  0.45862790862E+02 -0.56547233543E+01 -0.12008921079E+03  0.21480407359E+03  0.17200000000E+03 0. -1.
         -6    1    1    2    0  502 -0.45862790862E+02  0.56547233543E+01 -0.94983214258E+03  0.96638525991E+03  0.17200000000E+03 0.  1.
</event>
<event>
 4    1 -0.6855026E-004  0.2024465E+03  0.7818608E-02  0.1147691E+00
         -5   -1    0    0    0  501 -0.00000000000E+00  0.00000000000E+00  0.20917535410E+04  0.20917588213E+04  0.47000000000E+01 0.  1.
          5   -1    0    0  501    0  0.00000000000E+00 -0.00000000000E+00 -0.20220877580E+02  0.20759910648E+02  0.47000000000E+01 0. -1.
          6    1    1    2  502    0 -0.34120259549E+02 -0.10117512650E+03  0.81414536948E+03  0.83893818662E+03  0.17200000000E+03 0. -1.
         -6    1    1    2    0  502  0.34120259549E+02  0.10117512650E+03  0.12573872939E+04  0.12735805453E+04  0.17200000000E+03 0. -1.
</event>
<event>
 4    1 -0.6855026E-004  0.1761499E+03  0.7818608E-02  0.1171582E+00
         -5   -1    0    0    0  501 -0.00000000000E+00  0.00000000000E+00  0.90354295446E+03  0.90355517848E+03  0.47000000000E+01 0.  1.
          5   -1    0    0  501    0  0.00000000000E+00 -0.00000000000E+00 -0.17160033834E+03  0.17166469095E+03  0.47000000000E+01 0. -1.
          6    1    1    2  502    0  0.25002866484E+02 -0.28629649362E+02 -0.11486049099E+03  0.21028963965E+03  0.17200000000E+03 0. -1.
         -6    1    1    2    0  502 -0.25002866484E+02  0.28629649362E+02  0.84680310711E+03  0.86493022977E+03  0.17200000000E+03 0.  1.
</event>
<event>
 4    1 -0.6855026E-004  0.1856130E+03  0.7818608E-02  0.1162479E+00
         -5   -1    0    0    0  501 -0.00000000000E+00  0.00000000000E+00  0.88459186727E+02  0.88583958573E+02  0.47000000000E+01 0.  1.
          5   -1    0    0  501    0  0.00000000000E+00 -0.00000000000E+00 -0.41858781978E+03  0.41861420528E+03  0.47000000000E+01 0. -1.
          6    1    1    2  502    0 -0.19970840455E+02  0.66853301101E+02 -0.23241106803E+03  0.29743419925E+03  0.17200000000E+03 0. -1.
         -6    1    1    2    0  502  0.19970840455E+02 -0.66853301101E+02 -0.97717565015E+02  0.20976396461E+03  0.17200000000E+03 0.  1.
</event>
<event>
 4    1 -0.6855026E-004  0.1935989E+03  0.7818608E-02  0.1155255E+00
         -5   -1    0    0    0  501 -0.00000000000E+00  0.00000000000E+00  0.31200293186E+04  0.31200328586E+04  0.47000000000E+01 0.  1.
          5   -1    0    0  501    0  0.00000000000E+00 -0.00000000000E+00 -0.42013665284E+02  0.42275738558E+02  0.47000000000E+01 0. -1.
          6    1    1    2  502    0  0.36942709063E+02  0.80819253294E+02  0.20203423887E+03  0.27981842172E+03  0.17200000000E+03 0. -1.
         -6    1    1    2    0  502 -0.36942709063E+02 -0.80819253294E+02  0.28759814144E+04  0.28824901754E+04  0.17200000000E+03 0.  1.
</event>
<event>
 4    1 -0.6855026E-004  0.1755689E+03  0.7818608E-02  0.1172162E+00
          5   -1    0    0  501    0  0.00000000000E+00  0.00000000000E+00  0.37387725975E+02  0.37681985797E+02  0.47000000000E+01 0. -1.
         -5   -1    0    0    0  501 -0.00000000000E+00 -0.00000000000E+00 -0.12847339234E+04  0.12847425205E+04  0.47000000000E+01 0.  1.
          6    1    1    2  502    0  0.18550806495E+02 -0.29938186927E+02 -0.22643179471E+03  0.28652362052E+03  0.17200000000E+03 0. -1.
         -6    1    1    2    0  502 -0.18550806495E+02  0.29938186927E+02 -0.10209144027E+04  0.10359008858E+04  0.17200000000E+03 0.  1.
</event>
<event>
 4    1 -0.6855026E-004  0.1825673E+03  0.7818608E-02  0.1165341E+00
         -5   -1    0    0    0  501 -0.00000000000E+00  0.00000000000E+00  0.59158382946E+03  0.59160249938E+03  0.47000000000E+01 0.  1.
          5   -1    0    0  501    0  0.00000000000E+00 -0.00000000000E+00 -0.89336374859E+02  0.89459923278E+02  0.47000000000E+01 0. -1.
          6    1    1    2  502    0 -0.94815208788E+01  0.60472373518E+02  0.44012227927E+02  0.18779745314E+03  0.17200000000E+03 0. -1.
         -6    1    1    2    0  502  0.94815208788E+01 -0.60472373518E+02  0.45823522667E+03  0.49326496952E+03  0.17200000000E+03 0.  1.
</event>
<event>
 4    1 -0.6855026E-004  0.3091162E+03  0.7818608E-02  0.1080770E+00
          5   -1    0    0  501    0  0.00000000000E+00  0.00000000000E+00  0.20251803001E+03  0.20257256102E+03  0.47000000000E+01 0. -1.
         -5   -1    0    0    0  501 -0.00000000000E+00 -0.00000000000E+00 -0.20725628464E+04  0.20725681755E+04  0.47000000000E+01 0.  1.
          6    1    1    2  502    0  0.25438248305E+03 -0.35473372566E+02  0.64736034357E+02  0.31582204164E+03  0.17200000000E+03 0. -1.
         -6    1    1    2    0  502 -0.25438248305E+03  0.35473372566E+02 -0.19347808507E+04  0.19593186949E+04  0.17200000000E+03 0.  1.
</event>
<event>
 4    1 -0.6855026E-004  0.1906436E+03  0.7818608E-02  0.1157882E+00
         -5   -1    0    0    0  501 -0.00000000000E+00  0.00000000000E+00  0.19186064163E+04  0.19186121731E+04  0.47000000000E+01 0.  1.
          5   -1    0    0  501    0  0.00000000000E+00 -0.00000000000E+00 -0.19129888177E+02  0.19698797468E+02  0.47000000000E+01 0. -1.
          6    1    1    2  502    0 -0.33944679372E+02 -0.74891490879E+02  0.11015802559E+04  0.11179552929E+04  0.17200000000E+03 0. -1.
         -6    1    1    2    0  502  0.33944679372E+02  0.74891490879E+02  0.79789627222E+03  0.82035567767E+03  0.17200000000E+03 0.  1.
</event>
<event>
 4    1 -0.6855026E-004  0.1763497E+03  0.7818608E-02  0.1171383E+00
         -5   -1    0    0    0  501 -0.00000000000E+00  0.00000000000E+00  0.34761067392E+03  0.34764244652E+03  0.47000000000E+01 0.  1.
          5   -1    0    0  501    0  0.00000000000E+00 -0.00000000000E+00 -0.29585656796E+03  0.29589389789E+03  0.47000000000E+01 0. -1.
          6    1    1    2  502    0 -0.33438755079E+02  0.19926432136E+02 -0.24288510367E+03  0.30015393821E+03  0.17200000000E+03 0. -1.
         -6    1    1    2    0  502  0.33438755079E+02 -0.19926432136E+02  0.29463920963E+03  0.34338240620E+03  0.17200000000E+03 0.  1.
</event>
<event>
 4    1 -0.6855026E-004  0.1776611E+03  0.7818608E-02  0.1170086E+00
          5   -1    0    0  501    0  0.00000000000E+00  0.00000000000E+00  0.49502237679E+03  0.49504468841E+03  0.47000000000E+01 0. -1.
         -5   -1    0    0    0  501 -0.00000000000E+00 -0.00000000000E+00 -0.27256902446E+03  0.27260954330E+03  0.47000000000E+01 0.  1.
          6    1    1    2  502    0 -0.27096984919E+02  0.35287846304E+02  0.44718243790E+03  0.48118147456E+03  0.17200000000E+03 0. -1.
         -6    1    1    2    0  502  0.27096984919E+02 -0.35287846304E+02 -0.22472908557E+03  0.28647275715E+03  0.17200000000E+03 0.  1.
</event>
<event>
 4    1 -0.6855026E-004  0.3752095E+03  0.7818608E-02  0.1052719E+00
         -5   -1    0    0    0  501 -0.00000000000E+00  0.00000000000E+00  0.19875949750E+03  0.19881505941E+03  0.47000000000E+01 0.  1.
          5   -1    0    0  501    0  0.00000000000E+00 -0.00000000000E+00 -0.14945890519E+04  0.14945964419E+04  0.47000000000E+01 0. -1.
          6    1    1    2  502    0 -0.30917895912E+03 -0.12492617764E+03 -0.12620961849E+04  0.13166886338E+04  0.17200000000E+03 0. -1.
         -6    1    1    2    0  502  0.30917895912E+03  0.12492617764E+03 -0.33733369514E+02  0.37672286742E+03  0.17200000000E+03 0.  1.
</event>
<event>
 4    1 -0.6855026E-004  0.1795237E+03  0.7818608E-02  0.1168265E+00
          5   -1    0    0  501    0  0.00000000000E+00  0.00000000000E+00  0.36138096326E+02  0.36442447861E+02  0.47000000000E+01 0. -1.
         -5   -1    0    0    0  501 -0.00000000000E+00 -0.00000000000E+00 -0.13471178925E+04  0.13471260915E+04  0.47000000000E+01 0.  1.
          6    1    1    2  502    0 -0.50837468569E+02 -0.77658073912E+01 -0.25157756374E+03  0.30906314331E+03  0.17200000000E+03 0. -1.
         -6    1    1    2    0  502  0.50837468569E+02  0.77658073912E+01 -0.10594022324E+04  0.10745053960E+04  0.17200000000E+03 0.  1.
</event>
<event>
 4    1 -0.6855026E-004  0.1750732E+03  0.7818608E-02  0.1172658E+00
         -5   -1    0    0    0  501 -0.00000000000E+00  0.00000000000E+00  0.14398763795E+03  0.14406432550E+03  0.47000000000E+01 0.  1.
          5   -1    0    0  501    0  0.00000000000E+00 -0.00000000000E+00 -0.14557928004E+04  0.14558003874E+04  0.47000000000E+01 0. -1.
          6    1    1    2  502    0 -0.21410656126E+02 -0.24662030064E+02 -0.13950610103E+04  0.14060035044E+04  0.17200000000E+03 0. -1.
         -6    1    1    2    0  502  0.21410656126E+02  0.24662030064E+02  0.83255847851E+02  0.19386120840E+03  0.17200000000E+03 0.  1.
</event>
<event>
 4    1 -0.6855026E-004  0.2043468E+03  0.7818608E-02  0.1146123E+00
          5   -1    0    0  501    0  0.00000000000E+00  0.00000000000E+00  0.22078002030E+03  0.22083004180E+03  0.47000000000E+01 0. -1.
         -5   -1    0    0    0  501 -0.00000000000E+00 -0.00000000000E+00 -0.55205723423E+03  0.55207724085E+03  0.47000000000E+01 0.  1.
          6    1    1    2  502    0 -0.14657934510E+02  0.10935610858E+03  0.14771609542E+03  0.25214610521E+03  0.17200000000E+03 0. -1.
         -6    1    1    2    0  502  0.14657934510E+02 -0.10935610858E+03 -0.47899330935E+03  0.52076117744E+03  0.17200000000E+03 0.  1.
</event>
<event>
 4    1 -0.6855026E-004  0.1791039E+03  0.7818608E-02  0.1168673E+00
         -5   -1    0    0    0  501 -0.00000000000E+00  0.00000000000E+00  0.49600527050E+03  0.49602753791E+03  0.47000000000E+01 0.  1.
          5   -1    0    0  501    0  0.00000000000E+00 -0.00000000000E+00 -0.65404964118E+02  0.65573617647E+02  0.47000000000E+01 0. -1.
          6    1    1    2  502    0  0.41859907757E+02  0.27239156791E+02  0.24709398026E+03  0.30517807690E+03  0.17200000000E+03 0. -1.
         -6    1    1    2    0  502 -0.41859907757E+02 -0.27239156791E+02  0.18350632612E+03  0.25642307865E+03  0.17200000000E+03 0. -1.
</event>
<event>
 4    1 -0.6855026E-004  0.2445391E+03  0.7818608E-02  0.1116805E+00
          5   -1    0    0  501    0  0.00000000000E+00  0.00000000000E+00  0.26867103120E+03  0.26871213781E+03  0.47000000000E+01 0. -1.
         -5   -1    0    0    0  501 -0.00000000000E+00 -0.00000000000E+00 -0.22266978893E+03  0.22271938601E+03  0.47000000000E+01 0.  1.
          6    1    1    2  502    0  0.96888508662E+02 -0.14431903080E+03  0.29947866281E+02  0.24636607002E+03  0.17200000000E+03 0.  1.
         -6    1    1    2    0  502 -0.96888508662E+02  0.14431903080E+03  0.16053375985E+02  0.24506545379E+03  0.17200000000E+03 0.  1.
</event>
<event>
 4    1 -0.6855026E-004  0.1869820E+03  0.7818608E-02  0.1161212E+00
          5   -1    0    0  501    0  0.00000000000E+00  0.00000000000E+00  0.99475927259E+03  0.99477037572E+03  0.47000000000E+01 0. -1.
         -5   -1    0    0    0  501 -0.00000000000E+00 -0.00000000000E+00 -0.14272681279E+03  0.14280417743E+03  0.47000000000E+01 0.  1.
          6    1    1    2  502    0  0.40124295458E+02 -0.61386694091E+02  0.91985896070E+03  0.93867075851E+03  0.17200000000E+03 0. -1.
         -6    1    1    2    0  502 -0.40124295458E+02  0.61386694091E+02 -0.67826500900E+02  0.19890379464E+03  0.17200000000E+03 0.  1.
</event>
<event>
 4    1 -0.6855026E-004  0.2200959E+03  0.7818608E-02  0.1133812E+00
          5   -1    0    0  501    0  0.00000000000E+00  0.00000000000E+00  0.65562314478E+03  0.65563999113E+03  0.47000000000E+01 0. -1.
         -5   -1    0    0    0  501 -0.00000000000E+00 -0.00000000000E+00 -0.14706018360E+03  0.14713526974E+03  0.47000000000E+01 0.  1.
          6    1    1    2  502    0 -0.12145182490E+03 -0.64091008548E+02  0.53746989212E+03  0.58078919418E+03  0.17200000000E+03 0. -1.
         -6    1    1    2    0  502  0.12145182490E+03  0.64091008548E+02 -0.28906930939E+02  0.22198606669E+03  0.17200000000E+03 0.  1.
</event>
<event>
 4    1 -0.6855026E-004  0.1777927E+03  0.7818608E-02  0.1169957E+00
         -5   -1    0    0    0  501 -0.00000000000E+00  0.00000000000E+00  0.85358302489E+03  0.85359596437E+03  0.47000000000E+01 0.  1.
          5   -1    0    0  501    0  0.00000000000E+00 -0.00000000000E+00 -0.19264995645E+03  0.19270727988E+03  0.47000000000E+01 0. -1.
          6    1    1    2  502    0  0.36483106720E+02 -0.26366834556E+02 -0.13973491541E+03  0.22613286719E+03  0.17200000000E+03 0. -1.
         -6    1    1    2    0  502 -0.36483106720E+02  0.26366834556E+02  0.80066798385E+03  0.82017037706E+03  0.17200000000E+03 0.  1.
</event>
<event>
 4    1 -0.6855026E-004  0.1767742E+03  0.7818608E-02  0.1170962E+00
         -5   -1    0    0    0  501 -0.00000000000E+00  0.00000000000E+00  0.96353048205E+02  0.96467610618E+02  0.47000000000E+01 0.  1.
          5   -1    0    0  501    0  0.00000000000E+00 -0.00000000000E+00 -0.73844683750E+03  0.73846179442E+03  0.47000000000E+01 0. -1.
          6    1    1    2  502    0 -0.33063831345E+02 -0.23914518724E+02 -0.63376746939E+03  0.65795921333E+03  0.17200000000E+03 0. -1.
         -6    1    1    2    0  502  0.33063831345E+02  0.23914518724E+02 -0.83263199051E+01  0.17697019171E+03  0.17200000000E+03 0.  1.
</event>
<event>
 4    1 -0.6855026E-004  0.1774265E+03  0.7818608E-02  0.1170317E+00
          5   -1    0    0  501    0  0.00000000000E+00  0.00000000000E+00  0.48936703002E+03  0.48938959947E+03  0.47000000000E+01 0. -1.
         -5   -1    0    0    0  501 -0.00000000000E+00 -0.00000000000E+00 -0.12746830923E+03  0.12755492879E+03  0.47000000000E+01 0.  1.
          6    1    1    2  502    0 -0.32701942091E+02 -0.28753294401E+02  0.39811271334E+03  0.43585995627E+03  0.17200000000E+03 0. -1.
         -6    1    1    2    0  502  0.32701942091E+02  0.28753294401E+02 -0.36213992552E+02  0.18108457199E+03  0.17200000000E+03 0.  1.
</event>
<event>
 4    1 -0.6855026E-004  0.2086763E+03  0.7818608E-02  0.1142619E+00
          5   -1    0    0  501    0  0.00000000000E+00  0.00000000000E+00  0.90980625493E+03  0.90981839480E+03  0.47000000000E+01 0. -1.
         -5   -1    0    0    0  501 -0.00000000000E+00 -0.00000000000E+00 -0.47736490131E+02  0.47967306470E+02  0.47000000000E+01 0.  1.
          6    1    1    2  502    0  0.47939376739E+02 -0.10799822178E+03  0.42823101541E+03  0.47636918698E+03  0.17200000000E+03 0. -1.
         -6    1    1    2    0  502 -0.47939376739E+02  0.10799822178E+03  0.43383874939E+03  0.48141651429E+03  0.17200000000E+03 0.  1.
</event>
<event>
 4    1 -0.6855026E-004  0.1945461E+03  0.7818608E-02  0.1154424E+00
         -5   -1    0    0    0  501 -0.00000000000E+00  0.00000000000E+00  0.32814675207E+03  0.32818040907E+03  0.47000000000E+01 0.  1.
          5   -1    0    0  501    0  0.00000000000E+00 -0.00000000000E+00 -0.14633787087E+03  0.14641332743E+03  0.47000000000E+01 0. -1.
          6    1    1    2  502    0 -0.74693712120E+02 -0.51817370425E+02 -0.18420679058E+02  0.19541625297E+03  0.17200000000E+03 0. -1.
         -6    1    1    2    0  502  0.74693712120E+02  0.51817370425E+02  0.20022956026E+03  0.27917748353E+03  0.17200000000E+03 0.  1.
</event>
<event>
 4    1 -0.6855026E-004  0.3121044E+03  0.7818608E-02  0.1079342E+00
          5   -1    0    0  501    0  0.00000000000E+00  0.00000000000E+00  0.24207749925E+03  0.24212312084E+03  0.47000000000E+01 0. -1.
         -5   -1    0    0    0  501 -0.00000000000E+00 -0.00000000000E+00 -0.41301157554E+03  0.41303831727E+03  0.47000000000E+01 0.  1.
          6    1    1    2  502    0 -0.42327394657E+02 -0.25696997665E+03 -0.13823925014E+03  0.34134918708E+03  0.17200000000E+03 0.  1.
         -6    1    1    2    0  502  0.42327394657E+02  0.25696997665E+03 -0.32694826156E+02  0.31381225103E+03  0.17200000000E+03 0.  1.
</event>
<event>
 4    1 -0.6855026E-004  0.2267765E+03  0.7818608E-02  0.1128929E+00
          5   -1    0    0  501    0  0.00000000000E+00  0.00000000000E+00  0.25178663211E+03  0.25183049480E+03  0.47000000000E+01 0. -1.
         -5   -1    0    0    0  501 -0.00000000000E+00 -0.00000000000E+00 -0.45607374406E+03  0.45609796100E+03  0.47000000000E+01 0.  1.
          6    1    1    2  502    0  0.12887900464E+03  0.72344752525E+02  0.16089937773E+03  0.27805785515E+03  0.17200000000E+03 0. -1.
         -6    1    1    2    0  502 -0.12887900464E+03 -0.72344752525E+02 -0.36518648968E+03  0.42987060065E+03  0.17200000000E+03 0.  1.
</event>
<event>
 4    1 -0.6855026E-004  0.1817136E+03  0.7818608E-02  0.1166155E+00
          5   -1    0    0  501    0  0.00000000000E+00  0.00000000000E+00  0.16306064281E+03  0.16312836429E+03  0.47000000000E+01 0. -1.
         -5   -1    0    0    0  501 -0.00000000000E+00 -0.00000000000E+00 -0.23329797114E+03  0.23334530922E+03  0.47000000000E+01 0.  1.
          6    1    1    2  502    0  0.17736048570E+02 -0.55868413852E+02  0.37048691789E+02  0.18545202250E+03  0.17200000000E+03 0. -1.
         -6    1    1    2    0  502 -0.17736048570E+02  0.55868413852E+02 -0.10728602011E+03  0.21102165101E+03  0.17200000000E+03 0.  1.
</event>
<event>
 4    1 -0.6855026E-004  0.1933869E+03  0.7818608E-02  0.1155442E+00
         -5   -1    0    0    0  501 -0.00000000000E+00  0.00000000000E+00  0.26293372733E+03  0.26297573076E+03  0.47000000000E+01 0.  1.
          5   -1    0    0  501    0  0.00000000000E+00 -0.00000000000E+00 -0.36711172066E+03  0.36714180563E+03  0.47000000000E+01 0. -1.
          6    1    1    2  502    0  0.88398949478E+02  0.34438557733E+00 -0.29869098905E+03  0.35582973430E+03  0.17200000000E+03 0. -1.
         -6    1    1    2    0  502 -0.88398949478E+02 -0.34438557733E+00  0.19451299573E+03  0.27428780209E+03  0.17200000000E+03 0.  1.
</event>
<event>
 4    1 -0.6855026E-004  0.2011896E+03  0.7818608E-02  0.1148739E+00
         -5   -1    0    0    0  501 -0.00000000000E+00  0.00000000000E+00  0.35956906301E+03  0.35959977902E+03  0.47000000000E+01 0.  1.
          5   -1    0    0  501    0  0.00000000000E+00 -0.00000000000E+00 -0.20240005158E+03  0.20245461437E+03  0.47000000000E+01 0. -1.
          6    1    1    2  502    0  0.89184923807E+01 -0.10398903075E+03 -0.10867315807E+03  0.22866375600E+03  0.17200000000E+03 0. -1.
         -6    1    1    2    0  502 -0.89184923807E+01  0.10398903075E+03  0.26584216950E+03  0.33339063740E+03  0.17200000000E+03 0.  1.
</event>
<event>
 4    1 -0.6855026E-004  0.2584615E+03  0.7818608E-02  0.1108071E+00
         -5   -1    0    0    0  501 -0.00000000000E+00  0.00000000000E+00  0.56253421785E+03  0.56255385187E+03  0.47000000000E+01 0.  1.
          5   -1    0    0  501    0  0.00000000000E+00 -0.00000000000E+00 -0.13120223019E+03  0.13128638622E+03  0.47000000000E+01 0. -1.
          6    1    1    2  502    0 -0.70288771500E+02 -0.17966037271E+03  0.10855207006E+03  0.28033179063E+03  0.17200000000E+03 0. -1.
         -6    1    1    2    0  502  0.70288771500E+02  0.17966037271E+03  0.32277991760E+03  0.41350844747E+03  0.17200000000E+03 0.  1.
</event>
<event>
 4    1 -0.6855026E-004  0.1777380E+03  0.7818608E-02  0.1170010E+00
          5   -1    0    0  501    0  0.00000000000E+00  0.00000000000E+00  0.33438026537E+03  0.33441329500E+03  0.47000000000E+01 0. -1.
         -5   -1    0    0    0  501 -0.00000000000E+00 -0.00000000000E+00 -0.16439510610E+03  0.16446227807E+03  0.47000000000E+01 0.  1.
          6    1    1    2  502    0  0.74609304988E+01 -0.44171424704E+02  0.24771606335E+03  0.30488363073E+03  0.17200000000E+03 0. -1.
         -6    1    1    2    0  502 -0.74609304988E+01  0.44171424704E+02 -0.77730904075E+02  0.19399194234E+03  0.17200000000E+03 0.  1.
</event>
<event>
 4    1 -0.6855026E-004  0.2101003E+03  0.7818608E-02  0.1141487E+00
          5   -1    0    0  501    0  0.00000000000E+00  0.00000000000E+00  0.69425064546E+03  0.69426655452E+03  0.47000000000E+01 0. -1.
         -5   -1    0    0    0  501 -0.00000000000E+00 -0.00000000000E+00 -0.15863111446E+03  0.15870072613E+03  0.47000000000E+01 0.  1.
          6    1    1    2  502    0 -0.61593218831E+02 -0.10375176938E+03  0.59797344146E+03  0.63380942794E+03  0.17200000000E+03 0. -1.
         -6    1    1    2    0  502  0.61593218831E+02  0.10375176938E+03 -0.62353910464E+02  0.21915785271E+03  0.17200000000E+03 0.  1.
</event>
<event>
 4    1 -0.6855026E-004  0.1783305E+03  0.7818608E-02  0.1169429E+00
          5   -1    0    0  501    0  0.00000000000E+00  0.00000000000E+00  0.52867803668E+03  0.52869892800E+03  0.47000000000E+01 0. -1.
         -5   -1    0    0    0  501 -0.00000000000E+00 -0.00000000000E+00 -0.47032640895E+03  0.47034989206E+03  0.47000000000E+01 0.  1.
          6    1    1    2  502    0  0.38222270794E+02 -0.27510413262E+02  0.49566698368E+03  0.52677084537E+03  0.17200000000E+03 0. -1.
         -6    1    1    2    0  502 -0.38222270794E+02  0.27510413262E+02 -0.43731535595E+03  0.47227797469E+03  0.17200000000E+03 0.  1.
</event>
<event>
 4    1 -0.6855026E-004  0.2890384E+03  0.7818608E-02  0.1090852E+00
         -5   -1    0    0    0  501 -0.00000000000E+00  0.00000000000E+00  0.77396326032E+03  0.77397753089E+03  0.47000000000E+01 0.  1.
          5   -1    0    0  501    0  0.00000000000E+00 -0.00000000000E+00 -0.25287995116E+03  0.25292362424E+03  0.47000000000E+01 0. -1.
          6    1    1    2  502    0  0.77690415516E+02  0.21891411037E+03 -0.12819634360E+03  0.31619217399E+03  0.17200000000E+03 0. -1.
         -6    1    1    2    0  502 -0.77690415516E+02 -0.21891411037E+03  0.64927965276E+03  0.71070898114E+03  0.17200000000E+03 0.  1.
</event>
<event>
 4    1 -0.6855026E-004  0.4819912E+03  0.7818608E-02  0.1018589E+00
         -5   -1    0    0    0  501 -0.00000000000E+00  0.00000000000E+00  0.14929027822E+04  0.14929101806E+04  0.47000000000E+01 0.  1.
          5   -1    0    0  501    0  0.00000000000E+00 -0.00000000000E+00 -0.48109654329E+03  0.48111950071E+03  0.47000000000E+01 0. -1.
          6    1    1    2  502    0 -0.13960518214E+02 -0.45004071284E+03 -0.30594765199E+03  0.57089360220E+03  0.17200000000E+03 0. -1.
         -6    1    1    2    0  502  0.13960518214E+02  0.45004071284E+03  0.13177538909E+04  0.14031360791E+04  0.17200000000E+03 0.  1.
</event>
<event>
 4    1 -0.6855026E-004  0.1724794E+03  0.7818608E-02  0.1175287E+00
         -5   -1    0    0    0  501 -0.00000000000E+00  0.00000000000E+00  0.10950006649E+03  0.10960088759E+03  0.47000000000E+01 0.  1.
          5   -1    0    0  501    0  0.00000000000E+00 -0.00000000000E+00 -0.11945707703E+04  0.11945800162E+04  0.47000000000E+01 0. -1.
          6    1    1    2  502    0 -0.64042040710E+01  0.11141111799E+02 -0.11157427123E+04  0.11289955439E+04  0.17200000000E+03 0. -1.
         -6    1    1    2    0  502  0.64042040710E+01 -0.11141111799E+02  0.30672008535E+02  0.17518535986E+03  0.17200000000E+03 0.  1.
</event>
<event>
 4    1 -0.6855026E-004  0.1885365E+03  0.7818608E-02  0.1159788E+00
         -5   -1    0    0    0  501 -0.00000000000E+00  0.00000000000E+00  0.86421654769E+02  0.86549364024E+02  0.47000000000E+01 0.  1.
          5   -1    0    0  501    0  0.00000000000E+00 -0.00000000000E+00 -0.52826883987E+03  0.52828974738E+03  0.47000000000E+01 0. -1.
          6    1    1    2  502    0 -0.13306565700E+02 -0.76058722846E+02 -0.36582900390E+03  0.41155419340E+03  0.17200000000E+03 0. -1.
         -6    1    1    2    0  502  0.13306565700E+02  0.76058722846E+02 -0.76018181204E+02  0.20328491800E+03  0.17200000000E+03 0. -1.
</event>
<event>
 4    1 -0.6855026E-004  0.3182489E+03  0.7818608E-02  0.1076458E+00
          5   -1    0    0  501    0  0.00000000000E+00  0.00000000000E+00  0.25189939098E+03  0.25194323404E+03  0.47000000000E+01 0. -1.
         -5   -1    0    0    0  501 -0.00000000000E+00 -0.00000000000E+00 -0.64596705850E+03  0.64598415667E+03  0.47000000000E+01 0.  1.
          6    1    1    2  502    0  0.23277635155E+03  0.13233858609E+03  0.78874902519E+02  0.32787738784E+03  0.17200000000E+03 0. -1.
         -6    1    1    2    0  502 -0.23277635155E+03 -0.13233858609E+03 -0.47294257004E+03  0.57005000286E+03  0.17200000000E+03 0.  1.
</event>
<event>
 4    1 -0.6855026E-004  0.1822713E+03  0.7818608E-02  0.1165623E+00
          5   -1    0    0  501    0  0.00000000000E+00  0.00000000000E+00  0.31760252326E+02  0.32106130688E+02  0.47000000000E+01 0. -1.
         -5   -1    0    0    0  501 -0.00000000000E+00 -0.00000000000E+00 -0.13610279098E+04  0.13610360249E+04  0.47000000000E+01 0.  1.
          6    1    1    2  502    0  0.52224864029E+02 -0.30189445417E+02 -0.32639516917E+03  0.37384040110E+03  0.17200000000E+03 0. -1.
         -6    1    1    2    0  502 -0.52224864029E+02  0.30189445417E+02 -0.10028724883E+04  0.10193017545E+04  0.17200000000E+03 0.  1.
</event>
<event>
 4    1 -0.6855026E-004  0.1727526E+03  0.7818608E-02  0.1175007E+00
         -5   -1    0    0    0  501 -0.00000000000E+00  0.00000000000E+00  0.24090279009E+02  0.24544480901E+02  0.47000000000E+01 0.  1.
          5   -1    0    0  501    0  0.00000000000E+00 -0.00000000000E+00 -0.13865982941E+04  0.13866062596E+04  0.47000000000E+01 0. -1.
          6    1    1    2  502    0 -0.51331996762E+01  0.15267587016E+02 -0.92074913506E+03  0.93681503974E+03  0.17200000000E+03 0. -1.
         -6    1    1    2    0  502  0.51331996762E+01 -0.15267587016E+02 -0.44175888003E+03  0.47433570078E+03  0.17200000000E+03 0.  1.
</event>
<event>
 4    1 -0.6855026E-004  0.2148569E+03  0.7818608E-02  0.1137777E+00
         -5   -1    0    0    0  501 -0.00000000000E+00  0.00000000000E+00  0.12296342199E+03  0.12305321267E+03  0.47000000000E+01 0.  1.
          5   -1    0    0  501    0  0.00000000000E+00 -0.00000000000E+00 -0.51714800302E+03  0.51716936010E+03  0.47000000000E+01 0. -1.
          6    1    1    2  502    0 -0.31283453910E+02 -0.12490325968E+03 -0.36479339730E+03  0.42336473812E+03  0.17200000000E+03 0. -1.
         -6    1    1    2    0  502  0.31283453910E+02  0.12490325968E+03 -0.29391183724E+02  0.21685783465E+03  0.17200000000E+03 0.  1.
</event>
<event>
 4    1 -0.6855026E-004  0.3178806E+03  0.7818608E-02  0.1076629E+00
          5   -1    0    0  501    0  0.00000000000E+00  0.00000000000E+00  0.85618249597E+03  0.85619539616E+03  0.47000000000E+01 0. -1.
         -5   -1    0    0    0  501 -0.00000000000E+00 -0.00000000000E+00 -0.35080902471E+03  0.35084050767E+03  0.47000000000E+01 0.  1.
          6    1    1    2  502    0 -0.26701368858E+03  0.12951905498E+02  0.74432350063E+03  0.80936118966E+03  0.17200000000E+03 0. -1.
         -6    1    1    2    0  502  0.26701368858E+03 -0.12951905498E+02 -0.23895002937E+03  0.39767471416E+03  0.17200000000E+03 0.  1.
</event>
<event>
 4    1 -0.6855026E-004  0.3621938E+03  0.7818608E-02  0.1057719E+00
         -5   -1    0    0    0  501 -0.00000000000E+00  0.00000000000E+00  0.84072881122E+03  0.84074194852E+03  0.47000000000E+01 0.  1.
          5   -1    0    0  501    0  0.00000000000E+00 -0.00000000000E+00 -0.11848868517E+04  0.11848961733E+04  0.47000000000E+01 0. -1.
          6    1    1    2  502    0 -0.19329524712E+03 -0.25345083521E+03 -0.11158579639E+04  0.11731680929E+04  0.17200000000E+03 0. -1.
         -6    1    1    2    0  502  0.19329524712E+03  0.25345083521E+03  0.77169992341E+03  0.85247002893E+03  0.17200000000E+03 0.  1.
</event>
<event>
 4    1 -0.6855026E-004  0.2635063E+03  0.7818608E-02  0.1105055E+00
         -5   -1    0    0    0  501 -0.00000000000E+00  0.00000000000E+00  0.17671690495E+04  0.17671752996E+04  0.47000000000E+01 0.  1.
          5   -1    0    0  501    0  0.00000000000E+00 -0.00000000000E+00 -0.86804940578E+02  0.86932086762E+02  0.47000000000E+01 0. -1.
          6    1    1    2  502    0  0.10828303591E+03  0.16770906360E+03  0.15408844326E+03  0.30525201756E+03  0.17200000000E+03 0. -1.
         -6    1    1    2    0  502 -0.10828303591E+03 -0.16770906360E+03  0.15262756657E+04  0.15488553688E+04  0.17200000000E+03 0.  1.
</event>
<event>
 4    1 -0.6855026E-004  0.1882035E+03  0.7818608E-02  0.1160092E+00
         -5   -1    0    0    0  501 -0.00000000000E+00  0.00000000000E+00  0.43912858855E+03  0.43915373992E+03  0.47000000000E+01 0.  1.
          5   -1    0    0  501    0  0.00000000000E+00 -0.00000000000E+00 -0.97727322144E+02  0.97840275416E+02  0.47000000000E+01 0. -1.
          6    1    1    2  502    0 -0.48888476110E+02  0.58706609976E+02  0.58269761350E+02  0.19701754805E+03  0.17200000000E+03 0. -1.
         -6    1    1    2    0  502  0.48888476110E+02 -0.58706609976E+02  0.28313150506E+03  0.33997646729E+03  0.17200000000E+03 0.  1.
</event>
<event>
 4    1 -0.6855026E-004  0.2549539E+03  0.7818608E-02  0.1110213E+00
          5   -1    0    0  501    0  0.00000000000E+00  0.00000000000E+00  0.16103822934E+04  0.16103891521E+04  0.47000000000E+01 0. -1.
         -5   -1    0    0    0  501 -0.00000000000E+00 -0.00000000000E+00 -0.14927101828E+03  0.14934499288E+03  0.47000000000E+01 0.  1.
          6    1    1    2  502    0 -0.99496876232E+02 -0.15974318750E+03  0.14821456508E+04  0.15039139751E+04  0.17200000000E+03 0. -1.
         -6    1    1    2    0  502  0.99496876232E+02  0.15974318750E+03 -0.21034375637E+02  0.25582016983E+03  0.17200000000E+03 0.  1.
</event>
<event>
 4    1 -0.6855026E-004  0.2682568E+03  0.7818608E-02  0.1102281E+00
          5   -1    0    0  501    0  0.00000000000E+00  0.00000000000E+00  0.60952185148E+02  0.61133124199E+02  0.47000000000E+01 0. -1.
         -5   -1    0    0    0  501 -0.00000000000E+00 -0.00000000000E+00 -0.13802788466E+04  0.13802868486E+04  0.47000000000E+01 0.  1.
          6    1    1    2  502    0  0.17132464035E+03  0.11412964191E+03 -0.38425290658E+03  0.46862778809E+03  0.17200000000E+03 0. -1.
         -6    1    1    2    0  502 -0.17132464035E+03 -0.11412964191E+03 -0.93507375492E+03  0.97279218474E+03  0.17200000000E+03 0. -1.
</event>
<event>
 4    1 -0.6855026E-004  0.2327674E+03  0.7818608E-02  0.1124707E+00
         -5   -1    0    0    0  501 -0.00000000000E+00  0.00000000000E+00  0.61304454499E+03  0.61306256136E+03  0.47000000000E+01 0.  1.
          5   -1    0    0  501    0  0.00000000000E+00 -0.00000000000E+00 -0.14316473866E+03  0.14324186677E+03  0.47000000000E+01 0. -1.
          6    1    1    2  502    0 -0.10594322735E+03 -0.11564036588E+03  0.93589704965E+00  0.23276927964E+03  0.17200000000E+03 0. -1.
         -6    1    1    2    0  502  0.10594322735E+03  0.11564036588E+03  0.46894390929E+03  0.52353514849E+03  0.17200000000E+03 0.  1.
</event>
<event>
 4    1 -0.6855026E-004  0.3512732E+03  0.7818608E-02  0.1062094E+00
         -5   -1    0    0    0  501 -0.00000000000E+00  0.00000000000E+00  0.40701389559E+03  0.40704103136E+03  0.47000000000E+01 0.  1.
          5   -1    0    0  501    0  0.00000000000E+00 -0.00000000000E+00 -0.15030940441E+04  0.15031013923E+04  0.47000000000E+01 0. -1.
          6    1    1    2  502    0 -0.15085891154E+03 -0.26655290311E+03 -0.14013822172E+04  0.14447369934E+04  0.17200000000E+03 0. -1.
         -6    1    1    2    0  502  0.15085891154E+03  0.26655290311E+03  0.30530206869E+03  0.46540543024E+03  0.17200000000E+03 0.  1.
</event>
<event>
 4    1 -0.6855026E-004  0.1722157E+03  0.7818608E-02  0.1175557E+00
          5   -1    0    0  501    0  0.00000000000E+00  0.00000000000E+00  0.45173629348E+03  0.45176074292E+03  0.47000000000E+01 0. -1.
         -5   -1    0    0    0  501 -0.00000000000E+00 -0.00000000000E+00 -0.15317347705E+03  0.15324556787E+03  0.47000000000E+01 0.  1.
          6    1    1    2  502    0  0.27004050706E+01  0.81819685431E+01  0.37797790067E+03  0.41536192674E+03  0.17200000000E+03 0. -1.
         -6    1    1    2    0  502 -0.27004050706E+01 -0.81819685431E+01 -0.79415084235E+02  0.18964438405E+03  0.17200000000E+03 0.  1.
</event>
<event>
 4    1 -0.6855026E-004  0.2034240E+03  0.7818608E-02  0.1146882E+00
         -5   -1    0    0    0  501 -0.00000000000E+00  0.00000000000E+00  0.58613754013E+03  0.58615638353E+03  0.47000000000E+01 0.  1.
          5   -1    0    0  501    0  0.00000000000E+00 -0.00000000000E+00 -0.50151209339E+03  0.50153411630E+03  0.47000000000E+01 0. -1.
          6    1    1    2  502    0  0.43310395288E+02  0.99606940828E+02 -0.46180462827E+03  0.50462347120E+03  0.17200000000E+03 0. -1.
         -6    1    1    2    0  502 -0.43310395288E+02 -0.99606940828E+02  0.54643007501E+03  0.58306702863E+03  0.17200000000E+03 0.  1.
</event>
<event>
 4    1 -0.6855026E-004  0.5448080E+03  0.7818608E-02  0.1002703E+00
         -5   -1    0    0    0  501 -0.00000000000E+00  0.00000000000E+00  0.86185426221E+03  0.86186707750E+03  0.47000000000E+01 0.  1.
          5   -1    0    0  501    0  0.00000000000E+00 -0.00000000000E+00 -0.14008715004E+04  0.14008793847E+04  0.47000000000E+01 0. -1.
          6    1    1    2  502    0  0.33168958257E+01  0.51693403160E+03 -0.12520223753E+04  0.13654214818E+04  0.17200000000E+03 0. -1.
         -6    1    1    2    0  502 -0.33168958257E+01 -0.51693403160E+03  0.71300513714E+03  0.89732498038E+03  0.17200000000E+03 0.  1.
</event>
<event>
 4    1 -0.6855026E-004  0.2124124E+03  0.7818608E-02  0.1139670E+00
          5   -1    0    0  501    0  0.00000000000E+00  0.00000000000E+00  0.30268785381E+03  0.30272434135E+03  0.47000000000E+01 0. -1.
         -5   -1    0    0    0  501 -0.00000000000E+00 -0.00000000000E+00 -0.22809493845E+03  0.22814335613E+03  0.47000000000E+01 0.  1.
          6    1    1    2  502    0 -0.51921920358E+02  0.11330993886E+03  0.19358898453E+03  0.28739471636E+03  0.17200000000E+03 0. -1.
         -6    1    1    2    0  502  0.51921920358E+02 -0.11330993886E+03 -0.11899606916E+03  0.24347298112E+03  0.17200000000E+03 0.  1.
</event>
<event>
 4    1 -0.6855026E-004  0.1999535E+03  0.7818608E-02  0.1149778E+00
         -5   -1    0    0    0  501 -0.00000000000E+00  0.00000000000E+00  0.11148034689E+03  0.11157937867E+03  0.47000000000E+01 0.  1.
          5   -1    0    0  501    0  0.00000000000E+00 -0.00000000000E+00 -0.40389272777E+03  0.40392007322E+03  0.47000000000E+01 0. -1.
          6    1    1    2  502    0  0.95191365034E+02  0.36551367915E+02 -0.23272773514E+03  0.30682828615E+03  0.17200000000E+03 0.  1.
         -6    1    1    2    0  502 -0.95191365034E+02 -0.36551367915E+02 -0.59684645735E+02  0.20867116574E+03  0.17200000000E+03 0.  1.
</event>
<event>
 4    1 -0.6855026E-004  0.3225868E+03  0.7818608E-02  0.1074465E+00
          5   -1    0    0  501    0  0.00000000000E+00  0.00000000000E+00  0.52450657990E+02  0.52660815827E+02  0.47000000000E+01 0. -1.
         -5   -1    0    0    0  501 -0.00000000000E+00 -0.00000000000E+00 -0.20033831182E+04  0.20033886313E+04  0.47000000000E+01 0.  1.
          6    1    1    2  502    0  0.17017436220E+03 -0.21335158442E+03 -0.10869452916E+04  0.11338043390E+04  0.17200000000E+03 0. -1.
         -6    1    1    2    0  502 -0.17017436220E+03  0.21335158442E+03 -0.86398716852E+03  0.92224510814E+03  0.17200000000E+03 0.  1.
</event>
<event>
 4    1 -0.6855026E-004  0.1801046E+03  0.7818608E-02  0.1167702E+00
          5   -1    0    0  501    0  0.00000000000E+00  0.00000000000E+00  0.10507892042E+03  0.10518397937E+03  0.47000000000E+01 0. -1.
         -5   -1    0    0    0  501 -0.00000000000E+00 -0.00000000000E+00 -0.11501030106E+04  0.11501126141E+04  0.47000000000E+01 0.  1.
          6    1    1    2  502    0  0.41439051983E+02  0.33711400976E+02  0.14393557597E+02  0.18067879811E+03  0.17200000000E+03 0. -1.
         -6    1    1    2    0  502 -0.41439051983E+02 -0.33711400976E+02 -0.10594176478E+04  0.10746177953E+04  0.17200000000E+03 0.  1.
</event>
<event>
 4    1 -0.6855026E-004  0.2118690E+03  0.7818608E-02  0.1140094E+00
         -5   -1    0    0    0  501 -0.00000000000E+00  0.00000000000E+00  0.40019456883E+03  0.40022216695E+03  0.47000000000E+01 0.  1.
          5   -1    0    0  501    0  0.00000000000E+00 -0.00000000000E+00 -0.14981331002E+03  0.14988701698E+03  0.47000000000E+01 0. -1.
          6    1    1    2  502    0  0.10908431175E+03  0.58353084473E+02 -0.12786610068E+02  0.21225448625E+03  0.17200000000E+03 0. -1.
         -6    1    1    2    0  502 -0.10908431175E+03 -0.58353084473E+02  0.26316786888E+03  0.33785469768E+03  0.17200000000E+03 0.  1.
</event>
<event>
 4    1 -0.6855026E-004  0.1914276E+03  0.7818608E-02  0.1157180E+00
         -5   -1    0    0    0  501 -0.00000000000E+00  0.00000000000E+00  0.13500751539E+04  0.13500833349E+04  0.47000000000E+01 0.  1.
          5   -1    0    0  501    0  0.00000000000E+00 -0.00000000000E+00 -0.53227713698E+02  0.53434815481E+02  0.47000000000E+01 0. -1.
          6    1    1    2  502    0 -0.70583989998E+02  0.45589723630E+02  0.15662302308E+03  0.24733639826E+03  0.17200000000E+03 0. -1.
         -6    1    1    2    0  502  0.70583989998E+02 -0.45589723630E+02  0.11402244172E+04  0.11561817522E+04  0.17200000000E+03 0.  1.
</event>
<event>
 4    1 -0.6855026E-004  0.1894687E+03  0.7818608E-02  0.1158941E+00
         -5   -1    0    0    0  501 -0.00000000000E+00  0.00000000000E+00  0.23354686623E+04  0.23354733915E+04  0.47000000000E+01 0.  1.
          5   -1    0    0  501    0  0.00000000000E+00 -0.00000000000E+00 -0.17452433893E+02  0.18074220559E+02  0.47000000000E+01 0. -1.
          6    1    1    2  502    0  0.78733818607E+02  0.10741019102E+02  0.72677536008E+03  0.75106644693E+03  0.17200000000E+03 0.  1.
         -6    1    1    2    0  502 -0.78733818607E+02 -0.10741019102E+02  0.15912408683E+04  0.16024811651E+04  0.17200000000E+03 0.  1.
</event>
<event>
 4    1 -0.6855026E-004  0.1908126E+03  0.7818608E-02  0.1157730E+00
         -5   -1    0    0    0  501 -0.00000000000E+00  0.00000000000E+00  0.47146303712E+03  0.47148646361E+03  0.47000000000E+01 0.  1.
          5   -1    0    0  501    0  0.00000000000E+00 -0.00000000000E+00 -0.12243031663E+03  0.12252049800E+03  0.47000000000E+01 0. -1.
          6    1    1    2  502    0 -0.81811664711E+02  0.11501456492E+02 -0.60435346604E+01  0.19090824051E+03  0.17200000000E+03 0. -1.
         -6    1    1    2    0  502  0.81811664711E+02 -0.11501456492E+02  0.35507625515E+03  0.40309872110E+03  0.17200000000E+03 0.  1.
</event>
<event>
 4    1 -0.6855026E-004  0.1765325E+03  0.7818608E-02  0.1171202E+00
         -5   -1    0    0    0  501 -0.00000000000E+00  0.00000000000E+00  0.33263399566E+03  0.33266719867E+03  0.47000000000E+01 0.  1.
          5   -1    0    0  501    0  0.00000000000E+00 -0.00000000000E+00 -0.97948753096E+02  0.98061451310E+02  0.47000000000E+01 0. -1.
          6    1    1    2  502    0  0.10440218793E+02  0.38349860312E+02  0.71950059897E+02  0.19063189941E+03  0.17200000000E+03 0. -1.
         -6    1    1    2    0  502 -0.10440218793E+02 -0.38349860312E+02  0.16273518267E+03  0.24009675057E+03  0.17200000000E+03 0.  1.
</event>
<event>
 4    1 -0.6855026E-004  0.1829201E+03  0.7818608E-02  0.1165007E+00
         -5   -1    0    0    0  501 -0.00000000000E+00  0.00000000000E+00  0.34240897541E+03  0.34244123063E+03  0.47000000000E+01 0.  1.
          5   -1    0    0  501    0  0.00000000000E+00 -0.00000000000E+00 -0.40454769953E+03  0.40457500071E+03  0.47000000000E+01 0. -1.
          6    1    1    2  502    0 -0.43425971250E+02 -0.44608805704E+02 -0.35636218309E+03  0.40056680599E+03  0.17200000000E+03 0. -1.
         -6    1    1    2    0  502  0.43425971250E+02  0.44608805704E+02  0.29422345896E+03  0.34644942535E+03  0.17200000000E+03 0.  1.
</event>
<event>
 4    1 -0.6855026E-004  0.3000747E+03  0.7818608E-02  0.1085203E+00
         -5   -1    0    0    0  501 -0.00000000000E+00  0.00000000000E+00  0.63383537221E+03  0.63385279763E+03  0.47000000000E+01 0.  1.
          5   -1    0    0  501    0  0.00000000000E+00 -0.00000000000E+00 -0.60184512872E+03  0.60186348033E+03  0.47000000000E+01 0. -1.
          6    1    1    2  502    0 -0.23929253576E+03 -0.56567557666E+02 -0.52404514167E+03  0.60387756769E+03  0.17200000000E+03 0. -1.
         -6    1    1    2    0  502  0.23929253576E+03  0.56567557666E+02  0.55603538516E+03  0.63183871027E+03  0.17200000000E+03 0.  1.
</event>
<event>
 4    1 -0.6855026E-004  0.1960054E+03  0.7818608E-02  0.1153154E+00
         -5   -1    0    0    0  501 -0.00000000000E+00  0.00000000000E+00  0.31905356829E+03  0.31908818442E+03  0.47000000000E+01 0.  1.
          5   -1    0    0  501    0  0.00000000000E+00 -0.00000000000E+00 -0.14811429957E+03  0.14818885160E+03  0.47000000000E+01 0. -1.
          6    1    1    2  502    0 -0.44700572469E+02  0.82679991867E+02 -0.15689798597E+02  0.19663237784E+03  0.17200000000E+03 0. -1.
         -6    1    1    2    0  502  0.44700572469E+02 -0.82679991867E+02  0.18662906732E+03  0.27064465818E+03  0.17200000000E+03 0.  1.
</event>
<event>
 4    1 -0.6855026E-004  0.1868147E+03  0.7818608E-02  0.1161366E+00
         -5   -1    0    0    0  501 -0.00000000000E+00  0.00000000000E+00  0.24279581139E+03  0.24284129803E+03  0.47000000000E+01 0.  1.
          5   -1    0    0  501    0  0.00000000000E+00 -0.00000000000E+00 -0.36675839467E+03  0.36678850863E+03  0.47000000000E+01 0. -1.
          6    1    1    2  502    0  0.65320437947E+02  0.32387849610E+02 -0.29969359489E+03  0.35315150182E+03  0.17200000000E+03 0. -1.
         -6    1    1    2    0  502 -0.65320437947E+02 -0.32387849610E+02  0.17573101161E+03  0.25647830485E+03  0.17200000000E+03 0.  1.
</event>
<event>
 4    1 -0.6855026E-004  0.2013836E+03  0.7818608E-02  0.1148577E+00
          5   -1    0    0  501    0  0.00000000000E+00  0.00000000000E+00  0.31639568358E+02  0.31986751724E+02  0.47000000000E+01 0. -1.
         -5   -1    0    0    0  501 -0.00000000000E+00 -0.00000000000E+00 -0.15262660260E+04  0.15262732626E+04  0.47000000000E+01 0.  1.
          6    1    1    2  502    0 -0.22719288798E+02 -0.10225057142E+03 -0.43087479907E+03  0.47561374866E+03  0.17200000000E+03 0. -1.
         -6    1    1    2    0  502  0.22719288798E+02  0.10225057142E+03 -0.10637516586E+04  0.10826462656E+04  0.17200000000E+03 0.  1.
</event>
<event>
 4    1 -0.6855026E-004  0.2120991E+03  0.7818608E-02  0.1139914E+00
          5   -1    0    0  501    0  0.00000000000E+00  0.00000000000E+00  0.33934652817E+03  0.33937907446E+03  0.47000000000E+01 0. -1.
         -5   -1    0    0    0  501 -0.00000000000E+00 -0.00000000000E+00 -0.20599377699E+03  0.20604738814E+03  0.47000000000E+01 0.  1.
          6    1    1    2  502    0  0.10773632286E+03  0.61602845372E+02  0.22954565122E+03  0.31253356910E+03  0.17200000000E+03 0.  1.
         -6    1    1    2    0  502 -0.10773632286E+03 -0.61602845372E+02 -0.96192900039E+02  0.23289289349E+03  0.17200000000E+03 0.  1.
</event>
<event>
 4    1 -0.6855026E-004  0.1760178E+03  0.7818608E-02  0.1171714E+00
          5   -1    0    0  501    0  0.00000000000E+00  0.00000000000E+00  0.29825170032E+03  0.29828873050E+03  0.47000000000E+01 0. -1.
         -5   -1    0    0    0  501 -0.00000000000E+00 -0.00000000000E+00 -0.50696952087E+03  0.50699130672E+03  0.47000000000E+01 0.  1.
          6    1    1    2  502    0 -0.28787853505E+02  0.23864818767E+02  0.25467522360E+03  0.30958317073E+03  0.17200000000E+03 0. -1.
         -6    1    1    2    0  502  0.28787853505E+02 -0.23864818767E+02 -0.46339304415E+03  0.49569686649E+03  0.17200000000E+03 0.  1.
</event>
<event>
 4    1 -0.6855026E-004  0.2073343E+03  0.7818608E-02  0.1143694E+00
         -5   -1    0    0    0  501 -0.00000000000E+00  0.00000000000E+00  0.31783113482E+03  0.31786588408E+03  0.47000000000E+01 0.  1.
          5   -1    0    0  501    0  0.00000000000E+00 -0.00000000000E+00 -0.17184425046E+03  0.17190851176E+03  0.47000000000E+01 0. -1.
          6    1    1    2  502    0 -0.10887897661E+03  0.39356040124E+02 -0.40101875026E+02  0.21117691593E+03  0.17200000000E+03 0. -1.
         -6    1    1    2    0  502  0.10887897661E+03 -0.39356040124E+02  0.18608875939E+03  0.27859747991E+03  0.17200000000E+03 0.  1.
</event>
<event>
 4    1 -0.6855026E-004  0.1765632E+03  0.7818608E-02  0.1171171E+00
          5   -1    0    0  501    0  0.00000000000E+00  0.00000000000E+00  0.33865046516E+02  0.34189638424E+02  0.47000000000E+01 0. -1.
         -5   -1    0    0    0  501 -0.00000000000E+00 -0.00000000000E+00 -0.13311524488E+04  0.13311607461E+04  0.47000000000E+01 0.  1.
          6    1    1    2  502    0 -0.21763743845E+02  0.33419839480E+02 -0.26736917263E+03  0.32040727316E+03  0.17200000000E+03 0. -1.
         -6    1    1    2    0  502  0.21763743845E+02 -0.33419839480E+02 -0.10299182296E+04  0.10449431113E+04  0.17200000000E+03 0.  1.
</event>
<event>
 4    1 -0.6855026E-004  0.1880863E+03  0.7818608E-02  0.1160199E+00
          5   -1    0    0  501    0  0.00000000000E+00  0.00000000000E+00  0.82950785339E+03  0.82952116841E+03  0.47000000000E+01 0. -1.
         -5   -1    0    0    0  501 -0.00000000000E+00 -0.00000000000E+00 -0.85783427077E+02  0.85912085070E+02  0.47000000000E+01 0.  1.
          6    1    1    2  502    0 -0.18617007236E+01  0.76085524676E+02  0.69658301779E+03  0.72152919114E+03  0.17200000000E+03 0. -1.
         -6    1    1    2    0  502  0.18617007236E+01 -0.76085524676E+02  0.47141408530E+02  0.19390406234E+03  0.17200000000E+03 0.  1.
</event>
<event>
 4    1 -0.6855026E-004  0.1728287E+03  0.7818608E-02  0.1174930E+00
          5   -1    0    0  501    0  0.00000000000E+00  0.00000000000E+00  0.14199768891E+03  0.14207545057E+03  0.47000000000E+01 0. -1.
         -5   -1    0    0    0  501 -0.00000000000E+00 -0.00000000000E+00 -0.57447740500E+03  0.57449663085E+03  0.47000000000E+01 0.  1.
          6    1    1    2  502    0 -0.98140185589E+01 -0.13764455952E+02  0.69040021297E+02  0.18610830113E+03  0.17200000000E+03 0. -1.
         -6    1    1    2    0  502  0.98140185589E+01  0.13764455952E+02 -0.50151973739E+03  0.53046378029E+03  0.17200000000E+03 0.  1.
</event>
<event>
 4    1 -0.6855026E-004  0.1796734E+03  0.7818608E-02  0.1168120E+00
          5   -1    0    0  501    0  0.00000000000E+00  0.00000000000E+00  0.12941125287E+04  0.12941210635E+04  0.47000000000E+01 0. -1.
         -5   -1    0    0    0  501 -0.00000000000E+00 -0.00000000000E+00 -0.59186127462E+02  0.59372448863E+02  0.47000000000E+01 0.  1.
          6    1    1    2  502    0 -0.12445770785E+02  0.50434280653E+02  0.11325230106E+04  0.11466869160E+04  0.17200000000E+03 0. -1.
         -6    1    1    2    0  502  0.12445770785E+02 -0.50434280653E+02  0.10240339071E+03  0.20680659638E+03  0.17200000000E+03 0.  1.
</event>
<event>
 4    1 -0.6855026E-004  0.2049232E+03  0.7818608E-02  0.1145651E+00
         -5   -1    0    0    0  501 -0.00000000000E+00  0.00000000000E+00  0.57429867715E+03  0.57431790898E+03  0.47000000000E+01 0.  1.
          5   -1    0    0  501    0  0.00000000000E+00 -0.00000000000E+00 -0.17324035539E+03  0.17330409902E+03  0.47000000000E+01 0. -1.
          6    1    1    2  502    0 -0.36293195794E+02  0.10532004093E+03 -0.83678109224E+02  0.22134934616E+03  0.17200000000E+03 0. -1.
         -6    1    1    2    0  502  0.36293195794E+02 -0.10532004093E+03  0.48473643098E+03  0.52627266184E+03  0.17200000000E+03 0.  1.
</event>
<event>
 4    1 -0.6855026E-004  0.1793083E+03  0.7818608E-02  0.1168474E+00
         -5   -1    0    0    0  501 -0.00000000000E+00  0.00000000000E+00  0.45445956420E+03  0.45448386714E+03  0.47000000000E+01 0.  1.
          5   -1    0    0  501    0  0.00000000000E+00 -0.00000000000E+00 -0.49966016563E+03  0.49968227017E+03  0.47000000000E+01 0. -1.
          6    1    1    2  502    0 -0.47329757446E+02 -0.18093385334E+02 -0.46462345028E+03  0.49802251665E+03  0.17200000000E+03 0. -1.
         -6    1    1    2    0  502  0.47329757446E+02  0.18093385334E+02  0.41942284885E+03  0.45614362066E+03  0.17200000000E+03 0.  1.
</event>
<event>
 4    1 -0.6855026E-004  0.2210567E+03  0.7818608E-02  0.1133098E+00
         -5   -1    0    0    0  501 -0.00000000000E+00  0.00000000000E+00  0.32523530277E+03  0.32526926103E+03  0.47000000000E+01 0.  1.
          5   -1    0    0  501    0  0.00000000000E+00 -0.00000000000E+00 -0.43736769250E+03  0.43739294512E+03  0.47000000000E+01 0. -1.
          6    1    1    2  502    0  0.45555606294E+02  0.13117447439E+03 -0.36504462691E+03  0.42675945875E+03  0.17200000000E+03 0. -1.
         -6    1    1    2    0  502 -0.45555606294E+02 -0.13117447439E+03  0.25291223718E+03  0.33590274740E+03  0.17200000000E+03 0.  1.
</event>
<event>
 4    1 -0.6855026E-004  0.2121162E+03  0.7818608E-02  0.1139901E+00
         -5   -1    0    0    0  501 -0.00000000000E+00  0.00000000000E+00  0.26881081017E+03  0.26885189540E+03  0.47000000000E+01 0.  1.
          5   -1    0    0  501    0  0.00000000000E+00 -0.00000000000E+00 -0.29150922296E+03  0.29154710952E+03  0.47000000000E+01 0. -1.
          6    1    1    2  502    0 -0.40356531672E+02 -0.11739101207E+03 -0.19422765129E+03  0.28760681474E+03  0.17200000000E+03 0. -1.
         -6    1    1    2    0  502  0.40356531672E+02  0.11739101207E+03  0.17152923850E+03  0.27279219018E+03  0.17200000000E+03 0.  1.
</event>
<event>
 4    1 -0.6855026E-004  0.1733621E+03  0.7818608E-02  0.1174386E+00
          5   -1    0    0  501    0  0.00000000000E+00  0.00000000000E+00  0.32695848713E+03  0.32699226643E+03  0.47000000000E+01 0. -1.
         -5   -1    0    0    0  501 -0.00000000000E+00 -0.00000000000E+00 -0.14495889576E+03  0.14503506976E+03  0.47000000000E+01 0.  1.
          6    1    1    2  502    0 -0.19478525516E+02 -0.95402494048E+01  0.23382758283E+03  0.29108378142E+03  0.17200000000E+03 0. -1.
         -6    1    1    2    0  502  0.19478525516E+02  0.95402494048E+01 -0.51827991457E+02  0.18094355477E+03  0.17200000000E+03 0.  1.
</event>
<event>
 4    1 -0.6855026E-004  0.1727359E+03  0.7818608E-02  0.1175024E+00
         -5   -1    0    0    0  501 -0.00000000000E+00  0.00000000000E+00  0.14480742619E+04  0.14480818892E+04  0.47000000000E+01 0.  1.
          5   -1    0    0  501    0  0.00000000000E+00 -0.00000000000E+00 -0.45046377757E+02  0.45290905809E+02  0.47000000000E+01 0. -1.
          6    1    1    2  502    0  0.33500891896E+00  0.15924638660E+02  0.15083749336E+03  0.22932434618E+03  0.17200000000E+03 0. -1.
         -6    1    1    2    0  502 -0.33500891896E+00 -0.15924638660E+02  0.12521903908E+04  0.12640484489E+04  0.17200000000E+03 0.  1.
</event>
<event>
 4    1 -0.6855026E-004  0.1978179E+03  0.7818608E-02  0.1151593E+00
         -5   -1    0    0    0  501 -0.00000000000E+00  0.00000000000E+00  0.20915587020E+03  0.20920867104E+03  0.47000000000E+01 0.  1.
          5   -1    0    0  501    0  0.00000000000E+00 -0.00000000000E+00 -0.41122497552E+03  0.41125183342E+03  0.47000000000E+01 0. -1.
          6    1    1    2  502    0  0.43229988034E+02  0.87630502289E+02 -0.33009326077E+03  0.38482917977E+03  0.17200000000E+03 0. -1.
         -6    1    1    2    0  502 -0.43229988034E+02 -0.87630502289E+02  0.12802415545E+03  0.23563132469E+03  0.17200000000E+03 0.  1.
</event>
<event>
 4    1 -0.6855026E-004  0.2109657E+03  0.7818608E-02  0.1140804E+00
          5   -1    0    0  501    0  0.00000000000E+00  0.00000000000E+00  0.45116911322E+03  0.45119359340E+03  0.47000000000E+01 0. -1.
         -5   -1    0    0    0  501 -0.00000000000E+00 -0.00000000000E+00 -0.32372058963E+03  0.32375470676E+03  0.47000000000E+01 0.  1.
          6    1    1    2  502    0  0.53390298718E+02 -0.10987267484E+03  0.38682245433E+03  0.44061109819E+03  0.17200000000E+03 0. -1.
         -6    1    1    2    0  502 -0.53390298718E+02  0.10987267484E+03 -0.25937393074E+03  0.33433720197E+03  0.17200000000E+03 0.  1.
</event>
<event>
 4    1 -0.6855026E-004  0.1778466E+03  0.7818608E-02  0.1169904E+00
         -5   -1    0    0    0  501 -0.00000000000E+00  0.00000000000E+00  0.63486959352E+03  0.63488699056E+03  0.47000000000E+01 0.  1.
          5   -1    0    0  501    0  0.00000000000E+00 -0.00000000000E+00 -0.59179748200E+02  0.59366089622E+02  0.47000000000E+01 0. -1.
          6    1    1    2  502    0 -0.17753835042E+02  0.41595777287E+02  0.14910978412E+03  0.23208432749E+03  0.17200000000E+03 0. -1.
         -6    1    1    2    0  502  0.17753835042E+02 -0.41595777287E+02  0.42658006120E+03  0.46216875269E+03  0.17200000000E+03 0.  1.
</event>
<event>
 4    1 -0.6855026E-004  0.1856540E+03  0.7818608E-02  0.1162441E+00
          5   -1    0    0  501    0  0.00000000000E+00  0.00000000000E+00  0.74649928912E+03  0.74651408470E+03  0.47000000000E+01 0. -1.
         -5   -1    0    0    0  501 -0.00000000000E+00 -0.00000000000E+00 -0.19240328326E+03  0.19246068017E+03  0.47000000000E+01 0.  1.
          6    1    1    2  502    0 -0.62732799294E+02 -0.30789431443E+02  0.68635950602E+03  0.71102515054E+03  0.17200000000E+03 0. -1.
         -6    1    1    2    0  502  0.62732799294E+02  0.30789431443E+02 -0.13226350016E+03  0.22794961433E+03  0.17200000000E+03 0.  1.
</event>
<event>
 4    1 -0.6855026E-004  0.2233682E+03  0.7818608E-02  0.1131397E+00
          5   -1    0    0  501    0  0.00000000000E+00  0.00000000000E+00  0.19173932227E+03  0.19179691787E+03  0.47000000000E+01 0. -1.
         -5   -1    0    0    0  501 -0.00000000000E+00 -0.00000000000E+00 -0.94322440777E+03  0.94323611753E+03  0.47000000000E+01 0.  1.
          6    1    1    2  502    0  0.10137854043E+03 -0.10015864412E+03  0.10720778160E+03  0.24776374006E+03  0.17200000000E+03 0. -1.
         -6    1    1    2    0  502 -0.10137854043E+03  0.10015864412E+03 -0.85869286710E+03  0.88726929534E+03  0.17200000000E+03 0.  1.
</event>
<event>
 4    1 -0.6855026E-004  0.2279670E+03  0.7818608E-02  0.1128079E+00
          5   -1    0    0  501    0  0.00000000000E+00  0.00000000000E+00  0.18299343159E+03  0.18305377900E+03  0.47000000000E+01 0. -1.
         -5   -1    0    0    0  501 -0.00000000000E+00 -0.00000000000E+00 -0.11176510338E+04  0.11176609161E+04  0.47000000000E+01 0.  1.
          6    1    1    2  502    0  0.54412568182E+02 -0.13937075261E+03  0.94377517457E+02  0.24673072379E+03  0.17200000000E+03 0. -1.
         -6    1    1    2    0  502 -0.54412568182E+02  0.13937075261E+03 -0.10290351197E+04  0.10539839713E+04  0.17200000000E+03 0.  1.
</event>
<event>
 4    1 -0.6855026E-004  0.1926559E+03  0.7818608E-02  0.1156087E+00
          5   -1    0    0  501    0  0.00000000000E+00  0.00000000000E+00  0.74516834942E+03  0.74518317142E+03  0.47000000000E+01 0. -1.
         -5   -1    0    0    0  501 -0.00000000000E+00 -0.00000000000E+00 -0.11073943013E+03  0.11083912390E+03  0.47000000000E+01 0.  1.
          6    1    1    2  502    0 -0.51395467638E+02 -0.69934362699E+02  0.63477414002E+03  0.66336605130E+03  0.17200000000E+03 0. -1.
         -6    1    1    2    0  502  0.51395467638E+02  0.69934362699E+02 -0.34522074021E+00  0.19265624401E+03  0.17200000000E+03 0.  1.
</event>
<event>
 4    1 -0.6855026E-004  0.1763383E+03  0.7818608E-02  0.1171395E+00
         -5   -1    0    0    0  501 -0.00000000000E+00  0.00000000000E+00  0.56813089056E+03  0.56815033117E+03  0.47000000000E+01 0.  1.
          5   -1    0    0  501    0  0.00000000000E+00 -0.00000000000E+00 -0.21037510179E+03  0.21042759670E+03  0.47000000000E+01 0. -1.
          6    1    1    2  502    0  0.31392395475E+02 -0.22928220669E+02 -0.15597737903E+03  0.23542329657E+03  0.17200000000E+03 0. -1.
         -6    1    1    2    0  502 -0.31392395475E+02  0.22928220669E+02  0.51373316781E+03  0.54315463130E+03  0.17200000000E+03 0.  1.
</event>
<event>
 4    1 -0.6855026E-004  0.1760365E+03  0.7818608E-02  0.1171695E+00
         -5   -1    0    0    0  501 -0.00000000000E+00  0.00000000000E+00  0.16627072381E+04  0.16627138809E+04  0.47000000000E+01 0.  1.
          5   -1    0    0  501    0  0.00000000000E+00 -0.00000000000E+00 -0.17590387895E+03  0.17596665772E+03  0.47000000000E+01 0. -1.
          6    1    1    2  502    0  0.18222151702E+02 -0.32753678596E+02 -0.12588297576E+03  0.21641481895E+03  0.17200000000E+03 0. -1.
         -6    1    1    2    0  502 -0.18222151702E+02  0.32753678596E+02  0.16126863349E+04  0.16222657197E+04  0.17200000000E+03 0.  1.
</event>
<event>
 4    1 -0.6855026E-004  0.2206803E+03  0.7818608E-02  0.1133377E+00
          5   -1    0    0  501    0  0.00000000000E+00  0.00000000000E+00  0.36370544399E+03  0.36373581070E+03  0.47000000000E+01 0. -1.
         -5   -1    0    0    0  501 -0.00000000000E+00 -0.00000000000E+00 -0.31203360281E+03  0.31206899763E+03  0.47000000000E+01 0.  1.
          6    1    1    2  502    0  0.13445157550E+03  0.32226743292E+02  0.28116290346E+03  0.35742463180E+03  0.17200000000E+03 0. -1.
         -6    1    1    2    0  502 -0.13445157550E+03 -0.32226743292E+02 -0.22949106228E+03  0.31838017652E+03  0.17200000000E+03 0.  1.
</event>
<event>
 4    1 -0.6855026E-004  0.1842456E+03  0.7818608E-02  0.1163756E+00
         -5   -1    0    0    0  501 -0.00000000000E+00  0.00000000000E+00  0.79023438771E+03  0.79024836445E+03  0.47000000000E+01 0.  1.
          5   -1    0    0  501    0  0.00000000000E+00 -0.00000000000E+00 -0.23986348777E+03  0.23990953038E+03  0.47000000000E+01 0. -1.
          6    1    1    2  502    0  0.49444950336E+02  0.43791027715E+02 -0.19150505446E+03  0.26574544795E+03  0.17200000000E+03 0. -1.
         -6    1    1    2    0  502 -0.49444950336E+02 -0.43791027715E+02  0.74187595440E+03  0.76441244687E+03  0.17200000000E+03 0.  1.
</event>
<event>
 4    1 -0.6855026E-004  0.2004216E+03  0.7818608E-02  0.1149384E+00
          5   -1    0    0  501    0  0.00000000000E+00  0.00000000000E+00  0.12042045528E+04  0.12042137248E+04  0.47000000000E+01 0. -1.
         -5   -1    0    0    0  501 -0.00000000000E+00 -0.00000000000E+00 -0.29803377489E+03  0.29807083215E+03  0.47000000000E+01 0.  1.
          6    1    1    2  502    0 -0.52326536013E+01  0.10274947076E+03  0.11609495183E+04  0.11781224972E+04  0.17200000000E+03 0. -1.
         -6    1    1    2    0  502  0.52326536013E+01 -0.10274947076E+03 -0.25477874040E+03  0.32416205972E+03  0.17200000000E+03 0.  1.
</event>
<event>
 4    1 -0.6855026E-004  0.1818717E+03  0.7818608E-02  0.1166004E+00
         -5   -1    0    0    0  501 -0.00000000000E+00  0.00000000000E+00  0.19914387695E+03  0.19919933164E+03  0.47000000000E+01 0.  1.
          5   -1    0    0  501    0  0.00000000000E+00 -0.00000000000E+00 -0.25461600159E+03  0.25465937694E+03  0.47000000000E+01 0. -1.
          6    1    1    2  502    0 -0.21653677899E+02  0.54994970016E+02 -0.16159413177E+03  0.24328993386E+03  0.17200000000E+03 0. -1.
         -6    1    1    2    0  502  0.21653677899E+02 -0.54994970016E+02  0.10612200713E+03  0.21056877473E+03  0.17200000000E+03 0.  1.
</event>
<event>
 4    1 -0.6855026E-004  0.1889379E+03  0.7818608E-02  0.1159423E+00
          5   -1    0    0  501    0  0.00000000000E+00  0.00000000000E+00  0.21976567828E+03  0.21981593061E+03  0.47000000000E+01 0. -1.
         -5   -1    0    0    0  501 -0.00000000000E+00 -0.00000000000E+00 -0.10536932275E+04  0.10537037096E+04  0.47000000000E+01 0.  1.
          6    1    1    2  502    0  0.74614684727E+02  0.23370191912E+02  0.16867129427E+03  0.25327361205E+03  0.17200000000E+03 0. -1.
         -6    1    1    2    0  502 -0.74614684727E+02 -0.23370191912E+02 -0.10025988435E+04  0.10202460282E+04  0.17200000000E+03 0.  1.
</event>
<event>
 4    1 -0.6855026E-004  0.1781531E+03  0.7818608E-02  0.1169603E+00
          5   -1    0    0  501    0  0.00000000000E+00  0.00000000000E+00  0.15376962084E+02  0.16079209027E+02  0.47000000000E+01 0. -1.
         -5   -1    0    0    0  501 -0.00000000000E+00 -0.00000000000E+00 -0.20807673464E+04  0.20807726545E+04  0.47000000000E+01 0.  1.
          6    1    1    2  502    0 -0.13306519149E+02  0.44468660682E+02 -0.84954475445E+03  0.86802351066E+03  0.17200000000E+03 0. -1.
         -6    1    1    2    0  502  0.13306519149E+02 -0.44468660682E+02 -0.12158456299E+04  0.12288283529E+04  0.17200000000E+03 0.  1.
</event>
<event>
 4    1 -0.6855026E-004  0.2078708E+03  0.7818608E-02  0.1143263E+00
         -5   -1    0    0    0  501 -0.00000000000E+00  0.00000000000E+00  0.67306438195E+03  0.67308079177E+03  0.47000000000E+01 0.  1.
          5   -1    0    0  501    0  0.00000000000E+00 -0.00000000000E+00 -0.10456641909E+04  0.10456747535E+04  0.47000000000E+01 0. -1.
          6    1    1    2  502    0 -0.47634687065E+01 -0.11663434328E+03 -0.10188796691E+04  0.10398682805E+04  0.17200000000E+03 0. -1.
         -6    1    1    2    0  502  0.47634687065E+01  0.11663434328E+03  0.64627986014E+03  0.67888726479E+03  0.17200000000E+03 0.  1.
</event>
<event>
 4    1 -0.6855026E-004  0.1851438E+03  0.7818608E-02  0.1162916E+00
         -5   -1    0    0    0  501 -0.00000000000E+00  0.00000000000E+00  0.13169426860E+03  0.13177811040E+03  0.47000000000E+01 0.  1.
          5   -1    0    0  501    0  0.00000000000E+00 -0.00000000000E+00 -0.87137119037E+03  0.87138386570E+03  0.47000000000E+01 0. -1.
          6    1    1    2  502    0  0.56096427686E+02 -0.39337269816E+02 -0.78991574255E+03  0.81132306162E+03  0.17200000000E+03 0. -1.
         -6    1    1    2    0  502 -0.56096427686E+02  0.39337269816E+02  0.50238820775E+02  0.19183891448E+03  0.17200000000E+03 0.  1.
</event>
<event>
 4    1 -0.6855026E-004  0.2008634E+03  0.7818608E-02  0.1149013E+00
         -5   -1    0    0    0  501 -0.00000000000E+00  0.00000000000E+00  0.76147455490E+03  0.76148905952E+03  0.47000000000E+01 0.  1.
          5   -1    0    0  501    0  0.00000000000E+00 -0.00000000000E+00 -0.20961582110E+03  0.20966850611E+03  0.47000000000E+01 0. -1.
          6    1    1    2  502    0 -0.10349332937E+03  0.71580495047E+01 -0.14383196425E+03  0.24705007759E+03  0.17200000000E+03 0. -1.
         -6    1    1    2    0  502  0.10349332937E+03 -0.71580495047E+01  0.69569069805E+03  0.72410748805E+03  0.17200000000E+03 0.  1.
</event>
<event>
 4    1 -0.6855026E-004  0.1938761E+03  0.7818608E-02  0.1155011E+00
         -5   -1    0    0    0  501 -0.00000000000E+00  0.00000000000E+00  0.17328981181E+03  0.17335353725E+03  0.47000000000E+01 0.  1.
          5   -1    0    0  501    0  0.00000000000E+00 -0.00000000000E+00 -0.62369429470E+03  0.62371200345E+03  0.47000000000E+01 0. -1.
          6    1    1    2  502    0 -0.75860624572E+02  0.47424679764E+02 -0.54708380265E+03  0.58042107278E+03  0.17200000000E+03 0. -1.
         -6    1    1    2    0  502  0.75860624572E+02 -0.47424679764E+02  0.96679319759E+02  0.21664446792E+03  0.17200000000E+03 0.  1.
</event>
<event>
 4    1 -0.6855026E-004  0.2341396E+03  0.7818608E-02  0.1123760E+00
         -5   -1    0    0    0  501 -0.00000000000E+00  0.00000000000E+00  0.38418679764E+03  0.38421554560E+03  0.47000000000E+01 0.  1.
          5   -1    0    0  501    0  0.00000000000E+00 -0.00000000000E+00 -0.17652984508E+03  0.17659240132E+03  0.47000000000E+01 0. -1.
          6    1    1    2  502    0  0.12447188773E+03  0.98712309344E+02 -0.19030022855E+02  0.23491171240E+03  0.17200000000E+03 0. -1.
         -6    1    1    2    0  502 -0.12447188773E+03 -0.98712309344E+02  0.22668697541E+03  0.32589623452E+03  0.17200000000E+03 0.  1.
</event>
<event>
 4    1 -0.6855026E-004  0.1878886E+03  0.7818608E-02  0.1160380E+00
         -5   -1    0    0    0  501 -0.00000000000E+00  0.00000000000E+00  0.20861616133E+03  0.20866909874E+03  0.47000000000E+01 0.  1.
          5   -1    0    0  501    0  0.00000000000E+00 -0.00000000000E+00 -0.10792908407E+04  0.10793010742E+04  0.47000000000E+01 0. -1.
          6    1    1    2  502    0  0.38667439837E+02  0.64984337338E+02 -0.10266965072E+04  0.10437470254E+04  0.17200000000E+03 0. -1.
         -6    1    1    2    0  502 -0.38667439837E+02 -0.64984337338E+02  0.15602182793E+03  0.24422314754E+03  0.17200000000E+03 0.  1.
</event>
<event>
 4    1 -0.6855026E-004  0.1731900E+03  0.7818608E-02  0.1174561E+00
          5   -1    0    0  501    0  0.00000000000E+00  0.00000000000E+00  0.15508045211E+04  0.15508116432E+04  0.47000000000E+01 0. -1.
         -5   -1    0    0    0  501 -0.00000000000E+00 -0.00000000000E+00 -0.55969345687E+02  0.56166339178E+02  0.47000000000E+01 0.  1.
          6    1    1    2  502    0 -0.17102503901E+02 -0.10876005659E+02  0.13977374614E+04  0.14084263538E+04  0.17200000000E+03 0. -1.
         -6    1    1    2    0  502  0.17102503901E+02  0.10876005659E+02  0.97097714040E+02  0.19855162858E+03  0.17200000000E+03 0.  1.
</event>
<event>
 4    1 -0.6855026E-004  0.1835947E+03  0.7818608E-02  0.1164369E+00
          5   -1    0    0  501    0  0.00000000000E+00  0.00000000000E+00  0.17407926051E+03  0.17414269706E+03  0.47000000000E+01 0. -1.
         -5   -1    0    0    0  501 -0.00000000000E+00 -0.00000000000E+00 -0.45920457683E+03  0.45922862866E+03  0.47000000000E+01 0.  1.
          6    1    1    2  502    0 -0.15280532961E+02  0.62366115838E+02  0.98302016287E+02  0.20825540449E+03  0.17200000000E+03 0. -1.
         -6    1    1    2    0  502  0.15280532961E+02 -0.62366115838E+02 -0.38342733261E+03  0.42511592123E+03  0.17200000000E+03 0.  1.
</event>
<event>
 4    1 -0.6855026E-004  0.1915498E+03  0.7818608E-02  0.1157071E+00
         -5   -1    0    0    0  501 -0.00000000000E+00  0.00000000000E+00  0.24128577532E+03  0.24133154658E+03  0.47000000000E+01 0.  1.
          5   -1    0    0  501    0  0.00000000000E+00 -0.00000000000E+00 -0.33762767584E+03  0.33766038781E+03  0.47000000000E+01 0. -1.
          6    1    1    2  502    0 -0.61683551332E+02 -0.57466919061E+02 -0.26281433976E+03  0.32521175329E+03  0.17200000000E+03 0. -1.
         -6    1    1    2    0  502  0.61683551332E+02  0.57466919061E+02  0.16647243924E+03  0.25378018110E+03  0.17200000000E+03 0.  1.
</event>
<event>
 4    1 -0.6855026E-004  0.1766362E+03  0.7818608E-02  0.1171099E+00
         -5   -1    0    0    0  501 -0.00000000000E+00  0.00000000000E+00  0.11132999309E+04  0.11133098518E+04  0.47000000000E+01 0.  1.
          5   -1    0    0  501    0  0.00000000000E+00 -0.00000000000E+00 -0.46359193107E+02  0.46596832356E+02  0.47000000000E+01 0. -1.
          6    1    1    2  502    0 -0.65440201135E+01 -0.39667829477E+02  0.16798214864E+03  0.24375882170E+03  0.17200000000E+03 0. -1.
         -6    1    1    2    0  502  0.65440201135E+01  0.39667829477E+02  0.89895858913E+03  0.91614786245E+03  0.17200000000E+03 0.  1.
</event>
<event>
 4    1 -0.6855026E-004  0.1739138E+03  0.7818608E-02  0.1173827E+00
          5   -1    0    0  501    0  0.00000000000E+00  0.00000000000E+00  0.14315222376E+03  0.14322935860E+03  0.47000000000E+01 0. -1.
         -5   -1    0    0    0  501 -0.00000000000E+00 -0.00000000000E+00 -0.14461548039E+04  0.14461624413E+04  0.47000000000E+01 0.  1.
          6    1    1    2  502    0 -0.25649147419E+02 -0.20359155082E+01  0.82870729216E+02  0.19264885537E+03  0.17200000000E+03 0. -1.
         -6    1    1    2    0  502  0.25649147419E+02  0.20359155082E+01 -0.13858733093E+04  0.13967429446E+04  0.17200000000E+03 0.  1.
</event>
<event>
 4    1 -0.6855026E-004  0.3252454E+03  0.7818608E-02  0.1073260E+00
          5   -1    0    0  501    0  0.00000000000E+00  0.00000000000E+00  0.48248052132E+03  0.48250341289E+03  0.47000000000E+01 0. -1.
         -5   -1    0    0    0  501 -0.00000000000E+00 -0.00000000000E+00 -0.10788733618E+04  0.10788835993E+04  0.47000000000E+01 0.  1.
          6    1    1    2  502    0 -0.14027783737E+03 -0.23774496523E+03  0.39867367689E+03  0.51451456811E+03  0.17200000000E+03 0. -1.
         -6    1    1    2    0  502  0.14027783737E+03  0.23774496523E+03 -0.99506651740E+03  0.10468724441E+04  0.17200000000E+03 0.  1.
</event>
<event>
 4    1 -0.6855026E-004  0.2166670E+03  0.7818608E-02  0.1136393E+00
         -5   -1    0    0    0  501 -0.00000000000E+00  0.00000000000E+00  0.22255257804E+03  0.22260220123E+03  0.47000000000E+01 0.  1.
          5   -1    0    0  501    0  0.00000000000E+00 -0.00000000000E+00 -0.57848472604E+03  0.57850381871E+03  0.47000000000E+01 0. -1.
          6    1    1    2  502    0  0.12412406174E+03  0.44201841309E+02 -0.49726504826E+03  0.54241784051E+03  0.17200000000E+03 0. -1.
         -6    1    1    2    0  502 -0.12412406174E+03 -0.44201841309E+02  0.14133290026E+03  0.25868817942E+03  0.17200000000E+03 0.  1.
</event>
<event>
 4    1 -0.6855026E-004  0.1733400E+03  0.7818608E-02  0.1174409E+00
         -5   -1    0    0    0  501 -0.00000000000E+00  0.00000000000E+00  0.11830518231E+04  0.11830611591E+04  0.47000000000E+01 0.  1.
          5   -1    0    0  501    0  0.00000000000E+00 -0.00000000000E+00 -0.32940673701E+02  0.33274284123E+02  0.47000000000E+01 0. -1.
          6    1    1    2  502    0  0.10995051556E+02  0.18489985882E+02  0.28143515457E+03  0.33053368507E+03  0.17200000000E+03 0. -1.
         -6    1    1    2    0  502 -0.10995051556E+02 -0.18489985882E+02  0.86867599482E+03  0.88580175814E+03  0.17200000000E+03 0.  1.
</event>
<event>
 4    1 -0.6855026E-004  0.2083638E+03  0.7818608E-02  0.1142868E+00
          5   -1    0    0  501    0  0.00000000000E+00  0.00000000000E+00  0.29287714301E+03  0.29291485265E+03  0.47000000000E+01 0. -1.
         -5   -1    0    0    0  501 -0.00000000000E+00 -0.00000000000E+00 -0.88901363170E+03  0.88902605550E+03  0.47000000000E+01 0.  1.
          6    1    1    2  502    0 -0.35916019252E+02  0.11198891685E+03  0.24139255314E+03  0.31888217675E+03  0.17200000000E+03 0. -1.
         -6    1    1    2    0  502  0.35916019252E+02 -0.11198891685E+03 -0.83752904183E+03  0.86305873140E+03  0.17200000000E+03 0.  1.
</event>
<event>
 4    1 -0.6855026E-004  0.1988165E+03  0.7818608E-02  0.1150741E+00
         -5   -1    0    0    0  501 -0.00000000000E+00  0.00000000000E+00  0.99266176804E+02  0.99377381014E+02  0.47000000000E+01 0.  1.
          5   -1    0    0  501    0  0.00000000000E+00 -0.00000000000E+00 -0.77166769629E+03  0.77168200931E+03  0.47000000000E+01 0. -1.
          6    1    1    2  502    0  0.64551236828E+02  0.76007460344E+02 -0.63930567193E+03  0.66950708612E+03  0.17200000000E+03 0. -1.
         -6    1    1    2    0  502 -0.64551236828E+02 -0.76007460344E+02 -0.33095847551E+02  0.20155230420E+03  0.17200000000E+03 0.  1.
</event>
<event>
 4    1 -0.6855026E-004  0.2193819E+03  0.7818608E-02  0.1134345E+00
         -5   -1    0    0    0  501 -0.00000000000E+00  0.00000000000E+00  0.56042715941E+03  0.56044686725E+03  0.47000000000E+01 0.  1.
          5   -1    0    0  501    0  0.00000000000E+00 -0.00000000000E+00 -0.29525027423E+03  0.29528768080E+03  0.47000000000E+01 0. -1.
          6    1    1    2  502    0 -0.26388982317E+02 -0.13359659749E+03 -0.22773003216E+03  0.31621100044E+03  0.17200000000E+03 0. -1.
         -6    1    1    2    0  502  0.26388982317E+02  0.13359659749E+03  0.49290691735E+03  0.53952354761E+03  0.17200000000E+03 0.  1.
</event>
<event>
 4    1 -0.6855026E-004  0.1917769E+03  0.7818608E-02  0.1156868E+00
          5   -1    0    0  501    0  0.00000000000E+00  0.00000000000E+00  0.18198678649E+03  0.18204746759E+03  0.47000000000E+01 0. -1.
         -5   -1    0    0    0  501 -0.00000000000E+00 -0.00000000000E+00 -0.35591458610E+03  0.35594561747E+03  0.47000000000E+01 0.  1.
          6    1    1    2  502    0  0.15646420446E+02  0.83364171016E+02  0.89920669178E+02  0.21181152525E+03  0.17200000000E+03 0. -1.
         -6    1    1    2    0  502 -0.15646420446E+02 -0.83364171016E+02 -0.26384846879E+03  0.32618155982E+03  0.17200000000E+03 0.  1.
</event>
<event>
 4    1 -0.6855026E-004  0.1737934E+03  0.7818608E-02  0.1173949E+00
         -5   -1    0    0    0  501 -0.00000000000E+00  0.00000000000E+00  0.21156779514E+03  0.21161999418E+03  0.47000000000E+01 0.  1.
          5   -1    0    0  501    0  0.00000000000E+00 -0.00000000000E+00 -0.34728743702E+03  0.34731923920E+03  0.47000000000E+01 0. -1.
          6    1    1    2  502    0  0.14231745239E+02  0.20435496536E+02 -0.28235156173E+03  0.33155174031E+03  0.17200000000E+03 0. -1.
         -6    1    1    2    0  502 -0.14231745239E+02 -0.20435496536E+02  0.14663191984E+03  0.22738749307E+03  0.17200000000E+03 0.  1.
</event>
<event>
 4    1 -0.6855026E-004  0.1886571E+03  0.7818608E-02  0.1159678E+00
          5   -1    0    0  501    0  0.00000000000E+00  0.00000000000E+00  0.36199047335E+03  0.36202098391E+03  0.47000000000E+01 0. -1.
         -5   -1    0    0    0  501 -0.00000000000E+00 -0.00000000000E+00 -0.19471010622E+03  0.19476682331E+03  0.47000000000E+01 0.  1.
          6    1    1    2  502    0  0.66541962128E+02 -0.39745149638E+02  0.27954909831E+03  0.33725243959E+03  0.17200000000E+03 0. -1.
         -6    1    1    2    0  502 -0.66541962128E+02  0.39745149638E+02 -0.11226873118E+03  0.21953536764E+03  0.17200000000E+03 0.  1.
</event>
<event>
 4    1 -0.6855026E-004  0.1796714E+03  0.7818608E-02  0.1168121E+00
          5   -1    0    0  501    0  0.00000000000E+00  0.00000000000E+00  0.10171410868E+03  0.10182263945E+03  0.47000000000E+01 0. -1.
         -5   -1    0    0    0  501 -0.00000000000E+00 -0.00000000000E+00 -0.53016327133E+03  0.53018410412E+03  0.47000000000E+01 0.  1.
          6    1    1    2  502    0  0.33043410161E+01 -0.51835346668E+02 -0.13914482870E+02  0.18020941892E+03  0.17200000000E+03 0. -1.
         -6    1    1    2    0  502 -0.33043410161E+01  0.51835346668E+02 -0.41453467977E+03  0.45179732466E+03  0.17200000000E+03 0.  1.
</event>
<event>
 4    1 -0.6855026E-004  0.2056573E+03  0.7818608E-02  0.1145052E+00
          5   -1    0    0  501    0  0.00000000000E+00  0.00000000000E+00  0.34918295174E+03  0.34921458129E+03  0.47000000000E+01 0. -1.
         -5   -1    0    0    0  501 -0.00000000000E+00 -0.00000000000E+00 -0.12715714143E+03  0.12724397281E+03  0.47000000000E+01 0.  1.
          6    1    1    2  502    0 -0.10652337750E+03  0.36928178315E+02  0.16322829168E+03  0.26256122241E+03  0.17200000000E+03 0. -1.
         -6    1    1    2    0  502  0.10652337750E+03 -0.36928178315E+02  0.58797518618E+02  0.21389733169E+03  0.17200000000E+03 0.  1.
</event>
<event>
 4    1 -0.6855026E-004  0.1966520E+03  0.7818608E-02  0.1152595E+00
         -5   -1    0    0    0  501 -0.00000000000E+00  0.00000000000E+00  0.96167532946E+03  0.96168681456E+03  0.47000000000E+01 0.  1.
          5   -1    0    0  501    0  0.00000000000E+00 -0.00000000000E+00 -0.71570592330E+02  0.71724749470E+02  0.47000000000E+01 0. -1.
          6    1    1    2  502    0 -0.62109997853E+02 -0.72321083793E+02  0.10276418480E+03  0.22188390809E+03  0.17200000000E+03 0. -1.
         -6    1    1    2    0  502  0.62109997853E+02  0.72321083793E+02  0.78734055233E+03  0.81152765593E+03  0.17200000000E+03 0.  1.
</event>
<event>
 4    1 -0.6855026E-004  0.1812516E+03  0.7818608E-02  0.1166597E+00
          5   -1    0    0  501    0  0.00000000000E+00  0.00000000000E+00  0.44510394290E+02  0.44757850706E+02  0.47000000000E+01 0. -1.
         -5   -1    0    0    0  501 -0.00000000000E+00 -0.00000000000E+00 -0.16337944557E+04  0.16338012160E+04  0.47000000000E+01 0.  1.
          6    1    1    2  502    0 -0.51721129134E+02 -0.24352738043E+02 -0.17246205039E+03  0.25019050716E+03  0.17200000000E+03 0. -1.
         -6    1    1    2    0  502  0.51721129134E+02  0.24352738043E+02 -0.14168220110E+04  0.14283685596E+04  0.17200000000E+03 0.  1.
</event>
<event>
 4    1 -0.6855026E-004  0.1833991E+03  0.7818608E-02  0.1164553E+00
          5   -1    0    0  501    0  0.00000000000E+00  0.00000000000E+00  0.46333039904E+03  0.46335423671E+03  0.47000000000E+01 0. -1.
         -5   -1    0    0    0  501 -0.00000000000E+00 -0.00000000000E+00 -0.73951916760E+02  0.74101120049E+02  0.47000000000E+01 0.  1.
          6    1    1    2  502    0 -0.59952248236E+02  0.21376159110E+02  0.15698456920E+03  0.24141119944E+03  0.17200000000E+03 0.  1.
         -6    1    1    2    0  502  0.59952248236E+02 -0.21376159110E+02  0.23239391308E+03  0.29604415732E+03  0.17200000000E+03 0. -1.
</event>
<event>
 4    1 -0.6855026E-004  0.1805960E+03  0.7818608E-02  0.1167228E+00
         -5   -1    0    0    0  501 -0.00000000000E+00  0.00000000000E+00  0.14464896537E+03  0.14472530249E+03  0.47000000000E+01 0.  1.
          5   -1    0    0  501    0  0.00000000000E+00 -0.00000000000E+00 -0.35300646307E+03  0.35303775006E+03  0.47000000000E+01 0. -1.
          6    1    1    2  502    0  0.55034648452E+02  0.14447707068E+01 -0.25383991471E+03  0.31152785139E+03  0.17200000000E+03 0. -1.
         -6    1    1    2    0  502 -0.55034648452E+02 -0.14447707068E+01  0.45482417012E+02  0.18623520116E+03  0.17200000000E+03 0.  1.
</event>
<event>
 4    1 -0.6855026E-004  0.1853106E+03  0.7818608E-02  0.1162760E+00
         -5   -1    0    0    0  501 -0.00000000000E+00  0.00000000000E+00  0.48137138715E+02  0.48366043085E+02  0.47000000000E+01 0.  1.
          5   -1    0    0  501    0  0.00000000000E+00 -0.00000000000E+00 -0.13054521850E+04  0.13054606456E+04  0.47000000000E+01 0. -1.
          6    1    1    2  502    0  0.27267969255E+02  0.63344052588E+02 -0.10852266780E+04  0.11009345820E+04  0.17200000000E+03 0. -1.
         -6    1    1    2    0  502 -0.27267969255E+02 -0.63344052588E+02 -0.17208836820E+03  0.25289210667E+03  0.17200000000E+03 0.  1.
</event>
<event>
 4    1 -0.6855026E-004  0.1805704E+03  0.7818608E-02  0.1167252E+00
          5   -1    0    0  501    0  0.00000000000E+00  0.00000000000E+00  0.31105910850E+03  0.31109461420E+03  0.47000000000E+01 0. -1.
         -5   -1    0    0    0  501 -0.00000000000E+00 -0.00000000000E+00 -0.25461020055E+03  0.25465357689E+03  0.47000000000E+01 0.  1.
          6    1    1    2  502    0 -0.52329308717E+02 -0.16832038845E+02  0.24521341379E+03  0.30452469914E+03  0.17200000000E+03 0. -1.
         -6    1    1    2    0  502  0.52329308717E+02  0.16832038845E+02 -0.18876450583E+03  0.26122349195E+03  0.17200000000E+03 0.  1.
</event>
<event>
 4    1 -0.6855026E-004  0.1799953E+03  0.7818608E-02  0.1167808E+00
         -5   -1    0    0    0  501 -0.00000000000E+00  0.00000000000E+00  0.15496678758E+03  0.15503804454E+03  0.47000000000E+01 0.  1.
          5   -1    0    0  501    0  0.00000000000E+00 -0.00000000000E+00 -0.29859665970E+03  0.29863364711E+03  0.47000000000E+01 0. -1.
          6    1    1    2  502    0  0.14536121188E+02 -0.51019766243E+02 -0.19610126997E+03  0.26618419084E+03  0.17200000000E+03 0. -1.
         -6    1    1    2    0  502 -0.14536121188E+02  0.51019766243E+02  0.52471397854E+02  0.18748750081E+03  0.17200000000E+03 0.  1.
</event>
<event>
 4    1 -0.6855026E-004  0.4597762E+03  0.7818608E-02  0.1024846E+00
          5   -1    0    0  501    0  0.00000000000E+00  0.00000000000E+00  0.48777882355E+03  0.48780146649E+03  0.47000000000E+01 0. -1.
         -5   -1    0    0    0  501 -0.00000000000E+00 -0.00000000000E+00 -0.11322840462E+04  0.11322938008E+04  0.47000000000E+01 0.  1.
          6    1    1    2  502    0 -0.34479549357E+03  0.25085106235E+03  0.31417301053E+03  0.55686521566E+03  0.17200000000E+03 0. -1.
         -6    1    1    2    0  502  0.34479549357E+03 -0.25085106235E+03 -0.95867823320E+03  0.10632300516E+04  0.17200000000E+03 0.  1.
</event>
<event>
 4    1 -0.6855026E-004  0.2162801E+03  0.7818608E-02  0.1136687E+00
         -5   -1    0    0    0  501 -0.00000000000E+00  0.00000000000E+00  0.11359641961E+04  0.11359739191E+04  0.47000000000E+01 0.  1.
          5   -1    0    0  501    0  0.00000000000E+00 -0.00000000000E+00 -0.10901964868E+03  0.10912091366E+03  0.47000000000E+01 0. -1.
          6    1    1    2  502    0  0.11799538165E+03 -0.57185554216E+02  0.22292247898E+02  0.21742594606E+03  0.17200000000E+03 0. -1.
         -6    1    1    2    0  502 -0.11799538165E+03  0.57185554216E+02  0.10046522996E+04  0.10276688867E+04  0.17200000000E+03 0.  1.
</event>
<event>
 4    1 -0.6855026E-004  0.1723676E+03  0.7818608E-02  0.1175401E+00
          5   -1    0    0  501    0  0.00000000000E+00  0.00000000000E+00  0.52699110397E+03  0.52701206216E+03  0.47000000000E+01 0. -1.
         -5   -1    0    0    0  501 -0.00000000000E+00 -0.00000000000E+00 -0.80441223085E+02  0.80578411323E+02  0.47000000000E+01 0.  1.
          6    1    1    2  502    0  0.83779094130E+01  0.75095411768E+01  0.38965286695E+03  0.42607503952E+03  0.17200000000E+03 0. -1.
         -6    1    1    2    0  502 -0.83779094130E+01 -0.75095411768E+01  0.56897013935E+02  0.18151543397E+03  0.17200000000E+03 0.  1.
</event>
<event>
 4    1 -0.6855026E-004  0.1814217E+03  0.7818608E-02  0.1166434E+00
         -5   -1    0    0    0  501 -0.00000000000E+00  0.00000000000E+00  0.86987852161E+02  0.87114731381E+02  0.47000000000E+01 0.  1.
          5   -1    0    0  501    0  0.00000000000E+00 -0.00000000000E+00 -0.68225516698E+03  0.68227135575E+03  0.47000000000E+01 0. -1.
          6    1    1    2  502    0  0.48239741071E+02 -0.31666454708E+02 -0.55452176907E+03  0.58344513824E+03  0.17200000000E+03 0. -1.
         -6    1    1    2    0  502 -0.48239741071E+02  0.31666454708E+02 -0.40745545753E+02  0.18594094888E+03  0.17200000000E+03 0.  1.
</event>
<event>
 4    1 -0.6855026E-004  0.2500065E+03  0.7818608E-02  0.1113301E+00
          5   -1    0    0  501    0  0.00000000000E+00  0.00000000000E+00  0.60899669123E+03  0.60901482735E+03  0.47000000000E+01 0. -1.
         -5   -1    0    0    0  501 -0.00000000000E+00 -0.00000000000E+00 -0.44297276713E+03  0.44299770024E+03  0.47000000000E+01 0.  1.
          6    1    1    2  502    0  0.18141080396E+03  0.30645170364E+01  0.54407905825E+03  0.59876981611E+03  0.17200000000E+03 0. -1.
         -6    1    1    2    0  502 -0.18141080396E+03 -0.30645170364E+01 -0.37805513415E+03  0.45324271148E+03  0.17200000000E+03 0.  1.
</event>
<event>
 4    1 -0.6855026E-004  0.2139869E+03  0.7818608E-02  0.1138447E+00
          5   -1    0    0  501    0  0.00000000000E+00  0.00000000000E+00  0.96292254557E+02  0.96406889213E+02  0.47000000000E+01 0. -1.
         -5   -1    0    0    0  501 -0.00000000000E+00 -0.00000000000E+00 -0.12109321399E+04  0.12109412610E+04  0.47000000000E+01 0.  1.
          6    1    1    2  502    0  0.78333472900E+02  0.10035077883E+03 -0.47802073105E+02  0.21926114563E+03  0.17200000000E+03 0. -1.
         -6    1    1    2    0  502 -0.78333472900E+02 -0.10035077883E+03 -0.10668378123E+04  0.10880870046E+04  0.17200000000E+03 0.  1.
</event>
<event>
 4    1 -0.6855026E-004  0.1965214E+03  0.7818608E-02  0.1152708E+00
         -5   -1    0    0    0  501 -0.00000000000E+00  0.00000000000E+00  0.65502190133E+02  0.65670593969E+02  0.47000000000E+01 0.  1.
          5   -1    0    0  501    0  0.00000000000E+00 -0.00000000000E+00 -0.87490645569E+03  0.87491907980E+03  0.47000000000E+01 0. -1.
          6    1    1    2  502    0  0.56592964624E-01  0.95061299756E+02 -0.67367177927E+03  0.70175089604E+03  0.17200000000E+03 0. -1.
         -6    1    1    2    0  502 -0.56592964624E-01 -0.95061299756E+02 -0.13573248629E+03  0.23883877773E+03  0.17200000000E+03 0.  1.
</event>
<event>
 4    1 -0.6855026E-004  0.2425642E+03  0.7818608E-02  0.1118096E+00
          5   -1    0    0  501    0  0.00000000000E+00  0.00000000000E+00  0.64512328351E+03  0.64514040404E+03  0.47000000000E+01 0. -1.
         -5   -1    0    0    0  501 -0.00000000000E+00 -0.00000000000E+00 -0.34415464829E+03  0.34418673992E+03  0.47000000000E+01 0.  1.
          6    1    1    2  502    0  0.14232425272E+03 -0.94853680142E+02  0.57457637326E+03  0.62367894164E+03  0.17200000000E+03 0. -1.
         -6    1    1    2    0  502 -0.14232425272E+03  0.94853680142E+02 -0.27360773804E+03  0.36564820232E+03  0.17200000000E+03 0.  1.
</event>
<event>
 4    1 -0.6855026E-004  0.1870332E+03  0.7818608E-02  0.1161165E+00
          5   -1    0    0  501    0  0.00000000000E+00  0.00000000000E+00  0.12628087426E+04  0.12628174889E+04  0.47000000000E+01 0. -1.
         -5   -1    0    0    0  501 -0.00000000000E+00 -0.00000000000E+00 -0.68750152508E+02  0.68910619427E+02  0.47000000000E+01 0.  1.
          6    1    1    2  502    0 -0.51834656839E+02  0.52063284164E+02  0.11117708105E+04  0.11273933441E+04  0.17200000000E+03 0. -1.
         -6    1    1    2    0  502  0.51834656839E+02 -0.52063284164E+02  0.82287779515E+02  0.20433476421E+03  0.17200000000E+03 0.  1.
</event>
<event>
 4    1 -0.6855026E-004  0.1996404E+03  0.7818608E-02  0.1150043E+00
         -5   -1    0    0    0  501 -0.00000000000E+00  0.00000000000E+00  0.18895583872E+03  0.18901428249E+03  0.47000000000E+01 0.  1.
          5   -1    0    0  501    0  0.00000000000E+00 -0.00000000000E+00 -0.38865384076E+03  0.38868225833E+03  0.47000000000E+01 0. -1.
          6    1    1    2  502    0 -0.20448546443E+02  0.99267977046E+02 -0.29521559090E+03  0.35638254647E+03  0.17200000000E+03 0. -1.
         -6    1    1    2    0  502  0.20448546443E+02 -0.99267977046E+02  0.95517588852E+02  0.22131399436E+03  0.17200000000E+03 0.  1.
</event>
<event>
 4    1 -0.6855026E-004  0.3595896E+03  0.7818608E-02  0.1058746E+00
          5   -1    0    0  501    0  0.00000000000E+00  0.00000000000E+00  0.40919774751E+03  0.40922473846E+03  0.47000000000E+01 0. -1.
         -5   -1    0    0    0  501 -0.00000000000E+00 -0.00000000000E+00 -0.44945407549E+03  0.44947864907E+03  0.47000000000E+01 0.  1.
          6    1    1    2  502    0 -0.11798534053E+03 -0.29291660101E+03  0.21386626654E+03  0.41838194953E+03  0.17200000000E+03 0. -1.
         -6    1    1    2    0  502  0.11798534053E+03  0.29291660101E+03 -0.25412259452E+03  0.44032143801E+03  0.17200000000E+03 0.  1.
</event>
<event>
 4    1 -0.6855026E-004  0.1910454E+03  0.7818608E-02  0.1157522E+00
          5   -1    0    0  501    0  0.00000000000E+00  0.00000000000E+00  0.26163980810E+03  0.26168201922E+03  0.47000000000E+01 0. -1.
         -5   -1    0    0    0  501 -0.00000000000E+00 -0.00000000000E+00 -0.84608343472E+03  0.84609648889E+03  0.47000000000E+01 0.  1.
          6    1    1    2  502    0 -0.83116005273E+02  0.24629075309E+01  0.21395760929E+03  0.28683827293E+03  0.17200000000E+03 0. -1.
         -6    1    1    2    0  502  0.83116005273E+02 -0.24629075309E+01 -0.79840123590E+03  0.82094023518E+03  0.17200000000E+03 0.  1.
</event>
<event>
 4    1 -0.6855026E-004  0.2528165E+03  0.7818608E-02  0.1111538E+00
          5   -1    0    0  501    0  0.00000000000E+00  0.00000000000E+00  0.31228829238E+03  0.31232365834E+03  0.47000000000E+01 0. -1.
         -5   -1    0    0    0  501 -0.00000000000E+00 -0.00000000000E+00 -0.14608332931E+04  0.14608408538E+04  0.47000000000E+01 0.  1.
          6    1    1    2  502    0  0.61799117334E+02  0.17467980496E+03  0.24786534413E+03  0.35405281242E+03  0.17200000000E+03 0. -1.
         -6    1    1    2    0  502 -0.61799117334E+02 -0.17467980496E+03 -0.13964103448E+04  0.14191116997E+04  0.17200000000E+03 0.  1.
</event>
<event>
 4    1 -0.6855026E-004  0.2280948E+03  0.7818608E-02  0.1127988E+00
         -5   -1    0    0    0  501 -0.00000000000E+00  0.00000000000E+00  0.21185321238E+03  0.21190534112E+03  0.47000000000E+01 0.  1.
          5   -1    0    0  501    0  0.00000000000E+00 -0.00000000000E+00 -0.76968122387E+03  0.76969557383E+03  0.47000000000E+01 0. -1.
          6    1    1    2  502    0 -0.14077165283E+03  0.51250156564E+02 -0.68393433144E+03  0.72096699405E+03  0.17200000000E+03 0. -1.
         -6    1    1    2    0  502  0.14077165283E+03 -0.51250156564E+02  0.12610631995E+03  0.26063392090E+03  0.17200000000E+03 0.  1.
</event>
<event>
 4    1 -0.6855026E-004  0.1939139E+03  0.7818608E-02  0.1154978E+00
         -5   -1    0    0    0  501 -0.00000000000E+00  0.00000000000E+00  0.16428596088E+03  0.16435317747E+03  0.47000000000E+01 0.  1.
          5   -1    0    0  501    0  0.00000000000E+00 -0.00000000000E+00 -0.23591400111E+03  0.23596081437E+03  0.47000000000E+01 0. -1.
          6    1    1    2  502    0  0.89288967220E+02 -0.67873057367E+01 -0.70692958245E+02  0.20639787192E+03  0.17200000000E+03 0. -1.
         -6    1    1    2    0  502 -0.89288967220E+02  0.67873057367E+01 -0.93508197902E+00  0.19391611992E+03  0.17200000000E+03 0. -1.
</event>
<event>
 4    1 -0.6855026E-004  0.1729301E+03  0.7818608E-02  0.1174826E+00
         -5   -1    0    0    0  501 -0.00000000000E+00  0.00000000000E+00  0.27142407866E+03  0.27146476839E+03  0.47000000000E+01 0.  1.
          5   -1    0    0  501    0  0.00000000000E+00 -0.00000000000E+00 -0.20797782133E+03  0.20803092117E+03  0.47000000000E+01 0. -1.
          6    1    1    2  502    0  0.41343606302E+01  0.17427646577E+02 -0.13271926887E+03  0.21798903673E+03  0.17200000000E+03 0. -1.
         -6    1    1    2    0  502 -0.41343606302E+01 -0.17427646577E+02  0.19616552621E+03  0.26150665283E+03  0.17200000000E+03 0.  1.
</event>
<event>
 4    1 -0.6855026E-004  0.2115939E+03  0.7818608E-02  0.1140310E+00
         -5   -1    0    0    0  501 -0.00000000000E+00  0.00000000000E+00  0.40703096660E+03  0.40705810123E+03  0.47000000000E+01 0.  1.
          5   -1    0    0  501    0  0.00000000000E+00 -0.00000000000E+00 -0.32308562583E+03  0.32311981001E+03  0.47000000000E+01 0. -1.
          6    1    1    2  502    0 -0.26035063439E+02  0.12045808034E+03 -0.25453751607E+03  0.33100048449E+03  0.17200000000E+03 0. -1.
         -6    1    1    2    0  502  0.26035063439E+02 -0.12045808034E+03  0.33848285684E+03  0.39917742674E+03  0.17200000000E+03 0.  1.
</event>
<event>
 4    1 -0.6855026E-004  0.4323761E+03  0.7818608E-02  0.1033112E+00
          5   -1    0    0  501    0  0.00000000000E+00  0.00000000000E+00  0.17144122857E+04  0.17144187281E+04  0.47000000000E+01 0. -1.
         -5   -1    0    0    0  501 -0.00000000000E+00 -0.00000000000E+00 -0.28627755519E+03  0.28631613403E+03  0.47000000000E+01 0.  1.
          6    1    1    2  502    0 -0.30743339142E+03  0.25069858372E+03  0.15012023223E+04  0.15622283708E+04  0.17200000000E+03 0. -1.
         -6    1    1    2    0  502  0.30743339142E+03 -0.25069858372E+03 -0.73067591741E+02  0.43850649141E+03  0.17200000000E+03 0.  1.
</event>
<event>
 4    1 -0.6855026E-004  0.2329533E+03  0.7818608E-02  0.1124578E+00
         -5   -1    0    0    0  501 -0.00000000000E+00  0.00000000000E+00  0.66610593064E+02  0.66776201661E+02  0.47000000000E+01 0.  1.
          5   -1    0    0  501    0  0.00000000000E+00 -0.00000000000E+00 -0.23585994527E+04  0.23586041355E+04  0.47000000000E+01 0. -1.
          6    1    1    2  502    0 -0.12911736685E+03  0.89509546043E+02 -0.21274789773E+04  0.21401948631E+04  0.17200000000E+03 0. -1.
         -6    1    1    2    0  502  0.12911736685E+03 -0.89509546043E+02 -0.16450988234E+03  0.28518547411E+03  0.17200000000E+03 0.  1.
</event>
<event>
 4    1 -0.6855026E-004  0.1749298E+03  0.7818608E-02  0.1172802E+00
          5   -1    0    0  501    0  0.00000000000E+00  0.00000000000E+00  0.80314575734E+03  0.80315950940E+03  0.47000000000E+01 0. -1.
         -5   -1    0    0    0  501 -0.00000000000E+00 -0.00000000000E+00 -0.38592726675E+02  0.38877867125E+02  0.47000000000E+01 0.  1.
          6    1    1    2  502    0  0.15973714177E+02 -0.27591093432E+02  0.43674931575E+03  0.47047889728E+03  0.17200000000E+03 0.  1.
         -6    1    1    2    0  502 -0.15973714177E+02  0.27591093432E+02  0.32780371492E+03  0.37155847924E+03  0.17200000000E+03 0.  1.
</event>
<event>
 4    1 -0.6855026E-004  0.1751398E+03  0.7818608E-02  0.1172591E+00
         -5   -1    0    0    0  501 -0.00000000000E+00  0.00000000000E+00  0.65748659430E+03  0.65750339291E+03  0.47000000000E+01 0.  1.
          5   -1    0    0  501    0  0.00000000000E+00 -0.00000000000E+00 -0.48907017617E+03  0.48909275932E+03  0.47000000000E+01 0. -1.
          6    1    1    2  502    0  0.30856410847E+02 -0.11740895032E+02 -0.46106267608E+03  0.49320660781E+03  0.17200000000E+03 0. -1.
         -6    1    1    2    0  502 -0.30856410847E+02  0.11740895032E+02  0.62947909421E+03  0.65338954442E+03  0.17200000000E+03 0.  1.
</event>
<event>
 4    1 -0.6855026E-004  0.1816977E+03  0.7818608E-02  0.1166170E+00
         -5   -1    0    0    0  501 -0.00000000000E+00  0.00000000000E+00  0.28044626581E+03  0.28048564670E+03  0.47000000000E+01 0.  1.
          5   -1    0    0  501    0  0.00000000000E+00 -0.00000000000E+00 -0.30439885923E+03  0.30443514170E+03  0.47000000000E+01 0. -1.
          6    1    1    2  502    0 -0.27660431536E+02 -0.51623219928E+02 -0.24102557333E+03  0.30183999620E+03  0.17200000000E+03 0. -1.
         -6    1    1    2    0  502  0.27660431536E+02  0.51623219928E+02  0.21707297990E+03  0.28308079220E+03  0.17200000000E+03 0.  1.
</event>
<event>
 4    1 -0.6855026E-004  0.1911825E+03  0.7818608E-02  0.1157399E+00
          5   -1    0    0  501    0  0.00000000000E+00  0.00000000000E+00  0.10580139053E+04  0.10580243446E+04  0.47000000000E+01 0. -1.
         -5   -1    0    0    0  501 -0.00000000000E+00 -0.00000000000E+00 -0.78260769955E+02  0.78401773666E+02  0.47000000000E+01 0.  1.
          6    1    1    2  502    0  0.74689225750E+02  0.37259547043E+02  0.91471958224E+03  0.93448524248E+03  0.17200000000E+03 0. -1.
         -6    1    1    2    0  502 -0.74689225750E+02 -0.37259547043E+02  0.65033553101E+02  0.20194087580E+03  0.17200000000E+03 0.  1.
</event>
<event>
 4    1 -0.6855026E-004  0.1808365E+03  0.7818608E-02  0.1166996E+00
          5   -1    0    0  501    0  0.00000000000E+00  0.00000000000E+00  0.18444512448E+03  0.18450499707E+03  0.47000000000E+01 0. -1.
         -5   -1    0    0    0  501 -0.00000000000E+00 -0.00000000000E+00 -0.27077356831E+03  0.27081435578E+03  0.47000000000E+01 0.  1.
          6    1    1    2  502    0 -0.51208977382E+02  0.22259204800E+02  0.90655409384E+02  0.20228750533E+03  0.17200000000E+03 0. -1.
         -6    1    1    2    0  502  0.51208977382E+02 -0.22259204800E+02 -0.17698385322E+03  0.25303184752E+03  0.17200000000E+03 0.  1.
</event>
<event>
 4    1 -0.6855026E-004  0.2170859E+03  0.7818608E-02  0.1136074E+00
         -5   -1    0    0    0  501 -0.00000000000E+00  0.00000000000E+00  0.98087635256E+02  0.98200174084E+02  0.47000000000E+01 0.  1.
          5   -1    0    0  501    0  0.00000000000E+00 -0.00000000000E+00 -0.13909380459E+04  0.13909459866E+04  0.47000000000E+01 0. -1.
          6    1    1    2  502    0  0.13143930974E+03 -0.16308724461E+02 -0.12489371826E+04  0.12676633436E+04  0.17200000000E+03 0. -1.
         -6    1    1    2    0  502 -0.13143930974E+03  0.16308724461E+02 -0.43913228018E+02  0.22148281702E+03  0.17200000000E+03 0.  1.
</event>
<event>
 4    1 -0.6855026E-004  0.1772488E+03  0.7818608E-02  0.1170493E+00
         -5   -1    0    0    0  501 -0.00000000000E+00  0.00000000000E+00  0.44970096966E+03  0.44972552975E+03  0.47000000000E+01 0.  1.
          5   -1    0    0  501    0  0.00000000000E+00 -0.00000000000E+00 -0.17891673091E+03  0.17897845289E+03  0.47000000000E+01 0. -1.
          6    1    1    2  502    0  0.13676563386E+02 -0.40572149509E+02 -0.11005574075E+03  0.20863703835E+03  0.17200000000E+03 0. -1.
         -6    1    1    2    0  502 -0.13676563386E+02  0.40572149509E+02  0.38083997950E+03  0.42006694429E+03  0.17200000000E+03 0.  1.
</event>
<event>
 4    1 -0.6855026E-004  0.1735160E+03  0.7818608E-02  0.1174230E+00
         -5   -1    0    0    0  501 -0.00000000000E+00  0.00000000000E+00  0.43685994322E+03  0.43688522519E+03  0.47000000000E+01 0.  1.
          5   -1    0    0  501    0  0.00000000000E+00 -0.00000000000E+00 -0.72677409830E+02  0.72829224214E+02  0.47000000000E+01 0. -1.
          6    1    1    2  502    0 -0.17068485277E+02  0.15247186822E+02  0.12338336370E+03  0.21291140019E+03  0.17200000000E+03 0. -1.
         -6    1    1    2    0  502  0.17068485277E+02 -0.15247186822E+02  0.24079916969E+03  0.29680304921E+03  0.17200000000E+03 0.  1.
</event>
<event>
 4    1 -0.6855026E-004  0.1870416E+03  0.7818608E-02  0.1161157E+00
          5   -1    0    0  501    0  0.00000000000E+00  0.00000000000E+00  0.21332175429E+03  0.21337352426E+03  0.47000000000E+01 0. -1.
         -5   -1    0    0    0  501 -0.00000000000E+00 -0.00000000000E+00 -0.44524636427E+03  0.44527117007E+03  0.47000000000E+01 0.  1.
          6    1    1    2  502    0 -0.39168533061E+02  0.62180157973E+02  0.14579504027E+03  0.23715130148E+03  0.17200000000E+03 0. -1.
         -6    1    1    2    0  502  0.39168533061E+02 -0.62180157973E+02 -0.37771965025E+03  0.42149339284E+03  0.17200000000E+03 0.  1.
</event>
<event>
 4    1 -0.6855026E-004  0.1987388E+03  0.7818608E-02  0.1150807E+00
          5   -1    0    0  501    0  0.00000000000E+00  0.00000000000E+00  0.58829238165E+03  0.58831115602E+03  0.47000000000E+01 0. -1.
         -5   -1    0    0    0  501 -0.00000000000E+00 -0.00000000000E+00 -0.31004144332E+03  0.31007706555E+03  0.47000000000E+01 0.  1.
          6    1    1    2  502    0  0.14697152784E+02 -0.98473903483E+02  0.53672744483E+03  0.57234034106E+03  0.17200000000E+03 0. -1.
         -6    1    1    2    0  502 -0.14697152784E+02  0.98473903483E+02 -0.25847650651E+03  0.32604788051E+03  0.17200000000E+03 0.  1.
</event>
<event>
 4    1 -0.6855026E-004  0.2151382E+03  0.7818608E-02  0.1137560E+00
         -5   -1    0    0    0  501 -0.00000000000E+00  0.00000000000E+00  0.39000061740E+02  0.39282245553E+02  0.47000000000E+01 0.  1.
          5   -1    0    0  501    0  0.00000000000E+00 -0.00000000000E+00 -0.15512957638E+04  0.15513028837E+04  0.47000000000E+01 0. -1.
          6    1    1    2  502    0 -0.81223642518E+02  0.10051457950E+03 -0.11440302499E+04  0.11640831901E+04  0.17200000000E+03 0. -1.
         -6    1    1    2    0  502  0.81223642518E+02 -0.10051457950E+03 -0.36826545221E+03  0.42650193913E+03  0.17200000000E+03 0.  1.
</event>
<event>
 4    1 -0.6855026E-004  0.1923610E+03  0.7818608E-02  0.1156349E+00
          5   -1    0    0  501    0  0.00000000000E+00  0.00000000000E+00  0.46988242700E+03  0.46990593229E+03  0.47000000000E+01 0. -1.
         -5   -1    0    0    0  501 -0.00000000000E+00 -0.00000000000E+00 -0.10799938819E+03  0.10810160892E+03  0.47000000000E+01 0.  1.
          6    1    1    2  502    0 -0.86131216984E+02  0.40873369764E+00  0.33149014545E+03  0.38326031640E+03  0.17200000000E+03 0. -1.
         -6    1    1    2    0  502  0.86131216984E+02 -0.40873369764E+00  0.30392893362E+02  0.19474722480E+03  0.17200000000E+03 0.  1.
</event>
<event>
 4    1 -0.6855026E-004  0.1809248E+03  0.7818608E-02  0.1166911E+00
         -5   -1    0    0    0  501 -0.00000000000E+00  0.00000000000E+00  0.27856527472E+03  0.27860492149E+03  0.47000000000E+01 0.  1.
          5   -1    0    0  501    0  0.00000000000E+00 -0.00000000000E+00 -0.33583847516E+03  0.33587136138E+03  0.47000000000E+01 0. -1.
          6    1    1    2  502    0  0.55896008191E+02 -0.50424499339E+01 -0.27637561613E+03  0.33032903479E+03  0.17200000000E+03 0. -1.
         -6    1    1    2    0  502 -0.55896008191E+02  0.50424499339E+01  0.21910241569E+03  0.28414724808E+03  0.17200000000E+03 0.  1.
</event>
<event>
 4    1 -0.6855026E-004  0.1846603E+03  0.7818608E-02  0.1163368E+00
         -5   -1    0    0    0  501 -0.00000000000E+00  0.00000000000E+00  0.25912876180E+03  0.25917138190E+03  0.47000000000E+01 0.  1.
          5   -1    0    0  501    0  0.00000000000E+00 -0.00000000000E+00 -0.30964224050E+03  0.30967790865E+03  0.47000000000E+01 0. -1.
          6    1    1    2  502    0 -0.26256699935E+02  0.61854675376E+02 -0.24095778545E+03  0.30357876988E+03  0.17200000000E+03 0. -1.
         -6    1    1    2    0  502  0.26256699935E+02 -0.61854675376E+02  0.19044430675E+03  0.26527052066E+03  0.17200000000E+03 0.  1.
</event>
<event>
 4    1 -0.6855026E-004  0.1999590E+03  0.7818608E-02  0.1149774E+00
          5   -1    0    0  501    0  0.00000000000E+00  0.00000000000E+00  0.38170294971E+03  0.38173188472E+03  0.47000000000E+01 0. -1.
         -5   -1    0    0    0  501 -0.00000000000E+00 -0.00000000000E+00 -0.10478277177E+03  0.10488812735E+03  0.47000000000E+01 0.  1.
          6    1    1    2  502    0 -0.15105832822E+02  0.10085347778E+03  0.14661374803E+03  0.24794999754E+03  0.17200000000E+03 0.  1.
         -6    1    1    2    0  502  0.15105832822E+02 -0.10085347778E+03  0.13030642991E+03  0.23867001454E+03  0.17200000000E+03 0. -1.
</event>
<event>
 4    1 -0.6855026E-004  0.2232583E+03  0.7818608E-02  0.1131477E+00
          5   -1    0    0  501    0  0.00000000000E+00  0.00000000000E+00  0.31682550153E+03  0.31686036108E+03  0.47000000000E+01 0. -1.
         -5   -1    0    0    0  501 -0.00000000000E+00 -0.00000000000E+00 -0.31984139378E+03  0.31987592466E+03  0.47000000000E+01 0.  1.
          6    1    1    2  502    0 -0.63427498540E+02 -0.12742528040E+03  0.22545660285E+03  0.31729312855E+03  0.17200000000E+03 0. -1.
         -6    1    1    2    0  502  0.63427498540E+02  0.12742528040E+03 -0.22847249510E+03  0.31944315718E+03  0.17200000000E+03 0.  1.
</event>
<event>
 4    1 -0.6855026E-004  0.1779735E+03  0.7818608E-02  0.1169779E+00
          5   -1    0    0  501    0  0.00000000000E+00  0.00000000000E+00  0.34577015902E+03  0.34580210072E+03  0.47000000000E+01 0. -1.
         -5   -1    0    0    0  501 -0.00000000000E+00 -0.00000000000E+00 -0.11991587004E+03  0.12000794094E+03  0.47000000000E+01 0.  1.
          6    1    1    2  502    0 -0.37955826399E+02 -0.25493742659E+02  0.22621907374E+03  0.28783614262E+03  0.17200000000E+03 0. -1.
         -6    1    1    2    0  502  0.37955826399E+02  0.25493742659E+02 -0.36478477068E+00  0.17797389904E+03  0.17200000000E+03 0.  1.
</event>
<event>
 4    1 -0.6855026E-004  0.1742800E+03  0.7818608E-02  0.1173457E+00
         -5   -1    0    0    0  501 -0.00000000000E+00  0.00000000000E+00  0.53340745850E+03  0.53342816460E+03  0.47000000000E+01 0.  1.
          5   -1    0    0  501    0  0.00000000000E+00 -0.00000000000E+00 -0.90937195377E+02  0.91058571827E+02  0.47000000000E+01 0. -1.
          6    1    1    2  502    0  0.26643653725E+02  0.89240544846E+01  0.30179225176E+02  0.17687370823E+03  0.17200000000E+03 0. -1.
         -6    1    1    2    0  502 -0.26643653725E+02 -0.89240544846E+01  0.41229103795E+03  0.44761302819E+03  0.17200000000E+03 0.  1.
</event>
<event>
 4    1 -0.6855026E-004  0.1816341E+03  0.7818608E-02  0.1166231E+00
         -5   -1    0    0    0  501 -0.00000000000E+00  0.00000000000E+00  0.51264777095E+02  0.51479776326E+02  0.47000000000E+01 0.  1.
          5   -1    0    0  501    0  0.00000000000E+00 -0.00000000000E+00 -0.10985915357E+04  0.10986015895E+04  0.47000000000E+01 0. -1.
          6    1    1    2  502    0  0.12047257309E+02 -0.57112376452E+02 -0.89435548945E+03  0.91261311708E+03  0.17200000000E+03 0. -1.
         -6    1    1    2    0  502 -0.12047257309E+02  0.57112376452E+02 -0.15297126919E+03  0.23746824872E+03  0.17200000000E+03 0.  1.
</event>
<event>
 4    1 -0.6855026E-004  0.3089891E+03  0.7818608E-02  0.1080831E+00
          5   -1    0    0  501    0  0.00000000000E+00  0.00000000000E+00  0.80456113325E+03  0.80457486112E+03  0.47000000000E+01 0. -1.
         -5   -1    0    0    0  501 -0.00000000000E+00 -0.00000000000E+00 -0.50081821706E+03  0.50084027048E+03  0.47000000000E+01 0.  1.
          6    1    1    2  502    0  0.37534047735E+02  0.25393200306E+03  0.72203643329E+03  0.78537308199E+03  0.17200000000E+03 0. -1.
         -6    1    1    2    0  502 -0.37534047735E+02 -0.25393200306E+03 -0.41829351709E+03  0.52004204961E+03  0.17200000000E+03 0.  1.
</event>
<event>
 4    1 -0.6855026E-004  0.1899597E+03  0.7818608E-02  0.1158498E+00
          5   -1    0    0  501    0  0.00000000000E+00  0.00000000000E+00  0.94359666522E+02  0.94476646141E+02  0.47000000000E+01 0. -1.
         -5   -1    0    0    0  501 -0.00000000000E+00 -0.00000000000E+00 -0.54466380059E+03  0.54468407878E+03  0.47000000000E+01 0.  1.
          6    1    1    2  502    0 -0.69338976368E+02  0.41143351022E+02 -0.50553413425E+02  0.19657140328E+03  0.17200000000E+03 0.  1.
         -6    1    1    2    0  502  0.69338976368E+02 -0.41143351022E+02 -0.39975072064E+03  0.44258932164E+03  0.17200000000E+03 0.  1.
</event>
<event>
 4    1 -0.6855026E-004  0.2790228E+03  0.7818608E-02  0.1096224E+00
         -5   -1    0    0    0  501 -0.00000000000E+00  0.00000000000E+00  0.34902628780E+03  0.34905793155E+03  0.47000000000E+01 0.  1.
          5   -1    0    0  501    0  0.00000000000E+00 -0.00000000000E+00 -0.21921309079E+04  0.21921359464E+04  0.47000000000E+01 0. -1.
          6    1    1    2  502    0  0.66294546813E+01  0.21960363835E+03 -0.21257748966E+04  0.21440085398E+04  0.17200000000E+03 0. -1.
         -6    1    1    2    0  502 -0.66294546813E+01 -0.21960363835E+03  0.28267027648E+03  0.39718533816E+03  0.17200000000E+03 0.  1.
</event>
<event>
 4    1 -0.6855026E-004  0.2422600E+03  0.7818608E-02  0.1118296E+00
          5   -1    0    0  501    0  0.00000000000E+00  0.00000000000E+00  0.59192027664E+03  0.59193893596E+03  0.47000000000E+01 0. -1.
         -5   -1    0    0    0  501 -0.00000000000E+00 -0.00000000000E+00 -0.20672715239E+03  0.20678057340E+03  0.47000000000E+01 0.  1.
          6    1    1    2  502    0  0.15686600450E+03  0.67074304142E+02  0.48071375660E+03  0.53830811013E+03  0.17200000000E+03 0. -1.
         -6    1    1    2    0  502 -0.15686600450E+03 -0.67074304142E+02 -0.95520632348E+02  0.26041139923E+03  0.17200000000E+03 0.  1.
</event>
<event>
 4    1 -0.6855026E-004  0.2405086E+03  0.7818608E-02  0.1119454E+00
         -5   -1    0    0    0  501 -0.00000000000E+00  0.00000000000E+00  0.34812175154E+03  0.34815347750E+03  0.47000000000E+01 0.  1.
          5   -1    0    0  501    0  0.00000000000E+00 -0.00000000000E+00 -0.23297532641E+03  0.23302273004E+03  0.47000000000E+01 0. -1.
          6    1    1    2  502    0 -0.16523948340E+03 -0.30924340664E+02 -0.98098364079E+02  0.25974543452E+03  0.17200000000E+03 0.  1.
         -6    1    1    2    0  502  0.16523948340E+03  0.30924340664E+02  0.21324478922E+03  0.32143077302E+03  0.17200000000E+03 0. -1.
</event>
<event>
 4    1 -0.6855026E-004  0.2636005E+03  0.7818608E-02  0.1104999E+00
         -5   -1    0    0    0  501 -0.00000000000E+00  0.00000000000E+00  0.31622017102E+03  0.31625509728E+03  0.47000000000E+01 0.  1.
          5   -1    0    0  501    0  0.00000000000E+00 -0.00000000000E+00 -0.50042363890E+03  0.50044570971E+03  0.47000000000E+01 0. -1.
          6    1    1    2  502    0 -0.11350535796E+03 -0.16437080817E+03 -0.39794579572E+03  0.47733225870E+03  0.17200000000E+03 0. -1.
         -6    1    1    2    0  502  0.11350535796E+03  0.16437080817E+03  0.21374232783E+03  0.33936854830E+03  0.17200000000E+03 0.  1.
</event>
<event>
 4    1 -0.6855026E-004  0.4338871E+03  0.7818608E-02  0.1032639E+00
          5   -1    0    0  501    0  0.00000000000E+00  0.00000000000E+00  0.24793002785E+04  0.24793047334E+04  0.47000000000E+01 0. -1.
         -5   -1    0    0    0  501 -0.00000000000E+00 -0.00000000000E+00 -0.78014491919E+02  0.78155939950E+02  0.47000000000E+01 0.  1.
          6    1    1    2  502    0 -0.36567592816E+03 -0.15797204688E+03  0.14132064513E+04  0.14783134059E+04  0.17200000000E+03 0. -1.
         -6    1    1    2    0  502  0.36567592816E+03  0.15797204688E+03  0.98807933526E+03  0.10791472674E+04  0.17200000000E+03 0. -1.
</event>
<event>
 4    1 -0.6855026E-004  0.2079979E+03  0.7818608E-02  0.1143161E+00
          5   -1    0    0  501    0  0.00000000000E+00  0.00000000000E+00  0.19552092668E+04  0.19552149158E+04  0.47000000000E+01 0. -1.
         -5   -1    0    0    0  501 -0.00000000000E+00 -0.00000000000E+00 -0.30337830667E+02  0.30699738917E+02  0.47000000000E+01 0.  1.
          6    1    1    2  502    0  0.10235594016E+03  0.56589519204E+02  0.14832445021E+04  0.14977574454E+04  0.17200000000E+03 0. -1.
         -6    1    1    2    0  502 -0.10235594016E+03 -0.56589519204E+02  0.44162693400E+03  0.48815720931E+03  0.17200000000E+03 0.  1.
</event>
<event>
 4    1 -0.6855026E-004  0.2044132E+03  0.7818608E-02  0.1146068E+00
          5   -1    0    0  501    0  0.00000000000E+00  0.00000000000E+00  0.88963651553E+03  0.88964893062E+03  0.47000000000E+01 0. -1.
         -5   -1    0    0    0  501 -0.00000000000E+00 -0.00000000000E+00 -0.16671256533E+03  0.16677880393E+03  0.47000000000E+01 0.  1.
          6    1    1    2  502    0 -0.35115747578E+02  0.10472652061E+03  0.80915131317E+03  0.83457211039E+03  0.17200000000E+03 0. -1.
         -6    1    1    2    0  502  0.35115747578E+02 -0.10472652061E+03 -0.86227362971E+02  0.22185562416E+03  0.17200000000E+03 0.  1.
</event>
<event>
 4    1 -0.6855026E-004  0.2243433E+03  0.7818608E-02  0.1130686E+00
          5   -1    0    0  501    0  0.00000000000E+00  0.00000000000E+00  0.27936819385E+03  0.27940772669E+03  0.47000000000E+01 0. -1.
         -5   -1    0    0    0  501 -0.00000000000E+00 -0.00000000000E+00 -0.85792259779E+03  0.85793547182E+03  0.47000000000E+01 0.  1.
          6    1    1    2  502    0  0.96752230454E+02 -0.10670004674E+03  0.21618036086E+03  0.31155070614E+03  0.17200000000E+03 0. -1.
         -6    1    1    2    0  502 -0.96752230454E+02  0.10670004674E+03 -0.79473476480E+03  0.82579249237E+03  0.17200000000E+03 0.  1.
</event>
<event>
 4    1 -0.6855026E-004  0.2211866E+03  0.7818608E-02  0.1133001E+00
          5   -1    0    0  501    0  0.00000000000E+00  0.00000000000E+00  0.29930071672E+03  0.29933761713E+03  0.47000000000E+01 0. -1.
         -5   -1    0    0    0  501 -0.00000000000E+00 -0.00000000000E+00 -0.46306643500E+03  0.46309028625E+03  0.47000000000E+01 0.  1.
          6    1    1    2  502    0 -0.10594306480E+03 -0.90086515285E+02  0.22476711743E+03  0.31534706323E+03  0.17200000000E+03 0. -1.
         -6    1    1    2    0  502  0.10594306480E+03  0.90086515285E+02 -0.38853283570E+03  0.44708084015E+03  0.17200000000E+03 0.  1.
</event>
<event>
 4    1 -0.6855026E-004  0.2052290E+03  0.7818608E-02  0.1145401E+00
          5   -1    0    0  501    0  0.00000000000E+00  0.00000000000E+00  0.83371473177E+02  0.83503847454E+02  0.47000000000E+01 0. -1.
         -5   -1    0    0    0  501 -0.00000000000E+00 -0.00000000000E+00 -0.10564091621E+04  0.10564196172E+04  0.47000000000E+01 0.  1.
          6    1    1    2  502    0 -0.85600242049E+02  0.72163317578E+02 -0.74636619398E+02  0.21837941936E+03  0.17200000000E+03 0. -1.
         -6    1    1    2    0  502  0.85600242049E+02 -0.72163317578E+02 -0.89840106948E+03  0.92154404533E+03  0.17200000000E+03 0.  1.
</event>
<event>
 4    1 -0.6855026E-004  0.3865532E+03  0.7818608E-02  0.1048538E+00
         -5   -1    0    0    0  501 -0.00000000000E+00  0.00000000000E+00  0.25169757146E+03  0.25174144966E+03  0.47000000000E+01 0.  1.
          5   -1    0    0  501    0  0.00000000000E+00 -0.00000000000E+00 -0.17605525440E+04  0.17605588176E+04  0.47000000000E+01 0. -1.
          6    1    1    2  502    0 -0.30355271701E+03 -0.16641846858E+03 -0.15735820904E+04  0.16203653767E+04  0.17200000000E+03 0. -1.
         -6    1    1    2    0  502  0.30355271701E+03  0.16641846858E+03  0.64727117828E+02  0.39193489060E+03  0.17200000000E+03 0.  1.
</event>
<event>
 4    1 -0.6855026E-004  0.2351953E+03  0.7818608E-02  0.1123036E+00
         -5   -1    0    0    0  501 -0.00000000000E+00  0.00000000000E+00  0.92134660814E+02  0.92254461807E+02  0.47000000000E+01 0.  1.
          5   -1    0    0  501    0  0.00000000000E+00 -0.00000000000E+00 -0.72128168858E+03  0.72129700143E+03  0.47000000000E+01 0. -1.
          6    1    1    2  502    0 -0.48475473459E+02  0.15291482060E+03 -0.48144741801E+03  0.53582499960E+03  0.17200000000E+03 0. -1.
         -6    1    1    2    0  502  0.48475473459E+02 -0.15291482060E+03 -0.14769960975E+03  0.27772646364E+03  0.17200000000E+03 0.  1.
</event>
<event>
 4    1 -0.6855026E-004  0.2016935E+03  0.7818608E-02  0.1148318E+00
         -5   -1    0    0    0  501 -0.00000000000E+00  0.00000000000E+00  0.20542150691E+03  0.20547526737E+03  0.47000000000E+01 0.  1.
          5   -1    0    0  501    0  0.00000000000E+00 -0.00000000000E+00 -0.47538359233E+03  0.47540682563E+03  0.47000000000E+01 0. -1.
          6    1    1    2  502    0 -0.20759725401E+02 -0.10327301879E+03 -0.39504238415E+03  0.44355244096E+03  0.17200000000E+03 0. -1.
         -6    1    1    2    0  502  0.20759725401E+02  0.10327301879E+03  0.12508029872E+03  0.23732965204E+03  0.17200000000E+03 0.  1.
</event>
<event>
 4    1 -0.6855026E-004  0.1751979E+03  0.7818608E-02  0.1172533E+00
         -5   -1    0    0    0  501 -0.00000000000E+00  0.00000000000E+00  0.39011827054E+03  0.39014658144E+03  0.47000000000E+01 0.  1.
          5   -1    0    0  501    0  0.00000000000E+00 -0.00000000000E+00 -0.12227583375E+03  0.12236612897E+03  0.47000000000E+01 0. -1.
          6    1    1    2  502    0  0.25798038450E+02  0.21089168999E+02 -0.19180094371E+02  0.17624462504E+03  0.17200000000E+03 0. -1.
         -6    1    1    2    0  502 -0.25798038450E+02 -0.21089168999E+02  0.28702253117E+03  0.33626808536E+03  0.17200000000E+03 0.  1.
</event>
<event>
 4    1 -0.6855026E-004  0.1968882E+03  0.7818608E-02  0.1152391E+00
         -5   -1    0    0    0  501 -0.00000000000E+00  0.00000000000E+00  0.12315551404E+03  0.12324516477E+03  0.47000000000E+01 0.  1.
          5   -1    0    0  501    0  0.00000000000E+00 -0.00000000000E+00 -0.13890236187E+04  0.13890315703E+04  0.47000000000E+01 0. -1.
          6    1    1    2  502    0 -0.50396926333E+02 -0.81493022460E+02 -0.12979444773E+04  0.13127927593E+04  0.17200000000E+03 0. -1.
         -6    1    1    2    0  502  0.50396926333E+02  0.81493022460E+02  0.32076372611E+02  0.19948397573E+03  0.17200000000E+03 0.  1.
</event>
<event>
 4    1 -0.6855026E-004  0.2080282E+03  0.7818608E-02  0.1143137E+00
         -5   -1    0    0    0  501 -0.00000000000E+00  0.00000000000E+00  0.31079693236E+03  0.31083246800E+03  0.47000000000E+01 0.  1.
          5   -1    0    0  501    0  0.00000000000E+00 -0.00000000000E+00 -0.15594974123E+03  0.15602054925E+03  0.47000000000E+01 0. -1.
          6    1    1    2  502    0  0.78756428587E+02 -0.86540001685E+02  0.85494751680E+00  0.20802999272E+03  0.17200000000E+03 0. -1.
         -6    1    1    2    0  502 -0.78756428587E+02  0.86540001685E+02  0.15399224362E+03  0.25882302454E+03  0.17200000000E+03 0.  1.
</event>
<event>
 4    1 -0.6855026E-004  0.2283826E+03  0.7818608E-02  0.1127783E+00
          5   -1    0    0  501    0  0.00000000000E+00  0.00000000000E+00  0.23262379659E+03  0.23267127184E+03  0.47000000000E+01 0. -1.
         -5   -1    0    0    0  501 -0.00000000000E+00 -0.00000000000E+00 -0.10053459376E+04  0.10053569238E+04  0.47000000000E+01 0.  1.
          6    1    1    2  502    0 -0.14591690588E+03 -0.35817172442E+02  0.15928785056E+03  0.27844430790E+03  0.17200000000E+03 0. -1.
         -6    1    1    2    0  502  0.14591690588E+03  0.35817172442E+02 -0.93200999157E+03  0.95958388776E+03  0.17200000000E+03 0.  1.
</event>
<event>
 4    1 -0.6855026E-004  0.2619182E+03  0.7818608E-02  0.1105996E+00
         -5   -1    0    0    0  501 -0.00000000000E+00  0.00000000000E+00  0.11998854499E+04  0.11998946549E+04  0.47000000000E+01 0.  1.
          5   -1    0    0  501    0  0.00000000000E+00 -0.00000000000E+00 -0.66257808022E+03  0.66259474975E+03  0.47000000000E+01 0. -1.
          6    1    1    2  502    0 -0.18911357414E+03  0.57036873372E+02 -0.62150801782E+03  0.67444300357E+03  0.17200000000E+03 0. -1.
         -6    1    1    2    0  502  0.18911357414E+03 -0.57036873372E+02  0.11588153875E+04  0.11880464011E+04  0.17200000000E+03 0.  1.
</event>
<event>
 4    1 -0.6855026E-004  0.1963260E+03  0.7818608E-02  0.1152876E+00
         -5   -1    0    0    0  501 -0.00000000000E+00  0.00000000000E+00  0.18048654298E+03  0.18054772831E+03  0.47000000000E+01 0.  1.
          5   -1    0    0  501    0  0.00000000000E+00 -0.00000000000E+00 -0.37480834296E+03  0.37483781020E+03  0.47000000000E+01 0. -1.
          6    1    1    2  502    0  0.89859916296E+02  0.29750726166E+02 -0.27934918851E+03  0.34143795833E+03  0.17200000000E+03 0. -1.
         -6    1    1    2    0  502 -0.89859916296E+02 -0.29750726166E+02  0.85027388529E+02  0.21394758018E+03  0.17200000000E+03 0.  1.
</event>
<event>
 4    1 -0.6855026E-004  0.1872441E+03  0.7818608E-02  0.1160971E+00
         -5   -1    0    0    0  501 -0.00000000000E+00  0.00000000000E+00  0.18890409455E+03  0.18896255433E+03  0.47000000000E+01 0.  1.
          5   -1    0    0  501    0  0.00000000000E+00 -0.00000000000E+00 -0.88801811064E+03  0.88803054836E+03  0.47000000000E+01 0. -1.
          6    1    1    2  502    0 -0.55679829446E+02  0.48745444893E+02 -0.82849943349E+03  0.84939488643E+03  0.17200000000E+03 0. -1.
         -6    1    1    2    0  502  0.55679829446E+02 -0.48745444893E+02  0.12938541741E+03  0.22759821625E+03  0.17200000000E+03 0.  1.
</event>
<event>
 4    1 -0.6855026E-004  0.1824191E+03  0.7818608E-02  0.1165482E+00
         -5   -1    0    0    0  501 -0.00000000000E+00  0.00000000000E+00  0.68374456114E+03  0.68376071464E+03  0.47000000000E+01 0.  1.
          5   -1    0    0  501    0  0.00000000000E+00 -0.00000000000E+00 -0.67235478658E+02  0.67399551856E+02  0.47000000000E+01 0. -1.
          6    1    1    2  502    0 -0.17924835386E+02  0.58064010893E+02  0.11050717264E+03  0.21328048268E+03  0.17200000000E+03 0. -1.
         -6    1    1    2    0  502  0.17924835386E+02 -0.58064010893E+02  0.50600190983E+03  0.53787978382E+03  0.17200000000E+03 0.  1.
</event>
<event>
 4    1 -0.6855026E-004  0.1942194E+03  0.7818608E-02  0.1154710E+00
         -5   -1    0    0    0  501 -0.00000000000E+00  0.00000000000E+00  0.12952849795E+03  0.12961374071E+03  0.47000000000E+01 0.  1.
          5   -1    0    0  501    0  0.00000000000E+00 -0.00000000000E+00 -0.35296550969E+03  0.35299680031E+03  0.47000000000E+01 0. -1.
          6    1    1    2  502    0  0.90141241690E+02 -0.34273491618E+01 -0.21279137489E+03  0.28809956509E+03  0.17200000000E+03 0. -1.
         -6    1    1    2    0  502 -0.90141241690E+02  0.34273491618E+01 -0.10645636850E+02  0.19451097594E+03  0.17200000000E+03 0.  1.
</event>
<event>
 4    1 -0.6855026E-004  0.1861014E+03  0.7818608E-02  0.1162025E+00
         -5   -1    0    0    0  501 -0.00000000000E+00  0.00000000000E+00  0.77193971708E+03  0.77195402506E+03  0.47000000000E+01 0.  1.
          5   -1    0    0  501    0  0.00000000000E+00 -0.00000000000E+00 -0.21474269462E+03  0.21479412211E+03  0.47000000000E+01 0. -1.
          6    1    1    2  502    0 -0.12432241993E+02  0.69965603843E+02 -0.16023058013E+03  0.24557602727E+03  0.17200000000E+03 0. -1.
         -6    1    1    2    0  502  0.12432241993E+02 -0.69965603843E+02  0.71742760259E+03  0.74117211990E+03  0.17200000000E+03 0.  1.
</event>
<event>
 4    1 -0.6855026E-004  0.2096471E+03  0.7818608E-02  0.1141846E+00
          5   -1    0    0  501    0  0.00000000000E+00  0.00000000000E+00  0.89769166245E+03  0.89770396615E+03  0.47000000000E+01 0. -1.
         -5   -1    0    0    0  501 -0.00000000000E+00 -0.00000000000E+00 -0.89310267328E+02  0.89433851814E+02  0.47000000000E+01 0.  1.
          6    1    1    2  502    0 -0.11603189450E+03  0.30075236035E+02  0.73611176042E+03  0.76538385415E+03  0.17200000000E+03 0. -1.
         -6    1    1    2    0  502  0.11603189450E+03 -0.30075236035E+02  0.72269634701E+02  0.22175396381E+03  0.17200000000E+03 0.  1.
</event>
<event>
 4    1 -0.6855026E-004  0.2024386E+03  0.7818608E-02  0.1147698E+00
          5   -1    0    0  501    0  0.00000000000E+00  0.00000000000E+00  0.29885315710E+03  0.29889011277E+03  0.47000000000E+01 0. -1.
         -5   -1    0    0    0  501 -0.00000000000E+00 -0.00000000000E+00 -0.27567002875E+03  0.27571009185E+03  0.47000000000E+01 0.  1.
          6    1    1    2  502    0  0.10453085773E+03 -0.21695541866E+02  0.21529019446E+03  0.29551863661E+03  0.17200000000E+03 0. -1.
         -6    1    1    2    0  502 -0.10453085773E+03  0.21695541866E+02 -0.19210706610E+03  0.27908156801E+03  0.17200000000E+03 0.  1.
</event>
<event>
 4    1 -0.6855026E-004  0.1912545E+03  0.7818608E-02  0.1157335E+00
          5   -1    0    0  501    0  0.00000000000E+00  0.00000000000E+00  0.15426916417E+03  0.15434074321E+03  0.47000000000E+01 0. -1.
         -5   -1    0    0    0  501 -0.00000000000E+00 -0.00000000000E+00 -0.76422271728E+03  0.76423716974E+03  0.47000000000E+01 0.  1.
          6    1    1    2  502    0  0.32205035734E+02  0.77182424620E+02  0.76494424565E+02  0.20598467901E+03  0.17200000000E+03 0.  1.
         -6    1    1    2    0  502 -0.32205035734E+02 -0.77182424620E+02 -0.68644797768E+03  0.71259323394E+03  0.17200000000E+03 0.  1.
</event>
<event>
 4    1 -0.6855026E-004  0.2481014E+03  0.7818608E-02  0.1114511E+00
         -5   -1    0    0    0  501 -0.00000000000E+00  0.00000000000E+00  0.59973732979E+03  0.59975574590E+03  0.47000000000E+01 0.  1.
          5   -1    0    0  501    0  0.00000000000E+00 -0.00000000000E+00 -0.18863231504E+03  0.18869085902E+03  0.47000000000E+01 0. -1.
          6    1    1    2  502    0  0.17228573117E+03  0.47832161536E+02 -0.60670212141E+02  0.25541175283E+03  0.17200000000E+03 0. -1.
         -6    1    1    2    0  502 -0.17228573117E+03 -0.47832161536E+02  0.47177522689E+03  0.53303485210E+03  0.17200000000E+03 0.  1.
</event>
<event>
 4    1 -0.6855026E-004  0.1754098E+03  0.7818608E-02  0.1172321E+00
          5   -1    0    0  501    0  0.00000000000E+00  0.00000000000E+00  0.14451852019E+03  0.14459492618E+03  0.47000000000E+01 0. -1.
         -5   -1    0    0    0  501 -0.00000000000E+00 -0.00000000000E+00 -0.28765229660E+03  0.28769069109E+03  0.47000000000E+01 0.  1.
          6    1    1    2  502    0 -0.26015215966E+02  0.22534687287E+02  0.38707702719E+02  0.17962986902E+03  0.17200000000E+03 0. -1.
         -6    1    1    2    0  502  0.26015215966E+02 -0.22534687287E+02 -0.18184147913E+03  0.25265574825E+03  0.17200000000E+03 0.  1.
</event>
<event>
 4    1 -0.6855026E-004  0.2377432E+03  0.7818608E-02  0.1121305E+00
          5   -1    0    0  501    0  0.00000000000E+00  0.00000000000E+00  0.22971201827E+03  0.22976009519E+03  0.47000000000E+01 0. -1.
         -5   -1    0    0    0  501 -0.00000000000E+00 -0.00000000000E+00 -0.63823289460E+03  0.63825019996E+03  0.47000000000E+01 0.  1.
          6    1    1    2  502    0  0.10303583741E+03  0.12775549689E+03  0.13596991849E+03  0.27387893222E+03  0.17200000000E+03 0. -1.
         -6    1    1    2    0  502 -0.10303583741E+03 -0.12775549689E+03 -0.54449079482E+03  0.59413136293E+03  0.17200000000E+03 0.  1.
</event>
<event>
 4    1 -0.6855026E-004  0.3100027E+03  0.7818608E-02  0.1080345E+00
         -5   -1    0    0    0  501 -0.00000000000E+00  0.00000000000E+00  0.26259687835E+04  0.26259729896E+04  0.47000000000E+01 0.  1.
          5   -1    0    0  501    0  0.00000000000E+00 -0.00000000000E+00 -0.19361448997E+03  0.19367152792E+03  0.47000000000E+01 0. -1.
          6    1    1    2  502    0  0.24337546580E+02  0.25675938546E+03 -0.53456746738E+02  0.31457800617E+03  0.17200000000E+03 0. -1.
         -6    1    1    2    0  502 -0.24337546580E+02 -0.25675938546E+03  0.24858110403E+04  0.25050665113E+04  0.17200000000E+03 0.  1.
</event>
<event>
 4    1 -0.6855026E-004  0.1799213E+03  0.7818608E-02  0.1167879E+00
         -5   -1    0    0    0  501 -0.00000000000E+00  0.00000000000E+00  0.96152318238E+03  0.96153466930E+03  0.47000000000E+01 0.  1.
          5   -1    0    0  501    0  0.00000000000E+00 -0.00000000000E+00 -0.49005408698E+02  0.49230276068E+02  0.47000000000E+01 0. -1.
          6    1    1    2  502    0  0.18385937684E+02 -0.49493854241E+02  0.17273553735E+03  0.24941782249E+03  0.17200000000E+03 0. -1.
         -6    1    1    2    0  502 -0.18385937684E+02  0.49493854241E+02  0.73978223633E+03  0.76134712287E+03  0.17200000000E+03 0.  1.
</event>
<event>
 4    1 -0.6855026E-004  0.2080845E+03  0.7818608E-02  0.1143092E+00
          5   -1    0    0  501    0  0.00000000000E+00  0.00000000000E+00  0.90359006033E+02  0.90481158101E+02  0.47000000000E+01 0. -1.
         -5   -1    0    0    0  501 -0.00000000000E+00 -0.00000000000E+00 -0.58440027271E+03  0.58441917212E+03  0.47000000000E+01 0.  1.
          6    1    1    2  502    0  0.92481026575E+02 -0.71849978284E+02 -0.10354714911E+03  0.23242455065E+03  0.17200000000E+03 0. -1.
         -6    1    1    2    0  502 -0.92481026575E+02  0.71849978284E+02 -0.39049411756E+03  0.44247577957E+03  0.17200000000E+03 0. -1.
</event>
<event>
 4    1 -0.6855026E-004  0.2751637E+03  0.7818608E-02  0.1098360E+00
         -5   -1    0    0    0  501 -0.00000000000E+00  0.00000000000E+00  0.59181904763E+03  0.59183771013E+03  0.47000000000E+01 0.  1.
          5   -1    0    0  501    0  0.00000000000E+00 -0.00000000000E+00 -0.33387838300E+03  0.33391146227E+03  0.47000000000E+01 0. -1.
          6    1    1    2  502    0 -0.59320214663E+02 -0.20642716012E+03 -0.23457470840E+03  0.36158035638E+03  0.17200000000E+03 0. -1.
         -6    1    1    2    0  502  0.59320214663E+02  0.20642716012E+03  0.49251537303E+03  0.56416881602E+03  0.17200000000E+03 0.  1.
</event>
<event>
 4    1 -0.6855026E-004  0.1773779E+03  0.7818608E-02  0.1170365E+00
         -5   -1    0    0    0  501 -0.00000000000E+00  0.00000000000E+00  0.23186684113E+03  0.23191447134E+03  0.47000000000E+01 0.  1.
          5   -1    0    0  501    0  0.00000000000E+00 -0.00000000000E+00 -0.48130768783E+03  0.48133063518E+03  0.47000000000E+01 0. -1.
          6    1    1    2  502    0 -0.43074818104E+02 -0.48464478093E+01 -0.42693271561E+03  0.46231425640E+03  0.17200000000E+03 0. -1.
         -6    1    1    2    0  502  0.43074818104E+02  0.48464478093E+01  0.17749186891E+03  0.25093085012E+03  0.17200000000E+03 0.  1.
</event>
<event>
 4    1 -0.6855026E-004  0.1913239E+03  0.7818608E-02  0.1157273E+00
         -5   -1    0    0    0  501 -0.00000000000E+00  0.00000000000E+00  0.19351956402E+03  0.19357662994E+03  0.47000000000E+01 0.  1.
          5   -1    0    0  501    0  0.00000000000E+00 -0.00000000000E+00 -0.43848944359E+03  0.43851463162E+03  0.47000000000E+01 0. -1.
          6    1    1    2  502    0 -0.73633826272E+02 -0.39986048671E+02 -0.36083400844E+03  0.40841891007E+03  0.17200000000E+03 0. -1.
         -6    1    1    2    0  502  0.73633826272E+02  0.39986048671E+02  0.11586412887E+03  0.22367235148E+03  0.17200000000E+03 0.  1.
</event>
<event>
 4    1 -0.6855026E-004  0.1822328E+03  0.7818608E-02  0.1165659E+00
          5   -1    0    0  501    0  0.00000000000E+00  0.00000000000E+00  0.30812243456E+03  0.30815827862E+03  0.47000000000E+01 0. -1.
         -5   -1    0    0    0  501 -0.00000000000E+00 -0.00000000000E+00 -0.30081322226E+03  0.30084993715E+03  0.47000000000E+01 0.  1.
          6    1    1    2  502    0  0.44556075674E+01  0.60041250157E+02  0.24759960681E+03  0.30743189400E+03  0.17200000000E+03 0. -1.
         -6    1    1    2    0  502 -0.44556075674E+01 -0.60041250157E+02 -0.24029039450E+03  0.30157632177E+03  0.17200000000E+03 0.  1.
</event>
<event>
 4    1 -0.6855026E-004  0.1796886E+03  0.7818608E-02  0.1168105E+00
         -5   -1    0    0    0  501 -0.00000000000E+00  0.00000000000E+00  0.32453673772E+03  0.32457076906E+03  0.47000000000E+01 0.  1.
          5   -1    0    0  501    0  0.00000000000E+00 -0.00000000000E+00 -0.24725015470E+03  0.24729482202E+03  0.47000000000E+01 0. -1.
          6    1    1    2  502    0  0.45254739167E+02  0.25612272158E+02 -0.18241975573E+03  0.25605653122E+03  0.17200000000E+03 0. -1.
         -6    1    1    2    0  502 -0.45254739167E+02 -0.25612272158E+02  0.25970633875E+03  0.31580905986E+03  0.17200000000E+03 0.  1.
</event>
<event>
 4    1 -0.6855026E-004  0.1889032E+03  0.7818608E-02  0.1159454E+00
          5   -1    0    0  501    0  0.00000000000E+00  0.00000000000E+00  0.80683895418E+02  0.80820671736E+02  0.47000000000E+01 0. -1.
         -5   -1    0    0    0  501 -0.00000000000E+00 -0.00000000000E+00 -0.44728837982E+03  0.44731307238E+03  0.47000000000E+01 0.  1.
          6    1    1    2  502    0  0.19374308282E+02  0.75664195757E+02 -0.21267907617E+03  0.28445882616E+03  0.17200000000E+03 0. -1.
         -6    1    1    2    0  502 -0.19374308282E+02 -0.75664195757E+02 -0.15392540824E+03  0.24367491796E+03  0.17200000000E+03 0.  1.
</event>
<event>
 4    1 -0.6855026E-004  0.2299106E+03  0.7818608E-02  0.1126703E+00
          5   -1    0    0  501    0  0.00000000000E+00  0.00000000000E+00  0.87230378435E+02  0.87356905405E+02  0.47000000000E+01 0. -1.
         -5   -1    0    0    0  501 -0.00000000000E+00 -0.00000000000E+00 -0.14838822200E+04  0.14838896633E+04  0.47000000000E+01 0.  1.
          6    1    1    2  502    0 -0.14941834936E+03  0.30806452794E+02 -0.93873348671E+02  0.24833663896E+03  0.17200000000E+03 0. -1.
         -6    1    1    2    0  502  0.14941834936E+03 -0.30806452794E+02 -0.13027784929E+04  0.13229099298E+04  0.17200000000E+03 0.  1.
</event>
<event>
 4    1 -0.6855026E-004  0.1762963E+03  0.7818608E-02  0.1171436E+00
          5   -1    0    0  501    0  0.00000000000E+00  0.00000000000E+00  0.33480006921E+03  0.33483305743E+03  0.47000000000E+01 0. -1.
         -5   -1    0    0    0  501 -0.00000000000E+00 -0.00000000000E+00 -0.71578977912E+03  0.71580520946E+03  0.47000000000E+01 0.  1.
          6    1    1    2  502    0  0.35420066972E+02 -0.15549925942E+02  0.29958063538E+03  0.34760457194E+03  0.17200000000E+03 0. -1.
         -6    1    1    2    0  502 -0.35420066972E+02  0.15549925942E+02 -0.68057034528E+03  0.70303369494E+03  0.17200000000E+03 0.  1.
</event>
<event>
 4    1 -0.6855026E-004  0.2188537E+03  0.7818608E-02  0.1134741E+00
          5   -1    0    0  501    0  0.00000000000E+00  0.00000000000E+00  0.60765082388E+03  0.60766900017E+03  0.47000000000E+01 0. -1.
         -5   -1    0    0    0  501 -0.00000000000E+00 -0.00000000000E+00 -0.98765755655E+02  0.98877522673E+02  0.47000000000E+01 0.  1.
          6    1    1    2  502    0 -0.10598017165E+03  0.84149451707E+02  0.41342671465E+03  0.46778047778E+03  0.17200000000E+03 0. -1.
         -6    1    1    2    0  502  0.10598017165E+03 -0.84149451707E+02  0.95458353578E+02  0.23876604506E+03  0.17200000000E+03 0.  1.
</event>
<event>
 4    1 -0.6855026E-004  0.1737131E+03  0.7818608E-02  0.1174030E+00
          5   -1    0    0  501    0  0.00000000000E+00  0.00000000000E+00  0.89349209967E+02  0.89472740662E+02  0.47000000000E+01 0. -1.
         -5   -1    0    0    0  501 -0.00000000000E+00 -0.00000000000E+00 -0.56360835701E+03  0.56362795361E+03  0.47000000000E+01 0.  1.
          6    1    1    2  502    0  0.16590611397E+02 -0.17804740747E+02 -0.30260378793E+02  0.17632908922E+03  0.17200000000E+03 0. -1.
         -6    1    1    2    0  502 -0.16590611397E+02  0.17804740747E+02 -0.44399876825E+03  0.47677160506E+03  0.17200000000E+03 0.  1.
</event>
<event>
 4    1 -0.6855026E-004  0.2627151E+03  0.7818608E-02  0.1105523E+00
          5   -1    0    0  501    0  0.00000000000E+00  0.00000000000E+00  0.20799809878E+04  0.20799862979E+04  0.47000000000E+01 0. -1.
         -5   -1    0    0    0  501 -0.00000000000E+00 -0.00000000000E+00 -0.10235616850E+03  0.10246401920E+03  0.47000000000E+01 0.  1.
          6    1    1    2  502    0 -0.27931484411E+02  0.19660893210E+03  0.18860092340E+04  0.19042190186E+04  0.17200000000E+03 0. -1.
         -6    1    1    2    0  502  0.27931484411E+02 -0.19660893210E+03  0.91615585240E+02  0.27823129849E+03  0.17200000000E+03 0.  1.
</event>
<event>
 4    1 -0.6855026E-004  0.2101879E+03  0.7818608E-02  0.1141417E+00
         -5   -1    0    0    0  501 -0.00000000000E+00  0.00000000000E+00  0.73296017502E+03  0.73297524389E+03  0.47000000000E+01 0.  1.
          5   -1    0    0  501    0  0.00000000000E+00 -0.00000000000E+00 -0.13911070268E+03  0.13919007723E+03  0.47000000000E+01 0. -1.
          6    1    1    2  502    0  0.68099407771E+01 -0.12061749205E+03 -0.31410780193E+02  0.21252197956E+03  0.17200000000E+03 0. -1.
         -6    1    1    2    0  502 -0.68099407771E+01  0.12061749205E+03  0.62526025253E+03  0.65964334157E+03  0.17200000000E+03 0.  1.
</event>
<event>
 4    1 -0.6855026E-004  0.1957597E+03  0.7818608E-02  0.1153367E+00
         -5   -1    0    0    0  501 -0.00000000000E+00  0.00000000000E+00  0.15482491552E+03  0.15489623774E+03  0.47000000000E+01 0.  1.
          5   -1    0    0  501    0  0.00000000000E+00 -0.00000000000E+00 -0.32619494887E+03  0.32622880724E+03  0.47000000000E+01 0. -1.
          6    1    1    2  502    0  0.69703169773E+02  0.62284258918E+02 -0.20392287118E+03  0.28267719783E+03  0.17200000000E+03 0. -1.
         -6    1    1    2    0  502 -0.69703169773E+02 -0.62284258918E+02  0.32552837821E+02  0.19844784714E+03  0.17200000000E+03 0.  1.
</event>
<event>
 4    1 -0.6855026E-004  0.1994742E+03  0.7818608E-02  0.1150183E+00
         -5   -1    0    0    0  501 -0.00000000000E+00  0.00000000000E+00  0.16231402116E+03  0.16238205402E+03  0.47000000000E+01 0.  1.
          5   -1    0    0  501    0  0.00000000000E+00 -0.00000000000E+00 -0.26376444720E+03  0.26380631836E+03  0.47000000000E+01 0. -1.
          6    1    1    2  502    0  0.40058274282E+02  0.92743107469E+02 -0.10755046023E+03  0.22662094082E+03  0.17200000000E+03 0. -1.
         -6    1    1    2    0  502 -0.40058274282E+02 -0.92743107469E+02  0.61000341939E+01  0.19956743156E+03  0.17200000000E+03 0.  1.
</event>
<event>
 4    1 -0.6855026E-004  0.1856240E+03  0.7818608E-02  0.1162468E+00
         -5   -1    0    0    0  501 -0.00000000000E+00  0.00000000000E+00  0.17214812425E+03  0.17221227216E+03  0.47000000000E+01 0.  1.
          5   -1    0    0  501    0  0.00000000000E+00 -0.00000000000E+00 -0.34636798254E+03  0.34639986912E+03  0.47000000000E+01 0. -1.
          6    1    1    2  502    0 -0.64082325046E+02 -0.27671634304E+02 -0.25563371620E+03  0.31591907285E+03  0.17200000000E+03 0. -1.
         -6    1    1    2    0  502  0.64082325046E+02  0.27671634304E+02  0.81413857914E+02  0.20269306843E+03  0.17200000000E+03 0.  1.
</event>
<event>
 4    1 -0.6855026E-004  0.1892612E+03  0.7818608E-02  0.1159129E+00
          5   -1    0    0  501    0  0.00000000000E+00  0.00000000000E+00  0.12520109097E+04  0.12520197314E+04  0.47000000000E+01 0. -1.
         -5   -1    0    0    0  501 -0.00000000000E+00 -0.00000000000E+00 -0.38481679531E+02  0.38767636755E+02  0.47000000000E+01 0.  1.
          6    1    1    2  502    0  0.26031945365E+02  0.74552827874E+02  0.93550912102E+03  0.95446168170E+03  0.17200000000E+03 0. -1.
         -6    1    1    2    0  502 -0.26031945365E+02 -0.74552827874E+02  0.27802010910E+03  0.33632568648E+03  0.17200000000E+03 0.  1.
</event>
<event>
 4    1 -0.6855026E-004  0.1844771E+03  0.7818608E-02  0.1163539E+00
         -5   -1    0    0    0  501 -0.00000000000E+00  0.00000000000E+00  0.14902151963E+03  0.14909561802E+03  0.47000000000E+01 0.  1.
          5   -1    0    0  501    0  0.00000000000E+00 -0.00000000000E+00 -0.15995731114E+04  0.15995800164E+04  0.47000000000E+01 0. -1.
          6    1    1    2  502    0 -0.38319714607E+02  0.54583733939E+02 -0.15348173167E+04  0.15458641532E+04  0.17200000000E+03 0. -1.
         -6    1    1    2    0  502  0.38319714607E+02 -0.54583733939E+02  0.84265724845E+02  0.20281148124E+03  0.17200000000E+03 0.  1.
</event>
<event>
 4    1 -0.6855026E-004  0.3242234E+03  0.7818608E-02  0.1073722E+00
          5   -1    0    0  501    0  0.00000000000E+00  0.00000000000E+00  0.27369517444E+03  0.27373552658E+03  0.47000000000E+01 0. -1.
         -5   -1    0    0    0  501 -0.00000000000E+00 -0.00000000000E+00 -0.47439988296E+03  0.47442316443E+03  0.47000000000E+01 0.  1.
          6    1    1    2  502    0 -0.25993703002E+03  0.89272382068E+02  0.62934991540E+02  0.33027508374E+03  0.17200000000E+03 0. -1.
         -6    1    1    2    0  502  0.25993703002E+03 -0.89272382068E+02 -0.26363970006E+03  0.41788360727E+03  0.17200000000E+03 0.  1.
</event>
<event>
 4    1 -0.6855026E-004  0.5295184E+03  0.7818608E-02  0.1006349E+00
         -5   -1    0    0    0  501 -0.00000000000E+00  0.00000000000E+00  0.25480059711E+04  0.25480103058E+04  0.47000000000E+01 0.  1.
          5   -1    0    0  501    0  0.00000000000E+00 -0.00000000000E+00 -0.23570770436E+03  0.23575455859E+03  0.47000000000E+01 0. -1.
          6    1    1    2  502    0  0.38684224397E+03  0.31805474344E+03  0.13979466536E+03  0.54766074354E+03  0.17200000000E+03 0. -1.
         -6    1    1    2    0  502 -0.38684224397E+03 -0.31805474344E+03  0.21725036013E+04  0.22361041209E+04  0.17200000000E+03 0.  1.
</event>
<event>
 4    1 -0.6855026E-004  0.3736093E+03  0.7818608E-02  0.1053321E+00
          5   -1    0    0  501    0  0.00000000000E+00  0.00000000000E+00  0.18152299283E+04  0.18152360130E+04  0.47000000000E+01 0. -1.
         -5   -1    0    0    0  501 -0.00000000000E+00 -0.00000000000E+00 -0.41987496629E+03  0.41990127091E+03  0.47000000000E+01 0.  1.
          6    1    1    2  502    0  0.32836577372E+03  0.46646026441E+02  0.17077446788E+04  0.17481349551E+04  0.17200000000E+03 0. -1.
         -6    1    1    2    0  502 -0.32836577372E+03 -0.46646026441E+02 -0.31238971675E+03  0.48700232881E+03  0.17200000000E+03 0.  1.
</event>
<event>
 4    1 -0.6855026E-004  0.1760047E+03  0.7818608E-02  0.1171727E+00
          5   -1    0    0  501    0  0.00000000000E+00  0.00000000000E+00  0.17349836956E+04  0.17349900616E+04  0.47000000000E+01 0. -1.
         -5   -1    0    0    0  501 -0.00000000000E+00 -0.00000000000E+00 -0.49587137021E+02  0.49809378213E+02  0.47000000000E+01 0.  1.
          6    1    1    2  502    0  0.25976371958E+02 -0.26811819723E+02  0.15570553135E+04  0.15669712489E+04  0.17200000000E+03 0. -1.
         -6    1    1    2    0  502 -0.25976371958E+02  0.26811819723E+02  0.12834124502E+03  0.21782819090E+03  0.17200000000E+03 0.  1.
</event>
<event>
 4    1 -0.6855026E-004  0.2255781E+03  0.7818608E-02  0.1129791E+00
         -5   -1    0    0    0  501 -0.00000000000E+00  0.00000000000E+00  0.19433932568E+03  0.19439615095E+03  0.47000000000E+01 0.  1.
          5   -1    0    0  501    0  0.00000000000E+00 -0.00000000000E+00 -0.37119247932E+03  0.37122223358E+03  0.47000000000E+01 0. -1.
          6    1    1    2  502    0 -0.52404180921E+02 -0.13621783510E+03 -0.24198999917E+03  0.33082420781E+03  0.17200000000E+03 0. -1.
         -6    1    1    2    0  502  0.52404180921E+02  0.13621783510E+03  0.65136845525E+02  0.23479417672E+03  0.17200000000E+03 0.  1.
</event>
<event>
 4    1 -0.6855026E-004  0.1740793E+03  0.7818608E-02  0.1173659E+00
          5   -1    0    0  501    0  0.00000000000E+00  0.00000000000E+00  0.64596166263E+03  0.64597876094E+03  0.47000000000E+01 0. -1.
         -5   -1    0    0    0  501 -0.00000000000E+00 -0.00000000000E+00 -0.56541779882E+02  0.56736785882E+02  0.47000000000E+01 0.  1.
          6    1    1    2  502    0  0.18008608479E+02 -0.19881668844E+02  0.44042618220E+03  0.47358084073E+03  0.17200000000E+03 0. -1.
         -6    1    1    2    0  502 -0.18008608479E+02  0.19881668844E+02  0.14899370055E+03  0.22913470610E+03  0.17200000000E+03 0.  1.
</event>
<event>
 4    1 -0.6855026E-004  0.2665872E+03  0.7818608E-02  0.1103249E+00
          5   -1    0    0  501    0  0.00000000000E+00  0.00000000000E+00  0.17336471155E+03  0.17342840947E+03  0.47000000000E+01 0. -1.
         -5   -1    0    0    0  501 -0.00000000000E+00 -0.00000000000E+00 -0.21751223808E+04  0.21751274587E+04  0.47000000000E+01 0.  1.
          6    1    1    2  502    0  0.16168133249E+03 -0.12387033105E+03  0.56997587315E+02  0.27261224688E+03  0.17200000000E+03 0. -1.
         -6    1    1    2    0  502 -0.16168133249E+03  0.12387033105E+03 -0.20587552565E+04  0.20759436212E+04  0.17200000000E+03 0.  1.
</event>
<event>
 4    1 -0.6855026E-004  0.3334036E+03  0.7818608E-02  0.1069641E+00
          5   -1    0    0  501    0  0.00000000000E+00  0.00000000000E+00  0.10464256038E+03  0.10474805699E+03  0.47000000000E+01 0. -1.
         -5   -1    0    0    0  501 -0.00000000000E+00 -0.00000000000E+00 -0.15053239531E+04  0.15053312904E+04  0.47000000000E+01 0.  1.
          6    1    1    2  502    0 -0.80704731231E+02  0.27397213589E+03 -0.26328824141E+03  0.42482782743E+03  0.17200000000E+03 0. -1.
         -6    1    1    2    0  502  0.80704731231E+02 -0.27397213589E+03 -0.11373931513E+04  0.11852515200E+04  0.17200000000E+03 0.  1.
</event>
<event>
 4    1 -0.6855026E-004  0.4832518E+03  0.7818608E-02  0.1018245E+00
         -5   -1    0    0    0  501 -0.00000000000E+00  0.00000000000E+00  0.37697608591E+03  0.37700538371E+03  0.47000000000E+01 0.  1.
          5   -1    0    0  501    0  0.00000000000E+00 -0.00000000000E+00 -0.12731733842E+04  0.12731820593E+04  0.47000000000E+01 0. -1.
          6    1    1    2  502    0 -0.15774169173E+03 -0.42316176402E+03 -0.10393296350E+04  0.11461842827E+04  0.17200000000E+03 0. -1.
         -6    1    1    2    0  502  0.15774169173E+03  0.42316176402E+03  0.14313233666E+03  0.50400316034E+03  0.17200000000E+03 0.  1.
</event>
<event>
 4    1 -0.6855026E-004  0.1746076E+03  0.7818608E-02  0.1173126E+00
         -5   -1    0    0    0  501 -0.00000000000E+00  0.00000000000E+00  0.98040528510E+03  0.98041655079E+03  0.47000000000E+01 0.  1.
          5   -1    0    0  501    0  0.00000000000E+00 -0.00000000000E+00 -0.12826884013E+03  0.12835491946E+03  0.47000000000E+01 0. -1.
          6    1    1    2  502    0  0.18364572068E+02 -0.23802093270E+02 -0.56491618589E+02  0.18351866423E+03  0.17200000000E+03 0. -1.
         -6    1    1    2    0  502 -0.18364572068E+02  0.23802093270E+02  0.90862806356E+03  0.92525280601E+03  0.17200000000E+03 0.  1.
</event>
<event>
 4    1 -0.6855026E-004  0.3815226E+03  0.7818608E-02  0.1050372E+00
          5   -1    0    0  501    0  0.00000000000E+00  0.00000000000E+00  0.14824053641E+04  0.14824128148E+04  0.47000000000E+01 0. -1.
         -5   -1    0    0    0  501 -0.00000000000E+00 -0.00000000000E+00 -0.37379248417E+03  0.37382203149E+03  0.47000000000E+01 0.  1.
          6    1    1    2  502    0 -0.41645331109E+02 -0.33799584050E+03  0.13512597232E+04  0.14040877327E+04  0.17200000000E+03 0. -1.
         -6    1    1    2    0  502  0.41645331109E+02  0.33799584050E+03 -0.24264684321E+03  0.45214711358E+03  0.17200000000E+03 0.  1.
</event>
<event>
 4    1 -0.6855026E-004  0.1832944E+03  0.7818608E-02  0.1164652E+00
          5   -1    0    0  501    0  0.00000000000E+00  0.00000000000E+00  0.17739197873E+03  0.17745423105E+03  0.47000000000E+01 0. -1.
         -5   -1    0    0    0  501 -0.00000000000E+00 -0.00000000000E+00 -0.44701464222E+03  0.44703934990E+03  0.47000000000E+01 0.  1.
          6    1    1    2  502    0  0.60909479938E+02 -0.17402950015E+02  0.10226204198E+03  0.20989128768E+03  0.17200000000E+03 0. -1.
         -6    1    1    2    0  502 -0.60909479938E+02  0.17402950015E+02 -0.37188470548E+03  0.41460229327E+03  0.17200000000E+03 0.  1.
</event>
<event>
 4    1 -0.6855026E-004  0.1824800E+03  0.7818608E-02  0.1165424E+00
          5   -1    0    0  501    0  0.00000000000E+00  0.00000000000E+00  0.13705379935E+03  0.13713436446E+03  0.47000000000E+01 0. -1.
         -5   -1    0    0    0  501 -0.00000000000E+00 -0.00000000000E+00 -0.54065906838E+03  0.54067949676E+03  0.47000000000E+01 0.  1.
          6    1    1    2  502    0 -0.49144007297E+02  0.36052832556E+02  0.49725972845E+02  0.18913384828E+03  0.17200000000E+03 0. -1.
         -6    1    1    2    0  502  0.49144007297E+02 -0.36052832556E+02 -0.45333124188E+03  0.48868001294E+03  0.17200000000E+03 0.  1.
</event>
<event>
 4    1 -0.6855026E-004  0.1833692E+03  0.7818608E-02  0.1164582E+00
         -5   -1    0    0    0  501 -0.00000000000E+00  0.00000000000E+00  0.73577366967E+02  0.73727328243E+02  0.47000000000E+01 0.  1.
          5   -1    0    0  501    0  0.00000000000E+00 -0.00000000000E+00 -0.99447286643E+03  0.99448397276E+03  0.47000000000E+01 0. -1.
          6    1    1    2  502    0 -0.59566308170E+02  0.22183972697E+02 -0.85329965765E+03  0.87277980010E+03  0.17200000000E+03 0. -1.
         -6    1    1    2    0  502  0.59566308170E+02 -0.22183972697E+02 -0.67595841813E+02  0.19543150090E+03  0.17200000000E+03 0.  1.
</event>
<event>
 4    1 -0.6855026E-004  0.1808717E+03  0.7818608E-02  0.1166962E+00
         -5   -1    0    0    0  501 -0.00000000000E+00  0.00000000000E+00  0.25379868929E+03  0.25384220430E+03  0.47000000000E+01 0.  1.
          5   -1    0    0  501    0  0.00000000000E+00 -0.00000000000E+00 -0.35696810714E+03  0.35699904694E+03  0.47000000000E+01 0. -1.
          6    1    1    2  502    0 -0.53095195353E+02 -0.17648290767E+02 -0.29572927366E+03  0.34665597533E+03  0.17200000000E+03 0. -1.
         -6    1    1    2    0  502  0.53095195353E+02  0.17648290767E+02  0.19255985581E+03  0.26418527590E+03  0.17200000000E+03 0.  1.
</event>
<event>
 4    1 -0.6855026E-004  0.1809381E+03  0.7818608E-02  0.1166898E+00
         -5   -1    0    0    0  501 -0.00000000000E+00  0.00000000000E+00  0.10310624129E+03  0.10321330821E+03  0.47000000000E+01 0.  1.
          5   -1    0    0  501    0  0.00000000000E+00 -0.00000000000E+00 -0.18632637425E+04  0.18632696703E+04  0.47000000000E+01 0. -1.
          6    1    1    2  502    0  0.54248715909E+02  0.14549335519E+02 -0.17756850319E+04  0.17848798107E+04  0.17200000000E+03 0. -1.
         -6    1    1    2    0  502 -0.54248715909E+02 -0.14549335519E+02  0.15527530616E+02  0.18160316778E+03  0.17200000000E+03 0.  1.
</event>
<event>
 4    1 -0.6855026E-004  0.2015029E+03  0.7818608E-02  0.1148477E+00
         -5   -1    0    0    0  501 -0.00000000000E+00  0.00000000000E+00  0.51452952671E+03  0.51455099247E+03  0.47000000000E+01 0.  1.
          5   -1    0    0  501    0  0.00000000000E+00 -0.00000000000E+00 -0.41245297938E+03  0.41247975732E+03  0.47000000000E+01 0. -1.
          6    1    1    2  502    0  0.91988696986E+02  0.50571870170E+02 -0.36578870494E+03  0.41761802055E+03  0.17200000000E+03 0. -1.
         -6    1    1    2    0  502 -0.91988696986E+02 -0.50571870170E+02  0.46786525228E+03  0.50941272924E+03  0.17200000000E+03 0.  1.
</event>
<event>
 4    1 -0.6855026E-004  0.2638206E+03  0.7818608E-02  0.1104869E+00
          5   -1    0    0  501    0  0.00000000000E+00  0.00000000000E+00  0.94604631227E+03  0.94605798710E+03  0.47000000000E+01 0. -1.
         -5   -1    0    0    0  501 -0.00000000000E+00 -0.00000000000E+00 -0.93725716237E+02  0.93843486104E+02  0.47000000000E+01 0.  1.
          6    1    1    2  502    0  0.19946497330E+03  0.15200252423E+02  0.66760870376E+03  0.71784587801E+03  0.17200000000E+03 0.  1.
         -6    1    1    2    0  502 -0.19946497330E+03 -0.15200252423E+02  0.18471189227E+03  0.32205559519E+03  0.17200000000E+03 0.  1.
</event>
<event>
 4    1 -0.6855026E-004  0.1837784E+03  0.7818608E-02  0.1164196E+00
          5   -1    0    0  501    0  0.00000000000E+00  0.00000000000E+00  0.22277802591E+04  0.22277852169E+04  0.47000000000E+01 0. -1.
         -5   -1    0    0    0  501 -0.00000000000E+00 -0.00000000000E+00 -0.22066713195E+02  0.22561689459E+02  0.47000000000E+01 0.  1.
          6    1    1    2  502    0 -0.73696215836E+01  0.64313327885E+02  0.17400827618E+04  0.17497607074E+04  0.17200000000E+03 0. -1.
         -6    1    1    2    0  502  0.73696215836E+01 -0.64313327885E+02  0.46563078415E+03  0.50058619898E+03  0.17200000000E+03 0.  1.
</event>
<event>
 4    1 -0.6855026E-004  0.1826063E+03  0.7818608E-02  0.1165304E+00
         -5   -1    0    0    0  501 -0.00000000000E+00  0.00000000000E+00  0.53939990918E+02  0.54144368315E+02  0.47000000000E+01 0.  1.
          5   -1    0    0  501    0  0.00000000000E+00 -0.00000000000E+00 -0.66269267085E+03  0.66270933750E+03  0.47000000000E+01 0. -1.
          6    1    1    2  502    0  0.51207284871E+02 -0.33747085432E+02 -0.39867743307E+03  0.43850740864E+03  0.17200000000E+03 0. -1.
         -6    1    1    2    0  502 -0.51207284871E+02  0.33747085432E+02 -0.21007524687E+03  0.27834629717E+03  0.17200000000E+03 0.  1.
</event>
<event>
 4    1 -0.6855026E-004  0.3574516E+03  0.7818608E-02  0.1059597E+00
         -5   -1    0    0    0  501 -0.00000000000E+00  0.00000000000E+00  0.28297408326E+03  0.28301311241E+03  0.47000000000E+01 0.  1.
          5   -1    0    0  501    0  0.00000000000E+00 -0.00000000000E+00 -0.90835579214E+03  0.90836795139E+03  0.47000000000E+01 0. -1.
          6    1    1    2  502    0  0.19205140688E+03  0.24759629429E+03 -0.73515789109E+03  0.81745262411E+03  0.17200000000E+03 0. -1.
         -6    1    1    2    0  502 -0.19205140688E+03 -0.24759629429E+03  0.10977618220E+03  0.37392843969E+03  0.17200000000E+03 0.  1.
</event>
<event>
 4    1 -0.6855026E-004  0.1733798E+03  0.7818608E-02  0.1174368E+00
          5   -1    0    0  501    0  0.00000000000E+00  0.00000000000E+00  0.35665484200E+03  0.35668580897E+03  0.47000000000E+01 0. -1.
         -5   -1    0    0    0  501 -0.00000000000E+00 -0.00000000000E+00 -0.16168684979E+03  0.16175514643E+03  0.47000000000E+01 0.  1.
          6    1    1    2  502    0  0.55153155527E+01  0.21121550710E+02  0.27688049158E+03  0.32668539182E+03  0.17200000000E+03 0. -1.
         -6    1    1    2    0  502 -0.55153155527E+01 -0.21121550710E+02 -0.81912499378E+02  0.19175556358E+03  0.17200000000E+03 0.  1.
</event>
<event>
 4    1 -0.6855026E-004  0.1895083E+03  0.7818608E-02  0.1158906E+00
          5   -1    0    0  501    0  0.00000000000E+00  0.00000000000E+00  0.19166051139E+02  0.19733917914E+02  0.47000000000E+01 0. -1.
         -5   -1    0    0    0  501 -0.00000000000E+00 -0.00000000000E+00 -0.21905919893E+04  0.21905970313E+04  0.47000000000E+01 0.  1.
          6    1    1    2  502    0 -0.73114006975E+02 -0.31364758256E+02 -0.64736493388E+03  0.67453299674E+03  0.17200000000E+03 0. -1.
         -6    1    1    2    0  502  0.73114006975E+02  0.31364758256E+02 -0.15240610042E+04  0.15357979524E+04  0.17200000000E+03 0. -1.
</event>
<event>
 4    1 -0.6855026E-004  0.1975175E+03  0.7818608E-02  0.1151851E+00
         -5   -1    0    0    0  501 -0.00000000000E+00  0.00000000000E+00  0.39286587804E+03  0.39289399095E+03  0.47000000000E+01 0.  1.
          5   -1    0    0  501    0  0.00000000000E+00 -0.00000000000E+00 -0.17026422658E+03  0.17032908399E+03  0.47000000000E+01 0. -1.
          6    1    1    2  502    0 -0.58886829581E+02  0.77210659060E+02 -0.70549948650E+02  0.20973898022E+03  0.17200000000E+03 0. -1.
         -6    1    1    2    0  502  0.58886829581E+02 -0.77210659060E+02  0.29315160011E+03  0.35348409472E+03  0.17200000000E+03 0.  1.
</event>
<event>
 4    1 -0.6855026E-004  0.1741623E+03  0.7818608E-02  0.1173575E+00
          5   -1    0    0  501    0  0.00000000000E+00  0.00000000000E+00  0.11677448634E+03  0.11686903208E+03  0.47000000000E+01 0. -1.
         -5   -1    0    0    0  501 -0.00000000000E+00 -0.00000000000E+00 -0.12888328226E+04  0.12888413924E+04  0.47000000000E+01 0.  1.
          6    1    1    2  502    0 -0.14859550174E+02  0.22971559076E+02  0.42055989397E+02  0.17916809147E+03  0.17200000000E+03 0. -1.
         -6    1    1    2    0  502  0.14859550174E+02 -0.22971559076E+02 -0.12141143257E+04  0.12265423330E+04  0.17200000000E+03 0.  1.
</event>
<event>
 4    1 -0.6855026E-004  0.1954640E+03  0.7818608E-02  0.1153623E+00
          5   -1    0    0  501    0  0.00000000000E+00  0.00000000000E+00  0.20552772448E+03  0.20558145716E+03  0.47000000000E+01 0. -1.
         -5   -1    0    0    0  501 -0.00000000000E+00 -0.00000000000E+00 -0.85902340191E+03  0.85903625943E+03  0.47000000000E+01 0.  1.
          6    1    1    2  502    0 -0.67604226855E+02  0.63654011107E+02  0.14447120808E+03  0.24305985802E+03  0.17200000000E+03 0. -1.
         -6    1    1    2    0  502  0.67604226855E+02 -0.63654011107E+02 -0.79796688551E+03  0.82155785857E+03  0.17200000000E+03 0.  1.
</event>
<event>
 4    1 -0.6855026E-004  0.1911410E+03  0.7818608E-02  0.1157436E+00
          5   -1    0    0  501    0  0.00000000000E+00  0.00000000000E+00  0.48585383181E+03  0.48587656445E+03  0.47000000000E+01 0. -1.
         -5   -1    0    0    0  501 -0.00000000000E+00 -0.00000000000E+00 -0.76664845064E+02  0.76808778592E+02  0.47000000000E+01 0.  1.
          6    1    1    2  502    0  0.69102976226E+02 -0.46643993952E+02  0.24475435364E+03  0.31054722204E+03  0.17200000000E+03 0.  1.
         -6    1    1    2    0  502 -0.69102976226E+02  0.46643993952E+02  0.16443463311E+03  0.25213812100E+03  0.17200000000E+03 0.  1.
</event>
<event>
 4    1 -0.6855026E-004  0.1991212E+03  0.7818608E-02  0.1150483E+00
         -5   -1    0    0    0  501 -0.00000000000E+00  0.00000000000E+00  0.14002718654E+04  0.14002797531E+04  0.47000000000E+01 0.  1.
          5   -1    0    0  501    0  0.00000000000E+00 -0.00000000000E+00 -0.62416350083E+03  0.62418119626E+03  0.47000000000E+01 0. -1.
          6    1    1    2  502    0 -0.99139146857E+02 -0.15384074074E+02 -0.60095042305E+03  0.63308028806E+03  0.17200000000E+03 0. -1.
         -6    1    1    2    0  502  0.99139146857E+02  0.15384074074E+02  0.13770587876E+04  0.13913806613E+04  0.17200000000E+03 0.  1.
</event>
<event>
 4    1 -0.6855026E-004  0.2100053E+03  0.7818608E-02  0.1141562E+00
         -5   -1    0    0    0  501 -0.00000000000E+00  0.00000000000E+00  0.33993016937E+02  0.34316398420E+02  0.47000000000E+01 0.  1.
          5   -1    0    0  501    0  0.00000000000E+00 -0.00000000000E+00 -0.14391655009E+04  0.14391731754E+04  0.47000000000E+01 0. -1.
          6    1    1    2  502    0 -0.11915678109E+03 -0.17885829357E+02 -0.93901489862E+03  0.96221163015E+03  0.17200000000E+03 0. -1.
         -6    1    1    2    0  502  0.11915678109E+03  0.17885829357E+02 -0.46615758530E+03  0.51127794369E+03  0.17200000000E+03 0. -1.
</event>
<event>
 4    1 -0.6855026E-004  0.1736516E+03  0.7818608E-02  0.1174092E+00
         -5   -1    0    0    0  501 -0.00000000000E+00  0.00000000000E+00  0.19884116323E+03  0.19889670232E+03  0.47000000000E+01 0.  1.
          5   -1    0    0  501    0  0.00000000000E+00 -0.00000000000E+00 -0.21573463188E+03  0.21578582296E+03  0.47000000000E+01 0. -1.
          6    1    1    2  502    0  0.16692531315E+02 -0.17094800023E+02 -0.12151926797E+03  0.21194764749E+03  0.17200000000E+03 0. -1.
         -6    1    1    2    0  502 -0.16692531315E+02  0.17094800023E+02  0.10462579932E+03  0.20273487779E+03  0.17200000000E+03 0.  1.
</event>
<event>
 4    1 -0.6855026E-004  0.2624712E+03  0.7818608E-02  0.1105668E+00
         -5   -1    0    0    0  501 -0.00000000000E+00  0.00000000000E+00  0.26490282364E+03  0.26494451489E+03  0.47000000000E+01 0.  1.
          5   -1    0    0  501    0  0.00000000000E+00 -0.00000000000E+00 -0.54731681117E+03  0.54733699107E+03  0.47000000000E+01 0. -1.
          6    1    1    2  502    0 -0.19415810245E+03  0.40121760742E+02 -0.43546276541E+03  0.50844758283E+03  0.17200000000E+03 0. -1.
         -6    1    1    2    0  502  0.19415810245E+03 -0.40121760742E+02  0.15304877788E+03  0.30383392313E+03  0.17200000000E+03 0.  1.
</event>
<event>
 4    1 -0.6855026E-004  0.1800275E+03  0.7818608E-02  0.1167776E+00
          5   -1    0    0  501    0  0.00000000000E+00  0.00000000000E+00  0.13658581981E+04  0.13658662846E+04  0.47000000000E+01 0. -1.
         -5   -1    0    0    0  501 -0.00000000000E+00 -0.00000000000E+00 -0.88687772585E+02  0.88812223292E+02  0.47000000000E+01 0.  1.
          6    1    1    2  502    0  0.98093255767E+01 -0.52246336136E+02  0.12611555969E+04  0.12739400857E+04  0.17200000000E+03 0. -1.
         -6    1    1    2    0  502 -0.98093255767E+01  0.52246336136E+02  0.16014828676E+02  0.18073842216E+03  0.17200000000E+03 0.  1.
</event>
<event>
 4    1 -0.6855026E-004  0.1725465E+03  0.7818608E-02  0.1175218E+00
          5   -1    0    0  501    0  0.00000000000E+00  0.00000000000E+00  0.20370509661E+03  0.20375930993E+03  0.47000000000E+01 0. -1.
         -5   -1    0    0    0  501 -0.00000000000E+00 -0.00000000000E+00 -0.47703243209E+03  0.47705558509E+03  0.47000000000E+01 0.  1.
          6    1    1    2  502    0  0.65333640731E+00  0.13705906253E+02  0.14685746196E+03  0.22658197821E+03  0.17200000000E+03 0. -1.
         -6    1    1    2    0  502 -0.65333640731E+00 -0.13705906253E+02 -0.42018479744E+03  0.45423291681E+03  0.17200000000E+03 0.  1.
</event>
<event>
 4    1 -0.6855026E-004  0.1927342E+03  0.7818608E-02  0.1156018E+00
         -5   -1    0    0    0  501 -0.00000000000E+00  0.00000000000E+00  0.95888853455E+03  0.95890005302E+03  0.47000000000E+01 0.  1.
          5   -1    0    0  501    0  0.00000000000E+00 -0.00000000000E+00 -0.77559679760E+02  0.77701955731E+02  0.47000000000E+01 0. -1.
          6    1    1    2  502    0 -0.83342368345E+02  0.24830024865E+02  0.73782002017E+02  0.20637408829E+03  0.17200000000E+03 0. -1.
         -6    1    1    2    0  502  0.83342368345E+02 -0.24830024865E+02  0.80754685277E+03  0.83022792046E+03  0.17200000000E+03 0.  1.
</event>
<event>
 4    1 -0.6855026E-004  0.2630493E+03  0.7818608E-02  0.1105325E+00
         -5   -1    0    0    0  501 -0.00000000000E+00  0.00000000000E+00  0.75007811717E+03  0.75009284216E+03  0.47000000000E+01 0.  1.
          5   -1    0    0  501    0  0.00000000000E+00 -0.00000000000E+00 -0.15210829841E+03  0.15218089382E+03  0.47000000000E+01 0. -1.
          6    1    1    2  502    0 -0.19876222303E+03  0.10222843888E+02  0.15905389362E+02  0.26352971227E+03  0.17200000000E+03 0. -1.
         -6    1    1    2    0  502  0.19876222303E+03 -0.10222843888E+02  0.58206442940E+03  0.63874402370E+03  0.17200000000E+03 0.  1.
</event>
<event>
 4    1 -0.6855026E-004  0.2696761E+03  0.7818608E-02  0.1101465E+00
         -5   -1    0    0    0  501 -0.00000000000E+00  0.00000000000E+00  0.48221862687E+03  0.48224153087E+03  0.47000000000E+01 0.  1.
          5   -1    0    0  501    0  0.00000000000E+00 -0.00000000000E+00 -0.34084660976E+03  0.34087901283E+03  0.47000000000E+01 0. -1.
          6    1    1    2  502    0  0.20468106589E+03  0.35311191875E+02 -0.23663490974E+03  0.35877750698E+03  0.17200000000E+03 0. -1.
         -6    1    1    2    0  502 -0.20468106589E+03 -0.35311191875E+02  0.37800692685E+03  0.46434303672E+03  0.17200000000E+03 0. -1.
</event>
<event>
 4    1 -0.6855026E-004  0.1899170E+03  0.7818608E-02  0.1158536E+00
          5   -1    0    0  501    0  0.00000000000E+00  0.00000000000E+00  0.12827925687E+04  0.12828011787E+04  0.47000000000E+01 0. -1.
         -5   -1    0    0    0  501 -0.00000000000E+00 -0.00000000000E+00 -0.32982392654E+02  0.33315585319E+02  0.47000000000E+01 0.  1.
          6    1    1    2  502    0  0.63275060943E+02 -0.49807092263E+02  0.88147829128E+03  0.90170530540E+03  0.17200000000E+03 0. -1.
         -6    1    1    2    0  502 -0.63275060943E+02  0.49807092263E+02  0.36833188472E+03  0.41441145867E+03  0.17200000000E+03 0.  1.
</event>
<event>
 4    1 -0.6855026E-004  0.1801085E+03  0.7818608E-02  0.1167698E+00
         -5   -1    0    0    0  501 -0.00000000000E+00  0.00000000000E+00  0.36481420404E+03  0.36484447847E+03  0.47000000000E+01 0.  1.
          5   -1    0    0  501    0  0.00000000000E+00 -0.00000000000E+00 -0.27206838213E+03  0.27210897551E+03  0.47000000000E+01 0. -1.
          6    1    1    2  502    0  0.47447656690E+02 -0.24572123872E+02 -0.21494239832E+03  0.28042700297E+03  0.17200000000E+03 0. -1.
         -6    1    1    2    0  502 -0.47447656690E+02  0.24572123872E+02  0.30768822024E+03  0.35652645101E+03  0.17200000000E+03 0.  1.
</event>
<event>
 4    1 -0.6855026E-004  0.4611792E+03  0.7818608E-02  0.1024440E+00
         -5   -1    0    0    0  501 -0.00000000000E+00  0.00000000000E+00  0.96153373325E+03  0.96154522003E+03  0.47000000000E+01 0.  1.
          5   -1    0    0  501    0  0.00000000000E+00 -0.00000000000E+00 -0.83395890157E+03  0.83397214552E+03  0.47000000000E+01 0. -1.
          6    1    1    2  502    0 -0.12182251915E+03 -0.41019695087E+03 -0.70576129724E+03  0.84308082255E+03  0.17200000000E+03 0. -1.
         -6    1    1    2    0  502  0.12182251915E+03  0.41019695087E+03  0.83333612892E+03  0.95243654300E+03  0.17200000000E+03 0.  1.
</event>
<event>
 4    1 -0.6855026E-004  0.1836214E+03  0.7818608E-02  0.1164344E+00
         -5   -1    0    0    0  501 -0.00000000000E+00  0.00000000000E+00  0.16202762869E+04  0.16202831036E+04  0.47000000000E+01 0.  1.
          5   -1    0    0  501    0  0.00000000000E+00 -0.00000000000E+00 -0.84388073249E+02  0.84518855332E+02  0.47000000000E+01 0. -1.
          6    1    1    2  502    0  0.30716084851E+02 -0.56474272989E+02  0.27963451386E+02  0.18573846126E+03  0.17200000000E+03 0. -1.
         -6    1    1    2    0  502 -0.30716084851E+02  0.56474272989E+02  0.15079247623E+04  0.15190634977E+04  0.17200000000E+03 0.  1.
</event>
<event>
 4    1 -0.6855026E-004  0.2483881E+03  0.7818608E-02  0.1114328E+00
          5   -1    0    0  501    0  0.00000000000E+00  0.00000000000E+00  0.45627424275E+03  0.45629844904E+03  0.47000000000E+01 0. -1.
         -5   -1    0    0    0  501 -0.00000000000E+00 -0.00000000000E+00 -0.17763196445E+03  0.17769413270E+03  0.47000000000E+01 0.  1.
          6    1    1    2  502    0 -0.73303325668E+02  0.16352141583E+03  0.29430273559E+03  0.38511132308E+03  0.17200000000E+03 0. -1.
         -6    1    1    2    0  502  0.73303325668E+02 -0.16352141583E+03 -0.15660457297E+02  0.24888125866E+03  0.17200000000E+03 0.  1.
</event>
<event>
 4    1 -0.6855026E-004  0.2167365E+03  0.7818608E-02  0.1136340E+00
         -5   -1    0    0    0  501 -0.00000000000E+00  0.00000000000E+00  0.87980821127E+03  0.87982076506E+03  0.47000000000E+01 0.  1.
          5   -1    0    0  501    0  0.00000000000E+00 -0.00000000000E+00 -0.26075133590E+03  0.26079369083E+03  0.47000000000E+01 0. -1.
          6    1    1    2  502    0 -0.44402236311E+02  0.12417390469E+03 -0.19905830522E+03  0.29427695471E+03  0.17200000000E+03 0. -1.
         -6    1    1    2    0  502  0.44402236311E+02 -0.12417390469E+03  0.81811518059E+03  0.84633750118E+03  0.17200000000E+03 0.  1.
</event>
<event>
 4    1 -0.6855026E-004  0.2175267E+03  0.7818608E-02  0.1135740E+00
         -5   -1    0    0    0  501 -0.00000000000E+00  0.00000000000E+00  0.17157468160E+04  0.17157532534E+04  0.47000000000E+01 0.  1.
          5   -1    0    0  501    0  0.00000000000E+00 -0.00000000000E+00 -0.68045054968E+02  0.68207180748E+02  0.47000000000E+01 0. -1.
          6    1    1    2  502    0  0.74959651111E+02 -0.11006786628E+03  0.13568235854E+03  0.25637392009E+03  0.17200000000E+03 0. -1.
         -6    1    1    2    0  502 -0.74959651111E+02  0.11006786628E+03  0.15120194025E+04  0.15275865140E+04  0.17200000000E+03 0.  1.
</event>
<event>
 4    1 -0.6855026E-004  0.1838411E+03  0.7818608E-02  0.1164137E+00
         -5   -1    0    0    0  501 -0.00000000000E+00  0.00000000000E+00  0.14037647105E+04  0.14037725786E+04  0.47000000000E+01 0.  1.
          5   -1    0    0  501    0  0.00000000000E+00 -0.00000000000E+00 -0.47246440122E+02  0.47479638838E+02  0.47000000000E+01 0. -1.
          6    1    1    2  502    0  0.40868872358E+02  0.50431043702E+02  0.16941502770E+03  0.24999801300E+03  0.17200000000E+03 0. -1.
         -6    1    1    2    0  502 -0.40868872358E+02 -0.50431043702E+02  0.11871032426E+04  0.12012542044E+04  0.17200000000E+03 0.  1.
</event>
<event>
 4    1 -0.6855026E-004  0.2505883E+03  0.7818608E-02  0.1112934E+00
         -5   -1    0    0    0  501 -0.00000000000E+00  0.00000000000E+00  0.42481260507E+03  0.42483860397E+03  0.47000000000E+01 0.  1.
          5   -1    0    0  501    0  0.00000000000E+00 -0.00000000000E+00 -0.51243314612E+03  0.51245469970E+03  0.47000000000E+01 0. -1.
          6    1    1    2  502    0 -0.17702912321E+03  0.43257446034E+02 -0.43913490821E+03  0.50560259563E+03  0.17200000000E+03 0. -1.
         -6    1    1    2    0  502  0.17702912321E+03 -0.43257446034E+02  0.35151436715E+03  0.43169070805E+03  0.17200000000E+03 0.  1.
</event>
<event>
 4    1 -0.6855026E-004  0.2197400E+03  0.7818608E-02  0.1134077E+00
         -5   -1    0    0    0  501 -0.00000000000E+00  0.00000000000E+00  0.33553986450E+03  0.33557277999E+03  0.47000000000E+01 0.  1.
          5   -1    0    0  501    0  0.00000000000E+00 -0.00000000000E+00 -0.19283607019E+03  0.19289333832E+03  0.47000000000E+01 0. -1.
          6    1    1    2  502    0 -0.12179081097E+03  0.62198627485E+02 -0.61823158775E+02  0.22827127252E+03  0.17200000000E+03 0. -1.
         -6    1    1    2    0  502  0.12179081097E+03 -0.62198627485E+02  0.20452695308E+03  0.30019484578E+03  0.17200000000E+03 0. -1.
</event>
<event>
 4    1 -0.6855026E-004  0.2441267E+03  0.7818608E-02  0.1117074E+00
         -5   -1    0    0    0  501 -0.00000000000E+00  0.00000000000E+00  0.38922549870E+03  0.38925387453E+03  0.47000000000E+01 0.  1.
          5   -1    0    0  501    0  0.00000000000E+00 -0.00000000000E+00 -0.55249165017E+03  0.55251164106E+03  0.47000000000E+01 0. -1.
          6    1    1    2  502    0 -0.11228735634E+03  0.13192942254E+03 -0.48199051210E+03  0.54028943787E+03  0.17200000000E+03 0. -1.
         -6    1    1    2    0  502  0.11228735634E+03 -0.13192942254E+03  0.31872436063E+03  0.40147607772E+03  0.17200000000E+03 0.  1.
</event>
<event>
 4    1 -0.6855026E-004  0.2780337E+03  0.7818608E-02  0.1096768E+00
          5   -1    0    0  501    0  0.00000000000E+00  0.00000000000E+00  0.90397886394E+03  0.90399108206E+03  0.47000000000E+01 0. -1.
         -5   -1    0    0    0  501 -0.00000000000E+00 -0.00000000000E+00 -0.23373332641E+03  0.23378057634E+03  0.47000000000E+01 0.  1.
          6    1    1    2  502    0 -0.19424922179E+03 -0.99929876497E+02  0.78816370219E+03  0.83576597313E+03  0.17200000000E+03 0. -1.
         -6    1    1    2    0  502  0.19424922179E+03  0.99929876497E+02 -0.11791816466E+03  0.30200568527E+03  0.17200000000E+03 0.  1.
</event>
<event>
 4    1 -0.6855026E-004  0.1810160E+03  0.7818608E-02  0.1166823E+00
          5   -1    0    0  501    0  0.00000000000E+00  0.00000000000E+00  0.10221334370E+04  0.10221442428E+04  0.47000000000E+01 0. -1.
         -5   -1    0    0    0  501 -0.00000000000E+00 -0.00000000000E+00 -0.78098343947E+02  0.78239640383E+02  0.47000000000E+01 0.  1.
          6    1    1    2  502    0 -0.96030311836E+00 -0.56408060533E+02  0.89461256891E+03  0.91274226369E+03  0.17200000000E+03 0. -1.
         -6    1    1    2    0  502  0.96030311836E+00  0.56408060533E+02  0.49422524188E+02  0.18764161951E+03  0.17200000000E+03 0.  1.
</event>
<event>
 4    1 -0.6855026E-004  0.2089435E+03  0.7818608E-02  0.1142405E+00
         -5   -1    0    0    0  501 -0.00000000000E+00  0.00000000000E+00  0.11108796554E+03  0.11118734680E+03  0.47000000000E+01 0.  1.
          5   -1    0    0  501    0  0.00000000000E+00 -0.00000000000E+00 -0.40579312733E+03  0.40582034472E+03  0.47000000000E+01 0. -1.
          6    1    1    2  502    0  0.38199790119E+02  0.11231287492E+03 -0.19376275116E+03  0.28495861028E+03  0.17200000000E+03 0. -1.
         -6    1    1    2    0  502 -0.38199790119E+02 -0.11231287492E+03 -0.10094241063E+03  0.23204908124E+03  0.17200000000E+03 0.  1.
</event>
<event>
 4    1 -0.6855026E-004  0.3110923E+03  0.7818608E-02  0.1079823E+00
         -5   -1    0    0    0  501 -0.00000000000E+00  0.00000000000E+00  0.82011632474E+02  0.82146198093E+02  0.47000000000E+01 0.  1.
          5   -1    0    0  501    0  0.00000000000E+00 -0.00000000000E+00 -0.21948763249E+04  0.21948813571E+04  0.47000000000E+01 0. -1.
          6    1    1    2  502    0  0.21795333973E+03 -0.14032380708E+03 -0.18309836389E+04  0.18572236039E+04  0.17200000000E+03 0. -1.
         -6    1    1    2    0  502 -0.21795333973E+03  0.14032380708E+03 -0.28188105358E+03  0.41980395127E+03  0.17200000000E+03 0.  1.
</event>
<event>
 4    1 -0.6855026E-004  0.1730458E+03  0.7818608E-02  0.1174708E+00
          5   -1    0    0  501    0  0.00000000000E+00  0.00000000000E+00  0.51053809430E+03  0.51055972788E+03  0.47000000000E+01 0. -1.
         -5   -1    0    0    0  501 -0.00000000000E+00 -0.00000000000E+00 -0.12658559224E+03  0.12667281540E+03  0.47000000000E+01 0.  1.
          6    1    1    2  502    0  0.12951203620E+02 -0.13896127821E+02  0.42543701633E+03  0.45928367150E+03  0.17200000000E+03 0. -1.
         -6    1    1    2    0  502 -0.12951203620E+02  0.13896127821E+02 -0.41484514267E+02  0.17794887178E+03  0.17200000000E+03 0.  1.
</event>
<event>
 4    1 -0.6855026E-004  0.2281218E+03  0.7818608E-02  0.1127969E+00
          5   -1    0    0  501    0  0.00000000000E+00  0.00000000000E+00  0.20741663012E+04  0.20741716263E+04  0.47000000000E+01 0. -1.
         -5   -1    0    0    0  501 -0.00000000000E+00 -0.00000000000E+00 -0.47463501497E+02  0.47695638945E+02  0.47000000000E+01 0.  1.
          6    1    1    2  502    0  0.14847157858E+03 -0.20291362550E+02  0.17428121530E+04  0.17576785115E+04  0.17200000000E+03 0. -1.
         -6    1    1    2    0  502 -0.14847157858E+03  0.20291362550E+02  0.28389064672E+03  0.36418875372E+03  0.17200000000E+03 0.  1.
</event>
<event>
 4    1 -0.6855026E-004  0.2632021E+03  0.7818608E-02  0.1105234E+00
         -5   -1    0    0    0  501 -0.00000000000E+00  0.00000000000E+00  0.44563094043E+03  0.44565572482E+03  0.47000000000E+01 0.  1.
          5   -1    0    0  501    0  0.00000000000E+00 -0.00000000000E+00 -0.34375313676E+03  0.34378526587E+03  0.47000000000E+01 0. -1.
          6    1    1    2  502    0  0.16728779060E+03 -0.10819499761E+03 -0.24121799511E+03  0.35701748355E+03  0.17200000000E+03 0. -1.
         -6    1    1    2    0  502 -0.16728779060E+03  0.10819499761E+03  0.34309579878E+03  0.43242350715E+03  0.17200000000E+03 0.  1.
</event>
<event>
 4    1 -0.6855026E-004  0.1839504E+03  0.7818608E-02  0.1164034E+00
          5   -1    0    0  501    0  0.00000000000E+00  0.00000000000E+00  0.26066330688E+03  0.26070567611E+03  0.47000000000E+01 0. -1.
         -5   -1    0    0    0  501 -0.00000000000E+00 -0.00000000000E+00 -0.30368612026E+03  0.30372248787E+03  0.47000000000E+01 0.  1.
          6    1    1    2  502    0 -0.48360436631E+02 -0.43760778636E+02  0.19205193859E+03  0.26593548972E+03  0.17200000000E+03 0. -1.
         -6    1    1    2    0  502  0.48360436631E+02  0.43760778636E+02 -0.23507475197E+03  0.29849267426E+03  0.17200000000E+03 0.  1.
</event>
<event>
 4    1 -0.6855026E-004  0.2989643E+03  0.7818608E-02  0.1085760E+00
          5   -1    0    0  501    0  0.00000000000E+00  0.00000000000E+00  0.24872505897E+03  0.24876946147E+03  0.47000000000E+01 0. -1.
         -5   -1    0    0    0  501 -0.00000000000E+00 -0.00000000000E+00 -0.75016760642E+03  0.75018232965E+03  0.47000000000E+01 0.  1.
          6    1    1    2  502    0 -0.79080446775E+02 -0.23139124231E+03  0.10981869982E+03  0.31849610815E+03  0.17200000000E+03 0. -1.
         -6    1    1    2    0  502  0.79080446775E+02  0.23139124231E+03 -0.61126124727E+03  0.68045568298E+03  0.17200000000E+03 0.  1.
</event>
<event>
 4    1 -0.6855026E-004  0.1750060E+03  0.7818608E-02  0.1172726E+00
          5   -1    0    0  501    0  0.00000000000E+00  0.00000000000E+00  0.25116997254E+03  0.25121394290E+03  0.47000000000E+01 0. -1.
         -5   -1    0    0    0  501 -0.00000000000E+00 -0.00000000000E+00 -0.44861505112E+03  0.44863967066E+03  0.47000000000E+01 0.  1.
          6    1    1    2  502    0 -0.32236247537E+02  0.19818257287E+01  0.19989617947E+03  0.26567947955E+03  0.17200000000E+03 0. -1.
         -6    1    1    2    0  502  0.32236247537E+02 -0.19818257287E+01 -0.39734125805E+03  0.43417413401E+03  0.17200000000E+03 0.  1.
</event>
<event>
 4    1 -0.6855026E-004  0.1751062E+03  0.7818608E-02  0.1172625E+00
         -5   -1    0    0    0  501 -0.00000000000E+00  0.00000000000E+00  0.13248874005E+04  0.13248957370E+04  0.47000000000E+01 0.  1.
          5   -1    0    0  501    0  0.00000000000E+00 -0.00000000000E+00 -0.56673845053E+02  0.56868398193E+02  0.47000000000E+01 0. -1.
          6    1    1    2  502    0 -0.12165153126E+02 -0.30499296952E+02  0.10235090359E+03  0.20282481488E+03  0.17200000000E+03 0. -1.
         -6    1    1    2    0  502  0.12165153126E+02  0.30499296952E+02  0.11658626518E+04  0.11789393203E+04  0.17200000000E+03 0.  1.
</event>
<event>
 4    1 -0.6855026E-004  0.2286145E+03  0.7818608E-02  0.1127619E+00
          5   -1    0    0  501    0  0.00000000000E+00  0.00000000000E+00  0.25838521378E+03  0.25842795650E+03  0.47000000000E+01 0. -1.
         -5   -1    0    0    0  501 -0.00000000000E+00 -0.00000000000E+00 -0.33423567215E+03  0.33426871606E+03  0.47000000000E+01 0.  1.
          6    1    1    2  502    0 -0.14966128285E+03  0.16795114914E+02  0.14832067844E+03  0.27251348429E+03  0.17200000000E+03 0. -1.
         -6    1    1    2    0  502  0.14966128285E+03 -0.16795114914E+02 -0.22417113681E+03  0.32018318827E+03  0.17200000000E+03 0.  1.
</event>
<event>
 4    1 -0.6855026E-004  0.2125279E+03  0.7818608E-02  0.1139580E+00
         -5   -1    0    0    0  501 -0.00000000000E+00  0.00000000000E+00  0.24571717826E+03  0.24576212420E+03  0.47000000000E+01 0.  1.
          5   -1    0    0  501    0  0.00000000000E+00 -0.00000000000E+00 -0.20892782510E+03  0.20898068356E+03  0.47000000000E+01 0. -1.
          6    1    1    2  502    0 -0.59814203452E+02  0.10957358651E+03 -0.60548787765E+02  0.22098476304E+03  0.17200000000E+03 0. -1.
         -6    1    1    2    0  502  0.59814203452E+02 -0.10957358651E+03  0.97338140919E+02  0.23375804472E+03  0.17200000000E+03 0.  1.
</event>
<event>
 4    1 -0.6855026E-004  0.3372688E+03  0.7818608E-02  0.1067965E+00
          5   -1    0    0  501    0  0.00000000000E+00  0.00000000000E+00  0.48225588474E+03  0.48227878698E+03  0.47000000000E+01 0. -1.
         -5   -1    0    0    0  501 -0.00000000000E+00 -0.00000000000E+00 -0.92145089674E+03  0.92146288319E+03  0.47000000000E+01 0.  1.
          6    1    1    2  502    0  0.28487574347E+03  0.54882366292E+02  0.38581891374E+03  0.51245145873E+03  0.17200000000E+03 0. -1.
         -6    1    1    2    0  502 -0.28487574347E+03 -0.54882366292E+02 -0.82501392574E+03  0.89129021144E+03  0.17200000000E+03 0.  1.
</event>
<event>
 4    1 -0.6855026E-004  0.1993526E+03  0.7818608E-02  0.1150286E+00
         -5   -1    0    0    0  501 -0.00000000000E+00  0.00000000000E+00  0.12675560235E+03  0.12684270861E+03  0.47000000000E+01 0.  1.
          5   -1    0    0  501    0  0.00000000000E+00 -0.00000000000E+00 -0.37312715442E+03  0.37315675442E+03  0.47000000000E+01 0. -1.
          6    1    1    2  502    0 -0.36273437189E+02 -0.94030303912E+02 -0.22326256156E+03  0.29931193043E+03  0.17200000000E+03 0. -1.
         -6    1    1    2    0  502  0.36273437189E+02  0.94030303912E+02 -0.23108990504E+02  0.20068753260E+03  0.17200000000E+03 0.  1.
</event>
<event>
 4    1 -0.6855026E-004  0.4431750E+03  0.7818608E-02  0.1029777E+00
         -5   -1    0    0    0  501 -0.00000000000E+00  0.00000000000E+00  0.67652589366E+03  0.67654221952E+03  0.47000000000E+01 0.  1.
          5   -1    0    0  501    0  0.00000000000E+00 -0.00000000000E+00 -0.61222541825E+03  0.61224345872E+03  0.47000000000E+01 0. -1.
          6    1    1    2  502    0  0.23433297018E+03 -0.33452677690E+03 -0.43512688408E+03  0.62107931106E+03  0.17200000000E+03 0. -1.
         -6    1    1    2    0  502 -0.23433297018E+03  0.33452677690E+03  0.49942735949E+03  0.66770636719E+03  0.17200000000E+03 0.  1.
</event>
<event>
 4    1 -0.6855026E-004  0.1763753E+03  0.7818608E-02  0.1171358E+00
         -5   -1    0    0    0  501 -0.00000000000E+00  0.00000000000E+00  0.27626654709E+03  0.27630652371E+03  0.47000000000E+01 0.  1.
          5   -1    0    0  501    0  0.00000000000E+00 -0.00000000000E+00 -0.26292710146E+03  0.26296910595E+03  0.47000000000E+01 0. -1.
          6    1    1    2  502    0 -0.18059805495E+02 -0.34613374072E+02 -0.19723531224E+03  0.26459404875E+03  0.17200000000E+03 0. -1.
         -6    1    1    2    0  502  0.18059805495E+02  0.34613374072E+02  0.21057475787E+03  0.27468158091E+03  0.17200000000E+03 0.  1.
</event>
<event>
 4    1 -0.6855026E-004  0.1919748E+03  0.7818608E-02  0.1156692E+00
          5   -1    0    0  501    0  0.00000000000E+00  0.00000000000E+00  0.34791564507E+03  0.34794738983E+03  0.47000000000E+01 0. -1.
         -5   -1    0    0    0  501 -0.00000000000E+00 -0.00000000000E+00 -0.23320812814E+03  0.23325548446E+03  0.47000000000E+01 0.  1.
          6    1    1    2  502    0  0.26896592982E+02 -0.80912874247E+02  0.27206553591E+03  0.33297744032E+03  0.17200000000E+03 0. -1.
         -6    1    1    2    0  502 -0.26896592982E+02  0.80912874247E+02 -0.15735801898E+03  0.24822543397E+03  0.17200000000E+03 0.  1.
</event>
<event>
 4    1 -0.6855026E-004  0.2564486E+03  0.7818608E-02  0.1109296E+00
         -5   -1    0    0    0  501 -0.00000000000E+00  0.00000000000E+00  0.84631457423E+03  0.84632762483E+03  0.47000000000E+01 0.  1.
          5   -1    0    0  501    0  0.00000000000E+00 -0.00000000000E+00 -0.31884529488E+03  0.31887993363E+03  0.47000000000E+01 0. -1.
          6    1    1    2  502    0 -0.36053099692E+02  0.18676736752E+03 -0.24293186615E+03  0.35324462793E+03  0.17200000000E+03 0. -1.
         -6    1    1    2    0  502  0.36053099692E+02 -0.18676736752E+03  0.77040114550E+03  0.81196293053E+03  0.17200000000E+03 0.  1.
</event>
<event>
 4    1 -0.6855026E-004  0.2813010E+03  0.7818608E-02  0.1094980E+00
          5   -1    0    0  501    0  0.00000000000E+00  0.00000000000E+00  0.13789879101E+03  0.13797886274E+03  0.47000000000E+01 0. -1.
         -5   -1    0    0    0  501 -0.00000000000E+00 -0.00000000000E+00 -0.68386958248E+03  0.68388573302E+03  0.47000000000E+01 0.  1.
          6    1    1    2  502    0 -0.17388498279E+03  0.13896137686E+03 -0.10796593377E+03  0.30130863637E+03  0.17200000000E+03 0. -1.
         -6    1    1    2    0  502  0.17388498279E+03 -0.13896137686E+03 -0.43800485769E+03  0.52055595939E+03  0.17200000000E+03 0.  1.
</event>
<event>
 4    1 -0.6855026E-004  0.1788503E+03  0.7818608E-02  0.1168920E+00
         -5   -1    0    0    0  501 -0.00000000000E+00  0.00000000000E+00  0.26861667804E+03  0.26865779297E+03  0.47000000000E+01 0.  1.
          5   -1    0    0  501    0  0.00000000000E+00 -0.00000000000E+00 -0.18502590124E+03  0.18508558596E+03  0.47000000000E+01 0. -1.
          6    1    1    2  502    0 -0.48443255721E+02 -0.75288528427E+01 -0.93702131362E+02  0.20190968791E+03  0.17200000000E+03 0. -1.
         -6    1    1    2    0  502  0.48443255721E+02  0.75288528427E+01  0.17729290816E+03  0.25183369102E+03  0.17200000000E+03 0.  1.
</event>
<event>
 4    1 -0.6855026E-004  0.1827614E+03  0.7818608E-02  0.1165157E+00
         -5   -1    0    0    0  501 -0.00000000000E+00  0.00000000000E+00  0.18885500693E+03  0.18891348190E+03  0.47000000000E+01 0.  1.
          5   -1    0    0  501    0  0.00000000000E+00 -0.00000000000E+00 -0.28147054062E+03  0.28150977822E+03  0.47000000000E+01 0. -1.
          6    1    1    2  502    0 -0.49260655403E+02 -0.37297778757E+02 -0.18975078208E+03  0.26345226469E+03  0.17200000000E+03 0. -1.
         -6    1    1    2    0  502  0.49260655403E+02  0.37297778757E+02  0.97135248392E+02  0.20697099543E+03  0.17200000000E+03 0.  1.
</event>
<event>
 4    1 -0.6855026E-004  0.1905656E+03  0.7818608E-02  0.1157952E+00
         -5   -1    0    0    0  501 -0.00000000000E+00  0.00000000000E+00  0.34044777944E+03  0.34048022046E+03  0.47000000000E+01 0.  1.
          5   -1    0    0  501    0  0.00000000000E+00 -0.00000000000E+00 -0.19372869546E+03  0.19378569980E+03  0.47000000000E+01 0. -1.
          6    1    1    2  502    0  0.31341311433E+02 -0.75822068947E+02 -0.10575675518E+03  0.21794438558E+03  0.17200000000E+03 0. -1.
         -6    1    1    2    0  502 -0.31341311433E+02  0.75822068947E+02  0.25247583915E+03  0.31632153467E+03  0.17200000000E+03 0.  1.
</event>
<event>
 4    1 -0.6855026E-004  0.1743124E+03  0.7818608E-02  0.1173424E+00
          5   -1    0    0  501    0  0.00000000000E+00  0.00000000000E+00  0.43650041703E+03  0.43652571982E+03  0.47000000000E+01 0. -1.
         -5   -1    0    0    0  501 -0.00000000000E+00 -0.00000000000E+00 -0.15149398746E+03  0.15156687711E+03  0.47000000000E+01 0.  1.
          6    1    1    2  502    0 -0.32269822803E+01 -0.28114162605E+02  0.35872422853E+03  0.39883316272E+03  0.17200000000E+03 0. -1.
         -6    1    1    2    0  502  0.32269822803E+01  0.28114162605E+02 -0.73717798958E+02  0.18925943421E+03  0.17200000000E+03 0.  1.
</event>
<event>
 4    1 -0.6855026E-004  0.2187352E+03  0.7818608E-02  0.1134830E+00
          5   -1    0    0  501    0  0.00000000000E+00  0.00000000000E+00  0.23403709590E+03  0.23408428451E+03  0.47000000000E+01 0. -1.
         -5   -1    0    0    0  501 -0.00000000000E+00 -0.00000000000E+00 -0.22467683423E+03  0.22472598835E+03  0.47000000000E+01 0.  1.
          6    1    1    2  502    0  0.11125516889E+03 -0.76703241934E+02  0.73685166308E+02  0.23081291918E+03  0.17200000000E+03 0. -1.
         -6    1    1    2    0  502 -0.11125516889E+03  0.76703241934E+02 -0.64324904646E+02  0.22799735368E+03  0.17200000000E+03 0.  1.
</event>
<event>
 4    1 -0.6855026E-004  0.2136903E+03  0.7818608E-02  0.1138677E+00
         -5   -1    0    0    0  501 -0.00000000000E+00  0.00000000000E+00  0.16802437709E+03  0.16809009874E+03  0.47000000000E+01 0.  1.
          5   -1    0    0  501    0  0.00000000000E+00 -0.00000000000E+00 -0.40774961240E+03  0.40777669920E+03  0.47000000000E+01 0. -1.
          6    1    1    2  502    0  0.11365970856E+03 -0.56222745501E+02 -0.28620604602E+03  0.35717982479E+03  0.17200000000E+03 0. -1.
         -6    1    1    2    0  502 -0.11365970856E+03  0.56222745501E+02  0.46480810703E+02  0.21868697315E+03  0.17200000000E+03 0. -1.
</event>
<event>
 4    1 -0.6855026E-004  0.2879607E+03  0.7818608E-02  0.1091419E+00
          5   -1    0    0  501    0  0.00000000000E+00  0.00000000000E+00  0.39357164416E+03  0.39359970666E+03  0.47000000000E+01 0. -1.
         -5   -1    0    0    0  501 -0.00000000000E+00 -0.00000000000E+00 -0.16764939451E+04  0.16765005332E+04  0.47000000000E+01 0.  1.
          6    1    1    2  502    0  0.19198561674E+03 -0.12837004712E+03  0.32637117681E+03  0.43524647165E+03  0.17200000000E+03 0. -1.
         -6    1    1    2    0  502 -0.19198561674E+03  0.12837004712E+03 -0.16092934777E+04  0.16348537682E+04  0.17200000000E+03 0.  1.
</event>
<event>
 4    1 -0.6855026E-004  0.2866417E+03  0.7818608E-02  0.1092116E+00
          5   -1    0    0  501    0  0.00000000000E+00  0.00000000000E+00  0.45100769535E+03  0.45103218429E+03  0.47000000000E+01 0. -1.
         -5   -1    0    0    0  501 -0.00000000000E+00 -0.00000000000E+00 -0.35868466347E+03  0.35871545521E+03  0.47000000000E+01 0.  1.
          6    1    1    2  502    0  0.11625393377E+03 -0.19764737528E+03  0.33019885754E+03  0.43725821615E+03  0.17200000000E+03 0. -1.
         -6    1    1    2    0  502 -0.11625393377E+03  0.19764737528E+03 -0.23787582566E+03  0.37248942334E+03  0.17200000000E+03 0.  1.
</event>
<event>
 4    1 -0.6855026E-004  0.1723381E+03  0.7818608E-02  0.1175431E+00
         -5   -1    0    0    0  501 -0.00000000000E+00  0.00000000000E+00  0.22298257623E+04  0.22298307156E+04  0.47000000000E+01 0.  1.
          5   -1    0    0  501    0  0.00000000000E+00 -0.00000000000E+00 -0.19325069157E+02  0.19888396062E+02  0.47000000000E+01 0. -1.
          6    1    1    2  502    0  0.10247078472E+02 -0.33798304630E+01  0.46810564056E+03  0.49882192874E+03  0.17200000000E+03 0. -1.
         -6    1    1    2    0  502 -0.10247078472E+02  0.33798304630E+01  0.17423950525E+04  0.17508971829E+04  0.17200000000E+03 0.  1.
</event>
<event>
 4    1 -0.6855026E-004  0.1786684E+03  0.7818608E-02  0.1169098E+00
          5   -1    0    0  501    0  0.00000000000E+00  0.00000000000E+00  0.13032206342E+03  0.13040678745E+03  0.47000000000E+01 0. -1.
         -5   -1    0    0    0  501 -0.00000000000E+00 -0.00000000000E+00 -0.46674975988E+03  0.46677342292E+03  0.47000000000E+01 0.  1.
          6    1    1    2  502    0 -0.44518881826E+02  0.18880048156E+02  0.37679060191E+02  0.18259818902E+03  0.17200000000E+03 0. -1.
         -6    1    1    2    0  502  0.44518881826E+02 -0.18880048156E+02 -0.37410675665E+03  0.41458202135E+03  0.17200000000E+03 0.  1.
</event>
<event>
 4    1 -0.6855026E-004  0.1747649E+03  0.7818608E-02  0.1172968E+00
         -5   -1    0    0    0  501 -0.00000000000E+00  0.00000000000E+00  0.77517405470E+02  0.77659758890E+02  0.47000000000E+01 0.  1.
          5   -1    0    0  501    0  0.00000000000E+00 -0.00000000000E+00 -0.45676527954E+03  0.45678945981E+03  0.47000000000E+01 0. -1.
          6    1    1    2  502    0  0.10095695118E+02  0.29271765730E+02 -0.28906228050E+03  0.33778656181E+03  0.17200000000E+03 0. -1.
         -6    1    1    2    0  502 -0.10095695118E+02 -0.29271765730E+02 -0.90185593568E+02  0.19666265689E+03  0.17200000000E+03 0.  1.
</event>
<event>
 4    1 -0.6855026E-004  0.3003947E+03  0.7818608E-02  0.1085043E+00
          5   -1    0    0  501    0  0.00000000000E+00  0.00000000000E+00  0.59698663791E+03  0.59700513888E+03  0.47000000000E+01 0. -1.
         -5   -1    0    0    0  501 -0.00000000000E+00 -0.00000000000E+00 -0.24620685391E+03  0.24625171048E+03  0.47000000000E+01 0.  1.
          6    1    1    2  502    0  0.11487075441E+03  0.21784791736E+03  0.43740407194E+03  0.53062164248E+03  0.17200000000E+03 0. -1.
         -6    1    1    2    0  502 -0.11487075441E+03 -0.21784791736E+03 -0.86624287945E+02  0.31263520688E+03  0.17200000000E+03 0.  1.
</event>
<event>
 4    1 -0.6855026E-004  0.2539286E+03  0.7818608E-02  0.1110847E+00
         -5   -1    0    0    0  501 -0.00000000000E+00  0.00000000000E+00  0.13740638883E+03  0.13748674733E+03  0.47000000000E+01 0.  1.
          5   -1    0    0  501    0  0.00000000000E+00 -0.00000000000E+00 -0.83939213352E+03  0.83940529175E+03  0.47000000000E+01 0. -1.
          6    1    1    2  502    0 -0.18132020869E+03 -0.44930071194E+02 -0.67542192546E+03  0.72157778983E+03  0.17200000000E+03 0. -1.
         -6    1    1    2    0  502  0.18132020869E+03  0.44930071194E+02 -0.26563819235E+02  0.25531424925E+03  0.17200000000E+03 0.  1.
</event>
<event>
 4    1 -0.6855026E-004  0.1942495E+03  0.7818608E-02  0.1154683E+00
         -5   -1    0    0    0  501 -0.00000000000E+00  0.00000000000E+00  0.12428955326E+04  0.12429044191E+04  0.47000000000E+01 0.  1.
          5   -1    0    0  501    0  0.00000000000E+00 -0.00000000000E+00 -0.44337635225E+02  0.44586050479E+02  0.47000000000E+01 0. -1.
          6    1    1    2  502    0 -0.83846894646E+02  0.33444862531E+02  0.23664268487E+03  0.30615783654E+03  0.17200000000E+03 0. -1.
         -6    1    1    2    0  502  0.83846894646E+02 -0.33444862531E+02  0.96191521249E+03  0.98133263300E+03  0.17200000000E+03 0.  1.
</event>
<event>
 4    1 -0.6855026E-004  0.1783787E+03  0.7818608E-02  0.1169381E+00
          5   -1    0    0  501    0  0.00000000000E+00  0.00000000000E+00  0.88017925672E+02  0.88143322150E+02  0.47000000000E+01 0. -1.
         -5   -1    0    0    0  501 -0.00000000000E+00 -0.00000000000E+00 -0.50408070620E+03  0.50410261689E+03  0.47000000000E+01 0.  1.
          6    1    1    2  502    0 -0.19606275675E+02  0.43018238366E+02 -0.50348735618E+02  0.18534823996E+03  0.17200000000E+03 0. -1.
         -6    1    1    2    0  502  0.19606275675E+02 -0.43018238366E+02 -0.36571404491E+03  0.40689769908E+03  0.17200000000E+03 0.  1.
</event>
<event>
 4    1 -0.6855026E-004  0.1897251E+03  0.7818608E-02  0.1158709E+00
         -5   -1    0    0    0  501 -0.00000000000E+00  0.00000000000E+00  0.43810177920E+03  0.43812698951E+03  0.47000000000E+01 0.  1.
          5   -1    0    0  501    0  0.00000000000E+00 -0.00000000000E+00 -0.52901722240E+03  0.52903810033E+03  0.47000000000E+01 0. -1.
          6    1    1    2  502    0 -0.79763767225E+02  0.70266539789E+01 -0.48990742494E+03  0.52536170153E+03  0.17200000000E+03 0. -1.
         -6    1    1    2    0  502  0.79763767225E+02 -0.70266539789E+01  0.39899198173E+03  0.44180338830E+03  0.17200000000E+03 0.  1.
</event>
<event>
 4    1 -0.6855026E-004  0.1937234E+03  0.7818608E-02  0.1155145E+00
          5   -1    0    0  501    0  0.00000000000E+00  0.00000000000E+00  0.72842067349E+03  0.72843583627E+03  0.47000000000E+01 0. -1.
         -5   -1    0    0    0  501 -0.00000000000E+00 -0.00000000000E+00 -0.18976132381E+03  0.18981951958E+03  0.47000000000E+01 0.  1.
          6    1    1    2  502    0 -0.51057265625E+02  0.73061067098E+02  0.66122233907E+03  0.68901650603E+03  0.17200000000E+03 0. -1.
         -6    1    1    2    0  502  0.51057265625E+02 -0.73061067098E+02 -0.12256298939E+03  0.22923884982E+03  0.17200000000E+03 0.  1.
</event>
<event>
 4    1 -0.6855026E-004  0.1804483E+03  0.7818608E-02  0.1167370E+00
          5   -1    0    0  501    0  0.00000000000E+00  0.00000000000E+00  0.51318389858E+02  0.51533165414E+02  0.47000000000E+01 0. -1.
         -5   -1    0    0    0  501 -0.00000000000E+00 -0.00000000000E+00 -0.10477290091E+04  0.10477395509E+04  0.47000000000E+01 0.  1.
          6    1    1    2  502    0 -0.35001023172E+02  0.41863193352E+02 -0.15241698132E+03  0.23620443428E+03  0.17200000000E+03 0. -1.
         -6    1    1    2    0  502  0.35001023172E+02 -0.41863193352E+02 -0.84399363788E+03  0.86306828198E+03  0.17200000000E+03 0.  1.
</event>
<event>
 4    1 -0.6855026E-004  0.1760358E+03  0.7818608E-02  0.1171696E+00
         -5   -1    0    0    0  501 -0.00000000000E+00  0.00000000000E+00  0.62071263863E+03  0.62073043244E+03  0.47000000000E+01 0.  1.
          5   -1    0    0  501    0  0.00000000000E+00 -0.00000000000E+00 -0.21722043309E+03  0.21727127411E+03  0.47000000000E+01 0. -1.
          6    1    1    2  502    0 -0.31463403953E+02 -0.20363520847E+02 -0.16597740238E+03  0.24194444997E+03  0.17200000000E+03 0. -1.
         -6    1    1    2    0  502  0.31463403953E+02  0.20363520847E+02  0.56946960792E+03  0.59605725658E+03  0.17200000000E+03 0.  1.
</event>
<event>
 4    1 -0.6855026E-004  0.1828553E+03  0.7818608E-02  0.1165068E+00
         -5   -1    0    0    0  501 -0.00000000000E+00  0.00000000000E+00  0.86347883934E+03  0.86349163053E+03  0.47000000000E+01 0.  1.
          5   -1    0    0  501    0  0.00000000000E+00 -0.00000000000E+00 -0.22788169008E+03  0.22793015306E+03  0.47000000000E+01 0. -1.
          6    1    1    2  502    0  0.26817419254E+02 -0.55972273246E+02 -0.17939918776E+03  0.25616427916E+03  0.17200000000E+03 0. -1.
         -6    1    1    2    0  502 -0.26817419254E+02  0.55972273246E+02  0.81499633702E+03  0.83525750443E+03  0.17200000000E+03 0.  1.
</event>
<event>
 4    1 -0.6855026E-004  0.1810069E+03  0.7818608E-02  0.1166832E+00
          5   -1    0    0  501    0  0.00000000000E+00  0.00000000000E+00  0.16996267310E+03  0.17002764554E+03  0.47000000000E+01 0. -1.
         -5   -1    0    0    0  501 -0.00000000000E+00 -0.00000000000E+00 -0.41181175605E+03  0.41183857568E+03  0.47000000000E+01 0.  1.
          6    1    1    2  502    0  0.56327112382E+02 -0.25992265434E+01  0.91293010015E+02  0.20272620266E+03  0.17200000000E+03 0. -1.
         -6    1    1    2    0  502 -0.56327112382E+02  0.25992265434E+01 -0.33314209296E+03  0.37914001856E+03  0.17200000000E+03 0.  1.
</event>
<event>
 4    1 -0.6855026E-004  0.2390730E+03  0.7818608E-02  0.1120412E+00
         -5   -1    0    0    0  501 -0.00000000000E+00  0.00000000000E+00  0.35365310689E+03  0.35368433669E+03  0.47000000000E+01 0.  1.
          5   -1    0    0  501    0  0.00000000000E+00 -0.00000000000E+00 -0.38060161652E+03  0.38063063526E+03  0.47000000000E+01 0. -1.
          6    1    1    2  502    0  0.96896539523E+01  0.16576491010E+03 -0.29199111791E+03  0.37737873251E+03  0.17200000000E+03 0. -1.
         -6    1    1    2    0  502 -0.96896539523E+01 -0.16576491010E+03  0.26504260828E+03  0.35693623943E+03  0.17200000000E+03 0.  1.
</event>
<event>
 4    1 -0.6855026E-004  0.2067022E+03  0.7818608E-02  0.1144204E+00
          5   -1    0    0  501    0  0.00000000000E+00  0.00000000000E+00  0.15266061216E+03  0.15273294505E+03  0.47000000000E+01 0. -1.
         -5   -1    0    0    0  501 -0.00000000000E+00 -0.00000000000E+00 -0.62875854818E+03  0.62877611429E+03  0.47000000000E+01 0.  1.
          6    1    1    2  502    0  0.16469591856E+02  0.11344854555E+03  0.53067189501E+02  0.21340559165E+03  0.17200000000E+03 0. -1.
         -6    1    1    2    0  502 -0.16469591856E+02 -0.11344854555E+03 -0.52916512552E+03  0.56810346770E+03  0.17200000000E+03 0.  1.
</event>
<event>
 4    1 -0.6855026E-004  0.1726349E+03  0.7818608E-02  0.1175128E+00
          5   -1    0    0  501    0  0.00000000000E+00  0.00000000000E+00  0.96801840581E+02  0.96915872486E+02  0.47000000000E+01 0. -1.
         -5   -1    0    0    0  501 -0.00000000000E+00 -0.00000000000E+00 -0.10642581332E+04  0.10642685112E+04  0.47000000000E+01 0.  1.
          6    1    1    2  502    0  0.64110745512E+00 -0.14778678840E+02  0.58033864068E+01  0.17273245109E+03  0.17200000000E+03 0. -1.
         -6    1    1    2    0  502 -0.64110745512E+00  0.14778678840E+02 -0.97325967900E+03  0.98845193264E+03  0.17200000000E+03 0.  1.
</event>
<event>
 4    1 -0.6855026E-004  0.2425026E+03  0.7818608E-02  0.1118137E+00
         -5   -1    0    0    0  501 -0.00000000000E+00  0.00000000000E+00  0.33576572881E+03  0.33579862216E+03  0.47000000000E+01 0.  1.
          5   -1    0    0  501    0  0.00000000000E+00 -0.00000000000E+00 -0.30261242242E+03  0.30264891905E+03  0.47000000000E+01 0. -1.
          6    1    1    2  502    0 -0.16077381306E+03  0.58097335499E+02 -0.19063650298E+03  0.30846360503E+03  0.17200000000E+03 0. -1.
         -6    1    1    2    0  502  0.16077381306E+03 -0.58097335499E+02  0.22378980938E+03  0.32998393618E+03  0.17200000000E+03 0.  1.
</event>
<event>
 4    1 -0.6855026E-004  0.1778520E+03  0.7818608E-02  0.1169898E+00
          5   -1    0    0  501    0  0.00000000000E+00  0.00000000000E+00  0.40548701838E+02  0.40820181537E+02  0.47000000000E+01 0. -1.
         -5   -1    0    0    0  501 -0.00000000000E+00 -0.00000000000E+00 -0.13679739567E+04  0.13679820306E+04  0.47000000000E+01 0.  1.
          6    1    1    2  502    0 -0.41492137078E+02  0.18047855524E+02 -0.20085591575E+03  0.26828049020E+03  0.17200000000E+03 0. -1.
         -6    1    1    2    0  502  0.41492137078E+02 -0.18047855524E+02 -0.11265693391E+04  0.11405217220E+04  0.17200000000E+03 0.  1.
</event>
<event>
 4    1 -0.6855026E-004  0.2179947E+03  0.7818608E-02  0.1135387E+00
          5   -1    0    0  501    0  0.00000000000E+00  0.00000000000E+00  0.22961913470E+03  0.22966723105E+03  0.47000000000E+01 0. -1.
         -5   -1    0    0    0  501 -0.00000000000E+00 -0.00000000000E+00 -0.17083113536E+04  0.17083178190E+04  0.47000000000E+01 0.  1.
          6    1    1    2  502    0  0.13243224320E+02 -0.13327536176E+03  0.16906468824E+03  0.27587057446E+03  0.17200000000E+03 0. -1.
         -6    1    1    2    0  502 -0.13243224320E+02  0.13327536176E+03 -0.16477569071E+04  0.16621144756E+04  0.17200000000E+03 0.  1.
</event>
<event>
 4    1 -0.6855026E-004  0.2210538E+03  0.7818608E-02  0.1133100E+00
         -5   -1    0    0    0  501 -0.00000000000E+00  0.00000000000E+00  0.76022979378E+02  0.76168125837E+02  0.47000000000E+01 0.  1.
          5   -1    0    0  501    0  0.00000000000E+00 -0.00000000000E+00 -0.15170762221E+04  0.15170835025E+04  0.47000000000E+01 0. -1.
          6    1    1    2  502    0 -0.10350327454E+03 -0.92562656255E+02 -0.13255218840E+04  0.13438277562E+04  0.17200000000E+03 0. -1.
         -6    1    1    2    0  502  0.10350327454E+03  0.92562656255E+02 -0.11553135863E+03  0.24942387215E+03  0.17200000000E+03 0.  1.
</event>
<event>
 4    1 -0.6855026E-004  0.1783417E+03  0.7818608E-02  0.1169418E+00
         -5   -1    0    0    0  501 -0.00000000000E+00  0.00000000000E+00  0.13148760670E+04  0.13148844670E+04  0.47000000000E+01 0.  1.
          5   -1    0    0  501    0  0.00000000000E+00 -0.00000000000E+00 -0.14033462703E+03  0.14041330971E+03  0.47000000000E+01 0. -1.
          6    1    1    2  502    0  0.38729601216E+02  0.26866076940E+02 -0.74726361536E+02  0.19336441557E+03  0.17200000000E+03 0. -1.
         -6    1    1    2    0  502 -0.38729601216E+02 -0.26866076940E+02  0.12492678015E+04  0.12619333611E+04  0.17200000000E+03 0.  1.
</event>
<event>
 4    1 -0.6855026E-004  0.1769013E+03  0.7818608E-02  0.1170836E+00
          5   -1    0    0  501    0  0.00000000000E+00  0.00000000000E+00  0.44558459531E+02  0.44805650490E+02  0.47000000000E+01 0. -1.
         -5   -1    0    0    0  501 -0.00000000000E+00 -0.00000000000E+00 -0.10996241773E+04  0.10996342216E+04  0.47000000000E+01 0.  1.
          6    1    1    2  502    0 -0.38497054675E+02 -0.15100635580E+02 -0.18266563367E+03  0.25428485236E+03  0.17200000000E+03 0. -1.
         -6    1    1    2    0  502  0.38497054675E+02  0.15100635580E+02 -0.87240008413E+03  0.89015501976E+03  0.17200000000E+03 0.  1.
</event>
<event>
 4    1 -0.6855026E-004  0.2135021E+03  0.7818608E-02  0.1138822E+00
         -5   -1    0    0    0  501 -0.00000000000E+00  0.00000000000E+00  0.30740755575E+03  0.30744348315E+03  0.47000000000E+01 0.  1.
          5   -1    0    0  501    0  0.00000000000E+00 -0.00000000000E+00 -0.20926408811E+03  0.20931686165E+03  0.47000000000E+01 0. -1.
          6    1    1    2  502    0  0.14778739026E+02  0.12562135306E+03 -0.90468498205E+02  0.23187859893E+03  0.17200000000E+03 0. -1.
         -6    1    1    2    0  502 -0.14778739026E+02 -0.12562135306E+03  0.18861196585E+03  0.28488174588E+03  0.17200000000E+03 0.  1.
</event>
<event>
 4    1 -0.6855026E-004  0.1865533E+03  0.7818608E-02  0.1161607E+00
          5   -1    0    0  501    0  0.00000000000E+00  0.00000000000E+00  0.10342827883E+04  0.10342934671E+04  0.47000000000E+01 0. -1.
         -5   -1    0    0    0  501 -0.00000000000E+00 -0.00000000000E+00 -0.11491320510E+03  0.11500928095E+03  0.47000000000E+01 0.  1.
          6    1    1    2  502    0  0.62845352547E+02  0.35617404452E+02  0.94298463066E+03  0.96126070943E+03  0.17200000000E+03 0. -1.
         -6    1    1    2    0  502 -0.62845352547E+02 -0.35617404452E+02 -0.23615047461E+02  0.18804203866E+03  0.17200000000E+03 0.  1.
</event>
<event>
 4    1 -0.6855026E-004  0.1812400E+03  0.7818608E-02  0.1166608E+00
         -5   -1    0    0    0  501 -0.00000000000E+00  0.00000000000E+00  0.79698024372E+02  0.79836489707E+02  0.47000000000E+01 0.  1.
          5   -1    0    0  501    0  0.00000000000E+00 -0.00000000000E+00 -0.71703144003E+03  0.71704684365E+03  0.47000000000E+01 0. -1.
          6    1    1    2  502    0 -0.27335091072E+02  0.50166925287E+02 -0.57866591541E+03  0.60638450611E+03  0.17200000000E+03 0. -1.
         -6    1    1    2    0  502  0.27335091072E+02 -0.50166925287E+02 -0.58667500248E+02  0.19049882725E+03  0.17200000000E+03 0.  1.
</event>
<event>
 4    1 -0.6855026E-004  0.2389606E+03  0.7818608E-02  0.1120487E+00
         -5   -1    0    0    0  501 -0.00000000000E+00  0.00000000000E+00  0.34793849908E+03  0.34797024174E+03  0.47000000000E+01 0.  1.
          5   -1    0    0  501    0  0.00000000000E+00 -0.00000000000E+00 -0.26084114849E+03  0.26088348883E+03  0.47000000000E+01 0. -1.
          6    1    1    2  502    0  0.94965777783E+02 -0.13601353255E+03 -0.14187139699E+03  0.27790227288E+03  0.17200000000E+03 0. -1.
         -6    1    1    2    0  502 -0.94965777783E+02  0.13601353255E+03  0.22896874757E+03  0.33095145770E+03  0.17200000000E+03 0.  1.
</event>
<event>
 4    1 -0.6855026E-004  0.1909468E+03  0.7818608E-02  0.1157610E+00
         -5   -1    0    0    0  501 -0.00000000000E+00  0.00000000000E+00  0.47325936030E+02  0.47558744949E+02  0.47000000000E+01 0.  1.
          5   -1    0    0  501    0  0.00000000000E+00 -0.00000000000E+00 -0.99722221129E+03  0.99723328700E+03  0.47000000000E+01 0. -1.
          6    1    1    2  502    0 -0.80784052246E+02  0.18725078327E+02 -0.72521727009E+03  0.74993385075E+03  0.17200000000E+03 0. -1.
         -6    1    1    2    0  502  0.80784052246E+02 -0.18725078327E+02 -0.22467900517E+03  0.29485818120E+03  0.17200000000E+03 0.  1.
</event>
<event>
 4    1 -0.6855026E-004  0.2508887E+03  0.7818608E-02  0.1112744E+00
         -5   -1    0    0    0  501 -0.00000000000E+00  0.00000000000E+00  0.52833138860E+03  0.52835229362E+03  0.47000000000E+01 0.  1.
          5   -1    0    0  501    0  0.00000000000E+00 -0.00000000000E+00 -0.14190527067E+03  0.14198308295E+03  0.47000000000E+01 0. -1.
          6    1    1    2  502    0  0.83367213555E+02  0.16251474709E+03  0.58811356302E+02  0.25768956313E+03  0.17200000000E+03 0. -1.
         -6    1    1    2    0  502 -0.83367213555E+02 -0.16251474709E+03  0.32761476162E+03  0.41264581344E+03  0.17200000000E+03 0.  1.
</event>
<event>
 4    1 -0.6855026E-004  0.2191653E+03  0.7818608E-02  0.1134507E+00
          5   -1    0    0  501    0  0.00000000000E+00  0.00000000000E+00  0.11577574150E+04  0.11577669550E+04  0.47000000000E+01 0. -1.
         -5   -1    0    0    0  501 -0.00000000000E+00 -0.00000000000E+00 -0.23753927390E+03  0.23758576693E+03  0.47000000000E+01 0.  1.
          6    1    1    2  502    0 -0.13578691921E+03 -0.33666740919E+01  0.10939456446E+04  0.11156838688E+04  0.17200000000E+03 0. -1.
         -6    1    1    2    0  502  0.13578691921E+03  0.33666740919E+01 -0.17372750344E+03  0.27966885307E+03  0.17200000000E+03 0.  1.
</event>
<event>
 4    1 -0.6855026E-004  0.2539724E+03  0.7818608E-02  0.1110820E+00
         -5   -1    0    0    0  501 -0.00000000000E+00  0.00000000000E+00  0.21028394058E+03  0.21033645824E+03  0.47000000000E+01 0.  1.
          5   -1    0    0  501    0  0.00000000000E+00 -0.00000000000E+00 -0.30789900363E+03  0.30793487369E+03  0.47000000000E+01 0. -1.
          6    1    1    2  502    0 -0.16610800070E+03  0.85592776109E+02 -0.32165662095E+02  0.25600121296E+03  0.17200000000E+03 0.  1.
         -6    1    1    2    0  502  0.16610800070E+03 -0.85592776109E+02 -0.65449400952E+02  0.26227011897E+03  0.17200000000E+03 0. -1.
</event>
<event>
 4    1 -0.6855026E-004  0.2085102E+03  0.7818608E-02  0.1142751E+00
         -5   -1    0    0    0  501 -0.00000000000E+00  0.00000000000E+00  0.26967240337E+03  0.26971335736E+03  0.47000000000E+01 0.  1.
          5   -1    0    0  501    0  0.00000000000E+00 -0.00000000000E+00 -0.25119725855E+03  0.25124122413E+03  0.47000000000E+01 0. -1.
          6    1    1    2  502    0 -0.11166901013E+03  0.37716307116E+02 -0.14670210261E+03  0.25494704265E+03  0.17200000000E+03 0. -1.
         -6    1    1    2    0  502  0.11166901013E+03 -0.37716307116E+02  0.16517724743E+03  0.26600753883E+03  0.17200000000E+03 0.  1.
</event>
<event>
 4    1 -0.6855026E-004  0.2159726E+03  0.7818608E-02  0.1136922E+00
         -5   -1    0    0    0  501 -0.00000000000E+00  0.00000000000E+00  0.49950177556E+03  0.49952388710E+03  0.47000000000E+01 0.  1.
          5   -1    0    0  501    0  0.00000000000E+00 -0.00000000000E+00 -0.27810192992E+03  0.27814164274E+03  0.47000000000E+01 0. -1.
          6    1    1    2  502    0 -0.71798392566E+02 -0.10911076350E+03 -0.20621117218E+03  0.29860879997E+03  0.17200000000E+03 0. -1.
         -6    1    1    2    0  502  0.71798392566E+02  0.10911076350E+03  0.42761101781E+03  0.47905672988E+03  0.17200000000E+03 0.  1.
</event>
<event>
 4    1 -0.6855026E-004  0.1990846E+03  0.7818608E-02  0.1150514E+00
          5   -1    0    0  501    0  0.00000000000E+00  0.00000000000E+00  0.83761053253E+02  0.83892812815E+02  0.47000000000E+01 0. -1.
         -5   -1    0    0    0  501 -0.00000000000E+00 -0.00000000000E+00 -0.52476463441E+03  0.52478568152E+03  0.47000000000E+01 0.  1.
          6    1    1    2  502    0 -0.22956647101E+02  0.97589296736E+02 -0.12462804981E+03  0.23487619991E+03  0.17200000000E+03 0. -1.
         -6    1    1    2    0  502  0.22956647101E+02 -0.97589296736E+02 -0.31637553135E+03  0.37380229443E+03  0.17200000000E+03 0.  1.
</event>
<event>
 4    1 -0.6855026E-004  0.3083449E+03  0.7818608E-02  0.1081142E+00
         -5   -1    0    0    0  501 -0.00000000000E+00  0.00000000000E+00  0.19478449098E+03  0.19484118642E+03  0.47000000000E+01 0.  1.
          5   -1    0    0  501    0  0.00000000000E+00 -0.00000000000E+00 -0.11374029317E+04  0.11374126424E+04  0.47000000000E+01 0. -1.
          6    1    1    2  502    0  0.10223155630E+03  0.23460876678E+03 -0.97463851108E+03  0.10222508458E+04  0.17200000000E+03 0. -1.
         -6    1    1    2    0  502 -0.10223155630E+03 -0.23460876678E+03  0.32020070328E+02  0.31000298298E+03  0.17200000000E+03 0.  1.
</event>
<event>
 4    1 -0.6855026E-004  0.1887746E+03  0.7818608E-02  0.1159571E+00
         -5   -1    0    0    0  501 -0.00000000000E+00  0.00000000000E+00  0.25142587886E+03  0.25146980447E+03  0.47000000000E+01 0.  1.
          5   -1    0    0  501    0  0.00000000000E+00 -0.00000000000E+00 -0.14054239395E+04  0.14054317983E+04  0.47000000000E+01 0. -1.
          6    1    1    2  502    0 -0.35645961971E+02  0.69146260823E+02 -0.13625712234E+04  0.13755857585E+04  0.17200000000E+03 0. -1.
         -6    1    1    2    0  502  0.35645961971E+02 -0.69146260823E+02  0.20857316283E+03  0.28131584428E+03  0.17200000000E+03 0.  1.
</event>
<event>
 4    1 -0.6855026E-004  0.1818157E+03  0.7818608E-02  0.1166057E+00
         -5   -1    0    0    0  501 -0.00000000000E+00  0.00000000000E+00  0.19059290892E+04  0.19059348842E+04  0.47000000000E+01 0.  1.
          5   -1    0    0  501    0  0.00000000000E+00 -0.00000000000E+00 -0.20025447221E+02  0.20569602242E+02  0.47000000000E+01 0. -1.
          6    1    1    2  502    0  0.10943548459E+02  0.57906809226E+02  0.57521749352E+03  0.60326787140E+03  0.17200000000E+03 0. -1.
         -6    1    1    2    0  502 -0.10943548459E+02 -0.57906809226E+02  0.13106861484E+04  0.13232366151E+04  0.17200000000E+03 0.  1.
</event>
<event>
 4    1 -0.6855026E-004  0.1761533E+03  0.7818608E-02  0.1171579E+00
         -5   -1    0    0    0  501 -0.00000000000E+00  0.00000000000E+00  0.51573573217E+03  0.51575714773E+03  0.47000000000E+01 0.  1.
          5   -1    0    0  501    0  0.00000000000E+00 -0.00000000000E+00 -0.15686869663E+03  0.15693909004E+03  0.47000000000E+01 0. -1.
          6    1    1    2  502    0  0.19492230279E+02  0.32650407296E+02 -0.84680009427E+02  0.19544999395E+03  0.17200000000E+03 0. -1.
         -6    1    1    2    0  502 -0.19492230279E+02 -0.32650407296E+02  0.44354704497E+03  0.47724624382E+03  0.17200000000E+03 0.  1.
</event>
<event>
 4    1 -0.6855026E-004  0.1737866E+03  0.7818608E-02  0.1173956E+00
          5   -1    0    0  501    0  0.00000000000E+00  0.00000000000E+00  0.97605990064E+03  0.97607121648E+03  0.47000000000E+01 0. -1.
         -5   -1    0    0    0  501 -0.00000000000E+00 -0.00000000000E+00 -0.89049890687E+02  0.89173836025E+02  0.47000000000E+01 0.  1.
          6    1    1    2  502    0  0.18120199656E+02 -0.17013409327E+02  0.87384728119E+03  0.89096064367E+03  0.17200000000E+03 0. -1.
         -6    1    1    2    0  502 -0.18120199656E+02  0.17013409327E+02  0.13162728762E+02  0.17428440883E+03  0.17200000000E+03 0.  1.
</event>
<event>
 4    1 -0.6855026E-004  0.1769235E+03  0.7818608E-02  0.1170814E+00
          5   -1    0    0  501    0  0.00000000000E+00  0.00000000000E+00  0.13669966997E+03  0.13678044367E+03  0.47000000000E+01 0. -1.
         -5   -1    0    0    0  501 -0.00000000000E+00 -0.00000000000E+00 -0.90618225759E+03  0.90619444600E+03  0.47000000000E+01 0.  1.
          6    1    1    2  502    0 -0.39436262099E+02 -0.12755842466E+02  0.66099251952E+02  0.18886778813E+03  0.17200000000E+03 0. -1.
         -6    1    1    2    0  502  0.39436262099E+02  0.12755842466E+02 -0.83558183957E+03  0.85410710154E+03  0.17200000000E+03 0.  1.
</event>
<event>
 4    1 -0.6855026E-004  0.1723870E+03  0.7818608E-02  0.1175381E+00
          5   -1    0    0  501    0  0.00000000000E+00  0.00000000000E+00  0.14091952827E+03  0.14099788455E+03  0.47000000000E+01 0. -1.
         -5   -1    0    0    0  501 -0.00000000000E+00 -0.00000000000E+00 -0.23993223819E+03  0.23997826761E+03  0.47000000000E+01 0.  1.
          6    1    1    2  502    0 -0.25363889703E+01  0.11261825068E+02  0.16945344535E+02  0.17321780126E+03  0.17200000000E+03 0. -1.
         -6    1    1    2    0  502  0.25363889703E+01 -0.11261825068E+02 -0.11595805446E+03  0.20775835089E+03  0.17200000000E+03 0.  1.
</event>
<event>
 4    1 -0.6855026E-004  0.1792846E+03  0.7818608E-02  0.1168497E+00
         -5   -1    0    0    0  501 -0.00000000000E+00  0.00000000000E+00  0.88442125623E+02  0.88566921504E+02  0.47000000000E+01 0.  1.
          5   -1    0    0  501    0  0.00000000000E+00 -0.00000000000E+00 -0.11808112392E+04  0.11808205930E+04  0.47000000000E+01 0. -1.
          6    1    1    2  502    0  0.46933773882E+02 -0.18873347305E+02 -0.10743422035E+04  0.10891988582E+04  0.17200000000E+03 0. -1.
         -6    1    1    2    0  502 -0.46933773882E+02  0.18873347305E+02 -0.18026910115E+02  0.18018865630E+03  0.17200000000E+03 0.  1.
</event>
<event>
 4    1 -0.6855026E-004  0.2277143E+03  0.7818608E-02  0.1128259E+00
          5   -1    0    0  501    0  0.00000000000E+00  0.00000000000E+00  0.35375547033E+03  0.35378669109E+03  0.47000000000E+01 0. -1.
         -5   -1    0    0    0  501 -0.00000000000E+00 -0.00000000000E+00 -0.69474748126E+03  0.69476337894E+03  0.47000000000E+01 0.  1.
          6    1    1    2  502    0 -0.14326992735E+03 -0.41755612760E+02  0.29520566063E+03  0.37282728621E+03  0.17200000000E+03 0. -1.
         -6    1    1    2    0  502  0.14326992735E+03  0.41755612760E+02 -0.63619767155E+03  0.67572278382E+03  0.17200000000E+03 0.  1.
</event>
<event>
 4    1 -0.6855026E-004  0.1790628E+03  0.7818608E-02  0.1168713E+00
         -5   -1    0    0    0  501 -0.00000000000E+00  0.00000000000E+00  0.36665331522E+02  0.36965342358E+02  0.47000000000E+01 0.  1.
          5   -1    0    0  501    0  0.00000000000E+00 -0.00000000000E+00 -0.14713546247E+04  0.14713621314E+04  0.47000000000E+01 0. -1.
          6    1    1    2  502    0  0.29288750401E+02  0.40269800500E+02 -0.11991838607E+04  0.12124790388E+04  0.17200000000E+03 0. -1.
         -6    1    1    2    0  502 -0.29288750401E+02 -0.40269800500E+02 -0.23550543250E+03  0.29584843496E+03  0.17200000000E+03 0.  1.
</event>
<event>
 4    1 -0.6855026E-004  0.3636119E+03  0.7818608E-02  0.1057163E+00
          5   -1    0    0  501    0  0.00000000000E+00  0.00000000000E+00  0.21201230638E+03  0.21206439601E+03  0.47000000000E+01 0. -1.
         -5   -1    0    0    0  501 -0.00000000000E+00 -0.00000000000E+00 -0.82847179741E+03  0.82848512908E+03  0.47000000000E+01 0.  1.
          6    1    1    2  502    0 -0.29535523257E+03  0.12407616784E+03 -0.49438643634E+02  0.36695747480E+03  0.17200000000E+03 0. -1.
         -6    1    1    2    0  502  0.29535523257E+03 -0.12407616784E+03 -0.56702084739E+03  0.67359205029E+03  0.17200000000E+03 0.  1.
</event>
<event>
 4    1 -0.6855026E-004  0.2573819E+03  0.7818608E-02  0.1108726E+00
         -5   -1    0    0    0  501 -0.00000000000E+00  0.00000000000E+00  0.89754896929E+03  0.89756127495E+03  0.47000000000E+01 0.  1.
          5   -1    0    0  501    0  0.00000000000E+00 -0.00000000000E+00 -0.77558203335E+02  0.77700482010E+02  0.47000000000E+01 0. -1.
          6    1    1    2  502    0 -0.10577441468E+03  0.15960335730E+03  0.30161981667E+03  0.39650973792E+03  0.17200000000E+03 0. -1.
         -6    1    1    2    0  502  0.10577441468E+03 -0.15960335730E+03  0.51837094929E+03  0.57875201903E+03  0.17200000000E+03 0.  1.
</event>
<event>
 4    1 -0.6855026E-004  0.2504229E+03  0.7818608E-02  0.1113038E+00
         -5   -1    0    0    0  501 -0.00000000000E+00  0.00000000000E+00  0.52002165878E+02  0.52214128892E+02  0.47000000000E+01 0.  1.
          5   -1    0    0  501    0  0.00000000000E+00 -0.00000000000E+00 -0.13312178540E+04  0.13312261509E+04  0.47000000000E+01 0. -1.
          6    1    1    2  502    0 -0.17676214991E+03 -0.43390666182E+02 -0.85403579337E+03  0.88999367633E+03  0.17200000000E+03 0. -1.
         -6    1    1    2    0  502  0.17676214991E+03  0.43390666182E+02 -0.42517989475E+03  0.49344660345E+03  0.17200000000E+03 0.  1.
</event>
<event>
 4    1 -0.6855026E-004  0.1872047E+03  0.7818608E-02  0.1161007E+00
         -5   -1    0    0    0  501 -0.00000000000E+00  0.00000000000E+00  0.11778094586E+03  0.11787468434E+03  0.47000000000E+01 0.  1.
          5   -1    0    0  501    0  0.00000000000E+00 -0.00000000000E+00 -0.46359929976E+03  0.46362312360E+03  0.47000000000E+01 0. -1.
          6    1    1    2  502    0 -0.60248575993E+02 -0.42798647366E+02 -0.34701354257E+03  0.39428925150E+03  0.17200000000E+03 0. -1.
         -6    1    1    2    0  502  0.60248575993E+02  0.42798647366E+02  0.11951886708E+01  0.18720855643E+03  0.17200000000E+03 0.  1.
</event>
<event>
 4    1 -0.6855026E-004  0.1742993E+03  0.7818608E-02  0.1173437E+00
         -5   -1    0    0    0  501 -0.00000000000E+00  0.00000000000E+00  0.18498562545E+03  0.18504532316E+03  0.47000000000E+01 0.  1.
          5   -1    0    0  501    0  0.00000000000E+00 -0.00000000000E+00 -0.27183074718E+03  0.27187137604E+03  0.47000000000E+01 0. -1.
          6    1    1    2  502    0  0.22309725122E+02  0.17277657865E+02 -0.18720828014E+03  0.25578737547E+03  0.17200000000E+03 0. -1.
         -6    1    1    2    0  502 -0.22309725122E+02 -0.17277657865E+02  0.10036315842E+03  0.20112932373E+03  0.17200000000E+03 0.  1.
</event>
<event>
 4    1 -0.6855026E-004  0.1767785E+03  0.7818608E-02  0.1170958E+00
         -5   -1    0    0    0  501 -0.00000000000E+00  0.00000000000E+00  0.64496951716E+03  0.64498664177E+03  0.47000000000E+01 0.  1.
          5   -1    0    0  501    0  0.00000000000E+00 -0.00000000000E+00 -0.61141379934E+02  0.61321760740E+02  0.47000000000E+01 0. -1.
          6    1    1    2  502    0  0.39141965048E+02  0.11599840297E+02  0.13049294660E+03  0.21972496179E+03  0.17200000000E+03 0. -1.
         -6    1    1    2    0  502 -0.39141965048E+02 -0.11599840297E+02  0.45333519063E+03  0.48658344072E+03  0.17200000000E+03 0.  1.
</event>
<event>
 4    1 -0.6855026E-004  0.2305118E+03  0.7818608E-02  0.1126280E+00
          5   -1    0    0  501    0  0.00000000000E+00  0.00000000000E+00  0.23854036193E+04  0.23854082496E+04  0.47000000000E+01 0. -1.
         -5   -1    0    0    0  501 -0.00000000000E+00 -0.00000000000E+00 -0.10206688954E+03  0.10217504558E+03  0.47000000000E+01 0.  1.
          6    1    1    2  502    0 -0.15343220500E+03 -0.32046346348E+01  0.22414805093E+04  0.22533021512E+04  0.17200000000E+03 0. -1.
         -6    1    1    2    0  502  0.15343220500E+03  0.32046346348E+01  0.41856220534E+02  0.23428114395E+03  0.17200000000E+03 0.  1.
</event>
<event>
 4    1 -0.6855026E-004  0.2105921E+03  0.7818608E-02  0.1141098E+00
         -5   -1    0    0    0  501 -0.00000000000E+00  0.00000000000E+00  0.99701757326E+03  0.99702865124E+03  0.47000000000E+01 0.  1.
          5   -1    0    0  501    0  0.00000000000E+00 -0.00000000000E+00 -0.47267964462E+02  0.47501057508E+02  0.47000000000E+01 0. -1.
          6    1    1    2  502    0 -0.11068663981E+03 -0.50134782099E+02  0.34537253030E+03  0.40451355144E+03  0.17200000000E+03 0.  1.
         -6    1    1    2    0  502  0.11068663981E+03  0.50134782099E+02  0.60437707849E+03  0.64001615731E+03  0.17200000000E+03 0.  1.
</event>
<event>
 4    1 -0.6855026E-004  0.1947489E+03  0.7818608E-02  0.1154247E+00
          5   -1    0    0  501    0  0.00000000000E+00  0.00000000000E+00  0.66578919336E+02  0.66744606524E+02  0.47000000000E+01 0. -1.
         -5   -1    0    0    0  501 -0.00000000000E+00 -0.00000000000E+00 -0.60431335664E+03  0.60433163330E+03  0.47000000000E+01 0.  1.
          6    1    1    2  502    0  0.56427867307E+02 -0.71826409748E+02 -0.18750883903E+03  0.27034552347E+03  0.17200000000E+03 0. -1.
         -6    1    1    2    0  502 -0.56427867307E+02  0.71826409748E+02 -0.35022559827E+03  0.40073071636E+03  0.17200000000E+03 0.  1.
</event>
<event>
 4    1 -0.6855026E-004  0.2098220E+03  0.7818608E-02  0.1141707E+00
          5   -1    0    0  501    0  0.00000000000E+00  0.00000000000E+00  0.20370791769E+03  0.20376213026E+03  0.47000000000E+01 0. -1.
         -5   -1    0    0    0  501 -0.00000000000E+00 -0.00000000000E+00 -0.22727689842E+03  0.22732549034E+03  0.47000000000E+01 0.  1.
          6    1    1    2  502    0  0.11864292803E+03 -0.19108074476E+02  0.36193397927E+02  0.21292070105E+03  0.17200000000E+03 0. -1.
         -6    1    1    2    0  502 -0.11864292803E+03  0.19108074476E+02 -0.59762378659E+02  0.21816691955E+03  0.17200000000E+03 0. -1.
</event>
<event>
 4    1 -0.6855026E-004  0.1865959E+03  0.7818608E-02  0.1161568E+00
          5   -1    0    0  501    0  0.00000000000E+00  0.00000000000E+00  0.17543706305E+03  0.17550000881E+03  0.47000000000E+01 0. -1.
         -5   -1    0    0    0  501 -0.00000000000E+00 -0.00000000000E+00 -0.42099300881E+03  0.42101924358E+03  0.47000000000E+01 0.  1.
          6    1    1    2  502    0  0.72033061079E+02  0.67294543403E+01  0.94102003969E+02  0.20898142165E+03  0.17200000000E+03 0. -1.
         -6    1    1    2    0  502 -0.72033061079E+02 -0.67294543403E+01 -0.33965794973E+03  0.38753783074E+03  0.17200000000E+03 0.  1.
</event>
<event>
 4    1 -0.6855026E-004  0.2392510E+03  0.7818608E-02  0.1120293E+00
          5   -1    0    0  501    0  0.00000000000E+00  0.00000000000E+00  0.12407663212E+03  0.12416561778E+03  0.47000000000E+01 0. -1.
         -5   -1    0    0    0  501 -0.00000000000E+00 -0.00000000000E+00 -0.15727995915E+04  0.15728066140E+04  0.47000000000E+01 0.  1.
          6    1    1    2  502    0 -0.16582112648E+03 -0.12664579472E+02 -0.11026963517E+02  0.23950497173E+03  0.17200000000E+03 0. -1.
         -6    1    1    2    0  502  0.16582112648E+03  0.12664579472E+02 -0.14376959959E+04  0.14574672600E+04  0.17200000000E+03 0.  1.
</event>
<event>
 4    1 -0.6855026E-004  0.1841045E+03  0.7818608E-02  0.1163889E+00
          5   -1    0    0  501    0  0.00000000000E+00  0.00000000000E+00  0.36686547384E+03  0.36689557901E+03  0.47000000000E+01 0. -1.
         -5   -1    0    0    0  501 -0.00000000000E+00 -0.00000000000E+00 -0.13585122637E+03  0.13593250423E+03  0.47000000000E+01 0.  1.
          6    1    1    2  502    0 -0.35752616348E+02  0.55065606187E+02  0.25779598690E+03  0.31678579738E+03  0.17200000000E+03 0. -1.
         -6    1    1    2    0  502  0.35752616348E+02 -0.55065606187E+02 -0.26781739424E+02  0.18604228586E+03  0.17200000000E+03 0.  1.
</event>
<event>
 4    1 -0.6855026E-004  0.2817442E+03  0.7818608E-02  0.1094740E+00
          5   -1    0    0  501    0  0.00000000000E+00  0.00000000000E+00  0.48112030905E+03  0.48114326534E+03  0.47000000000E+01 0. -1.
         -5   -1    0    0    0  501 -0.00000000000E+00 -0.00000000000E+00 -0.36221271356E+03  0.36224320541E+03  0.47000000000E+01 0.  1.
          6    1    1    2  502    0  0.17038414035E+03 -0.14410073036E+03  0.37063786142E+03  0.46556653670E+03  0.17200000000E+03 0. -1.
         -6    1    1    2    0  502 -0.17038414035E+03  0.14410073036E+03 -0.25173026594E+03  0.37781993405E+03  0.17200000000E+03 0.  1.
</event>
<event>
 4    1 -0.6855026E-004  0.1809509E+03  0.7818608E-02  0.1166886E+00
          5   -1    0    0  501    0  0.00000000000E+00  0.00000000000E+00  0.16836267100E+03  0.16842826065E+03  0.47000000000E+01 0. -1.
         -5   -1    0    0    0  501 -0.00000000000E+00 -0.00000000000E+00 -0.27338901841E+03  0.27342941573E+03  0.47000000000E+01 0.  1.
          6    1    1    2  502    0 -0.54308553317E+02  0.14484276228E+02  0.66254006264E+02  0.19269874563E+03  0.17200000000E+03 0. -1.
         -6    1    1    2    0  502  0.54308553317E+02 -0.14484276228E+02 -0.17128035368E+03  0.24915893076E+03  0.17200000000E+03 0.  1.
</event>
<event>
 4    1 -0.6855026E-004  0.1886295E+03  0.7818608E-02  0.1159703E+00
          5   -1    0    0  501    0  0.00000000000E+00  0.00000000000E+00  0.19392214273E+03  0.19397909021E+03  0.47000000000E+01 0. -1.
         -5   -1    0    0    0  501 -0.00000000000E+00 -0.00000000000E+00 -0.76679945767E+03  0.76681386156E+03  0.47000000000E+01 0.  1.
          6    1    1    2  502    0 -0.72917911685E+02  0.26078441538E+02  0.13257421328E+03  0.23055808159E+03  0.17200000000E+03 0. -1.
         -6    1    1    2    0  502  0.72917911685E+02 -0.26078441538E+02 -0.70545152823E+03  0.73023487018E+03  0.17200000000E+03 0.  1.
</event>
<event>
 4    1 -0.6855026E-004  0.1761786E+03  0.7818608E-02  0.1171554E+00
         -5   -1    0    0    0  501 -0.00000000000E+00  0.00000000000E+00  0.20016896220E+04  0.20016951399E+04  0.47000000000E+01 0.  1.
          5   -1    0    0  501    0  0.00000000000E+00 -0.00000000000E+00 -0.40279872444E+02  0.40553151840E+02  0.47000000000E+01 0. -1.
          6    1    1    2  502    0  0.38074945096E+02 -0.22795118597E+01  0.17901563495E+03  0.25116826068E+03  0.17200000000E+03 0. -1.
         -6    1    1    2    0  502 -0.38074945096E+02  0.22795118597E+01  0.17823941146E+04  0.17910800310E+04  0.17200000000E+03 0.  1.
</event>
<event>
 4    1 -0.6855026E-004  0.2048250E+03  0.7818608E-02  0.1145731E+00
         -5   -1    0    0    0  501 -0.00000000000E+00  0.00000000000E+00  0.97576973140E+02  0.97690100252E+02  0.47000000000E+01 0.  1.
          5   -1    0    0  501    0  0.00000000000E+00 -0.00000000000E+00 -0.49398306228E+03  0.49400542084E+03  0.47000000000E+01 0. -1.
          6    1    1    2  502    0 -0.97309285794E+02  0.53853238108E+02 -0.30501519660E+03  0.36740650309E+03  0.17200000000E+03 0. -1.
         -6    1    1    2    0  502  0.97309285794E+02 -0.53853238108E+02 -0.91390892538E+02  0.22428901800E+03  0.17200000000E+03 0.  1.
</event>
<event>
 4    1 -0.6855026E-004  0.1720882E+03  0.7818608E-02  0.1175688E+00
          5   -1    0    0  501    0  0.00000000000E+00  0.00000000000E+00  0.15376361197E+03  0.15383542624E+03  0.47000000000E+01 0. -1.
         -5   -1    0    0    0  501 -0.00000000000E+00 -0.00000000000E+00 -0.34287905941E+03  0.34291127042E+03  0.47000000000E+01 0.  1.
          6    1    1    2  502    0 -0.21368944711E+01  0.50775076821E+01  0.69926756078E+02  0.18575278899E+03  0.17200000000E+03 0. -1.
         -6    1    1    2    0  502  0.21368944711E+01 -0.50775076821E+01 -0.25904220352E+03  0.31099390767E+03  0.17200000000E+03 0.  1.
</event>
<event>
 4    1 -0.6855026E-004  0.2378367E+03  0.7818608E-02  0.1121242E+00
         -5   -1    0    0    0  501 -0.00000000000E+00  0.00000000000E+00  0.13739905596E+03  0.13747941874E+03  0.47000000000E+01 0.  1.
          5   -1    0    0  501    0  0.00000000000E+00 -0.00000000000E+00 -0.13129575646E+04  0.13129659769E+04  0.47000000000E+01 0. -1.
          6    1    1    2  502    0  0.11558954981E+03  0.11671064497E+03 -0.11886864691E+04  0.12122466088E+04  0.17200000000E+03 0. -1.
         -6    1    1    2    0  502 -0.11558954981E+03 -0.11671064497E+03  0.13127960525E+02  0.23819878678E+03  0.17200000000E+03 0.  1.
</event>
<event>
 4    1 -0.6855026E-004  0.1836008E+03  0.7818608E-02  0.1164363E+00
          5   -1    0    0  501    0  0.00000000000E+00  0.00000000000E+00  0.72215333387E+03  0.72216862825E+03  0.47000000000E+01 0. -1.
         -5   -1    0    0    0  501 -0.00000000000E+00 -0.00000000000E+00 -0.35760287982E+03  0.35763376470E+03  0.47000000000E+01 0.  1.
          6    1    1    2  502    0 -0.60869727393E+02 -0.20497373129E+02  0.68571102925E+03  0.70986539686E+03  0.17200000000E+03 0. -1.
         -6    1    1    2    0  502  0.60869727393E+02  0.20497373129E+02 -0.32116057520E+03  0.36993699609E+03  0.17200000000E+03 0.  1.
</event>
<event>
 4    1 -0.6855026E-004  0.1800623E+03  0.7818608E-02  0.1167743E+00
          5   -1    0    0  501    0  0.00000000000E+00  0.00000000000E+00  0.86929221922E+02  0.87056186592E+02  0.47000000000E+01 0. -1.
         -5   -1    0    0    0  501 -0.00000000000E+00 -0.00000000000E+00 -0.96955402606E+03  0.96956541782E+03  0.47000000000E+01 0.  1.
          6    1    1    2  502    0 -0.52119162978E+02 -0.11046828441E+02 -0.26783309098E+02  0.18204336081E+03  0.17200000000E+03 0. -1.
         -6    1    1    2    0  502  0.52119162978E+02  0.11046828441E+02 -0.85584149503E+03  0.87457824361E+03  0.17200000000E+03 0.  1.
</event>
<event>
 4    1 -0.6855026E-004  0.1785826E+03  0.7818608E-02  0.1169182E+00
         -5   -1    0    0    0  501 -0.00000000000E+00  0.00000000000E+00  0.10345591126E+04  0.10345697886E+04  0.47000000000E+01 0.  1.
          5   -1    0    0  501    0  0.00000000000E+00 -0.00000000000E+00 -0.35734257593E+03  0.35737348331E+03  0.47000000000E+01 0. -1.
          6    1    1    2  502    0 -0.45122728511E+02  0.16482737311E+02 -0.32666965010E+03  0.37229665800E+03  0.17200000000E+03 0. -1.
         -6    1    1    2    0  502  0.45122728511E+02 -0.16482737311E+02  0.10038861868E+04  0.10196466139E+04  0.17200000000E+03 0.  1.
</event>
<event>
 4    1 -0.6855026E-004  0.2162650E+03  0.7818608E-02  0.1136699E+00
          5   -1    0    0  501    0  0.00000000000E+00  0.00000000000E+00  0.10595160507E+04  0.10595264753E+04  0.47000000000E+01 0. -1.
         -5   -1    0    0    0  501 -0.00000000000E+00 -0.00000000000E+00 -0.56469993827E+03  0.56471949700E+03  0.47000000000E+01 0.  1.
          6    1    1    2  502    0 -0.99644374356E+02  0.85191248098E+02  0.10271442085E+04  0.10496646012E+04  0.17200000000E+03 0. -1.
         -6    1    1    2    0  502  0.99644374356E+02 -0.85191248098E+02 -0.53232809602E+03  0.57458137100E+03  0.17200000000E+03 0.  1.
</event>
<event>
 4    1 -0.6855026E-004  0.1796435E+03  0.7818608E-02  0.1168149E+00
         -5   -1    0    0    0  501 -0.00000000000E+00  0.00000000000E+00  0.15144586628E+04  0.15144659558E+04  0.47000000000E+01 0.  1.
          5   -1    0    0  501    0  0.00000000000E+00 -0.00000000000E+00 -0.72397290791E+02  0.72549691342E+02  0.47000000000E+01 0. -1.
          6    1    1    2  502    0 -0.48965702940E+02 -0.17033326382E+02  0.54293343570E+02  0.18766870125E+03  0.17200000000E+03 0. -1.
         -6    1    1    2    0  502  0.48965702940E+02  0.17033326382E+02  0.13877680284E+04  0.13993469459E+04  0.17200000000E+03 0.  1.
</event>
<event>
 4    1 -0.6855026E-004  0.1857955E+03  0.7818608E-02  0.1162309E+00
         -5   -1    0    0    0  501 -0.00000000000E+00  0.00000000000E+00  0.26757019893E+02  0.27166672847E+02  0.47000000000E+01 0.  1.
          5   -1    0    0  501    0  0.00000000000E+00 -0.00000000000E+00 -0.13743356575E+04  0.13743436941E+04  0.47000000000E+01 0. -1.
          6    1    1    2  502    0  0.37990576598E+02 -0.59098785147E+02 -0.49013780978E+03  0.52417079554E+03  0.17200000000E+03 0. -1.
         -6    1    1    2    0  502 -0.37990576598E+02  0.59098785147E+02 -0.85744082781E+03  0.87733957138E+03  0.17200000000E+03 0. -1.
</event>
<event>
 4    1 -0.6855026E-004  0.3303338E+03  0.7818608E-02  0.1070989E+00
         -5   -1    0    0    0  501 -0.00000000000E+00  0.00000000000E+00  0.22713329373E+03  0.22718191635E+03  0.47000000000E+01 0.  1.
          5   -1    0    0  501    0  0.00000000000E+00 -0.00000000000E+00 -0.13926467565E+04  0.13926546874E+04  0.47000000000E+01 0. -1.
          6    1    1    2  502    0 -0.28143913478E+03 -0.18122479314E+02 -0.12382792317E+04  0.12815833436E+04  0.17200000000E+03 0. -1.
         -6    1    1    2    0  502  0.28143913478E+03  0.18122479314E+02  0.72765769016E+02  0.33825326012E+03  0.17200000000E+03 0.  1.
</event>
<event>
 4    1 -0.6855026E-004  0.2013350E+03  0.7818608E-02  0.1148618E+00
         -5   -1    0    0    0  501 -0.00000000000E+00  0.00000000000E+00  0.26717358604E+03  0.26721492301E+03  0.47000000000E+01 0.  1.
          5   -1    0    0  501    0  0.00000000000E+00 -0.00000000000E+00 -0.19841617730E+03  0.19847183531E+03  0.47000000000E+01 0. -1.
          6    1    1    2  502    0 -0.73253244743E+02 -0.74737784905E+02 -0.78656257674E+02  0.21615406827E+03  0.17200000000E+03 0. -1.
         -6    1    1    2    0  502  0.73253244743E+02  0.74737784905E+02  0.14741366642E+03  0.24953269005E+03  0.17200000000E+03 0.  1.
</event>
<event>
 4    1 -0.6855026E-004  0.1921773E+03  0.7818608E-02  0.1156512E+00
          5   -1    0    0  501    0  0.00000000000E+00  0.00000000000E+00  0.49502699032E+03  0.49504930173E+03  0.47000000000E+01 0. -1.
         -5   -1    0    0    0  501 -0.00000000000E+00 -0.00000000000E+00 -0.10379686924E+03  0.10390322451E+03  0.47000000000E+01 0.  1.
          6    1    1    2  502    0 -0.56232312508E+02  0.64699538640E+02  0.35458222929E+03  0.40331211313E+03  0.17200000000E+03 0. -1.
         -6    1    1    2    0  502  0.56232312508E+02 -0.64699538640E+02  0.36647891793E+02  0.19564041311E+03  0.17200000000E+03 0.  1.
</event>
<event>
 4    1 -0.6855026E-004  0.1931126E+03  0.7818608E-02  0.1155684E+00
          5   -1    0    0  501    0  0.00000000000E+00  0.00000000000E+00  0.76632954589E+03  0.76634395862E+03  0.47000000000E+01 0. -1.
         -5   -1    0    0    0  501 -0.00000000000E+00 -0.00000000000E+00 -0.14346961107E+03  0.14354657537E+03  0.47000000000E+01 0.  1.
          6    1    1    2  502    0  0.29020709981E+02 -0.82862937947E+02  0.68129128383E+03  0.70813154252E+03  0.17200000000E+03 0. -1.
         -6    1    1    2    0  502 -0.29020709981E+02  0.82862937947E+02 -0.58431349008E+02  0.20175899147E+03  0.17200000000E+03 0.  1.
</event>
<event>
 4    1 -0.6855026E-004  0.1722792E+03  0.7818608E-02  0.1175492E+00
         -5   -1    0    0    0  501 -0.00000000000E+00  0.00000000000E+00  0.17613152288E+03  0.17619422054E+03  0.47000000000E+01 0.  1.
          5   -1    0    0  501    0  0.00000000000E+00 -0.00000000000E+00 -0.76475142743E+03  0.76476586990E+03  0.47000000000E+01 0. -1.
          6    1    1    2  502    0  0.92662179010E+01 -0.32053956207E+01 -0.70974986719E+03  0.73035950828E+03  0.17200000000E+03 0. -1.
         -6    1    1    2    0  502 -0.92662179010E+01  0.32053956207E+01  0.12112996264E+03  0.21060058216E+03  0.17200000000E+03 0.  1.
</event>
<event>
 4    1 -0.6855026E-004  0.2469519E+03  0.7818608E-02  0.1115246E+00
         -5   -1    0    0    0  501 -0.00000000000E+00  0.00000000000E+00  0.12699423272E+03  0.12708117541E+03  0.47000000000E+01 0.  1.
          5   -1    0    0  501    0  0.00000000000E+00 -0.00000000000E+00 -0.70734147811E+03  0.70735709275E+03  0.47000000000E+01 0. -1.
          6    1    1    2  502    0 -0.24730603483E+02 -0.17546976178E+03 -0.53637916176E+02  0.25270984567E+03  0.17200000000E+03 0.  1.
         -6    1    1    2    0  502  0.24730603483E+02  0.17546976178E+03 -0.52670932922E+03  0.58172842249E+03  0.17200000000E+03 0. -1.
</event>
<event>
 4    1 -0.6855026E-004  0.1790138E+03  0.7818608E-02  0.1168761E+00
         -5   -1    0    0    0  501 -0.00000000000E+00  0.00000000000E+00  0.77542367172E+02  0.77684674851E+02  0.47000000000E+01 0.  1.
          5   -1    0    0  501    0  0.00000000000E+00 -0.00000000000E+00 -0.96436810784E+03  0.96437956087E+03  0.47000000000E+01 0. -1.
          6    1    1    2  502    0 -0.25864018838E+01 -0.49550333853E+02 -0.83744512004E+03  0.85636455679E+03  0.17200000000E+03 0. -1.
         -6    1    1    2    0  502  0.25864018838E+01  0.49550333853E+02 -0.49380620635E+02  0.18569967893E+03  0.17200000000E+03 0.  1.
</event>
<event>
 4    1 -0.6855026E-004  0.1942185E+03  0.7818608E-02  0.1154711E+00
         -5   -1    0    0    0  501 -0.00000000000E+00  0.00000000000E+00  0.34434968564E+03  0.34438175910E+03  0.47000000000E+01 0.  1.
          5   -1    0    0  501    0  0.00000000000E+00 -0.00000000000E+00 -0.32177846184E+03  0.32181278487E+03  0.47000000000E+01 0. -1.
          6    1    1    2  502    0 -0.79965183005E+02 -0.41742180071E+02 -0.25925015764E+03  0.32393129568E+03  0.17200000000E+03 0. -1.
         -6    1    1    2    0  502  0.79965183005E+02  0.41742180071E+02  0.28182138144E+03  0.34226324828E+03  0.17200000000E+03 0.  1.
</event>
<event>
 4    1 -0.6855026E-004  0.2834457E+03  0.7818608E-02  0.1093822E+00
         -5   -1    0    0    0  501 -0.00000000000E+00  0.00000000000E+00  0.20822885238E+03  0.20828188823E+03  0.47000000000E+01 0.  1.
          5   -1    0    0  501    0  0.00000000000E+00 -0.00000000000E+00 -0.46214041917E+03  0.46216431822E+03  0.47000000000E+01 0. -1.
          6    1    1    2  502    0 -0.10805181878E+03  0.19769232004E+03 -0.26326520195E+03  0.38684624271E+03  0.17200000000E+03 0. -1.
         -6    1    1    2    0  502  0.10805181878E+03 -0.19769232004E+03  0.93536351608E+01  0.28359996374E+03  0.17200000000E+03 0.  1.
</event>
<event>
 4    1 -0.6855026E-004  0.1999267E+03  0.7818608E-02  0.1149801E+00
         -5   -1    0    0    0  501 -0.00000000000E+00  0.00000000000E+00  0.23749801093E+03  0.23754451203E+03  0.47000000000E+01 0.  1.
          5   -1    0    0  501    0  0.00000000000E+00 -0.00000000000E+00 -0.33492378747E+03  0.33495676350E+03  0.47000000000E+01 0. -1.
          6    1    1    2  502    0  0.84490482983E+02  0.56991780478E+02 -0.25064520196E+03  0.32061460045E+03  0.17200000000E+03 0. -1.
         -6    1    1    2    0  502 -0.84490482983E+02 -0.56991780478E+02  0.15321942542E+03  0.25188667508E+03  0.17200000000E+03 0.  1.
</event>
<event>
 4    1 -0.6855026E-004  0.1735029E+03  0.7818608E-02  0.1174243E+00
         -5   -1    0    0    0  501 -0.00000000000E+00  0.00000000000E+00  0.29869567717E+03  0.29873265232E+03  0.47000000000E+01 0.  1.
          5   -1    0    0  501    0  0.00000000000E+00 -0.00000000000E+00 -0.26050930960E+03  0.26055170386E+03  0.47000000000E+01 0. -1.
          6    1    1    2  502    0  0.17233639778E+02 -0.14908803269E+02 -0.19989422464E+03  0.26469033190E+03  0.17200000000E+03 0. -1.
         -6    1    1    2    0  502 -0.17233639778E+02  0.14908803269E+02  0.23808059221E+03  0.29459402428E+03  0.17200000000E+03 0.  1.
</event>
<event>
 4    1 -0.6855026E-004  0.1759978E+03  0.7818608E-02  0.1171734E+00
         -5   -1    0    0    0  501 -0.00000000000E+00  0.00000000000E+00  0.67733276795E+03  0.67734907436E+03  0.47000000000E+01 0.  1.
          5   -1    0    0  501    0  0.00000000000E+00 -0.00000000000E+00 -0.17340649445E+03  0.17347017703E+03  0.47000000000E+01 0. -1.
          6    1    1    2  502    0  0.31967415869E+02  0.19217551250E+02 -0.11308540494E+03  0.20919736797E+03  0.17200000000E+03 0. -1.
         -6    1    1    2    0  502 -0.31967415869E+02 -0.19217551250E+02  0.61701167844E+03  0.64162188342E+03  0.17200000000E+03 0.  1.
</event>
<event>
 4    1 -0.6855026E-004  0.1797255E+03  0.7818608E-02  0.1168069E+00
          5   -1    0    0  501    0  0.00000000000E+00  0.00000000000E+00  0.33340013506E+02  0.33669667366E+02  0.47000000000E+01 0. -1.
         -5   -1    0    0    0  501 -0.00000000000E+00 -0.00000000000E+00 -0.11019573769E+04  0.11019673999E+04  0.47000000000E+01 0.  1.
          6    1    1    2  502    0 -0.34119604812E+02  0.39409315364E+02 -0.33324245523E+03  0.37861824512E+03  0.17200000000E+03 0. -1.
         -6    1    1    2    0  502  0.34119604812E+02 -0.39409315364E+02 -0.73537490817E+03  0.75701882218E+03  0.17200000000E+03 0.  1.
</event>
<event>
 4    1 -0.6855026E-004  0.1978582E+03  0.7818608E-02  0.1151559E+00
          5   -1    0    0  501    0  0.00000000000E+00  0.00000000000E+00  0.58474775132E+03  0.58476663950E+03  0.47000000000E+01 0. -1.
         -5   -1    0    0    0  501 -0.00000000000E+00 -0.00000000000E+00 -0.21407417030E+03  0.21412575835E+03  0.47000000000E+01 0.  1.
          6    1    1    2  502    0  0.46997231116E+01 -0.97682027822E+02  0.51650062284E+03  0.55310103901E+03  0.17200000000E+03 0. -1.
         -6    1    1    2    0  502 -0.46997231116E+01  0.97682027822E+02 -0.14582704182E+03  0.24579135884E+03  0.17200000000E+03 0.  1.
</event>
<event>
 4    1 -0.6855026E-004  0.1742113E+03  0.7818608E-02  0.1173526E+00
          5   -1    0    0  501    0  0.00000000000E+00  0.00000000000E+00  0.14417304824E+04  0.14417381434E+04  0.47000000000E+01 0. -1.
         -5   -1    0    0    0  501 -0.00000000000E+00 -0.00000000000E+00 -0.10068069274E+03  0.10079033630E+03  0.47000000000E+01 0.  1.
          6    1    1    2  502    0  0.26139738428E+02 -0.90711069199E+01  0.13564930163E+04  0.13676340425E+04  0.17200000000E+03 0. -1.
         -6    1    1    2    0  502 -0.26139738428E+02  0.90711069199E+01 -0.15443226594E+02  0.17489443717E+03  0.17200000000E+03 0.  1.
</event>
<event>
 4    1 -0.6855026E-004  0.3019797E+03  0.7818608E-02  0.1084255E+00
         -5   -1    0    0    0  501 -0.00000000000E+00  0.00000000000E+00  0.55180401593E+03  0.55182403173E+03  0.47000000000E+01 0.  1.
          5   -1    0    0  501    0  0.00000000000E+00 -0.00000000000E+00 -0.16427853981E+04  0.16427921214E+04  0.47000000000E+01 0. -1.
          6    1    1    2  502    0 -0.10051106233E+02  0.24800544895E+03 -0.15861444654E+04  0.16146349410E+04  0.17200000000E+03 0. -1.
         -6    1    1    2    0  502  0.10051106233E+02 -0.24800544895E+03  0.49516308326E+03  0.57998121217E+03  0.17200000000E+03 0.  1.
</event>
<event>
 4    1 -0.6855026E-004  0.1730312E+03  0.7818608E-02  0.1174723E+00
         -5   -1    0    0    0  501 -0.00000000000E+00  0.00000000000E+00  0.44860634175E+03  0.44863096177E+03  0.47000000000E+01 0.  1.
          5   -1    0    0  501    0  0.00000000000E+00 -0.00000000000E+00 -0.19353941738E+03  0.19359647745E+03  0.47000000000E+01 0. -1.
          6    1    1    2  502    0  0.16320167908E+02 -0.94584330876E+01 -0.13240345534E+03  0.21787722420E+03  0.17200000000E+03 0. -1.
         -6    1    1    2    0  502 -0.16320167908E+02  0.94584330876E+01  0.38747037971E+03  0.42435021503E+03  0.17200000000E+03 0.  1.
</event>
<event>
 4    1 -0.6855026E-004  0.1771640E+03  0.7818608E-02  0.1170576E+00
         -5   -1    0    0    0  501 -0.00000000000E+00  0.00000000000E+00  0.15226598120E+04  0.15226670657E+04  0.47000000000E+01 0.  1.
          5   -1    0    0  501    0  0.00000000000E+00 -0.00000000000E+00 -0.30561084632E+02  0.30920379912E+02  0.47000000000E+01 0. -1.
          6    1    1    2  502    0  0.33564530670E+02 -0.26009402334E+02  0.30008182278E+03  0.34847692476E+03  0.17200000000E+03 0. -1.
         -6    1    1    2    0  502 -0.33564530670E+02  0.26009402334E+02  0.11920169046E+04  0.12051105209E+04  0.17200000000E+03 0.  1.
</event>
<event>
 4    1 -0.6855026E-004  0.2290403E+03  0.7818608E-02  0.1127317E+00
          5   -1    0    0  501    0  0.00000000000E+00  0.00000000000E+00  0.20656099346E+03  0.20661445743E+03  0.47000000000E+01 0. -1.
         -5   -1    0    0    0  501 -0.00000000000E+00 -0.00000000000E+00 -0.48023643790E+03  0.48025943644E+03  0.47000000000E+01 0.  1.
          6    1    1    2  502    0 -0.90795140083E+01  0.15097362566E+03  0.98937324863E+02  0.24949562616E+03  0.17200000000E+03 0. -1.
         -6    1    1    2    0  502  0.90795140083E+01 -0.15097362566E+03 -0.37261276931E+03  0.43737826772E+03  0.17200000000E+03 0.  1.
</event>
<event>
 4    1 -0.6855026E-004  0.1862070E+03  0.7818608E-02  0.1161928E+00
          5   -1    0    0  501    0  0.00000000000E+00  0.00000000000E+00  0.15144179687E+03  0.15151471162E+03  0.47000000000E+01 0. -1.
         -5   -1    0    0    0  501 -0.00000000000E+00 -0.00000000000E+00 -0.50045986832E+03  0.50048193754E+03  0.47000000000E+01 0.  1.
          6    1    1    2  502    0  0.17442025579E+02  0.69172432127E+02  0.65648342765E+02  0.19744050884E+03  0.17200000000E+03 0. -1.
         -6    1    1    2    0  502 -0.17442025579E+02 -0.69172432127E+02 -0.41466641422E+03  0.45455614032E+03  0.17200000000E+03 0.  1.
</event>
<event>
 4    1 -0.6855026E-004  0.1740277E+03  0.7818608E-02  0.1173712E+00
          5   -1    0    0  501    0  0.00000000000E+00  0.00000000000E+00  0.11851235843E+03  0.11860551884E+03  0.47000000000E+01 0. -1.
         -5   -1    0    0    0  501 -0.00000000000E+00 -0.00000000000E+00 -0.48644011917E+03  0.48646282442E+03  0.47000000000E+01 0.  1.
          6    1    1    2  502    0  0.25097188998E+02  0.84714781665E+01  0.24537999150E+02  0.17574910594E+03  0.17200000000E+03 0. -1.
         -6    1    1    2    0  502 -0.25097188998E+02 -0.84714781665E+01 -0.39246575990E+03  0.42931923732E+03  0.17200000000E+03 0.  1.
</event>
<event>
 4    1 -0.6855026E-004  0.4860785E+03  0.7818608E-02  0.1017478E+00
          5   -1    0    0  501    0  0.00000000000E+00  0.00000000000E+00  0.73896955802E+03  0.73898450436E+03  0.47000000000E+01 0. -1.
         -5   -1    0    0    0  501 -0.00000000000E+00 -0.00000000000E+00 -0.91371180116E+03  0.91372388914E+03  0.47000000000E+01 0.  1.
          6    1    1    2  502    0  0.28302978397E+03 -0.35578423542E+03  0.57890046470E+03  0.75590874371E+03  0.17200000000E+03 0. -1.
         -6    1    1    2    0  502 -0.28302978397E+03  0.35578423542E+03 -0.75364270784E+03  0.89679964979E+03  0.17200000000E+03 0.  1.
</event>
<event>
 4    1 -0.6855026E-004  0.1739558E+03  0.7818608E-02  0.1173784E+00
         -5   -1    0    0    0  501 -0.00000000000E+00  0.00000000000E+00  0.21669177625E+03  0.21674274127E+03  0.47000000000E+01 0.  1.
          5   -1    0    0  501    0  0.00000000000E+00 -0.00000000000E+00 -0.29687265722E+03  0.29690985940E+03  0.47000000000E+01 0. -1.
          6    1    1    2  502    0 -0.92462805814E+01 -0.24312810431E+02 -0.22702188465E+03  0.28600619323E+03  0.17200000000E+03 0. -1.
         -6    1    1    2    0  502  0.92462805814E+01  0.24312810431E+02  0.14684100368E+03  0.22764640744E+03  0.17200000000E+03 0.  1.
</event>
<event>
 4    1 -0.6855026E-004  0.1784095E+03  0.7818608E-02  0.1169351E+00
         -5   -1    0    0    0  501 -0.00000000000E+00  0.00000000000E+00  0.81183312460E+03  0.81184672950E+03  0.47000000000E+01 0.  1.
          5   -1    0    0  501    0  0.00000000000E+00 -0.00000000000E+00 -0.39054634985E+02  0.39336427314E+02  0.47000000000E+01 0. -1.
          6    1    1    2  502    0 -0.33676691642E+02  0.33343968413E+02  0.38336877830E+03  0.42284933483E+03  0.17200000000E+03 0.  1.
         -6    1    1    2    0  502  0.33676691642E+02 -0.33343968413E+02  0.38940971132E+03  0.42833382198E+03  0.17200000000E+03 0. -1.
</event>
<event>
 4    1 -0.6855026E-004  0.1815848E+03  0.7818608E-02  0.1166278E+00
         -5   -1    0    0    0  501 -0.00000000000E+00  0.00000000000E+00  0.11453763763E+03  0.11463402825E+03  0.47000000000E+01 0.  1.
          5   -1    0    0  501    0  0.00000000000E+00 -0.00000000000E+00 -0.30478221961E+03  0.30481845645E+03  0.47000000000E+01 0. -1.
          6    1    1    2  502    0  0.45945635670E+02 -0.35749534703E+02 -0.14484574648E+03  0.23227854172E+03  0.17200000000E+03 0.  1.
         -6    1    1    2    0  502 -0.45945635670E+02  0.35749534703E+02 -0.45398835503E+02  0.18717394299E+03  0.17200000000E+03 0.  1.
</event>
<event>
 4    1 -0.6855026E-004  0.3313165E+03  0.7818608E-02  0.1070556E+00
         -5   -1    0    0    0  501 -0.00000000000E+00  0.00000000000E+00  0.88834896029E+03  0.88836139338E+03  0.47000000000E+01 0.  1.
          5   -1    0    0  501    0  0.00000000000E+00 -0.00000000000E+00 -0.16229846900E+03  0.16236650837E+03  0.47000000000E+01 0. -1.
          6    1    1    2  502    0  0.50349295718E+02  0.27866034672E+03  0.10625903648E+03  0.34793910854E+03  0.17200000000E+03 0. -1.
         -6    1    1    2    0  502 -0.50349295718E+02 -0.27866034672E+03  0.61979145481E+03  0.70278879322E+03  0.17200000000E+03 0.  1.
</event>
<event>
 4    1 -0.6855026E-004  0.2098791E+03  0.7818608E-02  0.1141662E+00
          5   -1    0    0  501    0  0.00000000000E+00  0.00000000000E+00  0.91398125537E+03  0.91399333978E+03  0.47000000000E+01 0. -1.
         -5   -1    0    0    0  501 -0.00000000000E+00 -0.00000000000E+00 -0.11557841013E+03  0.11567393348E+03  0.47000000000E+01 0.  1.
          6    1    1    2  502    0  0.62222295046E+02  0.10292542499E+03  0.79237713551E+03  0.81970164206E+03  0.17200000000E+03 0. -1.
         -6    1    1    2    0  502 -0.62222295046E+02 -0.10292542499E+03  0.60257097349E+01  0.20996563121E+03  0.17200000000E+03 0.  1.
</event>
<event>
 4    1 -0.6855026E-004  0.2390667E+03  0.7818608E-02  0.1120416E+00
          5   -1    0    0  501    0  0.00000000000E+00  0.00000000000E+00  0.44469395515E+03  0.44471879176E+03  0.47000000000E+01 0. -1.
         -5   -1    0    0    0  501 -0.00000000000E+00 -0.00000000000E+00 -0.45327803926E+03  0.45330240555E+03  0.47000000000E+01 0.  1.
          6    1    1    2  502    0 -0.79551505823E+02 -0.14574108857E+03  0.37577688335E+03  0.44537756234E+03  0.17200000000E+03 0. -1.
         -6    1    1    2    0  502  0.79551505823E+02  0.14574108857E+03 -0.38436096746E+03  0.45264363497E+03  0.17200000000E+03 0.  1.
</event>
<event>
 4    1 -0.6855026E-004  0.1783822E+03  0.7818608E-02  0.1169378E+00
          5   -1    0    0  501    0  0.00000000000E+00  0.00000000000E+00  0.62305326374E+03  0.62307099070E+03  0.47000000000E+01 0. -1.
         -5   -1    0    0    0  501 -0.00000000000E+00 -0.00000000000E+00 -0.17307597450E+03  0.17313977865E+03  0.47000000000E+01 0.  1.
          6    1    1    2  502    0 -0.37498832212E+02 -0.28810634559E+02  0.55925681854E+03  0.58701652802E+03  0.17200000000E+03 0. -1.
         -6    1    1    2    0  502  0.37498832212E+02  0.28810634559E+02 -0.10927952931E+03  0.20919424133E+03  0.17200000000E+03 0.  1.
</event>
<event>
 4    1 -0.6855026E-004  0.1739199E+03  0.7818608E-02  0.1173821E+00
          5   -1    0    0  501    0  0.00000000000E+00  0.00000000000E+00  0.10208413201E+03  0.10219226980E+03  0.47000000000E+01 0. -1.
         -5   -1    0    0    0  501 -0.00000000000E+00 -0.00000000000E+00 -0.68156601721E+03  0.68158222235E+03  0.47000000000E+01 0.  1.
          6    1    1    2  502    0  0.24182581237E+02  0.89068839457E+01  0.49732417809E+01  0.17399098526E+03  0.17200000000E+03 0. -1.
         -6    1    1    2    0  502 -0.24182581237E+02 -0.89068839457E+01 -0.58445512699E+03  0.60978350689E+03  0.17200000000E+03 0.  1.
</event>
<event>
 4    1 -0.6855026E-004  0.1882283E+03  0.7818608E-02  0.1160069E+00
          5   -1    0    0  501    0  0.00000000000E+00  0.00000000000E+00  0.12529354101E+03  0.12538166301E+03  0.47000000000E+01 0. -1.
         -5   -1    0    0    0  501 -0.00000000000E+00 -0.00000000000E+00 -0.36411420993E+03  0.36414454255E+03  0.47000000000E+01 0.  1.
          6    1    1    2  502    0 -0.74759353271E+02  0.16029126975E+02 -0.35977610325E+01  0.18826268270E+03  0.17200000000E+03 0. -1.
         -6    1    1    2    0  502  0.74759353271E+02 -0.16029126975E+02 -0.23522290788E+03  0.30126352286E+03  0.17200000000E+03 0.  1.
</event>
<event>
 4    1 -0.6855026E-004  0.2550167E+03  0.7818608E-02  0.1110175E+00
          5   -1    0    0  501    0  0.00000000000E+00  0.00000000000E+00  0.14644187873E+04  0.14644263295E+04  0.47000000000E+01 0. -1.
         -5   -1    0    0    0  501 -0.00000000000E+00 -0.00000000000E+00 -0.10625810351E+03  0.10636199773E+03  0.47000000000E+01 0.  1.
          6    1    1    2  502    0 -0.85562065731E+02  0.16771603800E+03  0.12784028391E+04  0.13035901793E+04  0.17200000000E+03 0. -1.
         -6    1    1    2    0  502  0.85562065731E+02 -0.16771603800E+03  0.79757844695E+02  0.26719814798E+03  0.17200000000E+03 0.  1.
</event>
<event>
 4    1 -0.6855026E-004  0.2149425E+03  0.7818608E-02  0.1137711E+00
         -5   -1    0    0    0  501 -0.00000000000E+00  0.00000000000E+00  0.20060930307E+03  0.20066435278E+03  0.47000000000E+01 0.  1.
          5   -1    0    0  501    0  0.00000000000E+00 -0.00000000000E+00 -0.74296020243E+03  0.74297506849E+03  0.47000000000E+01 0. -1.
          6    1    1    2  502    0  0.48505295045E+01 -0.12881291330E+03 -0.66312462029E+03  0.69709006326E+03  0.17200000000E+03 0. -1.
         -6    1    1    2    0  502 -0.48505295045E+01  0.12881291330E+03  0.12077372093E+03  0.24654935801E+03  0.17200000000E+03 0.  1.
</event>
<event>
 4    1 -0.6855026E-004  0.2422083E+03  0.7818608E-02  0.1118330E+00
          5   -1    0    0  501    0  0.00000000000E+00  0.00000000000E+00  0.12326008011E+03  0.12334965484E+03  0.47000000000E+01 0. -1.
         -5   -1    0    0    0  501 -0.00000000000E+00 -0.00000000000E+00 -0.51150385419E+03  0.51152544693E+03  0.47000000000E+01 0.  1.
          6    1    1    2  502    0  0.14588121452E+03 -0.88315072079E+02 -0.11011126875E+03  0.26606272232E+03  0.17200000000E+03 0. -1.
         -6    1    1    2    0  502 -0.14588121452E+03  0.88315072079E+02 -0.27813250533E+03  0.36881237944E+03  0.17200000000E+03 0.  1.
</event>
<event>
 4    1 -0.6855026E-004  0.2366369E+03  0.7818608E-02  0.1122054E+00
         -5   -1    0    0    0  501 -0.00000000000E+00  0.00000000000E+00  0.34347691625E+03  0.34350907120E+03  0.47000000000E+01 0.  1.
          5   -1    0    0  501    0  0.00000000000E+00 -0.00000000000E+00 -0.29133316843E+03  0.29137107789E+03  0.47000000000E+01 0. -1.
          6    1    1    2  502    0 -0.16197803214E+03 -0.13271395419E+02 -0.18461958046E+03  0.30013563987E+03  0.17200000000E+03 0. -1.
         -6    1    1    2    0  502  0.16197803214E+03  0.13271395419E+02  0.23676332828E+03  0.33474450922E+03  0.17200000000E+03 0.  1.
</event>
<event>
 4    1 -0.6855026E-004  0.1748263E+03  0.7818608E-02  0.1172906E+00
          5   -1    0    0  501    0  0.00000000000E+00  0.00000000000E+00  0.32987346567E+03  0.32990694651E+03  0.47000000000E+01 0. -1.
         -5   -1    0    0    0  501 -0.00000000000E+00 -0.00000000000E+00 -0.62412833904E+03  0.62414603547E+03  0.47000000000E+01 0.  1.
          6    1    1    2  502    0  0.32904842201E+01 -0.31135345053E+02  0.29307354859E+03  0.34125700269E+03  0.17200000000E+03 0. -1.
         -6    1    1    2    0  502 -0.32904842201E+01  0.31135345053E+02 -0.58732842196E+03  0.61279597930E+03  0.17200000000E+03 0.  1.
</event>
<event>
 4    1 -0.6855026E-004  0.2795256E+03  0.7818608E-02  0.1095948E+00
         -5   -1    0    0    0  501 -0.00000000000E+00  0.00000000000E+00  0.14728955441E+03  0.14736452368E+03  0.47000000000E+01 0.  1.
          5   -1    0    0  501    0  0.00000000000E+00 -0.00000000000E+00 -0.85311818841E+03  0.85313113494E+03  0.47000000000E+01 0. -1.
          6    1    1    2  502    0  0.19739921929E+03  0.97898572540E+02 -0.66063838113E+03  0.71734068120E+03  0.17200000000E+03 0. -1.
         -6    1    1    2    0  502 -0.19739921929E+03 -0.97898572540E+02 -0.45190252864E+02  0.28315497741E+03  0.17200000000E+03 0. -1.
</event>
<event>
 4    1 -0.6855026E-004  0.1856688E+03  0.7818608E-02  0.1162427E+00
          5   -1    0    0  501    0  0.00000000000E+00  0.00000000000E+00  0.10614304105E+04  0.10614408162E+04  0.47000000000E+01 0. -1.
         -5   -1    0    0    0  501 -0.00000000000E+00 -0.00000000000E+00 -0.17338014727E+03  0.17344383952E+03  0.47000000000E+01 0.  1.
          6    1    1    2  502    0 -0.62157088135E+02  0.32021933491E+02  0.10006572891E+04  0.10177366644E+04  0.17200000000E+03 0. -1.
         -6    1    1    2    0  502  0.62157088135E+02 -0.32021933491E+02 -0.11260702592E+03  0.21714799128E+03  0.17200000000E+03 0.  1.
</event>
<event>
 4    1 -0.6855026E-004  0.2093486E+03  0.7818608E-02  0.1142083E+00
         -5   -1    0    0    0  501 -0.00000000000E+00  0.00000000000E+00  0.13258915273E+03  0.13267242902E+03  0.47000000000E+01 0.  1.
          5   -1    0    0  501    0  0.00000000000E+00 -0.00000000000E+00 -0.67025304991E+03  0.67026952855E+03  0.47000000000E+01 0. -1.
          6    1    1    2  502    0  0.10942874568E+03  0.47625320768E+02 -0.55471088032E+03  0.59290048263E+03  0.17200000000E+03 0. -1.
         -6    1    1    2    0  502 -0.10942874568E+03 -0.47625320768E+02  0.17046983145E+02  0.21004147494E+03  0.17200000000E+03 0.  1.
</event>
<event>
 4    1 -0.6855026E-004  0.2856754E+03  0.7818608E-02  0.1092629E+00
         -5   -1    0    0    0  501 -0.00000000000E+00  0.00000000000E+00  0.27784298563E+03  0.27788273545E+03  0.47000000000E+01 0.  1.
          5   -1    0    0  501    0  0.00000000000E+00 -0.00000000000E+00 -0.80669939627E+03  0.80671308775E+03  0.47000000000E+01 0. -1.
          6    1    1    2  502    0 -0.15871099335E+03  0.16382076313E+03 -0.69688674255E+03  0.75316767973E+03  0.17200000000E+03 0. -1.
         -6    1    1    2    0  502  0.15871099335E+03 -0.16382076313E+03  0.16803033191E+03  0.33142814347E+03  0.17200000000E+03 0.  1.
</event>
<event>
 4    1 -0.6855026E-004  0.1828209E+03  0.7818608E-02  0.1165101E+00
         -5   -1    0    0    0  501 -0.00000000000E+00  0.00000000000E+00  0.12576535553E+03  0.12585314717E+03  0.47000000000E+01 0.  1.
          5   -1    0    0  501    0  0.00000000000E+00 -0.00000000000E+00 -0.10850686811E+04  0.10850788601E+04  0.47000000000E+01 0. -1.
          6    1    1    2  502    0 -0.26042280360E+02 -0.56225217740E+02 -0.10058086841E+04  0.10222888949E+04  0.17200000000E+03 0. -1.
         -6    1    1    2    0  502  0.26042280360E+02  0.56225217740E+02  0.46505358605E+02  0.18864311240E+03  0.17200000000E+03 0.  1.
</event>
<event>
 4    1 -0.6855026E-004  0.1808109E+03  0.7818608E-02  0.1167021E+00
         -5   -1    0    0    0  501 -0.00000000000E+00  0.00000000000E+00  0.54420403272E+03  0.54422432804E+03  0.47000000000E+01 0.  1.
          5   -1    0    0  501    0  0.00000000000E+00 -0.00000000000E+00 -0.16537752232E+03  0.16544429543E+03  0.47000000000E+01 0. -1.
          6    1    1    2  502    0  0.75085254847E+01 -0.55246685373E+02 -0.93759254192E+02  0.20367467183E+03  0.17200000000E+03 0. -1.
         -6    1    1    2    0  502 -0.75085254847E+01  0.55246685373E+02  0.47258576459E+03  0.50599395164E+03  0.17200000000E+03 0.  1.
</event>
<event>
 4    1 -0.6855026E-004  0.2705896E+03  0.7818608E-02  0.1100943E+00
          5   -1    0    0  501    0  0.00000000000E+00  0.00000000000E+00  0.31651202036E+03  0.31654691443E+03  0.47000000000E+01 0. -1.
         -5   -1    0    0    0  501 -0.00000000000E+00 -0.00000000000E+00 -0.35229783012E+03  0.35232918004E+03  0.47000000000E+01 0.  1.
          6    1    1    2  502    0  0.20834584399E+03 -0.15057349574E+02  0.17811706952E+03  0.32395123852E+03  0.17200000000E+03 0. -1.
         -6    1    1    2    0  502 -0.20834584399E+03  0.15057349574E+02 -0.21390287928E+03  0.34492485595E+03  0.17200000000E+03 0.  1.
</event>
<event>
 4    1 -0.6855026E-004  0.1814500E+03  0.7818608E-02  0.1166407E+00
          5   -1    0    0  501    0  0.00000000000E+00  0.00000000000E+00  0.56422926185E+03  0.56424883689E+03  0.47000000000E+01 0. -1.
         -5   -1    0    0    0  501 -0.00000000000E+00 -0.00000000000E+00 -0.11363309584E+03  0.11373025310E+03  0.47000000000E+01 0.  1.
          6    1    1    2  502    0  0.54631473274E+02 -0.18855237248E+02  0.46181491467E+03  0.49618256041E+03  0.17200000000E+03 0. -1.
         -6    1    1    2    0  502 -0.54631473274E+02  0.18855237248E+02 -0.11218748657E+02  0.18179652957E+03  0.17200000000E+03 0.  1.
</event>
<event>
 4    1 -0.6855026E-004  0.1726496E+03  0.7818608E-02  0.1175113E+00
         -5   -1    0    0    0  501 -0.00000000000E+00  0.00000000000E+00  0.20187492049E+04  0.20187546761E+04  0.47000000000E+01 0.  1.
          5   -1    0    0  501    0  0.00000000000E+00 -0.00000000000E+00 -0.52962285910E+02  0.53170421559E+02  0.47000000000E+01 0. -1.
          6    1    1    2  502    0 -0.12820141976E+02 -0.77144478873E+01  0.10276244402E+03  0.20091786543E+03  0.17200000000E+03 0. -1.
         -6    1    1    2    0  502  0.12820141976E+02  0.77144478873E+01  0.18630244750E+04  0.18710072322E+04  0.17200000000E+03 0.  1.
</event>
<event>
 4    1 -0.6855026E-004  0.2264966E+03  0.7818608E-02  0.1129130E+00
         -5   -1    0    0    0  501 -0.00000000000E+00  0.00000000000E+00  0.77577391261E+03  0.77578814988E+03  0.47000000000E+01 0.  1.
          5   -1    0    0  501    0  0.00000000000E+00 -0.00000000000E+00 -0.14111325468E+03  0.14119150345E+03  0.47000000000E+01 0. -1.
          6    1    1    2  502    0 -0.14423882943E+03  0.30197531405E+02 -0.16946710738E+02  0.22712974667E+03  0.17200000000E+03 0. -1.
         -6    1    1    2    0  502  0.14423882943E+03 -0.30197531405E+02  0.65160736866E+03  0.68984990666E+03  0.17200000000E+03 0.  1.
</event>
<event>
 4    1 -0.6855026E-004  0.1819029E+03  0.7818608E-02  0.1165974E+00
         -5   -1    0    0    0  501 -0.00000000000E+00  0.00000000000E+00  0.60045529564E+02  0.60229192429E+02  0.47000000000E+01 0.  1.
          5   -1    0    0  501    0  0.00000000000E+00 -0.00000000000E+00 -0.90176426940E+03  0.90177651753E+03  0.47000000000E+01 0. -1.
          6    1    1    2  502    0  0.48056872529E+01  0.59004826250E+02 -0.72123440637E+03  0.74381969125E+03  0.17200000000E+03 0. -1.
         -6    1    1    2    0  502 -0.48056872529E+01 -0.59004826250E+02 -0.12048433346E+03  0.21818601871E+03  0.17200000000E+03 0.  1.
</event>
<event>
 4    1 -0.6855026E-004  0.2121457E+03  0.7818608E-02  0.1139878E+00
         -5   -1    0    0    0  501 -0.00000000000E+00  0.00000000000E+00  0.43346942845E+03  0.43349490816E+03  0.47000000000E+01 0.  1.
          5   -1    0    0  501    0  0.00000000000E+00 -0.00000000000E+00 -0.40994149938E+03  0.40996844136E+03  0.47000000000E+01 0. -1.
          6    1    1    2  502    0  0.11002565074E+03 -0.57586019116E+02 -0.35267638152E+03  0.41156581916E+03  0.17200000000E+03 0. -1.
         -6    1    1    2    0  502 -0.11002565074E+03  0.57586019116E+02  0.37620431060E+03  0.43189753036E+03  0.17200000000E+03 0.  1.
</event>
<event>
 4    1 -0.6855026E-004  0.1997110E+03  0.7818608E-02  0.1149983E+00
          5   -1    0    0  501    0  0.00000000000E+00  0.00000000000E+00  0.10672300037E+03  0.10682644246E+03  0.47000000000E+01 0. -1.
         -5   -1    0    0    0  501 -0.00000000000E+00 -0.00000000000E+00 -0.13805589192E+04  0.13805669196E+04  0.47000000000E+01 0.  1.
          6    1    1    2  502    0  0.50455598077E+02 -0.88060774213E+02 -0.17423971225E+01  0.19971856018E+03  0.17200000000E+03 0. -1.
         -6    1    1    2    0  502 -0.50455598077E+02  0.88060774213E+02 -0.12720935217E+04  0.12876748018E+04  0.17200000000E+03 0.  1.
</event>
<event>
 4    1 -0.6855026E-004  0.1867161E+03  0.7818608E-02  0.1161457E+00
          5   -1    0    0  501    0  0.00000000000E+00  0.00000000000E+00  0.75227561778E+03  0.75229029976E+03  0.47000000000E+01 0. -1.
         -5   -1    0    0    0  501 -0.00000000000E+00 -0.00000000000E+00 -0.66592857406E+02  0.66758510000E+02  0.47000000000E+01 0.  1.
          6    1    1    2  502    0 -0.29954232114E+02 -0.66193903426E+02  0.56904763710E+03  0.59889740537E+03  0.17200000000E+03 0. -1.
         -6    1    1    2    0  502  0.29954232114E+02  0.66193903426E+02  0.11663512328E+03  0.22015140439E+03  0.17200000000E+03 0.  1.
</event>
<event>
 4    1 -0.6855026E-004  0.3625907E+03  0.7818608E-02  0.1057563E+00
          5   -1    0    0  501    0  0.00000000000E+00  0.00000000000E+00  0.44983465952E+03  0.44985921232E+03  0.47000000000E+01 0. -1.
         -5   -1    0    0    0  501 -0.00000000000E+00 -0.00000000000E+00 -0.30486558567E+03  0.30490181260E+03  0.47000000000E+01 0.  1.
          6    1    1    2  502    0  0.15259743725E+03 -0.28036057307E+03  0.14934786345E+03  0.39214386787E+03  0.17200000000E+03 0. -1.
         -6    1    1    2    0  502 -0.15259743725E+03  0.28036057307E+03 -0.43787896029E+01  0.36261715705E+03  0.17200000000E+03 0.  1.
</event>
<event>
 4    1 -0.6855026E-004  0.1807235E+03  0.7818608E-02  0.1167105E+00
          5   -1    0    0  501    0  0.00000000000E+00  0.00000000000E+00  0.17548357648E+03  0.17554650556E+03  0.47000000000E+01 0. -1.
         -5   -1    0    0    0  501 -0.00000000000E+00 -0.00000000000E+00 -0.24617763188E+03  0.24622249377E+03  0.47000000000E+01 0.  1.
          6    1    1    2  502    0 -0.23443748558E+02  0.50272863879E+02  0.68898809864E+02  0.19341152031E+03  0.17200000000E+03 0. -1.
         -6    1    1    2    0  502  0.23443748558E+02 -0.50272863879E+02 -0.13959286526E+03  0.22835747901E+03  0.17200000000E+03 0.  1.
</event>
<event>
 4    1 -0.6855026E-004  0.2825102E+03  0.7818608E-02  0.1094326E+00
         -5   -1    0    0    0  501 -0.00000000000E+00  0.00000000000E+00  0.21166324364E+03  0.21171541916E+03  0.47000000000E+01 0.  1.
          5   -1    0    0  501    0  0.00000000000E+00 -0.00000000000E+00 -0.86085134474E+03  0.86086417496E+03  0.47000000000E+01 0. -1.
          6    1    1    2  502    0 -0.18039497997E+03 -0.13298748424E+03 -0.72665513937E+03  0.77964075787E+03  0.17200000000E+03 0. -1.
         -6    1    1    2    0  502  0.18039497997E+03  0.13298748424E+03  0.77467038276E+02  0.29293883625E+03  0.17200000000E+03 0.  1.
</event>
<event>
 4    1 -0.6855026E-004  0.1841595E+03  0.7818608E-02  0.1163837E+00
          5   -1    0    0  501    0  0.00000000000E+00  0.00000000000E+00  0.22257313039E+03  0.22262274900E+03  0.47000000000E+01 0. -1.
         -5   -1    0    0    0  501 -0.00000000000E+00 -0.00000000000E+00 -0.20962180461E+04  0.20962233151E+04  0.47000000000E+01 0.  1.
          6    1    1    2  502    0  0.46923378410E+02  0.46140081421E+02  0.17967194332E+03  0.25728722815E+03  0.17200000000E+03 0. -1.
         -6    1    1    2    0  502 -0.46923378410E+02 -0.46140081421E+02 -0.20533168590E+04  0.20615588359E+04  0.17200000000E+03 0.  1.
</event>
<event>
 4    1 -0.6855026E-004  0.2091976E+03  0.7818608E-02  0.1142203E+00
         -5   -1    0    0    0  501 -0.00000000000E+00  0.00000000000E+00  0.12312381363E+04  0.12312471069E+04  0.47000000000E+01 0.  1.
          5   -1    0    0  501    0  0.00000000000E+00 -0.00000000000E+00 -0.13748585853E+03  0.13756617061E+03  0.47000000000E+01 0. -1.
          6    1    1    2  502    0 -0.12732243753E+02 -0.11839559962E+03 -0.42493725979E+02  0.21346977488E+03  0.17200000000E+03 0. -1.
         -6    1    1    2    0  502  0.12732243753E+02  0.11839559962E+03  0.11362460037E+04  0.11553435026E+04  0.17200000000E+03 0.  1.
</event>
<event>
 4    1 -0.6855026E-004  0.1739379E+03  0.7818608E-02  0.1173802E+00
          5   -1    0    0  501    0  0.00000000000E+00  0.00000000000E+00  0.18451218465E+04  0.18451278326E+04  0.47000000000E+01 0. -1.
         -5   -1    0    0    0  501 -0.00000000000E+00 -0.00000000000E+00 -0.22261966135E+02  0.22752695142E+02  0.47000000000E+01 0.  1.
          6    1    1    2  502    0  0.25543241389E+02 -0.42367192567E+01  0.13982252349E+04  0.14090025602E+04  0.17200000000E+03 0. -1.
         -6    1    1    2    0  502 -0.25543241389E+02  0.42367192567E+01  0.42463464546E+03  0.45887796754E+03  0.17200000000E+03 0.  1.
</event>
<event>
 4    1 -0.6855026E-004  0.1784436E+03  0.7818608E-02  0.1169318E+00
          5   -1    0    0  501    0  0.00000000000E+00  0.00000000000E+00  0.57461508005E+02  0.57653403214E+02  0.47000000000E+01 0. -1.
         -5   -1    0    0    0  501 -0.00000000000E+00 -0.00000000000E+00 -0.10709128198E+04  0.10709231334E+04  0.47000000000E+01 0.  1.
          6    1    1    2  502    0 -0.46384828269E+02  0.10323552330E+02 -0.11435066451E+03  0.21193914811E+03  0.17200000000E+03 0. -1.
         -6    1    1    2    0  502  0.46384828269E+02 -0.10323552330E+02 -0.89910064730E+03  0.91663738850E+03  0.17200000000E+03 0.  1.
</event>
<event>
 4    1 -0.6855026E-004  0.2895591E+03  0.7818608E-02  0.1090580E+00
          5   -1    0    0  501    0  0.00000000000E+00  0.00000000000E+00  0.70108350296E+03  0.70109925697E+03  0.47000000000E+01 0. -1.
         -5   -1    0    0    0  501 -0.00000000000E+00 -0.00000000000E+00 -0.34426079884E+03  0.34429288058E+03  0.47000000000E+01 0.  1.
          6    1    1    2  502    0 -0.33301316439E+02 -0.23054612285E+03  0.60067927628E+03  0.66682837776E+03  0.17200000000E+03 0. -1.
         -6    1    1    2    0  502  0.33301316439E+02  0.23054612285E+03 -0.24385657216E+03  0.37856375979E+03  0.17200000000E+03 0.  1.
</event>
<event>
 4    1 -0.6855026E-004  0.1759583E+03  0.7818608E-02  0.1171773E+00
          5   -1    0    0  501    0  0.00000000000E+00  0.00000000000E+00  0.20541251063E+04  0.20541304832E+04  0.47000000000E+01 0. -1.
         -5   -1    0    0    0  501 -0.00000000000E+00 -0.00000000000E+00 -0.30573742284E+02  0.30932890541E+02  0.47000000000E+01 0.  1.
          6    1    1    2  502    0 -0.36546405638E+02 -0.64558814149E+01  0.17562691504E+04  0.17650616552E+04  0.17200000000E+03 0. -1.
         -6    1    1    2    0  502  0.36546405638E+02  0.64558814149E+01  0.26728221357E+03  0.32000171853E+03  0.17200000000E+03 0.  1.
</event>
<event>
 4    1 -0.6855026E-004  0.2441677E+03  0.7818608E-02  0.1117047E+00
         -5   -1    0    0    0  501 -0.00000000000E+00  0.00000000000E+00  0.13385189468E+03  0.13393438584E+03  0.47000000000E+01 0.  1.
          5   -1    0    0  501    0  0.00000000000E+00 -0.00000000000E+00 -0.56380368254E+03  0.56382327235E+03  0.47000000000E+01 0. -1.
          6    1    1    2  502    0  0.16613342388E+03  0.49331132170E+02 -0.37499612807E+03  0.44748181103E+03  0.17200000000E+03 0. -1.
         -6    1    1    2    0  502 -0.16613342388E+03 -0.49331132170E+02 -0.54955659780E+02  0.25027584716E+03  0.17200000000E+03 0.  1.
</event>
<event>
 4    1 -0.6855026E-004  0.2002863E+03  0.7818608E-02  0.1149498E+00
          5   -1    0    0  501    0  0.00000000000E+00  0.00000000000E+00  0.24577758814E+03  0.24582252304E+03  0.47000000000E+01 0. -1.
         -5   -1    0    0    0  501 -0.00000000000E+00 -0.00000000000E+00 -0.24264164420E+03  0.24268715974E+03  0.47000000000E+01 0.  1.
          6    1    1    2  502    0  0.86073942768E+01 -0.10225707381E+03  0.14136846559E+03  0.24515227807E+03  0.17200000000E+03 0. -1.
         -6    1    1    2    0  502 -0.86073942768E+01  0.10225707381E+03 -0.13823252166E+03  0.24335740470E+03  0.17200000000E+03 0. -1.
</event>
<event>
 4    1 -0.6855026E-004  0.1777199E+03  0.7818608E-02  0.1170028E+00
          5   -1    0    0  501    0  0.00000000000E+00  0.00000000000E+00  0.48224855295E+02  0.48453345273E+02  0.47000000000E+01 0. -1.
         -5   -1    0    0    0  501 -0.00000000000E+00 -0.00000000000E+00 -0.67117227340E+03  0.67118872948E+03  0.47000000000E+01 0.  1.
          6    1    1    2  502    0  0.19648329578E+00 -0.44724921659E+02 -0.25252960513E+03  0.30879695383E+03  0.17200000000E+03 0. -1.
         -6    1    1    2    0  502 -0.19648329578E+00  0.44724921659E+02 -0.37041781297E+03  0.41084512093E+03  0.17200000000E+03 0.  1.
</event>
<event>
 4    1 -0.6855026E-004  0.2220023E+03  0.7818608E-02  0.1132399E+00
         -5   -1    0    0    0  501 -0.00000000000E+00  0.00000000000E+00  0.34350198408E+03  0.34353413668E+03  0.47000000000E+01 0.  1.
          5   -1    0    0  501    0  0.00000000000E+00 -0.00000000000E+00 -0.61937316718E+03  0.61939099947E+03  0.47000000000E+01 0. -1.
          6    1    1    2  502    0  0.39536932995E+02  0.13467689574E+03 -0.55997140823E+03  0.60237281923E+03  0.17200000000E+03 0. -1.
         -6    1    1    2    0  502 -0.39536932995E+02 -0.13467689574E+03  0.28410022513E+03  0.36055231692E+03  0.17200000000E+03 0.  1.
</event>
<event>
 4    1 -0.6855026E-004  0.1741308E+03  0.7818608E-02  0.1173607E+00
         -5   -1    0    0    0  501 -0.00000000000E+00  0.00000000000E+00  0.15661681262E+03  0.15668731919E+03  0.47000000000E+01 0.  1.
          5   -1    0    0  501    0  0.00000000000E+00 -0.00000000000E+00 -0.61880609825E+03  0.61882394688E+03  0.47000000000E+01 0. -1.
          6    1    1    2  502    0  0.14017795537E+02 -0.23260240827E+02 -0.55254491388E+03  0.57933359927E+03  0.17200000000E+03 0. -1.
         -6    1    1    2    0  502 -0.14017795537E+02  0.23260240827E+02  0.90355628249E+02  0.19617766680E+03  0.17200000000E+03 0.  1.
</event>
<event>
 4    1 -0.6855026E-004  0.1912299E+03  0.7818608E-02  0.1157357E+00
          5   -1    0    0  501    0  0.00000000000E+00  0.00000000000E+00  0.20050435988E+03  0.20055943840E+03  0.47000000000E+01 0. -1.
         -5   -1    0    0    0  501 -0.00000000000E+00 -0.00000000000E+00 -0.51179300571E+03  0.51181458625E+03  0.47000000000E+01 0.  1.
          6    1    1    2  502    0 -0.48419158820E+02  0.68120979264E+02  0.13013467230E+03  0.23130913448E+03  0.17200000000E+03 0. -1.
         -6    1    1    2    0  502  0.48419158820E+02 -0.68120979264E+02 -0.44142331814E+03  0.48106489017E+03  0.17200000000E+03 0.  1.
</event>
<event>
 4    1 -0.6855026E-004  0.2526142E+03  0.7818608E-02  0.1111664E+00
          5   -1    0    0  501    0  0.00000000000E+00  0.00000000000E+00  0.25570795702E+03  0.25575114718E+03  0.47000000000E+01 0. -1.
         -5   -1    0    0    0  501 -0.00000000000E+00 -0.00000000000E+00 -0.32722207937E+03  0.32725583146E+03  0.47000000000E+01 0.  1.
          6    1    1    2  502    0 -0.16224028221E+03  0.88927118940E+02  0.10631861135E+03  0.27407588142E+03  0.17200000000E+03 0. -1.
         -6    1    1    2    0  502  0.16224028221E+03 -0.88927118940E+02 -0.17783273370E+03  0.30893109722E+03  0.17200000000E+03 0.  1.
</event>
<event>
 4    1 -0.6855026E-004  0.1807019E+03  0.7818608E-02  0.1167126E+00
         -5   -1    0    0    0  501 -0.00000000000E+00  0.00000000000E+00  0.18235277425E+03  0.18241333361E+03  0.47000000000E+01 0.  1.
          5   -1    0    0  501    0  0.00000000000E+00 -0.00000000000E+00 -0.23276464502E+03  0.23281209155E+03  0.47000000000E+01 0. -1.
          6    1    1    2  502    0 -0.93625665476E+01 -0.54603130756E+02 -0.12501260047E+03  0.21973008401E+03  0.17200000000E+03 0. -1.
         -6    1    1    2    0  502  0.93625665476E+01  0.54603130756E+02  0.74600729702E+02  0.19549534115E+03  0.17200000000E+03 0.  1.
</event>
<event>
 4    1 -0.6855026E-004  0.1819422E+03  0.7818608E-02  0.1165936E+00
          5   -1    0    0  501    0  0.00000000000E+00  0.00000000000E+00  0.25260748908E+03  0.25265120926E+03  0.47000000000E+01 0. -1.
         -5   -1    0    0    0  501 -0.00000000000E+00 -0.00000000000E+00 -0.33683971055E+03  0.33687249903E+03  0.47000000000E+01 0.  1.
          6    1    1    2  502    0 -0.48192143431E+02  0.34590251016E+02  0.18830023867E+03  0.26183954636E+03  0.17200000000E+03 0. -1.
         -6    1    1    2    0  502  0.48192143431E+02 -0.34590251016E+02 -0.27253246014E+03  0.32768416193E+03  0.17200000000E+03 0.  1.
</event>
<event>
 4    1 -0.6855026E-004  0.1774563E+03  0.7818608E-02  0.1170288E+00
          5   -1    0    0  501    0  0.00000000000E+00  0.00000000000E+00  0.51139547155E+03  0.51141706886E+03  0.47000000000E+01 0. -1.
         -5   -1    0    0    0  501 -0.00000000000E+00 -0.00000000000E+00 -0.32638578889E+03  0.32641962746E+03  0.47000000000E+01 0.  1.
          6    1    1    2  502    0  0.34259161924E+02 -0.27074965010E+02  0.46984767795E+03  0.50224255532E+03  0.17200000000E+03 0. -1.
         -6    1    1    2    0  502 -0.34259161924E+02  0.27074965010E+02 -0.28483799529E+03  0.33559414099E+03  0.17200000000E+03 0.  1.
</event>
<event>
 4    1 -0.6855026E-004  0.2041309E+03  0.7818608E-02  0.1146300E+00
         -5   -1    0    0    0  501 -0.00000000000E+00  0.00000000000E+00  0.20187004976E+03  0.20192475576E+03  0.47000000000E+01 0.  1.
          5   -1    0    0  501    0  0.00000000000E+00 -0.00000000000E+00 -0.28738223876E+03  0.28742066933E+03  0.47000000000E+01 0. -1.
          6    1    1    2  502    0  0.10585268370E+03 -0.29675528168E+02 -0.17268981842E+03  0.26737838545E+03  0.17200000000E+03 0. -1.
         -6    1    1    2    0  502 -0.10585268370E+03  0.29675528168E+02  0.87177629411E+02  0.22196703965E+03  0.17200000000E+03 0.  1.
</event>
<event>
 4    1 -0.6855026E-004  0.1800788E+03  0.7818608E-02  0.1167727E+00
         -5   -1    0    0    0  501 -0.00000000000E+00  0.00000000000E+00  0.39280166362E+03  0.39282978113E+03  0.47000000000E+01 0.  1.
          5   -1    0    0  501    0  0.00000000000E+00 -0.00000000000E+00 -0.93640941037E+02  0.93758817390E+02  0.47000000000E+01 0. -1.
          6    1    1    2  502    0  0.14167427411E+02  0.51416390662E+02  0.65574635383E+02  0.19164653410E+03  0.17200000000E+03 0. -1.
         -6    1    1    2    0  502 -0.14167427411E+02 -0.51416390662E+02  0.23358608720E+03  0.29494206441E+03  0.17200000000E+03 0. -1.
</event>
<event>
 4    1 -0.6855026E-004  0.1953663E+03  0.7818608E-02  0.1153708E+00
         -5   -1    0    0    0  501 -0.00000000000E+00  0.00000000000E+00  0.12318752468E+03  0.12327715213E+03  0.47000000000E+01 0.  1.
          5   -1    0    0  501    0  0.00000000000E+00 -0.00000000000E+00 -0.51247011201E+03  0.51249166404E+03  0.47000000000E+01 0. -1.
          6    1    1    2  502    0 -0.91929074365E+02  0.11534493574E+02 -0.39461657307E+03  0.44032969353E+03  0.17200000000E+03 0. -1.
         -6    1    1    2    0  502  0.91929074365E+02 -0.11534493574E+02  0.53339857443E+01  0.19543912264E+03  0.17200000000E+03 0.  1.
</event>
<event>
 4    1 -0.6855026E-004  0.2171419E+03  0.7818608E-02  0.1136032E+00
          5   -1    0    0  501    0  0.00000000000E+00  0.00000000000E+00  0.30007013391E+03  0.30010693972E+03  0.47000000000E+01 0. -1.
         -5   -1    0    0    0  501 -0.00000000000E+00 -0.00000000000E+00 -0.26719580310E+03  0.26723713663E+03  0.47000000000E+01 0.  1.
          6    1    1    2  502    0 -0.53687924970E+02 -0.12117840066E+03  0.19853709394E+03  0.29422368318E+03  0.17200000000E+03 0. -1.
         -6    1    1    2    0  502  0.53687924970E+02  0.12117840066E+03 -0.16566276313E+03  0.27312039316E+03  0.17200000000E+03 0.  1.
</event>
<event>
 4    1 -0.6855026E-004  0.2705702E+03  0.7818608E-02  0.1100954E+00
         -5   -1    0    0    0  501 -0.00000000000E+00  0.00000000000E+00  0.41152565552E+03  0.41155249380E+03  0.47000000000E+01 0.  1.
          5   -1    0    0  501    0  0.00000000000E+00 -0.00000000000E+00 -0.10708671274E+04  0.10708774414E+04  0.47000000000E+01 0. -1.
          6    1    1    2  502    0  0.98371184524E+02 -0.18424810400E+03 -0.10065295713E+04  0.10422619784E+04  0.17200000000E+03 0. -1.
         -6    1    1    2    0  502 -0.98371184524E+02  0.18424810400E+03  0.34718809945E+03  0.44016795677E+03  0.17200000000E+03 0.  1.
</event>
<event>
 4    1 -0.6855026E-004  0.1771747E+03  0.7818608E-02  0.1170566E+00
          5   -1    0    0  501    0  0.00000000000E+00  0.00000000000E+00  0.12778762552E+04  0.12778848985E+04  0.47000000000E+01 0. -1.
         -5   -1    0    0    0  501 -0.00000000000E+00 -0.00000000000E+00 -0.19271328283E+03  0.19277058744E+03  0.47000000000E+01 0.  1.
          6    1    1    2  502    0  0.73456864235E+01 -0.41867798164E+02  0.12294565510E+04  0.12421571086E+04  0.17200000000E+03 0. -1.
         -6    1    1    2    0  502 -0.73456864235E+01  0.41867798164E+02 -0.14429357856E+03  0.22849837734E+03  0.17200000000E+03 0.  1.
</event>
<event>
 4    1 -0.6855026E-004  0.1885380E+03  0.7818608E-02  0.1159787E+00
         -5   -1    0    0    0  501 -0.00000000000E+00  0.00000000000E+00  0.41355262093E+03  0.41357932767E+03  0.47000000000E+01 0.  1.
          5   -1    0    0  501    0  0.00000000000E+00 -0.00000000000E+00 -0.20668633710E+03  0.20673976866E+03  0.47000000000E+01 0. -1.
          6    1    1    2  502    0  0.75131108062E+02  0.17830005711E+02 -0.13364177980E+03  0.23109893511E+03  0.17200000000E+03 0. -1.
         -6    1    1    2    0  502 -0.75131108062E+02 -0.17830005711E+02  0.34050806363E+03  0.38922016122E+03  0.17200000000E+03 0.  1.
</event>
<event>
 4    1 -0.6855026E-004  0.2359337E+03  0.7818608E-02  0.1122532E+00
         -5   -1    0    0    0  501 -0.00000000000E+00  0.00000000000E+00  0.49327410367E+03  0.49329649436E+03  0.47000000000E+01 0.  1.
          5   -1    0    0  501    0  0.00000000000E+00 -0.00000000000E+00 -0.13878540660E+04  0.13878620243E+04  0.47000000000E+01 0. -1.
          6    1    1    2  502    0  0.30440393014E+02  0.15860044361E+03 -0.13488206795E+04  0.13692998005E+04  0.17200000000E+03 0. -1.
         -6    1    1    2    0  502 -0.30440393014E+02 -0.15860044361E+03  0.45424071716E+03  0.51185871817E+03  0.17200000000E+03 0.  1.
</event>
<event>
 4    1 -0.6855026E-004  0.2039463E+03  0.7818608E-02  0.1146452E+00
          5   -1    0    0  501    0  0.00000000000E+00  0.00000000000E+00  0.55112999471E+03  0.55115003499E+03  0.47000000000E+01 0. -1.
         -5   -1    0    0    0  501 -0.00000000000E+00 -0.00000000000E+00 -0.36706082465E+03  0.36709091379E+03  0.47000000000E+01 0.  1.
          6    1    1    2  502    0  0.78174887273E+02 -0.76803527688E+02  0.50124863676E+03  0.54115089460E+03  0.17200000000E+03 0. -1.
         -6    1    1    2    0  502 -0.78174887273E+02  0.76803527688E+02 -0.31717946670E+03  0.37709005418E+03  0.17200000000E+03 0.  1.
</event>
<event>
 4    1 -0.6855026E-004  0.1789494E+03  0.7818608E-02  0.1168824E+00
         -5   -1    0    0    0  501 -0.00000000000E+00  0.00000000000E+00  0.22849486904E+02  0.23327859991E+02  0.47000000000E+01 0.  1.
          5   -1    0    0  501    0  0.00000000000E+00 -0.00000000000E+00 -0.15271953054E+04  0.15272025376E+04  0.47000000000E+01 0. -1.
          6    1    1    2  502    0 -0.18538187269E+02  0.45773663756E+02 -0.98747180375E+03  0.10035554075E+04  0.17200000000E+03 0. -1.
         -6    1    1    2    0  502  0.18538187269E+02 -0.45773663756E+02 -0.51687401473E+03  0.54697499009E+03  0.17200000000E+03 0.  1.
</event>
<event>
 4    1 -0.6855026E-004  0.5151870E+03  0.7818608E-02  0.1009889E+00
          5   -1    0    0  501    0  0.00000000000E+00  0.00000000000E+00  0.18496791073E+03  0.18502761415E+03  0.47000000000E+01 0. -1.
         -5   -1    0    0    0  501 -0.00000000000E+00 -0.00000000000E+00 -0.15180997016E+04  0.15181069771E+04  0.47000000000E+01 0.  1.
          6    1    1    2  502    0 -0.46849599906E+03  0.12784831755E+03 -0.86622408718E+03  0.10078501191E+04  0.17200000000E+03 0. -1.
         -6    1    1    2    0  502  0.46849599906E+03 -0.12784831755E+03 -0.46690770370E+03  0.69528447215E+03  0.17200000000E+03 0.  1.
</event>
<event>
 4    1 -0.6855026E-004  0.2379572E+03  0.7818608E-02  0.1121161E+00
         -5   -1    0    0    0  501 -0.00000000000E+00  0.00000000000E+00  0.17298572347E+04  0.17298636196E+04  0.47000000000E+01 0.  1.
          5   -1    0    0  501    0  0.00000000000E+00 -0.00000000000E+00 -0.17212235110E+03  0.17218650862E+03  0.47000000000E+01 0. -1.
          6    1    1    2  502    0  0.15369880060E+03 -0.58449161205E+02 -0.76986045517E+02  0.25010093354E+03  0.17200000000E+03 0. -1.
         -6    1    1    2    0  502 -0.15369880060E+03  0.58449161205E+02  0.16347209291E+04  0.16519491947E+04  0.17200000000E+03 0.  1.
</event>
<event>
 4    1 -0.6855026E-004  0.1746998E+03  0.7818608E-02  0.1173033E+00
          5   -1    0    0  501    0  0.00000000000E+00  0.00000000000E+00  0.38171581705E+03  0.38174475109E+03  0.47000000000E+01 0. -1.
         -5   -1    0    0    0  501 -0.00000000000E+00 -0.00000000000E+00 -0.51413568232E+03  0.51415716453E+03  0.47000000000E+01 0.  1.
          6    1    1    2  502    0 -0.14810398015E+02  0.26770507192E+02  0.34544331965E+03  0.38710605141E+03  0.17200000000E+03 0. -1.
         -6    1    1    2    0  502  0.14810398015E+02 -0.26770507192E+02 -0.47786318492E+03  0.50879586422E+03  0.17200000000E+03 0.  1.
</event>
<event>
 4    1 -0.6855026E-004  0.1943665E+03  0.7818608E-02  0.1154581E+00
          5   -1    0    0  501    0  0.00000000000E+00  0.00000000000E+00  0.29680774947E+03  0.29684495977E+03  0.47000000000E+01 0. -1.
         -5   -1    0    0    0  501 -0.00000000000E+00 -0.00000000000E+00 -0.12842623407E+03  0.12851220797E+03  0.47000000000E+01 0.  1.
          6    1    1    2  502    0  0.39839669967E+01 -0.90434861673E+02  0.63364641265E+02  0.20443437568E+03  0.17200000000E+03 0. -1.
         -6    1    1    2    0  502 -0.39839669967E+01  0.90434861673E+02  0.10501687413E+03  0.22092279206E+03  0.17200000000E+03 0.  1.
</event>
<event>
 4    1 -0.6855026E-004  0.1934373E+03  0.7818608E-02  0.1155397E+00
         -5   -1    0    0    0  501 -0.00000000000E+00  0.00000000000E+00  0.32638534882E+03  0.32641918743E+03  0.47000000000E+01 0.  1.
          5   -1    0    0  501    0  0.00000000000E+00 -0.00000000000E+00 -0.11926352848E+03  0.11935610259E+03  0.47000000000E+01 0. -1.
          6    1    1    2  502    0  0.17804171826E+02  0.86700748212E+02  0.59301068060E+02  0.20232307073E+03  0.17200000000E+03 0.  1.
         -6    1    1    2    0  502 -0.17804171826E+02 -0.86700748212E+02  0.14782075228E+03  0.24345221929E+03  0.17200000000E+03 0.  1.
</event>
<event>
 4    1 -0.6855026E-004  0.1724425E+03  0.7818608E-02  0.1175324E+00
          5   -1    0    0  501    0  0.00000000000E+00  0.00000000000E+00  0.20682760877E+03  0.20688100384E+03  0.47000000000E+01 0. -1.
         -5   -1    0    0    0  501 -0.00000000000E+00 -0.00000000000E+00 -0.18039121529E+03  0.18045243294E+03  0.47000000000E+01 0.  1.
          6    1    1    2  502    0  0.48756386756E+01 -0.11341764257E+02 -0.74138650134E+02  0.18770441367E+03  0.17200000000E+03 0.  1.
         -6    1    1    2    0  502 -0.48756386756E+01  0.11341764257E+02  0.10057504362E+03  0.19962902311E+03  0.17200000000E+03 0. -1.
</event>
<event>
 4    1 -0.6855026E-004  0.2532130E+03  0.7818608E-02  0.1111291E+00
          5   -1    0    0  501    0  0.00000000000E+00  0.00000000000E+00  0.36790720936E+03  0.36793722929E+03  0.47000000000E+01 0. -1.
         -5   -1    0    0    0  501 -0.00000000000E+00 -0.00000000000E+00 -0.56737724697E+03  0.56739671341E+03  0.47000000000E+01 0.  1.
          6    1    1    2  502    0  0.14797755374E+03  0.11240769951E+03  0.28954709394E+03  0.38464836791E+03  0.17200000000E+03 0. -1.
         -6    1    1    2    0  502 -0.14797755374E+03 -0.11240769951E+03 -0.48901713156E+03  0.55068557479E+03  0.17200000000E+03 0.  1.
</event>
<event>
 4    1 -0.6855026E-004  0.2708119E+03  0.7818608E-02  0.1100816E+00
          5   -1    0    0  501    0  0.00000000000E+00  0.00000000000E+00  0.15865494376E+04  0.15865563992E+04  0.47000000000E+01 0. -1.
         -5   -1    0    0    0  501 -0.00000000000E+00 -0.00000000000E+00 -0.38856654374E+03  0.38859496769E+03  0.47000000000E+01 0.  1.
          6    1    1    2  502    0 -0.19966926653E+03  0.62348054613E+02  0.15259681320E+04  0.15498121937E+04  0.17200000000E+03 0. -1.
         -6    1    1    2    0  502  0.19966926653E+03 -0.62348054613E+02 -0.32798523808E+03  0.42533917326E+03  0.17200000000E+03 0.  1.
</event>
<event>
 4    1 -0.6855026E-004  0.3000339E+03  0.7818608E-02  0.1085224E+00
         -5   -1    0    0    0  501 -0.00000000000E+00  0.00000000000E+00  0.40014260109E+03  0.40017020280E+03  0.47000000000E+01 0.  1.
          5   -1    0    0  501    0  0.00000000000E+00 -0.00000000000E+00 -0.45759886478E+03  0.45762300100E+03  0.47000000000E+01 0. -1.
          6    1    1    2  502    0  0.96103747976E+02  0.22627502834E+03 -0.33454879532E+03  0.44938092446E+03  0.17200000000E+03 0. -1.
         -6    1    1    2    0  502 -0.96103747976E+02 -0.22627502834E+03  0.27709253163E+03  0.40841227933E+03  0.17200000000E+03 0.  1.
</event>
<event>
 4    1 -0.6855026E-004  0.2525279E+03  0.7818608E-02  0.1111718E+00
          5   -1    0    0  501    0  0.00000000000E+00  0.00000000000E+00  0.50357717666E+03  0.50359910927E+03  0.47000000000E+01 0. -1.
         -5   -1    0    0    0  501 -0.00000000000E+00 -0.00000000000E+00 -0.18267718062E+03  0.18273763246E+03  0.47000000000E+01 0.  1.
          6    1    1    2  502    0 -0.91221650861E+02 -0.16082582140E+03  0.35059046056E+03  0.43206944517E+03  0.17200000000E+03 0. -1.
         -6    1    1    2    0  502  0.91221650861E+02  0.16082582140E+03 -0.29690464523E+02  0.25426729656E+03  0.17200000000E+03 0.  1.
</event>
<event>
 4    1 -0.6855026E-004  0.1816764E+03  0.7818608E-02  0.1166190E+00
         -5   -1    0    0    0  501 -0.00000000000E+00  0.00000000000E+00  0.48927759815E+03  0.48930017172E+03  0.47000000000E+01 0.  1.
          5   -1    0    0  501    0  0.00000000000E+00 -0.00000000000E+00 -0.88287869720E+02  0.88412883335E+02  0.47000000000E+01 0. -1.
          6    1    1    2  502    0  0.36880697114E+02 -0.45410606926E+02  0.59969758727E+02  0.19131827148E+03  0.17200000000E+03 0.  1.
         -6    1    1    2    0  502 -0.36880697114E+02  0.45410606926E+02  0.34101996970E+03  0.38639478358E+03  0.17200000000E+03 0.  1.
</event>
<event>
 4    1 -0.6855026E-004  0.1898500E+03  0.7818608E-02  0.1158597E+00
         -5   -1    0    0    0  501 -0.00000000000E+00  0.00000000000E+00  0.25219537835E+03  0.25223916996E+03  0.47000000000E+01 0.  1.
          5   -1    0    0  501    0  0.00000000000E+00 -0.00000000000E+00 -0.14889756115E+03  0.14897172119E+03  0.47000000000E+01 0. -1.
          6    1    1    2  502    0  0.23970403518E+02 -0.76710209109E+02  0.11143911092E+02  0.19017682083E+03  0.17200000000E+03 0. -1.
         -6    1    1    2    0  502 -0.23970403518E+02  0.76710209109E+02  0.92153906116E+02  0.21103407033E+03  0.17200000000E+03 0.  1.
</event>
<event>
 4    1 -0.6855026E-004  0.1753601E+03  0.7818608E-02  0.1172371E+00
          5   -1    0    0  501    0  0.00000000000E+00  0.00000000000E+00  0.10235920206E+03  0.10246704957E+03  0.47000000000E+01 0. -1.
         -5   -1    0    0    0  501 -0.00000000000E+00 -0.00000000000E+00 -0.30020746709E+03  0.30024425606E+03  0.47000000000E+01 0.  1.
          6    1    1    2  502    0  0.33732742181E+02 -0.54112197398E+01 -0.10194777277E+03  0.20284113874E+03  0.17200000000E+03 0.  1.
         -6    1    1    2    0  502 -0.33732742181E+02  0.54112197398E+01 -0.95900492255E+02  0.19987016688E+03  0.17200000000E+03 0.  1.
</event>
<event>
 4    1 -0.6855026E-004  0.2694256E+03  0.7818608E-02  0.1101609E+00
         -5   -1    0    0    0  501 -0.00000000000E+00  0.00000000000E+00  0.24495848677E+04  0.24495893766E+04  0.47000000000E+01 0.  1.
          5   -1    0    0  501    0  0.00000000000E+00 -0.00000000000E+00 -0.41123783575E+02  0.41391491584E+02  0.47000000000E+01 0. -1.
          6    1    1    2  502    0 -0.16372219320E+03  0.12728391915E+03  0.54303991159E+03  0.60620334723E+03  0.17200000000E+03 0. -1.
         -6    1    1    2    0  502  0.16372219320E+03 -0.12728391915E+03  0.18654211725E+04  0.18847775210E+04  0.17200000000E+03 0.  1.
</event>
<event>
 4    1 -0.6855026E-004  0.2499798E+03  0.7818608E-02  0.1113318E+00
          5   -1    0    0  501    0  0.00000000000E+00  0.00000000000E+00  0.70751500272E+03  0.70753061353E+03  0.47000000000E+01 0. -1.
         -5   -1    0    0    0  501 -0.00000000000E+00 -0.00000000000E+00 -0.60376385728E+03  0.60378215058E+03  0.47000000000E+01 0.  1.
          6    1    1    2  502    0 -0.62472478587E+02  0.17030296274E+03  0.65768225109E+03  0.70358784319E+03  0.17200000000E+03 0. -1.
         -6    1    1    2    0  502  0.62472478587E+02 -0.17030296274E+03 -0.55393110564E+03  0.60772492091E+03  0.17200000000E+03 0.  1.
</event>
<event>
 4    1 -0.6855026E-004  0.1755855E+03  0.7818608E-02  0.1172145E+00
          5   -1    0    0  501    0  0.00000000000E+00  0.00000000000E+00  0.66567095049E+03  0.66568754257E+03  0.47000000000E+01 0. -1.
         -5   -1    0    0    0  501 -0.00000000000E+00 -0.00000000000E+00 -0.58349385141E+02  0.58538369864E+02  0.47000000000E+01 0.  1.
          6    1    1    2  502    0  0.30045703709E+02  0.18534324862E+02  0.46871934114E+03  0.50052780769E+03  0.17200000000E+03 0. -1.
         -6    1    1    2    0  502 -0.30045703709E+02 -0.18534324862E+02  0.13860222421E+03  0.22369810474E+03  0.17200000000E+03 0.  1.
</event>
<event>
 4    1 -0.6855026E-004  0.3686779E+03  0.7818608E-02  0.1055200E+00
         -5   -1    0    0    0  501 -0.00000000000E+00  0.00000000000E+00  0.87299770596E+03  0.87301035767E+03  0.47000000000E+01 0.  1.
          5   -1    0    0  501    0  0.00000000000E+00 -0.00000000000E+00 -0.68377986659E+03  0.68379601926E+03  0.47000000000E+01 0. -1.
          6    1    1    2  502    0 -0.52426436805E+02 -0.32185533166E+03 -0.58945986222E+03  0.69525989023E+03  0.17200000000E+03 0. -1.
         -6    1    1    2    0  502  0.52426436805E+02  0.32185533166E+03  0.77867770159E+03  0.86154648670E+03  0.17200000000E+03 0.  1.
</event>
<event>
 4    1 -0.6855026E-004  0.1913809E+03  0.7818608E-02  0.1157222E+00
         -5   -1    0    0    0  501 -0.00000000000E+00  0.00000000000E+00  0.29916504929E+03  0.29920196643E+03  0.47000000000E+01 0.  1.
          5   -1    0    0  501    0  0.00000000000E+00 -0.00000000000E+00 -0.12784299610E+03  0.12792936196E+03  0.47000000000E+01 0. -1.
          6    1    1    2  502    0 -0.23420407131E+02  0.80586177250E+02  0.41373529526E+02  0.19580198257E+03  0.17200000000E+03 0. -1.
         -6    1    1    2    0  502  0.23420407131E+02 -0.80586177250E+02  0.12994852367E+03  0.23132934582E+03  0.17200000000E+03 0.  1.
</event>
<event>
 4    1 -0.6855026E-004  0.4290826E+03  0.7818608E-02  0.1034150E+00
         -5   -1    0    0    0  501 -0.00000000000E+00  0.00000000000E+00  0.54350845338E+03  0.54352877467E+03  0.47000000000E+01 0.  1.
          5   -1    0    0  501    0  0.00000000000E+00 -0.00000000000E+00 -0.46105510655E+03  0.46107906185E+03  0.47000000000E+01 0. -1.
          6    1    1    2  502    0  0.33988055461E+03 -0.19750726716E+03 -0.21751772578E+03  0.48106743084E+03  0.17200000000E+03 0. -1.
         -6    1    1    2    0  502 -0.33988055461E+03  0.19750726716E+03  0.29997107260E+03  0.52354040569E+03  0.17200000000E+03 0.  1.
</event>
<event>
 4    1 -0.6855026E-004  0.1775277E+03  0.7818608E-02  0.1170217E+00
          5   -1    0    0  501    0  0.00000000000E+00  0.00000000000E+00  0.16950834995E+03  0.16957349646E+03  0.47000000000E+01 0. -1.
         -5   -1    0    0    0  501 -0.00000000000E+00 -0.00000000000E+00 -0.27756824017E+03  0.27760802934E+03  0.47000000000E+01 0.  1.
          6    1    1    2  502    0 -0.11933112873E+02 -0.42304575442E+02  0.74509178299E+02  0.19252972222E+03  0.17200000000E+03 0. -1.
         -6    1    1    2    0  502  0.11933112873E+02  0.42304575442E+02 -0.18256906852E+03  0.25465180358E+03  0.17200000000E+03 0.  1.
</event>
<event>
 4    1 -0.6855026E-004  0.1784765E+03  0.7818608E-02  0.1169286E+00
          5   -1    0    0  501    0  0.00000000000E+00  0.00000000000E+00  0.28893793662E+03  0.28897616029E+03  0.47000000000E+01 0. -1.
         -5   -1    0    0    0  501 -0.00000000000E+00 -0.00000000000E+00 -0.14378657779E+03  0.14386337252E+03  0.47000000000E+01 0.  1.
          6    1    1    2  502    0 -0.47529741135E+02  0.32856853210E+01  0.17720620904E+03  0.25150728129E+03  0.17200000000E+03 0. -1.
         -6    1    1    2    0  502  0.47529741135E+02 -0.32856853210E+01 -0.32054850215E+02  0.18133225152E+03  0.17200000000E+03 0.  1.
</event>
<event>
 4    1 -0.6855026E-004  0.2791536E+03  0.7818608E-02  0.1096152E+00
         -5   -1    0    0    0  501 -0.00000000000E+00  0.00000000000E+00  0.23746341040E+03  0.23750991827E+03  0.47000000000E+01 0.  1.
          5   -1    0    0  501    0  0.00000000000E+00 -0.00000000000E+00 -0.67961220472E+03  0.67962845644E+03  0.47000000000E+01 0. -1.
          6    1    1    2  502    0 -0.13234003491E+03  0.17558150430E+03 -0.55086752360E+03  0.61756115329E+03  0.17200000000E+03 0. -1.
         -6    1    1    2    0  502  0.13234003491E+03 -0.17558150430E+03  0.10871872928E+03  0.29957722142E+03  0.17200000000E+03 0.  1.
</event>
<event>
 4    1 -0.6855026E-004  0.3727279E+03  0.7818608E-02  0.1053655E+00
          5   -1    0    0  501    0  0.00000000000E+00  0.00000000000E+00  0.69875324175E+03  0.69876904830E+03  0.47000000000E+01 0. -1.
         -5   -1    0    0    0  501 -0.00000000000E+00 -0.00000000000E+00 -0.40032051807E+03  0.40034810751E+03  0.47000000000E+01 0.  1.
          6    1    1    2  502    0 -0.20360638192E+03 -0.26055040421E+03  0.53912825959E+03  0.65542761018E+03  0.17200000000E+03 0. -1.
         -6    1    1    2    0  502  0.20360638192E+03  0.26055040421E+03 -0.24069553591E+03  0.44368954563E+03  0.17200000000E+03 0.  1.
</event>
<event>
 4    1 -0.6855026E-004  0.1967343E+03  0.7818608E-02  0.1152524E+00
          5   -1    0    0  501    0  0.00000000000E+00  0.00000000000E+00  0.49784168337E+02  0.50005533864E+02  0.47000000000E+01 0. -1.
         -5   -1    0    0    0  501 -0.00000000000E+00 -0.00000000000E+00 -0.82400607604E+03  0.82401947996E+03  0.47000000000E+01 0.  1.
          6    1    1    2  502    0  0.17667777880E+02 -0.93852128311E+02 -0.28108594128E+03  0.34309427094E+03  0.17200000000E+03 0. -1.
         -6    1    1    2    0  502 -0.17667777880E+02  0.93852128311E+02 -0.49313596642E+03  0.53093074289E+03  0.17200000000E+03 0.  1.
</event>
<event>
 4    1 -0.6855026E-004  0.2006114E+03  0.7818608E-02  0.1149224E+00
          5   -1    0    0  501    0  0.00000000000E+00  0.00000000000E+00  0.27969659647E+03  0.27973608291E+03  0.47000000000E+01 0. -1.
         -5   -1    0    0    0  501 -0.00000000000E+00 -0.00000000000E+00 -0.14434559632E+03  0.14442209380E+03  0.47000000000E+01 0.  1.
          6    1    1    2  502    0 -0.66489578718E+02 -0.78994057140E+02  0.80711856381E+02  0.21623905499E+03  0.17200000000E+03 0.  1.
         -6    1    1    2    0  502  0.66489578718E+02  0.78994057140E+02  0.54639143775E+02  0.20791912171E+03  0.17200000000E+03 0.  1.
</event>
<event>
 4    1 -0.6855026E-004  0.1960873E+03  0.7818608E-02  0.1153083E+00
          5   -1    0    0  501    0  0.00000000000E+00  0.00000000000E+00  0.26236611375E+03  0.26240820804E+03  0.47000000000E+01 0. -1.
         -5   -1    0    0    0  501 -0.00000000000E+00 -0.00000000000E+00 -0.25941727595E+03  0.25945984865E+03  0.47000000000E+01 0.  1.
          6    1    1    2  502    0 -0.84745072307E+02 -0.41042664771E+02  0.17362293569E+03  0.26190676091E+03  0.17200000000E+03 0. -1.
         -6    1    1    2    0  502  0.84745072307E+02  0.41042664771E+02 -0.17067409789E+03  0.25996129578E+03  0.17200000000E+03 0.  1.
</event>
<event>
 4    1 -0.6855026E-004  0.1809770E+03  0.7818608E-02  0.1166861E+00
          5   -1    0    0  501    0  0.00000000000E+00  0.00000000000E+00  0.14961869199E+04  0.14961943020E+04  0.47000000000E+01 0. -1.
         -5   -1    0    0    0  501 -0.00000000000E+00 -0.00000000000E+00 -0.53364810253E+02  0.53571382037E+02  0.47000000000E+01 0.  1.
          6    1    1    2  502    0  0.51475457483E+02  0.22780567162E+02  0.13169326898E+04  0.13293097406E+04  0.17200000000E+03 0. -1.
         -6    1    1    2    0  502 -0.51475457483E+02 -0.22780567162E+02  0.12588941985E+03  0.22045594343E+03  0.17200000000E+03 0.  1.
</event>
<event>
 4    1 -0.6855026E-004  0.1800740E+03  0.7818608E-02  0.1167731E+00
          5   -1    0    0  501    0  0.00000000000E+00  0.00000000000E+00  0.19832948288E+04  0.19833003979E+04  0.47000000000E+01 0. -1.
         -5   -1    0    0    0  501 -0.00000000000E+00 -0.00000000000E+00 -0.17961932939E+03  0.17968081003E+03  0.47000000000E+01 0.  1.
          6    1    1    2  502    0 -0.25874016680E+02  0.46617485314E+02  0.19329432173E+04  0.19413129928E+04  0.17200000000E+03 0. -1.
         -6    1    1    2    0  502  0.25874016680E+02 -0.46617485314E+02 -0.12926771789E+03  0.22166821505E+03  0.17200000000E+03 0.  1.
</event>
<event>
 4    1 -0.6855026E-004  0.1924618E+03  0.7818608E-02  0.1156260E+00
          5   -1    0    0  501    0  0.00000000000E+00  0.00000000000E+00  0.37115342231E+03  0.37118317970E+03  0.47000000000E+01 0. -1.
         -5   -1    0    0    0  501 -0.00000000000E+00 -0.00000000000E+00 -0.16234844784E+03  0.16241646627E+03  0.47000000000E+01 0.  1.
          6    1    1    2  502    0 -0.17992344316E+02 -0.84461915881E+02  0.27006170334E+03  0.33162458187E+03  0.17200000000E+03 0. -1.
         -6    1    1    2    0  502  0.17992344316E+02  0.84461915881E+02 -0.61256728868E+02  0.20197506410E+03  0.17200000000E+03 0.  1.
</event>
<event>
 4    1 -0.6855026E-004  0.1858146E+03  0.7818608E-02  0.1162291E+00
          5   -1    0    0  501    0  0.00000000000E+00  0.00000000000E+00  0.25156141317E+03  0.25160531512E+03  0.47000000000E+01 0. -1.
         -5   -1    0    0    0  501 -0.00000000000E+00 -0.00000000000E+00 -0.48190469328E+03  0.48192761221E+03  0.47000000000E+01 0.  1.
          6    1    1    2  502    0 -0.14573906851E+02  0.68779832308E+02  0.19501133953E+03  0.26936311299E+03  0.17200000000E+03 0. -1.
         -6    1    1    2    0  502  0.14573906851E+02 -0.68779832308E+02 -0.42535461964E+03  0.46416981434E+03  0.17200000000E+03 0.  1.
</event>
<event>
 4    1 -0.6855026E-004  0.1826614E+03  0.7818608E-02  0.1165252E+00
         -5   -1    0    0    0  501 -0.00000000000E+00  0.00000000000E+00  0.18750042113E+03  0.18755931841E+03  0.47000000000E+01 0.  1.
          5   -1    0    0  501    0  0.00000000000E+00 -0.00000000000E+00 -0.84050295378E+03  0.84051609461E+03  0.47000000000E+01 0. -1.
          6    1    1    2  502    0 -0.57200264266E+02 -0.22567688472E+02 -0.78290614382E+03  0.80393233597E+03  0.17200000000E+03 0. -1.
         -6    1    1    2    0  502  0.57200264266E+02  0.22567688472E+02  0.12990361117E+03  0.22414307705E+03  0.17200000000E+03 0.  1.
</event>
