<event>
 4    1  0.3190379E-002  0.1743231E+03  0.7818608E-02  0.1173413E+00
          2   -1    0    0  502    0  0.00000000000E+00  0.00000000000E+00  0.82172758188E+03  0.82172758188E+03  0.00000000000E+00 0. -1.
         -2   -1    0    0    0  501 -0.00000000000E+00 -0.00000000000E+00 -0.40700682455E+02  0.40700682455E+02  0.00000000000E+00 0.  1.
          6    1    1    2  502    0  0.27133902133E+02 -0.82635816523E+01  0.52086881002E+03  0.54926573958E+03  0.17200000000E+03 0. -1.
         -6    1    1    2    0  501 -0.27133902133E+02  0.82635816523E+01  0.26015808941E+03  0.31316252475E+03  0.17200000000E+03 0. -1.
</event>
<event>
 4    1  0.3190379E-002  0.2269210E+03  0.7818608E-02  0.1128826E+00
          2   -1    0    0  502    0  0.00000000000E+00  0.00000000000E+00  0.56460056770E+03  0.56460056770E+03  0.00000000000E+00 0. -1.
         -2   -1    0    0    0  501 -0.00000000000E+00 -0.00000000000E+00 -0.95803389483E+02  0.95803389483E+02  0.00000000000E+00 0.  1.
          6    1    1    2  502    0  0.97175879500E+02 -0.11165128203E+03  0.30675805175E+03  0.38156737629E+03  0.17200000000E+03 0. -1.
         -6    1    1    2    0  501 -0.97175879500E+02  0.11165128203E+03  0.16203912647E+03  0.27883658089E+03  0.17200000000E+03 0.  1.
</event>
<event>
 4    1  0.3190379E-002  0.2353396E+03  0.7818608E-02  0.1122937E+00
          2   -1    0    0  502    0  0.00000000000E+00  0.00000000000E+00  0.10276755428E+04  0.10276755428E+04  0.00000000000E+00 0. -1.
         -2   -1    0    0    0  501 -0.00000000000E+00 -0.00000000000E+00 -0.58333281701E+02  0.58333281701E+02  0.00000000000E+00 0.  1.
          6    1    1    2  502    0  0.70437336135E+02  0.14435826504E+03  0.33486124557E+03  0.40928813908E+03  0.17200000000E+03 0. -1.
         -6    1    1    2    0  501 -0.70437336135E+02 -0.14435826504E+03  0.63448101555E+03  0.67672068544E+03  0.17200000000E+03 0. -1.
</event>
<event>
 4    1  0.3190379E-002  0.1873072E+03  0.7818608E-02  0.1160913E+00
         -1   -1    0    0    0  501 -0.00000000000E+00  0.00000000000E+00  0.88093321287E+02  0.88093321287E+02  0.00000000000E+00 0.  1.
          1   -1    0    0  502    0  0.00000000000E+00 -0.00000000000E+00 -0.40814937911E+03  0.40814937911E+03  0.00000000000E+00 0. -1.
          6    1    1    2  502    0 -0.71939012979E+02  0.18021156878E+02 -0.19865179733E+03  0.27303208652E+03  0.17200000000E+03 0. -1.
         -6    1    1    2    0  501  0.71939012979E+02 -0.18021156878E+02 -0.12140426049E+03  0.22321061388E+03  0.17200000000E+03 0.  1.
</event>
<event>
 4    1  0.3190379E-002  0.1974181E+03  0.7818608E-02  0.1151936E+00
          2   -1    0    0  502    0  0.00000000000E+00  0.00000000000E+00  0.17258372645E+04  0.17258372645E+04  0.00000000000E+00 0. -1.
         -2   -1    0    0    0  501 -0.00000000000E+00 -0.00000000000E+00 -0.21005738143E+03  0.21005738143E+03  0.00000000000E+00 0.  1.
          6    1    1    2  502    0 -0.95635630312E+02  0.15612152876E+02  0.16723277278E+04  0.16839400056E+04  0.17200000000E+03 0. -1.
         -6    1    1    2    0  501  0.95635630312E+02 -0.15612152876E+02 -0.15654784475E+03  0.25195464036E+03  0.17200000000E+03 0.  1.
</event>
<event>
 4    1  0.3190379E-002  0.2923369E+03  0.7818608E-02  0.1089135E+00
          1   -1    0    0  502    0  0.00000000000E+00  0.00000000000E+00  0.10924386537E+04  0.10924386537E+04  0.00000000000E+00 0. -1.
         -1   -1    0    0    0  501 -0.00000000000E+00 -0.00000000000E+00 -0.88206491178E+02  0.88206491178E+02  0.00000000000E+00 0.  1.
          6    1    1    2  502    0  0.98717247732E+02  0.21478304659E+03  0.70065262448E+03  0.75919361977E+03  0.17200000000E+03 0.  1.
         -6    1    1    2    0  501 -0.98717247732E+02 -0.21478304659E+03  0.30357953804E+03  0.42145152511E+03  0.17200000000E+03 0. -1.
</event>
<event>
 4    1  0.3190379E-002  0.4382508E+03  0.7818608E-02  0.1031285E+00
          2   -1    0    0  502    0  0.00000000000E+00  0.00000000000E+00  0.20033435194E+04  0.20033435194E+04  0.00000000000E+00 0. -1.
         -2   -1    0    0    0  501 -0.00000000000E+00 -0.00000000000E+00 -0.95902854906E+02  0.95902854906E+02  0.00000000000E+00 0.  1.
          6    1    1    2  502    0 -0.39541692489E+03  0.78263672231E+02  0.97266916870E+03  0.10668406904E+04  0.17200000000E+03 0. -1.
         -6    1    1    2    0  501  0.39541692489E+03 -0.78263672231E+02  0.93477149578E+03  0.10324056839E+04  0.17200000000E+03 0. -1.
</event>
<event>
 4    1  0.3190379E-002  0.2494177E+03  0.7818608E-02  0.1113673E+00
          2   -1    0    0  502    0  0.00000000000E+00  0.00000000000E+00  0.56875057800E+03  0.56875057800E+03  0.00000000000E+00 0. -1.
         -2   -1    0    0    0  501 -0.00000000000E+00 -0.00000000000E+00 -0.11922079061E+03  0.11922079061E+03  0.00000000000E+00 0.  1.
          6    1    1    2  502    0  0.72675817270E+02  0.16535841392E+03  0.32359944640E+03  0.40856551638E+03  0.17200000000E+03 0.  1.
         -6    1    1    2    0  501 -0.72675817270E+02 -0.16535841392E+03  0.12593034099E+03  0.27940585222E+03  0.17200000000E+03 0.  1.
</event>
<event>
 4    1  0.3190379E-002  0.3208746E+03  0.7818608E-02  0.1075248E+00
         -2   -1    0    0    0  501 -0.00000000000E+00  0.00000000000E+00  0.23574441363E+03  0.23574441363E+03  0.00000000000E+00 0.  1.
          2   -1    0    0  502    0  0.00000000000E+00 -0.00000000000E+00 -0.63375856502E+03  0.63375856502E+03  0.00000000000E+00 0. -1.
          6    1    1    2  502    0  0.22188859539E+03  0.15537673817E+03 -0.44140332033E+03  0.54570813695E+03  0.17200000000E+03 0. -1.
         -6    1    1    2    0  501 -0.22188859539E+03 -0.15537673817E+03  0.43389168936E+02  0.32379484170E+03  0.17200000000E+03 0.  1.
</event>
<event>
 4    1  0.3190379E-002  0.1728050E+03  0.7818608E-02  0.1174954E+00
          1   -1    0    0  502    0  0.00000000000E+00  0.00000000000E+00  0.24761482808E+03  0.24761482808E+03  0.00000000000E+00 0. -1.
         -1   -1    0    0    0  501 -0.00000000000E+00 -0.00000000000E+00 -0.12064863703E+03  0.12064863703E+03  0.00000000000E+00 0.  1.
          6    1    1    2  502    0  0.14784939779E+02 -0.76799563614E+01  0.67296775100E+02  0.18544657482E+03  0.17200000000E+03 0. -1.
         -6    1    1    2    0  501 -0.14784939779E+02  0.76799563614E+01  0.59669415959E+02  0.18281689029E+03  0.17200000000E+03 0.  1.
</event>
<event>
 4    1  0.3190379E-002  0.2502313E+03  0.7818608E-02  0.1113159E+00
          2   -1    0    0  502    0  0.00000000000E+00  0.00000000000E+00  0.15855173747E+04  0.15855173747E+04  0.00000000000E+00 0. -1.
         -2   -1    0    0    0  501 -0.00000000000E+00 -0.00000000000E+00 -0.45325346982E+02  0.45325346982E+02  0.00000000000E+00 0.  1.
          6    1    1    2  502    0  0.93750339286E+02  0.15570028530E+03  0.10626188594E+04  0.10916842700E+04  0.17200000000E+03 0. -1.
         -6    1    1    2    0  501 -0.93750339286E+02 -0.15570028530E+03  0.47757316838E+03  0.53915845177E+03  0.17200000000E+03 0.  1.
</event>
<event>
 4    1  0.3190379E-002  0.1890030E+03  0.7818608E-02  0.1159364E+00
         -2   -1    0    0    0  501 -0.00000000000E+00  0.00000000000E+00  0.16218375051E+02  0.16218375051E+02  0.00000000000E+00 0.  1.
          2   -1    0    0  502    0  0.00000000000E+00 -0.00000000000E+00 -0.36391590843E+04  0.36391590843E+04  0.00000000000E+00 0. -1.
          6    1    1    2  502    0 -0.77843358136E+02  0.88615857323E+01 -0.29598035076E+04  0.29658319103E+04  0.17200000000E+03 0. -1.
         -6    1    1    2    0  501  0.77843358136E+02 -0.88615857323E+01 -0.66313720160E+03  0.68954554908E+03  0.17200000000E+03 0.  1.
</event>
<event>
 4    1  0.3190379E-002  0.2656791E+03  0.7818608E-02  0.1103778E+00
         -4   -1    0    0    0  501 -0.00000000000E+00  0.00000000000E+00  0.78303099873E+02  0.78303099873E+02  0.00000000000E+00 0.  1.
          4   -1    0    0  502    0  0.00000000000E+00 -0.00000000000E+00 -0.10056449121E+04  0.10056449121E+04  0.00000000000E+00 0. -1.
          6    1    1    2  502    0  0.19305561586E+03  0.61081244698E+02 -0.63813433471E+03  0.69123137834E+03  0.17200000000E+03 0. -1.
         -6    1    1    2    0  501 -0.19305561586E+03 -0.61081244698E+02 -0.28920747748E+03  0.39271663359E+03  0.17200000000E+03 0.  1.
</event>
<event>
 4    1  0.3190379E-002  0.1071118E+04  0.7818608E-02  0.9233809E-01
          2   -1    0    0  502    0  0.00000000000E+00  0.00000000000E+00  0.25531753248E+04  0.25531753248E+04  0.00000000000E+00 0. -1.
         -2   -1    0    0    0  501 -0.00000000000E+00 -0.00000000000E+00 -0.97120505161E+03  0.97120505161E+03  0.00000000000E+00 0.  1.
          6    1    1    2  502    0  0.70709907280E+03 -0.78595211955E+03  0.20827047838E+04  0.23419976621E+04  0.17200000000E+03 0. -1.
         -6    1    1    2    0  501 -0.70709907280E+03  0.78595211955E+03 -0.50073451058E+03  0.11823827143E+04  0.17200000000E+03 0.  1.
</event>
<event>
 4    1  0.3190379E-002  0.2478098E+03  0.7818608E-02  0.1114697E+00
         -3   -1    0    0    0  501 -0.00000000000E+00  0.00000000000E+00  0.56969190496E+03  0.56969190496E+03  0.00000000000E+00 0.  1.
          3   -1    0    0  502    0  0.00000000000E+00 -0.00000000000E+00 -0.11793038259E+03  0.11793038259E+03  0.00000000000E+00 0. -1.
          6    1    1    2  502    0 -0.53277173583E+02 -0.17025633014E+03  0.12508620282E+03  0.27759004542E+03  0.17200000000E+03 0. -1.
         -6    1    1    2    0  501  0.53277173583E+02  0.17025633014E+03  0.32667531955E+03  0.41003224213E+03  0.17200000000E+03 0. -1.
</event>
<event>
 4    1  0.3190379E-002  0.8324569E+03  0.7818608E-02  0.9514190E-01
          1   -1    0    0  502    0  0.00000000000E+00  0.00000000000E+00  0.15622435816E+04  0.15622435816E+04  0.00000000000E+00 0. -1.
         -1   -1    0    0    0  501 -0.00000000000E+00 -0.00000000000E+00 -0.45895601719E+03  0.45895601719E+03  0.00000000000E+00 0.  1.
          6    1    1    2  502    0 -0.77356278791E+03  0.25495329004E+03  0.36668524380E+03  0.90963873871E+03  0.17200000000E+03 0. -1.
         -6    1    1    2    0  501  0.77356278791E+03 -0.25495329004E+03  0.73660232059E+03  0.11115608601E+04  0.17200000000E+03 0.  1.
</event>
<event>
 4    1  0.3190379E-002  0.2898811E+03  0.7818608E-02  0.1090411E+00
         -2   -1    0    0    0  501 -0.00000000000E+00  0.00000000000E+00  0.80179262340E+02  0.80179262340E+02  0.00000000000E+00 0.  1.
          2   -1    0    0  502    0  0.00000000000E+00 -0.00000000000E+00 -0.12657283713E+04  0.12657283713E+04  0.00000000000E+00 0. -1.
          6    1    1    2  502    0 -0.20577563564E+03  0.11001569105E+03 -0.87185713999E+03  0.91878503310E+03  0.17200000000E+03 0. -1.
         -6    1    1    2    0  501  0.20577563564E+03 -0.11001569105E+03 -0.31369196900E+03  0.42712260057E+03  0.17200000000E+03 0.  1.
</event>
<event>
 4    1  0.3190379E-002  0.5812029E+03  0.7818608E-02  0.9945190E-01
          2   -1    0    0  502    0  0.00000000000E+00  0.00000000000E+00  0.68305223081E+03  0.68305223081E+03  0.00000000000E+00 0. -1.
         -2   -1    0    0    0  501 -0.00000000000E+00 -0.00000000000E+00 -0.51945195301E+03  0.51945195301E+03  0.00000000000E+00 0.  1.
          6    1    1    2  502    0  0.62351543173E+01 -0.55513412340E+03  0.21346995874E+03  0.61916572530E+03  0.17200000000E+03 0. -1.
         -6    1    1    2    0  501 -0.62351543173E+01  0.55513412340E+03 -0.49869680934E+02  0.58333845852E+03  0.17200000000E+03 0.  1.
</event>
<event>
 4    1  0.3190379E-002  0.3039729E+03  0.7818608E-02  0.1083271E+00
          2   -1    0    0  502    0  0.00000000000E+00  0.00000000000E+00  0.56798853282E+03  0.56798853282E+03  0.00000000000E+00 0. -1.
         -2   -1    0    0    0  501 -0.00000000000E+00 -0.00000000000E+00 -0.17245425877E+03  0.17245425877E+03  0.00000000000E+00 0.  1.
          6    1    1    2  502    0 -0.23373916013E+03 -0.90451969420E+02  0.28591231708E+03  0.41730732896E+03  0.17200000000E+03 0. -1.
         -6    1    1    2    0  501  0.23373916013E+03  0.90451969420E+02  0.10962195697E+03  0.32313546262E+03  0.17200000000E+03 0.  1.
</event>
<event>
 4    1  0.3190379E-002  0.1997181E+03  0.7818608E-02  0.1149977E+00
         -2   -1    0    0    0  501 -0.00000000000E+00  0.00000000000E+00  0.13830672430E+03  0.13830672430E+03  0.00000000000E+00 0.  1.
          2   -1    0    0  502    0  0.00000000000E+00 -0.00000000000E+00 -0.97546205021E+03  0.97546205021E+03  0.00000000000E+00 0. -1.
          6    1    1    2  502    0  0.28794418589E+02 -0.97335496271E+02 -0.88594527709E+03  0.90817748892E+03  0.17200000000E+03 0. -1.
         -6    1    1    2    0  501 -0.28794418589E+02  0.97335496271E+02  0.48789951181E+02  0.20559128559E+03  0.17200000000E+03 0.  1.
</event>
<event>
 4    1  0.3190379E-002  0.3280080E+03  0.7818608E-02  0.1072022E+00
         -2   -1    0    0    0  501 -0.00000000000E+00  0.00000000000E+00  0.10359425460E+04  0.10359425460E+04  0.00000000000E+00 0.  1.
          2   -1    0    0  502    0  0.00000000000E+00 -0.00000000000E+00 -0.21867904255E+03  0.21867904255E+03  0.00000000000E+00 0. -1.
          6    1    1    2  502    0 -0.26082280221E+03 -0.99883662674E+02 -0.45930028127E+02  0.33120816370E+03  0.17200000000E+03 0. -1.
         -6    1    1    2    0  501  0.26082280221E+03  0.99883662674E+02  0.86319353161E+03  0.92341342487E+03  0.17200000000E+03 0.  1.
</event>
<event>
 4    1  0.3190379E-002  0.4283998E+03  0.7818608E-02  0.1034367E+00
          1   -1    0    0  502    0  0.00000000000E+00  0.00000000000E+00  0.10676084428E+04  0.10676084428E+04  0.00000000000E+00 0. -1.
         -1   -1    0    0    0  501 -0.00000000000E+00 -0.00000000000E+00 -0.19014893768E+03  0.19014893768E+03  0.00000000000E+00 0.  1.
          6    1    1    2  502    0  0.35180984976E+03 -0.17370163046E+03  0.63352939895E+03  0.76477835099E+03  0.17200000000E+03 0. -1.
         -6    1    1    2    0  501 -0.35180984976E+03  0.17370163046E+03  0.24393010615E+03  0.49297902947E+03  0.17200000000E+03 0.  1.
</event>
<event>
 4    1  0.3190379E-002  0.3192178E+03  0.7818608E-02  0.1076010E+00
          2   -1    0    0  502    0  0.00000000000E+00  0.00000000000E+00  0.65913207991E+03  0.65913207991E+03  0.00000000000E+00 0. -1.
         -2   -1    0    0    0  501 -0.00000000000E+00 -0.00000000000E+00 -0.18877928660E+03  0.18877928660E+03  0.00000000000E+00 0.  1.
          6    1    1    2  502    0 -0.92313551669E+02  0.25257510266E+03  0.41557890560E+03  0.52402843538E+03  0.17200000000E+03 0. -1.
         -6    1    1    2    0  501  0.92313551669E+02 -0.25257510266E+03  0.54773887708E+02  0.32388293113E+03  0.17200000000E+03 0.  1.
</event>
<event>
 4    1  0.3190379E-002  0.1740397E+03  0.7818608E-02  0.1173699E+00
          2   -1    0    0  502    0  0.00000000000E+00  0.00000000000E+00  0.49085049454E+03  0.49085049454E+03  0.00000000000E+00 0. -1.
         -2   -1    0    0    0  501 -0.00000000000E+00 -0.00000000000E+00 -0.10365274621E+03  0.10365274621E+03  0.00000000000E+00 0.  1.
          6    1    1    2  502    0 -0.11068085600E+02 -0.24152200660E+02  0.38268866659E+03  0.42040509851E+03  0.17200000000E+03 0. -1.
         -6    1    1    2    0  501  0.11068085600E+02  0.24152200660E+02  0.45090817386E+01  0.17409814225E+03  0.17200000000E+03 0.  1.
</event>
<event>
 4    1  0.3190379E-002  0.1764189E+03  0.7818608E-02  0.1171315E+00
          3   -1    0    0  502    0  0.00000000000E+00  0.00000000000E+00  0.11259098973E+03  0.11259098973E+03  0.00000000000E+00 0. -1.
         -3   -1    0    0    0  501 -0.00000000000E+00 -0.00000000000E+00 -0.27778257643E+03  0.27778257643E+03  0.00000000000E+00 0.  1.
          6    1    1    2  502    0 -0.27970756372E+02 -0.27518166267E+02 -0.96212027620E+02  0.20094866744E+03  0.17200000000E+03 0. -1.
         -6    1    1    2    0  501  0.27970756372E+02  0.27518166267E+02 -0.68979559076E+02  0.18942489873E+03  0.17200000000E+03 0.  1.
</event>
<event>
 4    1  0.3190379E-002  0.2275716E+03  0.7818608E-02  0.1128361E+00
          3   -1    0    0  502    0  0.00000000000E+00  0.00000000000E+00  0.34186442996E+03  0.34186442996E+03  0.00000000000E+00 0. -1.
         -3   -1    0    0    0  501 -0.00000000000E+00 -0.00000000000E+00 -0.21830379421E+03  0.21830379421E+03  0.00000000000E+00 0.  1.
          6    1    1    2  502    0 -0.11746114468E+03 -0.91693495258E+02  0.21673083775E+03  0.31426274614E+03  0.17200000000E+03 0. -1.
         -6    1    1    2    0  501  0.11746114468E+03  0.91693495258E+02 -0.93170202002E+02  0.24590547802E+03  0.17200000000E+03 0.  1.
</event>
<event>
 4    1  0.3190379E-002  0.2042879E+03  0.7818608E-02  0.1146171E+00
          1   -1    0    0  502    0  0.00000000000E+00  0.00000000000E+00  0.35308735158E+03  0.35308735158E+03  0.00000000000E+00 0. -1.
         -1   -1    0    0    0  501 -0.00000000000E+00 -0.00000000000E+00 -0.12073599756E+03  0.12073599756E+03  0.00000000000E+00 0.  1.
          6    1    1    2  502    0 -0.82160051412E+02 -0.73479828364E+02  0.81814072331E+02  0.22006158605E+03  0.17200000000E+03 0.  1.
         -6    1    1    2    0  501  0.82160051412E+02  0.73479828364E+02  0.15053728170E+03  0.25376176309E+03  0.17200000000E+03 0.  1.
</event>
<event>
 4    1  0.3190379E-002  0.1916128E+03  0.7818608E-02  0.1157015E+00
         -1   -1    0    0    0  501 -0.00000000000E+00  0.00000000000E+00  0.78296580605E+02  0.78296580605E+02  0.00000000000E+00 0.  1.
          1   -1    0    0  502    0  0.00000000000E+00 -0.00000000000E+00 -0.63395764178E+03  0.63395764178E+03  0.00000000000E+00 0. -1.
          6    1    1    2  502    0  0.79335211220E+02  0.28937839541E+02 -0.45953082743E+03  0.49787955939E+03  0.17200000000E+03 0. -1.
         -6    1    1    2    0  501 -0.79335211220E+02 -0.28937839541E+02 -0.96130233747E+02  0.21437466300E+03  0.17200000000E+03 0. -1.
</event>
<event>
 4    1  0.3190379E-002  0.3579894E+03  0.7818608E-02  0.1059383E+00
          2   -1    0    0  502    0  0.00000000000E+00  0.00000000000E+00  0.41480220601E+04  0.41480220601E+04  0.00000000000E+00 0. -1.
         -2   -1    0    0    0  501 -0.00000000000E+00 -0.00000000000E+00 -0.48218523288E+02  0.48218523288E+02  0.00000000000E+00 0.  1.
          6    1    1    2  502    0  0.15960050250E+03 -0.27037023976E+03  0.33074705154E+04  0.33267878798E+04  0.17200000000E+03 0. -1.
         -6    1    1    2    0  501 -0.15960050250E+03  0.27037023976E+03  0.79233302135E+03  0.86945270353E+03  0.17200000000E+03 0.  1.
</event>
<event>
 4    1  0.3190379E-002  0.3270835E+03  0.7818608E-02  0.1072435E+00
         -1   -1    0    0    0  501 -0.00000000000E+00  0.00000000000E+00  0.63125745424E+03  0.63125745424E+03  0.00000000000E+00 0.  1.
          1   -1    0    0  502    0  0.00000000000E+00 -0.00000000000E+00 -0.17083756997E+03  0.17083756997E+03  0.00000000000E+00 0. -1.
          6    1    1    2  502    0  0.10340479108E+03  0.25827709113E+03  0.26600044904E+03  0.42159203682E+03  0.17200000000E+03 0. -1.
         -6    1    1    2    0  501 -0.10340479108E+03 -0.25827709113E+03  0.19441943522E+03  0.38050298739E+03  0.17200000000E+03 0.  1.
</event>
<event>
 4    1  0.3190379E-002  0.2157978E+03  0.7818608E-02  0.1137055E+00
          3   -1    0    0  502    0  0.00000000000E+00  0.00000000000E+00  0.29289969650E+02  0.29289969650E+02  0.00000000000E+00 0. -1.
         -3   -1    0    0    0  501 -0.00000000000E+00 -0.00000000000E+00 -0.16118969643E+04  0.16118969643E+04  0.00000000000E+00 0.  1.
          6    1    1    2  502    0 -0.13031876738E+03  0.13088435032E+01 -0.88712171909E+03  0.91299158741E+03  0.17200000000E+03 0. -1.
         -6    1    1    2    0  501  0.13031876738E+03 -0.13088435032E+01 -0.69548527557E+03  0.72819534655E+03  0.17200000000E+03 0.  1.
</event>
<event>
 4    1  0.3190379E-002  0.2609578E+03  0.7818608E-02  0.1106569E+00
          2   -1    0    0  502    0  0.00000000000E+00  0.00000000000E+00  0.56197353598E+02  0.56197353598E+02  0.00000000000E+00 0. -1.
         -2   -1    0    0    0  501 -0.00000000000E+00 -0.00000000000E+00 -0.14290603679E+04  0.14290603679E+04  0.00000000000E+00 0.  1.
          6    1    1    2  502    0  0.11479456902E+03 -0.15917664735E+03 -0.97600164587E+03  0.10102862025E+04  0.17200000000E+03 0.  1.
         -6    1    1    2    0  501 -0.11479456902E+03  0.15917664735E+03 -0.39686136839E+03  0.47497151900E+03  0.17200000000E+03 0. -1.
</event>
<event>
 4    1  0.3190379E-002  0.2188198E+03  0.7818608E-02  0.1134766E+00
          1   -1    0    0  502    0  0.00000000000E+00  0.00000000000E+00  0.21357158774E+04  0.21357158774E+04  0.00000000000E+00 0. -1.
         -1   -1    0    0    0  501 -0.00000000000E+00 -0.00000000000E+00 -0.23611305727E+02  0.23611305727E+02  0.00000000000E+00 0.  1.
          6    1    1    2  502    0 -0.36663674738E+02 -0.13020712107E+03  0.12985981522E+04  0.13169051904E+04  0.17200000000E+03 0. -1.
         -6    1    1    2    0  501  0.36663674738E+02  0.13020712107E+03  0.81350641945E+03  0.84242199277E+03  0.17200000000E+03 0.  1.
</event>
<event>
 4    1  0.3190379E-002  0.1746486E+03  0.7818608E-02  0.1173085E+00
          1   -1    0    0  502    0  0.00000000000E+00  0.00000000000E+00  0.27080211498E+04  0.27080211498E+04  0.00000000000E+00 0. -1.
         -1   -1    0    0    0  501 -0.00000000000E+00 -0.00000000000E+00 -0.11271459740E+02  0.11271459740E+02  0.00000000000E+00 0.  1.
          6    1    1    2  502    0 -0.10072911942E+02  0.28577680803E+02  0.13842107545E+04  0.13951851347E+04  0.17200000000E+03 0. -1.
         -6    1    1    2    0  501  0.10072911942E+02 -0.28577680803E+02  0.13125389356E+04  0.13241074748E+04  0.17200000000E+03 0.  1.
</event>
<event>
 4    1  0.3190379E-002  0.1755830E+03  0.7818608E-02  0.1172148E+00
         -4   -1    0    0    0  501 -0.00000000000E+00  0.00000000000E+00  0.42286172363E+02  0.42286172363E+02  0.00000000000E+00 0.  1.
          4   -1    0    0  502    0  0.00000000000E+00 -0.00000000000E+00 -0.74807825306E+03  0.74807825306E+03  0.00000000000E+00 0. -1.
          6    1    1    2  502    0  0.10026994701E+02  0.33835605185E+02 -0.41589690914E+03  0.45144172142E+03  0.17200000000E+03 0. -1.
         -6    1    1    2    0  501 -0.10026994701E+02 -0.33835605185E+02 -0.28989517155E+03  0.33892270400E+03  0.17200000000E+03 0.  1.
</event>
<event>
 4    1  0.3190379E-002  0.1768616E+03  0.7818608E-02  0.1170875E+00
          2   -1    0    0  502    0  0.00000000000E+00  0.00000000000E+00  0.31824140797E+03  0.31824140797E+03  0.00000000000E+00 0. -1.
         -2   -1    0    0    0  501 -0.00000000000E+00 -0.00000000000E+00 -0.98401925405E+02  0.98401925405E+02  0.00000000000E+00 0.  1.
          6    1    1    2  502    0 -0.21124811232E+02 -0.35352043721E+02  0.11693799657E+03  0.21202480913E+03  0.17200000000E+03 0.  1.
         -6    1    1    2    0  501  0.21124811232E+02  0.35352043721E+02  0.10290148600E+03  0.20461852425E+03  0.17200000000E+03 0. -1.
</event>
<event>
 4    1  0.3190379E-002  0.2831322E+03  0.7818608E-02  0.1093990E+00
          1   -1    0    0  502    0  0.00000000000E+00  0.00000000000E+00  0.18313078388E+04  0.18313078388E+04  0.00000000000E+00 0. -1.
         -1   -1    0    0    0  501 -0.00000000000E+00 -0.00000000000E+00 -0.53003954737E+02  0.53003954737E+02  0.00000000000E+00 0.  1.
          6    1    1    2  502    0 -0.18911802322E+03 -0.12171366073E+03  0.12823091135E+04  0.13131947702E+04  0.17200000000E+03 0. -1.
         -6    1    1    2    0  501  0.18911802322E+03  0.12171366073E+03  0.49599477053E+03  0.57111702330E+03  0.17200000000E+03 0.  1.
</event>
<event>
 4    1  0.3190379E-002  0.1848602E+03  0.7818608E-02  0.1163181E+00
          1   -1    0    0  502    0  0.00000000000E+00  0.00000000000E+00  0.52922734241E+03  0.52922734241E+03  0.00000000000E+00 0. -1.
         -1   -1    0    0    0  501 -0.00000000000E+00 -0.00000000000E+00 -0.96167448326E+02  0.96167448326E+02  0.00000000000E+00 0.  1.
          6    1    1    2  502    0  0.35059368245E+02  0.57966548863E+02  0.39576474098E+03  0.43681003914E+03  0.17200000000E+03 0. -1.
         -6    1    1    2    0  501 -0.35059368245E+02 -0.57966548863E+02  0.37295153100E+02  0.18858475159E+03  0.17200000000E+03 0.  1.
</event>
<event>
 4    1  0.3190379E-002  0.2063185E+03  0.7818608E-02  0.1144515E+00
          2   -1    0    0  502    0  0.00000000000E+00  0.00000000000E+00  0.98412767833E+03  0.98412767833E+03  0.00000000000E+00 0. -1.
         -2   -1    0    0    0  501 -0.00000000000E+00 -0.00000000000E+00 -0.46780252050E+02  0.46780252050E+02  0.00000000000E+00 0.  1.
          6    1    1    2  502    0 -0.10022178516E+03  0.54211866437E+02  0.61019545350E+03  0.64413183756E+03  0.17200000000E+03 0. -1.
         -6    1    1    2    0  501  0.10022178516E+03 -0.54211866437E+02  0.32715197278E+03  0.38677609282E+03  0.17200000000E+03 0.  1.
</event>
<event>
 4    1  0.3190379E-002  0.1743228E+03  0.7818608E-02  0.1173413E+00
          1   -1    0    0  502    0  0.00000000000E+00  0.00000000000E+00  0.85987293450E+03  0.85987293450E+03  0.00000000000E+00 0. -1.
         -1   -1    0    0    0  501 -0.00000000000E+00 -0.00000000000E+00 -0.39614636092E+02  0.39614636092E+02  0.00000000000E+00 0.  1.
          6    1    1    2  502    0 -0.23794059658E+02  0.15436381615E+02  0.55785469976E+03  0.58445727406E+03  0.17200000000E+03 0. -1.
         -6    1    1    2    0  501  0.23794059658E+02 -0.15436381615E+02  0.26240359865E+03  0.31503029653E+03  0.17200000000E+03 0.  1.
</event>
<event>
 4    1  0.3190379E-002  0.1752282E+03  0.7818608E-02  0.1172503E+00
          3   -1    0    0  502    0  0.00000000000E+00  0.00000000000E+00  0.14817262969E+03  0.14817262969E+03  0.00000000000E+00 0. -1.
         -3   -1    0    0    0  501 -0.00000000000E+00 -0.00000000000E+00 -0.21166340077E+03  0.21166340077E+03  0.00000000000E+00 0.  1.
          6    1    1    2  502    0 -0.13266521042E+02  0.30739685467E+02 -0.56890894936E+01  0.17532054809E+03  0.17200000000E+03 0. -1.
         -6    1    1    2    0  501  0.13266521042E+02 -0.30739685467E+02 -0.57801681587E+02  0.18451548238E+03  0.17200000000E+03 0.  1.
</event>
<event>
 4    1  0.3190379E-002  0.2778692E+03  0.7818608E-02  0.1096858E+00
         -2   -1    0    0    0  501 -0.00000000000E+00  0.00000000000E+00  0.28844547386E+03  0.28844547386E+03  0.00000000000E+00 0.  1.
          2   -1    0    0  502    0  0.00000000000E+00 -0.00000000000E+00 -0.26827338717E+03  0.26827338717E+03  0.00000000000E+00 0. -1.
          6    1    1    2  502    0 -0.10001281518E+03 -0.19397088571E+03  0.23170436746E+02  0.27883352891E+03  0.17200000000E+03 0. -1.
         -6    1    1    2    0  501  0.10001281518E+03  0.19397088571E+03 -0.29983500635E+01  0.27788533212E+03  0.17200000000E+03 0.  1.
</event>
<event>
 4    1  0.3190379E-002  0.3734407E+03  0.7818608E-02  0.1053385E+00
         -2   -1    0    0    0  501 -0.00000000000E+00  0.00000000000E+00  0.11902543777E+03  0.11902543777E+03  0.00000000000E+00 0.  1.
          2   -1    0    0  502    0  0.00000000000E+00 -0.00000000000E+00 -0.11761637751E+04  0.11761637751E+04  0.00000000000E+00 0. -1.
          6    1    1    2  502    0 -0.27203186442E+03 -0.18940076400E+03 -0.48851957012E+03  0.61490597253E+03  0.17200000000E+03 0. -1.
         -6    1    1    2    0  501  0.27203186442E+03  0.18940076400E+03 -0.56861876716E+03  0.68028324030E+03  0.17200000000E+03 0.  1.
</event>
<event>
 4    1  0.3190379E-002  0.3038208E+03  0.7818608E-02  0.1083346E+00
         -2   -1    0    0    0  501 -0.00000000000E+00  0.00000000000E+00  0.42608871673E+03  0.42608871673E+03  0.00000000000E+00 0.  1.
          2   -1    0    0  502    0  0.00000000000E+00 -0.00000000000E+00 -0.40055276986E+03  0.40055276986E+03  0.00000000000E+00 0. -1.
          6    1    1    2  502    0  0.22554323176E+03  0.10887289254E+03 -0.26730132349E+03  0.40466906684E+03  0.17200000000E+03 0. -1.
         -6    1    1    2    0  501 -0.22554323176E+03 -0.10887289254E+03  0.29283727035E+03  0.42197241975E+03  0.17200000000E+03 0.  1.
</event>
<event>
 4    1  0.3190379E-002  0.4349388E+03  0.7818608E-02  0.1032311E+00
          2   -1    0    0  502    0  0.00000000000E+00  0.00000000000E+00  0.25258171576E+04  0.25258171576E+04  0.00000000000E+00 0. -1.
         -2   -1    0    0    0  501 -0.00000000000E+00 -0.00000000000E+00 -0.85331066882E+02  0.85331066882E+02  0.00000000000E+00 0.  1.
          6    1    1    2  502    0  0.37995363323E+03  0.12338149945E+03  0.16768165996E+04  0.17323064586E+04  0.17200000000E+03 0. -1.
         -6    1    1    2    0  501 -0.37995363323E+03 -0.12338149945E+03  0.76366949118E+03  0.87884176594E+03  0.17200000000E+03 0. -1.
</event>
<event>
 4    1  0.3190379E-002  0.1756751E+03  0.7818608E-02  0.1172056E+00
         -3   -1    0    0    0  501 -0.00000000000E+00  0.00000000000E+00  0.10466265862E+03  0.10466265862E+03  0.00000000000E+00 0.  1.
          3   -1    0    0  502    0  0.00000000000E+00 -0.00000000000E+00 -0.35816180760E+03  0.35816180760E+03  0.00000000000E+00 0. -1.
          6    1    1    2  502    0  0.35686634628E+02  0.20489361607E+01 -0.29469218687E+02  0.17812964066E+03  0.17200000000E+03 0.  1.
         -6    1    1    2    0  501 -0.35686634628E+02 -0.20489361607E+01 -0.22402993030E+03  0.28469482556E+03  0.17200000000E+03 0. -1.
</event>
<event>
 4    1  0.3190379E-002  0.1743976E+03  0.7818608E-02  0.1173338E+00
          1   -1    0    0  502    0  0.00000000000E+00  0.00000000000E+00  0.15636799043E+04  0.15636799043E+04  0.00000000000E+00 0. -1.
         -1   -1    0    0    0  501 -0.00000000000E+00 -0.00000000000E+00 -0.22079800776E+02  0.22079800776E+02  0.00000000000E+00 0.  1.
          6    1    1    2  502    0  0.99794311195E+01  0.27036059286E+02  0.49719736867E+03  0.52689634745E+03  0.17200000000E+03 0.  1.
         -6    1    1    2    0  501 -0.99794311195E+01 -0.27036059286E+02  0.10444027349E+04  0.10588633576E+04  0.17200000000E+03 0. -1.
</event>
<event>
 4    1  0.3190379E-002  0.1797364E+03  0.7818608E-02  0.1168058E+00
         -1   -1    0    0    0  501 -0.00000000000E+00  0.00000000000E+00  0.18616430222E+03  0.18616430222E+03  0.00000000000E+00 0.  1.
          1   -1    0    0  502    0  0.00000000000E+00 -0.00000000000E+00 -0.55594675473E+03  0.55594675473E+03  0.00000000000E+00 0. -1.
          6    1    1    2  502    0 -0.35405925605E+02 -0.38309024661E+02 -0.49263590383E+03  0.52439993772E+03  0.17200000000E+03 0. -1.
         -6    1    1    2    0  501  0.35405925605E+02  0.38309024661E+02  0.12285345131E+03  0.21771111923E+03  0.17200000000E+03 0.  1.
</event>
<event>
 4    1  0.3190379E-002  0.2062260E+03  0.7818608E-02  0.1144590E+00
         -2   -1    0    0    0  501 -0.00000000000E+00  0.00000000000E+00  0.29762118547E+03  0.29762118547E+03  0.00000000000E+00 0.  1.
          2   -1    0    0  502    0  0.00000000000E+00 -0.00000000000E+00 -0.19325591885E+03  0.19325591885E+03  0.00000000000E+00 0. -1.
          6    1    1    2  502    0 -0.24357990133E+02 -0.11113896048E+03 -0.73106814434E+02  0.21880079190E+03  0.17200000000E+03 0. -1.
         -6    1    1    2    0  501  0.24357990133E+02  0.11113896048E+03  0.17747208105E+03  0.27207631241E+03  0.17200000000E+03 0. -1.
</event>
<event>
 4    1  0.3190379E-002  0.1762248E+03  0.7818608E-02  0.1171508E+00
          1   -1    0    0  502    0  0.00000000000E+00  0.00000000000E+00  0.51912858592E+03  0.51912858592E+03  0.00000000000E+00 0. -1.
         -1   -1    0    0    0  501 -0.00000000000E+00 -0.00000000000E+00 -0.72888233120E+02  0.72888233120E+02  0.00000000000E+00 0.  1.
          6    1    1    2  502    0  0.33967838241E+02  0.17814917560E+02  0.34845003195E+03  0.39047741303E+03  0.17200000000E+03 0. -1.
         -6    1    1    2    0  501 -0.33967838241E+02 -0.17814917560E+02  0.97790320852E+02  0.20153940601E+03  0.17200000000E+03 0.  1.
</event>
<event>
 4    1  0.3190379E-002  0.2393131E+03  0.7818608E-02  0.1120251E+00
         -2   -1    0    0    0  501 -0.00000000000E+00  0.00000000000E+00  0.48678187325E+02  0.48678187325E+02  0.00000000000E+00 0.  1.
          2   -1    0    0  502    0  0.00000000000E+00 -0.00000000000E+00 -0.14259283366E+04  0.14259283366E+04  0.00000000000E+00 0. -1.
          6    1    1    2  502    0  0.12983119152E+03  0.10407026777E+03 -0.99698264372E+03  0.10253024680E+04  0.17200000000E+03 0. -1.
         -6    1    1    2    0  501 -0.12983119152E+03 -0.10407026777E+03 -0.38026750553E+03  0.44930405594E+03  0.17200000000E+03 0.  1.
</event>
<event>
 4    1  0.3190379E-002  0.2192765E+03  0.7818608E-02  0.1134424E+00
          2   -1    0    0  502    0  0.00000000000E+00  0.00000000000E+00  0.14385630274E+04  0.14385630274E+04  0.00000000000E+00 0. -1.
         -2   -1    0    0    0  501 -0.00000000000E+00 -0.00000000000E+00 -0.42828569587E+02  0.42828569587E+02  0.00000000000E+00 0.  1.
          6    1    1    2  502    0  0.85784849279E+02 -0.10554213179E+03  0.35077239098E+03  0.41367070506E+03  0.17200000000E+03 0. -1.
         -6    1    1    2    0  501 -0.85784849279E+02  0.10554213179E+03  0.10449620669E+04  0.10677208920E+04  0.17200000000E+03 0.  1.
</event>
<event>
 4    1  0.3190379E-002  0.3571660E+03  0.7818608E-02  0.1059712E+00
          2   -1    0    0  502    0  0.00000000000E+00  0.00000000000E+00  0.21824425773E+04  0.21824425773E+04  0.00000000000E+00 0. -1.
         -2   -1    0    0    0  501 -0.00000000000E+00 -0.00000000000E+00 -0.59725044301E+02  0.59725044301E+02  0.00000000000E+00 0.  1.
          6    1    1    2  502    0  0.15511162318E+03  0.27188950795E+03  0.12250515493E+04  0.12760559622E+04  0.17200000000E+03 0. -1.
         -6    1    1    2    0  501 -0.15511162318E+03 -0.27188950795E+03  0.89766598376E+03  0.96611165947E+03  0.17200000000E+03 0.  1.
</event>
<event>
 4    1  0.3190379E-002  0.1920418E+03  0.7818608E-02  0.1156633E+00
         -2   -1    0    0    0  501 -0.00000000000E+00  0.00000000000E+00  0.47004123161E+02  0.47004123161E+02  0.00000000000E+00 0.  1.
          2   -1    0    0  502    0  0.00000000000E+00 -0.00000000000E+00 -0.83546845310E+03  0.83546845310E+03  0.00000000000E+00 0. -1.
          6    1    1    2  502    0 -0.75830500896E+02  0.39316614623E+02 -0.50309348573E+03  0.53850080449E+03  0.17200000000E+03 0. -1.
         -6    1    1    2    0  501  0.75830500896E+02 -0.39316614623E+02 -0.28537084421E+03  0.34397177177E+03  0.17200000000E+03 0.  1.
</event>
<event>
 4    1  0.3190379E-002  0.4724898E+03  0.7818608E-02  0.1021220E+00
         -1   -1    0    0    0  501 -0.00000000000E+00  0.00000000000E+00  0.63262111990E+03  0.63262111990E+03  0.00000000000E+00 0.  1.
          1   -1    0    0  502    0  0.00000000000E+00 -0.00000000000E+00 -0.81801544766E+03  0.81801544766E+03  0.00000000000E+00 0. -1.
          6    1    1    2  502    0 -0.34483948497E+03 -0.27340140816E+03 -0.63962777924E+03  0.79521713786E+03  0.17200000000E+03 0. -1.
         -6    1    1    2    0  501  0.34483948497E+03  0.27340140816E+03  0.45423345148E+03  0.65541942970E+03  0.17200000000E+03 0.  1.
</event>
<event>
 4    1  0.3190379E-002  0.2111372E+03  0.7818608E-02  0.1140669E+00
         -1   -1    0    0    0  501 -0.00000000000E+00  0.00000000000E+00  0.12390077325E+03  0.12390077325E+03  0.00000000000E+00 0.  1.
          1   -1    0    0  502    0  0.00000000000E+00 -0.00000000000E+00 -0.78046701346E+03  0.78046701346E+03  0.00000000000E+00 0. -1.
          6    1    1    2  502    0 -0.11098599320E+03 -0.51739953618E+02 -0.66026125289E+03  0.69319826569E+03  0.17200000000E+03 0. -1.
         -6    1    1    2    0  501  0.11098599320E+03  0.51739953618E+02  0.36950126776E+01  0.21116952101E+03  0.17200000000E+03 0.  1.
</event>
<event>
 4    1  0.3190379E-002  0.2928050E+03  0.7818608E-02  0.1088894E+00
          1   -1    0    0  502    0  0.00000000000E+00  0.00000000000E+00  0.48803845356E+03  0.48803845356E+03  0.00000000000E+00 0. -1.
         -1   -1    0    0    0  501 -0.00000000000E+00 -0.00000000000E+00 -0.17573698371E+03  0.17573698371E+03  0.00000000000E+00 0.  1.
          6    1    1    2  502    0 -0.14928308169E+02 -0.23649082773E+03  0.14977618853E+03  0.32888854136E+03  0.17200000000E+03 0. -1.
         -6    1    1    2    0  501  0.14928308169E+02  0.23649082773E+03  0.16252528132E+03  0.33488689591E+03  0.17200000000E+03 0.  1.
</event>
<event>
 4    1  0.3190379E-002  0.4537578E+03  0.7818608E-02  0.1026607E+00
          2   -1    0    0  502    0  0.00000000000E+00  0.00000000000E+00  0.72925040519E+03  0.72925040519E+03  0.00000000000E+00 0. -1.
         -2   -1    0    0    0  501 -0.00000000000E+00 -0.00000000000E+00 -0.34112433934E+03  0.34112433934E+03  0.00000000000E+00 0.  1.
          6    1    1    2  502    0  0.38049891351E+03 -0.17757447637E+03  0.41623157313E+03  0.61574738352E+03  0.17200000000E+03 0. -1.
         -6    1    1    2    0  501 -0.38049891351E+03  0.17757447637E+03 -0.28105507281E+02  0.45462736101E+03  0.17200000000E+03 0.  1.
</event>
<event>
 4    1  0.3190379E-002  0.2835553E+03  0.7818608E-02  0.1093763E+00
         -2   -1    0    0    0  501 -0.00000000000E+00  0.00000000000E+00  0.36281695348E+02  0.36281695348E+02  0.00000000000E+00 0.  1.
          2   -1    0    0  502    0  0.00000000000E+00 -0.00000000000E+00 -0.30733906750E+04  0.30733906750E+04  0.00000000000E+00 0. -1.
          6    1    1    2  502    0  0.63849213133E+02 -0.21620099375E+03 -0.23397408229E+04  0.23568603502E+04  0.17200000000E+03 0.  1.
         -6    1    1    2    0  501 -0.63849213133E+02  0.21620099375E+03 -0.69736815674E+03  0.75281202019E+03  0.17200000000E+03 0.  1.
</event>
<event>
 4    1  0.3190379E-002  0.2067402E+03  0.7818608E-02  0.1144174E+00
          2   -1    0    0  502    0  0.00000000000E+00  0.00000000000E+00  0.96855233311E+02  0.96855233311E+02  0.00000000000E+00 0. -1.
         -2   -1    0    0    0  501 -0.00000000000E+00 -0.00000000000E+00 -0.70794009310E+03  0.70794009310E+03  0.00000000000E+00 0.  1.
          6    1    1    2  502    0  0.69371515824E+02 -0.91351605739E+02 -0.58582931087E+02  0.21488015938E+03  0.17200000000E+03 0. -1.
         -6    1    1    2    0  501 -0.69371515824E+02  0.91351605739E+02 -0.55250192870E+03  0.58991516703E+03  0.17200000000E+03 0.  1.
</event>
<event>
 4    1  0.3190379E-002  0.2256713E+03  0.7818608E-02  0.1129724E+00
          1   -1    0    0  502    0  0.00000000000E+00  0.00000000000E+00  0.14937353704E+04  0.14937353704E+04  0.00000000000E+00 0. -1.
         -1   -1    0    0    0  501 -0.00000000000E+00 -0.00000000000E+00 -0.35627757035E+02  0.35627757035E+02  0.00000000000E+00 0.  1.
          6    1    1    2  502    0  0.33693592963E+02  0.14215578365E+03  0.57039867942E+03  0.61341843672E+03  0.17200000000E+03 0.  1.
         -6    1    1    2    0  501 -0.33693592963E+02 -0.14215578365E+03  0.88770893393E+03  0.91594469069E+03  0.17200000000E+03 0.  1.
</event>
<event>
 4    1  0.3190379E-002  0.1808394E+03  0.7818608E-02  0.1166993E+00
         -1   -1    0    0    0  501 -0.00000000000E+00  0.00000000000E+00  0.17700523244E+03  0.17700523244E+03  0.00000000000E+00 0.  1.
          1   -1    0    0  502    0  0.00000000000E+00 -0.00000000000E+00 -0.10074855978E+04  0.10074855978E+04  0.00000000000E+00 0. -1.
          6    1    1    2  502    0 -0.45169162507E+02 -0.32842622252E+02 -0.95043349411E+03  0.96748473777E+03  0.17200000000E+03 0. -1.
         -6    1    1    2    0  501  0.45169162507E+02  0.32842622252E+02  0.11995312875E+03  0.21700609248E+03  0.17200000000E+03 0.  1.
</event>
<event>
 4    1  0.3190379E-002  0.2911653E+03  0.7818608E-02  0.1089742E+00
         -1   -1    0    0    0  501 -0.00000000000E+00  0.00000000000E+00  0.17529202596E+03  0.17529202596E+03  0.00000000000E+00 0.  1.
          1   -1    0    0  502    0  0.00000000000E+00 -0.00000000000E+00 -0.73155529928E+03  0.73155529928E+03  0.00000000000E+00 0. -1.
          6    1    1    2  502    0  0.22652622638E+03  0.62282319053E+02 -0.54209116644E+03  0.61533734750E+03  0.17200000000E+03 0. -1.
         -6    1    1    2    0  501 -0.22652622638E+03 -0.62282319053E+02 -0.14172106882E+02  0.29150997773E+03  0.17200000000E+03 0.  1.
</event>
<event>
 4    1  0.3190379E-002  0.2977614E+03  0.7818608E-02  0.1086365E+00
          3   -1    0    0  502    0  0.00000000000E+00  0.00000000000E+00  0.52597167142E+03  0.52597167142E+03  0.00000000000E+00 0. -1.
         -3   -1    0    0    0  501 -0.00000000000E+00 -0.00000000000E+00 -0.50674649229E+03  0.50674649229E+03  0.00000000000E+00 0.  1.
          6    1    1    2  502    0 -0.56505685287E+01 -0.24299367826E+03  0.43143495455E+03  0.52421176695E+03  0.17200000000E+03 0. -1.
         -6    1    1    2    0  501  0.56505685287E+01  0.24299367826E+03 -0.41220977541E+03  0.50850639676E+03  0.17200000000E+03 0.  1.
</event>
<event>
 4    1  0.3190379E-002  0.2430882E+03  0.7818608E-02  0.1117752E+00
         -2   -1    0    0    0  501 -0.00000000000E+00  0.00000000000E+00  0.50156260380E+02  0.50156260380E+02  0.00000000000E+00 0.  1.
          2   -1    0    0  502    0  0.00000000000E+00 -0.00000000000E+00 -0.11845723710E+04  0.11845723710E+04  0.00000000000E+00 0. -1.
          6    1    1    2  502    0 -0.60174047211E+02 -0.16089424526E+03 -0.52176972996E+03  0.57561751643E+03  0.17200000000E+03 0.  1.
         -6    1    1    2    0  501  0.60174047211E+02  0.16089424526E+03 -0.61264638064E+03  0.65911111493E+03  0.17200000000E+03 0.  1.
</event>
<event>
 4    1  0.3190379E-002  0.1900893E+03  0.7818608E-02  0.1158381E+00
          3   -1    0    0  502    0  0.00000000000E+00  0.00000000000E+00  0.28721029325E+03  0.28721029325E+03  0.00000000000E+00 0. -1.
         -3   -1    0    0    0  501 -0.00000000000E+00 -0.00000000000E+00 -0.26639150664E+03  0.26639150664E+03  0.00000000000E+00 0.  1.
          6    1    1    2  502    0 -0.80766733458E+02  0.51650084954E+01  0.21149052639E+03  0.28436277059E+03  0.17200000000E+03 0. -1.
         -6    1    1    2    0  501  0.80766733458E+02 -0.51650084954E+01 -0.19067173979E+03  0.26923902930E+03  0.17200000000E+03 0.  1.
</event>
<event>
 4    1  0.3190379E-002  0.2020869E+03  0.7818608E-02  0.1147990E+00
          1   -1    0    0  502    0  0.00000000000E+00  0.00000000000E+00  0.31052656645E+03  0.31052656645E+03  0.00000000000E+00 0. -1.
         -1   -1    0    0    0  501 -0.00000000000E+00 -0.00000000000E+00 -0.13955886057E+03  0.13955886057E+03  0.00000000000E+00 0.  1.
          6    1    1    2  502    0 -0.63150900468E+02 -0.85247053913E+02  0.13950969674E+03  0.24556476114E+03  0.17200000000E+03 0.  1.
         -6    1    1    2    0  501  0.63150900468E+02  0.85247053913E+02  0.31458009132E+02  0.20452066587E+03  0.17200000000E+03 0.  1.
</event>
<event>
 4    1  0.3190379E-002  0.3603500E+03  0.7818608E-02  0.1058445E+00
         -2   -1    0    0    0  501 -0.00000000000E+00  0.00000000000E+00  0.64677199572E+02  0.64677199572E+02  0.00000000000E+00 0.  1.
          2   -1    0    0  502    0  0.00000000000E+00 -0.00000000000E+00 -0.22023132239E+04  0.22023132239E+04  0.00000000000E+00 0. -1.
          6    1    1    2  502    0  0.31009325299E+03  0.64111551445E+02 -0.14057726543E+04  0.14512232330E+04  0.17200000000E+03 0. -1.
         -6    1    1    2    0  501 -0.31009325299E+03 -0.64111551445E+02 -0.73186337007E+03  0.81576719046E+03  0.17200000000E+03 0.  1.
</event>
<event>
 4    1  0.3190379E-002  0.1901713E+03  0.7818608E-02  0.1158307E+00
         -1   -1    0    0    0  501 -0.00000000000E+00  0.00000000000E+00  0.16464930343E+03  0.16464930343E+03  0.00000000000E+00 0.  1.
          1   -1    0    0  502    0  0.00000000000E+00 -0.00000000000E+00 -0.38937326630E+03  0.38937326630E+03  0.00000000000E+00 0. -1.
          6    1    1    2  502    0 -0.30183890877E+02 -0.75299824265E+02 -0.29525021964E+03  0.35119485047E+03  0.17200000000E+03 0. -1.
         -6    1    1    2    0  501  0.30183890877E+02  0.75299824265E+02  0.70526256766E+02  0.20282771925E+03  0.17200000000E+03 0.  1.
</event>
<event>
 4    1  0.3190379E-002  0.1873262E+03  0.7818608E-02  0.1160895E+00
         -2   -1    0    0    0  501 -0.00000000000E+00  0.00000000000E+00  0.34687149318E+02  0.34687149318E+02  0.00000000000E+00 0.  1.
          2   -1    0    0  502    0  0.00000000000E+00 -0.00000000000E+00 -0.10693311344E+04  0.10693311344E+04  0.00000000000E+00 0. -1.
          6    1    1    2  502    0  0.74111531389E+02  0.38185646133E+01 -0.38911143663E+03  0.43185508060E+03  0.17200000000E+03 0. -1.
         -6    1    1    2    0  501 -0.74111531389E+02 -0.38185646133E+01 -0.64553254846E+03  0.67216320313E+03  0.17200000000E+03 0. -1.
</event>
<event>
 4    1  0.3190379E-002  0.2503595E+03  0.7818608E-02  0.1113078E+00
         -2   -1    0    0    0  501 -0.00000000000E+00  0.00000000000E+00  0.21204625477E+03  0.21204625477E+03  0.00000000000E+00 0.  1.
          2   -1    0    0  502    0  0.00000000000E+00 -0.00000000000E+00 -0.36934855268E+03  0.36934855268E+03  0.00000000000E+00 0. -1.
          6    1    1    2  502    0  0.29093975567E+01 -0.18189948886E+03 -0.20855241086E+03  0.32584351569E+03  0.17200000000E+03 0. -1.
         -6    1    1    2    0  501 -0.29093975567E+01  0.18189948886E+03  0.51250112943E+02  0.25555129176E+03  0.17200000000E+03 0.  1.
</event>
<event>
 4    1  0.3190379E-002  0.2382506E+03  0.7818608E-02  0.1120964E+00
         -1   -1    0    0    0  501 -0.00000000000E+00  0.00000000000E+00  0.14238290475E+03  0.14238290475E+03  0.00000000000E+00 0.  1.
          1   -1    0    0  502    0  0.00000000000E+00 -0.00000000000E+00 -0.41610236889E+03  0.41610236889E+03  0.00000000000E+00 0. -1.
          6    1    1    2  502    0 -0.80789864644E+01 -0.16466356980E+03 -0.79699026887E+02  0.25122757836E+03  0.17200000000E+03 0.  1.
         -6    1    1    2    0  501  0.80789864644E+01  0.16466356980E+03 -0.19402043725E+03  0.30725769528E+03  0.17200000000E+03 0.  1.
</event>
<event>
 4    1  0.3190379E-002  0.1839950E+03  0.7818608E-02  0.1163992E+00
         -2   -1    0    0    0  501 -0.00000000000E+00  0.00000000000E+00  0.17415091275E+03  0.17415091275E+03  0.00000000000E+00 0.  1.
          2   -1    0    0  502    0  0.00000000000E+00 -0.00000000000E+00 -0.22524448023E+03  0.22524448023E+03  0.00000000000E+00 0. -1.
          6    1    1    2  502    0  0.64940377192E+02 -0.72726546430E+01 -0.99450584399E+02  0.20915200891E+03  0.17200000000E+03 0. -1.
         -6    1    1    2    0  501 -0.64940377192E+02  0.72726546430E+01  0.48357016920E+02  0.19024338407E+03  0.17200000000E+03 0.  1.
</event>
<event>
 4    1  0.3190379E-002  0.2296712E+03  0.7818608E-02  0.1126871E+00
         -1   -1    0    0    0  501 -0.00000000000E+00  0.00000000000E+00  0.19764892365E+03  0.19764892365E+03  0.00000000000E+00 0.  1.
          1   -1    0    0  502    0  0.00000000000E+00 -0.00000000000E+00 -0.37199233428E+03  0.37199233428E+03  0.00000000000E+00 0. -1.
          6    1    1    2  502    0 -0.15113613361E+03 -0.17964027905E+02 -0.23857252614E+03  0.33115810032E+03  0.17200000000E+03 0. -1.
         -6    1    1    2    0  501  0.15113613361E+03  0.17964027905E+02  0.64229115512E+02  0.23848315760E+03  0.17200000000E+03 0.  1.
</event>
<event>
 4    1  0.3190379E-002  0.3623673E+03  0.7818608E-02  0.1057650E+00
          1   -1    0    0  502    0  0.00000000000E+00  0.00000000000E+00  0.87446453633E+03  0.87446453633E+03  0.00000000000E+00 0. -1.
         -1   -1    0    0    0  501 -0.00000000000E+00 -0.00000000000E+00 -0.57832406294E+03  0.57832406294E+03  0.00000000000E+00 0.  1.
          6    1    1    2  502    0  0.21399907244E+03  0.23649615279E+03  0.77308697494E+03  0.85379945193E+03  0.17200000000E+03 0. -1.
         -6    1    1    2    0  501 -0.21399907244E+03 -0.23649615279E+03 -0.47694650155E+03  0.59898914734E+03  0.17200000000E+03 0.  1.
</event>
<event>
 4    1  0.3190379E-002  0.1914092E+03  0.7818608E-02  0.1157196E+00
          1   -1    0    0  502    0  0.00000000000E+00  0.00000000000E+00  0.10676973257E+04  0.10676973257E+04  0.00000000000E+00 0. -1.
         -1   -1    0    0    0  501 -0.00000000000E+00 -0.00000000000E+00 -0.35007787874E+02  0.35007787874E+02  0.00000000000E+00 0.  1.
          6    1    1    2  502    0  0.65903303314E+02 -0.52059799823E+02  0.43875344345E+03  0.47868784430E+03  0.17200000000E+03 0. -1.
         -6    1    1    2    0  501 -0.65903303314E+02  0.52059799823E+02  0.59393609440E+03  0.62401726930E+03  0.17200000000E+03 0. -1.
</event>
<event>
 4    1  0.3190379E-002  0.3713595E+03  0.7818608E-02  0.1054174E+00
         -2   -1    0    0    0  501 -0.00000000000E+00  0.00000000000E+00  0.18789867010E+03  0.18789867010E+03  0.00000000000E+00 0.  1.
          2   -1    0    0  502    0  0.00000000000E+00 -0.00000000000E+00 -0.83536632809E+03  0.83536632809E+03  0.00000000000E+00 0. -1.
          6    1    1    2  502    0  0.25034634875E+03 -0.21366002821E+03 -0.14546422206E+03  0.39883297492E+03  0.17200000000E+03 0. -1.
         -6    1    1    2    0  501 -0.25034634875E+03  0.21366002821E+03 -0.50200343593E+03  0.62443202326E+03  0.17200000000E+03 0.  1.
</event>
<event>
 4    1  0.3190379E-002  0.2237980E+03  0.7818608E-02  0.1131083E+00
         -2   -1    0    0    0  501 -0.00000000000E+00  0.00000000000E+00  0.32497579127E+02  0.32497579127E+02  0.00000000000E+00 0.  1.
          2   -1    0    0  502    0  0.00000000000E+00 -0.00000000000E+00 -0.20304950786E+04  0.20304950786E+04  0.00000000000E+00 0. -1.
          6    1    1    2  502    0 -0.23089064016E+02  0.14130965198E+03 -0.15053462562E+04  0.15218912162E+04  0.17200000000E+03 0. -1.
         -6    1    1    2    0  501  0.23089064016E+02 -0.14130965198E+03 -0.49265124324E+03  0.54110144159E+03  0.17200000000E+03 0.  1.
</event>
<event>
 4    1  0.3190379E-002  0.1927109E+03  0.7818608E-02  0.1156039E+00
          2   -1    0    0  502    0  0.00000000000E+00  0.00000000000E+00  0.11717020897E+04  0.11717020897E+04  0.00000000000E+00 0. -1.
         -2   -1    0    0    0  501 -0.00000000000E+00 -0.00000000000E+00 -0.39352856236E+02  0.39352856236E+02  0.00000000000E+00 0.  1.
          6    1    1    2  502    0  0.43955011388E+02  0.74976343453E+02  0.29906488569E+03  0.35577703827E+03  0.17200000000E+03 0.  1.
         -6    1    1    2    0  501 -0.43955011388E+02 -0.74976343453E+02  0.83328434777E+03  0.85527790766E+03  0.17200000000E+03 0. -1.
</event>
<event>
 4    1  0.3190379E-002  0.2102250E+03  0.7818608E-02  0.1141388E+00
         -2   -1    0    0    0  501 -0.00000000000E+00  0.00000000000E+00  0.53243754259E+03  0.53243754259E+03  0.00000000000E+00 0.  1.
          2   -1    0    0  502    0  0.00000000000E+00 -0.00000000000E+00 -0.11032104023E+03  0.11032104023E+03  0.00000000000E+00 0. -1.
          6    1    1    2  502    0  0.63090696386E+02 -0.10310243473E+03  0.37097870353E+03  0.42640326745E+03  0.17200000000E+03 0.  1.
         -6    1    1    2    0  501 -0.63090696386E+02  0.10310243473E+03  0.51137798830E+02  0.21635531537E+03  0.17200000000E+03 0. -1.
</event>
<event>
 4    1  0.3190379E-002  0.2358976E+03  0.7818608E-02  0.1122556E+00
          1   -1    0    0  502    0  0.00000000000E+00  0.00000000000E+00  0.97986349957E+03  0.97986349957E+03  0.00000000000E+00 0. -1.
         -1   -1    0    0    0  501 -0.00000000000E+00 -0.00000000000E+00 -0.19868396593E+03  0.19868396593E+03  0.00000000000E+00 0.  1.
          6    1    1    2  502    0 -0.14341846043E+03 -0.74127064126E+02  0.88857414343E+03  0.91935394968E+03  0.17200000000E+03 0. -1.
         -6    1    1    2    0  501  0.14341846043E+03  0.74127064126E+02 -0.10739460979E+03  0.25919351581E+03  0.17200000000E+03 0.  1.
</event>
<event>
 4    1  0.3190379E-002  0.2858611E+03  0.7818608E-02  0.1092530E+00
         -1   -1    0    0    0  501 -0.00000000000E+00  0.00000000000E+00  0.15146967361E+03  0.15146967361E+03  0.00000000000E+00 0.  1.
          1   -1    0    0  502    0  0.00000000000E+00 -0.00000000000E+00 -0.63587577949E+03  0.63587577949E+03  0.00000000000E+00 0. -1.
          6    1    1    2  502    0  0.17104314145E+03 -0.15125074601E+03 -0.88934471724E+02  0.29937582512E+03  0.17200000000E+03 0. -1.
         -6    1    1    2    0  501 -0.17104314145E+03  0.15125074601E+03 -0.39547163416E+03  0.48796962798E+03  0.17200000000E+03 0.  1.
</event>
<event>
 4    1  0.3190379E-002  0.4879778E+03  0.7818608E-02  0.1016965E+00
         -2   -1    0    0    0  501 -0.00000000000E+00  0.00000000000E+00  0.10911741257E+03  0.10911741257E+03  0.00000000000E+00 0.  1.
          2   -1    0    0  502    0  0.00000000000E+00 -0.00000000000E+00 -0.24642296913E+04  0.24642296913E+04  0.00000000000E+00 0. -1.
          6    1    1    2  502    0 -0.77076505043E+01  0.45659493443E+03 -0.16127979090E+04  0.16850042841E+04  0.17200000000E+03 0. -1.
         -6    1    1    2    0  501  0.77076505043E+01 -0.45659493443E+03 -0.74231436977E+03  0.88834281985E+03  0.17200000000E+03 0.  1.
</event>
<event>
 4    1  0.3190379E-002  0.1897931E+03  0.7818608E-02  0.1158648E+00
         -2   -1    0    0    0  501 -0.00000000000E+00  0.00000000000E+00  0.23865606053E+02  0.23865606053E+02  0.00000000000E+00 0.  1.
          2   -1    0    0  502    0  0.00000000000E+00 -0.00000000000E+00 -0.15346669643E+04  0.15346669643E+04  0.00000000000E+00 0. -1.
          6    1    1    2  502    0  0.11481636674E+02 -0.79407842925E+02 -0.65530222007E+03  0.68223341543E+03  0.17200000000E+03 0. -1.
         -6    1    1    2    0  501 -0.11481636674E+02  0.79407842925E+02 -0.85549913818E+03  0.87629915492E+03  0.17200000000E+03 0.  1.
</event>
<event>
 4    1  0.3190379E-002  0.1827337E+03  0.7818608E-02  0.1165183E+00
         -2   -1    0    0    0  501 -0.00000000000E+00  0.00000000000E+00  0.13428006466E+04  0.13428006466E+04  0.00000000000E+00 0.  1.
          2   -1    0    0  502    0  0.00000000000E+00 -0.00000000000E+00 -0.46362686885E+02  0.46362686885E+02  0.00000000000E+00 0. -1.
          6    1    1    2  502    0  0.57093302200E+02  0.23408927357E+02  0.17527121047E+03  0.25320272561E+03  0.17200000000E+03 0. -1.
         -6    1    1    2    0  501 -0.57093302200E+02 -0.23408927357E+02  0.11211667492E+04  0.11359606078E+04  0.17200000000E+03 0.  1.
</event>
<event>
 4    1  0.3190379E-002  0.2205948E+03  0.7818608E-02  0.1133440E+00
          2   -1    0    0  502    0  0.00000000000E+00  0.00000000000E+00  0.82380637095E+03  0.82380637095E+03  0.00000000000E+00 0. -1.
         -2   -1    0    0    0  501 -0.00000000000E+00 -0.00000000000E+00 -0.10482267705E+03  0.10482267705E+03  0.00000000000E+00 0.  1.
          6    1    1    2  502    0 -0.12780697420E+03 -0.52377936187E+02  0.66624842782E+03  0.70181837995E+03  0.17200000000E+03 0. -1.
         -6    1    1    2    0  501  0.12780697420E+03  0.52377936187E+02  0.52735266083E+02  0.22681066805E+03  0.17200000000E+03 0.  1.
</event>
<event>
 4    1  0.3190379E-002  0.1936218E+03  0.7818608E-02  0.1155235E+00
         -2   -1    0    0    0  501 -0.00000000000E+00  0.00000000000E+00  0.42835590014E+02  0.42835590014E+02  0.00000000000E+00 0.  1.
          2   -1    0    0  502    0  0.00000000000E+00 -0.00000000000E+00 -0.10954821129E+04  0.10954821129E+04  0.00000000000E+00 0. -1.
          6    1    1    2  502    0  0.81301373113E+02  0.35992711252E+02 -0.78155097276E+03  0.80517781362E+03  0.17200000000E+03 0. -1.
         -6    1    1    2    0  501 -0.81301373113E+02 -0.35992711252E+02 -0.27109555010E+03  0.33313988926E+03  0.17200000000E+03 0.  1.
</event>
<event>
 4    1  0.3190379E-002  0.2811949E+03  0.7818608E-02  0.1095038E+00
         -3   -1    0    0    0  501 -0.00000000000E+00  0.00000000000E+00  0.11402920628E+03  0.11402920628E+03  0.00000000000E+00 0.  1.
          3   -1    0    0  502    0  0.00000000000E+00 -0.00000000000E+00 -0.76746194942E+03  0.76746194942E+03  0.00000000000E+00 0. -1.
          6    1    1    2  502    0 -0.11386002244E+03  0.19110857239E+03 -0.46361107838E+03  0.54222303819E+03  0.17200000000E+03 0. -1.
         -6    1    1    2    0  501  0.11386002244E+03 -0.19110857239E+03 -0.18982166476E+03  0.33926811752E+03  0.17200000000E+03 0.  1.
</event>
<event>
 4    1  0.3190379E-002  0.3814105E+03  0.7818608E-02  0.1050414E+00
         -2   -1    0    0    0  501 -0.00000000000E+00  0.00000000000E+00  0.22964882339E+03  0.22964882339E+03  0.00000000000E+00 0.  1.
          2   -1    0    0  502    0  0.00000000000E+00 -0.00000000000E+00 -0.35237074846E+04  0.35237074846E+04  0.00000000000E+00 0. -1.
          6    1    1    2  502    0 -0.13250578354E+03 -0.31357958001E+03 -0.33466703204E+04  0.33683343316E+04  0.17200000000E+03 0. -1.
         -6    1    1    2    0  501  0.13250578354E+03  0.31357958001E+03  0.52611659187E+02  0.38502197645E+03  0.17200000000E+03 0.  1.
</event>
<event>
 4    1  0.3190379E-002  0.2029976E+03  0.7818608E-02  0.1147234E+00
          2   -1    0    0  502    0  0.00000000000E+00  0.00000000000E+00  0.50281864665E+03  0.50281864665E+03  0.00000000000E+00 0. -1.
         -2   -1    0    0    0  501 -0.00000000000E+00 -0.00000000000E+00 -0.83727643560E+02  0.83727643560E+02  0.00000000000E+00 0.  1.
          6    1    1    2  502    0  0.66880826090E+02  0.84563429453E+02  0.16686137713E+03  0.26277507050E+03  0.17200000000E+03 0.  1.
         -6    1    1    2    0  501 -0.66880826090E+02 -0.84563429453E+02  0.25222962595E+03  0.32377121970E+03  0.17200000000E+03 0.  1.
</event>
<event>
 4    1  0.3190379E-002  0.3869933E+03  0.7818608E-02  0.1048379E+00
          1   -1    0    0  502    0  0.00000000000E+00  0.00000000000E+00  0.10166395254E+04  0.10166395254E+04  0.00000000000E+00 0. -1.
         -1   -1    0    0    0  501 -0.00000000000E+00 -0.00000000000E+00 -0.14999462902E+03  0.14999462902E+03  0.00000000000E+00 0.  1.
          6    1    1    2  502    0 -0.34633079397E+03  0.15322446443E+02  0.51132338359E+03  0.64126078847E+03  0.17200000000E+03 0. -1.
         -6    1    1    2    0  501  0.34633079397E+03 -0.15322446443E+02  0.35532151284E+03  0.52537336600E+03  0.17200000000E+03 0.  1.
</event>
<event>
 4    1  0.3190379E-002  0.2703503E+03  0.7818608E-02  0.1101079E+00
         -1   -1    0    0    0  501 -0.00000000000E+00  0.00000000000E+00  0.37085015628E+02  0.37085015628E+02  0.00000000000E+00 0.  1.
          1   -1    0    0  502    0  0.00000000000E+00 -0.00000000000E+00 -0.25588651601E+04  0.25588651601E+04  0.00000000000E+00 0. -1.
          6    1    1    2  502    0  0.15171197726E+03  0.14313896406E+03 -0.63868422269E+03  0.69354655460E+03  0.17200000000E+03 0. -1.
         -6    1    1    2    0  501 -0.15171197726E+03 -0.14313896406E+03 -0.18830959218E+04  0.19024036212E+04  0.17200000000E+03 0. -1.
</event>
<event>
 4    1  0.3190379E-002  0.5579189E+03  0.7818608E-02  0.9996775E-01
         -2   -1    0    0    0  501 -0.00000000000E+00  0.00000000000E+00  0.93886204468E+02  0.93886204468E+02  0.00000000000E+00 0.  1.
          2   -1    0    0  502    0  0.00000000000E+00 -0.00000000000E+00 -0.33971148867E+04  0.33971148867E+04  0.00000000000E+00 0. -1.
          6    1    1    2  502    0 -0.27008519710E+03  0.45688448920E+03 -0.19222761083E+04  0.20016040784E+04  0.17200000000E+03 0. -1.
         -6    1    1    2    0  501  0.27008519710E+03 -0.45688448920E+03 -0.13809525739E+04  0.14893970127E+04  0.17200000000E+03 0.  1.
</event>
<event>
 4    1  0.3190379E-002  0.1825583E+03  0.7818608E-02  0.1165350E+00
         -2   -1    0    0    0  501 -0.00000000000E+00  0.00000000000E+00  0.22394624331E+02  0.22394624331E+02  0.00000000000E+00 0.  1.
          2   -1    0    0  502    0  0.00000000000E+00 -0.00000000000E+00 -0.18109486962E+04  0.18109486962E+04  0.00000000000E+00 0. -1.
          6    1    1    2  502    0  0.26803494760E+02 -0.55000866459E+02 -0.12812652202E+04  0.12942055815E+04  0.17200000000E+03 0. -1.
         -6    1    1    2    0  501 -0.26803494760E+02  0.55000866459E+02 -0.50728885169E+03  0.53913773907E+03  0.17200000000E+03 0.  1.
</event>
<event>
 4    1  0.3190379E-002  0.1790008E+03  0.7818608E-02  0.1168774E+00
          2   -1    0    0  502    0  0.00000000000E+00  0.00000000000E+00  0.17864583058E+03  0.17864583058E+03  0.00000000000E+00 0. -1.
         -2   -1    0    0    0  501 -0.00000000000E+00 -0.00000000000E+00 -0.20293052951E+03  0.20293052951E+03  0.00000000000E+00 0.  1.
          6    1    1    2  502    0 -0.35846788509E+02  0.34239037335E+02  0.52884694403E+02  0.18664965799E+03  0.17200000000E+03 0. -1.
         -6    1    1    2    0  501  0.35846788509E+02 -0.34239037335E+02 -0.77169393329E+02  0.19492670210E+03  0.17200000000E+03 0.  1.
</event>
<event>
 4    1  0.3190379E-002  0.2558803E+03  0.7818608E-02  0.1109644E+00
          2   -1    0    0  502    0  0.00000000000E+00  0.00000000000E+00  0.64329282326E+03  0.64329282326E+03  0.00000000000E+00 0. -1.
         -2   -1    0    0    0  501 -0.00000000000E+00 -0.00000000000E+00 -0.10508438891E+03  0.10508438891E+03  0.00000000000E+00 0.  1.
          6    1    1    2  502    0 -0.18849920032E+03 -0.18942091117E+02  0.20275659312E+03  0.32647356308E+03  0.17200000000E+03 0. -1.
         -6    1    1    2    0  501  0.18849920032E+03  0.18942091117E+02  0.33545184123E+03  0.42190364909E+03  0.17200000000E+03 0.  1.
</event>
<event>
 4    1  0.3190379E-002  0.4649846E+03  0.7818608E-02  0.1023345E+00
          2   -1    0    0  502    0  0.00000000000E+00  0.00000000000E+00  0.22967676276E+03  0.22967676276E+03  0.00000000000E+00 0. -1.
         -2   -1    0    0    0  501 -0.00000000000E+00 -0.00000000000E+00 -0.98042498777E+03  0.98042498777E+03  0.00000000000E+00 0.  1.
          6    1    1    2  502    0 -0.37617106999E+03  0.21241930621E+03 -0.49613527491E+03  0.67997121010E+03  0.17200000000E+03 0. -1.
         -6    1    1    2    0  501  0.37617106999E+03 -0.21241930621E+03 -0.25461295010E+03  0.53013054044E+03  0.17200000000E+03 0.  1.
</event>
<event>
 4    1  0.3190379E-002  0.2901511E+03  0.7818608E-02  0.1090270E+00
          2   -1    0    0  502    0  0.00000000000E+00  0.00000000000E+00  0.14654789484E+04  0.14654789484E+04  0.00000000000E+00 0. -1.
         -2   -1    0    0    0  501 -0.00000000000E+00 -0.00000000000E+00 -0.57614913899E+02  0.57614913899E+02  0.00000000000E+00 0.  1.
          6    1    1    2  502    0 -0.14641983454E+03 -0.18211236730E+03  0.74501822411E+03  0.79952475667E+03  0.17200000000E+03 0. -1.
         -6    1    1    2    0  501  0.14641983454E+03  0.18211236730E+03  0.66284581038E+03  0.72356910562E+03  0.17200000000E+03 0.  1.
</event>
<event>
 4    1  0.3190379E-002  0.2457029E+03  0.7818608E-02  0.1116051E+00
          1   -1    0    0  502    0  0.00000000000E+00  0.00000000000E+00  0.68542643876E+03  0.68542643876E+03  0.00000000000E+00 0. -1.
         -1   -1    0    0    0  501 -0.00000000000E+00 -0.00000000000E+00 -0.35305133931E+03  0.35305133931E+03  0.00000000000E+00 0.  1.
          6    1    1    2  502    0 -0.14771415945E+03  0.94691367716E+02 -0.28364475324E+03  0.37526560469E+03  0.17200000000E+03 0.  1.
         -6    1    1    2    0  501  0.14771415945E+03 -0.94691367716E+02  0.61601985268E+03  0.66321217338E+03  0.17200000000E+03 0. -1.
</event>
<event>
 4    1  0.3190379E-002  0.1774437E+03  0.7818608E-02  0.1170300E+00
          2   -1    0    0  502    0  0.00000000000E+00  0.00000000000E+00  0.56401655111E+03  0.56401655111E+03  0.00000000000E+00 0. -1.
         -2   -1    0    0    0  501 -0.00000000000E+00 -0.00000000000E+00 -0.56249596951E+02  0.56249596951E+02  0.00000000000E+00 0.  1.
          6    1    1    2  502    0  0.37766545327E+02  0.21816589558E+02  0.22694146322E+03  0.28807759936E+03  0.17200000000E+03 0.  1.
         -6    1    1    2    0  501 -0.37766545327E+02 -0.21816589558E+02  0.28082549094E+03  0.33218854870E+03  0.17200000000E+03 0.  1.
</event>
<event>
 4    1  0.3190379E-002  0.1764928E+03  0.7818608E-02  0.1171241E+00
          1   -1    0    0  502    0  0.00000000000E+00  0.00000000000E+00  0.22342306714E+04  0.22342306714E+04  0.00000000000E+00 0. -1.
         -1   -1    0    0    0  501 -0.00000000000E+00 -0.00000000000E+00 -0.24558025577E+02  0.24558025577E+02  0.00000000000E+00 0.  1.
          6    1    1    2  502    0  0.10386165991E+02 -0.38181820849E+02  0.36228045661E+03  0.40298492916E+03  0.17200000000E+03 0.  1.
         -6    1    1    2    0  501 -0.10386165991E+02  0.38181820849E+02  0.18473921892E+04  0.18558037678E+04  0.17200000000E+03 0. -1.
</event>
<event>
 4    1  0.3190379E-002  0.2359916E+03  0.7818608E-02  0.1122492E+00
          2   -1    0    0  502    0  0.00000000000E+00  0.00000000000E+00  0.18442806478E+04  0.18442806478E+04  0.00000000000E+00 0. -1.
         -2   -1    0    0    0  501 -0.00000000000E+00 -0.00000000000E+00 -0.31357222257E+02  0.31357222257E+02  0.00000000000E+00 0.  1.
          6    1    1    2  502    0 -0.47574335127E+02 -0.15441740049E+03  0.10868421856E+04  0.11121681470E+04  0.17200000000E+03 0. -1.
         -6    1    1    2    0  501  0.47574335127E+02  0.15441740049E+03  0.72608123995E+03  0.76346972300E+03  0.17200000000E+03 0.  1.
</event>
<event>
 4    1  0.3190379E-002  0.2150809E+03  0.7818608E-02  0.1137604E+00
         -2   -1    0    0    0  501 -0.00000000000E+00  0.00000000000E+00  0.15306957829E+02  0.15306957829E+02  0.00000000000E+00 0.  1.
          2   -1    0    0  502    0  0.00000000000E+00 -0.00000000000E+00 -0.31394504451E+04  0.31394504451E+04  0.00000000000E+00 0. -1.
          6    1    1    2  502    0  0.20554119876E+02  0.12748846400E+03 -0.18669849226E+04  0.18793329884E+04  0.17200000000E+03 0. -1.
         -6    1    1    2    0  501 -0.20554119876E+02 -0.12748846400E+03 -0.12571585647E+04  0.12754244145E+04  0.17200000000E+03 0.  1.
</event>
<event>
 4    1  0.3190379E-002  0.2056399E+03  0.7818608E-02  0.1145066E+00
          2   -1    0    0  502    0  0.00000000000E+00  0.00000000000E+00  0.13910789371E+04  0.13910789371E+04  0.00000000000E+00 0. -1.
         -2   -1    0    0    0  501 -0.00000000000E+00 -0.00000000000E+00 -0.30563879870E+02  0.30563879870E+02  0.00000000000E+00 0.  1.
          6    1    1    2  502    0 -0.10775811529E+03  0.33044792182E+02  0.62809027872E+03  0.66089724460E+03  0.17200000000E+03 0.  1.
         -6    1    1    2    0  501  0.10775811529E+03 -0.33044792182E+02  0.73242477854E+03  0.76074557240E+03  0.17200000000E+03 0. -1.
</event>
<event>
 4    1  0.3190379E-002  0.2062652E+03  0.7818608E-02  0.1144558E+00
         -3   -1    0    0    0  501 -0.00000000000E+00  0.00000000000E+00  0.69269903079E+03  0.69269903079E+03  0.00000000000E+00 0.  1.
          3   -1    0    0  502    0  0.00000000000E+00 -0.00000000000E+00 -0.90027384487E+02  0.90027384487E+02  0.00000000000E+00 0. -1.
          6    1    1    2  502    0  0.55094621377E+01  0.11371439875E+03  0.80721066724E+02  0.22149765071E+03  0.17200000000E+03 0. -1.
         -6    1    1    2    0  501 -0.55094621377E+01 -0.11371439875E+03  0.52195057957E+03  0.56122876456E+03  0.17200000000E+03 0.  1.
</event>
<event>
 4    1  0.3190379E-002  0.2013075E+03  0.7818608E-02  0.1148641E+00
         -1   -1    0    0    0  501 -0.00000000000E+00  0.00000000000E+00  0.14466262472E+03  0.14466262472E+03  0.00000000000E+00 0.  1.
          1   -1    0    0  502    0  0.00000000000E+00 -0.00000000000E+00 -0.31180257010E+03  0.31180257010E+03  0.00000000000E+00 0. -1.
          6    1    1    2  502    0 -0.59623986810E+02 -0.85940072714E+02 -0.15630803289E+03  0.25486646905E+03  0.17200000000E+03 0. -1.
         -6    1    1    2    0  501  0.59623986810E+02  0.85940072714E+02 -0.10831912496E+02  0.20159872576E+03  0.17200000000E+03 0. -1.
</event>
<event>
 4    1  0.3190379E-002  0.2427402E+03  0.7818608E-02  0.1117981E+00
          2   -1    0    0  502    0  0.00000000000E+00  0.00000000000E+00  0.79182681629E+03  0.79182681629E+03  0.00000000000E+00 0. -1.
         -2   -1    0    0    0  501 -0.00000000000E+00 -0.00000000000E+00 -0.74861523639E+02  0.74861523639E+02  0.00000000000E+00 0.  1.
          6    1    1    2  502    0 -0.13501537654E+03 -0.10540239571E+03  0.32496880514E+03  0.40561994679E+03  0.17200000000E+03 0. -1.
         -6    1    1    2    0  501  0.13501537654E+03  0.10540239571E+03  0.39199648751E+03  0.46106839313E+03  0.17200000000E+03 0.  1.
</event>
<event>
 4    1  0.3190379E-002  0.2379122E+03  0.7818608E-02  0.1121192E+00
          2   -1    0    0  502    0  0.00000000000E+00  0.00000000000E+00  0.16105794621E+04  0.16105794621E+04  0.00000000000E+00 0. -1.
         -2   -1    0    0    0  501 -0.00000000000E+00 -0.00000000000E+00 -0.15448490227E+03  0.15448490227E+03  0.00000000000E+00 0.  1.
          6    1    1    2  502    0 -0.26564563766E+02 -0.16221140854E+03  0.15037265308E+04  0.15224308511E+04  0.17200000000E+03 0. -1.
         -6    1    1    2    0  501  0.26564563766E+02  0.16221140854E+03 -0.47631970912E+02  0.24263351327E+03  0.17200000000E+03 0.  1.
</event>
<event>
 4    1  0.3190379E-002  0.1948192E+03  0.7818608E-02  0.1154185E+00
          3   -1    0    0  502    0  0.00000000000E+00  0.00000000000E+00  0.49670127110E+03  0.49670127110E+03  0.00000000000E+00 0. -1.
         -3   -1    0    0    0  501 -0.00000000000E+00 -0.00000000000E+00 -0.76416439291E+02  0.76416439291E+02  0.00000000000E+00 0.  1.
          6    1    1    2  502    0  0.89722827622E+02  0.17898368296E+02  0.20827891405E+03  0.28519229201E+03  0.17200000000E+03 0. -1.
         -6    1    1    2    0  501 -0.89722827622E+02 -0.17898368296E+02  0.21200591776E+03  0.28792541838E+03  0.17200000000E+03 0. -1.
</event>
<event>
 4    1  0.3190379E-002  0.3897879E+03  0.7818608E-02  0.1047374E+00
          2   -1    0    0  502    0  0.00000000000E+00  0.00000000000E+00  0.13973072620E+04  0.13973072620E+04  0.00000000000E+00 0. -1.
         -2   -1    0    0    0  501 -0.00000000000E+00 -0.00000000000E+00 -0.14862831924E+03  0.14862831924E+03  0.00000000000E+00 0.  1.
          6    1    1    2  502    0 -0.32876985656E+03 -0.11941947121E+03  0.22387237291E+03  0.44950357956E+03  0.17200000000E+03 0. -1.
         -6    1    1    2    0  501  0.32876985656E+03  0.11941947121E+03  0.10248065698E+04  0.10964320016E+04  0.17200000000E+03 0.  1.
</event>
<event>
 4    1  0.3190379E-002  0.4119732E+03  0.7818608E-02  0.1039711E+00
         -2   -1    0    0    0  501 -0.00000000000E+00  0.00000000000E+00  0.53606109504E+03  0.53606109504E+03  0.00000000000E+00 0.  1.
          2   -1    0    0  502    0  0.00000000000E+00 -0.00000000000E+00 -0.44959118952E+03  0.44959118952E+03  0.00000000000E+00 0. -1.
          6    1    1    2  502    0 -0.13192475413E+03  0.35033377862E+03 -0.22479367630E+03  0.46931236304E+03  0.17200000000E+03 0. -1.
         -6    1    1    2    0  501  0.13192475413E+03 -0.35033377862E+03  0.31126358181E+03  0.51633992152E+03  0.17200000000E+03 0.  1.
</event>
<event>
 4    1  0.3190379E-002  0.2109589E+03  0.7818608E-02  0.1140809E+00
         -1   -1    0    0    0  501 -0.00000000000E+00  0.00000000000E+00  0.27145226777E+02  0.27145226777E+02  0.00000000000E+00 0.  1.
          1   -1    0    0  502    0  0.00000000000E+00 -0.00000000000E+00 -0.17300316260E+04  0.17300316260E+04  0.00000000000E+00 0. -1.
          6    1    1    2  502    0  0.35297611110E+02  0.11693470972E+03 -0.65042161768E+03  0.68377768934E+03  0.17200000000E+03 0.  1.
         -6    1    1    2    0  501 -0.35297611110E+02 -0.11693470972E+03 -0.10524647815E+04  0.10733991634E+04  0.17200000000E+03 0.  1.
</event>
<event>
 4    1  0.3190379E-002  0.1745829E+03  0.7818608E-02  0.1173151E+00
          1   -1    0    0  502    0  0.00000000000E+00  0.00000000000E+00  0.24377918730E+03  0.24377918730E+03  0.00000000000E+00 0. -1.
         -1   -1    0    0    0  501 -0.00000000000E+00 -0.00000000000E+00 -0.12804276372E+03  0.12804276372E+03  0.00000000000E+00 0.  1.
          6    1    1    2  502    0 -0.29891450968E+02  0.13024216794E+01  0.86395648051E+02  0.19479066493E+03  0.17200000000E+03 0. -1.
         -6    1    1    2    0  501  0.29891450968E+02 -0.13024216794E+01  0.29340775532E+02  0.17703128608E+03  0.17200000000E+03 0.  1.
</event>
<event>
 4    1  0.3190379E-002  0.1776504E+03  0.7818608E-02  0.1170097E+00
         -1   -1    0    0    0  501 -0.00000000000E+00  0.00000000000E+00  0.14758579098E+03  0.14758579098E+03  0.00000000000E+00 0.  1.
          1   -1    0    0  502    0  0.00000000000E+00 -0.00000000000E+00 -0.21969119961E+03  0.21969119961E+03  0.00000000000E+00 0. -1.
          6    1    1    2  502    0 -0.26305394662E+02 -0.35828425059E+02 -0.66023889619E+02  0.18952256813E+03  0.17200000000E+03 0. -1.
         -6    1    1    2    0  501  0.26305394662E+02  0.35828425059E+02 -0.60815190164E+01  0.17775442246E+03  0.17200000000E+03 0.  1.
</event>
<event>
 4    1  0.3190379E-002  0.3724387E+03  0.7818608E-02  0.1053764E+00
         -2   -1    0    0    0  501 -0.00000000000E+00  0.00000000000E+00  0.16269561504E+03  0.16269561504E+03  0.00000000000E+00 0.  1.
          2   -1    0    0  502    0  0.00000000000E+00 -0.00000000000E+00 -0.12539423756E+04  0.12539423756E+04  0.00000000000E+00 0. -1.
          6    1    1    2  502    0  0.28866758695E+03 -0.16061630971E+03 -0.94636083370E+03  0.10170100306E+04  0.17200000000E+03 0. -1.
         -6    1    1    2    0  501 -0.28866758695E+03  0.16061630971E+03 -0.14488592690E+03  0.39962796012E+03  0.17200000000E+03 0.  1.
</event>
<event>
 4    1  0.3190379E-002  0.2520601E+03  0.7818608E-02  0.1112010E+00
          2   -1    0    0  502    0  0.00000000000E+00  0.00000000000E+00  0.81230939772E+02  0.81230939772E+02  0.00000000000E+00 0. -1.
         -2   -1    0    0    0  501 -0.00000000000E+00 -0.00000000000E+00 -0.88564579481E+03  0.88564579481E+03  0.00000000000E+00 0.  1.
          6    1    1    2  502    0 -0.12197627886E+03  0.13810164658E+03 -0.23694070906E+03  0.34594100220E+03  0.17200000000E+03 0. -1.
         -6    1    1    2    0  501  0.12197627886E+03 -0.13810164658E+03 -0.56747414598E+03  0.62093573238E+03  0.17200000000E+03 0.  1.
</event>
<event>
 4    1  0.3190379E-002  0.2377234E+03  0.7818608E-02  0.1121319E+00
         -2   -1    0    0    0  501 -0.00000000000E+00  0.00000000000E+00  0.55332550389E+02  0.55332550389E+02  0.00000000000E+00 0.  1.
          2   -1    0    0  502    0  0.00000000000E+00 -0.00000000000E+00 -0.16652019384E+04  0.16652019384E+04  0.00000000000E+00 0. -1.
          6    1    1    2  502    0 -0.13344090348E+03 -0.95508895052E+02 -0.13398708305E+04  0.13607961884E+04  0.17200000000E+03 0. -1.
         -6    1    1    2    0  501  0.13344090348E+03  0.95508895052E+02 -0.26999855751E+03  0.35973830045E+03  0.17200000000E+03 0.  1.
</event>
<event>
 4    1  0.3190379E-002  0.3580181E+03  0.7818608E-02  0.1059371E+00
         -2   -1    0    0    0  501 -0.00000000000E+00  0.00000000000E+00  0.20132859595E+03  0.20132859595E+03  0.00000000000E+00 0.  1.
          2   -1    0    0  502    0  0.00000000000E+00 -0.00000000000E+00 -0.13230569256E+04  0.13230569256E+04  0.00000000000E+00 0. -1.
          6    1    1    2  502    0  0.21070836813E+03  0.23279800321E+03 -0.11098544910E+04  0.11661706213E+04  0.17200000000E+03 0. -1.
         -6    1    1    2    0  501 -0.21070836813E+03 -0.23279800321E+03 -0.11873838589E+02  0.35821490022E+03  0.17200000000E+03 0.  1.
</event>
<event>
 4    1  0.3190379E-002  0.1948672E+03  0.7818608E-02  0.1154143E+00
          2   -1    0    0  502    0  0.00000000000E+00  0.00000000000E+00  0.94142993774E+03  0.94142993774E+03  0.00000000000E+00 0. -1.
         -2   -1    0    0    0  501 -0.00000000000E+00 -0.00000000000E+00 -0.63198427676E+02  0.63198427676E+02  0.00000000000E+00 0.  1.
          6    1    1    2  502    0  0.48865750648E+02  0.77468411676E+02  0.74124065429E+03  0.76642737684E+03  0.17200000000E+03 0. -1.
         -6    1    1    2    0  501 -0.48865750648E+02 -0.77468411676E+02  0.13699085577E+03  0.23820098858E+03  0.17200000000E+03 0.  1.
</event>
<event>
 4    1  0.3190379E-002  0.2202924E+03  0.7818608E-02  0.1133665E+00
         -2   -1    0    0    0  501 -0.00000000000E+00  0.00000000000E+00  0.40681868441E+02  0.40681868441E+02  0.00000000000E+00 0.  1.
          2   -1    0    0  502    0  0.00000000000E+00 -0.00000000000E+00 -0.19537457287E+04  0.19537457287E+04  0.00000000000E+00 0. -1.
          6    1    1    2  502    0  0.67471720987E+02 -0.11996797461E+03 -0.15788424485E+04  0.15941368276E+04  0.17200000000E+03 0. -1.
         -6    1    1    2    0  501 -0.67471720987E+02  0.11996797461E+03 -0.33422141175E+03  0.40029076948E+03  0.17200000000E+03 0.  1.
</event>
<event>
 4    1  0.3190379E-002  0.3358873E+03  0.7818608E-02  0.1068561E+00
         -1   -1    0    0    0  501 -0.00000000000E+00  0.00000000000E+00  0.31175271127E+03  0.31175271127E+03  0.00000000000E+00 0.  1.
          1   -1    0    0  502    0  0.00000000000E+00 -0.00000000000E+00 -0.39931787205E+03  0.39931787205E+03  0.00000000000E+00 0. -1.
          6    1    1    2  502    0  0.24148980961E+03  0.15785743425E+03  0.65065025734E+02  0.34213119599E+03  0.17200000000E+03 0. -1.
         -6    1    1    2    0  501 -0.24148980961E+03 -0.15785743425E+03 -0.15263018651E+03  0.36893938734E+03  0.17200000000E+03 0.  1.
</event>
<event>
 4    1  0.3190379E-002  0.2416762E+03  0.7818608E-02  0.1118681E+00
         -2   -1    0    0    0  501 -0.00000000000E+00  0.00000000000E+00  0.40434969858E+02  0.40434969858E+02  0.00000000000E+00 0.  1.
          2   -1    0    0  502    0  0.00000000000E+00 -0.00000000000E+00 -0.19352848354E+04  0.19352848354E+04  0.00000000000E+00 0. -1.
          6    1    1    2  502    0  0.15494689312E+03 -0.69389123736E+02 -0.14449083243E+04  0.14649803602E+04  0.17200000000E+03 0. -1.
         -6    1    1    2    0  501 -0.15494689312E+03  0.69389123736E+02 -0.44994154118E+03  0.51073944498E+03  0.17200000000E+03 0.  1.
</event>
<event>
 4    1  0.3190379E-002  0.1863340E+03  0.7818608E-02  0.1161810E+00
          2   -1    0    0  502    0  0.00000000000E+00  0.00000000000E+00  0.11845461549E+04  0.11845461549E+04  0.00000000000E+00 0. -1.
         -2   -1    0    0    0  501 -0.00000000000E+00 -0.00000000000E+00 -0.47235508542E+02  0.47235508542E+02  0.00000000000E+00 0.  1.
          6    1    1    2  502    0 -0.67841979232E+02  0.23104415191E+02  0.94805056997E+03  0.96618850716E+03  0.17200000000E+03 0. -1.
         -6    1    1    2    0  501  0.67841979232E+02 -0.23104415191E+02  0.18926007638E+03  0.26559315627E+03  0.17200000000E+03 0.  1.
</event>
<event>
 4    1  0.3190379E-002  0.1766776E+03  0.7818608E-02  0.1171058E+00
          2   -1    0    0  502    0  0.00000000000E+00  0.00000000000E+00  0.18156864360E+04  0.18156864360E+04  0.00000000000E+00 0. -1.
         -2   -1    0    0    0  501 -0.00000000000E+00 -0.00000000000E+00 -0.38284614004E+02  0.38284614004E+02  0.00000000000E+00 0.  1.
          6    1    1    2  502    0 -0.24578490651E+01  0.40310578726E+02  0.20063870227E+03  0.26734036850E+03  0.17200000000E+03 0.  1.
         -6    1    1    2    0  501  0.24578490651E+01 -0.40310578726E+02  0.15767631197E+04  0.15866306815E+04  0.17200000000E+03 0. -1.
</event>
<event>
 4    1  0.3190379E-002  0.1998658E+03  0.7818608E-02  0.1149852E+00
          2   -1    0    0  502    0  0.00000000000E+00  0.00000000000E+00  0.23248958687E+04  0.23248958687E+04  0.00000000000E+00 0. -1.
         -2   -1    0    0    0  501 -0.00000000000E+00 -0.00000000000E+00 -0.18913189298E+02  0.18913189298E+02  0.00000000000E+00 0.  1.
          6    1    1    2  502    0  0.54008977034E+02  0.86286527422E+02  0.15075462886E+04  0.15207373694E+04  0.17200000000E+03 0. -1.
         -6    1    1    2    0  501 -0.54008977034E+02 -0.86286527422E+02  0.79843639078E+03  0.82307168857E+03  0.17200000000E+03 0.  1.
</event>
<event>
 4    1  0.3190379E-002  0.1916296E+03  0.7818608E-02  0.1157000E+00
         -4   -1    0    0    0  501 -0.00000000000E+00  0.00000000000E+00  0.12104990677E+03  0.12104990677E+03  0.00000000000E+00 0.  1.
          4   -1    0    0  502    0  0.00000000000E+00 -0.00000000000E+00 -0.34915019402E+03  0.34915019402E+03  0.00000000000E+00 0. -1.
          6    1    1    2  502    0  0.23317138082E+01 -0.84454008736E+02 -0.19918831698E+03  0.27640170423E+03  0.17200000000E+03 0. -1.
         -6    1    1    2    0  501 -0.23317138082E+01  0.84454008736E+02 -0.28911970273E+02  0.19379839655E+03  0.17200000000E+03 0.  1.
</event>
<event>
 4    1  0.3190379E-002  0.2907039E+03  0.7818608E-02  0.1089982E+00
         -1   -1    0    0    0  501 -0.00000000000E+00  0.00000000000E+00  0.59286195925E+02  0.59286195925E+02  0.00000000000E+00 0.  1.
          1   -1    0    0  502    0  0.00000000000E+00 -0.00000000000E+00 -0.18734155292E+04  0.18734155292E+04  0.00000000000E+00 0. -1.
          6    1    1    2  502    0 -0.14259690870E+03  0.18598620983E+03 -0.13796130564E+04  0.14099081296E+04  0.17200000000E+03 0. -1.
         -6    1    1    2    0  501  0.14259690870E+03 -0.18598620983E+03 -0.43451627690E+03  0.52279359551E+03  0.17200000000E+03 0.  1.
</event>
<event>
 4    1  0.3190379E-002  0.3447693E+03  0.7818608E-02  0.1064783E+00
         -1   -1    0    0    0  501 -0.00000000000E+00  0.00000000000E+00  0.67916073658E+03  0.67916073658E+03  0.00000000000E+00 0.  1.
          1   -1    0    0  502    0  0.00000000000E+00 -0.00000000000E+00 -0.17576739726E+03  0.17576739726E+03  0.00000000000E+00 0. -1.
          6    1    1    2  502    0  0.11284663323E+02 -0.29858760428E+03  0.27959337323E+03  0.44389002626E+03  0.17200000000E+03 0.  1.
         -6    1    1    2    0  501 -0.11284663323E+02  0.29858760428E+03  0.22379996609E+03  0.41103810758E+03  0.17200000000E+03 0.  1.
</event>
<event>
 4    1  0.3190379E-002  0.1770814E+03  0.7818608E-02  0.1170658E+00
          1   -1    0    0  502    0  0.00000000000E+00  0.00000000000E+00  0.16390783615E+03  0.16390783615E+03  0.00000000000E+00 0. -1.
         -1   -1    0    0    0  501 -0.00000000000E+00 -0.00000000000E+00 -0.20023759026E+03  0.20023759026E+03  0.00000000000E+00 0.  1.
          6    1    1    2  502    0 -0.34798717489E+02 -0.23724729311E+02  0.20272109224E+02  0.17823796434E+03  0.17200000000E+03 0. -1.
         -6    1    1    2    0  501  0.34798717489E+02  0.23724729311E+02 -0.56601863329E+02  0.18590746207E+03  0.17200000000E+03 0.  1.
</event>
<event>
 4    1  0.3190379E-002  0.3291577E+03  0.7818608E-02  0.1071510E+00
         -2   -1    0    0    0  501 -0.00000000000E+00  0.00000000000E+00  0.11668618292E+03  0.11668618292E+03  0.00000000000E+00 0.  1.
          2   -1    0    0  502    0  0.00000000000E+00 -0.00000000000E+00 -0.18426098311E+04  0.18426098311E+04  0.00000000000E+00 0. -1.
          6    1    1    2  502    0 -0.26646818843E+03  0.88065352637E+02 -0.15529618946E+04  0.15874619516E+04  0.17200000000E+03 0. -1.
         -6    1    1    2    0  501  0.26646818843E+03 -0.88065352637E+02 -0.17296175365E+03  0.37183406246E+03  0.17200000000E+03 0.  1.
</event>
<event>
 4    1  0.3190379E-002  0.2490451E+03  0.7818608E-02  0.1113910E+00
         -1   -1    0    0    0  501 -0.00000000000E+00  0.00000000000E+00  0.30692068724E+02  0.30692068724E+02  0.00000000000E+00 0.  1.
          1   -1    0    0  502    0  0.00000000000E+00 -0.00000000000E+00 -0.20272390592E+04  0.20272390592E+04  0.00000000000E+00 0. -1.
          6    1    1    2  502    0  0.87400783991E+02 -0.15748191386E+03 -0.94041744039E+03  0.97283524424E+03  0.17200000000E+03 0. -1.
         -6    1    1    2    0  501 -0.87400783991E+02  0.15748191386E+03 -0.10561295501E+04  0.10850958837E+04  0.17200000000E+03 0. -1.
</event>
<event>
 4    1  0.3190379E-002  0.1833412E+03  0.7818608E-02  0.1164608E+00
         -2   -1    0    0    0  501 -0.00000000000E+00  0.00000000000E+00  0.28713976304E+02  0.28713976304E+02  0.00000000000E+00 0.  1.
          2   -1    0    0  502    0  0.00000000000E+00 -0.00000000000E+00 -0.28341939382E+04  0.28341939382E+04  0.00000000000E+00 0. -1.
          6    1    1    2  502    0  0.46462190072E+02  0.43258122168E+02 -0.24994197008E+04  0.25061350404E+04  0.17200000000E+03 0. -1.
         -6    1    1    2    0  501 -0.46462190072E+02 -0.43258122168E+02 -0.30606026113E+03  0.35677287409E+03  0.17200000000E+03 0.  1.
</event>
<event>
 4    1  0.3190379E-002  0.2957591E+03  0.7818608E-02  0.1087380E+00
          1   -1    0    0  502    0  0.00000000000E+00  0.00000000000E+00  0.18665242001E+04  0.18665242001E+04  0.00000000000E+00 0. -1.
         -1   -1    0    0    0  501 -0.00000000000E+00 -0.00000000000E+00 -0.88161044095E+02  0.88161044095E+02  0.00000000000E+00 0.  1.
          6    1    1    2  502    0 -0.44831288919E+02  0.23638865305E+03  0.15580891774E+04  0.15859115122E+04  0.17200000000E+03 0. -1.
         -6    1    1    2    0  501  0.44831288919E+02 -0.23638865305E+03  0.22027397856E+03  0.36877373196E+03  0.17200000000E+03 0. -1.
</event>
<event>
 4    1  0.3190379E-002  0.2360100E+03  0.7818608E-02  0.1122480E+00
         -2   -1    0    0    0  501 -0.00000000000E+00  0.00000000000E+00  0.72984756924E+02  0.72984756924E+02  0.00000000000E+00 0.  1.
          2   -1    0    0  502    0  0.00000000000E+00 -0.00000000000E+00 -0.83302047945E+03  0.83302047945E+03  0.00000000000E+00 0. -1.
          6    1    1    2  502    0 -0.14184836816E+03 -0.77432387650E+02 -0.24885321555E+03  0.34297034434E+03  0.17200000000E+03 0. -1.
         -6    1    1    2    0  501  0.14184836816E+03  0.77432387650E+02 -0.51118250699E+03  0.56303489204E+03  0.17200000000E+03 0.  1.
</event>
<event>
 4    1  0.3190379E-002  0.1829937E+03  0.7818608E-02  0.1164937E+00
         -2   -1    0    0    0  501 -0.00000000000E+00  0.00000000000E+00  0.15456651182E+02  0.15456651182E+02  0.00000000000E+00 0.  1.
          2   -1    0    0  502    0  0.00000000000E+00 -0.00000000000E+00 -0.21791287392E+04  0.21791287392E+04  0.00000000000E+00 0. -1.
          6    1    1    2  502    0 -0.35998140952E+02 -0.51057111777E+02 -0.99827252976E+03  0.10149062708E+04  0.17200000000E+03 0.  1.
         -6    1    1    2    0  501  0.35998140952E+02  0.51057111777E+02 -0.11653995582E+04  0.11796791196E+04  0.17200000000E+03 0. -1.
</event>
<event>
 4    1  0.3190379E-002  0.2260617E+03  0.7818608E-02  0.1129443E+00
          1   -1    0    0  502    0  0.00000000000E+00  0.00000000000E+00  0.10430269761E+04  0.10430269761E+04  0.00000000000E+00 0. -1.
         -1   -1    0    0    0  501 -0.00000000000E+00 -0.00000000000E+00 -0.41369910128E+03  0.41369910128E+03  0.00000000000E+00 0.  1.
          6    1    1    2  502    0  0.13878904807E+03 -0.47513253340E+02  0.99853696610E+03  0.10238066135E+04  0.17200000000E+03 0. -1.
         -6    1    1    2    0  501 -0.13878904807E+03  0.47513253340E+02 -0.36920909131E+03  0.43291946389E+03  0.17200000000E+03 0.  1.
</event>
<event>
 4    1  0.3190379E-002  0.1852147E+03  0.7818608E-02  0.1162850E+00
         -2   -1    0    0    0  501 -0.00000000000E+00  0.00000000000E+00  0.33880509443E+03  0.33880509443E+03  0.00000000000E+00 0.  1.
          2   -1    0    0  502    0  0.00000000000E+00 -0.00000000000E+00 -0.12988205758E+03  0.12988205758E+03  0.00000000000E+00 0. -1.
          6    1    1    2  502    0 -0.44209867787E+02  0.52592661418E+02 -0.55641215911E+01  0.18529829976E+03  0.17200000000E+03 0. -1.
         -6    1    1    2    0  501  0.44209867787E+02 -0.52592661418E+02  0.21448715844E+03  0.28338885225E+03  0.17200000000E+03 0.  1.
</event>
<event>
 4    1  0.3190379E-002  0.2240341E+03  0.7818608E-02  0.1130911E+00
          4   -1    0    0  502    0  0.00000000000E+00  0.00000000000E+00  0.83666593041E+02  0.83666593041E+02  0.00000000000E+00 0. -1.
         -4   -1    0    0    0  501 -0.00000000000E+00 -0.00000000000E+00 -0.62279443219E+03  0.62279443219E+03  0.00000000000E+00 0.  1.
          6    1    1    2  502    0  0.12993222835E+03  0.61032076772E+02 -0.33729433724E+03  0.40491822420E+03  0.17200000000E+03 0. -1.
         -6    1    1    2    0  501 -0.12993222835E+03 -0.61032076772E+02 -0.20183350191E+03  0.30154280103E+03  0.17200000000E+03 0. -1.
</event>
<event>
 4    1  0.3190379E-002  0.1981396E+03  0.7818608E-02  0.1151318E+00
          2   -1    0    0  502    0  0.00000000000E+00  0.00000000000E+00  0.60470772744E+03  0.60470772744E+03  0.00000000000E+00 0. -1.
         -2   -1    0    0    0  501 -0.00000000000E+00 -0.00000000000E+00 -0.67148379892E+02  0.67148379892E+02  0.00000000000E+00 0.  1.
          6    1    1    2  502    0 -0.54162843330E+02  0.82107827182E+02  0.32993745295E+03  0.38486105511E+03  0.17200000000E+03 0. -1.
         -6    1    1    2    0  501  0.54162843330E+02 -0.82107827182E+02  0.20762189459E+03  0.28699505221E+03  0.17200000000E+03 0.  1.
</event>
<event>
 4    1  0.3190379E-002  0.2543319E+03  0.7818608E-02  0.1110597E+00
          2   -1    0    0  502    0  0.00000000000E+00  0.00000000000E+00  0.91620754555E+03  0.91620754555E+03  0.00000000000E+00 0. -1.
         -2   -1    0    0    0  501 -0.00000000000E+00 -0.00000000000E+00 -0.77170530588E+02  0.77170530588E+02  0.00000000000E+00 0.  1.
          6    1    1    2  502    0 -0.17277645178E+03 -0.72450223604E+02  0.56444292934E+03  0.61909656571E+03  0.17200000000E+03 0.  1.
         -6    1    1    2    0  501  0.17277645178E+03  0.72450223604E+02  0.27459408563E+03  0.37428151043E+03  0.17200000000E+03 0.  1.
</event>
<event>
 4    1  0.3190379E-002  0.2004438E+03  0.7818608E-02  0.1149365E+00
         -1   -1    0    0    0  501 -0.00000000000E+00  0.00000000000E+00  0.47372700326E+03  0.47372700326E+03  0.00000000000E+00 0.  1.
          1   -1    0    0  502    0  0.00000000000E+00 -0.00000000000E+00 -0.86525010235E+02  0.86525010235E+02  0.00000000000E+00 0. -1.
          6    1    1    2  502    0  0.93145787394E+02  0.43790286239E+02  0.23301627923E+03  0.30736674066E+03  0.17200000000E+03 0. -1.
         -6    1    1    2    0  501 -0.93145787394E+02 -0.43790286239E+02  0.15418571379E+03  0.25288527283E+03  0.17200000000E+03 0.  1.
</event>
<event>
 4    1  0.3190379E-002  0.3223800E+03  0.7818608E-02  0.1074559E+00
         -2   -1    0    0    0  501 -0.00000000000E+00  0.00000000000E+00  0.21515550285E+03  0.21515550285E+03  0.00000000000E+00 0.  1.
          2   -1    0    0  502    0  0.00000000000E+00 -0.00000000000E+00 -0.60897993863E+03  0.60897993863E+03  0.00000000000E+00 0. -1.
          6    1    1    2  502    0 -0.25136531065E+03  0.10564255159E+03 -0.38430273382E+03  0.50161485158E+03  0.17200000000E+03 0. -1.
         -6    1    1    2    0  501  0.25136531065E+03 -0.10564255159E+03 -0.95217019571E+01  0.32252058990E+03  0.17200000000E+03 0.  1.
</event>
<event>
 4    1  0.3190379E-002  0.2688625E+03  0.7818608E-02  0.1101932E+00
         -1   -1    0    0    0  501 -0.00000000000E+00  0.00000000000E+00  0.28093333096E+03  0.28093333096E+03  0.00000000000E+00 0.  1.
          1   -1    0    0  502    0  0.00000000000E+00 -0.00000000000E+00 -0.52563440607E+03  0.52563440607E+03  0.00000000000E+00 0. -1.
          6    1    1    2  502    0  0.17854176480E+03 -0.10404758092E+03 -0.41048734676E+03  0.49070044093E+03  0.17200000000E+03 0. -1.
         -6    1    1    2    0  501 -0.17854176480E+03  0.10404758092E+03  0.16578627166E+03  0.31586729610E+03  0.17200000000E+03 0.  1.
</event>
<event>
 4    1  0.3190379E-002  0.1821160E+03  0.7818608E-02  0.1165771E+00
         -1   -1    0    0    0  501 -0.00000000000E+00  0.00000000000E+00  0.54809579755E+02  0.54809579755E+02  0.00000000000E+00 0.  1.
          1   -1    0    0  502    0  0.00000000000E+00 -0.00000000000E+00 -0.68418392819E+03  0.68418392819E+03  0.00000000000E+00 0. -1.
          6    1    1    2  502    0  0.57382537340E+02  0.17013825759E+02 -0.18907817499E+03  0.26252006041E+03  0.17200000000E+03 0.  1.
         -6    1    1    2    0  501 -0.57382537340E+02 -0.17013825759E+02 -0.44029617344E+03  0.47647344753E+03  0.17200000000E+03 0.  1.
</event>
<event>
 4    1  0.3190379E-002  0.2137952E+03  0.7818608E-02  0.1138595E+00
          2   -1    0    0  502    0  0.00000000000E+00  0.00000000000E+00  0.96524848010E+03  0.96524848010E+03  0.00000000000E+00 0. -1.
         -2   -1    0    0    0  501 -0.00000000000E+00 -0.00000000000E+00 -0.80213403818E+02  0.80213403818E+02  0.00000000000E+00 0.  1.
          6    1    1    2  502    0  0.50957595656E+02  0.11630865898E+03  0.77708565066E+03  0.80595935950E+03  0.17200000000E+03 0. -1.
         -6    1    1    2    0  501 -0.50957595656E+02 -0.11630865898E+03  0.10794942562E+03  0.23950252441E+03  0.17200000000E+03 0.  1.
</event>
<event>
 4    1  0.3190379E-002  0.1908823E+03  0.7818608E-02  0.1157668E+00
          2   -1    0    0  502    0  0.00000000000E+00  0.00000000000E+00  0.31162189941E+03  0.31162189941E+03  0.00000000000E+00 0. -1.
         -2   -1    0    0    0  501 -0.00000000000E+00 -0.00000000000E+00 -0.12987795190E+03  0.12987795190E+03  0.00000000000E+00 0.  1.
          6    1    1    2  502    0 -0.34840606195E+01  0.82703714816E+02  0.21155418762E+02  0.19205102152E+03  0.17200000000E+03 0. -1.
         -6    1    1    2    0  501  0.34840606195E+01 -0.82703714816E+02  0.16058852874E+03  0.24944882980E+03  0.17200000000E+03 0.  1.
</event>
<event>
 4    1  0.3190379E-002  0.2131266E+03  0.7818608E-02  0.1139114E+00
         -2   -1    0    0    0  501 -0.00000000000E+00  0.00000000000E+00  0.48427119689E+02  0.48427119689E+02  0.00000000000E+00 0.  1.
          2   -1    0    0  502    0  0.00000000000E+00 -0.00000000000E+00 -0.99565510279E+03  0.99565510279E+03  0.00000000000E+00 0. -1.
          6    1    1    2  502    0  0.21665738245E+02  0.12397387842E+03 -0.59927547668E+03  0.63604561448E+03  0.17200000000E+03 0. -1.
         -6    1    1    2    0  501 -0.21665738245E+02 -0.12397387842E+03 -0.34795250642E+03  0.40803660800E+03  0.17200000000E+03 0. -1.
</event>
<event>
 4    1  0.3190379E-002  0.3716628E+03  0.7818608E-02  0.1054059E+00
          2   -1    0    0  502    0  0.00000000000E+00  0.00000000000E+00  0.63025160025E+03  0.63025160025E+03  0.00000000000E+00 0. -1.
         -2   -1    0    0    0  501 -0.00000000000E+00 -0.00000000000E+00 -0.21923294742E+03  0.21923294742E+03  0.00000000000E+00 0.  1.
          6    1    1    2  502    0 -0.20138987366E+03  0.26075157298E+03  0.21261329609E+03  0.42817949239E+03  0.17200000000E+03 0. -1.
         -6    1    1    2    0  501  0.20138987366E+03 -0.26075157298E+03  0.19840535674E+03  0.42130505528E+03  0.17200000000E+03 0.  1.
</event>
<event>
 4    1  0.3190379E-002  0.2266348E+03  0.7818608E-02  0.1129031E+00
          2   -1    0    0  502    0  0.00000000000E+00  0.00000000000E+00  0.28810258073E+03  0.28810258073E+03  0.00000000000E+00 0. -1.
         -2   -1    0    0    0  501 -0.00000000000E+00 -0.00000000000E+00 -0.18429197650E+03  0.18429197650E+03  0.00000000000E+00 0.  1.
          6    1    1    2  502    0 -0.14018365602E+03  0.46129057103E+02  0.94561068334E+02  0.24557105483E+03  0.17200000000E+03 0. -1.
         -6    1    1    2    0  501  0.14018365602E+03 -0.46129057103E+02  0.92495358961E+01  0.22682350240E+03  0.17200000000E+03 0.  1.
</event>
<event>
 4    1  0.3190379E-002  0.1921722E+03  0.7818608E-02  0.1156517E+00
         -2   -1    0    0    0  501 -0.00000000000E+00  0.00000000000E+00  0.66535849506E+02  0.66535849506E+02  0.00000000000E+00 0.  1.
          2   -1    0    0  502    0  0.00000000000E+00 -0.00000000000E+00 -0.16571663915E+04  0.16571663915E+04  0.00000000000E+00 0. -1.
          6    1    1    2  502    0 -0.77400881240E+02 -0.36813898243E+02 -0.14981684157E+04  0.15104432334E+04  0.17200000000E+03 0. -1.
         -6    1    1    2    0  501  0.77400881240E+02  0.36813898243E+02 -0.92462126269E+02  0.21325900758E+03  0.17200000000E+03 0.  1.
</event>
<event>
 4    1  0.3190379E-002  0.4166305E+03  0.7818608E-02  0.1038169E+00
          2   -1    0    0  502    0  0.00000000000E+00  0.00000000000E+00  0.35131401470E+03  0.35131401470E+03  0.00000000000E+00 0. -1.
         -2   -1    0    0    0  501 -0.00000000000E+00 -0.00000000000E+00 -0.52247629158E+03  0.52247629158E+03  0.00000000000E+00 0.  1.
          6    1    1    2  502    0  0.24870760717E+03  0.28660333145E+03 -0.18741538750E+03  0.45684293902E+03  0.17200000000E+03 0.  1.
         -6    1    1    2    0  501 -0.24870760717E+03 -0.28660333145E+03  0.16253110616E+02  0.41694736726E+03  0.17200000000E+03 0.  1.
</event>
<event>
 4    1  0.3190379E-002  0.3172497E+03  0.7818608E-02  0.1076922E+00
          2   -1    0    0  502    0  0.00000000000E+00  0.00000000000E+00  0.63389397612E+03  0.63389397612E+03  0.00000000000E+00 0. -1.
         -2   -1    0    0    0  501 -0.00000000000E+00 -0.00000000000E+00 -0.31117367953E+03  0.31117367953E+03  0.00000000000E+00 0.  1.
          6    1    1    2  502    0  0.22282545615E+03  0.14632899168E+03  0.49204948178E+03  0.58545712929E+03  0.17200000000E+03 0. -1.
         -6    1    1    2    0  501 -0.22282545615E+03 -0.14632899168E+03 -0.16932918519E+03  0.35961052636E+03  0.17200000000E+03 0.  1.
</event>
<event>
 4    1  0.3190379E-002  0.1937950E+03  0.7818608E-02  0.1155082E+00
          2   -1    0    0  502    0  0.00000000000E+00  0.00000000000E+00  0.23591460240E+02  0.23591460240E+02  0.00000000000E+00 0. -1.
         -2   -1    0    0    0  501 -0.00000000000E+00 -0.00000000000E+00 -0.16571579035E+04  0.16571579035E+04  0.00000000000E+00 0.  1.
          6    1    1    2  502    0  0.17702860474E+02 -0.87516266563E+02 -0.98348192885E+03  0.10023937313E+04  0.17200000000E+03 0.  1.
         -6    1    1    2    0  501 -0.17702860474E+02  0.87516266563E+02 -0.65008451442E+03  0.67835563245E+03  0.17200000000E+03 0. -1.
</event>
<event>
 4    1  0.3190379E-002  0.5100302E+03  0.7818608E-02  0.1011194E+00
          1   -1    0    0  502    0  0.00000000000E+00  0.00000000000E+00  0.73235083396E+03  0.73235083396E+03  0.00000000000E+00 0. -1.
         -1   -1    0    0    0  501 -0.00000000000E+00 -0.00000000000E+00 -0.68689844358E+03  0.68689844358E+03  0.00000000000E+00 0.  1.
          6    1    1    2  502    0 -0.20356868559E+03  0.43486384330E+03  0.51584816878E+03  0.72541719389E+03  0.17200000000E+03 0. -1.
         -6    1    1    2    0  501  0.20356868559E+03 -0.43486384330E+03 -0.47039577840E+03  0.69383208365E+03  0.17200000000E+03 0.  1.
</event>
<event>
 4    1  0.3190379E-002  0.2407503E+03  0.7818608E-02  0.1119294E+00
         -2   -1    0    0    0  501 -0.00000000000E+00  0.00000000000E+00  0.41799673622E+02  0.41799673622E+02  0.00000000000E+00 0.  1.
          2   -1    0    0  502    0  0.00000000000E+00 -0.00000000000E+00 -0.17518668996E+04  0.17518668996E+04  0.00000000000E+00 0. -1.
          6    1    1    2  502    0  0.13513584769E+03  0.10057347663E+03 -0.12645279677E+04  0.12872418974E+04  0.17200000000E+03 0. -1.
         -6    1    1    2    0  501 -0.13513584769E+03 -0.10057347663E+03 -0.44553925828E+03  0.50642467575E+03  0.17200000000E+03 0.  1.
</event>
<event>
 4    1  0.3190379E-002  0.1973905E+03  0.7818608E-02  0.1151960E+00
         -1   -1    0    0    0  501 -0.00000000000E+00  0.00000000000E+00  0.35640625154E+03  0.35640625154E+03  0.00000000000E+00 0.  1.
          1   -1    0    0  502    0  0.00000000000E+00 -0.00000000000E+00 -0.25475424710E+03  0.25475424710E+03  0.00000000000E+00 0. -1.
          6    1    1    2  502    0  0.92498670858E+02  0.28687758612E+02 -0.18005869118E+03  0.26717807521E+03  0.17200000000E+03 0. -1.
         -6    1    1    2    0  501 -0.92498670858E+02 -0.28687758612E+02  0.28171069561E+03  0.34398242343E+03  0.17200000000E+03 0.  1.
</event>
<event>
 4    1  0.3190379E-002  0.1776365E+03  0.7818608E-02  0.1170110E+00
          1   -1    0    0  502    0  0.00000000000E+00  0.00000000000E+00  0.39731261362E+03  0.39731261362E+03  0.00000000000E+00 0. -1.
         -1   -1    0    0    0  501 -0.00000000000E+00 -0.00000000000E+00 -0.10098119356E+03  0.10098119356E+03  0.00000000000E+00 0.  1.
          6    1    1    2  502    0  0.38948022458E+02  0.21301729207E+02  0.26329027034E+03  0.31761057692E+03  0.17200000000E+03 0. -1.
         -6    1    1    2    0  501 -0.38948022458E+02 -0.21301729207E+02  0.33041149725E+02  0.18068323026E+03  0.17200000000E+03 0.  1.
</event>
<event>
 4    1  0.3190379E-002  0.3544547E+03  0.7818608E-02  0.1060801E+00
         -2   -1    0    0    0  501 -0.00000000000E+00  0.00000000000E+00  0.92220822041E+03  0.92220822041E+03  0.00000000000E+00 0.  1.
          2   -1    0    0  502    0  0.00000000000E+00 -0.00000000000E+00 -0.17666580363E+03  0.17666580363E+03  0.00000000000E+00 0. -1.
          6    1    1    2  502    0 -0.19992333727E+03 -0.23682225832E+03  0.10993116660E+03  0.37111047440E+03  0.17200000000E+03 0. -1.
         -6    1    1    2    0  501  0.19992333727E+03  0.23682225832E+03  0.63561125018E+03  0.72776354964E+03  0.17200000000E+03 0.  1.
</event>
<event>
 4    1  0.3190379E-002  0.2124960E+03  0.7818608E-02  0.1139605E+00
          3   -1    0    0  502    0  0.00000000000E+00  0.00000000000E+00  0.35516135715E+03  0.35516135715E+03  0.00000000000E+00 0. -1.
         -3   -1    0    0    0  501 -0.00000000000E+00 -0.00000000000E+00 -0.13595763737E+03  0.13595763737E+03  0.00000000000E+00 0.  1.
          6    1    1    2  502    0 -0.80469105073E+02 -0.95369123817E+02  0.47059050975E+02  0.21764443693E+03  0.17200000000E+03 0. -1.
         -6    1    1    2    0  501  0.80469105073E+02  0.95369123817E+02  0.17214466881E+03  0.27347455759E+03  0.17200000000E+03 0. -1.
</event>
<event>
 4    1  0.3190379E-002  0.2123011E+03  0.7818608E-02  0.1139757E+00
          1   -1    0    0  502    0  0.00000000000E+00  0.00000000000E+00  0.18072998026E+04  0.18072998026E+04  0.00000000000E+00 0. -1.
         -1   -1    0    0    0  501 -0.00000000000E+00 -0.00000000000E+00 -0.27666970401E+02  0.27666970401E+02  0.00000000000E+00 0.  1.
          6    1    1    2  502    0  0.27572864902E+02 -0.12135694340E+03  0.60170641288E+03  0.63806142172E+03  0.17200000000E+03 0.  1.
         -6    1    1    2    0  501 -0.27572864902E+02  0.12135694340E+03  0.11779264193E+04  0.11969053513E+04  0.17200000000E+03 0. -1.
</event>
<event>
 4    1  0.3190379E-002  0.3498678E+03  0.7818608E-02  0.1062669E+00
          2   -1    0    0  502    0  0.00000000000E+00  0.00000000000E+00  0.16778189253E+04  0.16778189253E+04  0.00000000000E+00 0. -1.
         -2   -1    0    0    0  501 -0.00000000000E+00 -0.00000000000E+00 -0.79539766548E+02  0.79539766548E+02  0.00000000000E+00 0.  1.
          6    1    1    2  502    0 -0.29637445953E+03 -0.70609194325E+02  0.10519326879E+04  0.11085891297E+04  0.17200000000E+03 0. -1.
         -6    1    1    2    0  501  0.29637445953E+03  0.70609194325E+02  0.54634647090E+03  0.64876956221E+03  0.17200000000E+03 0.  1.
</event>
<event>
 4    1  0.3190379E-002  0.2190513E+03  0.7818608E-02  0.1134592E+00
          1   -1    0    0  502    0  0.00000000000E+00  0.00000000000E+00  0.24710698367E+02  0.24710698367E+02  0.00000000000E+00 0. -1.
         -1   -1    0    0    0  501 -0.00000000000E+00 -0.00000000000E+00 -0.20326580397E+04  0.20326580397E+04  0.00000000000E+00 0.  1.
          6    1    1    2  502    0 -0.12684245109E+03 -0.48067108833E+02 -0.12214491802E+04  0.12409357574E+04  0.17200000000E+03 0. -1.
         -6    1    1    2    0  501  0.12684245109E+03  0.48067108833E+02 -0.78649816120E+03  0.81643298067E+03  0.17200000000E+03 0.  1.
</event>
<event>
 4    1  0.3190379E-002  0.2331086E+03  0.7818608E-02  0.1124471E+00
          1   -1    0    0  502    0  0.00000000000E+00  0.00000000000E+00  0.82431107868E+03  0.82431107868E+03  0.00000000000E+00 0. -1.
         -1   -1    0    0    0  501 -0.00000000000E+00 -0.00000000000E+00 -0.66507745198E+02  0.66507745198E+02  0.00000000000E+00 0.  1.
          6    1    1    2  502    0 -0.23919829962E+02  0.15551029987E+03  0.42072876950E+03  0.48099096573E+03  0.17200000000E+03 0. -1.
         -6    1    1    2    0  501  0.23919829962E+02 -0.15551029987E+03  0.33707456399E+03  0.40982785815E+03  0.17200000000E+03 0.  1.
</event>
<event>
 4    1  0.3190379E-002  0.2125333E+03  0.7818608E-02  0.1139575E+00
          2   -1    0    0  502    0  0.00000000000E+00  0.00000000000E+00  0.18387472739E+04  0.18387472739E+04  0.00000000000E+00 0. -1.
         -2   -1    0    0    0  501 -0.00000000000E+00 -0.00000000000E+00 -0.98410884747E+02  0.98410884747E+02  0.00000000000E+00 0.  1.
          6    1    1    2  502    0  0.10835034976E+03 -0.62021028876E+02  0.17091917220E+04  0.17223550009E+04  0.17200000000E+03 0. -1.
         -6    1    1    2    0  501 -0.10835034976E+03  0.62021028876E+02  0.31144667151E+02  0.21480315782E+03  0.17200000000E+03 0.  1.
</event>
<event>
 4    1  0.3190379E-002  0.2759273E+03  0.7818608E-02  0.1097934E+00
         -2   -1    0    0    0  501 -0.00000000000E+00  0.00000000000E+00  0.45005333307E+02  0.45005333307E+02  0.00000000000E+00 0.  1.
          2   -1    0    0  502    0  0.00000000000E+00 -0.00000000000E+00 -0.18487819094E+04  0.18487819094E+04  0.00000000000E+00 0. -1.
          6    1    1    2  502    0  0.12519541987E+03 -0.17572127621E+03 -0.11778895464E+04  0.12097766916E+04  0.17200000000E+03 0. -1.
         -6    1    1    2    0  501 -0.12519541987E+03  0.17572127621E+03 -0.62588702978E+03  0.68401055117E+03  0.17200000000E+03 0. -1.
</event>
<event>
 4    1  0.3190379E-002  0.3894505E+03  0.7818608E-02  0.1047495E+00
          2   -1    0    0  502    0  0.00000000000E+00  0.00000000000E+00  0.18492918425E+03  0.18492918425E+03  0.00000000000E+00 0. -1.
         -2   -1    0    0    0  501 -0.00000000000E+00 -0.00000000000E+00 -0.83339993291E+03  0.83339993291E+03  0.00000000000E+00 0.  1.
          6    1    1    2  502    0 -0.86680000199E+02 -0.33848816876E+03 -0.38840974801E+03  0.55003072203E+03  0.17200000000E+03 0. -1.
         -6    1    1    2    0  501  0.86680000199E+02  0.33848816876E+03 -0.26006100065E+03  0.46829839513E+03  0.17200000000E+03 0. -1.
</event>
<event>
 4    1  0.3190379E-002  0.2695902E+03  0.7818608E-02  0.1101514E+00
          1   -1    0    0  502    0  0.00000000000E+00  0.00000000000E+00  0.33768357613E+02  0.33768357613E+02  0.00000000000E+00 0. -1.
         -1   -1    0    0    0  501 -0.00000000000E+00 -0.00000000000E+00 -0.22828090329E+04  0.22828090329E+04  0.00000000000E+00 0.  1.
          6    1    1    2  502    0 -0.12231893297E+03 -0.16772883176E+03 -0.84754605468E+03  0.88938922704E+03  0.17200000000E+03 0. -1.
         -6    1    1    2    0  501  0.12231893297E+03  0.16772883176E+03 -0.14014946206E+04  0.14271881634E+04  0.17200000000E+03 0.  1.
</event>
<event>
 4    1  0.3190379E-002  0.4668260E+03  0.7818608E-02  0.1022820E+00
         -2   -1    0    0    0  501 -0.00000000000E+00  0.00000000000E+00  0.60392319465E+03  0.60392319465E+03  0.00000000000E+00 0.  1.
          2   -1    0    0  502    0  0.00000000000E+00 -0.00000000000E+00 -0.42022660462E+03  0.42022660462E+03  0.00000000000E+00 0. -1.
          6    1    1    2  502    0 -0.34460514952E+03 -0.26379879815E+03 -0.10063558693E+03  0.47755003543E+03  0.17200000000E+03 0. -1.
         -6    1    1    2    0  501  0.34460514952E+03  0.26379879815E+03  0.28433217695E+03  0.54659976384E+03  0.17200000000E+03 0.  1.
</event>
<event>
 4    1  0.3190379E-002  0.1857399E+03  0.7818608E-02  0.1162361E+00
          4   -1    0    0  502    0  0.00000000000E+00  0.00000000000E+00  0.61824327546E+02  0.61824327546E+02  0.00000000000E+00 0. -1.
         -4   -1    0    0    0  501 -0.00000000000E+00 -0.00000000000E+00 -0.82461871523E+03  0.82461871523E+03  0.00000000000E+00 0.  1.
          6    1    1    2  502    0 -0.56870674907E+02 -0.41000266071E+02 -0.12938464719E+03  0.22636183957E+03  0.17200000000E+03 0. -1.
         -6    1    1    2    0  501  0.56870674907E+02  0.41000266071E+02 -0.63340974049E+03  0.66008120321E+03  0.17200000000E+03 0.  1.
</event>
<event>
 4    1  0.3190379E-002  0.2134217E+03  0.7818608E-02  0.1138885E+00
          2   -1    0    0  502    0  0.00000000000E+00  0.00000000000E+00  0.33888508062E+03  0.33888508062E+03  0.00000000000E+00 0. -1.
         -2   -1    0    0    0  501 -0.00000000000E+00 -0.00000000000E+00 -0.18413223851E+03  0.18413223851E+03  0.00000000000E+00 0.  1.
          6    1    1    2  502    0  0.85503077268E+02 -0.93027098173E+02  0.21327216522E+03  0.30171813614E+03  0.17200000000E+03 0. -1.
         -6    1    1    2    0  501 -0.85503077268E+02  0.93027098173E+02 -0.58519323106E+02  0.22129918299E+03  0.17200000000E+03 0.  1.
</event>
<event>
 4    1  0.3190379E-002  0.2283017E+03  0.7818608E-02  0.1127841E+00
          1   -1    0    0  502    0  0.00000000000E+00  0.00000000000E+00  0.11248101891E+03  0.11248101891E+03  0.00000000000E+00 0. -1.
         -1   -1    0    0    0  501 -0.00000000000E+00 -0.00000000000E+00 -0.46595219994E+03  0.46595219994E+03  0.00000000000E+00 0.  1.
          6    1    1    2  502    0  0.15007429874E+03 -0.39230929574E+01 -0.19821544186E+03  0.30234259904E+03  0.17200000000E+03 0. -1.
         -6    1    1    2    0  501 -0.15007429874E+03  0.39230929574E+01 -0.15525573917E+03  0.27609061981E+03  0.17200000000E+03 0.  1.
</event>
<event>
 4    1  0.3190379E-002  0.2646459E+03  0.7818608E-02  0.1104384E+00
          2   -1    0    0  502    0  0.00000000000E+00  0.00000000000E+00  0.20241671380E+04  0.20241671380E+04  0.00000000000E+00 0. -1.
         -2   -1    0    0    0  501 -0.00000000000E+00 -0.00000000000E+00 -0.34744168761E+02  0.34744168761E+02  0.00000000000E+00 0.  1.
          6    1    1    2  502    0  0.17156070444E+03  0.10497785878E+03  0.10608836329E+04  0.10933944891E+04  0.17200000000E+03 0. -1.
         -6    1    1    2    0  501 -0.17156070444E+03 -0.10497785878E+03  0.92853933637E+03  0.96551681773E+03  0.17200000000E+03 0.  1.
</event>
<event>
 4    1  0.3190379E-002  0.2521708E+03  0.7818608E-02  0.1111941E+00
          2   -1    0    0  502    0  0.00000000000E+00  0.00000000000E+00  0.21970843872E+03  0.21970843872E+03  0.00000000000E+00 0. -1.
         -2   -1    0    0    0  501 -0.00000000000E+00 -0.00000000000E+00 -0.32108860108E+03  0.32108860108E+03  0.00000000000E+00 0.  1.
          6    1    1    2  502    0  0.47715496423E+02 -0.17812726830E+03  0.34216529919E+02  0.25448155774E+03  0.17200000000E+03 0. -1.
         -6    1    1    2    0  501 -0.47715496423E+02  0.17812726830E+03 -0.13559669227E+03  0.28631548206E+03  0.17200000000E+03 0.  1.
</event>
<event>
 4    1  0.3190379E-002  0.4242130E+03  0.7818608E-02  0.1035704E+00
          2   -1    0    0  502    0  0.00000000000E+00  0.00000000000E+00  0.30979360431E+03  0.30979360431E+03  0.00000000000E+00 0. -1.
         -2   -1    0    0    0  501 -0.00000000000E+00 -0.00000000000E+00 -0.58118786745E+03  0.58118786745E+03  0.00000000000E+00 0.  1.
          6    1    1    2  502    0 -0.27447760453E+03  0.27392469327E+03 -0.14574493705E+03  0.44855131216E+03  0.17200000000E+03 0. -1.
         -6    1    1    2    0  501  0.27447760453E+03 -0.27392469327E+03 -0.12564932609E+03  0.44243015959E+03  0.17200000000E+03 0.  1.
</event>
<event>
 4    1  0.3190379E-002  0.1724571E+03  0.7818608E-02  0.1175309E+00
         -1   -1    0    0    0  501 -0.00000000000E+00  0.00000000000E+00  0.30326971371E+02  0.30326971371E+02  0.00000000000E+00 0.  1.
          1   -1    0    0  502    0  0.00000000000E+00 -0.00000000000E+00 -0.18505632262E+04  0.18505632262E+04  0.00000000000E+00 0. -1.
          6    1    1    2  502    0 -0.17138049975E+01  0.12429942833E+02 -0.15548940059E+04  0.15644285890E+04  0.17200000000E+03 0. -1.
         -6    1    1    2    0  501  0.17138049975E+01 -0.12429942833E+02 -0.26534224889E+03  0.31646160850E+03  0.17200000000E+03 0.  1.
</event>
<event>
 4    1  0.3190379E-002  0.5412628E+03  0.7818608E-02  0.1003537E+00
         -2   -1    0    0    0  501 -0.00000000000E+00  0.00000000000E+00  0.17675066803E+03  0.17675066803E+03  0.00000000000E+00 0.  1.
          2   -1    0    0  502    0  0.00000000000E+00 -0.00000000000E+00 -0.18748667600E+04  0.18748667600E+04  0.00000000000E+00 0. -1.
          6    1    1    2  502    0 -0.10819976223E+03 -0.50167144364E+03 -0.11983358587E+04  0.13149046566E+04  0.17200000000E+03 0. -1.
         -6    1    1    2    0  501  0.10819976223E+03  0.50167144364E+03 -0.49978023331E+03  0.73671277138E+03  0.17200000000E+03 0.  1.
</event>
<event>
 4    1  0.3190379E-002  0.1854806E+03  0.7818608E-02  0.1162602E+00
         -2   -1    0    0    0  501 -0.00000000000E+00  0.00000000000E+00  0.53438983012E+02  0.53438983012E+02  0.00000000000E+00 0.  1.
          2   -1    0    0  502    0  0.00000000000E+00 -0.00000000000E+00 -0.68163828572E+03  0.68163828572E+03  0.00000000000E+00 0. -1.
          6    1    1    2  502    0  0.36025023375E+02  0.59340173457E+02 -0.40071496324E+03  0.44156034724E+03  0.17200000000E+03 0. -1.
         -6    1    1    2    0  501 -0.36025023375E+02 -0.59340173457E+02 -0.22748433947E+03  0.29351692148E+03  0.17200000000E+03 0.  1.
</event>
<event>
 4    1  0.3190379E-002  0.1923527E+03  0.7818608E-02  0.1156356E+00
          1   -1    0    0  502    0  0.00000000000E+00  0.00000000000E+00  0.78334407262E+03  0.78334407262E+03  0.00000000000E+00 0. -1.
         -1   -1    0    0    0  501 -0.00000000000E+00 -0.00000000000E+00 -0.50522537518E+02  0.50522537518E+02  0.00000000000E+00 0.  1.
          6    1    1    2  502    0 -0.79129288738E+02 -0.33972208848E+02  0.47280126311E+03  0.51043176792E+03  0.17200000000E+03 0.  1.
         -6    1    1    2    0  501  0.79129288738E+02  0.33972208848E+02  0.26002027200E+03  0.32343484222E+03  0.17200000000E+03 0.  1.
</event>
<event>
 4    1  0.3190379E-002  0.1831302E+03  0.7818608E-02  0.1164808E+00
         -2   -1    0    0    0  501 -0.00000000000E+00  0.00000000000E+00  0.23297132049E+02  0.23297132049E+02  0.00000000000E+00 0.  1.
          2   -1    0    0  502    0  0.00000000000E+00 -0.00000000000E+00 -0.34128226154E+04  0.34128226154E+04  0.00000000000E+00 0. -1.
          6    1    1    2  502    0 -0.61493348091E+02 -0.13086117123E+02 -0.30011692219E+04  0.30067512995E+04  0.17200000000E+03 0. -1.
         -6    1    1    2    0  501  0.61493348091E+02  0.13086117123E+02 -0.38835626144E+03  0.42936844798E+03  0.17200000000E+03 0.  1.
</event>
<event>
 4    1  0.3190379E-002  0.2350934E+03  0.7818608E-02  0.1123105E+00
         -2   -1    0    0    0  501 -0.00000000000E+00  0.00000000000E+00  0.60983115724E+03  0.60983115724E+03  0.00000000000E+00 0.  1.
          2   -1    0    0  502    0  0.00000000000E+00 -0.00000000000E+00 -0.19464271980E+03  0.19464271980E+03  0.00000000000E+00 0. -1.
          6    1    1    2  502    0  0.12199278341E+03  0.10393596519E+03 -0.86445735890E+02  0.25048311184E+03  0.17200000000E+03 0. -1.
         -6    1    1    2    0  501 -0.12199278341E+03 -0.10393596519E+03  0.50163417334E+03  0.55399076520E+03  0.17200000000E+03 0.  1.
</event>
<event>
 4    1  0.3190379E-002  0.2915659E+03  0.7818608E-02  0.1089534E+00
         -2   -1    0    0    0  501 -0.00000000000E+00  0.00000000000E+00  0.32360408672E+02  0.32360408672E+02  0.00000000000E+00 0.  1.
          2   -1    0    0  502    0  0.00000000000E+00 -0.00000000000E+00 -0.27144569179E+04  0.27144569179E+04  0.00000000000E+00 0. -1.
          6    1    1    2  502    0  0.43851257826E+02  0.23130881498E+03 -0.15875741339E+04  0.16141258722E+04  0.17200000000E+03 0. -1.
         -6    1    1    2    0  501 -0.43851257826E+02 -0.23130881498E+03 -0.10945223754E+04  0.11326914544E+04  0.17200000000E+03 0.  1.
</event>
<event>
 4    1  0.3190379E-002  0.2973346E+03  0.7818608E-02  0.1086581E+00
         -2   -1    0    0    0  501 -0.00000000000E+00  0.00000000000E+00  0.29077347650E+03  0.29077347650E+03  0.00000000000E+00 0.  1.
          2   -1    0    0  502    0  0.00000000000E+00 -0.00000000000E+00 -0.41908081839E+03  0.41908081839E+03  0.00000000000E+00 0. -1.
          6    1    1    2  502    0 -0.29520119673E+02  0.24073312826E+03 -0.25010920645E+03  0.38853891910E+03  0.17200000000E+03 0. -1.
         -6    1    1    2    0  501  0.29520119673E+02 -0.24073312826E+03  0.12180186456E+03  0.32131537579E+03  0.17200000000E+03 0.  1.
</event>
<event>
 4    1  0.3190379E-002  0.1795736E+03  0.7818608E-02  0.1168216E+00
          1   -1    0    0  502    0  0.00000000000E+00  0.00000000000E+00  0.11061090142E+03  0.11061090142E+03  0.00000000000E+00 0. -1.
         -1   -1    0    0    0  501 -0.00000000000E+00 -0.00000000000E+00 -0.29169349153E+03  0.29169349153E+03  0.00000000000E+00 0.  1.
          6    1    1    2  502    0  0.51296568508E+02  0.55990581417E+01 -0.95264999134E+02  0.20327839888E+03  0.17200000000E+03 0. -1.
         -6    1    1    2    0  501 -0.51296568508E+02 -0.55990581417E+01 -0.85817590982E+02  0.19902599407E+03  0.17200000000E+03 0. -1.
</event>
<event>
 4    1  0.3190379E-002  0.2484351E+03  0.7818608E-02  0.1114298E+00
         -1   -1    0    0    0  501 -0.00000000000E+00  0.00000000000E+00  0.25258672772E+03  0.25258672772E+03  0.00000000000E+00 0.  1.
          1   -1    0    0  502    0  0.00000000000E+00 -0.00000000000E+00 -0.43981972293E+03  0.43981972293E+03  0.00000000000E+00 0. -1.
          6    1    1    2  502    0  0.15976984546E+03 -0.81299438698E+02 -0.32441425964E+03  0.40861303713E+03  0.17200000000E+03 0. -1.
         -6    1    1    2    0  501 -0.15976984546E+03  0.81299438698E+02  0.13718126443E+03  0.28379341353E+03  0.17200000000E+03 0.  1.
</event>
<event>
 4    1  0.3190379E-002  0.2340818E+03  0.7818608E-02  0.1123799E+00
          1   -1    0    0  502    0  0.00000000000E+00  0.00000000000E+00  0.15862528900E+03  0.15862528900E+03  0.00000000000E+00 0. -1.
         -1   -1    0    0    0  501 -0.00000000000E+00 -0.00000000000E+00 -0.34573641895E+03  0.34573641895E+03  0.00000000000E+00 0.  1.
          6    1    1    2  502    0  0.43913801032E+02 -0.15258389855E+03 -0.86073903057E+02  0.24940526218E+03  0.17200000000E+03 0. -1.
         -6    1    1    2    0  501 -0.43913801032E+02  0.15258389855E+03 -0.10103722689E+03  0.25495644576E+03  0.17200000000E+03 0.  1.
</event>
<event>
 4    1  0.3190379E-002  0.3531814E+03  0.7818608E-02  0.1061317E+00
         -1   -1    0    0    0  501 -0.00000000000E+00  0.00000000000E+00  0.59331438700E+03  0.59331438700E+03  0.00000000000E+00 0.  1.
          1   -1    0    0  502    0  0.00000000000E+00 -0.00000000000E+00 -0.37658230153E+03  0.37658230153E+03  0.00000000000E+00 0. -1.
          6    1    1    2  502    0  0.22086936876E+03  0.21533658252E+03 -0.21394095171E+03  0.41292596509E+03  0.17200000000E+03 0. -1.
         -6    1    1    2    0  501 -0.22086936876E+03 -0.21533658252E+03  0.43067303717E+03  0.55697072344E+03  0.17200000000E+03 0.  1.
</event>
<event>
 4    1  0.3190379E-002  0.3308929E+03  0.7818608E-02  0.1070742E+00
          1   -1    0    0  502    0  0.00000000000E+00  0.00000000000E+00  0.34508859596E+03  0.34508859596E+03  0.00000000000E+00 0. -1.
         -1   -1    0    0    0  501 -0.00000000000E+00 -0.00000000000E+00 -0.16782839986E+04  0.16782839986E+04  0.00000000000E+00 0.  1.
          6    1    1    2  502    0 -0.27758073119E+03 -0.53432816985E+02  0.24445321213E+03  0.41139701163E+03  0.17200000000E+03 0. -1.
         -6    1    1    2    0  501  0.27758073119E+03  0.53432816985E+02 -0.15776486148E+04  0.16119755829E+04  0.17200000000E+03 0.  1.
</event>
<event>
 4    1  0.3190379E-002  0.5076613E+03  0.7818608E-02  0.1011798E+00
         -2   -1    0    0    0  501 -0.00000000000E+00  0.00000000000E+00  0.29882660107E+03  0.29882660107E+03  0.00000000000E+00 0.  1.
          2   -1    0    0  502    0  0.00000000000E+00 -0.00000000000E+00 -0.86518824131E+03  0.86518824131E+03  0.00000000000E+00 0. -1.
          6    1    1    2  502    0 -0.46395742859E+03 -0.11348782580E+03 -0.25037816297E+03  0.56604700038E+03  0.17200000000E+03 0. -1.
         -6    1    1    2    0  501  0.46395742859E+03  0.11348782580E+03 -0.31598347728E+03  0.59796784200E+03  0.17200000000E+03 0.  1.
</event>
<event>
 4    1  0.3190379E-002  0.2809934E+03  0.7818608E-02  0.1095148E+00
         -1   -1    0    0    0  501 -0.00000000000E+00  0.00000000000E+00  0.35713126692E+03  0.35713126692E+03  0.00000000000E+00 0.  1.
          1   -1    0    0  502    0  0.00000000000E+00 -0.00000000000E+00 -0.23809371990E+03  0.23809371990E+03  0.00000000000E+00 0. -1.
          6    1    1    2  502    0 -0.21162182589E+03 -0.67745845123E+02 -0.20020154542E+02  0.28170570338E+03  0.17200000000E+03 0. -1.
         -6    1    1    2    0  501  0.21162182589E+03  0.67745845123E+02  0.13905770156E+03  0.31351928344E+03  0.17200000000E+03 0.  1.
</event>
<event>
 4    1  0.3190379E-002  0.2543261E+03  0.7818608E-02  0.1110601E+00
         -4   -1    0    0    0  501 -0.00000000000E+00  0.00000000000E+00  0.13884841452E+04  0.13884841452E+04  0.00000000000E+00 0.  1.
          4   -1    0    0  502    0  0.00000000000E+00 -0.00000000000E+00 -0.15821766131E+03  0.15821766131E+03  0.00000000000E+00 0. -1.
          6    1    1    2  502    0  0.18717844554E+03  0.78737098446E+01 -0.34466482561E+02  0.25665093844E+03  0.17200000000E+03 0. -1.
         -6    1    1    2    0  501 -0.18717844554E+03 -0.78737098446E+01  0.12647329665E+04  0.12900508681E+04  0.17200000000E+03 0.  1.
</event>
<event>
 4    1  0.3190379E-002  0.1773312E+03  0.7818608E-02  0.1170411E+00
         -2   -1    0    0    0  501 -0.00000000000E+00  0.00000000000E+00  0.45307516261E+02  0.45307516261E+02  0.00000000000E+00 0.  1.
          2   -1    0    0  502    0  0.00000000000E+00 -0.00000000000E+00 -0.78696524662E+03  0.78696524662E+03  0.00000000000E+00 0. -1.
          6    1    1    2  502    0 -0.29381696594E+02 -0.31607811828E+02 -0.51380631634E+03  0.54354693318E+03  0.17200000000E+03 0. -1.
         -6    1    1    2    0  501  0.29381696594E+02  0.31607811828E+02 -0.22785141402E+03  0.28872582969E+03  0.17200000000E+03 0.  1.
</event>
<event>
 4    1  0.3190379E-002  0.2132465E+03  0.7818608E-02  0.1139021E+00
          2   -1    0    0  502    0  0.00000000000E+00  0.00000000000E+00  0.63600706106E+02  0.63600706106E+02  0.00000000000E+00 0. -1.
         -2   -1    0    0    0  501 -0.00000000000E+00 -0.00000000000E+00 -0.75893663283E+03  0.75893663283E+03  0.00000000000E+00 0.  1.
          6    1    1    2  502    0 -0.11611271371E+03 -0.49070345212E+02 -0.24870544519E+03  0.32761022501E+03  0.17200000000E+03 0. -1.
         -6    1    1    2    0  501  0.11611271371E+03  0.49070345212E+02 -0.44663048153E+03  0.49492711393E+03  0.17200000000E+03 0.  1.
</event>
<event>
 4    1  0.3190379E-002  0.4257797E+03  0.7818608E-02  0.1035201E+00
          2   -1    0    0  502    0  0.00000000000E+00  0.00000000000E+00  0.17286003032E+04  0.17286003032E+04  0.00000000000E+00 0. -1.
         -2   -1    0    0    0  501 -0.00000000000E+00 -0.00000000000E+00 -0.13926415406E+03  0.13926415406E+03  0.00000000000E+00 0.  1.
          6    1    1    2  502    0  0.62558558185E+02  0.38443571523E+03  0.12587569864E+04  0.13288181001E+04  0.17200000000E+03 0. -1.
         -6    1    1    2    0  501 -0.62558558185E+02 -0.38443571523E+03  0.33057916278E+03  0.53904635720E+03  0.17200000000E+03 0.  1.
</event>
<event>
 4    1  0.3190379E-002  0.2414950E+03  0.7818608E-02  0.1118801E+00
          1   -1    0    0  502    0  0.00000000000E+00  0.00000000000E+00  0.13491320284E+03  0.13491320284E+03  0.00000000000E+00 0. -1.
         -1   -1    0    0    0  501 -0.00000000000E+00 -0.00000000000E+00 -0.44675450867E+03  0.44675450867E+03  0.00000000000E+00 0.  1.
          6    1    1    2  502    0  0.47811665002E+02  0.16263417533E+03 -0.20827615511E+03  0.31890247268E+03  0.17200000000E+03 0. -1.
         -6    1    1    2    0  501 -0.47811665002E+02 -0.16263417533E+03 -0.10356515072E+03  0.26276523884E+03  0.17200000000E+03 0. -1.
</event>
<event>
 4    1  0.3190379E-002  0.1847527E+03  0.7818608E-02  0.1163281E+00
         -1   -1    0    0    0  501 -0.00000000000E+00  0.00000000000E+00  0.74457909434E+03  0.74457909434E+03  0.00000000000E+00 0.  1.
          1   -1    0    0  502    0  0.00000000000E+00 -0.00000000000E+00 -0.79445174247E+02  0.79445174247E+02  0.00000000000E+00 0. -1.
          6    1    1    2  502    0  0.23288203521E+02 -0.63302660771E+02  0.64612228892E+02  0.19572508119E+03  0.17200000000E+03 0. -1.
         -6    1    1    2    0  501 -0.23288203521E+02  0.63302660771E+02  0.60052169120E+03  0.62829918740E+03  0.17200000000E+03 0.  1.
</event>
<event>
 4    1  0.3190379E-002  0.1732826E+03  0.7818608E-02  0.1174467E+00
         -1   -1    0    0    0  501 -0.00000000000E+00  0.00000000000E+00  0.14427650162E+04  0.14427650162E+04  0.00000000000E+00 0.  1.
          1   -1    0    0  502    0  0.00000000000E+00 -0.00000000000E+00 -0.23662412017E+02  0.23662412017E+02  0.00000000000E+00 0. -1.
          6    1    1    2  502    0  0.16314866903E+02  0.13292275236E+02  0.45507162729E+03  0.48694665563E+03  0.17200000000E+03 0. -1.
         -6    1    1    2    0  501 -0.16314866903E+02 -0.13292275236E+02  0.96403097688E+03  0.97948077257E+03  0.17200000000E+03 0.  1.
</event>
<event>
 4    1  0.3190379E-002  0.2023842E+03  0.7818608E-02  0.1147743E+00
          1   -1    0    0  502    0  0.00000000000E+00  0.00000000000E+00  0.24830844301E+04  0.24830844301E+04  0.00000000000E+00 0. -1.
         -1   -1    0    0    0  501 -0.00000000000E+00 -0.00000000000E+00 -0.29492735860E+02  0.29492735860E+02  0.00000000000E+00 0.  1.
          6    1    1    2  502    0  0.49117325090E+02 -0.94672371503E+02  0.20607837191E+04  0.20706976859E+04  0.17200000000E+03 0. -1.
         -6    1    1    2    0  501 -0.49117325090E+02  0.94672371503E+02  0.39280797514E+03  0.44187948004E+03  0.17200000000E+03 0.  1.
</event>
<event>
 4    1  0.3190379E-002  0.1988942E+03  0.7818608E-02  0.1150675E+00
         -1   -1    0    0    0  501 -0.00000000000E+00  0.00000000000E+00  0.38063031064E+03  0.38063031064E+03  0.00000000000E+00 0.  1.
          1   -1    0    0  502    0  0.00000000000E+00 -0.00000000000E+00 -0.10395017532E+03  0.10395017532E+03  0.00000000000E+00 0. -1.
          6    1    1    2  502    0  0.86260878745E+02  0.50338359406E+02  0.13496052773E+03  0.24036063254E+03  0.17200000000E+03 0.  1.
         -6    1    1    2    0  501 -0.86260878745E+02 -0.50338359406E+02  0.14171960759E+03  0.24421985342E+03  0.17200000000E+03 0.  1.
</event>
<event>
 4    1  0.3190379E-002  0.2084598E+03  0.7818608E-02  0.1142792E+00
         -1   -1    0    0    0  501 -0.00000000000E+00  0.00000000000E+00  0.13105905985E+03  0.13105905985E+03  0.00000000000E+00 0.  1.
          1   -1    0    0  502    0  0.00000000000E+00 -0.00000000000E+00 -0.55402470232E+03  0.55402470232E+03  0.00000000000E+00 0. -1.
          6    1    1    2  502    0  0.32731686029E+02  0.11313756468E+03  0.55714195183E+01  0.20853419990E+03  0.17200000000E+03 0.  1.
         -6    1    1    2    0  501 -0.32731686029E+02 -0.11313756468E+03 -0.42853706199E+03  0.47654956228E+03  0.17200000000E+03 0. -1.
</event>
<event>
 4    1  0.3190379E-002  0.4096869E+03  0.7818608E-02  0.1040476E+00
         -1   -1    0    0    0  501 -0.00000000000E+00  0.00000000000E+00  0.23003642413E+03  0.23003642413E+03  0.00000000000E+00 0.  1.
          1   -1    0    0  502    0  0.00000000000E+00 -0.00000000000E+00 -0.10268012514E+04  0.10268012514E+04  0.00000000000E+00 0. -1.
          6    1    1    2  502    0 -0.28338400609E+02 -0.37075100808E+03 -0.73644986963E+03  0.84273470643E+03  0.17200000000E+03 0. -1.
         -6    1    1    2    0  501  0.28338400609E+02  0.37075100808E+03 -0.60314957683E+02  0.41410296915E+03  0.17200000000E+03 0.  1.
</event>
<event>
 4    1  0.3190379E-002  0.5537635E+03  0.7818608E-02  0.1000627E+00
         -1   -1    0    0    0  501 -0.00000000000E+00  0.00000000000E+00  0.10270411770E+04  0.10270411770E+04  0.00000000000E+00 0.  1.
          1   -1    0    0  502    0  0.00000000000E+00 -0.00000000000E+00 -0.70943971587E+03  0.70943971587E+03  0.00000000000E+00 0. -1.
          6    1    1    2  502    0  0.52189130707E+03  0.68552885169E+02 -0.50193684311E+03  0.74739188444E+03  0.17200000000E+03 0. -1.
         -6    1    1    2    0  501 -0.52189130707E+03 -0.68552885169E+02  0.81953830422E+03  0.98908900841E+03  0.17200000000E+03 0.  1.
</event>
<event>
 4    1  0.3190379E-002  0.2920128E+03  0.7818608E-02  0.1089303E+00
          2   -1    0    0  502    0  0.00000000000E+00  0.00000000000E+00  0.84066176826E+03  0.84066176826E+03  0.00000000000E+00 0. -1.
         -2   -1    0    0    0  501 -0.00000000000E+00 -0.00000000000E+00 -0.10536677719E+03  0.10536677719E+03  0.00000000000E+00 0.  1.
          6    1    1    2  502    0 -0.85312365425E+02  0.22002113015E+03  0.45903449990E+03  0.54404427164E+03  0.17200000000E+03 0.  1.
         -6    1    1    2    0  501  0.85312365425E+02 -0.22002113015E+03  0.27626049117E+03  0.40198427381E+03  0.17200000000E+03 0.  1.
</event>
<event>
 4    1  0.3190379E-002  0.2021205E+03  0.7818608E-02  0.1147962E+00
         -1   -1    0    0    0  501 -0.00000000000E+00  0.00000000000E+00  0.16646367863E+02  0.16646367863E+02  0.00000000000E+00 0.  1.
          1   -1    0    0  502    0  0.00000000000E+00 -0.00000000000E+00 -0.28405263494E+04  0.28405263494E+04  0.00000000000E+00 0. -1.
          6    1    1    2  502    0 -0.10615418390E+03 -0.46073785025E-01 -0.19388195736E+04  0.19493265637E+04  0.17200000000E+03 0. -1.
         -6    1    1    2    0  501  0.10615418390E+03  0.46073785025E-01 -0.88506040792E+03  0.90784615357E+03  0.17200000000E+03 0.  1.
</event>
<event>
 4    1  0.3190379E-002  0.2390485E+03  0.7818608E-02  0.1120428E+00
         -2   -1    0    0    0  501 -0.00000000000E+00  0.00000000000E+00  0.59695298737E+03  0.59695298737E+03  0.00000000000E+00 0.  1.
          2   -1    0    0  502    0  0.00000000000E+00 -0.00000000000E+00 -0.11411040291E+03  0.11411040291E+03  0.00000000000E+00 0. -1.
          6    1    1    2  502    0  0.14222174170E+03  0.85633986807E+02  0.98717704430E+02  0.25862982944E+03  0.17200000000E+03 0. -1.
         -6    1    1    2    0  501 -0.14222174170E+03 -0.85633986807E+02  0.38412488004E+03  0.45243356084E+03  0.17200000000E+03 0.  1.
</event>
<event>
 4    1  0.3190379E-002  0.5657276E+03  0.7818608E-02  0.9979178E-01
          1   -1    0    0  502    0  0.00000000000E+00  0.00000000000E+00  0.22151825951E+03  0.22151825951E+03  0.00000000000E+00 0. -1.
         -1   -1    0    0    0  501 -0.00000000000E+00 -0.00000000000E+00 -0.14530382089E+04  0.14530382089E+04  0.00000000000E+00 0.  1.
          6    1    1    2  502    0 -0.53834921087E+03  0.25373322802E+02 -0.55268254258E+03  0.79088916494E+03  0.17200000000E+03 0. -1.
         -6    1    1    2    0  501  0.53834921087E+03 -0.25373322802E+02 -0.67883740684E+03  0.88366730350E+03  0.17200000000E+03 0.  1.
</event>
<event>
 4    1  0.3190379E-002  0.1763301E+03  0.7818608E-02  0.1171403E+00
         -2   -1    0    0    0  501 -0.00000000000E+00  0.00000000000E+00  0.10734699309E+02  0.10734699309E+02  0.00000000000E+00 0.  1.
          2   -1    0    0  502    0  0.00000000000E+00 -0.00000000000E+00 -0.42340963191E+04  0.42340963191E+04  0.00000000000E+00 0. -1.
          6    1    1    2  502    0  0.37747044410E+02  0.91359198075E+01 -0.33046355054E+04  0.33093365087E+04  0.17200000000E+03 0. -1.
         -6    1    1    2    0  501 -0.37747044410E+02 -0.91359198075E+01 -0.91872611433E+03  0.93549450963E+03  0.17200000000E+03 0.  1.
</event>
<event>
 4    1  0.3190379E-002  0.2065374E+03  0.7818608E-02  0.1144338E+00
          1   -1    0    0  502    0  0.00000000000E+00  0.00000000000E+00  0.34914808289E+03  0.34914808289E+03  0.00000000000E+00 0. -1.
         -1   -1    0    0    0  501 -0.00000000000E+00 -0.00000000000E+00 -0.12780876787E+03  0.12780876787E+03  0.00000000000E+00 0.  1.
          6    1    1    2  502    0 -0.10314790667E+03  0.49337740274E+02  0.16073175481E+03  0.26171052763E+03  0.17200000000E+03 0. -1.
         -6    1    1    2    0  501  0.10314790667E+03 -0.49337740274E+02  0.60607560218E+02  0.21524632313E+03  0.17200000000E+03 0.  1.
</event>
<event>
 4    1  0.3190379E-002  0.1878894E+03  0.7818608E-02  0.1160379E+00
          1   -1    0    0  502    0  0.00000000000E+00  0.00000000000E+00  0.62572502632E+03  0.62572502632E+03  0.00000000000E+00 0. -1.
         -1   -1    0    0    0  501 -0.00000000000E+00 -0.00000000000E+00 -0.56473729445E+02  0.56473729445E+02  0.00000000000E+00 0.  1.
          6    1    1    2  502    0  0.74092769675E+02  0.15122582193E+02  0.27395301610E+03  0.33219374775E+03  0.17200000000E+03 0. -1.
         -6    1    1    2    0  501 -0.74092769675E+02 -0.15122582193E+02  0.29529828077E+03  0.35000500801E+03  0.17200000000E+03 0. -1.
</event>
<event>
 4    1  0.3190379E-002  0.1821036E+03  0.7818608E-02  0.1165783E+00
         -1   -1    0    0    0  501 -0.00000000000E+00  0.00000000000E+00  0.13027546774E+03  0.13027546774E+03  0.00000000000E+00 0.  1.
          1   -1    0    0  502    0  0.00000000000E+00 -0.00000000000E+00 -0.25602633590E+03  0.25602633590E+03  0.00000000000E+00 0. -1.
          6    1    1    2  502    0  0.58345992292E+02 -0.13170644171E+02 -0.77538799540E+02  0.19792419286E+03  0.17200000000E+03 0.  1.
         -6    1    1    2    0  501 -0.58345992292E+02  0.13170644171E+02 -0.48212068614E+02  0.18837761078E+03  0.17200000000E+03 0.  1.
</event>
<event>
 4    1  0.3190379E-002  0.3447131E+03  0.7818608E-02  0.1064806E+00
          2   -1    0    0  502    0  0.00000000000E+00  0.00000000000E+00  0.43935567355E+03  0.43935567355E+03  0.00000000000E+00 0. -1.
         -2   -1    0    0    0  501 -0.00000000000E+00 -0.00000000000E+00 -0.27136739752E+03  0.27136739752E+03  0.00000000000E+00 0.  1.
          6    1    1    2  502    0  0.19984451064E+03  0.22204790176E+03  0.10456981475E+03  0.36022485376E+03  0.17200000000E+03 0. -1.
         -6    1    1    2    0  501 -0.19984451064E+03 -0.22204790176E+03  0.63418461278E+02  0.35049821731E+03  0.17200000000E+03 0.  1.
</event>
<event>
 4    1  0.3190379E-002  0.2030781E+03  0.7818608E-02  0.1147168E+00
         -1   -1    0    0    0  501 -0.00000000000E+00  0.00000000000E+00  0.15051538814E+03  0.15051538814E+03  0.00000000000E+00 0.  1.
          1   -1    0    0  502    0  0.00000000000E+00 -0.00000000000E+00 -0.40077761551E+03  0.40077761551E+03  0.00000000000E+00 0. -1.
          6    1    1    2  502    0 -0.42568916591E+02 -0.99219931339E+02  0.29903202323E+02  0.20526789555E+03  0.17200000000E+03 0.  1.
         -6    1    1    2    0  501  0.42568916591E+02  0.99219931339E+02 -0.28016542970E+03  0.34602510810E+03  0.17200000000E+03 0. -1.
</event>
<event>
 4    1  0.3190379E-002  0.1773201E+03  0.7818608E-02  0.1170422E+00
          2   -1    0    0  502    0  0.00000000000E+00  0.00000000000E+00  0.48152649605E+04  0.48152649605E+04  0.00000000000E+00 0. -1.
         -2   -1    0    0    0  501 -0.00000000000E+00 -0.00000000000E+00 -0.82932112525E+01  0.82932112525E+01  0.00000000000E+00 0.  1.
          6    1    1    2  502    0  0.37549738312E+02 -0.21176208058E+02  0.35156290478E+04  0.35200980123E+04  0.17200000000E+03 0. -1.
         -6    1    1    2    0  501 -0.37549738312E+02  0.21176208058E+02  0.12913427015E+04  0.13034601594E+04  0.17200000000E+03 0.  1.
</event>
<event>
 4    1  0.3190379E-002  0.6016839E+03  0.7818608E-02  0.9901919E-01
          2   -1    0    0  502    0  0.00000000000E+00  0.00000000000E+00  0.11968309424E+04  0.11968309424E+04  0.00000000000E+00 0. -1.
         -2   -1    0    0    0  501 -0.00000000000E+00 -0.00000000000E+00 -0.32354308425E+03  0.32354308425E+03  0.00000000000E+00 0.  1.
          6    1    1    2  502    0  0.54004404094E+03  0.20197002857E+03  0.63058213579E+03  0.87158320807E+03  0.17200000000E+03 0. -1.
         -6    1    1    2    0  501 -0.54004404094E+03 -0.20197002857E+03  0.24270572234E+03  0.64879081857E+03  0.17200000000E+03 0.  1.
</event>
<event>
 4    1  0.3190379E-002  0.2313445E+03  0.7818608E-02  0.1125697E+00
          1   -1    0    0  502    0  0.00000000000E+00  0.00000000000E+00  0.19809420887E+04  0.19809420887E+04  0.00000000000E+00 0. -1.
         -1   -1    0    0    0  501 -0.00000000000E+00 -0.00000000000E+00 -0.65879892593E+02  0.65879892593E+02  0.00000000000E+00 0.  1.
          6    1    1    2  502    0 -0.88599883218E+01 -0.15445959742E+03  0.17435589607E+04  0.17588399916E+04  0.17200000000E+03 0. -1.
         -6    1    1    2    0  501  0.88599883218E+01  0.15445959742E+03  0.17150323539E+03  0.28798198968E+03  0.17200000000E+03 0.  1.
</event>
<event>
 4    1  0.3190379E-002  0.1823852E+03  0.7818608E-02  0.1165514E+00
          1   -1    0    0  502    0  0.00000000000E+00  0.00000000000E+00  0.24696695738E+03  0.24696695738E+03  0.00000000000E+00 0. -1.
         -1   -1    0    0    0  501 -0.00000000000E+00 -0.00000000000E+00 -0.31270112603E+03  0.31270112603E+03  0.00000000000E+00 0.  1.
          6    1    1    2  502    0  0.56490047063E+01 -0.60402304791E+02  0.17826662016E+03  0.25503595343E+03  0.17200000000E+03 0. -1.
         -6    1    1    2    0  501 -0.56490047063E+01  0.60402304791E+02 -0.24400078881E+03  0.30463212998E+03  0.17200000000E+03 0.  1.
</event>
<event>
 4    1  0.3190379E-002  0.2087704E+03  0.7818608E-02  0.1142543E+00
         -2   -1    0    0    0  501 -0.00000000000E+00  0.00000000000E+00  0.31963172056E+03  0.31963172056E+03  0.00000000000E+00 0.  1.
          2   -1    0    0  502    0  0.00000000000E+00 -0.00000000000E+00 -0.13703242656E+03  0.13703242656E+03  0.00000000000E+00 0. -1.
          6    1    1    2  502    0 -0.10582606676E+03  0.52933179364E+02  0.10729081519E+03  0.23472621692E+03  0.17200000000E+03 0. -1.
         -6    1    1    2    0  501  0.10582606676E+03 -0.52933179364E+02  0.75308478813E+02  0.22193793021E+03  0.17200000000E+03 0. -1.
</event>
<event>
 4    1  0.3190379E-002  0.1848126E+03  0.7818608E-02  0.1163225E+00
          1   -1    0    0  502    0  0.00000000000E+00  0.00000000000E+00  0.57784808657E+03  0.57784808657E+03  0.00000000000E+00 0. -1.
         -1   -1    0    0    0  501 -0.00000000000E+00 -0.00000000000E+00 -0.95604914356E+02  0.95604914356E+02  0.00000000000E+00 0.  1.
          6    1    1    2  502    0  0.56435156096E+02 -0.37239291088E+02  0.33073981414E+02  0.18774871475E+03  0.17200000000E+03 0.  1.
         -6    1    1    2    0  501 -0.56435156096E+02  0.37239291088E+02  0.44916919080E+03  0.48570428617E+03  0.17200000000E+03 0. -1.
</event>
<event>
 4    1  0.3190379E-002  0.3170277E+03  0.7818608E-02  0.1077025E+00
          2   -1    0    0  502    0  0.00000000000E+00  0.00000000000E+00  0.91977260547E+03  0.91977260547E+03  0.00000000000E+00 0. -1.
         -2   -1    0    0    0  501 -0.00000000000E+00 -0.00000000000E+00 -0.10930547721E+03  0.10930547721E+03  0.00000000000E+00 0.  1.
          6    1    1    2  502    0  0.10312979432E+02  0.26611312695E+03  0.39640031066E+03  0.50758226936E+03  0.17200000000E+03 0. -1.
         -6    1    1    2    0  501 -0.10312979432E+02 -0.26611312695E+03  0.41406681760E+03  0.52149581333E+03  0.17200000000E+03 0.  1.
</event>
<event>
 4    1  0.3190379E-002  0.1922514E+03  0.7818608E-02  0.1156446E+00
          2   -1    0    0  502    0  0.00000000000E+00  0.00000000000E+00  0.43001063619E+03  0.43001063619E+03  0.00000000000E+00 0. -1.
         -2   -1    0    0    0  501 -0.00000000000E+00 -0.00000000000E+00 -0.98471616428E+02  0.98471616428E+02  0.00000000000E+00 0.  1.
          6    1    1    2  502    0  0.85692451720E+02 -0.57788020128E+01  0.71552868578E+02  0.20513508680E+03  0.17200000000E+03 0. -1.
         -6    1    1    2    0  501 -0.85692451720E+02  0.57788020128E+01  0.25998615118E+03  0.32334716581E+03  0.17200000000E+03 0.  1.
</event>
<event>
 4    1  0.3190379E-002  0.1740257E+03  0.7818608E-02  0.1173714E+00
          2   -1    0    0  502    0  0.00000000000E+00  0.00000000000E+00  0.21390338681E+03  0.21390338681E+03  0.00000000000E+00 0. -1.
         -2   -1    0    0    0  501 -0.00000000000E+00 -0.00000000000E+00 -0.31205520249E+03  0.31205520249E+03  0.00000000000E+00 0.  1.
          6    1    1    2  502    0 -0.24844106736E+02 -0.91495642254E+01  0.14529598174E+03  0.22670656469E+03  0.17200000000E+03 0. -1.
         -6    1    1    2    0  501  0.24844106736E+02  0.91495642254E+01 -0.24344779742E+03  0.29925202461E+03  0.17200000000E+03 0.  1.
</event>
<event>
 4    1  0.3190379E-002  0.4860155E+03  0.7818608E-02  0.1017495E+00
         -2   -1    0    0    0  501 -0.00000000000E+00  0.00000000000E+00  0.69570339050E+03  0.69570339050E+03  0.00000000000E+00 0.  1.
          2   -1    0    0  502    0  0.00000000000E+00 -0.00000000000E+00 -0.88253829662E+03  0.88253829662E+03  0.00000000000E+00 0. -1.
          6    1    1    2  502    0 -0.12863948241E+03 -0.43598044304E+03 -0.71240313729E+03  0.86239741022E+03  0.17200000000E+03 0. -1.
         -6    1    1    2    0  501  0.12863948241E+03  0.43598044304E+03  0.52556823117E+03  0.71584427690E+03  0.17200000000E+03 0.  1.
</event>
<event>
 4    1  0.3190379E-002  0.1822395E+03  0.7818608E-02  0.1165653E+00
          3   -1    0    0  502    0  0.00000000000E+00  0.00000000000E+00  0.15436533968E+03  0.15436533968E+03  0.00000000000E+00 0. -1.
         -3   -1    0    0    0  501 -0.00000000000E+00 -0.00000000000E+00 -0.25078703796E+03  0.25078703796E+03  0.00000000000E+00 0.  1.
          6    1    1    2  502    0 -0.58544900017E+02  0.14133137355E+02  0.28155933147E+02  0.18440175558E+03  0.17200000000E+03 0. -1.
         -6    1    1    2    0  501  0.58544900017E+02 -0.14133137355E+02 -0.12457763143E+03  0.22075062206E+03  0.17200000000E+03 0.  1.
</event>
<event>
 4    1  0.3190379E-002  0.2324923E+03  0.7818608E-02  0.1124898E+00
          1   -1    0    0  502    0  0.00000000000E+00  0.00000000000E+00  0.64123742411E+03  0.64123742411E+03  0.00000000000E+00 0. -1.
         -1   -1    0    0    0  501 -0.00000000000E+00 -0.00000000000E+00 -0.84826230386E+02  0.84826230386E+02  0.00000000000E+00 0.  1.
          6    1    1    2  502    0  0.10172831321E+03  0.11882761128E+03  0.24945726327E+03  0.34100084620E+03  0.17200000000E+03 0. -1.
         -6    1    1    2    0  501 -0.10172831321E+03 -0.11882761128E+03  0.30695393045E+03  0.38506280830E+03  0.17200000000E+03 0.  1.
</event>
<event>
 4    1  0.3190379E-002  0.2815443E+03  0.7818608E-02  0.1094848E+00
         -1   -1    0    0    0  501 -0.00000000000E+00  0.00000000000E+00  0.67019031466E+03  0.67019031466E+03  0.00000000000E+00 0.  1.
          1   -1    0    0  502    0  0.00000000000E+00 -0.00000000000E+00 -0.13688479928E+03  0.13688479928E+03  0.00000000000E+00 0. -1.
          6    1    1    2  502    0  0.19350808927E+03  0.11062471393E+03  0.11786425111E+03  0.30521990374E+03  0.17200000000E+03 0. -1.
         -6    1    1    2    0  501 -0.19350808927E+03 -0.11062471393E+03  0.41544126427E+03  0.50185521020E+03  0.17200000000E+03 0.  1.
</event>
<event>
 4    1  0.3190379E-002  0.6590744E+03  0.7818608E-02  0.9789899E-01
         -2   -1    0    0    0  501 -0.00000000000E+00  0.00000000000E+00  0.32333399211E+03  0.32333399211E+03  0.00000000000E+00 0.  1.
          2   -1    0    0  502    0  0.00000000000E+00 -0.00000000000E+00 -0.13452668539E+04  0.13452668539E+04  0.00000000000E+00 0. -1.
          6    1    1    2  502    0 -0.60952345672E+03  0.18241781980E+03 -0.54172967521E+03  0.85314134015E+03  0.17200000000E+03 0. -1.
         -6    1    1    2    0  501  0.60952345672E+03 -0.18241781980E+03 -0.48020318657E+03  0.81545950584E+03  0.17200000000E+03 0.  1.
</event>
<event>
 4    1  0.3190379E-002  0.1794649E+03  0.7818608E-02  0.1168322E+00
          2   -1    0    0  502    0  0.00000000000E+00  0.00000000000E+00  0.73192240624E+03  0.73192240624E+03  0.00000000000E+00 0. -1.
         -2   -1    0    0    0  501 -0.00000000000E+00 -0.00000000000E+00 -0.44148528526E+02  0.44148528526E+02  0.00000000000E+00 0.  1.
          6    1    1    2  502    0 -0.49816559793E+02 -0.11914696273E+02  0.32169932339E+03  0.36837223604E+03  0.17200000000E+03 0.  1.
         -6    1    1    2    0  501  0.49816559793E+02  0.11914696273E+02  0.36607455432E+03  0.40769869872E+03  0.17200000000E+03 0. -1.
</event>
<event>
 4    1  0.3190379E-002  0.3798507E+03  0.7818608E-02  0.1050989E+00
          1   -1    0    0  502    0  0.00000000000E+00  0.00000000000E+00  0.10488629342E+04  0.10488629342E+04  0.00000000000E+00 0. -1.
         -1   -1    0    0    0  501 -0.00000000000E+00 -0.00000000000E+00 -0.14409647941E+03  0.14409647941E+03  0.00000000000E+00 0.  1.
          6    1    1    2  502    0  0.14313495271E+03  0.30694456147E+03  0.57937708790E+03  0.69279462215E+03  0.17200000000E+03 0. -1.
         -6    1    1    2    0  501 -0.14313495271E+03 -0.30694456147E+03  0.32538936685E+03  0.50016479141E+03  0.17200000000E+03 0.  1.
</event>
<event>
 4    1  0.3190379E-002  0.1783659E+03  0.7818608E-02  0.1169394E+00
          1   -1    0    0  502    0  0.00000000000E+00  0.00000000000E+00  0.81152816451E+03  0.81152816451E+03  0.00000000000E+00 0. -1.
         -1   -1    0    0    0  501 -0.00000000000E+00 -0.00000000000E+00 -0.61572221047E+02  0.61572221047E+02  0.00000000000E+00 0.  1.
          6    1    1    2  502    0 -0.36099863008E+02  0.30449973124E+02  0.63810560491E+03  0.66256559222E+03  0.17200000000E+03 0. -1.
         -6    1    1    2    0  501  0.36099863008E+02 -0.30449973124E+02  0.11185033855E+03  0.21053479334E+03  0.17200000000E+03 0.  1.
</event>
<event>
 4    1  0.3190379E-002  0.1749714E+03  0.7818608E-02  0.1172760E+00
          2   -1    0    0  502    0  0.00000000000E+00  0.00000000000E+00  0.10465495447E+04  0.10465495447E+04  0.00000000000E+00 0. -1.
         -2   -1    0    0    0  501 -0.00000000000E+00 -0.00000000000E+00 -0.32210708233E+02  0.32210708233E+02  0.00000000000E+00 0.  1.
          6    1    1    2  502    0 -0.32084376223E+02 -0.12626310964E+01  0.67060713701E+03  0.69305766978E+03  0.17200000000E+03 0. -1.
         -6    1    1    2    0  501  0.32084376223E+02  0.12626310964E+01  0.34373169942E+03  0.38570258312E+03  0.17200000000E+03 0.  1.
</event>
<event>
 4    1  0.3190379E-002  0.5017500E+03  0.7818608E-02  0.1013323E+00
          2   -1    0    0  502    0  0.00000000000E+00  0.00000000000E+00  0.89314853316E+03  0.89314853316E+03  0.00000000000E+00 0. -1.
         -2   -1    0    0    0  501 -0.00000000000E+00 -0.00000000000E+00 -0.29316429433E+03  0.29316429433E+03  0.00000000000E+00 0.  1.
          6    1    1    2  502    0  0.35806214731E+03  0.30652983162E+03  0.41640903184E+03  0.65203490765E+03  0.17200000000E+03 0. -1.
         -6    1    1    2    0  501 -0.35806214731E+03 -0.30652983162E+03  0.18357520700E+03  0.53427791984E+03  0.17200000000E+03 0.  1.
</event>
<event>
 4    1  0.3190379E-002  0.7466541E+03  0.7818608E-02  0.9640614E-01
         -2   -1    0    0    0  501 -0.00000000000E+00  0.00000000000E+00  0.13103057475E+04  0.13103057475E+04  0.00000000000E+00 0.  1.
          2   -1    0    0  502    0  0.00000000000E+00 -0.00000000000E+00 -0.10852731991E+04  0.10852731991E+04  0.00000000000E+00 0. -1.
          6    1    1    2  502    0  0.15544639368E+02 -0.72640667883E+03 -0.82142385698E+03  0.11100583100E+04  0.17200000000E+03 0. -1.
         -6    1    1    2    0  501 -0.15544639368E+02  0.72640667883E+03  0.10464564053E+04  0.12855206366E+04  0.17200000000E+03 0.  1.
</event>
<event>
 4    1  0.3190379E-002  0.6244823E+03  0.7818608E-02  0.9855876E-01
         -1   -1    0    0    0  501 -0.00000000000E+00  0.00000000000E+00  0.41648547769E+03  0.41648547769E+03  0.00000000000E+00 0.  1.
          1   -1    0    0  502    0  0.00000000000E+00 -0.00000000000E+00 -0.93860861331E+03  0.93860861331E+03  0.00000000000E+00 0. -1.
          6    1    1    2  502    0 -0.56608997761E+02  0.59765339824E+03 -0.29426318141E+03  0.69033975910E+03  0.17200000000E+03 0. -1.
         -6    1    1    2    0  501  0.56608997761E+02 -0.59765339824E+03 -0.22785995421E+03  0.66475433190E+03  0.17200000000E+03 0.  1.
</event>
<event>
 4    1  0.3190379E-002  0.1881763E+03  0.7818608E-02  0.1160117E+00
          4   -1    0    0  502    0  0.00000000000E+00  0.00000000000E+00  0.24161168848E+03  0.24161168848E+03  0.00000000000E+00 0. -1.
         -4   -1    0    0    0  501 -0.00000000000E+00 -0.00000000000E+00 -0.14985307446E+03  0.14985307446E+03  0.00000000000E+00 0.  1.
          6    1    1    2  502    0 -0.54059307870E+02 -0.53888033767E+02  0.74899952074E+02  0.20253476682E+03  0.17200000000E+03 0.  1.
         -6    1    1    2    0  501  0.54059307870E+02  0.53888033767E+02  0.16858661951E+02  0.18892999612E+03  0.17200000000E+03 0. -1.
</event>
<event>
 4    1  0.3190379E-002  0.1860920E+03  0.7818608E-02  0.1162034E+00
         -2   -1    0    0    0  501 -0.00000000000E+00  0.00000000000E+00  0.43678619492E+02  0.43678619492E+02  0.00000000000E+00 0.  1.
          2   -1    0    0  502    0  0.00000000000E+00 -0.00000000000E+00 -0.10582524959E+04  0.10582524959E+04  0.00000000000E+00 0. -1.
          6    1    1    2  502    0 -0.70888064706E+02 -0.45941833152E+01 -0.23136310315E+03  0.29691599778E+03  0.17200000000E+03 0. -1.
         -6    1    1    2    0  501  0.70888064706E+02  0.45941833152E+01 -0.78321077328E+03  0.80501511763E+03  0.17200000000E+03 0.  1.
</event>
<event>
 4    1  0.3190379E-002  0.2628687E+03  0.7818608E-02  0.1105432E+00
          1   -1    0    0  502    0  0.00000000000E+00  0.00000000000E+00  0.33552918868E+03  0.33552918868E+03  0.00000000000E+00 0. -1.
         -1   -1    0    0    0  501 -0.00000000000E+00 -0.00000000000E+00 -0.33977267476E+03  0.33977267476E+03  0.00000000000E+00 0.  1.
          6    1    1    2  502    0 -0.15206846148E+03  0.12802782248E+03  0.20978739493E+03  0.33631932947E+03  0.17200000000E+03 0. -1.
         -6    1    1    2    0  501  0.15206846148E+03 -0.12802782248E+03 -0.21403088102E+03  0.33898253397E+03  0.17200000000E+03 0.  1.
</event>
<event>
 4    1  0.3190379E-002  0.2648022E+03  0.7818608E-02  0.1104292E+00
         -2   -1    0    0    0  501 -0.00000000000E+00  0.00000000000E+00  0.84754913530E+02  0.84754913530E+02  0.00000000000E+00 0.  1.
          2   -1    0    0  502    0  0.00000000000E+00 -0.00000000000E+00 -0.25532223457E+04  0.25532223457E+04  0.00000000000E+00 0. -1.
          6    1    1    2  502    0 -0.11377479858E+03  0.16610695563E+03 -0.23186690745E+04  0.23337408817E+04  0.17200000000E+03 0. -1.
         -6    1    1    2    0  501  0.11377479858E+03 -0.16610695563E+03 -0.14979835767E+03  0.30423637761E+03  0.17200000000E+03 0.  1.
</event>
<event>
 4    1  0.3190379E-002  0.1798923E+03  0.7818608E-02  0.1167907E+00
          2   -1    0    0  502    0  0.00000000000E+00  0.00000000000E+00  0.73531328390E+02  0.73531328390E+02  0.00000000000E+00 0. -1.
         -2   -1    0    0    0  501 -0.00000000000E+00 -0.00000000000E+00 -0.44837520642E+03  0.44837520642E+03  0.00000000000E+00 0.  1.
          6    1    1    2  502    0 -0.38370923718E+02  0.36123767237E+02 -0.15197410494E+03  0.23549391270E+03  0.17200000000E+03 0. -1.
         -6    1    1    2    0  501  0.38370923718E+02 -0.36123767237E+02 -0.22286977309E+03  0.28641262211E+03  0.17200000000E+03 0.  1.
</event>
<event>
 4    1  0.3190379E-002  0.1952086E+03  0.7818608E-02  0.1153846E+00
         -2   -1    0    0    0  501 -0.00000000000E+00  0.00000000000E+00  0.32850126926E+03  0.32850126926E+03  0.00000000000E+00 0.  1.
          2   -1    0    0  502    0  0.00000000000E+00 -0.00000000000E+00 -0.11743921912E+03  0.11743921912E+03  0.00000000000E+00 0. -1.
          6    1    1    2  502    0 -0.45605996987E+02 -0.80265213516E+02  0.13020745909E+03  0.23464951282E+03  0.17200000000E+03 0. -1.
         -6    1    1    2    0  501  0.45605996987E+02  0.80265213516E+02  0.80854591040E+02  0.21129097556E+03  0.17200000000E+03 0. -1.
</event>
<event>
 4    1  0.3190379E-002  0.2202118E+03  0.7818608E-02  0.1133725E+00
         -2   -1    0    0    0  501 -0.00000000000E+00  0.00000000000E+00  0.12876159726E+03  0.12876159726E+03  0.00000000000E+00 0.  1.
          2   -1    0    0  502    0  0.00000000000E+00 -0.00000000000E+00 -0.37854610490E+03  0.37854610490E+03  0.00000000000E+00 0. -1.
          6    1    1    2  502    0  0.10144101213E+03 -0.92838369290E+02 -0.14302038823E+03  0.26257965116E+03  0.17200000000E+03 0. -1.
         -6    1    1    2    0  501 -0.10144101213E+03  0.92838369290E+02 -0.10676411941E+03  0.24472805100E+03  0.17200000000E+03 0.  1.
</event>
<event>
 4    1  0.3190379E-002  0.3604876E+03  0.7818608E-02  0.1058391E+00
         -1   -1    0    0    0  501 -0.00000000000E+00  0.00000000000E+00  0.91470268686E+02  0.91470268686E+02  0.00000000000E+00 0.  1.
          1   -1    0    0  502    0  0.00000000000E+00 -0.00000000000E+00 -0.15670233397E+04  0.15670233397E+04  0.00000000000E+00 0. -1.
          6    1    1    2  502    0  0.22591382984E+03 -0.22210422189E+03 -0.99117877587E+03  0.10546974493E+04  0.17200000000E+03 0. -1.
         -6    1    1    2    0  501 -0.22591382984E+03  0.22210422189E+03 -0.48437429517E+03  0.60379615907E+03  0.17200000000E+03 0.  1.
</event>
<event>
 4    1  0.3190379E-002  0.2791250E+03  0.7818608E-02  0.1096168E+00
          2   -1    0    0  502    0  0.00000000000E+00  0.00000000000E+00  0.13278482790E+04  0.13278482790E+04  0.00000000000E+00 0. -1.
         -2   -1    0    0    0  501 -0.00000000000E+00 -0.00000000000E+00 -0.77640982302E+02  0.77640982302E+02  0.00000000000E+00 0.  1.
          6    1    1    2  502    0 -0.95883276850E+02 -0.19782102041E+03  0.97243666370E+03  0.10117034268E+04  0.17200000000E+03 0.  1.
         -6    1    1    2    0  501  0.95883276850E+02  0.19782102041E+03  0.27777063300E+03  0.39378583450E+03  0.17200000000E+03 0.  1.
</event>
<event>
 4    1  0.3190379E-002  0.2769136E+03  0.7818608E-02  0.1097387E+00
          2   -1    0    0  502    0  0.00000000000E+00  0.00000000000E+00  0.46701060652E+03  0.46701060652E+03  0.00000000000E+00 0. -1.
         -2   -1    0    0    0  501 -0.00000000000E+00 -0.00000000000E+00 -0.33996952539E+03  0.33996952539E+03  0.00000000000E+00 0.  1.
          6    1    1    2  502    0 -0.21701088980E+03  0.18444601985E+01  0.35364875689E+03  0.44916430354E+03  0.17200000000E+03 0. -1.
         -6    1    1    2    0  501  0.21701088980E+03 -0.18444601985E+01 -0.22660767575E+03  0.35781582837E+03  0.17200000000E+03 0.  1.
</event>
<event>
 4    1  0.3190379E-002  0.2011382E+03  0.7818608E-02  0.1148782E+00
          3   -1    0    0  502    0  0.00000000000E+00  0.00000000000E+00  0.10090871527E+03  0.10090871527E+03  0.00000000000E+00 0. -1.
         -3   -1    0    0    0  501 -0.00000000000E+00 -0.00000000000E+00 -0.52671529126E+03  0.52671529126E+03  0.00000000000E+00 0.  1.
          6    1    1    2  502    0  0.40753806664E+02 -0.95977521064E+02 -0.59544115229E+02  0.20976667744E+03  0.17200000000E+03 0. -1.
         -6    1    1    2    0  501 -0.40753806664E+02  0.95977521064E+02 -0.36626246076E+03  0.41785732908E+03  0.17200000000E+03 0.  1.
</event>
<event>
 4    1  0.3190379E-002  0.2125697E+03  0.7818608E-02  0.1139547E+00
          2   -1    0    0  502    0  0.00000000000E+00  0.00000000000E+00  0.27566259527E+03  0.27566259527E+03  0.00000000000E+00 0. -1.
         -2   -1    0    0    0  501 -0.00000000000E+00 -0.00000000000E+00 -0.16709537454E+03  0.16709537454E+03  0.00000000000E+00 0.  1.
          6    1    1    2  502    0 -0.10488434009E+03  0.67831655310E+02  0.84814447552E+02  0.22886535074E+03  0.17200000000E+03 0. -1.
         -6    1    1    2    0  501  0.10488434009E+03 -0.67831655310E+02  0.23752773184E+02  0.21389261907E+03  0.17200000000E+03 0. -1.
</event>
<event>
 4    1  0.3190379E-002  0.1890140E+03  0.7818608E-02  0.1159354E+00
         -2   -1    0    0    0  501 -0.00000000000E+00  0.00000000000E+00  0.68392696732E+02  0.68392696732E+02  0.00000000000E+00 0.  1.
          2   -1    0    0  502    0  0.00000000000E+00 -0.00000000000E+00 -0.52967601202E+03  0.52967601202E+03  0.00000000000E+00 0. -1.
          6    1    1    2  502    0  0.24297283819E+02  0.74511180912E+02 -0.26576245291E+03  0.32612260801E+03  0.17200000000E+03 0. -1.
         -6    1    1    2    0  501 -0.24297283819E+02 -0.74511180912E+02 -0.19552086238E+03  0.27194610074E+03  0.17200000000E+03 0.  1.
</event>
<event>
 4    1  0.3190379E-002  0.2443037E+03  0.7818608E-02  0.1116959E+00
          1   -1    0    0  502    0  0.00000000000E+00  0.00000000000E+00  0.92052459104E+03  0.92052459104E+03  0.00000000000E+00 0. -1.
         -1   -1    0    0    0  501 -0.00000000000E+00 -0.00000000000E+00 -0.99560304596E+02  0.99560304596E+02  0.00000000000E+00 0.  1.
          6    1    1    2  502    0 -0.99516942345E+02  0.14211503337E+03  0.10927031041E+03  0.26762717586E+03  0.17200000000E+03 0. -1.
         -6    1    1    2    0  501  0.99516942345E+02 -0.14211503337E+03  0.71169397604E+03  0.75245771978E+03  0.17200000000E+03 0. -1.
</event>
<event>
 4    1  0.3190379E-002  0.3926170E+03  0.7818608E-02  0.1046367E+00
         -1   -1    0    0    0  501 -0.00000000000E+00  0.00000000000E+00  0.91981743009E+03  0.91981743009E+03  0.00000000000E+00 0.  1.
          1   -1    0    0  502    0  0.00000000000E+00 -0.00000000000E+00 -0.16966281686E+03  0.16966281686E+03  0.00000000000E+00 0. -1.
          6    1    1    2  502    0 -0.71941846919E+02  0.34552634298E+03  0.43535341844E+03  0.58624285239E+03  0.17200000000E+03 0. -1.
         -6    1    1    2    0  501  0.71941846919E+02 -0.34552634298E+03  0.31480119479E+03  0.50323739455E+03  0.17200000000E+03 0.  1.
</event>
<event>
 4    1  0.3190379E-002  0.1831446E+03  0.7818608E-02  0.1164794E+00
          2   -1    0    0  502    0  0.00000000000E+00  0.00000000000E+00  0.20595835228E+04  0.20595835228E+04  0.00000000000E+00 0. -1.
         -2   -1    0    0    0  501 -0.00000000000E+00 -0.00000000000E+00 -0.52369377466E+02  0.52369377466E+02  0.00000000000E+00 0.  1.
          6    1    1    2  502    0 -0.53635906682E+02 -0.32880392178E+02  0.12706973005E+03  0.22290950399E+03  0.17200000000E+03 0.  1.
         -6    1    1    2    0  501  0.53635906682E+02  0.32880392178E+02  0.18801444153E+04  0.18890433963E+04  0.17200000000E+03 0. -1.
</event>
<event>
 4    1  0.3190379E-002  0.1824353E+03  0.7818608E-02  0.1165467E+00
         -1   -1    0    0    0  501 -0.00000000000E+00  0.00000000000E+00  0.19414391702E+04  0.19414391702E+04  0.00000000000E+00 0.  1.
          1   -1    0    0  502    0  0.00000000000E+00 -0.00000000000E+00 -0.27186661244E+02  0.27186661244E+02  0.00000000000E+00 0. -1.
          6    1    1    2  502    0 -0.15004834253E+02 -0.58936274833E+02  0.35885892908E+03  0.40256969648E+03  0.17200000000E+03 0. -1.
         -6    1    1    2    0  501  0.15004834253E+02  0.58936274833E+02  0.15553935799E+04  0.15660561349E+04  0.17200000000E+03 0.  1.
</event>
<event>
 4    1  0.3190379E-002  0.2039671E+03  0.7818608E-02  0.1146434E+00
         -1   -1    0    0    0  501 -0.00000000000E+00  0.00000000000E+00  0.34938330011E+03  0.34938330011E+03  0.00000000000E+00 0.  1.
          1   -1    0    0  502    0  0.00000000000E+00 -0.00000000000E+00 -0.12164292728E+03  0.12164292728E+03  0.00000000000E+00 0. -1.
          6    1    1    2  502    0  0.10655251779E+03  0.25790127084E+02  0.79646819119E+02  0.21896617432E+03  0.17200000000E+03 0. -1.
         -6    1    1    2    0  501 -0.10655251779E+03 -0.25790127084E+02  0.14809355371E+03  0.25206005307E+03  0.17200000000E+03 0.  1.
</event>
<event>
 4    1  0.3190379E-002  0.2758234E+03  0.7818608E-02  0.1097992E+00
          1   -1    0    0  502    0  0.00000000000E+00  0.00000000000E+00  0.11468552744E+03  0.11468552744E+03  0.00000000000E+00 0. -1.
         -1   -1    0    0    0  501 -0.00000000000E+00 -0.00000000000E+00 -0.68327998252E+03  0.68327998252E+03  0.00000000000E+00 0.  1.
          6    1    1    2  502    0  0.21511040142E+03  0.14902626238E+02 -0.35240943396E+03  0.44751646027E+03  0.17200000000E+03 0.  1.
         -6    1    1    2    0  501 -0.21511040142E+03 -0.14902626238E+02 -0.21618502112E+03  0.35044904968E+03  0.17200000000E+03 0. -1.
</event>
<event>
 4    1  0.3190379E-002  0.2616421E+03  0.7818608E-02  0.1106161E+00
          2   -1    0    0  502    0  0.00000000000E+00  0.00000000000E+00  0.91833304928E+03  0.91833304928E+03  0.00000000000E+00 0. -1.
         -2   -1    0    0    0  501 -0.00000000000E+00 -0.00000000000E+00 -0.10093421421E+03  0.10093421421E+03  0.00000000000E+00 0.  1.
          6    1    1    2  502    0 -0.19680895785E+03  0.11782643726E+02  0.66928894000E+03  0.71861274814E+03  0.17200000000E+03 0. -1.
         -6    1    1    2    0  501  0.19680895785E+03 -0.11782643726E+02  0.14810989506E+03  0.30065451535E+03  0.17200000000E+03 0.  1.
</event>
<event>
 4    1  0.3190379E-002  0.2023508E+03  0.7818608E-02  0.1147771E+00
          2   -1    0    0  502    0  0.00000000000E+00  0.00000000000E+00  0.25719803247E+03  0.25719803247E+03  0.00000000000E+00 0. -1.
         -2   -1    0    0    0  501 -0.00000000000E+00 -0.00000000000E+00 -0.37874528415E+03  0.37874528415E+03  0.00000000000E+00 0.  1.
          6    1    1    2  502    0  0.40056509864E+02  0.98779082827E+02  0.18131657952E+03  0.27170118365E+03  0.17200000000E+03 0. -1.
         -6    1    1    2    0  501 -0.40056509864E+02 -0.98779082827E+02 -0.30286383119E+03  0.36424213297E+03  0.17200000000E+03 0.  1.
</event>
<event>
 4    1  0.3190379E-002  0.2262592E+03  0.7818608E-02  0.1129301E+00
          1   -1    0    0  502    0  0.00000000000E+00  0.00000000000E+00  0.16830424074E+03  0.16830424074E+03  0.00000000000E+00 0. -1.
         -1   -1    0    0    0  501 -0.00000000000E+00 -0.00000000000E+00 -0.51141775119E+03  0.51141775119E+03  0.00000000000E+00 0.  1.
          6    1    1    2  502    0 -0.12668619742E+02 -0.14645388931E+03 -0.38790705506E+03  0.44907139631E+03  0.17200000000E+03 0. -1.
         -6    1    1    2    0  501  0.12668619742E+02  0.14645388931E+03  0.44793544615E+02  0.23065059562E+03  0.17200000000E+03 0.  1.
</event>
<event>
 4    1  0.3190379E-002  0.2036925E+03  0.7818608E-02  0.1146661E+00
         -1   -1    0    0    0  501 -0.00000000000E+00  0.00000000000E+00  0.39766049652E+02  0.39766049652E+02  0.00000000000E+00 0.  1.
          1   -1    0    0  502    0  0.00000000000E+00 -0.00000000000E+00 -0.16660030453E+04  0.16660030453E+04  0.00000000000E+00 0. -1.
          6    1    1    2  502    0 -0.74230406375E+02 -0.79977998917E+02 -0.13345161184E+04  0.13499718159E+04  0.17200000000E+03 0. -1.
         -6    1    1    2    0  501  0.74230406375E+02  0.79977998917E+02 -0.29172087729E+03  0.35579727907E+03  0.17200000000E+03 0.  1.
</event>
<event>
 4    1  0.3190379E-002  0.2295804E+03  0.7818608E-02  0.1126935E+00
          2   -1    0    0  502    0  0.00000000000E+00  0.00000000000E+00  0.12310561847E+04  0.12310561847E+04  0.00000000000E+00 0. -1.
         -2   -1    0    0    0  501 -0.00000000000E+00 -0.00000000000E+00 -0.43002614805E+02  0.43002614805E+02  0.00000000000E+00 0.  1.
          6    1    1    2  502    0  0.15157326409E+03  0.12193958666E+02  0.63615152702E+03  0.67631051474E+03  0.17200000000E+03 0.  1.
         -6    1    1    2    0  501 -0.15157326409E+03 -0.12193958666E+02  0.55190204291E+03  0.59774828480E+03  0.17200000000E+03 0.  1.
</event>
<event>
 4    1  0.3190379E-002  0.2806772E+03  0.7818608E-02  0.1095320E+00
          1   -1    0    0  502    0  0.00000000000E+00  0.00000000000E+00  0.15991523034E+04  0.15991523034E+04  0.00000000000E+00 0. -1.
         -1   -1    0    0    0  501 -0.00000000000E+00 -0.00000000000E+00 -0.11114953229E+03  0.11114953229E+03  0.00000000000E+00 0.  1.
          6    1    1    2  502    0  0.13147507079E+03  0.17863373494E+03  0.13820967068E+04  0.14103088358E+04  0.17200000000E+03 0. -1.
         -6    1    1    2    0  501 -0.13147507079E+03 -0.17863373494E+03  0.10590606430E+03  0.29999299984E+03  0.17200000000E+03 0.  1.
</event>
<event>
 4    1  0.3190379E-002  0.3216700E+03  0.7818608E-02  0.1074883E+00
         -1   -1    0    0    0  501 -0.00000000000E+00  0.00000000000E+00  0.27720803602E+03  0.27720803602E+03  0.00000000000E+00 0.  1.
          1   -1    0    0  502    0  0.00000000000E+00 -0.00000000000E+00 -0.39045785637E+03  0.39045785637E+03  0.00000000000E+00 0. -1.
          6    1    1    2  502    0  0.18362382809E+03  0.20042418978E+03 -0.12667981078E+03  0.34571569324E+03  0.17200000000E+03 0. -1.
         -6    1    1    2    0  501 -0.18362382809E+03 -0.20042418978E+03  0.13429990430E+02  0.32195019915E+03  0.17200000000E+03 0. -1.
</event>
<event>
 4    1  0.3190379E-002  0.2512331E+03  0.7818608E-02  0.1112528E+00
          2   -1    0    0  502    0  0.00000000000E+00  0.00000000000E+00  0.11123195144E+04  0.11123195144E+04  0.00000000000E+00 0. -1.
         -2   -1    0    0    0  501 -0.00000000000E+00 -0.00000000000E+00 -0.61812372381E+02  0.61812372381E+02  0.00000000000E+00 0.  1.
          6    1    1    2  502    0 -0.21833987345E+02  0.18181678230E+03  0.35715653146E+03  0.43666789817E+03  0.17200000000E+03 0.  1.
         -6    1    1    2    0  501  0.21833987345E+02 -0.18181678230E+03  0.69335061052E+03  0.73746398857E+03  0.17200000000E+03 0.  1.
</event>
<event>
 4    1  0.3190379E-002  0.2442156E+03  0.7818608E-02  0.1117016E+00
         -1   -1    0    0    0  501 -0.00000000000E+00  0.00000000000E+00  0.10869561536E+03  0.10869561536E+03  0.00000000000E+00 0.  1.
          1   -1    0    0  502    0  0.00000000000E+00 -0.00000000000E+00 -0.80810468029E+03  0.80810468029E+03  0.00000000000E+00 0. -1.
          6    1    1    2  502    0 -0.11390212407E+03  0.13070417544E+03 -0.60942125252E+03  0.65653296823E+03  0.17200000000E+03 0. -1.
         -6    1    1    2    0  501  0.11390212407E+03 -0.13070417544E+03 -0.89987812408E+02  0.26026732743E+03  0.17200000000E+03 0. -1.
</event>
<event>
 4    1  0.3190379E-002  0.2489957E+03  0.7818608E-02  0.1113941E+00
         -2   -1    0    0    0  501 -0.00000000000E+00  0.00000000000E+00  0.73468810648E+03  0.73468810648E+03  0.00000000000E+00 0.  1.
          2   -1    0    0  502    0  0.00000000000E+00 -0.00000000000E+00 -0.26180753494E+03  0.26180753494E+03  0.00000000000E+00 0. -1.
          6    1    1    2  502    0  0.13892299546E+03  0.11452187511E+03 -0.17372136996E+03  0.30360825570E+03  0.17200000000E+03 0. -1.
         -6    1    1    2    0  501 -0.13892299546E+03 -0.11452187511E+03  0.64660194150E+03  0.69288738573E+03  0.17200000000E+03 0.  1.
</event>
<event>
 4    1  0.3190379E-002  0.2132558E+03  0.7818608E-02  0.1139013E+00
          2   -1    0    0  502    0  0.00000000000E+00  0.00000000000E+00  0.22053837863E+04  0.22053837863E+04  0.00000000000E+00 0. -1.
         -2   -1    0    0    0  501 -0.00000000000E+00 -0.00000000000E+00 -0.43299522330E+02  0.43299522330E+02  0.00000000000E+00 0.  1.
          6    1    1    2  502    0  0.11221688716E+03 -0.57457887363E+02  0.18947351071E+04  0.19066984987E+04  0.17200000000E+03 0. -1.
         -6    1    1    2    0  501 -0.11221688716E+03  0.57457887363E+02  0.26734915681E+03  0.34198480994E+03  0.17200000000E+03 0.  1.
</event>
<event>
 4    1  0.3190379E-002  0.3890427E+03  0.7818608E-02  0.1047641E+00
         -2   -1    0    0    0  501 -0.00000000000E+00  0.00000000000E+00  0.12985839875E+04  0.12985839875E+04  0.00000000000E+00 0.  1.
          2   -1    0    0  502    0  0.00000000000E+00 -0.00000000000E+00 -0.37604483948E+03  0.37604483948E+03  0.00000000000E+00 0. -1.
          6    1    1    2  502    0 -0.14998352013E+03 -0.31507956484E+03 -0.23428368677E+03  0.45413988415E+03  0.17200000000E+03 0. -1.
         -6    1    1    2    0  501  0.14998352013E+03  0.31507956484E+03  0.11568228348E+04  0.12204889428E+04  0.17200000000E+03 0.  1.
</event>
<event>
 4    1  0.3190379E-002  0.1806104E+03  0.7818608E-02  0.1167214E+00
          2   -1    0    0  502    0  0.00000000000E+00  0.00000000000E+00  0.54971813253E+02  0.54971813253E+02  0.00000000000E+00 0. -1.
         -2   -1    0    0    0  501 -0.00000000000E+00 -0.00000000000E+00 -0.77072620892E+03  0.77072620892E+03  0.00000000000E+00 0.  1.
          6    1    1    2  502    0  0.24507394044E+01 -0.55046455618E+02 -0.55590725612E+03  0.58451090307E+03  0.17200000000E+03 0.  1.
         -6    1    1    2    0  501 -0.24507394044E+01  0.55046455618E+02 -0.15984713954E+03  0.24118711910E+03  0.17200000000E+03 0. -1.
</event>
<event>
 4    1  0.3190379E-002  0.1973734E+03  0.7818608E-02  0.1151974E+00
          2   -1    0    0  502    0  0.00000000000E+00  0.00000000000E+00  0.13867891078E+03  0.13867891078E+03  0.00000000000E+00 0. -1.
         -2   -1    0    0    0  501 -0.00000000000E+00 -0.00000000000E+00 -0.28340579419E+03  0.28340579419E+03  0.00000000000E+00 0.  1.
          6    1    1    2  502    0  0.12742378335E+01 -0.96801990249E+02 -0.52557425136E+02  0.20425114916E+03  0.17200000000E+03 0. -1.
         -6    1    1    2    0  501 -0.12742378335E+01  0.96801990249E+02 -0.92169458272E+02  0.21783355581E+03  0.17200000000E+03 0.  1.
</event>
<event>
 4    1  0.3190379E-002  0.3179760E+03  0.7818608E-02  0.1076585E+00
         -1   -1    0    0    0  501 -0.00000000000E+00  0.00000000000E+00  0.33771315466E+02  0.33771315466E+02  0.00000000000E+00 0.  1.
          1   -1    0    0  502    0  0.00000000000E+00 -0.00000000000E+00 -0.29955281295E+04  0.29955281295E+04  0.00000000000E+00 0. -1.
          6    1    1    2  502    0 -0.20940444119E+03 -0.16635665224E+03 -0.15159277436E+04  0.15489175832E+04  0.17200000000E+03 0. -1.
         -6    1    1    2    0  501  0.20940444119E+03  0.16635665224E+03 -0.14458290704E+04  0.14803818617E+04  0.17200000000E+03 0.  1.
</event>
<event>
 4    1  0.3190379E-002  0.2509773E+03  0.7818608E-02  0.1112689E+00
          1   -1    0    0  502    0  0.00000000000E+00  0.00000000000E+00  0.13706428214E+04  0.13706428214E+04  0.00000000000E+00 0. -1.
         -1   -1    0    0    0  501 -0.00000000000E+00 -0.00000000000E+00 -0.49002704948E+02  0.49002704948E+02  0.00000000000E+00 0.  1.
          6    1    1    2  502    0  0.17556933547E+03  0.50803782984E+02  0.83780514127E+03  0.87458965844E+03  0.17200000000E+03 0. -1.
         -6    1    1    2    0  501 -0.17556933547E+03 -0.50803782984E+02  0.48383497519E+03  0.54505586791E+03  0.17200000000E+03 0.  1.
</event>
<event>
 4    1  0.3190379E-002  0.4428916E+03  0.7818608E-02  0.1029863E+00
         -2   -1    0    0    0  501 -0.00000000000E+00  0.00000000000E+00  0.24858277902E+03  0.24858277902E+03  0.00000000000E+00 0.  1.
          2   -1    0    0  502    0  0.00000000000E+00 -0.00000000000E+00 -0.84318942936E+03  0.84318942936E+03  0.00000000000E+00 0. -1.
          6    1    1    2  502    0 -0.45701064142E+02  0.40556184227E+03 -0.15902471130E+03  0.47057608734E+03  0.17200000000E+03 0. -1.
         -6    1    1    2    0  501  0.45701064142E+02 -0.40556184227E+03 -0.43558193904E+03  0.62119612104E+03  0.17200000000E+03 0. -1.
</event>
<event>
 4    1  0.3190379E-002  0.1851621E+03  0.7818608E-02  0.1162899E+00
         -2   -1    0    0    0  501 -0.00000000000E+00  0.00000000000E+00  0.38204090373E+02  0.38204090373E+02  0.00000000000E+00 0.  1.
          2   -1    0    0  502    0  0.00000000000E+00 -0.00000000000E+00 -0.90369415071E+03  0.90369415071E+03  0.00000000000E+00 0. -1.
          6    1    1    2  502    0 -0.68492155468E+02 -0.31362813095E+01 -0.39349552697E+03  0.43488359519E+03  0.17200000000E+03 0. -1.
         -6    1    1    2    0  501  0.68492155468E+02  0.31362813095E+01 -0.47199453336E+03  0.50701464589E+03  0.17200000000E+03 0.  1.
</event>
<event>
 4    1  0.3190379E-002  0.1722065E+03  0.7818608E-02  0.1175566E+00
          3   -1    0    0  502    0  0.00000000000E+00  0.00000000000E+00  0.19178258094E+03  0.19178258094E+03  0.00000000000E+00 0. -1.
         -3   -1    0    0    0  501 -0.00000000000E+00 -0.00000000000E+00 -0.18657104239E+03  0.18657104239E+03  0.00000000000E+00 0.  1.
          6    1    1    2  502    0  0.28681856493E+01  0.79273532157E+01  0.80882005312E+02  0.19025500835E+03  0.17200000000E+03 0. -1.
         -6    1    1    2    0  501 -0.28681856493E+01 -0.79273532157E+01 -0.75670466767E+02  0.18809861498E+03  0.17200000000E+03 0.  1.
</event>
<event>
 4    1  0.3190379E-002  0.1840270E+03  0.7818608E-02  0.1163962E+00
         -2   -1    0    0    0  501 -0.00000000000E+00  0.00000000000E+00  0.35012050226E+02  0.35012050226E+02  0.00000000000E+00 0.  1.
          2   -1    0    0  502    0  0.00000000000E+00 -0.00000000000E+00 -0.20201474620E+04  0.20201474620E+04  0.00000000000E+00 0. -1.
          6    1    1    2  502    0 -0.63394295403E+02  0.16220526449E+02 -0.25072149573E+03  0.31100998471E+03  0.17200000000E+03 0.  1.
         -6    1    1    2    0  501  0.63394295403E+02 -0.16220526449E+02 -0.17344139160E+04  0.17441495275E+04  0.17200000000E+03 0. -1.
</event>
<event>
 4    1  0.3190379E-002  0.1952378E+03  0.7818608E-02  0.1153820E+00
         -2   -1    0    0    0  501 -0.00000000000E+00  0.00000000000E+00  0.13883019299E+03  0.13883019299E+03  0.00000000000E+00 0.  1.
          2   -1    0    0  502    0  0.00000000000E+00 -0.00000000000E+00 -0.47093984832E+03  0.47093984832E+03  0.00000000000E+00 0. -1.
          6    1    1    2  502    0  0.95642677291E+01 -0.91882042629E+02 -0.36293288269E+03  0.41211413748E+03  0.17200000000E+03 0. -1.
         -6    1    1    2    0  501 -0.95642677291E+01  0.91882042629E+02  0.30823227348E+02  0.19765590383E+03  0.17200000000E+03 0.  1.
</event>
<event>
 4    1  0.3190379E-002  0.1875629E+03  0.7818608E-02  0.1160678E+00
          3   -1    0    0  502    0  0.00000000000E+00  0.00000000000E+00  0.32709338453E+03  0.32709338453E+03  0.00000000000E+00 0. -1.
         -3   -1    0    0    0  501 -0.00000000000E+00 -0.00000000000E+00 -0.11066442261E+03  0.11066442261E+03  0.00000000000E+00 0.  1.
          6    1    1    2  502    0 -0.64877799843E+02  0.37238723653E+02  0.14491602821E+03  0.23702427446E+03  0.17200000000E+03 0. -1.
         -6    1    1    2    0  501  0.64877799843E+02 -0.37238723653E+02  0.71512933713E+02  0.20073353267E+03  0.17200000000E+03 0.  1.
</event>
<event>
 4    1  0.3190379E-002  0.2534872E+03  0.7818608E-02  0.1111121E+00
         -4   -1    0    0    0  501 -0.00000000000E+00  0.00000000000E+00  0.10150782824E+04  0.10150782824E+04  0.00000000000E+00 0.  1.
          4   -1    0    0  502    0  0.00000000000E+00 -0.00000000000E+00 -0.66676925166E+02  0.66676925166E+02  0.00000000000E+00 0. -1.
          6    1    1    2  502    0 -0.14651780348E+03  0.11491000944E+03  0.59590000948E+03  0.64757439596E+03  0.17200000000E+03 0. -1.
         -6    1    1    2    0  501  0.14651780348E+03 -0.11491000944E+03  0.35250134780E+03  0.43418081165E+03  0.17200000000E+03 0.  1.
</event>
<event>
 4    1  0.3190379E-002  0.3149713E+03  0.7818608E-02  0.1077987E+00
         -2   -1    0    0    0  501 -0.00000000000E+00  0.00000000000E+00  0.15500776901E+03  0.15500776901E+03  0.00000000000E+00 0.  1.
          2   -1    0    0  502    0  0.00000000000E+00 -0.00000000000E+00 -0.68026957518E+03  0.68026957518E+03  0.00000000000E+00 0. -1.
          6    1    1    2  502    0 -0.53097240572E+02 -0.25846395350E+03 -0.36422781568E+03  0.48152760453E+03  0.17200000000E+03 0. -1.
         -6    1    1    2    0  501  0.53097240572E+02  0.25846395350E+03 -0.16103399049E+03  0.35374973965E+03  0.17200000000E+03 0.  1.
</event>
<event>
 4    1  0.3190379E-002  0.3406365E+03  0.7818608E-02  0.1066525E+00
          1   -1    0    0  502    0  0.00000000000E+00  0.00000000000E+00  0.65447682605E+03  0.65447682605E+03  0.00000000000E+00 0. -1.
         -1   -1    0    0    0  501 -0.00000000000E+00 -0.00000000000E+00 -0.32822145743E+04  0.32822145743E+04  0.00000000000E+00 0.  1.
          6    1    1    2  502    0 -0.29153565818E+03  0.38159628752E+02  0.60057796584E+03  0.69045426374E+03  0.17200000000E+03 0. -1.
         -6    1    1    2    0  501  0.29153565818E+03 -0.38159628752E+02 -0.32283157141E+04  0.32462371366E+04  0.17200000000E+03 0.  1.
</event>
<event>
 4    1  0.3190379E-002  0.1792507E+03  0.7818608E-02  0.1168530E+00
         -1   -1    0    0    0  501 -0.00000000000E+00  0.00000000000E+00  0.22850246121E+03  0.22850246121E+03  0.00000000000E+00 0.  1.
          1   -1    0    0  502    0  0.00000000000E+00 -0.00000000000E+00 -0.15707241908E+03  0.15707241908E+03  0.00000000000E+00 0. -1.
          6    1    1    2  502    0  0.32425295101E+02  0.38670484382E+02 -0.26689137245E+02  0.18122669829E+03  0.17200000000E+03 0. -1.
         -6    1    1    2    0  501 -0.32425295101E+02 -0.38670484382E+02  0.98119179377E+02  0.20434818200E+03  0.17200000000E+03 0.  1.
</event>
<event>
 4    1  0.3190379E-002  0.3471211E+03  0.7818608E-02  0.1063803E+00
          1   -1    0    0  502    0  0.00000000000E+00  0.00000000000E+00  0.12525395225E+04  0.12525395225E+04  0.00000000000E+00 0. -1.
         -1   -1    0    0    0  501 -0.00000000000E+00 -0.00000000000E+00 -0.11500024721E+03  0.11500024721E+03  0.00000000000E+00 0.  1.
          6    1    1    2  502    0 -0.26837816289E+03 -0.13741251600E+03  0.84524346178E+03  0.91374479345E+03  0.17200000000E+03 0. -1.
         -6    1    1    2    0  501  0.26837816289E+03  0.13741251600E+03  0.29229581347E+03  0.45379497621E+03  0.17200000000E+03 0.  1.
</event>
<event>
 4    1  0.3190379E-002  0.1997994E+03  0.7818608E-02  0.1149908E+00
         -4   -1    0    0    0  501 -0.00000000000E+00  0.00000000000E+00  0.65017631307E+03  0.65017631307E+03  0.00000000000E+00 0.  1.
          4   -1    0    0  502    0  0.00000000000E+00 -0.00000000000E+00 -0.13197417737E+03  0.13197417737E+03  0.00000000000E+00 0. -1.
          6    1    1    2  502    0  0.86031937234E+02  0.54169232476E+02 -0.26884166342E+02  0.20159999596E+03  0.17200000000E+03 0. -1.
         -6    1    1    2    0  501 -0.86031937234E+02 -0.54169232476E+02  0.54508630204E+03  0.58055049448E+03  0.17200000000E+03 0.  1.
</event>
<event>
 4    1  0.3190379E-002  0.1900630E+03  0.7818608E-02  0.1158405E+00
         -1   -1    0    0    0  501 -0.00000000000E+00  0.00000000000E+00  0.71477608871E+02  0.71477608871E+02  0.00000000000E+00 0.  1.
          1   -1    0    0  502    0  0.00000000000E+00 -0.00000000000E+00 -0.57143548288E+03  0.57143548288E+03  0.00000000000E+00 0. -1.
          6    1    1    2  502    0 -0.42486334463E+02  0.68810357946E+02 -0.35926518369E+03  0.40644240205E+03  0.17200000000E+03 0. -1.
         -6    1    1    2    0  501  0.42486334463E+02 -0.68810357946E+02 -0.14069269032E+03  0.23647068970E+03  0.17200000000E+03 0.  1.
</event>
<event>
 4    1  0.3190379E-002  0.2818654E+03  0.7818608E-02  0.1094674E+00
         -2   -1    0    0    0  501 -0.00000000000E+00  0.00000000000E+00  0.50172805257E+02  0.50172805257E+02  0.00000000000E+00 0.  1.
          2   -1    0    0  502    0  0.00000000000E+00 -0.00000000000E+00 -0.21668790672E+04  0.21668790672E+04  0.00000000000E+00 0. -1.
          6    1    1    2  502    0 -0.20459314298E+03  0.89474840191E+02 -0.16335386168E+04  0.16576780489E+04  0.17200000000E+03 0. -1.
         -6    1    1    2    0  501  0.20459314298E+03 -0.89474840191E+02 -0.48316764511E+03  0.55937382354E+03  0.17200000000E+03 0.  1.
</event>
<event>
 4    1  0.3190379E-002  0.5349056E+03  0.7818608E-02  0.1005049E+00
          2   -1    0    0  502    0  0.00000000000E+00  0.00000000000E+00  0.12605822357E+04  0.12605822357E+04  0.00000000000E+00 0. -1.
         -2   -1    0    0    0  501 -0.00000000000E+00 -0.00000000000E+00 -0.11616911036E+04  0.11616911036E+04  0.00000000000E+00 0.  1.
          6    1    1    2  502    0 -0.40890772473E+03  0.29888866538E+03  0.11358388558E+04  0.12554894934E+04  0.17200000000E+03 0. -1.
         -6    1    1    2    0  501  0.40890772473E+03 -0.29888866538E+03 -0.10369477237E+04  0.11667838460E+04  0.17200000000E+03 0.  1.
</event>
<event>
 4    1  0.3190379E-002  0.2560355E+03  0.7818608E-02  0.1109549E+00
          2   -1    0    0  502    0  0.00000000000E+00  0.00000000000E+00  0.13277917974E+04  0.13277917974E+04  0.00000000000E+00 0. -1.
         -2   -1    0    0    0  501 -0.00000000000E+00 -0.00000000000E+00 -0.53154015863E+02  0.53154015863E+02  0.00000000000E+00 0.  1.
          6    1    1    2  502    0  0.11799350172E+03  0.14848467742E+03  0.82152676253E+03  0.86050007986E+03  0.17200000000E+03 0. -1.
         -6    1    1    2    0  501 -0.11799350172E+03 -0.14848467742E+03  0.45311101900E+03  0.52044573340E+03  0.17200000000E+03 0.  1.
</event>
<event>
 4    1  0.3190379E-002  0.2083909E+03  0.7818608E-02  0.1142847E+00
          2   -1    0    0  502    0  0.00000000000E+00  0.00000000000E+00  0.22538531840E+04  0.22538531840E+04  0.00000000000E+00 0. -1.
         -2   -1    0    0    0  501 -0.00000000000E+00 -0.00000000000E+00 -0.19934773593E+02  0.19934773593E+02  0.00000000000E+00 0.  1.
          6    1    1    2  502    0 -0.11752002423E+03 -0.56414490083E+01  0.13249145684E+04  0.13412029658E+04  0.17200000000E+03 0. -1.
         -6    1    1    2    0  501  0.11752002423E+03  0.56414490083E+01  0.90900384201E+03  0.93258499175E+03  0.17200000000E+03 0.  1.
</event>
<event>
 4    1  0.3190379E-002  0.2933648E+03  0.7818608E-02  0.1088605E+00
          2   -1    0    0  502    0  0.00000000000E+00  0.00000000000E+00  0.25039681081E+04  0.25039681081E+04  0.00000000000E+00 0. -1.
         -2   -1    0    0    0  501 -0.00000000000E+00 -0.00000000000E+00 -0.71068919714E+02  0.71068919714E+02  0.00000000000E+00 0.  1.
          6    1    1    2  502    0 -0.18097331007E+03 -0.15403760374E+03  0.21416517380E+04  0.21616510101E+04  0.17200000000E+03 0. -1.
         -6    1    1    2    0  501  0.18097331007E+03  0.15403760374E+03  0.29124745034E+03  0.41338601773E+03  0.17200000000E+03 0.  1.
</event>
<event>
 4    1  0.3190379E-002  0.2936424E+03  0.7818608E-02  0.1088463E+00
         -2   -1    0    0    0  501 -0.00000000000E+00  0.00000000000E+00  0.13081155775E+03  0.13081155775E+03  0.00000000000E+00 0.  1.
          2   -1    0    0  502    0  0.00000000000E+00 -0.00000000000E+00 -0.66301993693E+03  0.66301993693E+03  0.00000000000E+00 0. -1.
          6    1    1    2  502    0  0.14882243020E+03 -0.18572496690E+03 -0.29638504108E+03  0.41721693594E+03  0.17200000000E+03 0. -1.
         -6    1    1    2    0  501 -0.14882243020E+03  0.18572496690E+03 -0.23582333810E+03  0.37661455874E+03  0.17200000000E+03 0.  1.
</event>
<event>
 4    1  0.3190379E-002  0.2094286E+03  0.7818608E-02  0.1142019E+00
         -1   -1    0    0    0  501 -0.00000000000E+00  0.00000000000E+00  0.90833787776E+02  0.90833787776E+02  0.00000000000E+00 0.  1.
          1   -1    0    0  502    0  0.00000000000E+00 -0.00000000000E+00 -0.13284371688E+04  0.13284371688E+04  0.00000000000E+00 0. -1.
          6    1    1    2  502    0 -0.13458538694E+02  0.11872324490E+03 -0.11849633796E+04  0.12033281149E+04  0.17200000000E+03 0. -1.
         -6    1    1    2    0  501  0.13458538694E+02 -0.11872324490E+03 -0.52640001503E+02  0.21594284174E+03  0.17200000000E+03 0.  1.
</event>
<event>
 4    1  0.3190379E-002  0.7369427E+03  0.7818608E-02  0.9656061E-01
          2   -1    0    0  502    0  0.00000000000E+00  0.00000000000E+00  0.19491917720E+04  0.19491917720E+04  0.00000000000E+00 0. -1.
         -2   -1    0    0    0  501 -0.00000000000E+00 -0.00000000000E+00 -0.28587065278E+03  0.28587065278E+03  0.00000000000E+00 0.  1.
          6    1    1    2  502    0 -0.70690694205E+03  0.11740165306E+03  0.65368853925E+03  0.98508541722E+03  0.17200000000E+03 0. -1.
         -6    1    1    2    0  501  0.70690694205E+03 -0.11740165306E+03  0.10096325799E+04  0.12499770075E+04  0.17200000000E+03 0.  1.
</event>
<event>
 4    1  0.3190379E-002  0.3040953E+03  0.7818608E-02  0.1083211E+00
         -1   -1    0    0    0  501 -0.00000000000E+00  0.00000000000E+00  0.93748645497E+02  0.93748645497E+02  0.00000000000E+00 0.  1.
          1   -1    0    0  502    0  0.00000000000E+00 -0.00000000000E+00 -0.10397845432E+04  0.10397845432E+04  0.00000000000E+00 0. -1.
          6    1    1    2  502    0  0.17719828375E+03  0.17745624970E+03 -0.60143651531E+03  0.67394349487E+03  0.17200000000E+03 0. -1.
         -6    1    1    2    0  501 -0.17719828375E+03 -0.17745624970E+03 -0.34459938234E+03  0.45958969378E+03  0.17200000000E+03 0.  1.
</event>
<event>
 4    1  0.3190379E-002  0.2083620E+03  0.7818608E-02  0.1142870E+00
          2   -1    0    0  502    0  0.00000000000E+00  0.00000000000E+00  0.31175143336E+03  0.31175143336E+03  0.00000000000E+00 0. -1.
         -2   -1    0    0    0  501 -0.00000000000E+00 -0.00000000000E+00 -0.21591176954E+03  0.21591176954E+03  0.00000000000E+00 0.  1.
          6    1    1    2  502    0  0.11059632620E+03 -0.39989822643E+02  0.20511806848E+03  0.29238357564E+03  0.17200000000E+03 0. -1.
         -6    1    1    2    0  501 -0.11059632620E+03  0.39989822643E+02 -0.10927840466E+03  0.23527962727E+03  0.17200000000E+03 0.  1.
</event>
<event>
 4    1  0.3190379E-002  0.3313566E+03  0.7818608E-02  0.1070538E+00
          2   -1    0    0  502    0  0.00000000000E+00  0.00000000000E+00  0.10243869605E+04  0.10243869605E+04  0.00000000000E+00 0. -1.
         -2   -1    0    0    0  501 -0.00000000000E+00 -0.00000000000E+00 -0.26614498582E+03  0.26614498582E+03  0.00000000000E+00 0.  1.
          6    1    1    2  502    0  0.28252355197E+03 -0.19839677271E+02  0.87780547154E+03  0.93826415048E+03  0.17200000000E+03 0. -1.
         -6    1    1    2    0  501 -0.28252355197E+03  0.19839677271E+02 -0.11956349686E+03  0.35226779585E+03  0.17200000000E+03 0.  1.
</event>
<event>
 4    1  0.3190379E-002  0.5270520E+03  0.7818608E-02  0.1006950E+00
         -1   -1    0    0    0  501 -0.00000000000E+00  0.00000000000E+00  0.43180132565E+03  0.43180132565E+03  0.00000000000E+00 0.  1.
          1   -1    0    0  502    0  0.00000000000E+00 -0.00000000000E+00 -0.72080106478E+03  0.72080106478E+03  0.00000000000E+00 0. -1.
          6    1    1    2  502    0  0.26596111705E+03  0.42126531243E+03 -0.33345417715E+03  0.62367897792E+03  0.17200000000E+03 0. -1.
         -6    1    1    2    0  501 -0.26596111705E+03 -0.42126531243E+03  0.44454438016E+02  0.52892341251E+03  0.17200000000E+03 0.  1.
</event>
<event>
 4    1  0.3190379E-002  0.4646437E+03  0.7818608E-02  0.1023443E+00
         -1   -1    0    0    0  501 -0.00000000000E+00  0.00000000000E+00  0.10718863712E+03  0.10718863712E+03  0.00000000000E+00 0.  1.
          1   -1    0    0  502    0  0.00000000000E+00 -0.00000000000E+00 -0.21526980389E+04  0.21526980389E+04  0.00000000000E+00 0. -1.
          6    1    1    2  502    0  0.40680312051E+03 -0.14429465203E+03 -0.13094161015E+04  0.13894114770E+04  0.17200000000E+03 0. -1.
         -6    1    1    2    0  501 -0.40680312051E+03  0.14429465203E+03 -0.73609330023E+03  0.87047519902E+03  0.17200000000E+03 0.  1.
</event>
<event>
 4    1  0.3190379E-002  0.6737725E+03  0.7818608E-02  0.9763167E-01
         -2   -1    0    0    0  501 -0.00000000000E+00  0.00000000000E+00  0.88015717820E+03  0.88015717820E+03  0.00000000000E+00 0.  1.
          2   -1    0    0  502    0  0.00000000000E+00 -0.00000000000E+00 -0.51585141056E+03  0.51585141056E+03  0.00000000000E+00 0. -1.
          6    1    1    2  502    0  0.32860076690E+02  0.65061942000E+03  0.19023734916E+03  0.70011403595E+03  0.17200000000E+03 0. -1.
         -6    1    1    2    0  501 -0.32860076690E+02 -0.65061942000E+03  0.17406841848E+03  0.69589455281E+03  0.17200000000E+03 0.  1.
</event>
<event>
 4    1  0.3190379E-002  0.2010061E+03  0.7818608E-02  0.1148893E+00
         -1   -1    0    0    0  501 -0.00000000000E+00  0.00000000000E+00  0.75722772313E+02  0.75722772313E+02  0.00000000000E+00 0.  1.
          1   -1    0    0  502    0  0.00000000000E+00 -0.00000000000E+00 -0.54970728019E+03  0.54970728019E+03  0.00000000000E+00 0. -1.
          6    1    1    2  502    0  0.96161496209E+02  0.39653641204E+02 -0.18341379964E+03  0.27211039398E+03  0.17200000000E+03 0.  1.
         -6    1    1    2    0  501 -0.96161496209E+02 -0.39653641204E+02 -0.29057070823E+03  0.35331965852E+03  0.17200000000E+03 0. -1.
</event>
<event>
 4    1  0.3190379E-002  0.1966780E+03  0.7818608E-02  0.1152572E+00
         -2   -1    0    0    0  501 -0.00000000000E+00  0.00000000000E+00  0.35466480941E+02  0.35466480941E+02  0.00000000000E+00 0.  1.
          2   -1    0    0  502    0  0.00000000000E+00 -0.00000000000E+00 -0.11221043773E+04  0.11221043773E+04  0.00000000000E+00 0. -1.
          6    1    1    2  502    0 -0.95327980676E+02  0.32885966537E+01 -0.44644632627E+03  0.48784891207E+03  0.17200000000E+03 0. -1.
         -6    1    1    2    0  501  0.95327980676E+02 -0.32885966537E+01 -0.64019157005E+03  0.66972194613E+03  0.17200000000E+03 0. -1.
</event>
<event>
 4    1  0.3190379E-002  0.1955846E+03  0.7818608E-02  0.1153519E+00
         -2   -1    0    0    0  501 -0.00000000000E+00  0.00000000000E+00  0.19106606076E+04  0.19106606076E+04  0.00000000000E+00 0.  1.
          2   -1    0    0  502    0  0.00000000000E+00 -0.00000000000E+00 -0.48883787151E+02  0.48883787151E+02  0.00000000000E+00 0. -1.
          6    1    1    2  502    0 -0.23490060813E+02 -0.90097471069E+02  0.16837442400E+04  0.16950657814E+04  0.17200000000E+03 0.  1.
         -6    1    1    2    0  501  0.23490060813E+02  0.90097471069E+02  0.17803258037E+03  0.26447861336E+03  0.17200000000E+03 0. -1.
</event>
<event>
 4    1  0.3190379E-002  0.6483948E+03  0.7818608E-02  0.9809796E-01
         -1   -1    0    0    0  501 -0.00000000000E+00  0.00000000000E+00  0.61758434609E+03  0.61758434609E+03  0.00000000000E+00 0.  1.
          1   -1    0    0  502    0  0.00000000000E+00 -0.00000000000E+00 -0.73320064542E+03  0.73320064542E+03  0.00000000000E+00 0. -1.
          6    1    1    2  502    0 -0.19214589310E+03 -0.59490485410E+03 -0.23846391582E+03  0.69085517210E+03  0.17200000000E+03 0. -1.
         -6    1    1    2    0  501  0.19214589310E+03  0.59490485410E+03  0.12284761648E+03  0.65992981941E+03  0.17200000000E+03 0.  1.
</event>
<event>
 4    1  0.3190379E-002  0.3392009E+03  0.7818608E-02  0.1067137E+00
         -1   -1    0    0    0  501 -0.00000000000E+00  0.00000000000E+00  0.16848003092E+03  0.16848003092E+03  0.00000000000E+00 0.  1.
          1   -1    0    0  502    0  0.00000000000E+00 -0.00000000000E+00 -0.92446481504E+03  0.92446481504E+03  0.00000000000E+00 0. -1.
          6    1    1    2  502    0  0.19796365031E+03  0.21513636130E+03 -0.65732903113E+03  0.73968825594E+03  0.17200000000E+03 0. -1.
         -6    1    1    2    0  501 -0.19796365031E+03 -0.21513636130E+03 -0.98655752992E+02  0.35325659002E+03  0.17200000000E+03 0.  1.
</event>
<event>
 4    1  0.3190379E-002  0.2266714E+03  0.7818608E-02  0.1129005E+00
          2   -1    0    0  502    0  0.00000000000E+00  0.00000000000E+00  0.28766026826E+04  0.28766026826E+04  0.00000000000E+00 0. -1.
         -2   -1    0    0    0  501 -0.00000000000E+00 -0.00000000000E+00 -0.21700762592E+02  0.21700762592E+02  0.00000000000E+00 0.  1.
          6    1    1    2  502    0  0.32577793445E+02  0.14399518930E+03  0.81789956723E+03  0.84872824228E+03  0.17200000000E+03 0.  1.
         -6    1    1    2    0  501 -0.32577793445E+02 -0.14399518930E+03  0.20370023528E+04  0.20495752029E+04  0.17200000000E+03 0. -1.
</event>
<event>
 4    1  0.3190379E-002  0.1789855E+03  0.7818608E-02  0.1168789E+00
          2   -1    0    0  502    0  0.00000000000E+00  0.00000000000E+00  0.11515299528E+04  0.11515299528E+04  0.00000000000E+00 0. -1.
         -2   -1    0    0    0  501 -0.00000000000E+00 -0.00000000000E+00 -0.49866160813E+02  0.49866160813E+02  0.00000000000E+00 0.  1.
          6    1    1    2  502    0 -0.41913361636E+02  0.26364092773E+02  0.95024081777E+03  0.96695057114E+03  0.17200000000E+03 0. -1.
         -6    1    1    2    0  501  0.41913361636E+02 -0.26364092773E+02  0.15142297426E+03  0.23444554251E+03  0.17200000000E+03 0.  1.
</event>
<event>
 4    1  0.3190379E-002  0.2329292E+03  0.7818608E-02  0.1124595E+00
          1   -1    0    0  502    0  0.00000000000E+00  0.00000000000E+00  0.63538946185E+03  0.63538946185E+03  0.00000000000E+00 0. -1.
         -1   -1    0    0    0  501 -0.00000000000E+00 -0.00000000000E+00 -0.92089301651E+02  0.92089301651E+02  0.00000000000E+00 0.  1.
          6    1    1    2  502    0 -0.14718245481E+03  0.54857596091E+02  0.36975575720E+03  0.43700726634E+03  0.17200000000E+03 0. -1.
         -6    1    1    2    0  501  0.14718245481E+03 -0.54857596091E+02  0.17354440300E+03  0.29047149716E+03  0.17200000000E+03 0.  1.
</event>
<event>
 4    1  0.3190379E-002  0.2057046E+03  0.7818608E-02  0.1145013E+00
         -1   -1    0    0    0  501 -0.00000000000E+00  0.00000000000E+00  0.72546735187E+02  0.72546735187E+02  0.00000000000E+00 0.  1.
          1   -1    0    0  502    0  0.00000000000E+00 -0.00000000000E+00 -0.11798776997E+04  0.11798776997E+04  0.00000000000E+00 0. -1.
          6    1    1    2  502    0  0.10069894850E+03 -0.50893195419E+02 -0.99895980616E+03  0.10199191585E+04  0.17200000000E+03 0. -1.
         -6    1    1    2    0  501 -0.10069894850E+03  0.50893195419E+02 -0.10837115831E+03  0.23250527633E+03  0.17200000000E+03 0.  1.
</event>
<event>
 4    1  0.3190379E-002  0.2526275E+03  0.7818608E-02  0.1111655E+00
         -3   -1    0    0    0  501 -0.00000000000E+00  0.00000000000E+00  0.16554368406E+03  0.16554368406E+03  0.00000000000E+00 0.  1.
          3   -1    0    0  502    0  0.00000000000E+00 -0.00000000000E+00 -0.38701082541E+03  0.38701082541E+03  0.00000000000E+00 0. -1.
          6    1    1    2  502    0 -0.71004893301E+01 -0.18489518032E+03 -0.12787245509E+03  0.28314662178E+03  0.17200000000E+03 0. -1.
         -6    1    1    2    0  501  0.71004893301E+01  0.18489518032E+03 -0.93594686257E+02  0.26940788769E+03  0.17200000000E+03 0.  1.
</event>
<event>
 4    1  0.3190379E-002  0.2077687E+03  0.7818608E-02  0.1143345E+00
         -2   -1    0    0    0  501 -0.00000000000E+00  0.00000000000E+00  0.69528878376E+02  0.69528878376E+02  0.00000000000E+00 0.  1.
          2   -1    0    0  502    0  0.00000000000E+00 -0.00000000000E+00 -0.62098616163E+03  0.62098616163E+03  0.00000000000E+00 0. -1.
          6    1    1    2  502    0  0.96693327486E+02  0.65071068041E+02 -0.28060920921E+03  0.34915522589E+03  0.17200000000E+03 0.  1.
         -6    1    1    2    0  501 -0.96693327486E+02 -0.65071068041E+02 -0.27084807404E+03  0.34135981411E+03  0.17200000000E+03 0.  1.
</event>
<event>
 4    1  0.3190379E-002  0.2694299E+03  0.7818608E-02  0.1101606E+00
          1   -1    0    0  502    0  0.00000000000E+00  0.00000000000E+00  0.11470744432E+04  0.11470744432E+04  0.00000000000E+00 0. -1.
         -1   -1    0    0    0  501 -0.00000000000E+00 -0.00000000000E+00 -0.63297750116E+02  0.63297750116E+02  0.00000000000E+00 0.  1.
          6    1    1    2  502    0  0.20352582377E+03  0.39821284123E+02  0.55050992399E+03  0.61290592429E+03  0.17200000000E+03 0. -1.
         -6    1    1    2    0  501 -0.20352582377E+03 -0.39821284123E+02  0.53326676911E+03  0.59746626905E+03  0.17200000000E+03 0.  1.
</event>
<event>
 4    1  0.3190379E-002  0.3679817E+03  0.7818608E-02  0.1055467E+00
          1   -1    0    0  502    0  0.00000000000E+00  0.00000000000E+00  0.12210281919E+04  0.12210281919E+04  0.00000000000E+00 0. -1.
         -1   -1    0    0    0  501 -0.00000000000E+00 -0.00000000000E+00 -0.12074410310E+03  0.12074410310E+03  0.00000000000E+00 0.  1.
          6    1    1    2  502    0  0.32521304953E+03 -0.79388841293E+01  0.35857070053E+03  0.51379324708E+03  0.17200000000E+03 0. -1.
         -6    1    1    2    0  501 -0.32521304953E+03  0.79388841293E+01  0.74171338830E+03  0.82797904795E+03  0.17200000000E+03 0.  1.
</event>
<event>
 4    1  0.3190379E-002  0.1837631E+03  0.7818608E-02  0.1164210E+00
         -1   -1    0    0    0  501 -0.00000000000E+00  0.00000000000E+00  0.61540968542E+03  0.61540968542E+03  0.00000000000E+00 0.  1.
          1   -1    0    0  502    0  0.00000000000E+00 -0.00000000000E+00 -0.10733733450E+03  0.10733733450E+03  0.00000000000E+00 0. -1.
          6    1    1    2  502    0  0.28749413029E+02  0.57951212740E+02  0.13878735264E+01  0.18376832698E+03  0.17200000000E+03 0. -1.
         -6    1    1    2    0  501 -0.28749413029E+02 -0.57951212740E+02  0.50668447739E+03  0.53897869294E+03  0.17200000000E+03 0.  1.
</event>
<event>
 4    1  0.3190379E-002  0.3440139E+03  0.7818608E-02  0.1065099E+00
         -2   -1    0    0    0  501 -0.00000000000E+00  0.00000000000E+00  0.39394546183E+03  0.39394546183E+03  0.00000000000E+00 0.  1.
          2   -1    0    0  502    0  0.00000000000E+00 -0.00000000000E+00 -0.62560692316E+03  0.62560692316E+03  0.00000000000E+00 0. -1.
          6    1    1    2  502    0  0.29770548013E+03  0.11532938647E+02 -0.48336793114E+03  0.59328755122E+03  0.17200000000E+03 0. -1.
         -6    1    1    2    0  501 -0.29770548013E+03 -0.11532938647E+02  0.25170646981E+03  0.42626483378E+03  0.17200000000E+03 0.  1.
</event>
<event>
 4    1  0.3190379E-002  0.2192408E+03  0.7818608E-02  0.1134450E+00
          2   -1    0    0  502    0  0.00000000000E+00  0.00000000000E+00  0.46079339830E+03  0.46079339830E+03  0.00000000000E+00 0. -1.
         -2   -1    0    0    0  501 -0.00000000000E+00 -0.00000000000E+00 -0.10493962069E+03  0.10493962069E+03  0.00000000000E+00 0.  1.
          6    1    1    2  502    0 -0.12965956186E+03 -0.40877177515E+02  0.15606127854E+03  0.26911274270E+03  0.17200000000E+03 0.  1.
         -6    1    1    2    0  501  0.12965956186E+03  0.40877177515E+02  0.19979249906E+03  0.29662027629E+03  0.17200000000E+03 0.  1.
</event>
<event>
 4    1  0.3190379E-002  0.4496670E+03  0.7818608E-02  0.1027821E+00
         -4   -1    0    0    0  501 -0.00000000000E+00  0.00000000000E+00  0.17707585621E+03  0.17707585621E+03  0.00000000000E+00 0.  1.
          4   -1    0    0  502    0  0.00000000000E+00 -0.00000000000E+00 -0.12430760238E+04  0.12430760238E+04  0.00000000000E+00 0. -1.
          6    1    1    2  502    0  0.18717760403E+01 -0.41546707998E+03 -0.73559349794E+03  0.86214743072E+03  0.17200000000E+03 0.  1.
         -6    1    1    2    0  501 -0.18717760403E+01  0.41546707998E+03 -0.33040666966E+03  0.55800444931E+03  0.17200000000E+03 0. -1.
</event>
<event>
 4    1  0.3190379E-002  0.2053485E+03  0.7818608E-02  0.1145303E+00
          2   -1    0    0  502    0  0.00000000000E+00  0.00000000000E+00  0.41558767917E+03  0.41558767917E+03  0.00000000000E+00 0. -1.
         -2   -1    0    0    0  501 -0.00000000000E+00 -0.00000000000E+00 -0.15518901247E+03  0.15518901247E+03  0.00000000000E+00 0.  1.
          6    1    1    2  502    0 -0.33420273076E+02  0.10708450096E+03  0.29811300908E+03  0.36199360654E+03  0.17200000000E+03 0. -1.
         -6    1    1    2    0  501  0.33420273076E+02 -0.10708450096E+03 -0.37714342381E+02  0.20878308509E+03  0.17200000000E+03 0.  1.
</event>
<event>
 4    1  0.3190379E-002  0.1731738E+03  0.7818608E-02  0.1174578E+00
         -2   -1    0    0    0  501 -0.00000000000E+00  0.00000000000E+00  0.33080427302E+02  0.33080427302E+02  0.00000000000E+00 0.  1.
          2   -1    0    0  502    0  0.00000000000E+00 -0.00000000000E+00 -0.90773016894E+03  0.90773016894E+03  0.00000000000E+00 0. -1.
          6    1    1    2  502    0  0.13421261482E+02  0.15001371448E+02 -0.45426251568E+03  0.48615183282E+03  0.17200000000E+03 0. -1.
         -6    1    1    2    0  501 -0.13421261482E+02 -0.15001371448E+02 -0.42038722596E+03  0.45465876342E+03  0.17200000000E+03 0.  1.
</event>
<event>
 4    1  0.3190379E-002  0.3387319E+03  0.7818608E-02  0.1067337E+00
         -1   -1    0    0    0  501 -0.00000000000E+00  0.00000000000E+00  0.13491449806E+03  0.13491449806E+03  0.00000000000E+00 0.  1.
          1   -1    0    0  502    0  0.00000000000E+00 -0.00000000000E+00 -0.29490403113E+04  0.29490403113E+04  0.00000000000E+00 0. -1.
          6    1    1    2  502    0  0.85558954128E+02 -0.27898924426E+03 -0.27078328446E+04  0.27289371644E+04  0.17200000000E+03 0. -1.
         -6    1    1    2    0  501 -0.85558954128E+02  0.27898924426E+03 -0.10629296866E+03  0.35501764496E+03  0.17200000000E+03 0.  1.
</event>
<event>
 4    1  0.3190379E-002  0.1850553E+03  0.7818608E-02  0.1162998E+00
         -3   -1    0    0    0  501 -0.00000000000E+00  0.00000000000E+00  0.13843629952E+04  0.13843629952E+04  0.00000000000E+00 0.  1.
          3   -1    0    0  502    0  0.00000000000E+00 -0.00000000000E+00 -0.30002288087E+02  0.30002288087E+02  0.00000000000E+00 0. -1.
          6    1    1    2  502    0 -0.66471480621E+02  0.15588188921E+02  0.97342581822E+03  0.99085986544E+03  0.17200000000E+03 0.  1.
         -6    1    1    2    0  501  0.66471480621E+02 -0.15588188921E+02  0.38093488893E+03  0.42350541788E+03  0.17200000000E+03 0. -1.
</event>
<event>
 4    1  0.3190379E-002  0.5591179E+03  0.7818608E-02  0.9994052E-01
         -2   -1    0    0    0  501 -0.00000000000E+00  0.00000000000E+00  0.20581876287E+03  0.20581876287E+03  0.00000000000E+00 0.  1.
          2   -1    0    0  502    0  0.00000000000E+00 -0.00000000000E+00 -0.17031123177E+04  0.17031123177E+04  0.00000000000E+00 0. -1.
          6    1    1    2  502    0 -0.34103711326E+03  0.40831672941E+03 -0.10625733189E+04  0.12006976814E+04  0.17200000000E+03 0. -1.
         -6    1    1    2    0  501  0.34103711326E+03 -0.40831672941E+03 -0.43472023592E+03  0.70823339914E+03  0.17200000000E+03 0.  1.
</event>
<event>
 4    1  0.3190379E-002  0.8601249E+03  0.7818608E-02  0.9476848E-01
          1   -1    0    0  502    0  0.00000000000E+00  0.00000000000E+00  0.85337527713E+03  0.85337527713E+03  0.00000000000E+00 0. -1.
         -1   -1    0    0    0  501 -0.00000000000E+00 -0.00000000000E+00 -0.95271814239E+03  0.95271814239E+03  0.00000000000E+00 0.  1.
          6    1    1    2  502    0  0.75040292431E+03 -0.38357044043E+03  0.22131463333E+03  0.88814131675E+03  0.17200000000E+03 0. -1.
         -6    1    1    2    0  501 -0.75040292431E+03  0.38357044043E+03 -0.32065749859E+03  0.91795210278E+03  0.17200000000E+03 0.  1.
</event>
<event>
 4    1  0.3190379E-002  0.4623285E+03  0.7818608E-02  0.1024108E+00
         -1   -1    0    0    0  501 -0.00000000000E+00  0.00000000000E+00  0.62531503556E+03  0.62531503556E+03  0.00000000000E+00 0.  1.
          1   -1    0    0  502    0  0.00000000000E+00 -0.00000000000E+00 -0.39361821166E+03  0.39361821166E+03  0.00000000000E+00 0. -1.
          6    1    1    2  502    0  0.19291208007E+03 -0.38333871353E+03 -0.68958867132E+02  0.46744300753E+03  0.17200000000E+03 0. -1.
         -6    1    1    2    0  501 -0.19291208007E+03  0.38333871353E+03  0.30065569102E+03  0.55149023969E+03  0.17200000000E+03 0.  1.
</event>
<event>
 4    1  0.3190379E-002  0.2108762E+03  0.7818608E-02  0.1140874E+00
          2   -1    0    0  502    0  0.00000000000E+00  0.00000000000E+00  0.84716068074E+03  0.84716068074E+03  0.00000000000E+00 0. -1.
         -2   -1    0    0    0  501 -0.00000000000E+00 -0.00000000000E+00 -0.64912701765E+02  0.64912701765E+02  0.00000000000E+00 0.  1.
          6    1    1    2  502    0 -0.11800839074E+03  0.30964154910E+02  0.59061174775E+03  0.62712916991E+03  0.17200000000E+03 0. -1.
         -6    1    1    2    0  501  0.11800839074E+03 -0.30964154910E+02  0.19163623123E+03  0.28494421260E+03  0.17200000000E+03 0.  1.
</event>
<event>
 4    1  0.3190379E-002  0.1927503E+03  0.7818608E-02  0.1156004E+00
          2   -1    0    0  502    0  0.00000000000E+00  0.00000000000E+00  0.19674808660E+03  0.19674808660E+03  0.00000000000E+00 0. -1.
         -2   -1    0    0    0  501 -0.00000000000E+00 -0.00000000000E+00 -0.19779855532E+03  0.19779855532E+03  0.00000000000E+00 0.  1.
          6    1    1    2  502    0 -0.86594051766E+02  0.83745386794E+01 -0.42523294957E+02  0.19738513955E+03  0.17200000000E+03 0.  1.
         -6    1    1    2    0  501  0.86594051766E+02 -0.83745386794E+01  0.41472826236E+02  0.19716150237E+03  0.17200000000E+03 0. -1.
</event>
<event>
 4    1  0.3190379E-002  0.5907124E+03  0.7818608E-02  0.9924864E-01
         -2   -1    0    0    0  501 -0.00000000000E+00  0.00000000000E+00  0.13327376765E+04  0.13327376765E+04  0.00000000000E+00 0.  1.
          2   -1    0    0  502    0  0.00000000000E+00 -0.00000000000E+00 -0.99440856724E+03  0.99440856724E+03  0.00000000000E+00 0. -1.
          6    1    1    2  502    0 -0.56057799460E+03 -0.71480750306E+02 -0.82954791789E+03  0.10183766169E+04  0.17200000000E+03 0. -1.
         -6    1    1    2    0  501  0.56057799460E+03  0.71480750306E+02  0.11678770271E+04  0.13087696269E+04  0.17200000000E+03 0.  1.
</event>
<event>
 4    1  0.3190379E-002  0.4742548E+03  0.7818608E-02  0.1020726E+00
          1   -1    0    0  502    0  0.00000000000E+00  0.00000000000E+00  0.46124113286E+03  0.46124113286E+03  0.00000000000E+00 0. -1.
         -1   -1    0    0    0  501 -0.00000000000E+00 -0.00000000000E+00 -0.54795165420E+03  0.54795165420E+03  0.00000000000E+00 0.  1.
          6    1    1    2  502    0 -0.24263048067E+03 -0.36941045129E+03  0.12405775068E+03  0.49021215528E+03  0.17200000000E+03 0. -1.
         -6    1    1    2    0  501  0.24263048067E+03  0.36941045129E+03 -0.21076827203E+03  0.51898063179E+03  0.17200000000E+03 0.  1.
</event>
<event>
 4    1  0.3190379E-002  0.2492752E+03  0.7818608E-02  0.1113764E+00
         -2   -1    0    0    0  501 -0.00000000000E+00  0.00000000000E+00  0.46504635330E+02  0.46504635330E+02  0.00000000000E+00 0.  1.
          2   -1    0    0  502    0  0.00000000000E+00 -0.00000000000E+00 -0.14225415514E+04  0.14225415514E+04  0.00000000000E+00 0. -1.
          6    1    1    2  502    0 -0.13750936929E+03  0.11681307969E+03 -0.50702742603E+03  0.56499109106E+03  0.17200000000E+03 0. -1.
         -6    1    1    2    0  501  0.13750936929E+03 -0.11681307969E+03 -0.86900949005E+03  0.90405509569E+03  0.17200000000E+03 0.  1.
</event>
<event>
 4    1  0.3190379E-002  0.1928371E+03  0.7818608E-02  0.1155927E+00
          2   -1    0    0  502    0  0.00000000000E+00  0.00000000000E+00  0.21142019429E+04  0.21142019429E+04  0.00000000000E+00 0. -1.
         -2   -1    0    0    0  501 -0.00000000000E+00 -0.00000000000E+00 -0.17607095498E+02  0.17607095498E+02  0.00000000000E+00 0.  1.
          6    1    1    2  502    0 -0.50763435720E+02  0.70888805293E+02  0.10138820239E+04  0.10320576086E+04  0.17200000000E+03 0. -1.
         -6    1    1    2    0  501  0.50763435720E+02 -0.70888805293E+02  0.10827128235E+04  0.10997514298E+04  0.17200000000E+03 0.  1.
</event>
<event>
 4    1  0.3190379E-002  0.3086582E+03  0.7818608E-02  0.1080991E+00
          1   -1    0    0  502    0  0.00000000000E+00  0.00000000000E+00  0.27605480530E+03  0.27605480530E+03  0.00000000000E+00 0. -1.
         -1   -1    0    0    0  501 -0.00000000000E+00 -0.00000000000E+00 -0.40281971779E+03  0.40281971779E+03  0.00000000000E+00 0.  1.
          6    1    1    2  502    0  0.18668779322E+02  0.25561179494E+03  0.65092925690E+02  0.31544730464E+03  0.17200000000E+03 0. -1.
         -6    1    1    2    0  501 -0.18668779322E+02 -0.25561179494E+03 -0.19185783818E+03  0.36342721844E+03  0.17200000000E+03 0.  1.
</event>
<event>
 4    1  0.3190379E-002  0.2317009E+03  0.7818608E-02  0.1125448E+00
          2   -1    0    0  502    0  0.00000000000E+00  0.00000000000E+00  0.21620603622E+04  0.21620603622E+04  0.00000000000E+00 0. -1.
         -2   -1    0    0    0  501 -0.00000000000E+00 -0.00000000000E+00 -0.27691295528E+02  0.27691295528E+02  0.00000000000E+00 0.  1.
          6    1    1    2  502    0 -0.13118724189E+03  0.83013214172E+02  0.14190916028E+04  0.14378825624E+04  0.17200000000E+03 0. -1.
         -6    1    1    2    0  501  0.13118724189E+03 -0.83013214172E+02  0.71527746388E+03  0.75186909532E+03  0.17200000000E+03 0. -1.
</event>
<event>
 4    1  0.3190379E-002  0.3989550E+03  0.7818608E-02  0.1044142E+00
          2   -1    0    0  502    0  0.00000000000E+00  0.00000000000E+00  0.15462603604E+04  0.15462603604E+04  0.00000000000E+00 0. -1.
         -2   -1    0    0    0  501 -0.00000000000E+00 -0.00000000000E+00 -0.11718677293E+03  0.11718677293E+03  0.00000000000E+00 0.  1.
          6    1    1    2  502    0 -0.34130370010E+03  0.11442412788E+03  0.10045824770E+04  0.10809028864E+04  0.17200000000E+03 0. -1.
         -6    1    1    2    0  501  0.34130370010E+03 -0.11442412788E+03  0.42449111043E+03  0.58254424689E+03  0.17200000000E+03 0.  1.
</event>
<event>
 4    1  0.3190379E-002  0.5327520E+03  0.7818608E-02  0.1005567E+00
         -1   -1    0    0    0  501 -0.00000000000E+00  0.00000000000E+00  0.18966478225E+03  0.18966478225E+03  0.00000000000E+00 0.  1.
          1   -1    0    0  502    0  0.00000000000E+00 -0.00000000000E+00 -0.19126931740E+04  0.19126931740E+04  0.00000000000E+00 0. -1.
          6    1    1    2  502    0  0.38066413550E+03  0.33065927328E+03 -0.13518856342E+04  0.14530724370E+04  0.17200000000E+03 0. -1.
         -6    1    1    2    0  501 -0.38066413550E+03 -0.33065927328E+03 -0.37114275752E+03  0.64928551926E+03  0.17200000000E+03 0.  1.
</event>
<event>
 4    1  0.3190379E-002  0.1979392E+03  0.7818608E-02  0.1151489E+00
          1   -1    0    0  502    0  0.00000000000E+00  0.00000000000E+00  0.26836149785E+04  0.26836149785E+04  0.00000000000E+00 0. -1.
         -1   -1    0    0    0  501 -0.00000000000E+00 -0.00000000000E+00 -0.22111663838E+02  0.22111663838E+02  0.00000000000E+00 0.  1.
          6    1    1    2  502    0 -0.75605206408E+02  0.62287947403E+02  0.21192855486E+04  0.21285091431E+04  0.17200000000E+03 0. -1.
         -6    1    1    2    0  501  0.75605206408E+02 -0.62287947403E+02  0.54221776605E+03  0.57721749925E+03  0.17200000000E+03 0.  1.
</event>
<event>
 4    1  0.3190379E-002  0.1948667E+03  0.7818608E-02  0.1154144E+00
          2   -1    0    0  502    0  0.00000000000E+00  0.00000000000E+00  0.14364018250E+04  0.14364018250E+04  0.00000000000E+00 0. -1.
         -2   -1    0    0    0  501 -0.00000000000E+00 -0.00000000000E+00 -0.26442701414E+02  0.26442701414E+02  0.00000000000E+00 0.  1.
          6    1    1    2  502    0 -0.63114420379E+02 -0.66374620885E+02  0.71643952842E+03  0.74246792405E+03  0.17200000000E+03 0. -1.
         -6    1    1    2    0  501  0.63114420379E+02  0.66374620885E+02  0.69351959517E+03  0.72037660237E+03  0.17200000000E+03 0.  1.
</event>
<event>
 4    1  0.3190379E-002  0.2256505E+03  0.7818608E-02  0.1129739E+00
          2   -1    0    0  502    0  0.00000000000E+00  0.00000000000E+00  0.14917586574E+04  0.14917586574E+04  0.00000000000E+00 0. -1.
         -2   -1    0    0    0  501 -0.00000000000E+00 -0.00000000000E+00 -0.55197635801E+02  0.55197635801E+02  0.00000000000E+00 0.  1.
          6    1    1    2  502    0 -0.39330964412E+02  0.14066707052E+03  0.11961013910E+04  0.12172003479E+04  0.17200000000E+03 0. -1.
         -6    1    1    2    0  501  0.39330964412E+02 -0.14066707052E+03  0.24045963064E+03  0.32975594530E+03  0.17200000000E+03 0.  1.
</event>
<event>
 4    1  0.3190379E-002  0.4007310E+03  0.7818608E-02  0.1043527E+00
         -1   -1    0    0    0  501 -0.00000000000E+00  0.00000000000E+00  0.21838087171E+03  0.21838087171E+03  0.00000000000E+00 0.  1.
          1   -1    0    0  502    0  0.00000000000E+00 -0.00000000000E+00 -0.73540127417E+03  0.73540127417E+03  0.00000000000E+00 0. -1.
          6    1    1    2  502    0 -0.20197344971E+03 -0.30034662946E+03 -0.25435383733E+03  0.47463801657E+03  0.17200000000E+03 0. -1.
         -6    1    1    2    0  501  0.20197344971E+03  0.30034662946E+03 -0.26266656513E+03  0.47914412931E+03  0.17200000000E+03 0.  1.
</event>
<event>
 4    1  0.3190379E-002  0.8297360E+03  0.7818608E-02  0.9517946E-01
          2   -1    0    0  502    0  0.00000000000E+00  0.00000000000E+00  0.26812439430E+04  0.26812439430E+04  0.00000000000E+00 0. -1.
         -2   -1    0    0    0  501 -0.00000000000E+00 -0.00000000000E+00 -0.25930226423E+03  0.25930226423E+03  0.00000000000E+00 0.  1.
          6    1    1    2  502    0  0.80161925615E+02  0.80774489947E+03  0.13562787814E+04  0.15899540527E+04  0.17200000000E+03 0. -1.
         -6    1    1    2    0  501 -0.80161925615E+02 -0.80774489947E+03  0.10656628973E+04  0.13505921545E+04  0.17200000000E+03 0.  1.
</event>
<event>
 4    1  0.3190379E-002  0.2717810E+03  0.7818608E-02  0.1100265E+00
         -2   -1    0    0    0  501 -0.00000000000E+00  0.00000000000E+00  0.76190987980E+02  0.76190987980E+02  0.00000000000E+00 0.  1.
          2   -1    0    0  502    0  0.00000000000E+00 -0.00000000000E+00 -0.12515898186E+04  0.12515898186E+04  0.00000000000E+00 0. -1.
          6    1    1    2  502    0 -0.54539537579E+02 -0.20323963552E+03 -0.27250258630E+03  0.38486695122E+03  0.17200000000E+03 0.  1.
         -6    1    1    2    0  501  0.54539537579E+02  0.20323963552E+03 -0.90289624429E+03  0.94291385532E+03  0.17200000000E+03 0. -1.
</event>
<event>
 4    1  0.3190379E-002  0.5482363E+03  0.7818608E-02  0.1001903E+00
          2   -1    0    0  502    0  0.00000000000E+00  0.00000000000E+00  0.78324080010E+03  0.78324080010E+03  0.00000000000E+00 0. -1.
         -2   -1    0    0    0  501 -0.00000000000E+00 -0.00000000000E+00 -0.38758944528E+03  0.38758944528E+03  0.00000000000E+00 0.  1.
          6    1    1    2  502    0  0.51029868990E+03  0.10283120780E+03  0.13950540077E+03  0.56570731572E+03  0.17200000000E+03 0. -1.
         -6    1    1    2    0  501 -0.51029868990E+03 -0.10283120780E+03  0.25614595405E+03  0.60512292965E+03  0.17200000000E+03 0.  1.
</event>
<event>
 4    1  0.3190379E-002  0.2138914E+03  0.7818608E-02  0.1138521E+00
         -2   -1    0    0    0  501 -0.00000000000E+00  0.00000000000E+00  0.16255128358E+03  0.16255128358E+03  0.00000000000E+00 0.  1.
          2   -1    0    0  502    0  0.00000000000E+00 -0.00000000000E+00 -0.49512812720E+03  0.49512812720E+03  0.00000000000E+00 0. -1.
          6    1    1    2  502    0  0.77569951473E+02 -0.10073948835E+03 -0.38231576124E+03  0.43808090940E+03  0.17200000000E+03 0. -1.
         -6    1    1    2    0  501 -0.77569951473E+02  0.10073948835E+03  0.49738917625E+02  0.21959850139E+03  0.17200000000E+03 0.  1.
</event>
<event>
 4    1  0.3190379E-002  0.3910306E+03  0.7818608E-02  0.1046930E+00
          1   -1    0    0  502    0  0.00000000000E+00  0.00000000000E+00  0.90163443849E+03  0.90163443849E+03  0.00000000000E+00 0. -1.
         -1   -1    0    0    0  501 -0.00000000000E+00 -0.00000000000E+00 -0.20245508719E+03  0.20245508719E+03  0.00000000000E+00 0.  1.
          6    1    1    2  502    0 -0.11511035970E+03 -0.33176881551E+03  0.57202363991E+03  0.69290402399E+03  0.17200000000E+03 0. -1.
         -6    1    1    2    0  501  0.11511035970E+03  0.33176881551E+03  0.12715571140E+03  0.41118550168E+03  0.17200000000E+03 0.  1.
</event>
<event>
 4    1  0.3190379E-002  0.2222154E+03  0.7818608E-02  0.1132242E+00
         -2   -1    0    0    0  501 -0.00000000000E+00  0.00000000000E+00  0.10312639854E+03  0.10312639854E+03  0.00000000000E+00 0.  1.
          2   -1    0    0  502    0  0.00000000000E+00 -0.00000000000E+00 -0.25601413022E+04  0.25601413022E+04  0.00000000000E+00 0. -1.
          6    1    1    2  502    0  0.14010615590E+03 -0.12882056409E+02 -0.24291720753E+04  0.24393147919E+04  0.17200000000E+03 0. -1.
         -6    1    1    2    0  501 -0.14010615590E+03  0.12882056409E+02 -0.27842828336E+02  0.22395290887E+03  0.17200000000E+03 0.  1.
</event>
<event>
 4    1  0.3190379E-002  0.3167818E+03  0.7818608E-02  0.1077140E+00
         -2   -1    0    0    0  501 -0.00000000000E+00  0.00000000000E+00  0.40202519774E+03  0.40202519774E+03  0.00000000000E+00 0.  1.
          2   -1    0    0  502    0  0.00000000000E+00 -0.00000000000E+00 -0.26821236347E+03  0.26821236347E+03  0.00000000000E+00 0. -1.
          6    1    1    2  502    0 -0.16028897107E+03  0.21230667555E+03 -0.21342520196E+02  0.31749989275E+03  0.17200000000E+03 0. -1.
         -6    1    1    2    0  501  0.16028897107E+03 -0.21230667555E+03  0.15515535446E+03  0.35273766846E+03  0.17200000000E+03 0.  1.
</event>
<event>
 4    1  0.3190379E-002  0.2370963E+03  0.7818608E-02  0.1121742E+00
         -2   -1    0    0    0  501 -0.00000000000E+00  0.00000000000E+00  0.86397535078E+02  0.86397535078E+02  0.00000000000E+00 0.  1.
          2   -1    0    0  502    0  0.00000000000E+00 -0.00000000000E+00 -0.76031475307E+03  0.76031475307E+03  0.00000000000E+00 0. -1.
          6    1    1    2  502    0 -0.33568901415E+02  0.15969899172E+03 -0.49774185445E+03  0.55132711957E+03  0.17200000000E+03 0. -1.
         -6    1    1    2    0  501  0.33568901415E+02 -0.15969899172E+03 -0.17617536354E+03  0.29538516858E+03  0.17200000000E+03 0.  1.
</event>
<event>
 4    1  0.3190379E-002  0.4353840E+03  0.7818608E-02  0.1032173E+00
          2   -1    0    0  502    0  0.00000000000E+00  0.00000000000E+00  0.21011162583E+04  0.21011162583E+04  0.00000000000E+00 0. -1.
         -2   -1    0    0    0  501 -0.00000000000E+00 -0.00000000000E+00 -0.92638293748E+02  0.92638293748E+02  0.00000000000E+00 0.  1.
          6    1    1    2  502    0  0.92187703354E+02  0.38920004057E+03  0.82695671194E+03  0.93456762604E+03  0.17200000000E+03 0. -1.
         -6    1    1    2    0  501 -0.92187703354E+02 -0.38920004057E+03  0.11815212526E+04  0.12591869260E+04  0.17200000000E+03 0.  1.
</event>
<event>
 4    1  0.3190379E-002  0.1790358E+03  0.7818608E-02  0.1168739E+00
          2   -1    0    0  502    0  0.00000000000E+00  0.00000000000E+00  0.12896902813E+03  0.12896902813E+03  0.00000000000E+00 0. -1.
         -2   -1    0    0    0  501 -0.00000000000E+00 -0.00000000000E+00 -0.26409330052E+03  0.26409330052E+03  0.00000000000E+00 0.  1.
          6    1    1    2  502    0  0.41129530037E+02  0.27896100809E+02 -0.19866542457E+02  0.18013470013E+03  0.17200000000E+03 0. -1.
         -6    1    1    2    0  501 -0.41129530037E+02 -0.27896100809E+02 -0.11525772993E+03  0.21292762853E+03  0.17200000000E+03 0.  1.
</event>
<event>
 4    1  0.3190379E-002  0.1723495E+03  0.7818608E-02  0.1175420E+00
         -2   -1    0    0    0  501 -0.00000000000E+00  0.00000000000E+00  0.25889586830E+02  0.25889586830E+02  0.00000000000E+00 0.  1.
          2   -1    0    0  502    0  0.00000000000E+00 -0.00000000000E+00 -0.17719446528E+04  0.17719446528E+04  0.00000000000E+00 0. -1.
          6    1    1    2  502    0 -0.16142546445E+01 -0.10850951592E+02 -0.14067243663E+04  0.14172430249E+04  0.17200000000E+03 0. -1.
         -6    1    1    2    0  501  0.16142546445E+01  0.10850951592E+02 -0.33933069966E+03  0.38059121469E+03  0.17200000000E+03 0.  1.
</event>
<event>
 4    1  0.3190379E-002  0.2043158E+03  0.7818608E-02  0.1146148E+00
          2   -1    0    0  502    0  0.00000000000E+00  0.00000000000E+00  0.25807220195E+03  0.25807220195E+03  0.00000000000E+00 0. -1.
         -2   -1    0    0    0  501 -0.00000000000E+00 -0.00000000000E+00 -0.16528749184E+03  0.16528749184E+03  0.00000000000E+00 0.  1.
          6    1    1    2  502    0 -0.48685689263E+02 -0.98947702232E+02  0.15454734500E+02  0.20489947031E+03  0.17200000000E+03 0.  1.
         -6    1    1    2    0  501  0.48685689263E+02  0.98947702232E+02  0.77329975612E+02  0.21846022348E+03  0.17200000000E+03 0. -1.
</event>
<event>
 4    1  0.3190379E-002  0.1778755E+03  0.7818608E-02  0.1169875E+00
          1   -1    0    0  502    0  0.00000000000E+00  0.00000000000E+00  0.15563369592E+03  0.15563369592E+03  0.00000000000E+00 0. -1.
         -1   -1    0    0    0  501 -0.00000000000E+00 -0.00000000000E+00 -0.30924646192E+03  0.30924646192E+03  0.00000000000E+00 0.  1.
          6    1    1    2  502    0  0.44865406188E+02 -0.65410601155E+01  0.59247300657E+02  0.18748315331E+03  0.17200000000E+03 0. -1.
         -6    1    1    2    0  501 -0.44865406188E+02  0.65410601155E+01 -0.21286006666E+03  0.27739700452E+03  0.17200000000E+03 0.  1.
</event>
<event>
 4    1  0.3190379E-002  0.2341260E+03  0.7818608E-02  0.1123769E+00
         -2   -1    0    0    0  501 -0.00000000000E+00  0.00000000000E+00  0.40580846009E+02  0.40580846009E+02  0.00000000000E+00 0.  1.
          2   -1    0    0  502    0  0.00000000000E+00 -0.00000000000E+00 -0.14372923785E+04  0.14372923785E+04  0.00000000000E+00 0. -1.
          6    1    1    2  502    0 -0.73664907057E+01  0.15867172337E+03 -0.51704478699E+03  0.56758285099E+03  0.17200000000E+03 0.  1.
         -6    1    1    2    0  501  0.73664907057E+01 -0.15867172337E+03 -0.87966674551E+03  0.91029037353E+03  0.17200000000E+03 0.  1.
</event>
<event>
 4    1  0.3190379E-002  0.4349343E+03  0.7818608E-02  0.1032313E+00
          2   -1    0    0  502    0  0.00000000000E+00  0.00000000000E+00  0.26629080254E+03  0.26629080254E+03  0.00000000000E+00 0. -1.
         -2   -1    0    0    0  501 -0.00000000000E+00 -0.00000000000E+00 -0.71221192365E+03  0.71221192365E+03  0.00000000000E+00 0.  1.
          6    1    1    2  502    0  0.25948918180E+03  0.30372548925E+03 -0.19815121972E+03  0.47794530458E+03  0.17200000000E+03 0. -1.
         -6    1    1    2    0  501 -0.25948918180E+03 -0.30372548925E+03 -0.24776990139E+03  0.50055742161E+03  0.17200000000E+03 0.  1.
</event>
<event>
 4    1  0.3190379E-002  0.3952170E+03  0.7818608E-02  0.1045449E+00
          1   -1    0    0  502    0  0.00000000000E+00  0.00000000000E+00  0.16667557852E+04  0.16667557852E+04  0.00000000000E+00 0. -1.
         -1   -1    0    0    0  501 -0.00000000000E+00 -0.00000000000E+00 -0.11341728485E+03  0.11341728485E+03  0.00000000000E+00 0.  1.
          6    1    1    2  502    0 -0.21020621357E+03  0.28709896372E+03  0.11476696572E+04  0.12138130454E+04  0.17200000000E+03 0. -1.
         -6    1    1    2    0  501  0.21020621357E+03 -0.28709896372E+03  0.40566884315E+03  0.56636002462E+03  0.17200000000E+03 0.  1.
</event>
<event>
 4    1  0.3190379E-002  0.2464887E+03  0.7818608E-02  0.1115544E+00
         -2   -1    0    0    0  501 -0.00000000000E+00  0.00000000000E+00  0.18359506220E+03  0.18359506220E+03  0.00000000000E+00 0.  1.
          2   -1    0    0  502    0  0.00000000000E+00 -0.00000000000E+00 -0.39748373187E+03  0.39748373187E+03  0.00000000000E+00 0. -1.
          6    1    1    2  502    0 -0.15771314215E+03 -0.79367805352E+02  0.11943988701E+02  0.24677792162E+03  0.17200000000E+03 0.  1.
         -6    1    1    2    0  501  0.15771314215E+03  0.79367805352E+02 -0.22583265837E+03  0.33430087245E+03  0.17200000000E+03 0. -1.
</event>
<event>
 4    1  0.3190379E-002  0.1971090E+03  0.7818608E-02  0.1152201E+00
          2   -1    0    0  502    0  0.00000000000E+00  0.00000000000E+00  0.85444287205E+03  0.85444287205E+03  0.00000000000E+00 0. -1.
         -2   -1    0    0    0  501 -0.00000000000E+00 -0.00000000000E+00 -0.45472591899E+02  0.45472591899E+02  0.00000000000E+00 0.  1.
          6    1    1    2  502    0 -0.14996127865E+02 -0.95095016394E+02  0.40753583992E+03  0.45270012902E+03  0.17200000000E+03 0. -1.
         -6    1    1    2    0  501  0.14996127865E+02  0.95095016394E+02  0.40143444022E+03  0.44721533492E+03  0.17200000000E+03 0. -1.
</event>
<event>
 4    1  0.3190379E-002  0.3373957E+03  0.7818608E-02  0.1067911E+00
         -2   -1    0    0    0  501 -0.00000000000E+00  0.00000000000E+00  0.62802913049E+02  0.62802913049E+02  0.00000000000E+00 0.  1.
          2   -1    0    0  502    0  0.00000000000E+00 -0.00000000000E+00 -0.26915957567E+04  0.26915957567E+04  0.00000000000E+00 0. -1.
          6    1    1    2  502    0 -0.21743678741E+03 -0.19228394692E+03 -0.21014204289E+04  0.21283335481E+04  0.17200000000E+03 0. -1.
         -6    1    1    2    0  501  0.21743678741E+03  0.19228394692E+03 -0.52737241473E+03  0.62606512168E+03  0.17200000000E+03 0.  1.
</event>
<event>
 4    1  0.3190379E-002  0.3961153E+03  0.7818608E-02  0.1045133E+00
          1   -1    0    0  502    0  0.00000000000E+00  0.00000000000E+00  0.17242267797E+04  0.17242267797E+04  0.00000000000E+00 0. -1.
         -1   -1    0    0    0  501 -0.00000000000E+00 -0.00000000000E+00 -0.13167605169E+03  0.13167605169E+03  0.00000000000E+00 0.  1.
          6    1    1    2  502    0  0.35105545204E+03  0.63901285525E+02  0.28053279862E+03  0.48539257905E+03  0.17200000000E+03 0. -1.
         -6    1    1    2    0  501 -0.35105545204E+03 -0.63901285525E+02  0.13120179294E+04  0.13705102524E+04  0.17200000000E+03 0.  1.
</event>
<event>
 4    1  0.3190379E-002  0.2749353E+03  0.7818608E-02  0.1098488E+00
          2   -1    0    0  502    0  0.00000000000E+00  0.00000000000E+00  0.32481089947E+03  0.32481089947E+03  0.00000000000E+00 0. -1.
         -2   -1    0    0    0  501 -0.00000000000E+00 -0.00000000000E+00 -0.12707838365E+04  0.12707838365E+04  0.00000000000E+00 0.  1.
          6    1    1    2  502    0 -0.19516566012E+03  0.88970628875E+02  0.24806981453E+03  0.37030803472E+03  0.17200000000E+03 0. -1.
         -6    1    1    2    0  501  0.19516566012E+03 -0.88970628875E+02 -0.11940427516E+04  0.12252867013E+04  0.17200000000E+03 0.  1.
</event>
<event>
 4    1  0.3190379E-002  0.1822663E+03  0.7818608E-02  0.1165628E+00
          2   -1    0    0  502    0  0.00000000000E+00  0.00000000000E+00  0.85399586685E+03  0.85399586685E+03  0.00000000000E+00 0. -1.
         -2   -1    0    0    0  501 -0.00000000000E+00 -0.00000000000E+00 -0.39013838619E+02  0.39013838619E+02  0.00000000000E+00 0.  1.
          6    1    1    2  502    0  0.55644244122E+02 -0.23253295267E+02  0.43154077418E+03  0.46845323931E+03  0.17200000000E+03 0. -1.
         -6    1    1    2    0  501 -0.55644244122E+02  0.23253295267E+02  0.38344125405E+03  0.42455646615E+03  0.17200000000E+03 0.  1.
</event>
<event>
 4    1  0.3190379E-002  0.1962132E+03  0.7818608E-02  0.1152974E+00
          2   -1    0    0  502    0  0.00000000000E+00  0.00000000000E+00  0.61148145350E+02  0.61148145350E+02  0.00000000000E+00 0. -1.
         -2   -1    0    0    0  501 -0.00000000000E+00 -0.00000000000E+00 -0.63880718652E+03  0.63880718652E+03  0.00000000000E+00 0.  1.
          6    1    1    2  502    0 -0.94415383578E+02  0.11566927884E+01 -0.33081866788E+03  0.38463046371E+03  0.17200000000E+03 0. -1.
         -6    1    1    2    0  501  0.94415383578E+02 -0.11566927884E+01 -0.24684037328E+03  0.31532486816E+03  0.17200000000E+03 0. -1.
</event>
<event>
 4    1  0.3190379E-002  0.2553055E+03  0.7818608E-02  0.1109997E+00
          1   -1    0    0  502    0  0.00000000000E+00  0.00000000000E+00  0.84424085693E+02  0.84424085693E+02  0.00000000000E+00 0. -1.
         -1   -1    0    0    0  501 -0.00000000000E+00 -0.00000000000E+00 -0.13386421112E+04  0.13386421112E+04  0.00000000000E+00 0.  1.
          6    1    1    2  502    0 -0.18613582967E+03 -0.30828163837E+02 -0.10900143541E+04  0.11195142763E+04  0.17200000000E+03 0.  1.
         -6    1    1    2    0  501  0.18613582967E+03  0.30828163837E+02 -0.16420367140E+03  0.30355192056E+03  0.17200000000E+03 0.  1.
</event>
<event>
 4    1  0.3190379E-002  0.4283860E+03  0.7818608E-02  0.1034371E+00
          2   -1    0    0  502    0  0.00000000000E+00  0.00000000000E+00  0.17124945853E+03  0.17124945853E+03  0.00000000000E+00 0. -1.
         -2   -1    0    0    0  501 -0.00000000000E+00 -0.00000000000E+00 -0.10952162856E+04  0.10952162856E+04  0.00000000000E+00 0.  1.
          6    1    1    2  502    0  0.16531720384E+03 -0.35580999493E+03 -0.55492826798E+03  0.70104201941E+03  0.17200000000E+03 0. -1.
         -6    1    1    2    0  501 -0.16531720384E+03  0.35580999493E+03 -0.36903855905E+03  0.56542372469E+03  0.17200000000E+03 0.  1.
</event>
<event>
 4    1  0.3190379E-002  0.3176657E+03  0.7818608E-02  0.1076729E+00
          2   -1    0    0  502    0  0.00000000000E+00  0.00000000000E+00  0.56877586408E+03  0.56877586408E+03  0.00000000000E+00 0. -1.
         -2   -1    0    0    0  501 -0.00000000000E+00 -0.00000000000E+00 -0.17852257045E+03  0.17852257045E+03  0.00000000000E+00 0.  1.
          6    1    1    2  502    0 -0.16856361997E+03  0.20715646188E+03  0.22450787164E+03  0.38899264531E+03  0.17200000000E+03 0. -1.
         -6    1    1    2    0  501  0.16856361997E+03 -0.20715646188E+03  0.16574542199E+03  0.35830578922E+03  0.17200000000E+03 0.  1.
</event>
<event>
 4    1  0.3190379E-002  0.1727246E+03  0.7818608E-02  0.1175036E+00
         -2   -1    0    0    0  501 -0.00000000000E+00  0.00000000000E+00  0.12963693986E+03  0.12963693986E+03  0.00000000000E+00 0.  1.
          2   -1    0    0  502    0  0.00000000000E+00 -0.00000000000E+00 -0.23372353787E+03  0.23372353787E+03  0.00000000000E+00 0. -1.
          6    1    1    2  502    0  0.65639854106E+01  0.14377576594E+02 -0.74560113748E+02  0.18813030371E+03  0.17200000000E+03 0. -1.
         -6    1    1    2    0  501 -0.65639854106E+01 -0.14377576594E+02 -0.29526484264E+02  0.17523017402E+03  0.17200000000E+03 0.  1.
</event>
<event>
 4    1  0.3190379E-002  0.1733338E+03  0.7818608E-02  0.1174415E+00
         -2   -1    0    0    0  501 -0.00000000000E+00  0.00000000000E+00  0.51645679889E+03  0.51645679889E+03  0.00000000000E+00 0.  1.
          2   -1    0    0  502    0  0.00000000000E+00 -0.00000000000E+00 -0.68018682905E+02  0.68018682905E+02  0.00000000000E+00 0. -1.
          6    1    1    2  502    0  0.14626911894E+02  0.15705580791E+02  0.11304275948E+03  0.20693785852E+03  0.17200000000E+03 0. -1.
         -6    1    1    2    0  501 -0.14626911894E+02 -0.15705580791E+02  0.33539535651E+03  0.37753762327E+03  0.17200000000E+03 0.  1.
</event>
<event>
 4    1  0.3190379E-002  0.2055911E+03  0.7818608E-02  0.1145106E+00
          2   -1    0    0  502    0  0.00000000000E+00  0.00000000000E+00  0.20684232217E+04  0.20684232217E+04  0.00000000000E+00 0. -1.
         -2   -1    0    0    0  501 -0.00000000000E+00 -0.00000000000E+00 -0.21698529857E+02  0.21698529857E+02  0.00000000000E+00 0.  1.
          6    1    1    2  502    0  0.85416567877E+02  0.73400979255E+02  0.12755731061E+04  0.12920350007E+04  0.17200000000E+03 0. -1.
         -6    1    1    2    0  501 -0.85416567877E+02 -0.73400979255E+02  0.77115158566E+03  0.79808675086E+03  0.17200000000E+03 0.  1.
</event>
<event>
 4    1  0.3190379E-002  0.3209026E+03  0.7818608E-02  0.1075235E+00
          2   -1    0    0  502    0  0.00000000000E+00  0.00000000000E+00  0.42016895553E+03  0.42016895553E+03  0.00000000000E+00 0. -1.
         -2   -1    0    0    0  501 -0.00000000000E+00 -0.00000000000E+00 -0.24513178110E+03  0.24513178110E+03  0.00000000000E+00 0.  1.
          6    1    1    2  502    0  0.19903679290E+03  0.18379014261E+03  0.91953010830E+02  0.33381704218E+03  0.17200000000E+03 0. -1.
         -6    1    1    2    0  501 -0.19903679290E+03 -0.18379014261E+03  0.83084163604E+02  0.33148369446E+03  0.17200000000E+03 0. -1.
</event>
<event>
 4    1  0.3190379E-002  0.2663951E+03  0.7818608E-02  0.1103361E+00
         -1   -1    0    0    0  501 -0.00000000000E+00  0.00000000000E+00  0.12798568991E+03  0.12798568991E+03  0.00000000000E+00 0.  1.
          1   -1    0    0  502    0  0.00000000000E+00 -0.00000000000E+00 -0.56564734213E+03  0.56564734213E+03  0.00000000000E+00 0. -1.
          6    1    1    2  502    0 -0.13229789988E+03 -0.15453037539E+03 -0.26754666801E+03  0.37755475205E+03  0.17200000000E+03 0. -1.
         -6    1    1    2    0  501  0.13229789988E+03  0.15453037539E+03 -0.17011498421E+03  0.31607827999E+03  0.17200000000E+03 0.  1.
</event>
<event>
 4    1  0.3190379E-002  0.2156944E+03  0.7818608E-02  0.1137134E+00
          4   -1    0    0  502    0  0.00000000000E+00  0.00000000000E+00  0.37996400196E+02  0.37996400196E+02  0.00000000000E+00 0. -1.
         -4   -1    0    0    0  501 -0.00000000000E+00 -0.00000000000E+00 -0.13447397753E+04  0.13447397753E+04  0.00000000000E+00 0.  1.
          6    1    1    2  502    0 -0.92666045771E+02  0.91395130304E+02 -0.86016396487E+03  0.88679541741E+03  0.17200000000E+03 0.  1.
         -6    1    1    2    0  501  0.92666045771E+02 -0.91395130304E+02 -0.44657941021E+03  0.49594075806E+03  0.17200000000E+03 0. -1.
</event>
<event>
 4    1  0.3190379E-002  0.3195771E+03  0.7818608E-02  0.1075844E+00
          1   -1    0    0  502    0  0.00000000000E+00  0.00000000000E+00  0.14451015195E+04  0.14451015195E+04  0.00000000000E+00 0. -1.
         -1   -1    0    0    0  501 -0.00000000000E+00 -0.00000000000E+00 -0.11526093359E+03  0.11526093359E+03  0.00000000000E+00 0.  1.
          6    1    1    2  502    0 -0.39219905637E+02  0.26647201348E+03  0.11501680340E+04  0.11937403576E+04  0.17200000000E+03 0. -1.
         -6    1    1    2    0  501  0.39219905637E+02 -0.26647201348E+03  0.17967255186E+03  0.36662209543E+03  0.17200000000E+03 0.  1.
</event>
<event>
 4    1  0.3190379E-002  0.1881389E+03  0.7818608E-02  0.1160151E+00
         -2   -1    0    0    0  501 -0.00000000000E+00  0.00000000000E+00  0.13408881682E+03  0.13408881682E+03  0.00000000000E+00 0.  1.
          2   -1    0    0  502    0  0.00000000000E+00 -0.00000000000E+00 -0.26742951488E+03  0.26742951488E+03  0.00000000000E+00 0. -1.
          6    1    1    2  502    0 -0.23507258805E+02  0.72523484867E+02 -0.89483913355E+02  0.20833534943E+03  0.17200000000E+03 0. -1.
         -6    1    1    2    0  501  0.23507258805E+02 -0.72523484867E+02 -0.43856784702E+02  0.19318298227E+03  0.17200000000E+03 0.  1.
</event>
<event>
 4    1  0.3190379E-002  0.2003557E+03  0.7818608E-02  0.1149439E+00
          2   -1    0    0  502    0  0.00000000000E+00  0.00000000000E+00  0.33846629563E+03  0.33846629563E+03  0.00000000000E+00 0. -1.
         -2   -1    0    0    0  501 -0.00000000000E+00 -0.00000000000E+00 -0.12097475572E+03  0.12097475572E+03  0.00000000000E+00 0.  1.
          6    1    1    2  502    0 -0.10144906882E+03 -0.16324594171E+02  0.76566221365E+02  0.21448727746E+03  0.17200000000E+03 0.  1.
         -6    1    1    2    0  501  0.10144906882E+03  0.16324594171E+02  0.14092531855E+03  0.24495377390E+03  0.17200000000E+03 0. -1.
</event>
<event>
 4    1  0.3190379E-002  0.1957786E+03  0.7818608E-02  0.1153350E+00
          1   -1    0    0  502    0  0.00000000000E+00  0.00000000000E+00  0.33148934366E+03  0.33148934366E+03  0.00000000000E+00 0. -1.
         -1   -1    0    0    0  501 -0.00000000000E+00 -0.00000000000E+00 -0.41018178231E+03  0.41018178231E+03  0.00000000000E+00 0.  1.
          6    1    1    2  502    0  0.60643486990E+02  0.71187296060E+02  0.27490423064E+03  0.33749311053E+03  0.17200000000E+03 0. -1.
         -6    1    1    2    0  501 -0.60643486990E+02 -0.71187296060E+02 -0.35359666929E+03  0.40417801544E+03  0.17200000000E+03 0.  1.
</event>
<event>
 4    1  0.3190379E-002  0.2199477E+03  0.7818608E-02  0.1133922E+00
         -2   -1    0    0    0  501 -0.00000000000E+00  0.00000000000E+00  0.77817871885E+02  0.77817871885E+02  0.00000000000E+00 0.  1.
          2   -1    0    0  502    0  0.00000000000E+00 -0.00000000000E+00 -0.11424043127E+04  0.11424043127E+04  0.00000000000E+00 0. -1.
          6    1    1    2  502    0 -0.31416292243E+02  0.13343916639E+03 -0.94420795371E+03  0.96948731523E+03  0.17200000000E+03 0. -1.
         -6    1    1    2    0  501  0.31416292243E+02 -0.13343916639E+03 -0.12037848708E+03  0.25073486933E+03  0.17200000000E+03 0.  1.
</event>
<event>
 4    1  0.3190379E-002  0.1765410E+03  0.7818608E-02  0.1171193E+00
          2   -1    0    0  502    0  0.00000000000E+00  0.00000000000E+00  0.61283646908E+03  0.61283646908E+03  0.00000000000E+00 0. -1.
         -2   -1    0    0    0  501 -0.00000000000E+00 -0.00000000000E+00 -0.50981385480E+02  0.50981385480E+02  0.00000000000E+00 0.  1.
          6    1    1    2  502    0 -0.14872969905E+02  0.36898905371E+02  0.26450190949E+03  0.31800628072E+03  0.17200000000E+03 0. -1.
         -6    1    1    2    0  501  0.14872969905E+02 -0.36898905371E+02  0.29735317410E+03  0.34581157384E+03  0.17200000000E+03 0. -1.
</event>
<event>
 4    1  0.3190379E-002  0.3753811E+03  0.7818608E-02  0.1052654E+00
         -2   -1    0    0    0  501 -0.00000000000E+00  0.00000000000E+00  0.85413577518E+02  0.85413577518E+02  0.00000000000E+00 0.  1.
          2   -1    0    0  502    0  0.00000000000E+00 -0.00000000000E+00 -0.16898364770E+04  0.16898364770E+04  0.00000000000E+00 0. -1.
          6    1    1    2  502    0 -0.33309651532E+03  0.19330243881E+02 -0.93892534417E+03  0.10111833408E+04  0.17200000000E+03 0. -1.
         -6    1    1    2    0  501  0.33309651532E+03 -0.19330243881E+02 -0.66549755533E+03  0.76406671370E+03  0.17200000000E+03 0.  1.
</event>
<event>
 4    1  0.3190379E-002  0.3262242E+03  0.7818608E-02  0.1072820E+00
          1   -1    0    0  502    0  0.00000000000E+00  0.00000000000E+00  0.13603211871E+03  0.13603211871E+03  0.00000000000E+00 0. -1.
         -1   -1    0    0    0  501 -0.00000000000E+00 -0.00000000000E+00 -0.12663271038E+04  0.12663271038E+04  0.00000000000E+00 0.  1.
          6    1    1    2  502    0 -0.24334313881E+03  0.13274907061E+03 -0.13165949434E+03  0.35179030885E+03  0.17200000000E+03 0. -1.
         -6    1    1    2    0  501  0.24334313881E+03 -0.13274907061E+03 -0.99863549070E+03  0.10505689136E+04  0.17200000000E+03 0.  1.
</event>
<event>
 4    1  0.3190379E-002  0.4335431E+03  0.7818608E-02  0.1032747E+00
          2   -1    0    0  502    0  0.00000000000E+00  0.00000000000E+00  0.28506291634E+03  0.28506291634E+03  0.00000000000E+00 0. -1.
         -2   -1    0    0    0  501 -0.00000000000E+00 -0.00000000000E+00 -0.15917787849E+04  0.15917787849E+04  0.00000000000E+00 0.  1.
          6    1    1    2  502    0  0.26972240866E+03  0.29261831782E+03  0.64868411300E+02  0.43836921475E+03  0.17200000000E+03 0. -1.
         -6    1    1    2    0  501 -0.26972240866E+03 -0.29261831782E+03 -0.13715842799E+04  0.14384724865E+04  0.17200000000E+03 0.  1.
</event>
<event>
 4    1  0.3190379E-002  0.2244210E+03  0.7818608E-02  0.1130629E+00
          1   -1    0    0  502    0  0.00000000000E+00  0.00000000000E+00  0.54883687074E+03  0.54883687074E+03  0.00000000000E+00 0. -1.
         -1   -1    0    0    0  501 -0.00000000000E+00 -0.00000000000E+00 -0.92720586191E+02  0.92720586191E+02  0.00000000000E+00 0.  1.
          6    1    1    2  502    0  0.13018716238E+03  0.61903868716E+02  0.26059930356E+03  0.34391391834E+03  0.17200000000E+03 0.  1.
         -6    1    1    2    0  501 -0.13018716238E+03 -0.61903868716E+02  0.19551698099E+03  0.29764353859E+03  0.17200000000E+03 0.  1.
</event>
<event>
 4    1  0.3190379E-002  0.2747990E+03  0.7818608E-02  0.1098564E+00
         -1   -1    0    0    0  501 -0.00000000000E+00  0.00000000000E+00  0.90585333176E+02  0.90585333176E+02  0.00000000000E+00 0.  1.
          1   -1    0    0  502    0  0.00000000000E+00 -0.00000000000E+00 -0.13026397631E+04  0.13026397631E+04  0.00000000000E+00 0. -1.
          6    1    1    2  502    0  0.10748155074E+03  0.18541358705E+03 -0.10240220684E+04  0.10602526485E+04  0.17200000000E+03 0. -1.
         -6    1    1    2    0  501 -0.10748155074E+03 -0.18541358705E+03 -0.18803236150E+03  0.33297244779E+03  0.17200000000E+03 0.  1.
</event>
<event>
 4    1  0.3190379E-002  0.1941434E+03  0.7818608E-02  0.1154776E+00
          1   -1    0    0  502    0  0.00000000000E+00  0.00000000000E+00  0.47981009950E+03  0.47981009950E+03  0.00000000000E+00 0. -1.
         -1   -1    0    0    0  501 -0.00000000000E+00 -0.00000000000E+00 -0.79265610977E+02  0.79265610977E+02  0.00000000000E+00 0.  1.
          6    1    1    2  502    0 -0.67566148586E+02  0.59518801648E+02  0.17381203619E+03  0.26058069021E+03  0.17200000000E+03 0.  1.
         -6    1    1    2    0  501  0.67566148586E+02 -0.59518801648E+02  0.22673245233E+03  0.29849502027E+03  0.17200000000E+03 0.  1.
</event>
<event>
 4    1  0.3190379E-002  0.1729097E+03  0.7818608E-02  0.1174847E+00
         -2   -1    0    0    0  501 -0.00000000000E+00  0.00000000000E+00  0.11332439153E+03  0.11332439153E+03  0.00000000000E+00 0.  1.
          2   -1    0    0  502    0  0.00000000000E+00 -0.00000000000E+00 -0.37393444330E+03  0.37393444330E+03  0.00000000000E+00 0. -1.
          6    1    1    2  502    0  0.39529064404E+01 -0.17266865277E+02 -0.26250912696E+03  0.31433868970E+03  0.17200000000E+03 0. -1.
         -6    1    1    2    0  501 -0.39529064404E+01  0.17266865277E+02  0.18990751882E+01  0.17292014513E+03  0.17200000000E+03 0.  1.
</event>
<event>
 4    1  0.3190379E-002  0.2330509E+03  0.7818608E-02  0.1124511E+00
          2   -1    0    0  502    0  0.00000000000E+00  0.00000000000E+00  0.23442826699E+04  0.23442826699E+04  0.00000000000E+00 0. -1.
         -2   -1    0    0    0  501 -0.00000000000E+00 -0.00000000000E+00 -0.30710243907E+02  0.30710243907E+02  0.00000000000E+00 0.  1.
          6    1    1    2  502    0  0.15573468850E+03 -0.21804109127E+02  0.56829983595E+03  0.61422912331E+03  0.17200000000E+03 0. -1.
         -6    1    1    2    0  501 -0.15573468850E+03  0.21804109127E+02  0.17452725900E+04  0.17607637905E+04  0.17200000000E+03 0.  1.
</event>
<event>
 4    1  0.3190379E-002  0.1816656E+03  0.7818608E-02  0.1166201E+00
          1   -1    0    0  502    0  0.00000000000E+00  0.00000000000E+00  0.11339854303E+03  0.11339854303E+03  0.00000000000E+00 0. -1.
         -1   -1    0    0    0  501 -0.00000000000E+00 -0.00000000000E+00 -0.50332911009E+03  0.50332911009E+03  0.00000000000E+00 0.  1.
          6    1    1    2  502    0 -0.57366415860E+02  0.11291061681E+02  0.53026177598E+01  0.18174298198E+03  0.17200000000E+03 0. -1.
         -6    1    1    2    0  501  0.57366415860E+02 -0.11291061681E+02 -0.39523318482E+03  0.43498467114E+03  0.17200000000E+03 0.  1.
</event>
<event>
 4    1  0.3190379E-002  0.2258619E+03  0.7818608E-02  0.1129587E+00
         -1   -1    0    0    0  501 -0.00000000000E+00  0.00000000000E+00  0.12318011239E+03  0.12318011239E+03  0.00000000000E+00 0.  1.
          1   -1    0    0  502    0  0.00000000000E+00 -0.00000000000E+00 -0.10742175318E+04  0.10742175318E+04  0.00000000000E+00 0. -1.
          6    1    1    2  502    0  0.14168061185E+03  0.36826844917E+02 -0.94482923410E+03  0.97145040733E+03  0.17200000000E+03 0. -1.
         -6    1    1    2    0  501 -0.14168061185E+03 -0.36826844917E+02 -0.62081853140E+01  0.22594723687E+03  0.17200000000E+03 0.  1.
</event>
<event>
 4    1  0.3190379E-002  0.2287752E+03  0.7818608E-02  0.1127505E+00
         -1   -1    0    0    0  501 -0.00000000000E+00  0.00000000000E+00  0.85779683573E+03  0.85779683573E+03  0.00000000000E+00 0.  1.
          1   -1    0    0  502    0  0.00000000000E+00 -0.00000000000E+00 -0.61106641982E+02  0.61106641982E+02  0.00000000000E+00 0. -1.
          6    1    1    2  502    0 -0.11949721999E+03 -0.92057036848E+02  0.38050823575E+03  0.44398716321E+03  0.17200000000E+03 0. -1.
         -6    1    1    2    0  501  0.11949721999E+03  0.92057036848E+02  0.41618195800E+03  0.47491631450E+03  0.17200000000E+03 0.  1.
</event>
<event>
 4    1  0.3190379E-002  0.2483273E+03  0.7818608E-02  0.1114366E+00
         -2   -1    0    0    0  501 -0.00000000000E+00  0.00000000000E+00  0.43192656094E+02  0.43192656094E+02  0.00000000000E+00 0.  1.
          2   -1    0    0  502    0  0.00000000000E+00 -0.00000000000E+00 -0.14453949527E+04  0.14453949527E+04  0.00000000000E+00 0. -1.
          6    1    1    2  502    0  0.36661034621E+02  0.17532378801E+03 -0.78343692745E+03  0.82185149595E+03  0.17200000000E+03 0. -1.
         -6    1    1    2    0  501 -0.36661034621E+02 -0.17532378801E+03 -0.61876536914E+03  0.66673611282E+03  0.17200000000E+03 0.  1.
</event>
<event>
 4    1  0.3190379E-002  0.3389523E+03  0.7818608E-02  0.1067243E+00
         -2   -1    0    0    0  501 -0.00000000000E+00  0.00000000000E+00  0.11508482400E+03  0.11508482400E+03  0.00000000000E+00 0.  1.
          2   -1    0    0  502    0  0.00000000000E+00 -0.00000000000E+00 -0.10816113969E+04  0.10816113969E+04  0.00000000000E+00 0. -1.
          6    1    1    2  502    0  0.25068930973E+03 -0.14986513591E+03 -0.64932962891E+03  0.73247365547E+03  0.17200000000E+03 0. -1.
         -6    1    1    2    0  501 -0.25068930973E+03  0.14986513591E+03 -0.31719694399E+03  0.46422256542E+03  0.17200000000E+03 0.  1.
</event>
<event>
 4    1  0.3190379E-002  0.3168780E+03  0.7818608E-02  0.1077095E+00
          2   -1    0    0  502    0  0.00000000000E+00  0.00000000000E+00  0.61242056373E+03  0.61242056373E+03  0.00000000000E+00 0. -1.
         -2   -1    0    0    0  501 -0.00000000000E+00 -0.00000000000E+00 -0.30823664003E+03  0.30823664003E+03  0.00000000000E+00 0.  1.
          6    1    1    2  502    0  0.16763231299E+03 -0.20670524784E+03  0.46703054072E+03  0.56438389223E+03  0.17200000000E+03 0. -1.
         -6    1    1    2    0  501 -0.16763231299E+03  0.20670524784E+03 -0.16284661701E+03  0.35627331154E+03  0.17200000000E+03 0.  1.
</event>
<event>
 4    1  0.3190379E-002  0.3320677E+03  0.7818608E-02  0.1070226E+00
         -1   -1    0    0    0  501 -0.00000000000E+00  0.00000000000E+00  0.17911605150E+03  0.17911605150E+03  0.00000000000E+00 0.  1.
          1   -1    0    0  502    0  0.00000000000E+00 -0.00000000000E+00 -0.12013981502E+04  0.12013981502E+04  0.00000000000E+00 0. -1.
          6    1    1    2  502    0 -0.11171444854E+03 -0.26116053056E+03 -0.99312308088E+03  0.10471687517E+04  0.17200000000E+03 0.  1.
         -6    1    1    2    0  501  0.11171444854E+03  0.26116053056E+03 -0.29159017834E+02  0.33334545003E+03  0.17200000000E+03 0.  1.
</event>
<event>
 4    1  0.3190379E-002  0.2069433E+03  0.7818608E-02  0.1144010E+00
          1   -1    0    0  502    0  0.00000000000E+00  0.00000000000E+00  0.77564818022E+02  0.77564818022E+02  0.00000000000E+00 0. -1.
         -1   -1    0    0    0  501 -0.00000000000E+00 -0.00000000000E+00 -0.96433573566E+03  0.96433573566E+03  0.00000000000E+00 0.  1.
          6    1    1    2  502    0  0.69121039152E+02 -0.91998985658E+02 -0.10278799496E+03  0.23106471674E+03  0.17200000000E+03 0. -1.
         -6    1    1    2    0  501 -0.69121039152E+02  0.91998985658E+02 -0.78398292267E+03  0.81083583694E+03  0.17200000000E+03 0.  1.
</event>
<event>
 4    1  0.3190379E-002  0.3129839E+03  0.7818608E-02  0.1078924E+00
         -1   -1    0    0    0  501 -0.00000000000E+00  0.00000000000E+00  0.14404090389E+03  0.14404090389E+03  0.00000000000E+00 0.  1.
          1   -1    0    0  502    0  0.00000000000E+00 -0.00000000000E+00 -0.99198872416E+03  0.99198872416E+03  0.00000000000E+00 0. -1.
          6    1    1    2  502    0 -0.13566631178E+03  0.22353870756E+03 -0.74248324339E+03  0.80575447169E+03  0.17200000000E+03 0. -1.
         -6    1    1    2    0  501  0.13566631178E+03 -0.22353870756E+03 -0.10546457688E+03  0.33027515635E+03  0.17200000000E+03 0.  1.
</event>
<event>
 4    1  0.3190379E-002  0.2152033E+03  0.7818608E-02  0.1137511E+00
          1   -1    0    0  502    0  0.00000000000E+00  0.00000000000E+00  0.41541883564E+03  0.41541883564E+03  0.00000000000E+00 0. -1.
         -1   -1    0    0    0  501 -0.00000000000E+00 -0.00000000000E+00 -0.29377470566E+03  0.29377470566E+03  0.00000000000E+00 0.  1.
          6    1    1    2  502    0  0.10755557938E+03  0.71834817449E+02  0.34014728800E+03  0.40250791445E+03  0.17200000000E+03 0. -1.
         -6    1    1    2    0  501 -0.10755557938E+03 -0.71834817449E+02 -0.21850315802E+03  0.30668562686E+03  0.17200000000E+03 0.  1.
</event>
<event>
 4    1  0.3190379E-002  0.2998817E+03  0.7818608E-02  0.1085300E+00
          1   -1    0    0  502    0  0.00000000000E+00  0.00000000000E+00  0.15640052507E+03  0.15640052507E+03  0.00000000000E+00 0. -1.
         -1   -1    0    0    0  501 -0.00000000000E+00 -0.00000000000E+00 -0.94650059612E+03  0.94650059612E+03  0.00000000000E+00 0.  1.
          6    1    1    2  502    0 -0.11330733961E+03 -0.21795975872E+03 -0.49563820419E+02  0.30394996616E+03  0.17200000000E+03 0. -1.
         -6    1    1    2    0  501  0.11330733961E+03  0.21795975872E+03 -0.74053625063E+03  0.79895115503E+03  0.17200000000E+03 0.  1.
</event>
<event>
 4    1  0.3190379E-002  0.2404352E+03  0.7818608E-02  0.1119503E+00
         -1   -1    0    0    0  501 -0.00000000000E+00  0.00000000000E+00  0.43206751296E+02  0.43206751296E+02  0.00000000000E+00 0.  1.
          1   -1    0    0  502    0  0.00000000000E+00 -0.00000000000E+00 -0.15940592051E+04  0.15940592051E+04  0.00000000000E+00 0. -1.
          6    1    1    2  502    0  0.15171085179E+03  0.72172759888E+02 -0.11035498510E+04  0.11294385170E+04  0.17200000000E+03 0. -1.
         -6    1    1    2    0  501 -0.15171085179E+03 -0.72172759888E+02 -0.44730260273E+03  0.50782743942E+03  0.17200000000E+03 0.  1.
</event>
<event>
 4    1  0.3190379E-002  0.3395182E+03  0.7818608E-02  0.1067001E+00
         -3   -1    0    0    0  501 -0.00000000000E+00  0.00000000000E+00  0.12178957183E+04  0.12178957183E+04  0.00000000000E+00 0.  1.
          3   -1    0    0  502    0  0.00000000000E+00 -0.00000000000E+00 -0.97676483495E+02  0.97676483495E+02  0.00000000000E+00 0. -1.
          6    1    1    2  502    0  0.18292420324E+03  0.22853305519E+03  0.44430389745E+03  0.55917669366E+03  0.17200000000E+03 0. -1.
         -6    1    1    2    0  501 -0.18292420324E+03 -0.22853305519E+03  0.67591533735E+03  0.75639550812E+03  0.17200000000E+03 0.  1.
</event>
<event>
 4    1  0.3190379E-002  0.6275957E+03  0.7818608E-02  0.9849752E-01
          1   -1    0    0  502    0  0.00000000000E+00  0.00000000000E+00  0.99043680560E+03  0.99043680560E+03  0.00000000000E+00 0. -1.
         -1   -1    0    0    0  501 -0.00000000000E+00 -0.00000000000E+00 -0.83155317512E+03  0.83155317512E+03  0.00000000000E+00 0.  1.
          6    1    1    2  502    0 -0.43068728401E+03 -0.42284853931E+03  0.73748231086E+03  0.96837832619E+03  0.17200000000E+03 0. -1.
         -6    1    1    2    0  501  0.43068728401E+03  0.42284853931E+03 -0.57859868038E+03  0.85361165453E+03  0.17200000000E+03 0.  1.
</event>
<event>
 4    1  0.3190379E-002  0.2353341E+03  0.7818608E-02  0.1122941E+00
         -1   -1    0    0    0  501 -0.00000000000E+00  0.00000000000E+00  0.18807582090E+03  0.18807582090E+03  0.00000000000E+00 0.  1.
          1   -1    0    0  502    0  0.00000000000E+00 -0.00000000000E+00 -0.33715477584E+03  0.33715477584E+03  0.00000000000E+00 0. -1.
          6    1    1    2  502    0 -0.16040498622E+03  0.82692886345E+01 -0.16798460070E+03  0.28913831779E+03  0.17200000000E+03 0. -1.
         -6    1    1    2    0  501  0.16040498622E+03 -0.82692886345E+01  0.18905645760E+02  0.23609227895E+03  0.17200000000E+03 0.  1.
</event>
<event>
 4    1  0.3190379E-002  0.2123477E+03  0.7818608E-02  0.1139720E+00
         -2   -1    0    0    0  501 -0.00000000000E+00  0.00000000000E+00  0.41374573394E+02  0.41374573394E+02  0.00000000000E+00 0.  1.
          2   -1    0    0  502    0  0.00000000000E+00 -0.00000000000E+00 -0.10898553201E+04  0.10898553201E+04  0.00000000000E+00 0. -1.
          6    1    1    2  502    0 -0.28346302479E+02 -0.12126015891E+03 -0.52656233851E+03  0.56776706081E+03  0.17200000000E+03 0. -1.
         -6    1    1    2    0  501  0.28346302479E+02  0.12126015891E+03 -0.52191840822E+03  0.56346283271E+03  0.17200000000E+03 0. -1.
</event>
<event>
 4    1  0.3190379E-002  0.1778405E+03  0.7818608E-02  0.1169910E+00
          2   -1    0    0  502    0  0.00000000000E+00  0.00000000000E+00  0.27414708602E+03  0.27414708602E+03  0.00000000000E+00 0. -1.
         -2   -1    0    0    0  501 -0.00000000000E+00 -0.00000000000E+00 -0.11889714979E+03  0.11889714979E+03  0.00000000000E+00 0.  1.
          6    1    1    2  502    0 -0.24259303036E+02 -0.38140841605E+02  0.43757152944E+02  0.18314454951E+03  0.17200000000E+03 0.  1.
         -6    1    1    2    0  501  0.24259303036E+02  0.38140841605E+02  0.11149278329E+03  0.20989968630E+03  0.17200000000E+03 0.  1.
</event>
<event>
 4    1  0.3190379E-002  0.3277941E+03  0.7818608E-02  0.1072117E+00
          1   -1    0    0  502    0  0.00000000000E+00  0.00000000000E+00  0.31966118331E+03  0.31966118331E+03  0.00000000000E+00 0. -1.
         -1   -1    0    0    0  501 -0.00000000000E+00 -0.00000000000E+00 -0.34463327196E+03  0.34463327196E+03  0.00000000000E+00 0.  1.
          6    1    1    2  502    0  0.10344079501E+03  0.25916202844E+03  0.39674949950E+02  0.33018639692E+03  0.17200000000E+03 0. -1.
         -6    1    1    2    0  501 -0.10344079501E+03 -0.25916202844E+03 -0.64647038599E+02  0.33410805835E+03  0.17200000000E+03 0.  1.
</event>
<event>
 4    1  0.3190379E-002  0.2013605E+03  0.7818608E-02  0.1148596E+00
         -1   -1    0    0    0  501 -0.00000000000E+00  0.00000000000E+00  0.31575798694E+03  0.31575798694E+03  0.00000000000E+00 0.  1.
          1   -1    0    0  502    0  0.00000000000E+00 -0.00000000000E+00 -0.14213136100E+03  0.14213136100E+03  0.00000000000E+00 0. -1.
          6    1    1    2  502    0 -0.54642482218E+02 -0.89309763475E+02  0.15795213250E+03  0.25591973522E+03  0.17200000000E+03 0. -1.
         -6    1    1    2    0  501  0.54642482218E+02  0.89309763475E+02  0.15674493439E+02  0.20196961271E+03  0.17200000000E+03 0. -1.
</event>
<event>
 4    1  0.3190379E-002  0.2295270E+03  0.7818608E-02  0.1126973E+00
         -2   -1    0    0    0  501 -0.00000000000E+00  0.00000000000E+00  0.31066472895E+03  0.31066472895E+03  0.00000000000E+00 0.  1.
          2   -1    0    0  502    0  0.00000000000E+00 -0.00000000000E+00 -0.19514543341E+03  0.19514543341E+03  0.00000000000E+00 0. -1.
          6    1    1    2  502    0  0.33675150709E+02  0.14820467408E+03 -0.33778422818E+02  0.23199918759E+03  0.17200000000E+03 0.  1.
         -6    1    1    2    0  501 -0.33675150709E+02 -0.14820467408E+03  0.14929771835E+03  0.27381097476E+03  0.17200000000E+03 0.  1.
</event>
<event>
 4    1  0.3190379E-002  0.1829816E+03  0.7818608E-02  0.1164948E+00
          1   -1    0    0  502    0  0.00000000000E+00  0.00000000000E+00  0.18509015632E+03  0.18509015632E+03  0.00000000000E+00 0. -1.
         -1   -1    0    0    0  501 -0.00000000000E+00 -0.00000000000E+00 -0.30763664670E+03  0.30763664670E+03  0.00000000000E+00 0.  1.
          6    1    1    2  502    0  0.55321856190E+02 -0.28943849175E+02  0.96856438350E+02  0.20703483723E+03  0.17200000000E+03 0. -1.
         -6    1    1    2    0  501 -0.55321856190E+02  0.28943849175E+02 -0.21940292873E+03  0.28569196578E+03  0.17200000000E+03 0.  1.
</event>
<event>
 4    1  0.3190379E-002  0.3011250E+03  0.7818608E-02  0.1084680E+00
          2   -1    0    0  502    0  0.00000000000E+00  0.00000000000E+00  0.10377061457E+03  0.10377061457E+03  0.00000000000E+00 0. -1.
         -2   -1    0    0    0  501 -0.00000000000E+00 -0.00000000000E+00 -0.91440432813E+03  0.91440432813E+03  0.00000000000E+00 0.  1.
          6    1    1    2  502    0 -0.84409873341E+02 -0.23230849964E+03 -0.51257542125E+03  0.59448282414E+03  0.17200000000E+03 0.  1.
         -6    1    1    2    0  501  0.84409873341E+02  0.23230849964E+03 -0.29805829230E+03  0.42369211856E+03  0.17200000000E+03 0.  1.
</event>
<event>
 4    1  0.3190379E-002  0.3240259E+03  0.7818608E-02  0.1073811E+00
          2   -1    0    0  502    0  0.00000000000E+00  0.00000000000E+00  0.17776732005E+04  0.17776732005E+04  0.00000000000E+00 0. -1.
         -2   -1    0    0    0  501 -0.00000000000E+00 -0.00000000000E+00 -0.76547267652E+02  0.76547267652E+02  0.00000000000E+00 0.  1.
          6    1    1    2  502    0 -0.12718064313E+03  0.24338005789E+03  0.12936650891E+04  0.13336274335E+04  0.17200000000E+03 0. -1.
         -6    1    1    2    0  501  0.12718064313E+03 -0.24338005789E+03  0.40746084374E+03  0.52059303467E+03  0.17200000000E+03 0.  1.
</event>
<event>
 4    1  0.3190379E-002  0.3114599E+03  0.7818608E-02  0.1079648E+00
          2   -1    0    0  502    0  0.00000000000E+00  0.00000000000E+00  0.96841824383E+03  0.96841824383E+03  0.00000000000E+00 0. -1.
         -2   -1    0    0    0  501 -0.00000000000E+00 -0.00000000000E+00 -0.10266268130E+03  0.10266268130E+03  0.00000000000E+00 0.  1.
          6    1    1    2  502    0 -0.15664564846E+03  0.20708789094E+03  0.51631264205E+03  0.60298092681E+03  0.17200000000E+03 0. -1.
         -6    1    1    2    0  501  0.15664564846E+03 -0.20708789094E+03  0.34944292049E+03  0.46809999832E+03  0.17200000000E+03 0.  1.
</event>
<event>
 4    1  0.3190379E-002  0.2439843E+03  0.7818608E-02  0.1117167E+00
          2   -1    0    0  502    0  0.00000000000E+00  0.00000000000E+00  0.59330665068E+03  0.59330665068E+03  0.00000000000E+00 0. -1.
         -2   -1    0    0    0  501 -0.00000000000E+00 -0.00000000000E+00 -0.13063566717E+03  0.13063566717E+03  0.00000000000E+00 0.  1.
          6    1    1    2  502    0  0.70356791926E+02  0.15809565805E+03  0.40566967731E+03  0.47338800403E+03  0.17200000000E+03 0. -1.
         -6    1    1    2    0  501 -0.70356791926E+02 -0.15809565805E+03  0.57001306196E+02  0.25055431382E+03  0.17200000000E+03 0.  1.
</event>
<event>
 4    1  0.3190379E-002  0.1864553E+03  0.7818608E-02  0.1161698E+00
         -2   -1    0    0    0  501 -0.00000000000E+00  0.00000000000E+00  0.12145950383E+03  0.12145950383E+03  0.00000000000E+00 0.  1.
          2   -1    0    0  502    0  0.00000000000E+00 -0.00000000000E+00 -0.33983258143E+03  0.33983258143E+03  0.00000000000E+00 0. -1.
          6    1    1    2  502    0 -0.20516595604E+01  0.71953856840E+02 -0.20078733471E+03  0.27400934401E+03  0.17200000000E+03 0. -1.
         -6    1    1    2    0  501  0.20516595604E+01 -0.71953856840E+02 -0.17585742888E+02  0.18728274126E+03  0.17200000000E+03 0.  1.
</event>
<event>
 4    1  0.3190379E-002  0.2304773E+03  0.7818608E-02  0.1126304E+00
          2   -1    0    0  502    0  0.00000000000E+00  0.00000000000E+00  0.27733670968E+04  0.27733670968E+04  0.00000000000E+00 0. -1.
         -2   -1    0    0    0  501 -0.00000000000E+00 -0.00000000000E+00 -0.24164642991E+02  0.24164642991E+02  0.00000000000E+00 0.  1.
          6    1    1    2  502    0 -0.16077330689E+01 -0.15340533739E+03  0.20115752748E+04  0.20247357528E+04  0.17200000000E+03 0.  1.
         -6    1    1    2    0  501  0.16077330689E+01  0.15340533739E+03  0.73762717898E+03  0.77279598699E+03  0.17200000000E+03 0. -1.
</event>
<event>
 4    1  0.3190379E-002  0.2156123E+03  0.7818608E-02  0.1137197E+00
         -1   -1    0    0    0  501 -0.00000000000E+00  0.00000000000E+00  0.14799019512E+03  0.14799019512E+03  0.00000000000E+00 0.  1.
          1   -1    0    0  502    0  0.00000000000E+00 -0.00000000000E+00 -0.35529538986E+03  0.35529538986E+03  0.00000000000E+00 0. -1.
          6    1    1    2  502    0 -0.11079130894E+03 -0.68043685286E+02 -0.18000480418E+02  0.21636236858E+03  0.17200000000E+03 0. -1.
         -6    1    1    2    0  501  0.11079130894E+03  0.68043685286E+02 -0.18930471433E+03  0.28692321640E+03  0.17200000000E+03 0.  1.
</event>
<event>
 4    1  0.3190379E-002  0.1832115E+03  0.7818608E-02  0.1164731E+00
         -2   -1    0    0    0  501 -0.00000000000E+00  0.00000000000E+00  0.36661884888E+03  0.36661884888E+03  0.00000000000E+00 0.  1.
          2   -1    0    0  502    0  0.00000000000E+00 -0.00000000000E+00 -0.11522644113E+04  0.11522644113E+04  0.00000000000E+00 0. -1.
          6    1    1    2  502    0  0.31824105314E+02 -0.54494774231E+02 -0.11214680769E+04  0.11363349426E+04  0.17200000000E+03 0. -1.
         -6    1    1    2    0  501 -0.31824105314E+02  0.54494774231E+02  0.33582251449E+03  0.38254831765E+03  0.17200000000E+03 0.  1.
</event>
<event>
 4    1  0.3190379E-002  0.1916675E+03  0.7818608E-02  0.1156966E+00
          2   -1    0    0  502    0  0.00000000000E+00  0.00000000000E+00  0.31144535041E+04  0.31144535041E+04  0.00000000000E+00 0. -1.
         -2   -1    0    0    0  501 -0.00000000000E+00 -0.00000000000E+00 -0.34287781919E+02  0.34287781919E+02  0.00000000000E+00 0.  1.
          6    1    1    2  502    0 -0.77357036717E+02 -0.34180645336E+02  0.28152126253E+04  0.28217297095E+04  0.17200000000E+03 0. -1.
         -6    1    1    2    0  501  0.77357036717E+02  0.34180645336E+02  0.26495309683E+03  0.32701157650E+03  0.17200000000E+03 0.  1.
</event>
<event>
 4    1  0.3190379E-002  0.1757294E+03  0.7818608E-02  0.1172001E+00
         -2   -1    0    0    0  501 -0.00000000000E+00  0.00000000000E+00  0.12630241256E+03  0.12630241256E+03  0.00000000000E+00 0.  1.
          2   -1    0    0  502    0  0.00000000000E+00 -0.00000000000E+00 -0.26711860953E+03  0.26711860953E+03  0.00000000000E+00 0. -1.
          6    1    1    2  502    0  0.73509742383E+01  0.35253035959E+02 -0.12765052842E+03  0.21719915003E+03  0.17200000000E+03 0. -1.
         -6    1    1    2    0  501 -0.73509742383E+01 -0.35253035959E+02 -0.13165668546E+02  0.17622187207E+03  0.17200000000E+03 0.  1.
</event>
<event>
 4    1  0.3190379E-002  0.2253588E+03  0.7818608E-02  0.1129950E+00
          2   -1    0    0  502    0  0.00000000000E+00  0.00000000000E+00  0.12081936345E+04  0.12081936345E+04  0.00000000000E+00 0. -1.
         -2   -1    0    0    0  501 -0.00000000000E+00 -0.00000000000E+00 -0.59586539493E+02  0.59586539493E+02  0.00000000000E+00 0.  1.
          6    1    1    2  502    0  0.10982489571E+03  0.95609074969E+02  0.91833298599E+03  0.94558028538E+03  0.17200000000E+03 0. -1.
         -6    1    1    2    0  501 -0.10982489571E+03 -0.95609074969E+02  0.23027410898E+03  0.32219988858E+03  0.17200000000E+03 0. -1.
</event>
<event>
 4    1  0.3190379E-002  0.1730167E+03  0.7818608E-02  0.1174738E+00
         -2   -1    0    0    0  501 -0.00000000000E+00  0.00000000000E+00  0.11316062353E+03  0.11316062353E+03  0.00000000000E+00 0.  1.
          2   -1    0    0  502    0  0.00000000000E+00 -0.00000000000E+00 -0.37043338730E+03  0.37043338730E+03  0.00000000000E+00 0. -1.
          6    1    1    2  502    0 -0.15366956022E+02 -0.10706095364E+02 -0.25792009674E+03  0.31057614223E+03  0.17200000000E+03 0. -1.
         -6    1    1    2    0  501  0.15366956022E+02  0.10706095364E+02  0.64733297651E+00  0.17301786860E+03  0.17200000000E+03 0.  1.
</event>
<event>
 4    1  0.3190379E-002  0.2079633E+03  0.7818608E-02  0.1143189E+00
          1   -1    0    0  502    0  0.00000000000E+00  0.00000000000E+00  0.27122643425E+02  0.27122643425E+02  0.00000000000E+00 0. -1.
         -1   -1    0    0    0  501 -0.00000000000E+00 -0.00000000000E+00 -0.15956569900E+04  0.15956569900E+04  0.00000000000E+00 0.  1.
          6    1    1    2  502    0 -0.97536421134E+02 -0.64431223453E+02 -0.76301179545E+03  0.79084495067E+03  0.17200000000E+03 0. -1.
         -6    1    1    2    0  501  0.97536421134E+02  0.64431223453E+02 -0.80552255115E+03  0.83193468278E+03  0.17200000000E+03 0.  1.
</event>
<event>
 4    1  0.3190379E-002  0.2641692E+03  0.7818608E-02  0.1104664E+00
         -2   -1    0    0    0  501 -0.00000000000E+00  0.00000000000E+00  0.56053275790E+02  0.56053275790E+02  0.00000000000E+00 0.  1.
          2   -1    0    0  502    0  0.00000000000E+00 -0.00000000000E+00 -0.13189918906E+04  0.13189918906E+04  0.00000000000E+00 0. -1.
          6    1    1    2  502    0 -0.18770969243E+03  0.70472877605E+02 -0.46861137480E+03  0.53794235351E+03  0.17200000000E+03 0. -1.
         -6    1    1    2    0  501  0.18770969243E+03 -0.70472877605E+02 -0.79432724005E+03  0.83710281291E+03  0.17200000000E+03 0. -1.
</event>
<event>
 4    1  0.3190379E-002  0.1959642E+03  0.7818608E-02  0.1153189E+00
         -2   -1    0    0    0  501 -0.00000000000E+00  0.00000000000E+00  0.30678013261E+03  0.30678013261E+03  0.00000000000E+00 0.  1.
          2   -1    0    0  502    0  0.00000000000E+00 -0.00000000000E+00 -0.20734008228E+03  0.20734008228E+03  0.00000000000E+00 0. -1.
          6    1    1    2  502    0  0.43098400311E+02 -0.83429563372E+02 -0.11209920933E+03  0.22576137155E+03  0.17200000000E+03 0. -1.
         -6    1    1    2    0  501 -0.43098400311E+02  0.83429563372E+02  0.21153925966E+03  0.28835884334E+03  0.17200000000E+03 0.  1.
</event>
<event>
 4    1  0.3190379E-002  0.2210726E+03  0.7818608E-02  0.1133086E+00
         -2   -1    0    0    0  501 -0.00000000000E+00  0.00000000000E+00  0.61339407249E+02  0.61339407249E+02  0.00000000000E+00 0.  1.
          2   -1    0    0  502    0  0.00000000000E+00 -0.00000000000E+00 -0.10683829089E+04  0.10683829089E+04  0.00000000000E+00 0. -1.
          6    1    1    2  502    0  0.13887184219E+03 -0.19275412842E+01 -0.78833310685E+03  0.81874427712E+03  0.17200000000E+03 0.  1.
         -6    1    1    2    0  501 -0.13887184219E+03  0.19275412842E+01 -0.21871039483E+03  0.31097803906E+03  0.17200000000E+03 0.  1.
</event>
<event>
 4    1  0.3190379E-002  0.2116972E+03  0.7818608E-02  0.1140229E+00
         -2   -1    0    0    0  501 -0.00000000000E+00  0.00000000000E+00  0.52465764400E+02  0.52465764400E+02  0.00000000000E+00 0.  1.
          2   -1    0    0  502    0  0.00000000000E+00 -0.00000000000E+00 -0.16326237469E+04  0.16326237469E+04  0.00000000000E+00 0. -1.
          6    1    1    2  502    0 -0.83092371499E+02 -0.91254327479E+02 -0.13718618864E+04  0.13880996829E+04  0.17200000000E+03 0. -1.
         -6    1    1    2    0  501  0.83092371499E+02  0.91254327479E+02 -0.20829609610E+03  0.29698982834E+03  0.17200000000E+03 0.  1.
</event>
<event>
 4    1  0.3190379E-002  0.1977006E+03  0.7818608E-02  0.1151694E+00
         -1   -1    0    0    0  501 -0.00000000000E+00  0.00000000000E+00  0.10022834866E+03  0.10022834866E+03  0.00000000000E+00 0.  1.
          1   -1    0    0  502    0  0.00000000000E+00 -0.00000000000E+00 -0.19553910054E+04  0.19553910054E+04  0.00000000000E+00 0. -1.
          6    1    1    2  502    0  0.23522508629E+02 -0.94595031575E+02 -0.18472093477E+04  0.18577588387E+04  0.17200000000E+03 0. -1.
         -6    1    1    2    0  501 -0.23522508629E+02  0.94595031575E+02 -0.79533089870E+01  0.19786051535E+03  0.17200000000E+03 0.  1.
</event>
<event>
 4    1  0.3190379E-002  0.3799563E+03  0.7818608E-02  0.1050950E+00
         -2   -1    0    0    0  501 -0.00000000000E+00  0.00000000000E+00  0.72594448955E+02  0.72594448955E+02  0.00000000000E+00 0.  1.
          2   -1    0    0  502    0  0.00000000000E+00 -0.00000000000E+00 -0.21052259633E+04  0.21052259633E+04  0.00000000000E+00 0. -1.
          6    1    1    2  502    0  0.19105019574E+03 -0.27979023684E+03 -0.76010288346E+03  0.84977829307E+03  0.17200000000E+03 0.  1.
         -6    1    1    2    0  501 -0.19105019574E+03  0.27979023684E+03 -0.12725286309E+04  0.13280421192E+04  0.17200000000E+03 0. -1.
</event>
<event>
 4    1  0.3190379E-002  0.2405932E+03  0.7818608E-02  0.1119398E+00
         -1   -1    0    0    0  501 -0.00000000000E+00  0.00000000000E+00  0.58952053874E+03  0.58952053874E+03  0.00000000000E+00 0.  1.
          1   -1    0    0  502    0  0.00000000000E+00 -0.00000000000E+00 -0.99035042506E+02  0.99035042506E+02  0.00000000000E+00 0. -1.
          6    1    1    2  502    0  0.16563657605E+03  0.29421465126E+02  0.27704227108E+03  0.36692985420E+03  0.17200000000E+03 0. -1.
         -6    1    1    2    0  501 -0.16563657605E+03 -0.29421465126E+02  0.21344322515E+03  0.32162572705E+03  0.17200000000E+03 0. -1.
</event>
<event>
 4    1  0.3190379E-002  0.1755107E+03  0.7818608E-02  0.1172220E+00
         -1   -1    0    0    0  501 -0.00000000000E+00  0.00000000000E+00  0.28458460648E+03  0.28458460648E+03  0.00000000000E+00 0.  1.
          1   -1    0    0  502    0  0.00000000000E+00 -0.00000000000E+00 -0.31784673544E+03  0.31784673544E+03  0.00000000000E+00 0. -1.
          6    1    1    2  502    0  0.85295456650E+01 -0.33871120021E+02 -0.26123826311E+03  0.31472120366E+03  0.17200000000E+03 0. -1.
         -6    1    1    2    0  501 -0.85295456650E+01  0.33871120021E+02  0.22797613414E+03  0.28771013826E+03  0.17200000000E+03 0.  1.
</event>
<event>
 4    1  0.3190379E-002  0.2124061E+03  0.7818608E-02  0.1139675E+00
          2   -1    0    0  502    0  0.00000000000E+00  0.00000000000E+00  0.19899665174E+04  0.19899665174E+04  0.00000000000E+00 0. -1.
         -2   -1    0    0    0  501 -0.00000000000E+00 -0.00000000000E+00 -0.14431461017E+03  0.14431461017E+03  0.00000000000E+00 0.  1.
          6    1    1    2  502    0 -0.65131097470E+02  0.10625570629E+03  0.19025629550E+04  0.19143829640E+04  0.17200000000E+03 0. -1.
         -6    1    1    2    0  501  0.65131097470E+02 -0.10625570629E+03 -0.56911047814E+02  0.21989816357E+03  0.17200000000E+03 0.  1.
</event>
<event>
 4    1  0.3190379E-002  0.2034069E+03  0.7818608E-02  0.1146896E+00
          2   -1    0    0  502    0  0.00000000000E+00  0.00000000000E+00  0.10303584857E+03  0.10303584857E+03  0.00000000000E+00 0. -1.
         -2   -1    0    0    0  501 -0.00000000000E+00 -0.00000000000E+00 -0.41544126281E+03  0.41544126281E+03  0.00000000000E+00 0.  1.
          6    1    1    2  502    0  0.91954901823E+02  0.57746633211E+02 -0.10880414437E+03  0.23067882315E+03  0.17200000000E+03 0. -1.
         -6    1    1    2    0  501 -0.91954901823E+02 -0.57746633211E+02 -0.20360126986E+03  0.28779828823E+03  0.17200000000E+03 0.  1.
</event>
<event>
 4    1  0.3190379E-002  0.2146649E+03  0.7818608E-02  0.1137924E+00
         -1   -1    0    0    0  501 -0.00000000000E+00  0.00000000000E+00  0.14767266584E+03  0.14767266584E+03  0.00000000000E+00 0.  1.
          1   -1    0    0  502    0  0.00000000000E+00 -0.00000000000E+00 -0.32235965089E+03  0.32235965089E+03  0.00000000000E+00 0. -1.
          6    1    1    2  502    0  0.12644462408E+03 -0.22556366662E+02 -0.12937559663E+03  0.25063734287E+03  0.17200000000E+03 0. -1.
         -6    1    1    2    0  501 -0.12644462408E+03  0.22556366662E+02 -0.45311388414E+02  0.21939497386E+03  0.17200000000E+03 0. -1.
</event>
<event>
 4    1  0.3190379E-002  0.2537344E+03  0.7818608E-02  0.1110967E+00
          2   -1    0    0  502    0  0.00000000000E+00  0.00000000000E+00  0.17238340976E+04  0.17238340976E+04  0.00000000000E+00 0. -1.
         -2   -1    0    0    0  501 -0.00000000000E+00 -0.00000000000E+00 -0.41178453809E+02  0.41178453809E+02  0.00000000000E+00 0.  1.
          6    1    1    2  502    0 -0.98655996249E+02 -0.15831655200E+03  0.57215681687E+03  0.62589500663E+03  0.17200000000E+03 0.  1.
         -6    1    1    2    0  501  0.98655996249E+02  0.15831655200E+03  0.11104988270E+04  0.11391175448E+04  0.17200000000E+03 0. -1.
</event>
<event>
 4    1  0.3190379E-002  0.1783236E+03  0.7818608E-02  0.1169435E+00
          1   -1    0    0  502    0  0.00000000000E+00  0.00000000000E+00  0.10396683356E+04  0.10396683356E+04  0.00000000000E+00 0. -1.
         -1   -1    0    0    0  501 -0.00000000000E+00 -0.00000000000E+00 -0.30677223983E+02  0.30677223983E+02  0.00000000000E+00 0.  1.
          6    1    1    2  502    0 -0.31433852195E+02 -0.35031923272E+02  0.53367511142E+03  0.56267970219E+03  0.17200000000E+03 0. -1.
         -6    1    1    2    0  501  0.31433852195E+02  0.35031923272E+02  0.47531600016E+03  0.50766585735E+03  0.17200000000E+03 0.  1.
</event>
<event>
 4    1  0.3190379E-002  0.1882573E+03  0.7818608E-02  0.1160043E+00
         -2   -1    0    0    0  501 -0.00000000000E+00  0.00000000000E+00  0.19205089642E+04  0.19205089642E+04  0.00000000000E+00 0.  1.
          2   -1    0    0  502    0  0.00000000000E+00 -0.00000000000E+00 -0.32249281941E+02  0.32249281941E+02  0.00000000000E+00 0. -1.
          6    1    1    2  502    0 -0.39323865629E+02 -0.65653998399E+02  0.30553431832E+03  0.35887606995E+03  0.17200000000E+03 0. -1.
         -6    1    1    2    0  501  0.39323865629E+02  0.65653998399E+02  0.15827253639E+04  0.15938821761E+04  0.17200000000E+03 0.  1.
</event>
<event>
 4    1  0.3190379E-002  0.1850060E+03  0.7818608E-02  0.1163044E+00
          2   -1    0    0  502    0  0.00000000000E+00  0.00000000000E+00  0.18058432606E+03  0.18058432606E+03  0.00000000000E+00 0. -1.
         -2   -1    0    0    0  501 -0.00000000000E+00 -0.00000000000E+00 -0.28251584851E+03  0.28251584851E+03  0.00000000000E+00 0.  1.
          6    1    1    2  502    0  0.62972304610E+02 -0.26032594427E+02  0.81870995898E+02  0.20231180660E+03  0.17200000000E+03 0. -1.
         -6    1    1    2    0  501 -0.62972304610E+02  0.26032594427E+02 -0.18380251834E+03  0.26078836797E+03  0.17200000000E+03 0.  1.
</event>
<event>
 4    1  0.3190379E-002  0.3759025E+03  0.7818608E-02  0.1052459E+00
         -2   -1    0    0    0  501 -0.00000000000E+00  0.00000000000E+00  0.41050613139E+03  0.41050613139E+03  0.00000000000E+00 0.  1.
          2   -1    0    0  502    0  0.00000000000E+00 -0.00000000000E+00 -0.36566208730E+03  0.36566208730E+03  0.00000000000E+00 0. -1.
          6    1    1    2  502    0 -0.30670635682E+03  0.13285305449E+03  0.11640761543E+03  0.39351423904E+03  0.17200000000E+03 0. -1.
         -6    1    1    2    0  501  0.30670635682E+03 -0.13285305449E+03 -0.71563571340E+02  0.38265397965E+03  0.17200000000E+03 0.  1.
</event>
<event>
 4    1  0.3190379E-002  0.3635070E+03  0.7818608E-02  0.1057204E+00
          1   -1    0    0  502    0  0.00000000000E+00  0.00000000000E+00  0.54450737674E+03  0.54450737674E+03  0.00000000000E+00 0. -1.
         -1   -1    0    0    0  501 -0.00000000000E+00 -0.00000000000E+00 -0.56166673540E+03  0.56166673540E+03  0.00000000000E+00 0.  1.
          6    1    1    2  502    0 -0.31399543183E+03  0.62930316827E+02  0.40823698463E+03  0.54662125059E+03  0.17200000000E+03 0. -1.
         -6    1    1    2    0  501  0.31399543183E+03 -0.62930316827E+02 -0.42539634328E+03  0.55955286155E+03  0.17200000000E+03 0.  1.
</event>
<event>
 4    1  0.3190379E-002  0.1753534E+03  0.7818608E-02  0.1172377E+00
          1   -1    0    0  502    0  0.00000000000E+00  0.00000000000E+00  0.41598508102E+03  0.41598508102E+03  0.00000000000E+00 0. -1.
         -1   -1    0    0    0  501 -0.00000000000E+00 -0.00000000000E+00 -0.74990769866E+02  0.74990769866E+02  0.00000000000E+00 0.  1.
          6    1    1    2  502    0 -0.97340704690E+01 -0.32711647195E+02  0.19985812417E+03  0.26587981079E+03  0.17200000000E+03 0.  1.
         -6    1    1    2    0  501  0.97340704690E+01  0.32711647195E+02  0.14113618699E+03  0.22509604010E+03  0.17200000000E+03 0.  1.
</event>
<event>
 4    1  0.3190379E-002  0.1797796E+03  0.7818608E-02  0.1168017E+00
          2   -1    0    0  502    0  0.00000000000E+00  0.00000000000E+00  0.12499726042E+03  0.12499726042E+03  0.00000000000E+00 0. -1.
         -2   -1    0    0    0  501 -0.00000000000E+00 -0.00000000000E+00 -0.26052894754E+03  0.26052894754E+03  0.00000000000E+00 0.  1.
          6    1    1    2  502    0  0.33345668705E+02 -0.40308481607E+02 -0.51056463363E+02  0.18688892359E+03  0.17200000000E+03 0.  1.
         -6    1    1    2    0  501 -0.33345668705E+02  0.40308481607E+02 -0.84475223753E+02  0.19863728436E+03  0.17200000000E+03 0. -1.
</event>
<event>
 4    1  0.3190379E-002  0.1816220E+03  0.7818608E-02  0.1166242E+00
         -1   -1    0    0    0  501 -0.00000000000E+00  0.00000000000E+00  0.36841212152E+03  0.36841212152E+03  0.00000000000E+00 0.  1.
          1   -1    0    0  502    0  0.00000000000E+00 -0.00000000000E+00 -0.10773625832E+03  0.10773625832E+03  0.00000000000E+00 0. -1.
          6    1    1    2  502    0 -0.56384368982E+02 -0.14944900426E+02  0.32488746736E+02  0.18450492074E+03  0.17200000000E+03 0. -1.
         -6    1    1    2    0  501  0.56384368982E+02  0.14944900426E+02  0.22818711647E+03  0.29164345910E+03  0.17200000000E+03 0.  1.
</event>
<event>
 4    1  0.3190379E-002  0.4983292E+03  0.7818608E-02  0.1014216E+00
          2   -1    0    0  502    0  0.00000000000E+00  0.00000000000E+00  0.43641306790E+04  0.43641306790E+04  0.00000000000E+00 0. -1.
         -2   -1    0    0    0  501 -0.00000000000E+00 -0.00000000000E+00 -0.58355898915E+02  0.58355898915E+02  0.00000000000E+00 0.  1.
          6    1    1    2  502    0  0.21748255724E+03 -0.41406444243E+03  0.25017989574E+04  0.25509468925E+04  0.17200000000E+03 0. -1.
         -6    1    1    2    0  501 -0.21748255724E+03  0.41406444243E+03  0.18039758227E+04  0.18715396854E+04  0.17200000000E+03 0. -1.
</event>
<event>
 4    1  0.3190379E-002  0.2436105E+03  0.7818608E-02  0.1117411E+00
          1   -1    0    0  502    0  0.00000000000E+00  0.00000000000E+00  0.20643550215E+04  0.20643550215E+04  0.00000000000E+00 0. -1.
         -1   -1    0    0    0  501 -0.00000000000E+00 -0.00000000000E+00 -0.14448527763E+03  0.14448527763E+03  0.00000000000E+00 0.  1.
          6    1    1    2  502    0 -0.15869270753E+03  0.67666021605E+02  0.19483950226E+04  0.19635654381E+04  0.17200000000E+03 0. -1.
         -6    1    1    2    0  501  0.15869270753E+03 -0.67666021605E+02 -0.28525278711E+02  0.24527486098E+03  0.17200000000E+03 0.  1.
</event>
<event>
 4    1  0.3190379E-002  0.2784902E+03  0.7818608E-02  0.1096516E+00
         -4   -1    0    0    0  501 -0.00000000000E+00  0.00000000000E+00  0.52982659284E+03  0.52982659284E+03  0.00000000000E+00 0.  1.
          4   -1    0    0  502    0  0.00000000000E+00 -0.00000000000E+00 -0.21288366927E+03  0.21288366927E+03  0.00000000000E+00 0. -1.
          6    1    1    2  502    0  0.13391716833E+03  0.17331754383E+03 -0.49085049041E+02  0.28278281598E+03  0.17200000000E+03 0. -1.
         -6    1    1    2    0  501 -0.13391716833E+03 -0.17331754383E+03  0.36602797261E+03  0.45992744613E+03  0.17200000000E+03 0.  1.
</event>
<event>
 4    1  0.3190379E-002  0.2659297E+03  0.7818608E-02  0.1103632E+00
          1   -1    0    0  502    0  0.00000000000E+00  0.00000000000E+00  0.47283618345E+03  0.47283618345E+03  0.00000000000E+00 0. -1.
         -1   -1    0    0    0  501 -0.00000000000E+00 -0.00000000000E+00 -0.15821878967E+03  0.15821878967E+03  0.00000000000E+00 0.  1.
          6    1    1    2  502    0  0.11033991625E+03 -0.17017551161E+03  0.23111134204E+03  0.35232237268E+03  0.17200000000E+03 0. -1.
         -6    1    1    2    0  501 -0.11033991625E+03  0.17017551161E+03  0.83506051747E+02  0.27873260044E+03  0.17200000000E+03 0.  1.
</event>
<event>
 4    1  0.3190379E-002  0.2980621E+03  0.7818608E-02  0.1086213E+00
          1   -1    0    0  502    0  0.00000000000E+00  0.00000000000E+00  0.70600894849E+03  0.70600894849E+03  0.00000000000E+00 0. -1.
         -1   -1    0    0    0  501 -0.00000000000E+00 -0.00000000000E+00 -0.12702192037E+03  0.12702192037E+03  0.00000000000E+00 0.  1.
          6    1    1    2  502    0 -0.22521296612E+03  0.92391052917E+02  0.24923927249E+03  0.38853725911E+03  0.17200000000E+03 0. -1.
         -6    1    1    2    0  501  0.22521296612E+03 -0.92391052917E+02  0.32974775562E+03  0.44449360975E+03  0.17200000000E+03 0.  1.
</event>
<event>
 4    1  0.3190379E-002  0.3560120E+03  0.7818608E-02  0.1060174E+00
         -2   -1    0    0    0  501 -0.00000000000E+00  0.00000000000E+00  0.18573572451E+03  0.18573572451E+03  0.00000000000E+00 0.  1.
          2   -1    0    0  502    0  0.00000000000E+00 -0.00000000000E+00 -0.68480717468E+03  0.68480717468E+03  0.00000000000E+00 0. -1.
          6    1    1    2  502    0 -0.30297952980E+03  0.73239166937E+02 -0.22368629245E+03  0.42045229037E+03  0.17200000000E+03 0. -1.
         -6    1    1    2    0  501  0.30297952980E+03 -0.73239166937E+02 -0.27538515772E+03  0.45009060882E+03  0.17200000000E+03 0.  1.
</event>
<event>
 4    1  0.3190379E-002  0.1959665E+03  0.7818608E-02  0.1153187E+00
          2   -1    0    0  502    0  0.00000000000E+00  0.00000000000E+00  0.17394495140E+04  0.17394495140E+04  0.00000000000E+00 0. -1.
         -2   -1    0    0    0  501 -0.00000000000E+00 -0.00000000000E+00 -0.27738876541E+02  0.27738876541E+02  0.00000000000E+00 0.  1.
          6    1    1    2  502    0  0.27912742129E+02  0.89664578755E+02  0.12550326644E+04  0.12702400744E+04  0.17200000000E+03 0. -1.
         -6    1    1    2    0  501 -0.27912742129E+02 -0.89664578755E+02  0.45667797307E+03  0.49694831617E+03  0.17200000000E+03 0.  1.
</event>
<event>
 4    1  0.3190379E-002  0.2103609E+03  0.7818608E-02  0.1141281E+00
          2   -1    0    0  502    0  0.00000000000E+00  0.00000000000E+00  0.45433185724E+02  0.45433185724E+02  0.00000000000E+00 0. -1.
         -2   -1    0    0    0  501 -0.00000000000E+00 -0.00000000000E+00 -0.15041394081E+04  0.15041394081E+04  0.00000000000E+00 0.  1.
          6    1    1    2  502    0 -0.43464886205E+02 -0.11304206663E+03 -0.26937740635E+03  0.34178339956E+03  0.17200000000E+03 0. -1.
         -6    1    1    2    0  501  0.43464886205E+02  0.11304206663E+03 -0.11893288160E+04  0.12077891943E+04  0.17200000000E+03 0.  1.
</event>
<event>
 4    1  0.3190379E-002  0.2179200E+03  0.7818608E-02  0.1135443E+00
          1   -1    0    0  502    0  0.00000000000E+00  0.00000000000E+00  0.15382390307E+04  0.15382390307E+04  0.00000000000E+00 0. -1.
         -1   -1    0    0    0  501 -0.00000000000E+00 -0.00000000000E+00 -0.36193732048E+02  0.36193732048E+02  0.00000000000E+00 0.  1.
          6    1    1    2  502    0  0.12861336549E+03  0.36928553543E+02  0.10528704472E+04  0.10751861674E+04  0.17200000000E+03 0. -1.
         -6    1    1    2    0  501 -0.12861336549E+03 -0.36928553543E+02  0.44917485143E+03  0.49924659539E+03  0.17200000000E+03 0.  1.
</event>
<event>
 4    1  0.3190379E-002  0.1805056E+03  0.7818608E-02  0.1167315E+00
         -2   -1    0    0    0  501 -0.00000000000E+00  0.00000000000E+00  0.60673553781E+02  0.60673553781E+02  0.00000000000E+00 0.  1.
          2   -1    0    0  502    0  0.00000000000E+00 -0.00000000000E+00 -0.79803857972E+03  0.79803857972E+03  0.00000000000E+00 0. -1.
          6    1    1    2  502    0 -0.21283338004E+02 -0.50450767117E+02 -0.61423837362E+03  0.64021171499E+03  0.17200000000E+03 0. -1.
         -6    1    1    2    0  501  0.21283338004E+02  0.50450767117E+02 -0.12312665232E+03  0.21850041851E+03  0.17200000000E+03 0.  1.
</event>
<event>
 4    1  0.3190379E-002  0.2197204E+03  0.7818608E-02  0.1134092E+00
          2   -1    0    0  502    0  0.00000000000E+00  0.00000000000E+00  0.15218449396E+04  0.15218449396E+04  0.00000000000E+00 0. -1.
         -2   -1    0    0    0  501 -0.00000000000E+00 -0.00000000000E+00 -0.70504167588E+02  0.70504167588E+02  0.00000000000E+00 0.  1.
          6    1    1    2  502    0 -0.69813544629E+02  0.11755471325E+03  0.13161609707E+04  0.13343750381E+04  0.17200000000E+03 0. -1.
         -6    1    1    2    0  501  0.69813544629E+02 -0.11755471325E+03  0.13517980132E+03  0.25797406906E+03  0.17200000000E+03 0.  1.
</event>
<event>
 4    1  0.3190379E-002  0.2209950E+03  0.7818608E-02  0.1133143E+00
          1   -1    0    0  502    0  0.00000000000E+00  0.00000000000E+00  0.16736557176E+03  0.16736557176E+03  0.00000000000E+00 0. -1.
         -1   -1    0    0    0  501 -0.00000000000E+00 -0.00000000000E+00 -0.29296947639E+03  0.29296947639E+03  0.00000000000E+00 0.  1.
          6    1    1    2  502    0  0.11343798695E+03 -0.79916384018E+02 -0.48316807223E+02  0.22621520545E+03  0.17200000000E+03 0. -1.
         -6    1    1    2    0  501 -0.11343798695E+03  0.79916384018E+02 -0.77287097411E+02  0.23411984270E+03  0.17200000000E+03 0.  1.
</event>
<event>
 4    1  0.3190379E-002  0.3585007E+03  0.7818608E-02  0.1059179E+00
          1   -1    0    0  502    0  0.00000000000E+00  0.00000000000E+00  0.29668089563E+03  0.29668089563E+03  0.00000000000E+00 0. -1.
         -1   -1    0    0    0  501 -0.00000000000E+00 -0.00000000000E+00 -0.16941839297E+04  0.16941839297E+04  0.00000000000E+00 0.  1.
          6    1    1    2  502    0 -0.31153589254E+03 -0.43406717518E+02  0.16003641218E+03  0.39259955258E+03  0.17200000000E+03 0. -1.
         -6    1    1    2    0  501  0.31153589254E+03  0.43406717518E+02 -0.15575394463E+04  0.15982652728E+04  0.17200000000E+03 0.  1.
</event>
<event>
 4    1  0.3190379E-002  0.2053255E+03  0.7818608E-02  0.1145322E+00
         -2   -1    0    0    0  501 -0.00000000000E+00  0.00000000000E+00  0.15760222143E+03  0.15760222143E+03  0.00000000000E+00 0.  1.
          2   -1    0    0  502    0  0.00000000000E+00 -0.00000000000E+00 -0.31781349002E+03  0.31781349002E+03  0.00000000000E+00 0. -1.
          6    1    1    2  502    0  0.10799327023E+03 -0.30199502820E+02 -0.17468592158E+03  0.26958065135E+03  0.17200000000E+03 0. -1.
         -6    1    1    2    0  501 -0.10799327023E+03  0.30199502820E+02  0.14474652990E+02  0.20583506010E+03  0.17200000000E+03 0.  1.
</event>
<event>
 4    1  0.3190379E-002  0.3000863E+03  0.7818608E-02  0.1085197E+00
          1   -1    0    0  502    0  0.00000000000E+00  0.00000000000E+00  0.32025139775E+03  0.32025139775E+03  0.00000000000E+00 0. -1.
         -1   -1    0    0    0  501 -0.00000000000E+00 -0.00000000000E+00 -0.34661317728E+03  0.34661317728E+03  0.00000000000E+00 0.  1.
          6    1    1    2  502    0 -0.24584598110E+03  0.52476420651E+01 -0.15804069263E+03  0.33915873083E+03  0.17200000000E+03 0.  1.
         -6    1    1    2    0  501  0.24584598110E+03 -0.52476420651E+01  0.13167891310E+03  0.32770584420E+03  0.17200000000E+03 0. -1.
</event>
<event>
 4    1  0.3190379E-002  0.2081732E+03  0.7818608E-02  0.1143021E+00
         -2   -1    0    0    0  501 -0.00000000000E+00  0.00000000000E+00  0.47838552411E+02  0.47838552411E+02  0.00000000000E+00 0.  1.
          2   -1    0    0  502    0  0.00000000000E+00 -0.00000000000E+00 -0.93868650450E+03  0.93868650450E+03  0.00000000000E+00 0. -1.
          6    1    1    2  502    0  0.11676167149E+03  0.10899573414E+02 -0.53763521856E+03  0.57653075969E+03  0.17200000000E+03 0. -1.
         -6    1    1    2    0  501 -0.11676167149E+03 -0.10899573414E+02 -0.35321273353E+03  0.40999429722E+03  0.17200000000E+03 0.  1.
</event>
<event>
 4    1  0.3190379E-002  0.2705864E+03  0.7818608E-02  0.1100944E+00
          2   -1    0    0  502    0  0.00000000000E+00  0.00000000000E+00  0.23428171245E+04  0.23428171245E+04  0.00000000000E+00 0. -1.
         -2   -1    0    0    0  501 -0.00000000000E+00 -0.00000000000E+00 -0.65955528281E+02  0.65955528281E+02  0.00000000000E+00 0.  1.
          6    1    1    2  502    0  0.18038676515E+03 -0.10532619379E+03  0.26479790681E+03  0.37859598993E+03  0.17200000000E+03 0. -1.
         -6    1    1    2    0  501 -0.18038676515E+03  0.10532619379E+03  0.20120636894E+04  0.20301766628E+04  0.17200000000E+03 0. -1.
</event>
<event>
 4    1  0.3190379E-002  0.2187894E+03  0.7818608E-02  0.1134789E+00
         -1   -1    0    0    0  501 -0.00000000000E+00  0.00000000000E+00  0.45853120610E+02  0.45853120610E+02  0.00000000000E+00 0.  1.
          1   -1    0    0  502    0  0.00000000000E+00 -0.00000000000E+00 -0.10729283783E+04  0.10729283783E+04  0.00000000000E+00 0. -1.
          6    1    1    2  502    0 -0.10490634805E+03  0.85319670068E+02 -0.42162020101E+03  0.47500777032E+03  0.17200000000E+03 0.  1.
         -6    1    1    2    0  501  0.10490634805E+03 -0.85319670068E+02 -0.60545505663E+03  0.64377372855E+03  0.17200000000E+03 0.  1.
</event>
<event>
 4    1  0.3190379E-002  0.1760800E+03  0.7818608E-02  0.1171652E+00
         -2   -1    0    0    0  501 -0.00000000000E+00  0.00000000000E+00  0.24841978994E+02  0.24841978994E+02  0.00000000000E+00 0.  1.
          2   -1    0    0  502    0  0.00000000000E+00 -0.00000000000E+00 -0.12582841357E+04  0.12582841357E+04  0.00000000000E+00 0. -1.
          6    1    1    2  502    0 -0.14579159247E+02  0.34750778255E+02 -0.67456515298E+03  0.69716735013E+03  0.17200000000E+03 0.  1.
         -6    1    1    2    0  501  0.14579159247E+02 -0.34750778255E+02 -0.55887700369E+03  0.58595876453E+03  0.17200000000E+03 0.  1.
</event>
<event>
 4    1  0.3190379E-002  0.1856203E+03  0.7818608E-02  0.1162472E+00
         -2   -1    0    0    0  501 -0.00000000000E+00  0.00000000000E+00  0.21787384201E+03  0.21787384201E+03  0.00000000000E+00 0.  1.
          2   -1    0    0  502    0  0.00000000000E+00 -0.00000000000E+00 -0.16652976784E+03  0.16652976784E+03  0.00000000000E+00 0. -1.
          6    1    1    2  502    0  0.51782483525E+02 -0.46791736227E+02  0.68808858848E+02  0.19796350986E+03  0.17200000000E+03 0.  1.
         -6    1    1    2    0  501 -0.51782483525E+02  0.46791736227E+02 -0.17464784679E+02  0.18644009999E+03  0.17200000000E+03 0. -1.
</event>
<event>
 4    1  0.3190379E-002  0.1906392E+03  0.7818608E-02  0.1157886E+00
          2   -1    0    0  502    0  0.00000000000E+00  0.00000000000E+00  0.16982751755E+02  0.16982751755E+02  0.00000000000E+00 0. -1.
         -2   -1    0    0    0  501 -0.00000000000E+00 -0.00000000000E+00 -0.22099938377E+04  0.22099938377E+04  0.00000000000E+00 0.  1.
          6    1    1    2  502    0  0.37420530677E+02 -0.73205137252E+02 -0.12946507557E+04  0.13086114272E+04  0.17200000000E+03 0.  1.
         -6    1    1    2    0  501 -0.37420530677E+02  0.73205137252E+02 -0.89836033027E+03  0.91836516225E+03  0.17200000000E+03 0. -1.
</event>
<event>
 4    1  0.3190379E-002  0.2317349E+03  0.7818608E-02  0.1125425E+00
          1   -1    0    0  502    0  0.00000000000E+00  0.00000000000E+00  0.81838278585E+03  0.81838278585E+03  0.00000000000E+00 0. -1.
         -1   -1    0    0    0  501 -0.00000000000E+00 -0.00000000000E+00 -0.66134543844E+02  0.66134543844E+02  0.00000000000E+00 0.  1.
          6    1    1    2  502    0  0.15052343846E+03  0.38206901273E+02  0.33705855151E+03  0.40903488846E+03  0.17200000000E+03 0. -1.
         -6    1    1    2    0  501 -0.15052343846E+03 -0.38206901273E+02  0.41518969049E+03  0.47548244123E+03  0.17200000000E+03 0.  1.
</event>
<event>
 4    1  0.3190379E-002  0.6562197E+03  0.7818608E-02  0.9795178E-01
          2   -1    0    0  502    0  0.00000000000E+00  0.00000000000E+00  0.24955784355E+04  0.24955784355E+04  0.00000000000E+00 0. -1.
         -2   -1    0    0    0  501 -0.00000000000E+00 -0.00000000000E+00 -0.34862093162E+03  0.34862093162E+03  0.00000000000E+00 0.  1.
          6    1    1    2  502    0  0.38739208710E+03 -0.50096675552E+03  0.20841061838E+04  0.21849766371E+04  0.17200000000E+03 0. -1.
         -6    1    1    2    0  501 -0.38739208710E+03  0.50096675552E+03  0.62851320026E+02  0.65922272998E+03  0.17200000000E+03 0.  1.
</event>
<event>
 4    1  0.3190379E-002  0.2009695E+03  0.7818608E-02  0.1148924E+00
         -2   -1    0    0    0  501 -0.00000000000E+00  0.00000000000E+00  0.41149350672E+02  0.41149350672E+02  0.00000000000E+00 0.  1.
          2   -1    0    0  502    0  0.00000000000E+00 -0.00000000000E+00 -0.12625455244E+04  0.12625455244E+04  0.00000000000E+00 0. -1.
          6    1    1    2  502    0 -0.58775906232E+02 -0.85732951775E+02 -0.30316035177E+03  0.36372372078E+03  0.17200000000E+03 0.  1.
         -6    1    1    2    0  501  0.58775906232E+02  0.85732951775E+02 -0.91823582198E+03  0.93997115431E+03  0.17200000000E+03 0. -1.
</event>
<event>
 4    1  0.3190379E-002  0.2280215E+03  0.7818608E-02  0.1128040E+00
         -2   -1    0    0    0  501 -0.00000000000E+00  0.00000000000E+00  0.40182126577E+03  0.40182126577E+03  0.00000000000E+00 0.  1.
          2   -1    0    0  502    0  0.00000000000E+00 -0.00000000000E+00 -0.20701503176E+03  0.20701503176E+03  0.00000000000E+00 0. -1.
          6    1    1    2  502    0  0.12780278361E+03  0.77950384076E+02 -0.89000980724E+02  0.24477538366E+03  0.17200000000E+03 0. -1.
         -6    1    1    2    0  501 -0.12780278361E+03 -0.77950384076E+02  0.28380721473E+03  0.36406091387E+03  0.17200000000E+03 0.  1.
</event>
<event>
 4    1  0.3190379E-002  0.2957802E+03  0.7818608E-02  0.1087369E+00
          2   -1    0    0  502    0  0.00000000000E+00  0.00000000000E+00  0.18867631097E+03  0.18867631097E+03  0.00000000000E+00 0. -1.
         -2   -1    0    0    0  501 -0.00000000000E+00 -0.00000000000E+00 -0.47450409087E+03  0.47450409087E+03  0.00000000000E+00 0.  1.
          6    1    1    2  502    0 -0.21705608087E+03  0.10386823069E+03 -0.19298902793E+03  0.35317236089E+03  0.17200000000E+03 0. -1.
         -6    1    1    2    0  501  0.21705608087E+03 -0.10386823069E+03 -0.92838751960E+02  0.31000804095E+03  0.17200000000E+03 0.  1.
</event>
<event>
 4    1  0.3190379E-002  0.3056066E+03  0.7818608E-02  0.1082471E+00
         -1   -1    0    0    0  501 -0.00000000000E+00  0.00000000000E+00  0.80301935388E+03  0.80301935388E+03  0.00000000000E+00 0.  1.
          1   -1    0    0  502    0  0.00000000000E+00 -0.00000000000E+00 -0.21275672330E+03  0.21275672330E+03  0.00000000000E+00 0. -1.
          6    1    1    2  502    0 -0.25021848850E+03 -0.34671536387E+02 -0.46832896193E+02  0.30917426734E+03  0.17200000000E+03 0. -1.
         -6    1    1    2    0  501  0.25021848850E+03  0.34671536387E+02  0.63709552677E+03  0.70660180983E+03  0.17200000000E+03 0.  1.
</event>
<event>
 4    1  0.3190379E-002  0.2693481E+03  0.7818608E-02  0.1101653E+00
         -2   -1    0    0    0  501 -0.00000000000E+00  0.00000000000E+00  0.59352977492E+02  0.59352977492E+02  0.00000000000E+00 0.  1.
          2   -1    0    0  502    0  0.00000000000E+00 -0.00000000000E+00 -0.13607574748E+04  0.13607574748E+04  0.00000000000E+00 0. -1.
          6    1    1    2  502    0 -0.11033497007E+03  0.17547256135E+03 -0.87718029773E+03  0.91760214697E+03  0.17200000000E+03 0. -1.
         -6    1    1    2    0  501  0.11033497007E+03 -0.17547256135E+03 -0.42422419961E+03  0.50250830534E+03  0.17200000000E+03 0.  1.
</event>
<event>
 4    1  0.3190379E-002  0.3060469E+03  0.7818608E-02  0.1082256E+00
         -2   -1    0    0    0  501 -0.00000000000E+00  0.00000000000E+00  0.16597064773E+03  0.16597064773E+03  0.00000000000E+00 0.  1.
          2   -1    0    0  502    0  0.00000000000E+00 -0.00000000000E+00 -0.10643777971E+04  0.10643777971E+04  0.00000000000E+00 0. -1.
          6    1    1    2  502    0  0.14897765151E+01 -0.25313726594E+03 -0.87085104398E+03  0.92306350574E+03  0.17200000000E+03 0. -1.
         -6    1    1    2    0  501 -0.14897765151E+01  0.25313726594E+03 -0.27556105377E+02  0.30728493908E+03  0.17200000000E+03 0.  1.
</event>
<event>
 4    1  0.3190379E-002  0.2164486E+03  0.7818608E-02  0.1136559E+00
          2   -1    0    0  502    0  0.00000000000E+00  0.00000000000E+00  0.73951755782E+03  0.73951755782E+03  0.00000000000E+00 0. -1.
         -2   -1    0    0    0  501 -0.00000000000E+00 -0.00000000000E+00 -0.67437883018E+02  0.67437883018E+02  0.00000000000E+00 0.  1.
          6    1    1    2  502    0 -0.77948552551E+02 -0.10578286579E+03  0.43535262053E+03  0.48619121315E+03  0.17200000000E+03 0. -1.
         -6    1    1    2    0  501  0.77948552551E+02  0.10578286579E+03  0.23672705427E+03  0.32076422768E+03  0.17200000000E+03 0.  1.
</event>
<event>
 4    1  0.3190379E-002  0.1779024E+03  0.7818608E-02  0.1169849E+00
          1   -1    0    0  502    0  0.00000000000E+00  0.00000000000E+00  0.15836963952E+03  0.15836963952E+03  0.00000000000E+00 0. -1.
         -1   -1    0    0    0  501 -0.00000000000E+00 -0.00000000000E+00 -0.24270808717E+03  0.24270808717E+03  0.00000000000E+00 0.  1.
          6    1    1    2  502    0  0.49213976121E+00  0.45442627214E+02  0.42106315615E+02  0.18281744004E+03  0.17200000000E+03 0. -1.
         -6    1    1    2    0  501 -0.49213976121E+00 -0.45442627214E+02 -0.12644476326E+03  0.21826028664E+03  0.17200000000E+03 0.  1.
</event>
<event>
 4    1  0.3190379E-002  0.2661777E+03  0.7818608E-02  0.1103487E+00
          2   -1    0    0  502    0  0.00000000000E+00  0.00000000000E+00  0.51811547645E+03  0.51811547645E+03  0.00000000000E+00 0. -1.
         -2   -1    0    0    0  501 -0.00000000000E+00 -0.00000000000E+00 -0.41053318820E+03  0.41053318820E+03  0.00000000000E+00 0.  1.
          6    1    1    2  502    0 -0.19185488587E+03 -0.66770368601E+02 -0.32539574793E+03  0.42039620851E+03  0.17200000000E+03 0.  1.
         -6    1    1    2    0  501  0.19185488587E+03  0.66770368601E+02  0.43297803618E+03  0.50825245614E+03  0.17200000000E+03 0. -1.
</event>
<event>
 4    1  0.3190379E-002  0.3514953E+03  0.7818608E-02  0.1062003E+00
         -1   -1    0    0    0  501 -0.00000000000E+00  0.00000000000E+00  0.31574701984E+03  0.31574701984E+03  0.00000000000E+00 0.  1.
          1   -1    0    0  502    0  0.00000000000E+00 -0.00000000000E+00 -0.44088253908E+03  0.44088253908E+03  0.00000000000E+00 0. -1.
          6    1    1    2  502    0 -0.30234286275E+03 -0.50534741703E+02 -0.18944848621E+03  0.39929900538E+03  0.17200000000E+03 0. -1.
         -6    1    1    2    0  501  0.30234286275E+03  0.50534741703E+02  0.64312966964E+02  0.35733055354E+03  0.17200000000E+03 0.  1.
</event>
<event>
 4    1  0.3190379E-002  0.1854300E+03  0.7818608E-02  0.1162649E+00
          1   -1    0    0  502    0  0.00000000000E+00  0.00000000000E+00  0.30896274697E+02  0.30896274697E+02  0.00000000000E+00 0. -1.
         -1   -1    0    0    0  501 -0.00000000000E+00 -0.00000000000E+00 -0.11177607262E+04  0.11177607262E+04  0.00000000000E+00 0.  1.
          6    1    1    2  502    0  0.17779853772E+02  0.66963821119E+02 -0.50553498675E+03  0.53846996143E+03  0.17200000000E+03 0. -1.
         -6    1    1    2    0  501 -0.17779853772E+02 -0.66963821119E+02 -0.58132946477E+03  0.61018703948E+03  0.17200000000E+03 0.  1.
</event>
<event>
 4    1  0.3190379E-002  0.2182559E+03  0.7818608E-02  0.1135190E+00
         -2   -1    0    0    0  501 -0.00000000000E+00  0.00000000000E+00  0.12650314182E+03  0.12650314182E+03  0.00000000000E+00 0.  1.
          2   -1    0    0  502    0  0.00000000000E+00 -0.00000000000E+00 -0.39255509202E+03  0.39255509202E+03  0.00000000000E+00 0. -1.
          6    1    1    2  502    0  0.13344941402E+03  0.15585631788E+02 -0.18541837915E+03  0.28638371698E+03  0.17200000000E+03 0. -1.
         -6    1    1    2    0  501 -0.13344941402E+03 -0.15585631788E+02 -0.80633571044E+02  0.23267451687E+03  0.17200000000E+03 0.  1.
</event>
<event>
 4    1  0.3190379E-002  0.5820562E+03  0.7818608E-02  0.9943349E-01
         -1   -1    0    0    0  501 -0.00000000000E+00  0.00000000000E+00  0.26243280483E+03  0.26243280483E+03  0.00000000000E+00 0.  1.
          1   -1    0    0  502    0  0.00000000000E+00 -0.00000000000E+00 -0.21711466822E+04  0.21711466822E+04  0.00000000000E+00 0. -1.
          6    1    1    2  502    0 -0.11249469256E+03  0.54456439804E+03 -0.17291025410E+04  0.18244410203E+04  0.17200000000E+03 0. -1.
         -6    1    1    2    0  501  0.11249469256E+03 -0.54456439804E+03 -0.17961133641E+03  0.60913846672E+03  0.17200000000E+03 0.  1.
</event>
<event>
 4    1  0.3190379E-002  0.6096940E+03  0.7818608E-02  0.9885496E-01
          2   -1    0    0  502    0  0.00000000000E+00  0.00000000000E+00  0.13442878314E+04  0.13442878314E+04  0.00000000000E+00 0. -1.
         -2   -1    0    0    0  501 -0.00000000000E+00 -0.00000000000E+00 -0.77578328271E+03  0.77578328271E+03  0.00000000000E+00 0.  1.
          6    1    1    2  502    0 -0.33734875687E+03 -0.47784792976E+03  0.11346334329E+04  0.12880682648E+04  0.17200000000E+03 0. -1.
         -6    1    1    2    0  501  0.33734875687E+03  0.47784792976E+03 -0.56612888421E+03  0.83200284931E+03  0.17200000000E+03 0.  1.
</event>
<event>
 4    1  0.3190379E-002  0.2233205E+03  0.7818608E-02  0.1131431E+00
          2   -1    0    0  502    0  0.00000000000E+00  0.00000000000E+00  0.63415374253E+03  0.63415374253E+03  0.00000000000E+00 0. -1.
         -2   -1    0    0    0  501 -0.00000000000E+00 -0.00000000000E+00 -0.89579689576E+02  0.89579689576E+02  0.00000000000E+00 0.  1.
          6    1    1    2  502    0 -0.14235666161E+03  0.47572115799E+01  0.39872499050E+03  0.45700510743E+03  0.17200000000E+03 0. -1.
         -6    1    1    2    0  501  0.14235666161E+03 -0.47572115799E+01  0.14584906245E+03  0.26672832467E+03  0.17200000000E+03 0.  1.
</event>
<event>
 4    1  0.3190379E-002  0.2015427E+03  0.7818608E-02  0.1148444E+00
         -1   -1    0    0    0  501 -0.00000000000E+00  0.00000000000E+00  0.90154768542E+03  0.90154768542E+03  0.00000000000E+00 0.  1.
          1   -1    0    0  502    0  0.00000000000E+00 -0.00000000000E+00 -0.23186791998E+03  0.23186791998E+03  0.00000000000E+00 0. -1.
          6    1    1    2  502    0  0.86146703728E+02  0.60118155982E+02 -0.17383703929E+03  0.26615552497E+03  0.17200000000E+03 0. -1.
         -6    1    1    2    0  501 -0.86146703728E+02 -0.60118155982E+02  0.84351680473E+03  0.86726008043E+03  0.17200000000E+03 0.  1.
</event>
<event>
 4    1  0.3190379E-002  0.3423750E+03  0.7818608E-02  0.1065789E+00
          1   -1    0    0  502    0  0.00000000000E+00  0.00000000000E+00  0.21738789590E+04  0.21738789590E+04  0.00000000000E+00 0. -1.
         -1   -1    0    0    0  501 -0.00000000000E+00 -0.00000000000E+00 -0.54731949215E+02  0.54731949215E+02  0.00000000000E+00 0.  1.
          6    1    1    2  502    0  0.15573624701E+03 -0.25175951226E+03  0.11950995350E+04  0.12431747783E+04  0.17200000000E+03 0. -1.
         -6    1    1    2    0  501 -0.15573624701E+03  0.25175951226E+03  0.92404747480E+03  0.98543613001E+03  0.17200000000E+03 0.  1.
</event>
<event>
 4    1  0.3190379E-002  0.3373857E+03  0.7818608E-02  0.1067915E+00
          1   -1    0    0  502    0  0.00000000000E+00  0.00000000000E+00  0.10532626916E+04  0.10532626916E+04  0.00000000000E+00 0. -1.
         -1   -1    0    0    0  501 -0.00000000000E+00 -0.00000000000E+00 -0.10993269281E+03  0.10993269281E+03  0.00000000000E+00 0.  1.
          6    1    1    2  502    0  0.23789952988E+03 -0.16627969555E+03  0.54731254780E+03  0.64294645846E+03  0.17200000000E+03 0. -1.
         -6    1    1    2    0  501 -0.23789952988E+03  0.16627969555E+03  0.39601745099E+03  0.52024892596E+03  0.17200000000E+03 0.  1.
</event>
<event>
 4    1  0.3190379E-002  0.2263981E+03  0.7818608E-02  0.1129201E+00
         -1   -1    0    0    0  501 -0.00000000000E+00  0.00000000000E+00  0.46639320040E+03  0.46639320040E+03  0.00000000000E+00 0.  1.
          1   -1    0    0  502    0  0.00000000000E+00 -0.00000000000E+00 -0.33017518844E+03  0.33017518844E+03  0.00000000000E+00 0. -1.
          6    1    1    2  502    0 -0.14469711342E+03 -0.27107978773E+02 -0.25720647846E+03  0.34265327914E+03  0.17200000000E+03 0. -1.
         -6    1    1    2    0  501  0.14469711342E+03  0.27107978773E+02  0.39342449042E+03  0.45391510969E+03  0.17200000000E+03 0.  1.
</event>
<event>
 4    1  0.3190379E-002  0.2474384E+03  0.7818608E-02  0.1114934E+00
          2   -1    0    0  502    0  0.00000000000E+00  0.00000000000E+00  0.27989935475E+04  0.27989935475E+04  0.00000000000E+00 0. -1.
         -2   -1    0    0    0  501 -0.00000000000E+00 -0.00000000000E+00 -0.34839330466E+02  0.34839330466E+02  0.00000000000E+00 0.  1.
          6    1    1    2  502    0  0.92630803122E+02 -0.15185938691E+03  0.22464433920E+04  0.22600295690E+04  0.17200000000E+03 0. -1.
         -6    1    1    2    0  501 -0.92630803122E+02  0.15185938691E+03  0.51771082505E+03  0.57380330903E+03  0.17200000000E+03 0.  1.
</event>
<event>
 4    1  0.3190379E-002  0.3042840E+03  0.7818608E-02  0.1083118E+00
         -1   -1    0    0    0  501 -0.00000000000E+00  0.00000000000E+00  0.98735983374E+02  0.98735983374E+02  0.00000000000E+00 0.  1.
          1   -1    0    0  502    0  0.00000000000E+00 -0.00000000000E+00 -0.12888251259E+04  0.12888251259E+04  0.00000000000E+00 0. -1.
          6    1    1    2  502    0 -0.25092841710E+03  0.62994139979E+01 -0.95714654318E+03  0.10043496693E+04  0.17200000000E+03 0. -1.
         -6    1    1    2    0  501  0.25092841710E+03 -0.62994139979E+01 -0.23294259934E+03  0.38321143996E+03  0.17200000000E+03 0.  1.
</event>
<event>
 4    1  0.3190379E-002  0.1078327E+04  0.7818608E-02  0.9226577E-01
          2   -1    0    0  502    0  0.00000000000E+00  0.00000000000E+00  0.19523600675E+04  0.19523600675E+04  0.00000000000E+00 0. -1.
         -2   -1    0    0    0  501 -0.00000000000E+00 -0.00000000000E+00 -0.78126014878E+03  0.78126014878E+03  0.00000000000E+00 0.  1.
          6    1    1    2  502    0 -0.54277582361E+02  0.10631368271E+04  0.12518825739E+04  0.16522711485E+04  0.17200000000E+03 0. -1.
         -6    1    1    2    0  501  0.54277582361E+02 -0.10631368271E+04 -0.80782655172E+02  0.10813490678E+04  0.17200000000E+03 0.  1.
</event>
<event>
 4    1  0.3190379E-002  0.1721617E+03  0.7818608E-02  0.1175612E+00
         -1   -1    0    0    0  501 -0.00000000000E+00  0.00000000000E+00  0.10310766060E+03  0.10310766060E+03  0.00000000000E+00 0.  1.
          1   -1    0    0  502    0  0.00000000000E+00 -0.00000000000E+00 -0.67032327898E+03  0.67032327898E+03  0.00000000000E+00 0. -1.
          6    1    1    2  502    0  0.70522684046E+01  0.24331480337E+01 -0.57586785996E+03  0.60105195019E+03  0.17200000000E+03 0. -1.
         -6    1    1    2    0  501 -0.70522684046E+01 -0.24331480337E+01  0.86522415701E+01  0.17237898939E+03  0.17200000000E+03 0.  1.
</event>
<event>
 4    1  0.3190379E-002  0.2116213E+03  0.7818608E-02  0.1140288E+00
         -2   -1    0    0    0  501 -0.00000000000E+00  0.00000000000E+00  0.76252908633E+03  0.76252908633E+03  0.00000000000E+00 0.  1.
          2   -1    0    0  502    0  0.00000000000E+00 -0.00000000000E+00 -0.22903437630E+03  0.22903437630E+03  0.00000000000E+00 0. -1.
          6    1    1    2  502    0 -0.59162903651E+02  0.10816341116E+03 -0.16076895470E+03  0.26576348409E+03  0.17200000000E+03 0. -1.
         -6    1    1    2    0  501  0.59162903651E+02 -0.10816341116E+03  0.69426366473E+03  0.72579997853E+03  0.17200000000E+03 0.  1.
</event>
<event>
 4    1  0.3190379E-002  0.2324636E+03  0.7818608E-02  0.1124918E+00
         -2   -1    0    0    0  501 -0.00000000000E+00  0.00000000000E+00  0.60932502731E+02  0.60932502731E+02  0.00000000000E+00 0.  1.
          2   -1    0    0  502    0  0.00000000000E+00 -0.00000000000E+00 -0.10841245737E+04  0.10841245737E+04  0.00000000000E+00 0. -1.
          6    1    1    2  502    0  0.14416869698E+03  0.60586368177E+02 -0.75580918995E+03  0.79075081588E+03  0.17200000000E+03 0. -1.
         -6    1    1    2    0  501 -0.14416869698E+03 -0.60586368177E+02 -0.26738288098E+03  0.35430626051E+03  0.17200000000E+03 0.  1.
</event>
<event>
 4    1  0.3190379E-002  0.2820621E+03  0.7818608E-02  0.1094568E+00
          2   -1    0    0  502    0  0.00000000000E+00  0.00000000000E+00  0.12078610066E+03  0.12078610066E+03  0.00000000000E+00 0. -1.
         -2   -1    0    0    0  501 -0.00000000000E+00 -0.00000000000E+00 -0.77788109151E+03  0.77788109151E+03  0.00000000000E+00 0.  1.
          6    1    1    2  502    0  0.12506750971E+02 -0.22320083322E+03 -0.15265075177E+03  0.32071994447E+03  0.17200000000E+03 0. -1.
         -6    1    1    2    0  501 -0.12506750971E+02  0.22320083322E+03 -0.50444423908E+03  0.57794724769E+03  0.17200000000E+03 0.  1.
</event>
<event>
 4    1  0.3190379E-002  0.2179704E+03  0.7818608E-02  0.1135405E+00
         -2   -1    0    0    0  501 -0.00000000000E+00  0.00000000000E+00  0.82840022616E+02  0.82840022616E+02  0.00000000000E+00 0.  1.
          2   -1    0    0  502    0  0.00000000000E+00 -0.00000000000E+00 -0.61402524583E+03  0.61402524583E+03  0.00000000000E+00 0. -1.
          6    1    1    2  502    0 -0.12882640743E+03  0.36480703375E+02 -0.35507501638E+03  0.41664055518E+03  0.17200000000E+03 0. -1.
         -6    1    1    2    0  501  0.12882640743E+03 -0.36480703375E+02 -0.17611020683E+03  0.28022471326E+03  0.17200000000E+03 0.  1.
</event>
<event>
 4    1  0.3190379E-002  0.4541812E+03  0.7818608E-02  0.1026482E+00
         -1   -1    0    0    0  501 -0.00000000000E+00  0.00000000000E+00  0.41014327644E+03  0.41014327644E+03  0.00000000000E+00 0.  1.
          1   -1    0    0  502    0  0.00000000000E+00 -0.00000000000E+00 -0.77634618346E+03  0.77634618346E+03  0.00000000000E+00 0. -1.
          6    1    1    2  502    0 -0.37896454488E+03  0.18188586572E+03 -0.53515139226E+03  0.70190284731E+03  0.17200000000E+03 0. -1.
         -6    1    1    2    0  501  0.37896454488E+03 -0.18188586572E+03  0.16894848524E+03  0.48458661258E+03  0.17200000000E+03 0.  1.
</event>
<event>
 4    1  0.3190379E-002  0.1823415E+03  0.7818608E-02  0.1165556E+00
         -2   -1    0    0    0  501 -0.00000000000E+00  0.00000000000E+00  0.89975035320E+02  0.89975035320E+02  0.00000000000E+00 0.  1.
          2   -1    0    0  502    0  0.00000000000E+00 -0.00000000000E+00 -0.37196976744E+03  0.37196976744E+03  0.00000000000E+00 0. -1.
          6    1    1    2  502    0 -0.71573550735E+01  0.60109953922E+02 -0.12228965936E+03  0.21955226047E+03  0.17200000000E+03 0. -1.
         -6    1    1    2    0  501  0.71573550735E+01 -0.60109953922E+02 -0.15970507277E+03  0.24239254229E+03  0.17200000000E+03 0.  1.
</event>
<event>
 4    1  0.3190379E-002  0.2622066E+03  0.7818608E-02  0.1105825E+00
         -1   -1    0    0    0  501 -0.00000000000E+00  0.00000000000E+00  0.14594027164E+03  0.14594027164E+03  0.00000000000E+00 0.  1.
          1   -1    0    0  502    0  0.00000000000E+00 -0.00000000000E+00 -0.49401958092E+03  0.49401958092E+03  0.00000000000E+00 0. -1.
          6    1    1    2  502    0 -0.19129589612E+03  0.50736491169E+02 -0.24296258962E+03  0.35746766478E+03  0.17200000000E+03 0. -1.
         -6    1    1    2    0  501  0.19129589612E+03 -0.50736491169E+02 -0.10511671966E+03  0.28249218779E+03  0.17200000000E+03 0.  1.
</event>
<event>
 4    1  0.3190379E-002  0.1886436E+03  0.7818608E-02  0.1159690E+00
         -1   -1    0    0    0  501 -0.00000000000E+00  0.00000000000E+00  0.29088746840E+03  0.29088746840E+03  0.00000000000E+00 0.  1.
          1   -1    0    0  502    0  0.00000000000E+00 -0.00000000000E+00 -0.14260223634E+03  0.14260223634E+03  0.00000000000E+00 0. -1.
          6    1    1    2  502    0  0.77107406736E+02 -0.75409973272E+01 -0.75639750941E+01  0.18879521322E+03  0.17200000000E+03 0. -1.
         -6    1    1    2    0  501 -0.77107406736E+02  0.75409973272E+01  0.15584920715E+03  0.24469449153E+03  0.17200000000E+03 0.  1.
</event>
<event>
 4    1  0.3190379E-002  0.2824347E+03  0.7818608E-02  0.1094367E+00
          1   -1    0    0  502    0  0.00000000000E+00  0.00000000000E+00  0.42324696559E+03  0.42324696559E+03  0.00000000000E+00 0. -1.
         -1   -1    0    0    0  501 -0.00000000000E+00 -0.00000000000E+00 -0.21377320290E+03  0.21377320290E+03  0.00000000000E+00 0.  1.
          6    1    1    2  502    0  0.22293787587E+03 -0.22001602696E+02 -0.48438191854E+01  0.28247624608E+03  0.17200000000E+03 0. -1.
         -6    1    1    2    0  501 -0.22293787587E+03  0.22001602696E+02  0.21431758187E+03  0.35454392241E+03  0.17200000000E+03 0. -1.
</event>
<event>
 4    1  0.3190379E-002  0.2656654E+03  0.7818608E-02  0.1103786E+00
         -3   -1    0    0    0  501 -0.00000000000E+00  0.00000000000E+00  0.10697543705E+04  0.10697543705E+04  0.00000000000E+00 0.  1.
          3   -1    0    0  502    0  0.00000000000E+00 -0.00000000000E+00 -0.68924823685E+02  0.68924823685E+02  0.00000000000E+00 0. -1.
          6    1    1    2  502    0  0.20244860315E+03 -0.29454118980E+01  0.61817756639E+03  0.67284590803E+03  0.17200000000E+03 0. -1.
         -6    1    1    2    0  501 -0.20244860315E+03  0.29454118980E+01  0.38265198047E+03  0.46583328619E+03  0.17200000000E+03 0.  1.
</event>
<event>
 4    1  0.3190379E-002  0.3127170E+03  0.7818608E-02  0.1079051E+00
         -2   -1    0    0    0  501 -0.00000000000E+00  0.00000000000E+00  0.51667172328E+03  0.51667172328E+03  0.00000000000E+00 0.  1.
          2   -1    0    0  502    0  0.00000000000E+00 -0.00000000000E+00 -0.51844957906E+03  0.51844957906E+03  0.00000000000E+00 0. -1.
          6    1    1    2  502    0 -0.22138612253E+03  0.13854999359E+03 -0.41329264172E+03  0.51826896847E+03  0.17200000000E+03 0. -1.
         -6    1    1    2    0  501  0.22138612253E+03 -0.13854999359E+03  0.41151478595E+03  0.51685233387E+03  0.17200000000E+03 0.  1.
</event>
<event>
 4    1  0.3190379E-002  0.1991473E+03  0.7818608E-02  0.1150460E+00
         -1   -1    0    0    0  501 -0.00000000000E+00  0.00000000000E+00  0.13919030176E+03  0.13919030176E+03  0.00000000000E+00 0.  1.
          1   -1    0    0  502    0  0.00000000000E+00 -0.00000000000E+00 -0.31593032665E+03  0.31593032665E+03  0.00000000000E+00 0. -1.
          6    1    1    2  502    0  0.38853283037E+02 -0.92552970224E+02 -0.15965155605E+03  0.25524155079E+03  0.17200000000E+03 0. -1.
         -6    1    1    2    0  501 -0.38853283037E+02  0.92552970224E+02 -0.17088468836E+02  0.19987907761E+03  0.17200000000E+03 0.  1.
</event>
<event>
 4    1  0.3190379E-002  0.5600710E+03  0.7818608E-02  0.9991894E-01
         -3   -1    0    0    0  501 -0.00000000000E+00  0.00000000000E+00  0.30184206661E+03  0.30184206661E+03  0.00000000000E+00 0.  1.
          3   -1    0    0  502    0  0.00000000000E+00 -0.00000000000E+00 -0.12983454273E+04  0.12983454273E+04  0.00000000000E+00 0. -1.
          6    1    1    2  502    0  0.24720942020E+03  0.47221080094E+03 -0.85569148643E+03  0.10226863927E+04  0.17200000000E+03 0. -1.
         -6    1    1    2    0  501 -0.24720942020E+03 -0.47221080094E+03 -0.14081187430E+03  0.57750110121E+03  0.17200000000E+03 0.  1.
</event>
<event>
 4    1  0.3190379E-002  0.3624285E+03  0.7818608E-02  0.1057626E+00
         -2   -1    0    0    0  501 -0.00000000000E+00  0.00000000000E+00  0.76847427697E+02  0.76847427697E+02  0.00000000000E+00 0.  1.
          2   -1    0    0  502    0  0.00000000000E+00 -0.00000000000E+00 -0.18700191753E+04  0.18700191753E+04  0.00000000000E+00 0. -1.
          6    1    1    2  502    0  0.31892669118E+03  0.74978553340E+01 -0.61120026688E+03  0.71057738383E+03  0.17200000000E+03 0. -1.
         -6    1    1    2    0  501 -0.31892669118E+03 -0.74978553340E+01 -0.11819714808E+04  0.12362892192E+04  0.17200000000E+03 0.  1.
</event>
<event>
 4    1  0.3190379E-002  0.2144550E+03  0.7818608E-02  0.1138086E+00
          2   -1    0    0  502    0  0.00000000000E+00  0.00000000000E+00  0.12462170366E+04  0.12462170366E+04  0.00000000000E+00 0. -1.
         -2   -1    0    0    0  501 -0.00000000000E+00 -0.00000000000E+00 -0.47106323672E+02  0.47106323672E+02  0.00000000000E+00 0.  1.
          6    1    1    2  502    0  0.11488866309E+03 -0.56635158992E+02  0.90049377244E+03  0.92567811919E+03  0.17200000000E+03 0. -1.
         -6    1    1    2    0  501 -0.11488866309E+03  0.56635158992E+02  0.29861694045E+03  0.36764524105E+03  0.17200000000E+03 0. -1.
</event>
<event>
 4    1  0.3190379E-002  0.2564727E+03  0.7818608E-02  0.1109281E+00
          1   -1    0    0  502    0  0.00000000000E+00  0.00000000000E+00  0.48577375001E+03  0.48577375001E+03  0.00000000000E+00 0. -1.
         -1   -1    0    0    0  501 -0.00000000000E+00 -0.00000000000E+00 -0.15442437236E+03  0.15442437236E+03  0.00000000000E+00 0.  1.
          6    1    1    2  502    0  0.34663980745E+02  0.18706322575E+03  0.27799969310E+03  0.37823547077E+03  0.17200000000E+03 0. -1.
         -6    1    1    2    0  501 -0.34663980745E+02 -0.18706322575E+03  0.53349684554E+02  0.26196265159E+03  0.17200000000E+03 0.  1.
</event>
<event>
 4    1  0.3190379E-002  0.3531544E+03  0.7818608E-02  0.1061328E+00
          2   -1    0    0  502    0  0.00000000000E+00  0.00000000000E+00  0.16825443622E+04  0.16825443622E+04  0.00000000000E+00 0. -1.
         -2   -1    0    0    0  501 -0.00000000000E+00 -0.00000000000E+00 -0.28248316480E+03  0.28248316480E+03  0.00000000000E+00 0.  1.
          6    1    1    2  502    0 -0.29050027713E+03 -0.10365143667E+03  0.15438470190E+04  0.15837239815E+04  0.17200000000E+03 0. -1.
         -6    1    1    2    0  501  0.29050027713E+03  0.10365143667E+03 -0.14378582162E+03  0.38130354553E+03  0.17200000000E+03 0.  1.
</event>
<event>
 4    1  0.3190379E-002  0.2934390E+03  0.7818608E-02  0.1088567E+00
         -2   -1    0    0    0  501 -0.00000000000E+00  0.00000000000E+00  0.40475996677E+03  0.40475996677E+03  0.00000000000E+00 0.  1.
          2   -1    0    0  502    0  0.00000000000E+00 -0.00000000000E+00 -0.31034463577E+03  0.31034463577E+03  0.00000000000E+00 0. -1.
          6    1    1    2  502    0  0.18610790006E+03  0.14794022141E+03 -0.15331553945E+03  0.33107720280E+03  0.17200000000E+03 0. -1.
         -6    1    1    2    0  501 -0.18610790006E+03 -0.14794022141E+03  0.24773087045E+03  0.38402739974E+03  0.17200000000E+03 0.  1.
</event>
<event>
 4    1  0.3190379E-002  0.1797404E+03  0.7818608E-02  0.1168055E+00
         -2   -1    0    0    0  501 -0.00000000000E+00  0.00000000000E+00  0.43861646782E+02  0.43861646782E+02  0.00000000000E+00 0.  1.
          2   -1    0    0  502    0  0.00000000000E+00 -0.00000000000E+00 -0.80440470518E+03  0.80440470518E+03  0.00000000000E+00 0. -1.
          6    1    1    2  502    0  0.59060325699E+01  0.51843239298E+02 -0.50344935836E+03  0.53457259480E+03  0.17200000000E+03 0. -1.
         -6    1    1    2    0  501 -0.59060325699E+01 -0.51843239298E+02 -0.25709370004E+03  0.31369375716E+03  0.17200000000E+03 0. -1.
</event>
<event>
 4    1  0.3190379E-002  0.2306633E+03  0.7818608E-02  0.1126174E+00
          4   -1    0    0  502    0  0.00000000000E+00  0.00000000000E+00  0.14006630937E+03  0.14006630937E+03  0.00000000000E+00 0. -1.
         -4   -1    0    0    0  501 -0.00000000000E+00 -0.00000000000E+00 -0.38021736907E+03  0.38021736907E+03  0.00000000000E+00 0.  1.
          6    1    1    2  502    0  0.67675983640E+02 -0.13799100443E+03 -0.11209755968E+03  0.25645939045E+03  0.17200000000E+03 0. -1.
         -6    1    1    2    0  501 -0.67675983640E+02  0.13799100443E+03 -0.12805350002E+03  0.26382428799E+03  0.17200000000E+03 0. -1.
</event>
<event>
 4    1  0.3190379E-002  0.2048490E+03  0.7818608E-02  0.1145711E+00
          2   -1    0    0  502    0  0.00000000000E+00  0.00000000000E+00  0.12863010782E+03  0.12863010782E+03  0.00000000000E+00 0. -1.
         -2   -1    0    0    0  501 -0.00000000000E+00 -0.00000000000E+00 -0.47482509015E+03  0.47482509015E+03  0.00000000000E+00 0.  1.
          6    1    1    2  502    0  0.33214212100E+02  0.10618816002E+03 -0.43065257713E+01  0.20489425414E+03  0.17200000000E+03 0. -1.
         -6    1    1    2    0  501 -0.33214212100E+02 -0.10618816002E+03 -0.34188845656E+03  0.39856094383E+03  0.17200000000E+03 0.  1.
</event>
<event>
 4    1  0.3190379E-002  0.1932361E+03  0.7818608E-02  0.1155575E+00
         -1   -1    0    0    0  501 -0.00000000000E+00  0.00000000000E+00  0.20077290733E+03  0.20077290733E+03  0.00000000000E+00 0.  1.
          1   -1    0    0  502    0  0.00000000000E+00 -0.00000000000E+00 -0.26690605404E+03  0.26690605404E+03  0.00000000000E+00 0. -1.
          6    1    1    2  502    0  0.83432983824E+02 -0.28198095517E+02 -0.16182533544E+03  0.25204688963E+03  0.17200000000E+03 0. -1.
         -6    1    1    2    0  501 -0.83432983824E+02  0.28198095517E+02  0.95692188729E+02  0.21563207174E+03  0.17200000000E+03 0.  1.
</event>
<event>
 4    1  0.3190379E-002  0.3476238E+03  0.7818608E-02  0.1063595E+00
          1   -1    0    0  502    0  0.00000000000E+00  0.00000000000E+00  0.25676756936E+03  0.25676756936E+03  0.00000000000E+00 0. -1.
         -1   -1    0    0    0  501 -0.00000000000E+00 -0.00000000000E+00 -0.49167718240E+03  0.49167718240E+03  0.00000000000E+00 0.  1.
          6    1    1    2  502    0 -0.19443667315E+03 -0.23119844417E+03 -0.40027532700E+02  0.34992076793E+03  0.17200000000E+03 0. -1.
         -6    1    1    2    0  501  0.19443667315E+03  0.23119844417E+03 -0.19488208034E+03  0.39852398384E+03  0.17200000000E+03 0.  1.
</event>
<event>
 4    1  0.3190379E-002  0.1827511E+03  0.7818608E-02  0.1165167E+00
          1   -1    0    0  502    0  0.00000000000E+00  0.00000000000E+00  0.40059489017E+03  0.40059489017E+03  0.00000000000E+00 0. -1.
         -1   -1    0    0    0  501 -0.00000000000E+00 -0.00000000000E+00 -0.84973216426E+02  0.84973216426E+02  0.00000000000E+00 0.  1.
          6    1    1    2  502    0  0.52507163882E+02 -0.32511085207E+02  0.12447220865E+03  0.22111377987E+03  0.17200000000E+03 0.  1.
         -6    1    1    2    0  501 -0.52507163882E+02  0.32511085207E+02  0.19114946509E+03  0.26445432672E+03  0.17200000000E+03 0. -1.
</event>
<event>
 4    1  0.3190379E-002  0.2208706E+03  0.7818608E-02  0.1133236E+00
         -2   -1    0    0    0  501 -0.00000000000E+00  0.00000000000E+00  0.14303445675E+03  0.14303445675E+03  0.00000000000E+00 0.  1.
          2   -1    0    0  502    0  0.00000000000E+00 -0.00000000000E+00 -0.97226842065E+03  0.97226842065E+03  0.00000000000E+00 0. -1.
          6    1    1    2  502    0  0.11993900742E+03  0.69386210209E+02 -0.86393617974E+03  0.89172279007E+03  0.17200000000E+03 0. -1.
         -6    1    1    2    0  501 -0.11993900742E+03 -0.69386210209E+02  0.34702215834E+02  0.22358008733E+03  0.17200000000E+03 0.  1.
</event>
<event>
 4    1  0.3190379E-002  0.2834367E+03  0.7818608E-02  0.1093827E+00
         -1   -1    0    0    0  501 -0.00000000000E+00  0.00000000000E+00  0.74206080319E+02  0.74206080319E+02  0.00000000000E+00 0.  1.
          1   -1    0    0  502    0  0.00000000000E+00 -0.00000000000E+00 -0.11693834454E+04  0.11693834454E+04  0.00000000000E+00 0. -1.
          6    1    1    2  502    0 -0.71692001318E+02 -0.21357107774E+03 -0.71696727253E+03  0.77095941409E+03  0.17200000000E+03 0.  1.
         -6    1    1    2    0  501  0.71692001318E+02  0.21357107774E+03 -0.37821009251E+03  0.47263011159E+03  0.17200000000E+03 0.  1.
</event>
<event>
 4    1  0.3190379E-002  0.2236663E+03  0.7818608E-02  0.1131179E+00
         -1   -1    0    0    0  501 -0.00000000000E+00  0.00000000000E+00  0.15896341256E+03  0.15896341256E+03  0.00000000000E+00 0.  1.
          1   -1    0    0  502    0  0.00000000000E+00 -0.00000000000E+00 -0.38956681762E+03  0.38956681762E+03  0.00000000000E+00 0. -1.
          6    1    1    2  502    0  0.20791617847E+02 -0.14145778300E+03 -0.23553077667E+03  0.32480970198E+03  0.17200000000E+03 0. -1.
         -6    1    1    2    0  501 -0.20791617847E+02  0.14145778300E+03  0.49273716160E+01  0.22372052819E+03  0.17200000000E+03 0.  1.
</event>
<event>
 4    1  0.3190379E-002  0.2165229E+03  0.7818608E-02  0.1136502E+00
         -1   -1    0    0    0  501 -0.00000000000E+00  0.00000000000E+00  0.24121811823E+03  0.24121811823E+03  0.00000000000E+00 0.  1.
          1   -1    0    0  502    0  0.00000000000E+00 -0.00000000000E+00 -0.20386678132E+03  0.20386678132E+03  0.00000000000E+00 0. -1.
          6    1    1    2  502    0  0.71158085761E+02  0.11061045443E+03 -0.29391858607E+02  0.21850864319E+03  0.17200000000E+03 0.  1.
         -6    1    1    2    0  501 -0.71158085761E+02 -0.11061045443E+03  0.66743195516E+02  0.22657625636E+03  0.17200000000E+03 0.  1.
</event>
<event>
 4    1  0.3190379E-002  0.2113010E+03  0.7818608E-02  0.1140540E+00
         -2   -1    0    0    0  501 -0.00000000000E+00  0.00000000000E+00  0.27113471997E+02  0.27113471997E+02  0.00000000000E+00 0.  1.
          2   -1    0    0  502    0  0.00000000000E+00 -0.00000000000E+00 -0.21235975779E+04  0.21235975779E+04  0.00000000000E+00 0. -1.
          6    1    1    2  502    0 -0.34712810715E+02 -0.11772483985E+03 -0.15578338464E+04  0.15720987279E+04  0.17200000000E+03 0. -1.
         -6    1    1    2    0  501  0.34712810715E+02  0.11772483985E+03 -0.53865025943E+03  0.57861232197E+03  0.17200000000E+03 0.  1.
</event>
<event>
 4    1  0.3190379E-002  0.1097449E+04  0.7818608E-02  0.9207682E-01
         -2   -1    0    0    0  501 -0.00000000000E+00  0.00000000000E+00  0.98405003720E+03  0.98405003720E+03  0.00000000000E+00 0.  1.
          2   -1    0    0  502    0  0.00000000000E+00 -0.00000000000E+00 -0.16779695760E+04  0.16779695760E+04  0.00000000000E+00 0. -1.
          6    1    1    2  502    0  0.51637714625E+03 -0.95297685359E+03 -0.10393372465E+04  0.15114946750E+04  0.17200000000E+03 0. -1.
         -6    1    1    2    0  501 -0.51637714625E+03  0.95297685359E+03  0.34541770768E+03  0.11505249382E+04  0.17200000000E+03 0.  1.
</event>
<event>
 4    1  0.3190379E-002  0.2948106E+03  0.7818608E-02  0.1087864E+00
         -1   -1    0    0    0  501 -0.00000000000E+00  0.00000000000E+00  0.38744684612E+03  0.38744684612E+03  0.00000000000E+00 0.  1.
          1   -1    0    0  502    0  0.00000000000E+00 -0.00000000000E+00 -0.32465496851E+03  0.32465496851E+03  0.00000000000E+00 0. -1.
          6    1    1    2  502    0  0.16488515635E+03  0.17361505155E+03 -0.16653805602E+03  0.33859743799E+03  0.17200000000E+03 0. -1.
         -6    1    1    2    0  501 -0.16488515635E+03 -0.17361505155E+03  0.22932993363E+03  0.37350437664E+03  0.17200000000E+03 0.  1.
</event>
<event>
 4    1  0.3190379E-002  0.2315260E+03  0.7818608E-02  0.1125570E+00
          2   -1    0    0  502    0  0.00000000000E+00  0.00000000000E+00  0.80366823405E+03  0.80366823405E+03  0.00000000000E+00 0. -1.
         -2   -1    0    0    0  501 -0.00000000000E+00 -0.00000000000E+00 -0.17856724081E+03  0.17856724081E+03  0.00000000000E+00 0.  1.
          6    1    1    2  502    0 -0.93988416851E+02  0.12323344648E+03  0.70127066457E+03  0.73850176020E+03  0.17200000000E+03 0. -1.
         -6    1    1    2    0  501  0.93988416851E+02 -0.12323344648E+03 -0.76169671335E+02  0.24373371466E+03  0.17200000000E+03 0.  1.
</event>
<event>
 4    1  0.3190379E-002  0.1835939E+03  0.7818608E-02  0.1164370E+00
         -1   -1    0    0    0  501 -0.00000000000E+00  0.00000000000E+00  0.10080511953E+03  0.10080511953E+03  0.00000000000E+00 0.  1.
          1   -1    0    0  502    0  0.00000000000E+00 -0.00000000000E+00 -0.33687374793E+03  0.33687374793E+03  0.00000000000E+00 0. -1.
          6    1    1    2  502    0  0.24452672792E+02  0.59369779856E+02 -0.13688208584E+03  0.22900526062E+03  0.17200000000E+03 0.  1.
         -6    1    1    2    0  501 -0.24452672792E+02 -0.59369779856E+02 -0.99186542562E+02  0.20867360684E+03  0.17200000000E+03 0.  1.
</event>
<event>
 4    1  0.3190379E-002  0.1892573E+03  0.7818608E-02  0.1159133E+00
          3   -1    0    0  502    0  0.00000000000E+00  0.00000000000E+00  0.22990822561E+03  0.22990822561E+03  0.00000000000E+00 0. -1.
         -3   -1    0    0    0  501 -0.00000000000E+00 -0.00000000000E+00 -0.16456013376E+03  0.16456013376E+03  0.00000000000E+00 0.  1.
          6    1    1    2  502    0 -0.42800203478E+02  0.66351180864E+02  0.78196151796E+02  0.20477542522E+03  0.17200000000E+03 0. -1.
         -6    1    1    2    0  501  0.42800203478E+02 -0.66351180864E+02 -0.12848059941E+02  0.18969293414E+03  0.17200000000E+03 0.  1.
</event>
<event>
 4    1  0.3190379E-002  0.2826868E+03  0.7818608E-02  0.1094230E+00
          1   -1    0    0  502    0  0.00000000000E+00  0.00000000000E+00  0.20184132591E+04  0.20184132591E+04  0.00000000000E+00 0. -1.
         -1   -1    0    0    0  501 -0.00000000000E+00 -0.00000000000E+00 -0.47176653297E+02  0.47176653297E+02  0.00000000000E+00 0.  1.
          6    1    1    2  502    0  0.17605236653E+03  0.13904455159E+03  0.13997470282E+04  0.14280068508E+04  0.17200000000E+03 0.  1.
         -6    1    1    2    0  501 -0.17605236653E+03 -0.13904455159E+03  0.57148957769E+03  0.63758306164E+03  0.17200000000E+03 0.  1.
</event>
<event>
 4    1  0.3190379E-002  0.4591122E+03  0.7818608E-02  0.1025039E+00
         -2   -1    0    0    0  501 -0.00000000000E+00  0.00000000000E+00  0.14980993806E+03  0.14980993806E+03  0.00000000000E+00 0.  1.
          2   -1    0    0  502    0  0.00000000000E+00 -0.00000000000E+00 -0.23600382285E+04  0.23600382285E+04  0.00000000000E+00 0. -1.
          6    1    1    2  502    0  0.61480751378E+02  0.42121270457E+03 -0.19025778059E+04  0.19571883744E+04  0.17200000000E+03 0. -1.
         -6    1    1    2    0  501 -0.61480751378E+02 -0.42121270457E+03 -0.30765048458E+03  0.55265979223E+03  0.17200000000E+03 0.  1.
</event>
<event>
 4    1  0.3190379E-002  0.3483635E+03  0.7818608E-02  0.1063289E+00
         -2   -1    0    0    0  501 -0.00000000000E+00  0.00000000000E+00  0.38029906101E+03  0.38029906101E+03  0.00000000000E+00 0.  1.
          2   -1    0    0  502    0  0.00000000000E+00 -0.00000000000E+00 -0.67615841943E+03  0.67615841943E+03  0.00000000000E+00 0. -1.
          6    1    1    2  502    0  0.30092672588E+03 -0.34874893152E+02 -0.53177962494E+03  0.63572535109E+03  0.17200000000E+03 0. -1.
         -6    1    1    2    0  501 -0.30092672588E+03  0.34874893152E+02  0.23592026652E+03  0.42073212936E+03  0.17200000000E+03 0.  1.
</event>
<event>
 4    1  0.3190379E-002  0.1860611E+03  0.7818608E-02  0.1162063E+00
          2   -1    0    0  502    0  0.00000000000E+00  0.00000000000E+00  0.16204591342E+04  0.16204591342E+04  0.00000000000E+00 0. -1.
         -2   -1    0    0    0  501 -0.00000000000E+00 -0.00000000000E+00 -0.21420539582E+02  0.21420539582E+02  0.00000000000E+00 0.  1.
          6    1    1    2  502    0  0.39595328220E+02 -0.58880620915E+02  0.84187316439E+03  0.86218857708E+03  0.17200000000E+03 0. -1.
         -6    1    1    2    0  501 -0.39595328220E+02  0.58880620915E+02  0.75716543026E+03  0.77969109673E+03  0.17200000000E+03 0.  1.
</event>
<event>
 4    1  0.3190379E-002  0.2010482E+03  0.7818608E-02  0.1148858E+00
          2   -1    0    0  502    0  0.00000000000E+00  0.00000000000E+00  0.19866042268E+04  0.19866042268E+04  0.00000000000E+00 0. -1.
         -2   -1    0    0    0  501 -0.00000000000E+00 -0.00000000000E+00 -0.35232906283E+02  0.35232906283E+02  0.00000000000E+00 0.  1.
          6    1    1    2  502    0  0.76844564866E+02  0.70223029032E+02  0.16327947489E+04  0.16451258472E+04  0.17200000000E+03 0. -1.
         -6    1    1    2    0  501 -0.76844564866E+02 -0.70223029032E+02  0.31857657159E+03  0.37671128590E+03  0.17200000000E+03 0.  1.
</event>
<event>
 4    1  0.3190379E-002  0.5273411E+03  0.7818608E-02  0.1006879E+00
         -2   -1    0    0    0  501 -0.00000000000E+00  0.00000000000E+00  0.21907676086E+03  0.21907676086E+03  0.00000000000E+00 0.  1.
          2   -1    0    0  502    0  0.00000000000E+00 -0.00000000000E+00 -0.17813036559E+04  0.17813036559E+04  0.00000000000E+00 0. -1.
          6    1    1    2  502    0  0.21912582959E+03 -0.44775942653E+03 -0.13173076034E+04  0.14189390244E+04  0.17200000000E+03 0. -1.
         -6    1    1    2    0  501 -0.21912582959E+03  0.44775942653E+03 -0.24491929165E+03  0.58144139229E+03  0.17200000000E+03 0.  1.
</event>
<event>
 4    1  0.3190379E-002  0.1895121E+03  0.7818608E-02  0.1158902E+00
         -2   -1    0    0    0  501 -0.00000000000E+00  0.00000000000E+00  0.25870218389E+02  0.25870218389E+02  0.00000000000E+00 0.  1.
          2   -1    0    0  502    0  0.00000000000E+00 -0.00000000000E+00 -0.17768527197E+04  0.17768527197E+04  0.00000000000E+00 0. -1.
          6    1    1    2  502    0 -0.69467662332E+02 -0.38795372692E+02 -0.12970084048E+04  0.13107805458E+04  0.17200000000E+03 0. -1.
         -6    1    1    2    0  501  0.69467662332E+02  0.38795372692E+02 -0.45397409647E+03  0.49194239227E+03  0.17200000000E+03 0.  1.
</event>
<event>
 4    1  0.3190379E-002  0.1784850E+03  0.7818608E-02  0.1169277E+00
         -3   -1    0    0    0  501 -0.00000000000E+00  0.00000000000E+00  0.76523937076E+03  0.76523937076E+03  0.00000000000E+00 0.  1.
          3   -1    0    0  502    0  0.00000000000E+00 -0.00000000000E+00 -0.89182429511E+02  0.89182429511E+02  0.00000000000E+00 0. -1.
          6    1    1    2  502    0  0.47628334481E+02  0.21097830802E+01  0.26075544329E+02  0.18037972015E+03  0.17200000000E+03 0. -1.
         -6    1    1    2    0  501 -0.47628334481E+02 -0.21097830802E+01  0.64998139692E+03  0.67404208012E+03  0.17200000000E+03 0.  1.
</event>
<event>
 4    1  0.3190379E-002  0.2288584E+03  0.7818608E-02  0.1127446E+00
          2   -1    0    0  502    0  0.00000000000E+00  0.00000000000E+00  0.14776519177E+03  0.14776519177E+03  0.00000000000E+00 0. -1.
         -2   -1    0    0    0  501 -0.00000000000E+00 -0.00000000000E+00 -0.35519847143E+03  0.35519847143E+03  0.00000000000E+00 0.  1.
          6    1    1    2  502    0 -0.44896168194E+02 -0.14414056610E+03 -0.11521905931E+03  0.25622568244E+03  0.17200000000E+03 0. -1.
         -6    1    1    2    0  501  0.44896168194E+02  0.14414056610E+03 -0.92214220352E+02  0.24673798076E+03  0.17200000000E+03 0.  1.
</event>
<event>
 4    1  0.3190379E-002  0.2137377E+03  0.7818608E-02  0.1138640E+00
          3   -1    0    0  502    0  0.00000000000E+00  0.00000000000E+00  0.79986480669E+03  0.79986480669E+03  0.00000000000E+00 0. -1.
         -3   -1    0    0    0  501 -0.00000000000E+00 -0.00000000000E+00 -0.59603326414E+02  0.59603326414E+02  0.00000000000E+00 0.  1.
          6    1    1    2  502    0  0.87415660458E+02 -0.91969143753E+02  0.45794561757E+03  0.50536918164E+03  0.17200000000E+03 0. -1.
         -6    1    1    2    0  501 -0.87415660458E+02  0.91969143753E+02  0.28231586270E+03  0.35409895147E+03  0.17200000000E+03 0.  1.
</event>
<event>
 4    1  0.3190379E-002  0.2067716E+03  0.7818608E-02  0.1144148E+00
         -3   -1    0    0    0  501 -0.00000000000E+00  0.00000000000E+00  0.91296855779E+03  0.91296855779E+03  0.00000000000E+00 0.  1.
          3   -1    0    0  502    0  0.00000000000E+00 -0.00000000000E+00 -0.51744664257E+02  0.51744664257E+02  0.00000000000E+00 0. -1.
          6    1    1    2  502    0  0.11462502465E+03 -0.56214592252E+01  0.57926494999E+03  0.61506290684E+03  0.17200000000E+03 0. -1.
         -6    1    1    2    0  501 -0.11462502465E+03  0.56214592252E+01  0.28195894354E+03  0.34965031520E+03  0.17200000000E+03 0. -1.
</event>
<event>
 4    1  0.3190379E-002  0.2359285E+03  0.7818608E-02  0.1122535E+00
         -2   -1    0    0    0  501 -0.00000000000E+00  0.00000000000E+00  0.36149702816E+03  0.36149702816E+03  0.00000000000E+00 0.  1.
          2   -1    0    0  502    0  0.00000000000E+00 -0.00000000000E+00 -0.27454210742E+03  0.27454210742E+03  0.00000000000E+00 0. -1.
          6    1    1    2  502    0 -0.88882055524E+02  0.13482670635E+03 -0.16726886825E+03  0.28920777103E+03  0.17200000000E+03 0. -1.
         -6    1    1    2    0  501  0.88882055524E+02 -0.13482670635E+03  0.25422378899E+03  0.34683136454E+03  0.17200000000E+03 0.  1.
</event>
<event>
 4    1  0.3190379E-002  0.1910680E+03  0.7818608E-02  0.1157502E+00
         -2   -1    0    0    0  501 -0.00000000000E+00  0.00000000000E+00  0.12081431159E+03  0.12081431159E+03  0.00000000000E+00 0.  1.
          2   -1    0    0  502    0  0.00000000000E+00 -0.00000000000E+00 -0.30967098397E+03  0.30967098397E+03  0.00000000000E+00 0. -1.
          6    1    1    2  502    0 -0.47124310971E+02 -0.68573064179E+02 -0.60938264349E+02  0.20055033751E+03  0.17200000000E+03 0.  1.
         -6    1    1    2    0  501  0.47124310971E+02  0.68573064179E+02 -0.12791840803E+03  0.22993495804E+03  0.17200000000E+03 0. -1.
</event>
<event>
 4    1  0.3190379E-002  0.2521199E+03  0.7818608E-02  0.1111972E+00
         -2   -1    0    0    0  501 -0.00000000000E+00  0.00000000000E+00  0.28438771442E+02  0.28438771442E+02  0.00000000000E+00 0.  1.
          2   -1    0    0  502    0  0.00000000000E+00 -0.00000000000E+00 -0.25445214664E+04  0.25445214664E+04  0.00000000000E+00 0. -1.
          6    1    1    2  502    0  0.18361033229E+03  0.16360591010E+02 -0.80944843071E+03  0.84780374206E+03  0.17200000000E+03 0.  1.
         -6    1    1    2    0  501 -0.18361033229E+03 -0.16360591010E+02 -0.17066342643E+04  0.17251564958E+04  0.17200000000E+03 0. -1.
</event>
<event>
 4    1  0.3190379E-002  0.1882079E+03  0.7818608E-02  0.1160088E+00
          2   -1    0    0  502    0  0.00000000000E+00  0.00000000000E+00  0.30642024902E+04  0.30642024902E+04  0.00000000000E+00 0. -1.
         -2   -1    0    0    0  501 -0.00000000000E+00 -0.00000000000E+00 -0.26270077497E+02  0.26270077497E+02  0.00000000000E+00 0.  1.
          6    1    1    2  502    0 -0.76383988977E+02 -0.19256554547E+01  0.26752688073E+04  0.26818809469E+04  0.17200000000E+03 0. -1.
         -6    1    1    2    0  501  0.76383988977E+02  0.19256554547E+01  0.36266360543E+03  0.40859162085E+03  0.17200000000E+03 0.  1.
</event>
<event>
 4    1  0.3190379E-002  0.2212740E+03  0.7818608E-02  0.1132937E+00
          2   -1    0    0  502    0  0.00000000000E+00  0.00000000000E+00  0.68460998276E+02  0.68460998276E+02  0.00000000000E+00 0. -1.
         -2   -1    0    0    0  501 -0.00000000000E+00 -0.00000000000E+00 -0.95689906552E+03  0.95689906552E+03  0.00000000000E+00 0.  1.
          6    1    1    2  502    0  0.64429252890E+02  0.12339792991E+03 -0.70189008437E+03  0.73594284308E+03  0.17200000000E+03 0.  1.
         -6    1    1    2    0  501 -0.64429252890E+02 -0.12339792991E+03 -0.18654798287E+03  0.28941722072E+03  0.17200000000E+03 0. -1.
</event>
<event>
 4    1  0.3190379E-002  0.2913770E+03  0.7818608E-02  0.1089632E+00
         -2   -1    0    0    0  501 -0.00000000000E+00  0.00000000000E+00  0.23271841244E+02  0.23271841244E+02  0.00000000000E+00 0.  1.
          2   -1    0    0  502    0  0.00000000000E+00 -0.00000000000E+00 -0.41891963762E+04  0.41891963762E+04  0.00000000000E+00 0. -1.
          6    1    1    2  502    0 -0.23267342972E+03 -0.34345828485E+02 -0.28398552866E+04  0.28547641951E+04  0.17200000000E+03 0. -1.
         -6    1    1    2    0  501  0.23267342972E+03  0.34345828485E+02 -0.13260692483E+04  0.13577040223E+04  0.17200000000E+03 0.  1.
</event>
<event>
 4    1  0.3190379E-002  0.1754325E+03  0.7818608E-02  0.1172298E+00
          1   -1    0    0  502    0  0.00000000000E+00  0.00000000000E+00  0.19587591342E+03  0.19587591342E+03  0.00000000000E+00 0. -1.
         -1   -1    0    0    0  501 -0.00000000000E+00 -0.00000000000E+00 -0.77594415382E+03  0.77594415382E+03  0.00000000000E+00 0.  1.
          6    1    1    2  502    0 -0.11169828251E+02  0.32677343942E+02 -0.72396771748E+03  0.74492001573E+03  0.17200000000E+03 0.  1.
         -6    1    1    2    0  501  0.11169828251E+02 -0.32677343942E+02  0.14389947709E+03  0.22690005151E+03  0.17200000000E+03 0. -1.
</event>
<event>
 4    1  0.3190379E-002  0.3285827E+03  0.7818608E-02  0.1071766E+00
          2   -1    0    0  502    0  0.00000000000E+00  0.00000000000E+00  0.11970271367E+04  0.11970271367E+04  0.00000000000E+00 0. -1.
         -2   -1    0    0    0  501 -0.00000000000E+00 -0.00000000000E+00 -0.93443714503E+02  0.93443714503E+02  0.00000000000E+00 0.  1.
          6    1    1    2  502    0  0.11061796474E+03  0.25718909159E+03  0.67209010215E+03  0.74811206939E+03  0.17200000000E+03 0. -1.
         -6    1    1    2    0  501 -0.11061796474E+03 -0.25718909159E+03  0.43149332001E+03  0.54235878178E+03  0.17200000000E+03 0.  1.
</event>
<event>
 4    1  0.3190379E-002  0.1746070E+03  0.7818608E-02  0.1173127E+00
         -2   -1    0    0    0  501 -0.00000000000E+00  0.00000000000E+00  0.27654144901E+02  0.27654144901E+02  0.00000000000E+00 0.  1.
          2   -1    0    0  502    0  0.00000000000E+00 -0.00000000000E+00 -0.23806377675E+04  0.23806377675E+04  0.00000000000E+00 0. -1.
          6    1    1    2  502    0 -0.26463220270E+02  0.14258923620E+02 -0.20588154508E+04  0.20662063497E+04  0.17200000000E+03 0. -1.
         -6    1    1    2    0  501  0.26463220270E+02 -0.14258923620E+02 -0.29416817174E+03  0.34208556268E+03  0.17200000000E+03 0.  1.
</event>
<event>
 4    1  0.3190379E-002  0.2056082E+03  0.7818608E-02  0.1145092E+00
         -2   -1    0    0    0  501 -0.00000000000E+00  0.00000000000E+00  0.73724745829E+03  0.73724745829E+03  0.00000000000E+00 0.  1.
          2   -1    0    0  502    0  0.00000000000E+00 -0.00000000000E+00 -0.59068638687E+02  0.59068638687E+02  0.00000000000E+00 0. -1.
          6    1    1    2  502    0  0.99319380423E+02  0.53163707949E+02  0.40717688327E+03  0.45614442170E+03  0.17200000000E+03 0. -1.
         -6    1    1    2    0  501 -0.99319380423E+02 -0.53163707949E+02  0.27100193633E+03  0.34017167528E+03  0.17200000000E+03 0.  1.
</event>
<event>
 4    1  0.3190379E-002  0.2223943E+03  0.7818608E-02  0.1132111E+00
         -3   -1    0    0    0  501 -0.00000000000E+00  0.00000000000E+00  0.42301460614E+02  0.42301460614E+02  0.00000000000E+00 0.  1.
          3   -1    0    0  502    0  0.00000000000E+00 -0.00000000000E+00 -0.17456185179E+04  0.17456185179E+04  0.00000000000E+00 0. -1.
          6    1    1    2  502    0 -0.10269749192E+03 -0.96583838288E+02 -0.13653582166E+04  0.13833518252E+04  0.17200000000E+03 0. -1.
         -6    1    1    2    0  501  0.10269749192E+03  0.96583838288E+02 -0.33795884063E+03  0.40456815325E+03  0.17200000000E+03 0.  1.
</event>
<event>
 4    1  0.3190379E-002  0.2457895E+03  0.7818608E-02  0.1115995E+00
         -1   -1    0    0    0  501 -0.00000000000E+00  0.00000000000E+00  0.91657003965E+02  0.91657003965E+02  0.00000000000E+00 0.  1.
          1   -1    0    0  502    0  0.00000000000E+00 -0.00000000000E+00 -0.84648323122E+03  0.84648323122E+03  0.00000000000E+00 0. -1.
          6    1    1    2  502    0  0.88208554879E+02 -0.15181482039E+03 -0.59810013082E+03  0.64663456088E+03  0.17200000000E+03 0. -1.
         -6    1    1    2    0  501 -0.88208554879E+02  0.15181482039E+03 -0.15672609644E+03  0.29150567430E+03  0.17200000000E+03 0.  1.
</event>
<event>
 4    1  0.3190379E-002  0.2794777E+03  0.7818608E-02  0.1095975E+00
          2   -1    0    0  502    0  0.00000000000E+00  0.00000000000E+00  0.11919082877E+04  0.11919082877E+04  0.00000000000E+00 0. -1.
         -2   -1    0    0    0  501 -0.00000000000E+00 -0.00000000000E+00 -0.10433306195E+03  0.10433306195E+03  0.00000000000E+00 0.  1.
          6    1    1    2  502    0 -0.14487569133E+03  0.16593613876E+03  0.93903446755E+03  0.97974154721E+03  0.17200000000E+03 0. -1.
         -6    1    1    2    0  501  0.14487569133E+03 -0.16593613876E+03  0.14854075816E+03  0.31649980240E+03  0.17200000000E+03 0.  1.
</event>
<event>
 4    1  0.3190379E-002  0.2005144E+03  0.7818608E-02  0.1149306E+00
         -2   -1    0    0    0  501 -0.00000000000E+00  0.00000000000E+00  0.23944989867E+02  0.23944989867E+02  0.00000000000E+00 0.  1.
          2   -1    0    0  502    0  0.00000000000E+00 -0.00000000000E+00 -0.18016296196E+04  0.18016296196E+04  0.00000000000E+00 0. -1.
          6    1    1    2  502    0  0.10213010798E+03 -0.13837174357E+02 -0.65079799042E+03  0.68098755546E+03  0.17200000000E+03 0.  1.
         -6    1    1    2    0  501 -0.10213010798E+03  0.13837174357E+02 -0.11268866393E+04  0.11445870540E+04  0.17200000000E+03 0. -1.
</event>
<event>
 4    1  0.3190379E-002  0.1753131E+03  0.7818608E-02  0.1172418E+00
         -2   -1    0    0    0  501 -0.00000000000E+00  0.00000000000E+00  0.79537227583E+01  0.79537227583E+01  0.00000000000E+00 0.  1.
          2   -1    0    0  502    0  0.00000000000E+00 -0.00000000000E+00 -0.39468575579E+04  0.39468575579E+04  0.00000000000E+00 0. -1.
          6    1    1    2  502    0 -0.30833897064E+02  0.14140304249E+02 -0.16832689935E+04  0.16923738304E+04  0.17200000000E+03 0.  1.
         -6    1    1    2    0  501  0.30833897064E+02 -0.14140304249E+02 -0.22556348417E+04  0.22624374503E+04  0.17200000000E+03 0. -1.
</event>
<event>
 4    1  0.3190379E-002  0.1976424E+03  0.7818608E-02  0.1151743E+00
          2   -1    0    0  502    0  0.00000000000E+00  0.00000000000E+00  0.11953482002E+04  0.11953482002E+04  0.00000000000E+00 0. -1.
         -2   -1    0    0    0  501 -0.00000000000E+00 -0.00000000000E+00 -0.33289330503E+02  0.33289330503E+02  0.00000000000E+00 0.  1.
          6    1    1    2  502    0 -0.94083991098E+02  0.25034652916E+02  0.66422476759E+03  0.69300582473E+03  0.17200000000E+03 0.  1.
         -6    1    1    2    0  501  0.94083991098E+02 -0.25034652916E+02  0.49783410214E+03  0.53563170601E+03  0.17200000000E+03 0.  1.
</event>
<event>
 4    1  0.3190379E-002  0.1827041E+03  0.7818608E-02  0.1165211E+00
          2   -1    0    0  502    0  0.00000000000E+00  0.00000000000E+00  0.16788454733E+03  0.16788454733E+03  0.00000000000E+00 0. -1.
         -2   -1    0    0    0  501 -0.00000000000E+00 -0.00000000000E+00 -0.32244929199E+03  0.32244929199E+03  0.00000000000E+00 0.  1.
          6    1    1    2  502    0  0.19432380879E+02 -0.58473534180E+02  0.74517455452E+02  0.19731604799E+03  0.17200000000E+03 0. -1.
         -6    1    1    2    0  501 -0.19432380879E+02  0.58473534180E+02 -0.22908220011E+03  0.29301779133E+03  0.17200000000E+03 0.  1.
</event>
<event>
 4    1  0.3190379E-002  0.3259349E+03  0.7818608E-02  0.1072950E+00
          1   -1    0    0  502    0  0.00000000000E+00  0.00000000000E+00  0.13065682213E+03  0.13065682213E+03  0.00000000000E+00 0. -1.
         -1   -1    0    0    0  501 -0.00000000000E+00 -0.00000000000E+00 -0.10209108971E+04  0.10209108971E+04  0.00000000000E+00 0.  1.
          6    1    1    2  502    0  0.26983772362E+03 -0.61944677094E+02 -0.18533377105E+03  0.37494285805E+03  0.17200000000E+03 0. -1.
         -6    1    1    2    0  501 -0.26983772362E+03  0.61944677094E+02 -0.70492030389E+03  0.77662486114E+03  0.17200000000E+03 0.  1.
</event>
<event>
 4    1  0.3190379E-002  0.2013386E+03  0.7818608E-02  0.1148614E+00
         -2   -1    0    0    0  501 -0.00000000000E+00  0.00000000000E+00  0.18430455191E+03  0.18430455191E+03  0.00000000000E+00 0.  1.
          2   -1    0    0  502    0  0.00000000000E+00 -0.00000000000E+00 -0.24269412071E+03  0.24269412071E+03  0.00000000000E+00 0. -1.
          6    1    1    2  502    0 -0.50586165900E+02 -0.91620357689E+02  0.36167804436E+02  0.20456138492E+03  0.17200000000E+03 0.  1.
         -6    1    1    2    0  501  0.50586165900E+02  0.91620357689E+02 -0.94557373236E+02  0.22243728769E+03  0.17200000000E+03 0. -1.
</event>
<event>
 4    1  0.3190379E-002  0.2340481E+03  0.7818608E-02  0.1123823E+00
         -2   -1    0    0    0  501 -0.00000000000E+00  0.00000000000E+00  0.14663728567E+03  0.14663728567E+03  0.00000000000E+00 0.  1.
          2   -1    0    0  502    0  0.00000000000E+00 -0.00000000000E+00 -0.48675961563E+03  0.48675961563E+03  0.00000000000E+00 0. -1.
          6    1    1    2  502    0  0.12089049945E+03  0.10285916434E+03 -0.17339011761E+02  0.23468950099E+03  0.17200000000E+03 0.  1.
         -6    1    1    2    0  501 -0.12089049945E+03 -0.10285916434E+03 -0.32278331820E+03  0.39870740030E+03  0.17200000000E+03 0. -1.
</event>
<event>
 4    1  0.3190379E-002  0.4452617E+03  0.7818608E-02  0.1029145E+00
          2   -1    0    0  502    0  0.00000000000E+00  0.00000000000E+00  0.16687425650E+04  0.16687425650E+04  0.00000000000E+00 0. -1.
         -2   -1    0    0    0  501 -0.00000000000E+00 -0.00000000000E+00 -0.26118468100E+03  0.26118468100E+03  0.00000000000E+00 0.  1.
          6    1    1    2  502    0  0.15705365216E+02  0.41039896610E+03  0.14162354345E+04  0.14845810102E+04  0.17200000000E+03 0. -1.
         -6    1    1    2    0  501 -0.15705365216E+02 -0.41039896610E+03 -0.86775505088E+01  0.44534623581E+03  0.17200000000E+03 0.  1.
</event>
<event>
 4    1  0.3190379E-002  0.2030214E+03  0.7818608E-02  0.1147215E+00
          2   -1    0    0  502    0  0.00000000000E+00  0.00000000000E+00  0.55914290699E+03  0.55914290699E+03  0.00000000000E+00 0. -1.
         -2   -1    0    0    0  501 -0.00000000000E+00 -0.00000000000E+00 -0.83820997729E+02  0.83820997729E+02  0.00000000000E+00 0.  1.
          6    1    1    2  502    0 -0.98080796921E+02 -0.44876040382E+02  0.34928332637E+03  0.40400067302E+03  0.17200000000E+03 0. -1.
         -6    1    1    2    0  501  0.98080796921E+02  0.44876040382E+02  0.12603858289E+03  0.23896323170E+03  0.17200000000E+03 0.  1.
</event>
<event>
 4    1  0.3190379E-002  0.2047312E+03  0.7818608E-02  0.1145808E+00
          1   -1    0    0  502    0  0.00000000000E+00  0.00000000000E+00  0.88345506383E+03  0.88345506383E+03  0.00000000000E+00 0. -1.
         -1   -1    0    0    0  501 -0.00000000000E+00 -0.00000000000E+00 -0.47727847586E+02  0.47727847586E+02  0.00000000000E+00 0.  1.
          6    1    1    2  502    0  0.95689379360E+02 -0.56341730220E+02  0.38197278949E+03  0.43337981010E+03  0.17200000000E+03 0.  1.
         -6    1    1    2    0  501 -0.95689379360E+02  0.56341730220E+02  0.45375442675E+03  0.49780310132E+03  0.17200000000E+03 0.  1.
</event>
<event>
 4    1  0.3190379E-002  0.2884196E+03  0.7818608E-02  0.1091177E+00
          2   -1    0    0  502    0  0.00000000000E+00  0.00000000000E+00  0.13485103251E+04  0.13485103251E+04  0.00000000000E+00 0. -1.
         -2   -1    0    0    0  501 -0.00000000000E+00 -0.00000000000E+00 -0.10700763914E+03  0.10700763914E+03  0.00000000000E+00 0.  1.
          6    1    1    2  502    0  0.19028272822E+03  0.13188763267E+03  0.10943681462E+04  0.11317364992E+04  0.17200000000E+03 0. -1.
         -6    1    1    2    0  501 -0.19028272822E+03 -0.13188763267E+03  0.14713453984E+03  0.32378146507E+03  0.17200000000E+03 0.  1.
</event>
<event>
 4    1  0.3190379E-002  0.4131276E+03  0.7818608E-02  0.1039327E+00
         -1   -1    0    0    0  501 -0.00000000000E+00  0.00000000000E+00  0.21960746576E+03  0.21960746576E+03  0.00000000000E+00 0.  1.
          1   -1    0    0  502    0  0.00000000000E+00 -0.00000000000E+00 -0.10400349695E+04  0.10400349695E+04  0.00000000000E+00 0. -1.
          6    1    1    2  502    0  0.35067770780E+03 -0.13459403965E+03 -0.72684360802E+03  0.83604786990E+03  0.17200000000E+03 0. -1.
         -6    1    1    2    0  501 -0.35067770780E+03  0.13459403965E+03 -0.93583895722E+02  0.42359456535E+03  0.17200000000E+03 0.  1.
</event>
<event>
 4    1  0.3190379E-002  0.2995554E+03  0.7818608E-02  0.1085463E+00
         -1   -1    0    0    0  501 -0.00000000000E+00  0.00000000000E+00  0.16369980694E+03  0.16369980694E+03  0.00000000000E+00 0.  1.
          1   -1    0    0  502    0  0.00000000000E+00 -0.00000000000E+00 -0.62437777168E+03  0.62437777168E+03  0.00000000000E+00 0. -1.
          6    1    1    2  502    0 -0.74439896362E+02 -0.23368387305E+03 -0.92666392816E+02  0.31356101647E+03  0.17200000000E+03 0. -1.
         -6    1    1    2    0  501  0.74439896362E+02  0.23368387305E+03 -0.36801157192E+03  0.47451656216E+03  0.17200000000E+03 0.  1.
</event>
<event>
 4    1  0.3190379E-002  0.1909707E+03  0.7818608E-02  0.1157589E+00
         -1   -1    0    0    0  501 -0.00000000000E+00  0.00000000000E+00  0.40692477161E+03  0.40692477161E+03  0.00000000000E+00 0.  1.
          1   -1    0    0  502    0  0.00000000000E+00 -0.00000000000E+00 -0.10555667732E+03  0.10555667732E+03  0.00000000000E+00 0. -1.
          6    1    1    2  502    0 -0.49599677261E+02 -0.66525781055E+02  0.51128907807E+02  0.19769666852E+03  0.17200000000E+03 0. -1.
         -6    1    1    2    0  501  0.49599677261E+02  0.66525781055E+02  0.25023918648E+03  0.31478478041E+03  0.17200000000E+03 0.  1.
</event>
<event>
 4    1  0.3190379E-002  0.2776543E+03  0.7818608E-02  0.1096977E+00
          1   -1    0    0  502    0  0.00000000000E+00  0.00000000000E+00  0.13520068584E+04  0.13520068584E+04  0.00000000000E+00 0. -1.
         -1   -1    0    0    0  501 -0.00000000000E+00 -0.00000000000E+00 -0.62965702941E+02  0.62965702941E+02  0.00000000000E+00 0.  1.
          6    1    1    2  502    0 -0.20094122633E+03  0.84442621438E+02  0.86191782747E+03  0.90553535219E+03  0.17200000000E+03 0. -1.
         -6    1    1    2    0  501  0.20094122633E+03 -0.84442621438E+02  0.42712332797E+03  0.50943720914E+03  0.17200000000E+03 0.  1.
</event>
<event>
 4    1  0.3190379E-002  0.1726702E+03  0.7818608E-02  0.1175091E+00
          1   -1    0    0  502    0  0.00000000000E+00  0.00000000000E+00  0.14978074087E+03  0.14978074087E+03  0.00000000000E+00 0. -1.
         -1   -1    0    0    0  501 -0.00000000000E+00 -0.00000000000E+00 -0.21759327169E+03  0.21759327169E+03  0.00000000000E+00 0.  1.
          6    1    1    2  502    0  0.37049062643E+01  0.14740498746E+02  0.19705336929E+02  0.17379099211E+03  0.17200000000E+03 0. -1.
         -6    1    1    2    0  501 -0.37049062643E+01 -0.14740498746E+02 -0.87517867744E+02  0.19358302045E+03  0.17200000000E+03 0.  1.
</event>
<event>
 4    1  0.3190379E-002  0.1760326E+03  0.7818608E-02  0.1171699E+00
          2   -1    0    0  502    0  0.00000000000E+00  0.00000000000E+00  0.16198067400E+04  0.16198067400E+04  0.00000000000E+00 0. -1.
         -2   -1    0    0    0  501 -0.00000000000E+00 -0.00000000000E+00 -0.20367438459E+02  0.20367438459E+02  0.00000000000E+00 0.  1.
          6    1    1    2  502    0  0.29161952467E+01  0.37349288260E+02  0.10018314878E+04  0.10171793369E+04  0.17200000000E+03 0. -1.
         -6    1    1    2    0  501 -0.29161952467E+01 -0.37349288260E+02  0.59760781375E+03  0.62299484154E+03  0.17200000000E+03 0.  1.
</event>
<event>
 4    1  0.3190379E-002  0.1981782E+03  0.7818608E-02  0.1151285E+00
          1   -1    0    0  502    0  0.00000000000E+00  0.00000000000E+00  0.18732248366E+04  0.18732248366E+04  0.00000000000E+00 0. -1.
         -1   -1    0    0    0  501 -0.00000000000E+00 -0.00000000000E+00 -0.70743556233E+02  0.70743556233E+02  0.00000000000E+00 0.  1.
          6    1    1    2  502    0  0.97091719687E+02  0.16242059056E+02  0.17165664822E+04  0.17279684876E+04  0.17200000000E+03 0. -1.
         -6    1    1    2    0  501 -0.97091719687E+02 -0.16242059056E+02  0.85914798249E+02  0.21599990526E+03  0.17200000000E+03 0.  1.
</event>
<event>
 4    1  0.3190379E-002  0.2176026E+03  0.7818608E-02  0.1135683E+00
         -2   -1    0    0    0  501 -0.00000000000E+00  0.00000000000E+00  0.13121859183E+03  0.13121859183E+03  0.00000000000E+00 0.  1.
          2   -1    0    0  502    0  0.00000000000E+00 -0.00000000000E+00 -0.36500879266E+03  0.36500879266E+03  0.00000000000E+00 0. -1.
          6    1    1    2  502    0  0.41656265890E+02 -0.12661621887E+03 -0.90427720445E+02  0.23564397721E+03  0.17200000000E+03 0. -1.
         -6    1    1    2    0  501 -0.41656265890E+02  0.12661621887E+03 -0.14336248038E+03  0.26058340728E+03  0.17200000000E+03 0.  1.
</event>
<event>
 4    1  0.3190379E-002  0.2639473E+03  0.7818608E-02  0.1104795E+00
          2   -1    0    0  502    0  0.00000000000E+00  0.00000000000E+00  0.35595968971E+03  0.35595968971E+03  0.00000000000E+00 0. -1.
         -2   -1    0    0    0  501 -0.00000000000E+00 -0.00000000000E+00 -0.19737970146E+03  0.19737970146E+03  0.00000000000E+00 0.  1.
          6    1    1    2  502    0 -0.65027552704E+02  0.18935569165E+03  0.10466607305E+03  0.28394215506E+03  0.17200000000E+03 0. -1.
         -6    1    1    2    0  501  0.65027552704E+02 -0.18935569165E+03  0.53913915194E+02  0.26939723611E+03  0.17200000000E+03 0.  1.
</event>
<event>
 4    1  0.3190379E-002  0.2063854E+03  0.7818608E-02  0.1144461E+00
          1   -1    0    0  502    0  0.00000000000E+00  0.00000000000E+00  0.19262944448E+03  0.19262944448E+03  0.00000000000E+00 0. -1.
         -1   -1    0    0    0  501 -0.00000000000E+00 -0.00000000000E+00 -0.31102203001E+03  0.31102203001E+03  0.00000000000E+00 0.  1.
          6    1    1    2  502    0  0.10275181624E+03  0.49527742220E+02 -0.19458435792E+03  0.28365120366E+03  0.17200000000E+03 0.  1.
         -6    1    1    2    0  501 -0.10275181624E+03 -0.49527742220E+02  0.76191772391E+02  0.22000027084E+03  0.17200000000E+03 0. -1.
</event>
<event>
 4    1  0.3190379E-002  0.2484038E+03  0.7818608E-02  0.1114318E+00
          2   -1    0    0  502    0  0.00000000000E+00  0.00000000000E+00  0.36059753008E+03  0.36059753008E+03  0.00000000000E+00 0. -1.
         -2   -1    0    0    0  501 -0.00000000000E+00 -0.00000000000E+00 -0.17233003442E+03  0.17233003442E+03  0.00000000000E+00 0.  1.
          6    1    1    2  502    0  0.90969330591E+01  0.17899069930E+03  0.71779197978E+02  0.25856658309E+03  0.17200000000E+03 0.  1.
         -6    1    1    2    0  501 -0.90969330591E+01 -0.17899069930E+03  0.11648829768E+03  0.27436098142E+03  0.17200000000E+03 0. -1.
</event>
<event>
 4    1  0.3190379E-002  0.1814079E+03  0.7818608E-02  0.1166447E+00
          4   -1    0    0  502    0  0.00000000000E+00  0.00000000000E+00  0.17777695578E+03  0.17777695578E+03  0.00000000000E+00 0. -1.
         -4   -1    0    0    0  501 -0.00000000000E+00 -0.00000000000E+00 -0.22459435299E+03  0.22459435299E+03  0.00000000000E+00 0.  1.
          6    1    1    2  502    0  0.55146361324E+02  0.16844003532E+02  0.60942860073E+02  0.19137103704E+03  0.17200000000E+03 0. -1.
         -6    1    1    2    0  501 -0.55146361324E+02 -0.16844003532E+02 -0.10776025729E+03  0.21100027174E+03  0.17200000000E+03 0.  1.
</event>
<event>
 4    1  0.3190379E-002  0.1930099E+03  0.7818608E-02  0.1155774E+00
         -1   -1    0    0    0  501 -0.00000000000E+00  0.00000000000E+00  0.61910673711E+02  0.61910673711E+02  0.00000000000E+00 0.  1.
          1   -1    0    0  502    0  0.00000000000E+00 -0.00000000000E+00 -0.60450747379E+03  0.60450747379E+03  0.00000000000E+00 0. -1.
          6    1    1    2  502    0  0.71877302695E+02  0.50024638120E+02 -0.24866647906E+03  0.31478219274E+03  0.17200000000E+03 0. -1.
         -6    1    1    2    0  501 -0.71877302695E+02 -0.50024638120E+02 -0.29393032102E+03  0.35163595476E+03  0.17200000000E+03 0. -1.
</event>
<event>
 4    1  0.3190379E-002  0.2680507E+03  0.7818608E-02  0.1102400E+00
          2   -1    0    0  502    0  0.00000000000E+00  0.00000000000E+00  0.34020161994E+04  0.34020161994E+04  0.00000000000E+00 0. -1.
         -2   -1    0    0    0  501 -0.00000000000E+00 -0.00000000000E+00 -0.14722764964E+03  0.14722764964E+03  0.00000000000E+00 0.  1.
          6    1    1    2  502    0 -0.10532821057E+03 -0.17655919796E+03  0.32698042164E+04  0.32807728961E+04  0.17200000000E+03 0. -1.
         -6    1    1    2    0  501  0.10532821057E+03  0.17655919796E+03 -0.15015666622E+02  0.26847095293E+03  0.17200000000E+03 0.  1.
</event>
<event>
 4    1  0.3190379E-002  0.1731689E+03  0.7818608E-02  0.1174583E+00
         -3   -1    0    0    0  501 -0.00000000000E+00  0.00000000000E+00  0.59727358729E+03  0.59727358729E+03  0.00000000000E+00 0.  1.
          3   -1    0    0  502    0  0.00000000000E+00 -0.00000000000E+00 -0.71647810661E+02  0.71647810661E+02  0.00000000000E+00 0. -1.
          6    1    1    2  502    0  0.20033471779E+02  0.14531749969E+01  0.79850460885E+02  0.19069228567E+03  0.17200000000E+03 0. -1.
         -6    1    1    2    0  501 -0.20033471779E+02 -0.14531749969E+01  0.44577531575E+03  0.47822911229E+03  0.17200000000E+03 0.  1.
</event>
<event>
 4    1  0.3190379E-002  0.1987517E+03  0.7818608E-02  0.1150797E+00
          1   -1    0    0  502    0  0.00000000000E+00  0.00000000000E+00  0.17241377479E+04  0.17241377479E+04  0.00000000000E+00 0. -1.
         -1   -1    0    0    0  501 -0.00000000000E+00 -0.00000000000E+00 -0.71452471522E+02  0.71452471522E+02  0.00000000000E+00 0.  1.
          6    1    1    2  502    0  0.28611637136E+02 -0.95391831293E+02  0.15663290761E+04  0.15788885337E+04  0.17200000000E+03 0. -1.
         -6    1    1    2    0  501 -0.28611637136E+02  0.95391831293E+02  0.86356200257E+02  0.21670168569E+03  0.17200000000E+03 0.  1.
</event>
<event>
 4    1  0.3190379E-002  0.1874980E+03  0.7818608E-02  0.1160738E+00
         -1   -1    0    0    0  501 -0.00000000000E+00  0.00000000000E+00  0.65671510775E+02  0.65671510775E+02  0.00000000000E+00 0.  1.
          1   -1    0    0  502    0  0.00000000000E+00 -0.00000000000E+00 -0.93837339077E+03  0.93837339077E+03  0.00000000000E+00 0. -1.
          6    1    1    2  502    0 -0.58118943979E+02 -0.46836833522E+02 -0.76536519960E+03  0.78799707447E+03  0.17200000000E+03 0. -1.
         -6    1    1    2    0  501  0.58118943979E+02  0.46836833522E+02 -0.10733668040E+03  0.21604782707E+03  0.17200000000E+03 0.  1.
</event>
<event>
 4    1  0.3190379E-002  0.1878754E+03  0.7818608E-02  0.1160392E+00
         -1   -1    0    0    0  501 -0.00000000000E+00  0.00000000000E+00  0.27899880052E+03  0.27899880052E+03  0.00000000000E+00 0.  1.
          1   -1    0    0  502    0  0.00000000000E+00 -0.00000000000E+00 -0.25978555939E+03  0.25978555939E+03  0.00000000000E+00 0. -1.
          6    1    1    2  502    0 -0.72368542943E+02  0.21816381402E+02 -0.18334426165E+03  0.26251148315E+03  0.17200000000E+03 0. -1.
         -6    1    1    2    0  501  0.72368542943E+02 -0.21816381402E+02  0.20255750278E+03  0.27627287677E+03  0.17200000000E+03 0.  1.
</event>
<event>
 4    1  0.3190379E-002  0.4415373E+03  0.7818608E-02  0.1030276E+00
          1   -1    0    0  502    0  0.00000000000E+00  0.00000000000E+00  0.79310697363E+03  0.79310697363E+03  0.00000000000E+00 0. -1.
         -1   -1    0    0    0  501 -0.00000000000E+00 -0.00000000000E+00 -0.29953009979E+03  0.29953009979E+03  0.00000000000E+00 0.  1.
          6    1    1    2  502    0 -0.21345876740E+03 -0.34613082691E+03  0.47814728151E+03  0.65083025247E+03  0.17200000000E+03 0. -1.
         -6    1    1    2    0  501  0.21345876740E+03  0.34613082691E+03  0.15429592332E+02  0.44180682095E+03  0.17200000000E+03 0.  1.
</event>
<event>
 4    1  0.3190379E-002  0.1930016E+03  0.7818608E-02  0.1155782E+00
          1   -1    0    0  502    0  0.00000000000E+00  0.00000000000E+00  0.55873232734E+03  0.55873232734E+03  0.00000000000E+00 0. -1.
         -1   -1    0    0    0  501 -0.00000000000E+00 -0.00000000000E+00 -0.11078366893E+03  0.11078366893E+03  0.00000000000E+00 0.  1.
          6    1    1    2  502    0  0.80119587626E+02 -0.35305330557E+02  0.43522062517E+03  0.47609516618E+03  0.17200000000E+03 0. -1.
         -6    1    1    2    0  501 -0.80119587626E+02  0.35305330557E+02  0.12728033244E+02  0.19342083010E+03  0.17200000000E+03 0.  1.
</event>
<event>
 4    1  0.3190379E-002  0.4529920E+03  0.7818608E-02  0.1026834E+00
         -1   -1    0    0    0  501 -0.00000000000E+00  0.00000000000E+00  0.16136195399E+03  0.16136195399E+03  0.00000000000E+00 0.  1.
          1   -1    0    0  502    0  0.00000000000E+00 -0.00000000000E+00 -0.23134208291E+04  0.23134208291E+04  0.00000000000E+00 0. -1.
          6    1    1    2  502    0  0.29880137184E+03 -0.29382902354E+03 -0.19063739882E+04  0.19594549083E+04  0.17200000000E+03 0. -1.
         -6    1    1    2    0  501 -0.29880137184E+03  0.29382902354E+03 -0.24568488699E+03  0.51532787484E+03  0.17200000000E+03 0.  1.
</event>
<event>
 4    1  0.3190379E-002  0.1771831E+03  0.7818608E-02  0.1170557E+00
         -1   -1    0    0    0  501 -0.00000000000E+00  0.00000000000E+00  0.29108431029E+03  0.29108431029E+03  0.00000000000E+00 0.  1.
          1   -1    0    0  502    0  0.00000000000E+00 -0.00000000000E+00 -0.11136924242E+03  0.11136924242E+03  0.00000000000E+00 0. -1.
          6    1    1    2  502    0  0.17333904847E+02  0.38851023743E+02  0.54094203816E+02  0.18525671159E+03  0.17200000000E+03 0.  1.
         -6    1    1    2    0  501 -0.17333904847E+02 -0.38851023743E+02  0.12562086406E+03  0.21719684111E+03  0.17200000000E+03 0.  1.
</event>
<event>
 4    1  0.3190379E-002  0.2617445E+03  0.7818608E-02  0.1106100E+00
          1   -1    0    0  502    0  0.00000000000E+00  0.00000000000E+00  0.14886466795E+04  0.14886466795E+04  0.00000000000E+00 0. -1.
         -1   -1    0    0    0  501 -0.00000000000E+00 -0.00000000000E+00 -0.59215729611E+02  0.59215729611E+02  0.00000000000E+00 0.  1.
          6    1    1    2  502    0  0.18057433130E+03  0.79492805993E+02  0.10800333691E+04  0.11112975630E+04  0.17200000000E+03 0. -1.
         -6    1    1    2    0  501 -0.18057433130E+03 -0.79492805993E+02  0.34939758079E+03  0.43656484603E+03  0.17200000000E+03 0.  1.
</event>
<event>
 4    1  0.3190379E-002  0.2180381E+03  0.7818608E-02  0.1135354E+00
         -2   -1    0    0    0  501 -0.00000000000E+00  0.00000000000E+00  0.88638367053E+02  0.88638367053E+02  0.00000000000E+00 0.  1.
          2   -1    0    0  502    0  0.00000000000E+00 -0.00000000000E+00 -0.87326712621E+03  0.87326712621E+03  0.00000000000E+00 0. -1.
          6    1    1    2  502    0  0.13397496173E+03  0.27062374975E+01 -0.69105520147E+03  0.72463639542E+03  0.17200000000E+03 0. -1.
         -6    1    1    2    0  501 -0.13397496173E+03 -0.27062374975E+01 -0.93573557689E+02  0.23726909784E+03  0.17200000000E+03 0. -1.
</event>
<event>
 4    1  0.3190379E-002  0.4915897E+03  0.7818608E-02  0.1015998E+00
         -1   -1    0    0    0  501 -0.00000000000E+00  0.00000000000E+00  0.72097119109E+03  0.72097119109E+03  0.00000000000E+00 0.  1.
          1   -1    0    0  502    0  0.00000000000E+00 -0.00000000000E+00 -0.11783469831E+04  0.11783469831E+04  0.00000000000E+00 0. -1.
          6    1    1    2  502    0  0.28179935684E+03  0.36423285321E+03 -0.10320031708E+04  0.11431058540E+04  0.17200000000E+03 0. -1.
         -6    1    1    2    0  501 -0.28179935684E+03 -0.36423285321E+03  0.57462737875E+03  0.75621232024E+03  0.17200000000E+03 0.  1.
</event>
<event>
 4    1  0.3190379E-002  0.2189503E+03  0.7818608E-02  0.1134668E+00
          2   -1    0    0  502    0  0.00000000000E+00  0.00000000000E+00  0.97288018112E+02  0.97288018112E+02  0.00000000000E+00 0. -1.
         -2   -1    0    0    0  501 -0.00000000000E+00 -0.00000000000E+00 -0.71032938500E+03  0.71032938500E+03  0.00000000000E+00 0.  1.
          6    1    1    2  502    0 -0.87927693691E+01  0.13519578818E+03 -0.83035320419E+02  0.23416677470E+03  0.17200000000E+03 0. -1.
         -6    1    1    2    0  501  0.87927693691E+01 -0.13519578818E+03 -0.53000604646E+03  0.57345062841E+03  0.17200000000E+03 0.  1.
</event>
<event>
 4    1  0.3190379E-002  0.1721531E+03  0.7818608E-02  0.1175621E+00
          2   -1    0    0  502    0  0.00000000000E+00  0.00000000000E+00  0.19221757781E+02  0.19221757781E+02  0.00000000000E+00 0. -1.
         -2   -1    0    0    0  501 -0.00000000000E+00 -0.00000000000E+00 -0.16425282940E+04  0.16425282940E+04  0.00000000000E+00 0.  1.
          6    1    1    2  502    0  0.19650052316E+01  0.69869990134E+01 -0.60592654273E+03  0.62990765560E+03  0.17200000000E+03 0. -1.
         -6    1    1    2    0  501 -0.19650052316E+01 -0.69869990134E+01 -0.10173799935E+04  0.10318423962E+04  0.17200000000E+03 0.  1.
</event>
<event>
 4    1  0.3190379E-002  0.3904186E+03  0.7818608E-02  0.1047149E+00
         -1   -1    0    0    0  501 -0.00000000000E+00  0.00000000000E+00  0.11592688031E+03  0.11592688031E+03  0.00000000000E+00 0.  1.
          1   -1    0    0  502    0  0.00000000000E+00 -0.00000000000E+00 -0.23767322993E+04  0.23767322993E+04  0.00000000000E+00 0. -1.
          6    1    1    2  502    0  0.28397803265E+03  0.20542425262E+03 -0.19634710517E+04  0.20019103920E+04  0.17200000000E+03 0. -1.
         -6    1    1    2    0  501 -0.28397803265E+03 -0.20542425262E+03 -0.29733436724E+03  0.49074878761E+03  0.17200000000E+03 0.  1.
</event>
<event>
 4    1  0.3190379E-002  0.2829978E+03  0.7818608E-02  0.1094063E+00
         -2   -1    0    0    0  501 -0.00000000000E+00  0.00000000000E+00  0.16978723756E+03  0.16978723756E+03  0.00000000000E+00 0.  1.
          2   -1    0    0  502    0  0.00000000000E+00 -0.00000000000E+00 -0.14343800066E+04  0.14343800066E+04  0.00000000000E+00 0. -1.
          6    1    1    2  502    0  0.18106434300E+03 -0.13311452602E+03 -0.12893936568E+04  0.13200847608E+04  0.17200000000E+03 0. -1.
         -6    1    1    2    0  501 -0.18106434300E+03  0.13311452602E+03  0.24800887773E+02  0.28408248341E+03  0.17200000000E+03 0.  1.
</event>
<event>
 4    1  0.3190379E-002  0.2245094E+03  0.7818608E-02  0.1130565E+00
          2   -1    0    0  502    0  0.00000000000E+00  0.00000000000E+00  0.96687017329E+03  0.96687017329E+03  0.00000000000E+00 0. -1.
         -2   -1    0    0    0  501 -0.00000000000E+00 -0.00000000000E+00 -0.60242969820E+02  0.60242969820E+02  0.00000000000E+00 0.  1.
          6    1    1    2  502    0 -0.17820277012E+02  0.14318838137E+03  0.64175772630E+03  0.67989517876E+03  0.17200000000E+03 0. -1.
         -6    1    1    2    0  501  0.17820277012E+02 -0.14318838137E+03  0.26486947716E+03  0.34721796434E+03  0.17200000000E+03 0.  1.
</event>
<event>
 4    1  0.3190379E-002  0.2374981E+03  0.7818608E-02  0.1121471E+00
         -2   -1    0    0    0  501 -0.00000000000E+00  0.00000000000E+00  0.12304303310E+03  0.12304303310E+03  0.00000000000E+00 0.  1.
          2   -1    0    0  502    0  0.00000000000E+00 -0.00000000000E+00 -0.12012475033E+04  0.12012475033E+04  0.00000000000E+00 0. -1.
          6    1    1    2  502    0  0.77178050023E+02  0.14444683151E+03 -0.10597945096E+04  0.10860799884E+04  0.17200000000E+03 0. -1.
         -6    1    1    2    0  501 -0.77178050023E+02 -0.14444683151E+03 -0.18409960578E+02  0.23821054802E+03  0.17200000000E+03 0.  1.
</event>
<event>
 4    1  0.3190379E-002  0.2060397E+03  0.7818608E-02  0.1144741E+00
          2   -1    0    0  502    0  0.00000000000E+00  0.00000000000E+00  0.11912746085E+04  0.11912746085E+04  0.00000000000E+00 0. -1.
         -2   -1    0    0    0  501 -0.00000000000E+00 -0.00000000000E+00 -0.56162145162E+02  0.56162145162E+02  0.00000000000E+00 0.  1.
          6    1    1    2  502    0 -0.10711585461E+03 -0.37343700168E+02  0.94462411142E+03  0.96683352761E+03  0.17200000000E+03 0. -1.
         -6    1    1    2    0  501  0.10711585461E+03  0.37343700168E+02  0.19048835192E+03  0.28060322604E+03  0.17200000000E+03 0.  1.
</event>
<event>
 4    1  0.3190379E-002  0.2268220E+03  0.7818608E-02  0.1128897E+00
          1   -1    0    0  502    0  0.00000000000E+00  0.00000000000E+00  0.37450147041E+04  0.37450147041E+04  0.00000000000E+00 0. -1.
         -1   -1    0    0    0  501 -0.00000000000E+00 -0.00000000000E+00 -0.18068456129E+02  0.18068456129E+02  0.00000000000E+00 0.  1.
          6    1    1    2  502    0 -0.13846885798E+03 -0.51870769159E+02  0.94232181523E+03  0.96923609341E+03  0.17200000000E+03 0. -1.
         -6    1    1    2    0  501  0.13846885798E+03  0.51870769159E+02  0.27846244328E+04  0.27938470668E+04  0.17200000000E+03 0.  1.
</event>
<event>
 4    1  0.3190379E-002  0.2105426E+03  0.7818608E-02  0.1141137E+00
         -1   -1    0    0    0  501 -0.00000000000E+00  0.00000000000E+00  0.35583118666E+02  0.35583118666E+02  0.00000000000E+00 0.  1.
          1   -1    0    0  502    0  0.00000000000E+00 -0.00000000000E+00 -0.14010452742E+04  0.14010452742E+04  0.00000000000E+00 0. -1.
          6    1    1    2  502    0  0.11300843618E+03  0.44421658502E+02 -0.92186822142E+03  0.94560520729E+03  0.17200000000E+03 0. -1.
         -6    1    1    2    0  501 -0.11300843618E+03 -0.44421658502E+02 -0.44359393413E+03  0.49102318559E+03  0.17200000000E+03 0.  1.
</event>
<event>
 4    1  0.3190379E-002  0.1944761E+03  0.7818608E-02  0.1154485E+00
         -2   -1    0    0    0  501 -0.00000000000E+00  0.00000000000E+00  0.23270289804E+02  0.23270289804E+02  0.00000000000E+00 0.  1.
          2   -1    0    0  502    0  0.00000000000E+00 -0.00000000000E+00 -0.16892293383E+04  0.16892293383E+04  0.00000000000E+00 0. -1.
          6    1    1    2  502    0 -0.84277124228E+02 -0.33679818577E+02 -0.66639254653E+03  0.69419016841E+03  0.17200000000E+03 0. -1.
         -6    1    1    2    0  501  0.84277124228E+02  0.33679818577E+02 -0.99956650194E+03  0.10183094597E+04  0.17200000000E+03 0. -1.
</event>
<event>
 4    1  0.3190379E-002  0.2262014E+03  0.7818608E-02  0.1129342E+00
         -2   -1    0    0    0  501 -0.00000000000E+00  0.00000000000E+00  0.13412861368E+03  0.13412861368E+03  0.00000000000E+00 0.  1.
          2   -1    0    0  502    0  0.00000000000E+00 -0.00000000000E+00 -0.11179170121E+04  0.11179170121E+04  0.00000000000E+00 0. -1.
          6    1    1    2  502    0 -0.12847068758E+03 -0.71262550368E+02 -0.99999967227E+03  0.10252640700E+04  0.17200000000E+03 0. -1.
         -6    1    1    2    0  501  0.12847068758E+03  0.71262550368E+02  0.16211273855E+02  0.22678155580E+03  0.17200000000E+03 0.  1.
</event>
<event>
 4    1  0.3190379E-002  0.3107113E+03  0.7818608E-02  0.1080005E+00
         -1   -1    0    0    0  501 -0.00000000000E+00  0.00000000000E+00  0.25759921415E+03  0.25759921415E+03  0.00000000000E+00 0.  1.
          1   -1    0    0  502    0  0.00000000000E+00 -0.00000000000E+00 -0.46045661525E+03  0.46045661525E+03  0.00000000000E+00 0. -1.
          6    1    1    2  502    0  0.25308259330E+03  0.53913735343E+02 -0.25630329972E+03  0.40278141881E+03  0.17200000000E+03 0. -1.
         -6    1    1    2    0  501 -0.25308259330E+03 -0.53913735343E+02  0.53445898613E+02  0.31527441059E+03  0.17200000000E+03 0.  1.
</event>
<event>
 4    1  0.3190379E-002  0.2181859E+03  0.7818608E-02  0.1135243E+00
         -2   -1    0    0    0  501 -0.00000000000E+00  0.00000000000E+00  0.30294873084E+02  0.30294873084E+02  0.00000000000E+00 0.  1.
          2   -1    0    0  502    0  0.00000000000E+00 -0.00000000000E+00 -0.22306676014E+04  0.22306676014E+04  0.00000000000E+00 0. -1.
          6    1    1    2  502    0  0.10717696780E+03  0.80834342387E+02 -0.17147682188E+04  0.17285933986E+04  0.17200000000E+03 0. -1.
         -6    1    1    2    0  501 -0.10717696780E+03 -0.80834342387E+02 -0.48560450949E+03  0.53236907590E+03  0.17200000000E+03 0.  1.
</event>
<event>
 4    1  0.3190379E-002  0.2456042E+03  0.7818608E-02  0.1116115E+00
         -1   -1    0    0    0  501 -0.00000000000E+00  0.00000000000E+00  0.50508312912E+02  0.50508312912E+02  0.00000000000E+00 0.  1.
          1   -1    0    0  502    0  0.00000000000E+00 -0.00000000000E+00 -0.11944339691E+04  0.11944339691E+04  0.00000000000E+00 0. -1.
          6    1    1    2  502    0  0.54335006865E+02 -0.16668875875E+03 -0.56506442980E+03  0.61613248988E+03  0.17200000000E+03 0. -1.
         -6    1    1    2    0  501 -0.54335006865E+02  0.16668875875E+03 -0.57886122640E+03  0.62880979214E+03  0.17200000000E+03 0. -1.
</event>
<event>
 4    1  0.3190379E-002  0.4033746E+03  0.7818608E-02  0.1042617E+00
          2   -1    0    0  502    0  0.00000000000E+00  0.00000000000E+00  0.11343986196E+04  0.11343986196E+04  0.00000000000E+00 0. -1.
         -2   -1    0    0    0  501 -0.00000000000E+00 -0.00000000000E+00 -0.15509940508E+03  0.15509940508E+03  0.00000000000E+00 0.  1.
          6    1    1    2  502    0 -0.86265026912E+02 -0.35452135000E+03  0.66647322668E+03  0.77903633057E+03  0.17200000000E+03 0. -1.
         -6    1    1    2    0  501  0.86265026912E+02  0.35452135000E+03  0.31282598780E+03  0.51046169407E+03  0.17200000000E+03 0. -1.
</event>
<event>
 4    1  0.3190379E-002  0.1729600E+03  0.7818608E-02  0.1174796E+00
          2   -1    0    0  502    0  0.00000000000E+00  0.00000000000E+00  0.49858424191E+03  0.49858424191E+03  0.00000000000E+00 0. -1.
         -2   -1    0    0    0  501 -0.00000000000E+00 -0.00000000000E+00 -0.61270582890E+02  0.61270582890E+02  0.00000000000E+00 0.  1.
          6    1    1    2  502    0  0.45285808512E+01 -0.17625408788E+02  0.25896412954E+03  0.31141224040E+03  0.17200000000E+03 0. -1.
         -6    1    1    2    0  501 -0.45285808512E+01  0.17625408788E+02  0.17834952948E+03  0.24844258440E+03  0.17200000000E+03 0.  1.
</event>
<event>
 4    1  0.3190379E-002  0.2635421E+03  0.7818608E-02  0.1105034E+00
          1   -1    0    0  502    0  0.00000000000E+00  0.00000000000E+00  0.16523575797E+04  0.16523575797E+04  0.00000000000E+00 0. -1.
         -1   -1    0    0    0  501 -0.00000000000E+00 -0.00000000000E+00 -0.14176651351E+03  0.14176651351E+03  0.00000000000E+00 0.  1.
          6    1    1    2  502    0  0.18335661896E+03  0.79062044502E+02  0.15077063199E+04  0.15305661710E+04  0.17200000000E+03 0. -1.
         -6    1    1    2    0  501 -0.18335661896E+03 -0.79062044502E+02  0.28847462468E+01  0.26355792221E+03  0.17200000000E+03 0.  1.
</event>
<event>
 4    1  0.3190379E-002  0.2089482E+03  0.7818608E-02  0.1142402E+00
         -2   -1    0    0    0  501 -0.00000000000E+00  0.00000000000E+00  0.14164099659E+03  0.14164099659E+03  0.00000000000E+00 0.  1.
          2   -1    0    0  502    0  0.00000000000E+00 -0.00000000000E+00 -0.34975506927E+03  0.34975506927E+03  0.00000000000E+00 0. -1.
          6    1    1    2  502    0 -0.55675703421E+02 -0.10476431144E+03 -0.18870672329E+03  0.28154852569E+03  0.17200000000E+03 0. -1.
         -6    1    1    2    0  501  0.55675703421E+02  0.10476431144E+03 -0.19407349393E+02  0.20984754017E+03  0.17200000000E+03 0.  1.
</event>
<event>
 4    1  0.3190379E-002  0.1924497E+03  0.7818608E-02  0.1156270E+00
         -1   -1    0    0    0  501 -0.00000000000E+00  0.00000000000E+00  0.15860757414E+03  0.15860757414E+03  0.00000000000E+00 0.  1.
          1   -1    0    0  502    0  0.00000000000E+00 -0.00000000000E+00 -0.23795373079E+03  0.23795373079E+03  0.00000000000E+00 0. -1.
          6    1    1    2  502    0  0.19051659696E+02  0.84201735130E+02 -0.12585428280E+02  0.19286080717E+03  0.17200000000E+03 0. -1.
         -6    1    1    2    0  501 -0.19051659696E+02 -0.84201735130E+02 -0.66760728375E+02  0.20370049776E+03  0.17200000000E+03 0.  1.
</event>
<event>
 4    1  0.3190379E-002  0.5980116E+03  0.7818608E-02  0.9909540E-01
          2   -1    0    0  502    0  0.00000000000E+00  0.00000000000E+00  0.20866136344E+04  0.20866136344E+04  0.00000000000E+00 0. -1.
         -2   -1    0    0    0  501 -0.00000000000E+00 -0.00000000000E+00 -0.18609842424E+03  0.18609842424E+03  0.00000000000E+00 0.  1.
          6    1    1    2  502    0  0.24840952060E+03 -0.51606834557E+03  0.12697605346E+04  0.14035346959E+04  0.17200000000E+03 0. -1.
         -6    1    1    2    0  501 -0.24840952060E+03  0.51606834557E+03  0.63075467549E+03  0.86917736273E+03  0.17200000000E+03 0.  1.
</event>
<event>
 4    1  0.3190379E-002  0.1771848E+03  0.7818608E-02  0.1170556E+00
         -4   -1    0    0    0  501 -0.00000000000E+00  0.00000000000E+00  0.78450416164E+03  0.78450416164E+03  0.00000000000E+00 0.  1.
          4   -1    0    0  502    0  0.00000000000E+00 -0.00000000000E+00 -0.41575064381E+02  0.41575064381E+02  0.00000000000E+00 0. -1.
          6    1    1    2  502    0 -0.22902303176E+02 -0.35860066907E+02  0.29153674395E+03  0.34115705029E+03  0.17200000000E+03 0. -1.
         -6    1    1    2    0  501  0.22902303176E+02  0.35860066907E+02  0.45139235331E+03  0.48492217573E+03  0.17200000000E+03 0.  1.
</event>
<event>
 4    1  0.3190379E-002  0.1956158E+03  0.7818608E-02  0.1153492E+00
         -2   -1    0    0    0  501 -0.00000000000E+00  0.00000000000E+00  0.16208852190E+03  0.16208852190E+03  0.00000000000E+00 0.  1.
          2   -1    0    0  502    0  0.00000000000E+00 -0.00000000000E+00 -0.14073040259E+04  0.14073040259E+04  0.00000000000E+00 0. -1.
          6    1    1    2  502    0  0.41998152294E+02  0.83172629520E+02 -0.13384675704E+04  0.13526865743E+04  0.17200000000E+03 0. -1.
         -6    1    1    2    0  501 -0.41998152294E+02 -0.83172629520E+02  0.93252066384E+02  0.21670597357E+03  0.17200000000E+03 0.  1.
</event>
<event>
 4    1  0.3190379E-002  0.3193867E+03  0.7818608E-02  0.1075932E+00
         -1   -1    0    0    0  501 -0.00000000000E+00  0.00000000000E+00  0.15987511095E+03  0.15987511095E+03  0.00000000000E+00 0.  1.
          1   -1    0    0  502    0  0.00000000000E+00 -0.00000000000E+00 -0.76095886743E+03  0.76095886743E+03  0.00000000000E+00 0. -1.
          6    1    1    2  502    0 -0.12142540441E+03  0.24016606962E+03 -0.48558258225E+03  0.58120419305E+03  0.17200000000E+03 0. -1.
         -6    1    1    2    0  501  0.12142540441E+03 -0.24016606962E+03 -0.11550117424E+03  0.33962978533E+03  0.17200000000E+03 0.  1.
</event>
<event>
 4    1  0.3190379E-002  0.2713381E+03  0.7818608E-02  0.1100516E+00
         -1   -1    0    0    0  501 -0.00000000000E+00  0.00000000000E+00  0.12939072289E+03  0.12939072289E+03  0.00000000000E+00 0.  1.
          1   -1    0    0  502    0  0.00000000000E+00 -0.00000000000E+00 -0.57126525594E+03  0.57126525594E+03  0.00000000000E+00 0. -1.
          6    1    1    2  502    0 -0.18956588483E+03  0.90028549481E+02 -0.24295843754E+03  0.36421582446E+03  0.17200000000E+03 0.  1.
         -6    1    1    2    0  501  0.18956588483E+03 -0.90028549481E+02 -0.19891609551E+03  0.33644015436E+03  0.17200000000E+03 0.  1.
</event>
<event>
 4    1  0.3190379E-002  0.3673910E+03  0.7818608E-02  0.1055695E+00
         -2   -1    0    0    0  501 -0.00000000000E+00  0.00000000000E+00  0.29002586804E+03  0.29002586804E+03  0.00000000000E+00 0.  1.
          2   -1    0    0  502    0  0.00000000000E+00 -0.00000000000E+00 -0.67787617865E+03  0.67787617865E+03  0.00000000000E+00 0. -1.
          6    1    1    2  502    0 -0.16853921350E+03 -0.27746476826E+03 -0.46487440723E+03  0.59252373675E+03  0.17200000000E+03 0. -1.
         -6    1    1    2    0  501  0.16853921350E+03  0.27746476826E+03  0.77024096611E+02  0.37537830994E+03  0.17200000000E+03 0.  1.
</event>
<event>
 4    1  0.3190379E-002  0.5379917E+03  0.7818608E-02  0.1004312E+00
          1   -1    0    0  502    0  0.00000000000E+00  0.00000000000E+00  0.37409455435E+04  0.37409455435E+04  0.00000000000E+00 0. -1.
         -1   -1    0    0    0  501 -0.00000000000E+00 -0.00000000000E+00 -0.94859754204E+02  0.94859754204E+02  0.00000000000E+00 0.  1.
          6    1    1    2  502    0  0.42072516587E+03  0.28782179710E+03  0.26465810695E+04  0.27007085014E+04  0.17200000000E+03 0. -1.
         -6    1    1    2    0  501 -0.42072516587E+03 -0.28782179710E+03  0.99950471975E+03  0.11350967963E+04  0.17200000000E+03 0.  1.
</event>
<event>
 4    1  0.3190379E-002  0.2023904E+03  0.7818608E-02  0.1147738E+00
         -1   -1    0    0    0  501 -0.00000000000E+00  0.00000000000E+00  0.49832259242E+02  0.49832259242E+02  0.00000000000E+00 0.  1.
          1   -1    0    0  502    0  0.00000000000E+00 -0.00000000000E+00 -0.21537359594E+04  0.21537359594E+04  0.00000000000E+00 0. -1.
          6    1    1    2  502    0 -0.35590129280E+02 -0.10055453132E+03 -0.19183352911E+04  0.19289821565E+04  0.17200000000E+03 0. -1.
         -6    1    1    2    0  501  0.35590129280E+02  0.10055453132E+03 -0.18556840903E+03  0.27458606210E+03  0.17200000000E+03 0.  1.
</event>
<event>
 4    1  0.3190379E-002  0.1829493E+03  0.7818608E-02  0.1164979E+00
         -1   -1    0    0    0  501 -0.00000000000E+00  0.00000000000E+00  0.11697654211E+02  0.11697654211E+02  0.00000000000E+00 0.  1.
          1   -1    0    0  502    0  0.00000000000E+00 -0.00000000000E+00 -0.29200860168E+04  0.29200860168E+04  0.00000000000E+00 0. -1.
          6    1    1    2  502    0  0.45675474076E+02  0.42428594919E+02 -0.16621931296E+04  0.16722309752E+04  0.17200000000E+03 0. -1.
         -6    1    1    2    0  501 -0.45675474076E+02 -0.42428594919E+02 -0.12461952330E+04  0.12595526957E+04  0.17200000000E+03 0.  1.
</event>
<event>
 4    1  0.3190379E-002  0.2939525E+03  0.7818608E-02  0.1088303E+00
          1   -1    0    0  502    0  0.00000000000E+00  0.00000000000E+00  0.44689089581E+03  0.44689089581E+03  0.00000000000E+00 0. -1.
         -1   -1    0    0    0  501 -0.00000000000E+00 -0.00000000000E+00 -0.19356849469E+03  0.19356849469E+03  0.00000000000E+00 0.  1.
          6    1    1    2  502    0  0.17817530780E+03 -0.15835923940E+03  0.13732404670E+03  0.32444719573E+03  0.17200000000E+03 0. -1.
         -6    1    1    2    0  501 -0.17817530780E+03  0.15835923940E+03  0.11599835442E+03  0.31601219477E+03  0.17200000000E+03 0.  1.
</event>
<event>
 4    1  0.3190379E-002  0.6288119E+03  0.7818608E-02  0.9847370E-01
          2   -1    0    0  502    0  0.00000000000E+00  0.00000000000E+00  0.49385236308E+03  0.49385236308E+03  0.00000000000E+00 0. -1.
         -2   -1    0    0    0  501 -0.00000000000E+00 -0.00000000000E+00 -0.17047721908E+04  0.17047721908E+04  0.00000000000E+00 0.  1.
          6    1    1    2  502    0  0.56000444980E+03  0.22850702925E+03  0.19511266698E+03  0.65838696754E+03  0.17200000000E+03 0. -1.
         -6    1    1    2    0  501 -0.56000444980E+03 -0.22850702925E+03 -0.14060324947E+04  0.15402375864E+04  0.17200000000E+03 0.  1.
</event>
<event>
 4    1  0.3190379E-002  0.2175866E+03  0.7818608E-02  0.1135695E+00
         -2   -1    0    0    0  501 -0.00000000000E+00  0.00000000000E+00  0.41331567180E+02  0.41331567180E+02  0.00000000000E+00 0.  1.
          2   -1    0    0  502    0  0.00000000000E+00 -0.00000000000E+00 -0.11668745759E+04  0.11668745759E+04  0.00000000000E+00 0. -1.
          6    1    1    2  502    0 -0.13316935601E+03  0.50832775953E+01 -0.64459722909E+03  0.68033043798E+03  0.17200000000E+03 0. -1.
         -6    1    1    2    0  501  0.13316935601E+03 -0.50832775953E+01 -0.48094577961E+03  0.52787570508E+03  0.17200000000E+03 0. -1.
</event>
<event>
 4    1  0.3190379E-002  0.1960422E+03  0.7818608E-02  0.1153122E+00
         -2   -1    0    0    0  501 -0.00000000000E+00  0.00000000000E+00  0.10056080021E+03  0.10056080021E+03  0.00000000000E+00 0.  1.
          2   -1    0    0  502    0  0.00000000000E+00 -0.00000000000E+00 -0.38724985329E+03  0.38724985329E+03  0.00000000000E+00 0. -1.
          6    1    1    2  502    0 -0.49087833035E+02 -0.80242843577E+02 -0.11544241888E+03  0.22750710181E+03  0.17200000000E+03 0. -1.
         -6    1    1    2    0  501  0.49087833035E+02  0.80242843577E+02 -0.17124663420E+03  0.26030355169E+03  0.17200000000E+03 0.  1.
</event>
<event>
 4    1  0.3190379E-002  0.2211526E+03  0.7818608E-02  0.1133027E+00
          2   -1    0    0  502    0  0.00000000000E+00  0.00000000000E+00  0.15598186311E+03  0.15598186311E+03  0.00000000000E+00 0. -1.
         -2   -1    0    0    0  501 -0.00000000000E+00 -0.00000000000E+00 -0.38816327343E+03  0.38816327343E+03  0.00000000000E+00 0.  1.
          6    1    1    2  502    0 -0.12983117789E+03 -0.49682446510E+02  0.31923443397E+01  0.22117565713E+03  0.17200000000E+03 0. -1.
         -6    1    1    2    0  501  0.12983117789E+03  0.49682446510E+02 -0.23537375466E+03  0.32296947941E+03  0.17200000000E+03 0.  1.
</event>
<event>
 4    1  0.3190379E-002  0.2374516E+03  0.7818608E-02  0.1121502E+00
         -1   -1    0    0    0  501 -0.00000000000E+00  0.00000000000E+00  0.17917172339E+03  0.17917172339E+03  0.00000000000E+00 0.  1.
          1   -1    0    0  502    0  0.00000000000E+00 -0.00000000000E+00 -0.35375029010E+03  0.35375029010E+03  0.00000000000E+00 0. -1.
          6    1    1    2  502    0 -0.60080496353E+02 -0.15228128333E+03  0.12553261109E+01  0.23745490338E+03  0.17200000000E+03 0.  1.
         -6    1    1    2    0  501  0.60080496353E+02  0.15228128333E+03 -0.17583389282E+03  0.29546711012E+03  0.17200000000E+03 0. -1.
</event>
<event>
 4    1  0.3190379E-002  0.2601765E+03  0.7818608E-02  0.1107037E+00
          2   -1    0    0  502    0  0.00000000000E+00  0.00000000000E+00  0.22265083066E+03  0.22265083066E+03  0.00000000000E+00 0. -1.
         -2   -1    0    0    0  501 -0.00000000000E+00 -0.00000000000E+00 -0.30405571946E+03  0.30405571946E+03  0.00000000000E+00 0.  1.
          6    1    1    2  502    0  0.95341111504E+01 -0.19497923271E+03 -0.38130269793E+02  0.26295573380E+03  0.17200000000E+03 0.  1.
         -6    1    1    2    0  501 -0.95341111504E+01  0.19497923271E+03 -0.43274619010E+02  0.26375081633E+03  0.17200000000E+03 0.  1.
</event>
<event>
 4    1  0.3190379E-002  0.2135087E+03  0.7818608E-02  0.1138817E+00
         -2   -1    0    0    0  501 -0.00000000000E+00  0.00000000000E+00  0.59521033070E+02  0.59521033070E+02  0.00000000000E+00 0.  1.
          2   -1    0    0  502    0  0.00000000000E+00 -0.00000000000E+00 -0.77687899723E+03  0.77687899723E+03  0.00000000000E+00 0. -1.
          6    1    1    2  502    0 -0.47871502019E+02 -0.11709084063E+03 -0.40844026592E+03  0.46087893908E+03  0.17200000000E+03 0. -1.
         -6    1    1    2    0  501  0.47871502019E+02  0.11709084063E+03 -0.30891769824E+03  0.37552109122E+03  0.17200000000E+03 0.  1.
</event>
<event>
 4    1  0.3190379E-002  0.1864782E+03  0.7818608E-02  0.1161677E+00
         -2   -1    0    0    0  501 -0.00000000000E+00  0.00000000000E+00  0.12339577425E+03  0.12339577425E+03  0.00000000000E+00 0.  1.
          2   -1    0    0  502    0  0.00000000000E+00 -0.00000000000E+00 -0.39258005820E+03  0.39258005820E+03  0.00000000000E+00 0. -1.
          6    1    1    2  502    0 -0.67535333933E+02  0.25082038730E+02 -0.27163202073E+03  0.32948153921E+03  0.17200000000E+03 0. -1.
         -6    1    1    2    0  501  0.67535333933E+02 -0.25082038730E+02  0.24477367844E+01  0.18649429324E+03  0.17200000000E+03 0.  1.
</event>
<event>
 4    1  0.3190379E-002  0.1784123E+03  0.7818608E-02  0.1169349E+00
          2   -1    0    0  502    0  0.00000000000E+00  0.00000000000E+00  0.49918580755E+03  0.49918580755E+03  0.00000000000E+00 0. -1.
         -2   -1    0    0    0  501 -0.00000000000E+00 -0.00000000000E+00 -0.70856055411E+02  0.70856055411E+02  0.00000000000E+00 0.  1.
          6    1    1    2  502    0 -0.43333782568E+02 -0.19212576734E+02  0.30432651965E+03  0.35276843734E+03  0.17200000000E+03 0. -1.
         -6    1    1    2    0  501  0.43333782568E+02  0.19212576734E+02  0.12400323249E+03  0.21727342563E+03  0.17200000000E+03 0.  1.
</event>
<event>
 4    1  0.3190379E-002  0.2054786E+03  0.7818608E-02  0.1145197E+00
         -3   -1    0    0    0  501 -0.00000000000E+00  0.00000000000E+00  0.96472901735E+03  0.96472901735E+03  0.00000000000E+00 0.  1.
          3   -1    0    0  502    0  0.00000000000E+00 -0.00000000000E+00 -0.57023537616E+02  0.57023537616E+02  0.00000000000E+00 0. -1.
          6    1    1    2  502    0  0.49310637116E+02  0.10102436916E+03  0.20751280052E+03  0.29203257434E+03  0.17200000000E+03 0. -1.
         -6    1    1    2    0  501 -0.49310637116E+02 -0.10102436916E+03  0.70019267921E+03  0.72971998062E+03  0.17200000000E+03 0.  1.
</event>
<event>
 4    1  0.3190379E-002  0.5803485E+03  0.7818608E-02  0.9947037E-01
          2   -1    0    0  502    0  0.00000000000E+00  0.00000000000E+00  0.43416690588E+03  0.43416690588E+03  0.00000000000E+00 0. -1.
         -2   -1    0    0    0  501 -0.00000000000E+00 -0.00000000000E+00 -0.86623193575E+03  0.86623193575E+03  0.00000000000E+00 0.  1.
          6    1    1    2  502    0  0.46495985321E+03  0.30171633493E+03 -0.58901819108E+01  0.58037841630E+03  0.17200000000E+03 0. -1.
         -6    1    1    2    0  501 -0.46495985321E+03 -0.30171633493E+03 -0.42617484796E+03  0.72002042533E+03  0.17200000000E+03 0.  1.
</event>
<event>
 4    1  0.3190379E-002  0.1884054E+03  0.7818608E-02  0.1159907E+00
          1   -1    0    0  502    0  0.00000000000E+00  0.00000000000E+00  0.22043308006E+03  0.22043308006E+03  0.00000000000E+00 0. -1.
         -1   -1    0    0    0  501 -0.00000000000E+00 -0.00000000000E+00 -0.19140356975E+03  0.19140356975E+03  0.00000000000E+00 0.  1.
          6    1    1    2  502    0  0.41305615425E+02 -0.64857124725E+02  0.96542243441E+02  0.21170027223E+03  0.17200000000E+03 0. -1.
         -6    1    1    2    0  501 -0.41305615425E+02  0.64857124725E+02 -0.67512733130E+02  0.20013637757E+03  0.17200000000E+03 0.  1.
</event>
<event>
 4    1  0.3190379E-002  0.2098475E+03  0.7818608E-02  0.1141687E+00
         -1   -1    0    0    0  501 -0.00000000000E+00  0.00000000000E+00  0.62217470704E+03  0.62217470704E+03  0.00000000000E+00 0.  1.
          1   -1    0    0  502    0  0.00000000000E+00 -0.00000000000E+00 -0.71113925073E+02  0.71113925073E+02  0.00000000000E+00 0. -1.
          6    1    1    2  502    0 -0.99831064056E+02 -0.66975719758E+02  0.25168896654E+03  0.32769394908E+03  0.17200000000E+03 0. -1.
         -6    1    1    2    0  501  0.99831064056E+02  0.66975719758E+02  0.29937181542E+03  0.36559468303E+03  0.17200000000E+03 0.  1.
</event>
<event>
 4    1  0.3190379E-002  0.2955264E+03  0.7818608E-02  0.1087499E+00
          2   -1    0    0  502    0  0.00000000000E+00  0.00000000000E+00  0.13892477932E+04  0.13892477932E+04  0.00000000000E+00 0. -1.
         -2   -1    0    0    0  501 -0.00000000000E+00 -0.00000000000E+00 -0.66944948363E+02  0.66944948363E+02  0.00000000000E+00 0.  1.
          6    1    1    2  502    0 -0.14038117687E+03 -0.19505114440E+03  0.84088454882E+03  0.89130390339E+03  0.17200000000E+03 0. -1.
         -6    1    1    2    0  501  0.14038117687E+03  0.19505114440E+03  0.48141829598E+03  0.56488883814E+03  0.17200000000E+03 0.  1.
</event>
<event>
 4    1  0.3190379E-002  0.5538963E+03  0.7818608E-02  0.1000596E+00
         -2   -1    0    0    0  501 -0.00000000000E+00  0.00000000000E+00  0.19123613090E+03  0.19123613090E+03  0.00000000000E+00 0.  1.
          2   -1    0    0  502    0  0.00000000000E+00 -0.00000000000E+00 -0.17394892136E+04  0.17394892136E+04  0.00000000000E+00 0. -1.
          6    1    1    2  502    0 -0.38820161755E+03  0.35569180899E+03 -0.10432440585E+04  0.11811686266E+04  0.17200000000E+03 0. -1.
         -6    1    1    2    0  501  0.38820161755E+03 -0.35569180899E+03 -0.50500902424E+03  0.74955671794E+03  0.17200000000E+03 0. -1.
</event>
<event>
 4    1  0.3190379E-002  0.1735991E+03  0.7818608E-02  0.1174146E+00
          2   -1    0    0  502    0  0.00000000000E+00  0.00000000000E+00  0.74149982406E+03  0.74149982406E+03  0.00000000000E+00 0. -1.
         -2   -1    0    0    0  501 -0.00000000000E+00 -0.00000000000E+00 -0.79099916231E+02  0.79099916231E+02  0.00000000000E+00 0.  1.
          6    1    1    2  502    0 -0.11115853306E+02 -0.20714376073E+02  0.61728923351E+03  0.64123524964E+03  0.17200000000E+03 0. -1.
         -6    1    1    2    0  501  0.11115853306E+02  0.20714376073E+02  0.45110674322E+02  0.17936449066E+03  0.17200000000E+03 0.  1.
</event>
<event>
 4    1  0.3190379E-002  0.2107468E+03  0.7818608E-02  0.1140976E+00
          1   -1    0    0  502    0  0.00000000000E+00  0.00000000000E+00  0.91641557574E+02  0.91641557574E+02  0.00000000000E+00 0. -1.
         -1   -1    0    0    0  501 -0.00000000000E+00 -0.00000000000E+00 -0.57443209598E+03  0.57443209598E+03  0.00000000000E+00 0.  1.
          6    1    1    2  502    0  0.12168617051E+03 -0.47612239155E+01 -0.10973194597E+03  0.23760322665E+03  0.17200000000E+03 0. -1.
         -6    1    1    2    0  501 -0.12168617051E+03  0.47612239155E+01 -0.37305859243E+03  0.42847042690E+03  0.17200000000E+03 0. -1.
</event>
<event>
 4    1  0.3190379E-002  0.1768734E+03  0.7818608E-02  0.1170864E+00
          3   -1    0    0  502    0  0.00000000000E+00  0.00000000000E+00  0.41794200164E+03  0.41794200164E+03  0.00000000000E+00 0. -1.
         -3   -1    0    0    0  501 -0.00000000000E+00 -0.00000000000E+00 -0.10661323877E+03  0.10661323877E+03  0.00000000000E+00 0.  1.
          6    1    1    2  502    0  0.27413787597E+02 -0.30800669922E+02  0.29881650704E+03  0.34723983339E+03  0.17200000000E+03 0. -1.
         -6    1    1    2    0  501 -0.27413787597E+02  0.30800669922E+02  0.12512255835E+02  0.17731540701E+03  0.17200000000E+03 0.  1.
</event>
<event>
 4    1  0.3190379E-002  0.5475371E+03  0.7818608E-02  0.1002066E+00
          2   -1    0    0  502    0  0.00000000000E+00  0.00000000000E+00  0.61060917355E+03  0.61060917355E+03  0.00000000000E+00 0. -1.
         -2   -1    0    0    0  501 -0.00000000000E+00 -0.00000000000E+00 -0.28743810302E+04  0.28743810302E+04  0.00000000000E+00 0.  1.
          6    1    1    2  502    0  0.21352605421E+02 -0.51938125947E+03  0.45482556702E+03  0.71180272749E+03  0.17200000000E+03 0. -1.
         -6    1    1    2    0  501 -0.21352605421E+02  0.51938125947E+03 -0.27185974237E+04  0.27731874763E+04  0.17200000000E+03 0.  1.
</event>
<event>
 4    1  0.3190379E-002  0.2047209E+03  0.7818608E-02  0.1145816E+00
          2   -1    0    0  502    0  0.00000000000E+00  0.00000000000E+00  0.51810819851E+03  0.51810819851E+03  0.00000000000E+00 0. -1.
         -2   -1    0    0    0  501 -0.00000000000E+00 -0.00000000000E+00 -0.16588386552E+03  0.16588386552E+03  0.00000000000E+00 0.  1.
          6    1    1    2  502    0 -0.99754578516E+02 -0.48740747151E+02  0.42091053719E+03  0.46805589056E+03  0.17200000000E+03 0. -1.
         -6    1    1    2    0  501  0.99754578516E+02  0.48740747151E+02 -0.68686204205E+02  0.21593617348E+03  0.17200000000E+03 0.  1.
</event>
<event>
 4    1  0.3190379E-002  0.2595108E+03  0.7818608E-02  0.1107437E+00
         -2   -1    0    0    0  501 -0.00000000000E+00  0.00000000000E+00  0.25736000275E+02  0.25736000275E+02  0.00000000000E+00 0.  1.
          2   -1    0    0  502    0  0.00000000000E+00 -0.00000000000E+00 -0.38488943632E+04  0.38488943632E+04  0.00000000000E+00 0. -1.
          6    1    1    2  502    0 -0.55630046982E+02  0.18619121205E+03 -0.30076911716E+04  0.30188660211E+04  0.17200000000E+03 0. -1.
         -6    1    1    2    0  501  0.55630046982E+02 -0.18619121205E+03 -0.81546719131E+03  0.85576434237E+03  0.17200000000E+03 0.  1.
</event>
<event>
 4    1  0.3190379E-002  0.1969820E+03  0.7818608E-02  0.1152311E+00
         -1   -1    0    0    0  501 -0.00000000000E+00  0.00000000000E+00  0.77127406044E+02  0.77127406044E+02  0.00000000000E+00 0.  1.
          1   -1    0    0  502    0  0.00000000000E+00 -0.00000000000E+00 -0.51186416949E+03  0.51186416949E+03  0.00000000000E+00 0. -1.
          6    1    1    2  502    0  0.57454506495E+02 -0.76921242619E+02 -0.17880757910E+03  0.26603392308E+03  0.17200000000E+03 0. -1.
         -6    1    1    2    0  501 -0.57454506495E+02  0.76921242619E+02 -0.25592918434E+03  0.32295765245E+03  0.17200000000E+03 0. -1.
</event>
<event>
 4    1  0.3190379E-002  0.2952603E+03  0.7818608E-02  0.1087634E+00
         -2   -1    0    0    0  501 -0.00000000000E+00  0.00000000000E+00  0.37239055190E+03  0.37239055190E+03  0.00000000000E+00 0.  1.
          2   -1    0    0  502    0  0.00000000000E+00 -0.00000000000E+00 -0.14729980621E+04  0.14729980621E+04  0.00000000000E+00 0. -1.
          6    1    1    2  502    0  0.18737853877E+03 -0.14994635150E+03 -0.13965048836E+04  0.14273767951E+04  0.17200000000E+03 0. -1.
         -6    1    1    2    0  501 -0.18737853877E+03  0.14994635150E+03  0.29589737345E+03  0.41801181890E+03  0.17200000000E+03 0.  1.
</event>
<event>
 4    1  0.3190379E-002  0.3260829E+03  0.7818608E-02  0.1072883E+00
         -2   -1    0    0    0  501 -0.00000000000E+00  0.00000000000E+00  0.80083951030E+02  0.80083951030E+02  0.00000000000E+00 0.  1.
          2   -1    0    0  502    0  0.00000000000E+00 -0.00000000000E+00 -0.15124719715E+04  0.15124719715E+04  0.00000000000E+00 0. -1.
          6    1    1    2  502    0 -0.20189852336E+03  0.18969191680E+03 -0.43790165266E+03  0.54597426169E+03  0.17200000000E+03 0.  1.
         -6    1    1    2    0  501  0.20189852336E+03 -0.18969191680E+03 -0.99448636785E+03  0.10465816609E+04  0.17200000000E+03 0. -1.
</event>
<event>
 4    1  0.3190379E-002  0.1996743E+03  0.7818608E-02  0.1150014E+00
         -2   -1    0    0    0  501 -0.00000000000E+00  0.00000000000E+00  0.40686180361E+02  0.40686180361E+02  0.00000000000E+00 0.  1.
          2   -1    0    0  502    0  0.00000000000E+00 -0.00000000000E+00 -0.98356988172E+03  0.98356988172E+03  0.00000000000E+00 0. -1.
          6    1    1    2  502    0  0.59892022523E+02 -0.81846099266E+02 -0.50257210310E+03  0.54078513029E+03  0.17200000000E+03 0. -1.
         -6    1    1    2    0  501 -0.59892022523E+02  0.81846099266E+02 -0.44031159826E+03  0.48347093179E+03  0.17200000000E+03 0. -1.
</event>
<event>
 4    1  0.3190379E-002  0.2799092E+03  0.7818608E-02  0.1095739E+00
          2   -1    0    0  502    0  0.00000000000E+00  0.00000000000E+00  0.15810509187E+04  0.15810509187E+04  0.00000000000E+00 0. -1.
         -2   -1    0    0    0  501 -0.00000000000E+00 -0.00000000000E+00 -0.59938015656E+02  0.59938015656E+02  0.00000000000E+00 0.  1.
          6    1    1    2  502    0 -0.18781533732E+03 -0.11614883694E+03  0.11020511110E+04  0.11370425693E+04  0.17200000000E+03 0. -1.
         -6    1    1    2    0  501  0.18781533732E+03  0.11614883694E+03  0.41906179208E+03  0.50394636504E+03  0.17200000000E+03 0.  1.
</event>
<event>
 4    1  0.3190379E-002  0.2868674E+03  0.7818608E-02  0.1091996E+00
         -2   -1    0    0    0  501 -0.00000000000E+00  0.00000000000E+00  0.24251985704E+03  0.24251985704E+03  0.00000000000E+00 0.  1.
          2   -1    0    0  502    0  0.00000000000E+00 -0.00000000000E+00 -0.43774818852E+03  0.43774818852E+03  0.00000000000E+00 0. -1.
          6    1    1    2  502    0  0.11502689995E+03  0.19868999682E+03 -0.25889692980E+03  0.38642013768E+03  0.17200000000E+03 0. -1.
         -6    1    1    2    0  501 -0.11502689995E+03 -0.19868999682E+03  0.63668598316E+02  0.29384790787E+03  0.17200000000E+03 0.  1.
</event>
<event>
 4    1  0.3190379E-002  0.1927960E+03  0.7818608E-02  0.1155963E+00
          2   -1    0    0  502    0  0.00000000000E+00  0.00000000000E+00  0.24876819446E+03  0.24876819446E+03  0.00000000000E+00 0. -1.
         -2   -1    0    0    0  501 -0.00000000000E+00 -0.00000000000E+00 -0.20020479608E+03  0.20020479608E+03  0.00000000000E+00 0.  1.
          6    1    1    2  502    0  0.76873884247E+02  0.40947609872E+02  0.13734740169E+03  0.23671630612E+03  0.17200000000E+03 0. -1.
         -6    1    1    2    0  501 -0.76873884247E+02 -0.40947609872E+02 -0.88784003313E+02  0.21225668441E+03  0.17200000000E+03 0.  1.
</event>
<event>
 4    1  0.3190379E-002  0.1966505E+03  0.7818608E-02  0.1152596E+00
          2   -1    0    0  502    0  0.00000000000E+00  0.00000000000E+00  0.13074006375E+04  0.13074006375E+04  0.00000000000E+00 0. -1.
         -2   -1    0    0    0  501 -0.00000000000E+00 -0.00000000000E+00 -0.32032294116E+02  0.32032294116E+02  0.00000000000E+00 0.  1.
          6    1    1    2  502    0  0.94963217827E+02 -0.83312152933E+01  0.45233781412E+03  0.49323515687E+03  0.17200000000E+03 0.  1.
         -6    1    1    2    0  501 -0.94963217827E+02  0.83312152933E+01  0.82303052927E+03  0.84619777475E+03  0.17200000000E+03 0. -1.
</event>
<event>
 4    1  0.3190379E-002  0.2015575E+03  0.7818608E-02  0.1148432E+00
         -2   -1    0    0    0  501 -0.00000000000E+00  0.00000000000E+00  0.84248821135E+02  0.84248821135E+02  0.00000000000E+00 0.  1.
          2   -1    0    0  502    0  0.00000000000E+00 -0.00000000000E+00 -0.48281895928E+03  0.48281895928E+03  0.00000000000E+00 0. -1.
          6    1    1    2  502    0 -0.10421923590E+03 -0.13407529626E+02 -0.20937543363E+03  0.29062601947E+03  0.17200000000E+03 0. -1.
         -6    1    1    2    0  501  0.10421923590E+03  0.13407529626E+02 -0.18919470451E+03  0.27644176095E+03  0.17200000000E+03 0. -1.
</event>
<event>
 4    1  0.3190379E-002  0.1949086E+03  0.7818608E-02  0.1154107E+00
         -1   -1    0    0    0  501 -0.00000000000E+00  0.00000000000E+00  0.26617610872E+03  0.26617610872E+03  0.00000000000E+00 0.  1.
          1   -1    0    0  502    0  0.00000000000E+00 -0.00000000000E+00 -0.14766421625E+03  0.14766421625E+03  0.00000000000E+00 0. -1.
          6    1    1    2  502    0  0.70365066200E+02  0.58771681865E+02  0.21403098488E+02  0.19608020235E+03  0.17200000000E+03 0. -1.
         -6    1    1    2    0  501 -0.70365066200E+02 -0.58771681865E+02  0.97108793987E+02  0.21776012261E+03  0.17200000000E+03 0.  1.
</event>
<event>
 4    1  0.3190379E-002  0.1965373E+03  0.7818608E-02  0.1152694E+00
         -2   -1    0    0    0  501 -0.00000000000E+00  0.00000000000E+00  0.27929783125E+03  0.27929783125E+03  0.00000000000E+00 0.  1.
          2   -1    0    0  502    0  0.00000000000E+00 -0.00000000000E+00 -0.53789720345E+03  0.53789720345E+03  0.00000000000E+00 0. -1.
          6    1    1    2  502    0  0.89429912468E+02 -0.32329642852E+02  0.22287428286E+03  0.29715292529E+03  0.17200000000E+03 0.  1.
         -6    1    1    2    0  501 -0.89429912468E+02  0.32329642852E+02 -0.48147365506E+03  0.52004210942E+03  0.17200000000E+03 0. -1.
</event>
<event>
 4    1  0.3190379E-002  0.2069328E+03  0.7818608E-02  0.1144018E+00
         -2   -1    0    0    0  501 -0.00000000000E+00  0.00000000000E+00  0.15534871008E+03  0.15534871008E+03  0.00000000000E+00 0.  1.
          2   -1    0    0  502    0  0.00000000000E+00 -0.00000000000E+00 -0.47979865828E+03  0.47979865828E+03  0.00000000000E+00 0. -1.
          6    1    1    2  502    0  0.60269580305E+02 -0.98003870800E+02  0.44928866044E+02  0.21175406491E+03  0.17200000000E+03 0.  1.
         -6    1    1    2    0  501 -0.60269580305E+02  0.98003870800E+02 -0.36937881424E+03  0.42339330345E+03  0.17200000000E+03 0.  1.
</event>
<event>
 4    1  0.3190379E-002  0.1911299E+03  0.7818608E-02  0.1157446E+00
         -1   -1    0    0    0  501 -0.00000000000E+00  0.00000000000E+00  0.11600283993E+03  0.11600283993E+03  0.00000000000E+00 0.  1.
          1   -1    0    0  502    0  0.00000000000E+00 -0.00000000000E+00 -0.77977089233E+03  0.77977089233E+03  0.00000000000E+00 0. -1.
          6    1    1    2  502    0 -0.78076264168E+02 -0.29167407808E+02  0.13932363749E+02  0.19163703051E+03  0.17200000000E+03 0.  1.
         -6    1    1    2    0  501  0.78076264168E+02  0.29167407808E+02 -0.67770041615E+03  0.70413670175E+03  0.17200000000E+03 0. -1.
</event>
<event>
 4    1  0.3190379E-002  0.2777957E+03  0.7818608E-02  0.1096899E+00
          1   -1    0    0  502    0  0.00000000000E+00  0.00000000000E+00  0.89654351940E+03  0.89654351940E+03  0.00000000000E+00 0. -1.
         -1   -1    0    0    0  501 -0.00000000000E+00 -0.00000000000E+00 -0.31233083614E+03  0.31233083614E+03  0.00000000000E+00 0.  1.
          6    1    1    2  502    0 -0.48822407688E+02  0.21260952021E+03  0.80655631416E+03  0.85305540470E+03  0.17200000000E+03 0. -1.
         -6    1    1    2    0  501  0.48822407688E+02 -0.21260952021E+03 -0.22234363090E+03  0.35581895084E+03  0.17200000000E+03 0.  1.
</event>
<event>
 4    1  0.3190379E-002  0.3485451E+03  0.7818608E-02  0.1063214E+00
          2   -1    0    0  502    0  0.00000000000E+00  0.00000000000E+00  0.21350184206E+04  0.21350184206E+04  0.00000000000E+00 0. -1.
         -2   -1    0    0    0  501 -0.00000000000E+00 -0.00000000000E+00 -0.85721183697E+02  0.85721183697E+02  0.00000000000E+00 0.  1.
          6    1    1    2  502    0 -0.30314385131E+03  0.18689122213E+01  0.16684849032E+04  0.17045015576E+04  0.17200000000E+03 0. -1.
         -6    1    1    2    0  501  0.30314385131E+03 -0.18689122213E+01  0.38081233365E+03  0.51623804672E+03  0.17200000000E+03 0.  1.
</event>
<event>
 4    1  0.3190379E-002  0.3735995E+03  0.7818608E-02  0.1053325E+00
          2   -1    0    0  502    0  0.00000000000E+00  0.00000000000E+00  0.18077093331E+04  0.18077093331E+04  0.00000000000E+00 0. -1.
         -2   -1    0    0    0  501 -0.00000000000E+00 -0.00000000000E+00 -0.81555630033E+02  0.81555630033E+02  0.00000000000E+00 0.  1.
          6    1    1    2  502    0  0.15018375174E+03  0.29569821742E+03  0.10810833546E+04  0.11438172121E+04  0.17200000000E+03 0. -1.
         -6    1    1    2    0  501 -0.15018375174E+03 -0.29569821742E+03  0.64507034850E+03  0.74544775108E+03  0.17200000000E+03 0.  1.
</event>
<event>
 4    1  0.3190379E-002  0.3053604E+03  0.7818608E-02  0.1082591E+00
         -1   -1    0    0    0  501 -0.00000000000E+00  0.00000000000E+00  0.12163301479E+03  0.12163301479E+03  0.00000000000E+00 0.  1.
          1   -1    0    0  502    0  0.00000000000E+00 -0.00000000000E+00 -0.10673933231E+04  0.10673933231E+04  0.00000000000E+00 0. -1.
          6    1    1    2  502    0  0.19201442104E+03 -0.16368084834E+03 -0.78847279776E+03  0.84553788254E+03  0.17200000000E+03 0. -1.
         -6    1    1    2    0  501 -0.19201442104E+03  0.16368084834E+03 -0.15728751060E+03  0.34348845540E+03  0.17200000000E+03 0.  1.
</event>
<event>
 4    1  0.3190379E-002  0.1740505E+03  0.7818608E-02  0.1173688E+00
         -1   -1    0    0    0  501 -0.00000000000E+00  0.00000000000E+00  0.33234500002E+02  0.33234500002E+02  0.00000000000E+00 0.  1.
          1   -1    0    0  502    0  0.00000000000E+00 -0.00000000000E+00 -0.98194063273E+03  0.98194063273E+03  0.00000000000E+00 0. -1.
          6    1    1    2  502    0 -0.69729516558E+01  0.25709172639E+02 -0.61029352651E+03  0.63462727022E+03  0.17200000000E+03 0. -1.
         -6    1    1    2    0  501  0.69729516558E+01 -0.25709172639E+02 -0.33841260622E+03  0.38054786251E+03  0.17200000000E+03 0.  1.
</event>
<event>
 4    1  0.3190379E-002  0.1773167E+03  0.7818608E-02  0.1170426E+00
         -2   -1    0    0    0  501 -0.00000000000E+00  0.00000000000E+00  0.64778882977E+02  0.64778882977E+02  0.00000000000E+00 0.  1.
          2   -1    0    0  502    0  0.00000000000E+00 -0.00000000000E+00 -0.48742260742E+03  0.48742260742E+03  0.00000000000E+00 0. -1.
          6    1    1    2  502    0 -0.19218791077E+02  0.38572509960E+02 -0.19336936069E+03  0.26236026778E+03  0.17200000000E+03 0.  1.
         -6    1    1    2    0  501  0.19218791077E+02 -0.38572509960E+02 -0.22927436376E+03  0.28984122262E+03  0.17200000000E+03 0. -1.
</event>
<event>
 4    1  0.3190379E-002  0.4837600E+03  0.7818608E-02  0.1018107E+00
          1   -1    0    0  502    0  0.00000000000E+00  0.00000000000E+00  0.11062975529E+04  0.11062975529E+04  0.00000000000E+00 0. -1.
         -1   -1    0    0    0  501 -0.00000000000E+00 -0.00000000000E+00 -0.22544687621E+03  0.22544687621E+03  0.00000000000E+00 0.  1.
          6    1    1    2  502    0  0.20210846400E+03 -0.40446495657E+03  0.60581874085E+03  0.77526774670E+03  0.17200000000E+03 0. -1.
         -6    1    1    2    0  501 -0.20210846400E+03  0.40446495657E+03  0.27503193579E+03  0.55647668237E+03  0.17200000000E+03 0.  1.
</event>
<event>
 4    1  0.3190379E-002  0.2523209E+03  0.7818608E-02  0.1111847E+00
         -4   -1    0    0    0  501 -0.00000000000E+00  0.00000000000E+00  0.14137771137E+03  0.14137771137E+03  0.00000000000E+00 0.  1.
          4   -1    0    0  502    0  0.00000000000E+00 -0.00000000000E+00 -0.47397395210E+03  0.47397395210E+03  0.00000000000E+00 0. -1.
          6    1    1    2  502    0  0.73115164686E+02  0.16951698931E+03 -0.23502511463E+03  0.34482262321E+03  0.17200000000E+03 0. -1.
         -6    1    1    2    0  501 -0.73115164686E+02 -0.16951698931E+03 -0.97571126113E+02  0.27052904026E+03  0.17200000000E+03 0.  1.
</event>
<event>
 4    1  0.3190379E-002  0.3523876E+03  0.7818608E-02  0.1061639E+00
         -1   -1    0    0    0  501 -0.00000000000E+00  0.00000000000E+00  0.23792870627E+03  0.23792870627E+03  0.00000000000E+00 0.  1.
          1   -1    0    0  502    0  0.00000000000E+00 -0.00000000000E+00 -0.10177500814E+04  0.10177500814E+04  0.00000000000E+00 0. -1.
          6    1    1    2  502    0 -0.30588927858E+03  0.32011599535E+02 -0.82813805889E+03  0.89999424323E+03  0.17200000000E+03 0. -1.
         -6    1    1    2    0  501  0.30588927858E+03 -0.32011599535E+02  0.48316683729E+02  0.35568454448E+03  0.17200000000E+03 0.  1.
</event>
<event>
 4    1  0.3190379E-002  0.2129859E+03  0.7818608E-02  0.1139223E+00
         -2   -1    0    0    0  501 -0.00000000000E+00  0.00000000000E+00  0.12230416209E+03  0.12230416209E+03  0.00000000000E+00 0.  1.
          2   -1    0    0  502    0  0.00000000000E+00 -0.00000000000E+00 -0.39864409247E+03  0.39864409247E+03  0.00000000000E+00 0. -1.
          6    1    1    2  502    0 -0.91065465597E+02  0.86522138531E+02 -0.20688195082E+03  0.29692278635E+03  0.17200000000E+03 0.  1.
         -6    1    1    2    0  501  0.91065465597E+02 -0.86522138531E+02 -0.69457979555E+02  0.22402546820E+03  0.17200000000E+03 0.  1.
</event>
<event>
 4    1  0.3190379E-002  0.4165819E+03  0.7818608E-02  0.1038185E+00
         -2   -1    0    0    0  501 -0.00000000000E+00  0.00000000000E+00  0.18600402197E+03  0.18600402197E+03  0.00000000000E+00 0.  1.
          2   -1    0    0  502    0  0.00000000000E+00 -0.00000000000E+00 -0.11564979526E+04  0.11564979526E+04  0.00000000000E+00 0. -1.
          6    1    1    2  502    0  0.16022026648E+03  0.34392727545E+03 -0.19015607943E+03  0.45792995003E+03  0.17200000000E+03 0. -1.
         -6    1    1    2    0  501 -0.16022026648E+03 -0.34392727545E+03 -0.78033785121E+03  0.88457202455E+03  0.17200000000E+03 0. -1.
</event>
<event>
 4    1  0.3190379E-002  0.2777149E+03  0.7818608E-02  0.1096944E+00
          2   -1    0    0  502    0  0.00000000000E+00  0.00000000000E+00  0.13371930944E+04  0.13371930944E+04  0.00000000000E+00 0. -1.
         -2   -1    0    0    0  501 -0.00000000000E+00 -0.00000000000E+00 -0.11564909897E+03  0.11564909897E+03  0.00000000000E+00 0.  1.
          6    1    1    2  502    0  0.30377311716E+02 -0.21591377665E+03  0.11250833647E+04  0.11588520689E+04  0.17200000000E+03 0. -1.
         -6    1    1    2    0  501 -0.30377311716E+02  0.21591377665E+03  0.96460630727E+02  0.29399012448E+03  0.17200000000E+03 0.  1.
</event>
<event>
 4    1  0.3190379E-002  0.1861155E+03  0.7818608E-02  0.1162012E+00
         -1   -1    0    0    0  501 -0.00000000000E+00  0.00000000000E+00  0.42814865148E+02  0.42814865148E+02  0.00000000000E+00 0.  1.
          1   -1    0    0  502    0  0.00000000000E+00 -0.00000000000E+00 -0.11175585034E+04  0.11175585034E+04  0.00000000000E+00 0. -1.
          6    1    1    2  502    0 -0.60536276942E+02 -0.37287486294E+02 -0.23253160206E+03  0.29784214513E+03  0.17200000000E+03 0.  1.
         -6    1    1    2    0  501  0.60536276942E+02  0.37287486294E+02 -0.84221203620E+03  0.86253122343E+03  0.17200000000E+03 0. -1.
</event>
<event>
 4    1  0.3190379E-002  0.2014585E+03  0.7818608E-02  0.1148514E+00
         -2   -1    0    0    0  501 -0.00000000000E+00  0.00000000000E+00  0.33696105700E+02  0.33696105700E+02  0.00000000000E+00 0.  1.
          2   -1    0    0  502    0  0.00000000000E+00 -0.00000000000E+00 -0.15898777349E+04  0.15898777349E+04  0.00000000000E+00 0. -1.
          6    1    1    2  502    0 -0.57462040510E+02 -0.87747713523E+02 -0.37839729608E+03  0.42868410398E+03  0.17200000000E+03 0.  1.
         -6    1    1    2    0  501  0.57462040510E+02  0.87747713523E+02 -0.11777843332E+04  0.11948897367E+04  0.17200000000E+03 0. -1.
</event>
<event>
 4    1  0.3190379E-002  0.1737639E+03  0.7818608E-02  0.1173979E+00
          4   -1    0    0  502    0  0.00000000000E+00  0.00000000000E+00  0.57731010304E+02  0.57731010304E+02  0.00000000000E+00 0. -1.
         -4   -1    0    0    0  501 -0.00000000000E+00 -0.00000000000E+00 -0.53284755173E+03  0.53284755173E+03  0.00000000000E+00 0.  1.
          6    1    1    2  502    0  0.23860186621E+02 -0.63703887628E+01 -0.19743542281E+03  0.26301071564E+03  0.17200000000E+03 0. -1.
         -6    1    1    2    0  501 -0.23860186621E+02  0.63703887628E+01 -0.27768111861E+03  0.32756784639E+03  0.17200000000E+03 0. -1.
</event>
<event>
 4    1  0.3190379E-002  0.2653244E+03  0.7818608E-02  0.1103986E+00
         -2   -1    0    0    0  501 -0.00000000000E+00  0.00000000000E+00  0.11865318369E+03  0.11865318369E+03  0.00000000000E+00 0.  1.
          2   -1    0    0  502    0  0.00000000000E+00 -0.00000000000E+00 -0.71971286730E+03  0.71971286730E+03  0.00000000000E+00 0. -1.
          6    1    1    2  502    0 -0.84609192976E+02 -0.18345121388E+03 -0.12485166319E+03  0.29323199214E+03  0.17200000000E+03 0.  1.
         -6    1    1    2    0  501  0.84609192976E+02  0.18345121388E+03 -0.47620802042E+03  0.54513405886E+03  0.17200000000E+03 0.  1.
</event>
<event>
 4    1  0.3190379E-002  0.1954001E+03  0.7818608E-02  0.1153679E+00
         -2   -1    0    0    0  501 -0.00000000000E+00  0.00000000000E+00  0.14622701348E+03  0.14622701348E+03  0.00000000000E+00 0.  1.
          2   -1    0    0  502    0  0.00000000000E+00 -0.00000000000E+00 -0.29894345529E+03  0.29894345529E+03  0.00000000000E+00 0. -1.
          6    1    1    2  502    0 -0.92533568481E+02  0.58930368375E+01  0.28272625223E+01  0.19542052756E+03  0.17200000000E+03 0.  1.
         -6    1    1    2    0  501  0.92533568481E+02 -0.58930368375E+01 -0.15554370433E+03  0.24974994122E+03  0.17200000000E+03 0.  1.
</event>
<event>
 4    1  0.3190379E-002  0.2093359E+03  0.7818608E-02  0.1142093E+00
         -2   -1    0    0    0  501 -0.00000000000E+00  0.00000000000E+00  0.68837125339E+02  0.68837125339E+02  0.00000000000E+00 0.  1.
          2   -1    0    0  502    0  0.00000000000E+00 -0.00000000000E+00 -0.67590834118E+03  0.67590834118E+03  0.00000000000E+00 0. -1.
          6    1    1    2  502    0 -0.91406684766E+02 -0.76696494307E+02 -0.39333858847E+03  0.44557466202E+03  0.17200000000E+03 0.  1.
         -6    1    1    2    0  501  0.91406684766E+02  0.76696494307E+02 -0.21373262738E+03  0.29917080450E+03  0.17200000000E+03 0.  1.
</event>
<event>
 4    1  0.3190379E-002  0.1924389E+03  0.7818608E-02  0.1156280E+00
          2   -1    0    0  502    0  0.00000000000E+00  0.00000000000E+00  0.80121891575E+03  0.80121891575E+03  0.00000000000E+00 0. -1.
         -2   -1    0    0    0  501 -0.00000000000E+00 -0.00000000000E+00 -0.57246319637E+02  0.57246319637E+02  0.00000000000E+00 0.  1.
          6    1    1    2  502    0 -0.86214368763E+02  0.39741971105E+01  0.56036206940E+03  0.59248490314E+03  0.17200000000E+03 0. -1.
         -6    1    1    2    0  501  0.86214368763E+02 -0.39741971105E+01  0.18361052672E+03  0.26598033225E+03  0.17200000000E+03 0.  1.
</event>
<event>
 4    1  0.3190379E-002  0.2054577E+03  0.7818608E-02  0.1145214E+00
          1   -1    0    0  502    0  0.00000000000E+00  0.00000000000E+00  0.36827967926E+03  0.36827967926E+03  0.00000000000E+00 0. -1.
         -1   -1    0    0    0  501 -0.00000000000E+00 -0.00000000000E+00 -0.40177832784E+03  0.40177832784E+03  0.00000000000E+00 0.  1.
          6    1    1    2  502    0  0.72849252050E+01 -0.11214185944E+03  0.30875710066E+03  0.37086899841E+03  0.17200000000E+03 0. -1.
         -6    1    1    2    0  501 -0.72849252050E+01  0.11214185944E+03 -0.34225574924E+03  0.39918900869E+03  0.17200000000E+03 0.  1.
</event>
<event>
 4    1  0.3190379E-002  0.2061708E+03  0.7818608E-02  0.1144635E+00
          3   -1    0    0  502    0  0.00000000000E+00  0.00000000000E+00  0.32120073115E+03  0.32120073115E+03  0.00000000000E+00 0. -1.
         -3   -1    0    0    0  501 -0.00000000000E+00 -0.00000000000E+00 -0.15620273089E+03  0.15620273089E+03  0.00000000000E+00 0.  1.
          6    1    1    2  502    0  0.99658136248E+02  0.54686956243E+02 -0.10806680180E+02  0.20645384869E+03  0.17200000000E+03 0.  1.
         -6    1    1    2    0  501 -0.99658136248E+02 -0.54686956243E+02  0.17580468044E+03  0.27094961334E+03  0.17200000000E+03 0.  1.
</event>
<event>
 4    1  0.3190379E-002  0.1897622E+03  0.7818608E-02  0.1158676E+00
         -2   -1    0    0    0  501 -0.00000000000E+00  0.00000000000E+00  0.14777416826E+03  0.14777416826E+03  0.00000000000E+00 0.  1.
          2   -1    0    0  502    0  0.00000000000E+00 -0.00000000000E+00 -0.24422598342E+03  0.24422598342E+03  0.00000000000E+00 0. -1.
          6    1    1    2  502    0 -0.65494324170E+02 -0.46219053224E+02 -0.38964308834E+02  0.19372125527E+03  0.17200000000E+03 0.  1.
         -6    1    1    2    0  501  0.65494324170E+02  0.46219053224E+02 -0.57487506329E+02  0.19827889641E+03  0.17200000000E+03 0.  1.
</event>
<event>
 4    1  0.3190379E-002  0.1942268E+03  0.7818608E-02  0.1154703E+00
         -1   -1    0    0    0  501 -0.00000000000E+00  0.00000000000E+00  0.17504670429E+03  0.17504670429E+03  0.00000000000E+00 0.  1.
          1   -1    0    0  502    0  0.00000000000E+00 -0.00000000000E+00 -0.21963749523E+03  0.21963749523E+03  0.00000000000E+00 0. -1.
          6    1    1    2  502    0 -0.88448937309E+02  0.17799921503E+02 -0.49352977317E+02  0.20039902217E+03  0.17200000000E+03 0. -1.
         -6    1    1    2    0  501  0.88448937309E+02 -0.17799921503E+02  0.47621863765E+01  0.19428517734E+03  0.17200000000E+03 0.  1.
</event>
<event>
 4    1  0.3190379E-002  0.4548027E+03  0.7818608E-02  0.1026299E+00
         -2   -1    0    0    0  501 -0.00000000000E+00  0.00000000000E+00  0.36680824320E+03  0.36680824320E+03  0.00000000000E+00 0.  1.
          2   -1    0    0  502    0  0.00000000000E+00 -0.00000000000E+00 -0.71211533978E+03  0.71211533978E+03  0.00000000000E+00 0. -1.
          6    1    1    2  502    0 -0.24422050954E+03 -0.34295452094E+03  0.73452870321E+02  0.46069597879E+03  0.17200000000E+03 0. -1.
         -6    1    1    2    0  501  0.24422050954E+03  0.34295452094E+03 -0.41875996690E+03  0.61822760419E+03  0.17200000000E+03 0.  1.
</event>
<event>
 4    1  0.3190379E-002  0.1884462E+03  0.7818608E-02  0.1159870E+00
          1   -1    0    0  502    0  0.00000000000E+00  0.00000000000E+00  0.44969007607E+03  0.44969007607E+03  0.00000000000E+00 0. -1.
         -1   -1    0    0    0  501 -0.00000000000E+00 -0.00000000000E+00 -0.21755547795E+03  0.21755547795E+03  0.00000000000E+00 0.  1.
          6    1    1    2  502    0 -0.28297602935E+02  0.71604493365E+02  0.38234192217E+03  0.42625966646E+03  0.17200000000E+03 0. -1.
         -6    1    1    2    0  501  0.28297602935E+02 -0.71604493365E+02 -0.15020732405E+03  0.24098588756E+03  0.17200000000E+03 0.  1.
</event>
<event>
 4    1  0.3190379E-002  0.4607829E+03  0.7818608E-02  0.1024554E+00
          1   -1    0    0  502    0  0.00000000000E+00  0.00000000000E+00  0.10326384472E+04  0.10326384472E+04  0.00000000000E+00 0. -1.
         -1   -1    0    0    0  501 -0.00000000000E+00 -0.00000000000E+00 -0.12480884880E+04  0.12480884880E+04  0.00000000000E+00 0.  1.
          6    1    1    2  502    0  0.42720415440E+03  0.15279369724E+02  0.93448236534E+03  0.10419108118E+04  0.17200000000E+03 0. -1.
         -6    1    1    2    0  501 -0.42720415440E+03 -0.15279369724E+02 -0.11499324062E+04  0.12388161233E+04  0.17200000000E+03 0.  1.
</event>
<event>
 4    1  0.3190379E-002  0.3427110E+03  0.7818608E-02  0.1065647E+00
          1   -1    0    0  502    0  0.00000000000E+00  0.00000000000E+00  0.43552576748E+03  0.43552576748E+03  0.00000000000E+00 0. -1.
         -1   -1    0    0    0  501 -0.00000000000E+00 -0.00000000000E+00 -0.39542241744E+03  0.39542241744E+03  0.00000000000E+00 0.  1.
          6    1    1    2  502    0 -0.81144142499E+02 -0.28510075840E+03  0.25434571654E+03  0.42678162779E+03  0.17200000000E+03 0. -1.
         -6    1    1    2    0  501  0.81144142499E+02  0.28510075840E+03 -0.21424236649E+03  0.40416655713E+03  0.17200000000E+03 0.  1.
</event>
<event>
 4    1  0.3190379E-002  0.2252523E+03  0.7818608E-02  0.1130027E+00
          2   -1    0    0  502    0  0.00000000000E+00  0.00000000000E+00  0.13546743302E+04  0.13546743302E+04  0.00000000000E+00 0. -1.
         -2   -1    0    0    0  501 -0.00000000000E+00 -0.00000000000E+00 -0.13919763265E+03  0.13919763265E+03  0.00000000000E+00 0.  1.
          6    1    1    2  502    0  0.56196820691E+02 -0.13415103768E+03  0.12463254074E+04  0.12665171158E+04  0.17200000000E+03 0. -1.
         -6    1    1    2    0  501 -0.56196820691E+02  0.13415103768E+03 -0.30848709846E+02  0.22735484702E+03  0.17200000000E+03 0.  1.
</event>
<event>
 4    1  0.3190379E-002  0.2437607E+03  0.7818608E-02  0.1117313E+00
         -2   -1    0    0    0  501 -0.00000000000E+00  0.00000000000E+00  0.17565412501E+04  0.17565412501E+04  0.00000000000E+00 0.  1.
          2   -1    0    0  502    0  0.00000000000E+00 -0.00000000000E+00 -0.34113132213E+02  0.34113132213E+02  0.00000000000E+00 0. -1.
          6    1    1    2  502    0 -0.12692479956E+03 -0.11715527935E+03  0.94315160480E+03  0.97414280979E+03  0.17200000000E+03 0. -1.
         -6    1    1    2    0  501  0.12692479956E+03  0.11715527935E+03  0.77927651309E+03  0.81651157253E+03  0.17200000000E+03 0.  1.
</event>
<event>
 4    1  0.3190379E-002  0.2887188E+03  0.7818608E-02  0.1091020E+00
         -2   -1    0    0    0  501 -0.00000000000E+00  0.00000000000E+00  0.11038409019E+03  0.11038409019E+03  0.00000000000E+00 0.  1.
          2   -1    0    0  502    0  0.00000000000E+00 -0.00000000000E+00 -0.75674750331E+03  0.75674750331E+03  0.00000000000E+00 0. -1.
          6    1    1    2  502    0  0.17295074076E+03  0.15447525318E+03 -0.34298796670E+03  0.44832946354E+03  0.17200000000E+03 0. -1.
         -6    1    1    2    0  501 -0.17295074076E+03 -0.15447525318E+03 -0.30337544642E+03  0.41880212996E+03  0.17200000000E+03 0.  1.
</event>
<event>
 4    1  0.3190379E-002  0.2865666E+03  0.7818608E-02  0.1092156E+00
          2   -1    0    0  502    0  0.00000000000E+00  0.00000000000E+00  0.59020177428E+03  0.59020177428E+03  0.00000000000E+00 0. -1.
         -2   -1    0    0    0  501 -0.00000000000E+00 -0.00000000000E+00 -0.16857000125E+03  0.16857000125E+03  0.00000000000E+00 0.  1.
          6    1    1    2  502    0  0.22348305462E+03  0.50909106967E+02  0.36933784993E+03  0.46747284442E+03  0.17200000000E+03 0. -1.
         -6    1    1    2    0  501 -0.22348305462E+03 -0.50909106967E+02  0.52293923095E+02  0.29129893111E+03  0.17200000000E+03 0.  1.
</event>
<event>
 4    1  0.3190379E-002  0.1929927E+03  0.7818608E-02  0.1155789E+00
         -2   -1    0    0    0  501 -0.00000000000E+00  0.00000000000E+00  0.64359129358E+02  0.64359129358E+02  0.00000000000E+00 0.  1.
          2   -1    0    0  502    0  0.00000000000E+00 -0.00000000000E+00 -0.10487280708E+04  0.10487280708E+04  0.00000000000E+00 0. -1.
          6    1    1    2  502    0 -0.80927506124E+02 -0.33360369034E+02 -0.86476361166E+03  0.88603740300E+03  0.17200000000E+03 0. -1.
         -6    1    1    2    0  501  0.80927506124E+02  0.33360369034E+02 -0.11960532975E+03  0.22704979713E+03  0.17200000000E+03 0.  1.
</event>
<event>
 4    1  0.3190379E-002  0.1959687E+03  0.7818608E-02  0.1153185E+00
         -2   -1    0    0    0  501 -0.00000000000E+00  0.00000000000E+00  0.12676995204E+02  0.12676995204E+02  0.00000000000E+00 0.  1.
          2   -1    0    0  502    0  0.00000000000E+00 -0.00000000000E+00 -0.41113727243E+04  0.41113727243E+04  0.00000000000E+00 0. -1.
          6    1    1    2  502    0  0.17186300162E+02  0.92327508939E+02 -0.31071583300E+04  0.31133320776E+04  0.17200000000E+03 0. -1.
         -6    1    1    2    0  501 -0.17186300162E+02 -0.92327508939E+02 -0.99153739912E+03  0.10107176419E+04  0.17200000000E+03 0.  1.
</event>
<event>
 4    1  0.3190379E-002  0.4919156E+03  0.7818608E-02  0.1015911E+00
         -1   -1    0    0    0  501 -0.00000000000E+00  0.00000000000E+00  0.41848472828E+03  0.41848472828E+03  0.00000000000E+00 0.  1.
          1   -1    0    0  502    0  0.00000000000E+00 -0.00000000000E+00 -0.84052560768E+03  0.84052560768E+03  0.00000000000E+00 0. -1.
          6    1    1    2  502    0  0.27087003994E+03  0.37286236702E+03 -0.56267669524E+03  0.74738610278E+03  0.17200000000E+03 0. -1.
         -6    1    1    2    0  501 -0.27087003994E+03 -0.37286236702E+03  0.14063581584E+03  0.51162423317E+03  0.17200000000E+03 0.  1.
</event>
<event>
 4    1  0.3190379E-002  0.1743262E+03  0.7818608E-02  0.1173410E+00
         -1   -1    0    0    0  501 -0.00000000000E+00  0.00000000000E+00  0.43532557093E+02  0.43532557093E+02  0.00000000000E+00 0.  1.
          1   -1    0    0  502    0  0.00000000000E+00 -0.00000000000E+00 -0.71400239165E+03  0.71400239165E+03  0.00000000000E+00 0. -1.
          6    1    1    2  502    0 -0.28359412194E+02  0.11744561591E+01 -0.39177973695E+03  0.42881347680E+03  0.17200000000E+03 0. -1.
         -6    1    1    2    0  501  0.28359412194E+02 -0.11744561591E+01 -0.27869009761E+03  0.32872147194E+03  0.17200000000E+03 0. -1.
</event>
<event>
 4    1  0.3190379E-002  0.2118718E+03  0.7818608E-02  0.1140092E+00
          1   -1    0    0  502    0  0.00000000000E+00  0.00000000000E+00  0.18822069325E+04  0.18822069325E+04  0.00000000000E+00 0. -1.
         -1   -1    0    0    0  501 -0.00000000000E+00 -0.00000000000E+00 -0.24360025652E+02  0.24360025652E+02  0.00000000000E+00 0.  1.
          6    1    1    2  502    0  0.10678405599E+03 -0.62472603007E+02  0.10669299559E+04  0.10877633895E+04  0.17200000000E+03 0. -1.
         -6    1    1    2    0  501 -0.10678405599E+03  0.62472603007E+02  0.79091695095E+03  0.81880356865E+03  0.17200000000E+03 0.  1.
</event>
<event>
 4    1  0.3190379E-002  0.2107331E+03  0.7818608E-02  0.1140987E+00
         -2   -1    0    0    0  501 -0.00000000000E+00  0.00000000000E+00  0.28628091373E+02  0.28628091373E+02  0.00000000000E+00 0.  1.
          2   -1    0    0  502    0  0.00000000000E+00 -0.00000000000E+00 -0.16500509201E+04  0.16500509201E+04  0.00000000000E+00 0. -1.
          6    1    1    2  502    0 -0.55753166494E+02  0.10824063899E+03 -0.10161285500E+04  0.10377502983E+04  0.17200000000E+03 0. -1.
         -6    1    1    2    0  501  0.55753166494E+02 -0.10824063899E+03 -0.60529427871E+03  0.64092871315E+03  0.17200000000E+03 0.  1.
</event>
<event>
 4    1  0.3190379E-002  0.7588719E+03  0.7818608E-02  0.9621534E-01
          2   -1    0    0  502    0  0.00000000000E+00  0.00000000000E+00  0.21897885719E+04  0.21897885719E+04  0.00000000000E+00 0. -1.
         -2   -1    0    0    0  501 -0.00000000000E+00 -0.00000000000E+00 -0.29720805004E+03  0.29720805004E+03  0.00000000000E+00 0.  1.
          6    1    1    2  502    0 -0.73912247990E+03 -0.69549580574E+00  0.13682391538E+04  0.15645973622E+04  0.17200000000E+03 0. -1.
         -6    1    1    2    0  501  0.73912247990E+03  0.69549580574E+00  0.52434136810E+03  0.92239925971E+03  0.17200000000E+03 0.  1.
</event>
<event>
 4    1  0.3190379E-002  0.3598781E+03  0.7818608E-02  0.1058632E+00
         -2   -1    0    0    0  501 -0.00000000000E+00  0.00000000000E+00  0.63670441972E+02  0.63670441972E+02  0.00000000000E+00 0.  1.
          2   -1    0    0  502    0  0.00000000000E+00 -0.00000000000E+00 -0.21736903480E+04  0.21736903480E+04  0.00000000000E+00 0. -1.
          6    1    1    2  502    0  0.36478067465E+02  0.31400254258E+03 -0.13384948940E+04  0.13860306012E+04  0.17200000000E+03 0. -1.
         -6    1    1    2    0  501 -0.36478067465E+02 -0.31400254258E+03 -0.77152501197E+03  0.85133018873E+03  0.17200000000E+03 0.  1.
</event>
<event>
 4    1  0.3190379E-002  0.3243923E+03  0.7818608E-02  0.1073645E+00
          1   -1    0    0  502    0  0.00000000000E+00  0.00000000000E+00  0.18487154371E+04  0.18487154371E+04  0.00000000000E+00 0. -1.
         -1   -1    0    0    0  501 -0.00000000000E+00 -0.00000000000E+00 -0.18396421148E+03  0.18396421148E+03  0.00000000000E+00 0.  1.
          6    1    1    2  502    0 -0.16869874064E+03  0.21722590372E+03  0.16769703061E+04  0.17080573075E+04  0.17200000000E+03 0. -1.
         -6    1    1    2    0  501  0.16869874064E+03 -0.21722590372E+03 -0.12219080507E+02  0.32462234099E+03  0.17200000000E+03 0.  1.
</event>
<event>
 4    1  0.3190379E-002  0.1863977E+03  0.7818608E-02  0.1161751E+00
          2   -1    0    0  502    0  0.00000000000E+00  0.00000000000E+00  0.49809938761E+03  0.49809938761E+03  0.00000000000E+00 0. -1.
         -2   -1    0    0    0  501 -0.00000000000E+00 -0.00000000000E+00 -0.11275199517E+03  0.11275199517E+03  0.00000000000E+00 0.  1.
          6    1    1    2  502    0  0.66123135750E+02 -0.28068605767E+02  0.38128628839E+03  0.42440941251E+03  0.17200000000E+03 0. -1.
         -6    1    1    2    0  501 -0.66123135750E+02  0.28068605767E+02  0.40611040519E+01  0.18644197027E+03  0.17200000000E+03 0.  1.
</event>
<event>
 4    1  0.3190379E-002  0.2249273E+03  0.7818608E-02  0.1130262E+00
         -1   -1    0    0    0  501 -0.00000000000E+00  0.00000000000E+00  0.19578559260E+03  0.19578559260E+03  0.00000000000E+00 0.  1.
          1   -1    0    0  502    0  0.00000000000E+00 -0.00000000000E+00 -0.39518683059E+03  0.39518683059E+03  0.00000000000E+00 0. -1.
          6    1    1    2  502    0 -0.14493792031E+03  0.11368681214E+01 -0.27353978206E+03  0.35414164621E+03  0.17200000000E+03 0. -1.
         -6    1    1    2    0  501  0.14493792031E+03 -0.11368681214E+01  0.74138544058E+02  0.23683077698E+03  0.17200000000E+03 0.  1.
</event>
<event>
 4    1  0.3190379E-002  0.2006820E+03  0.7818608E-02  0.1149165E+00
          2   -1    0    0  502    0  0.00000000000E+00  0.00000000000E+00  0.17683592543E+04  0.17683592543E+04  0.00000000000E+00 0. -1.
         -2   -1    0    0    0  501 -0.00000000000E+00 -0.00000000000E+00 -0.33221749665E+03  0.33221749665E+03  0.00000000000E+00 0.  1.
          6    1    1    2  502    0 -0.91953478292E+02  0.47263321314E+02  0.17317201911E+04  0.17433095204E+04  0.17200000000E+03 0. -1.
         -6    1    1    2    0  501  0.91953478292E+02 -0.47263321314E+02 -0.29557843343E+03  0.35726723055E+03  0.17200000000E+03 0.  1.
</event>
<event>
 4    1  0.3190379E-002  0.1923504E+03  0.7818608E-02  0.1156358E+00
         -2   -1    0    0    0  501 -0.00000000000E+00  0.00000000000E+00  0.26610799723E+02  0.26610799723E+02  0.00000000000E+00 0.  1.
          2   -1    0    0  502    0  0.00000000000E+00 -0.00000000000E+00 -0.17933782639E+04  0.17933782639E+04  0.00000000000E+00 0. -1.
          6    1    1    2  502    0  0.77480190497E+01 -0.85759317492E+02 -0.45200060523E+03  0.49122626097E+03  0.17200000000E+03 0.  1.
         -6    1    1    2    0  501 -0.77480190497E+01  0.85759317492E+02 -0.13147668590E+04  0.13287628027E+04  0.17200000000E+03 0. -1.
</event>
<event>
 4    1  0.3190379E-002  0.1914179E+03  0.7818608E-02  0.1157189E+00
          2   -1    0    0  502    0  0.00000000000E+00  0.00000000000E+00  0.55221139655E+03  0.55221139655E+03  0.00000000000E+00 0. -1.
         -2   -1    0    0    0  501 -0.00000000000E+00 -0.00000000000E+00 -0.90438845854E+02  0.90438845854E+02  0.00000000000E+00 0.  1.
          6    1    1    2  502    0 -0.63676653417E+02 -0.54791526474E+02  0.39671090169E+03  0.44047743084E+03  0.17200000000E+03 0. -1.
         -6    1    1    2    0  501  0.63676653417E+02  0.54791526474E+02  0.65061649012E+02  0.20217281156E+03  0.17200000000E+03 0.  1.
</event>
<event>
 4    1  0.3190379E-002  0.3035714E+03  0.7818608E-02  0.1083469E+00
         -1   -1    0    0    0  501 -0.00000000000E+00  0.00000000000E+00  0.15491375295E+03  0.15491375295E+03  0.00000000000E+00 0.  1.
          1   -1    0    0  502    0  0.00000000000E+00 -0.00000000000E+00 -0.22107337452E+04  0.22107337452E+04  0.00000000000E+00 0. -1.
          6    1    1    2  502    0 -0.25013342229E+03 -0.22104903133E+01 -0.20391456827E+04  0.20616184736E+04  0.17200000000E+03 0. -1.
         -6    1    1    2    0  501  0.25013342229E+03  0.22104903133E+01 -0.16674309567E+02  0.30402902462E+03  0.17200000000E+03 0.  1.
</event>
<event>
 4    1  0.3190379E-002  0.2008148E+03  0.7818608E-02  0.1149053E+00
         -2   -1    0    0    0  501 -0.00000000000E+00  0.00000000000E+00  0.84312044233E+03  0.84312044233E+03  0.00000000000E+00 0.  1.
          2   -1    0    0  502    0  0.00000000000E+00 -0.00000000000E+00 -0.55498872777E+02  0.55498872777E+02  0.00000000000E+00 0. -1.
          6    1    1    2  502    0  0.90512970987E+02  0.50497443801E+02  0.22679221094E+03  0.30292127144E+03  0.17200000000E+03 0. -1.
         -6    1    1    2    0  501 -0.90512970987E+02 -0.50497443801E+02  0.56082935862E+03  0.59569804367E+03  0.17200000000E+03 0.  1.
</event>
<event>
 4    1  0.3190379E-002  0.2045020E+03  0.7818608E-02  0.1145995E+00
         -1   -1    0    0    0  501 -0.00000000000E+00  0.00000000000E+00  0.42027535022E+03  0.42027535022E+03  0.00000000000E+00 0.  1.
          1   -1    0    0  502    0  0.00000000000E+00 -0.00000000000E+00 -0.10341452194E+03  0.10341452194E+03  0.00000000000E+00 0. -1.
          6    1    1    2  502    0  0.15077198806E+01  0.11061099736E+03  0.10754327684E+03  0.23105545298E+03  0.17200000000E+03 0.  1.
         -6    1    1    2    0  501 -0.15077198806E+01 -0.11061099736E+03  0.20931755144E+03  0.29263441919E+03  0.17200000000E+03 0.  1.
</event>
<event>
 4    1  0.3190379E-002  0.2326659E+03  0.7818608E-02  0.1124777E+00
         -2   -1    0    0    0  501 -0.00000000000E+00  0.00000000000E+00  0.15165201759E+03  0.15165201759E+03  0.00000000000E+00 0.  1.
          2   -1    0    0  502    0  0.00000000000E+00 -0.00000000000E+00 -0.61277407683E+03  0.61277407683E+03  0.00000000000E+00 0. -1.
          6    1    1    2  502    0  0.15462793102E+03  0.25290621138E+02 -0.47751679393E+03  0.53118330269E+03  0.17200000000E+03 0. -1.
         -6    1    1    2    0  501 -0.15462793102E+03 -0.25290621138E+02  0.16394734698E+02  0.23324279173E+03  0.17200000000E+03 0.  1.
</event>
<event>
 4    1  0.3190379E-002  0.5871859E+03  0.7818608E-02  0.9932354E-01
          2   -1    0    0  502    0  0.00000000000E+00  0.00000000000E+00  0.29451707203E+04  0.29451707203E+04  0.00000000000E+00 0. -1.
         -2   -1    0    0    0  501 -0.00000000000E+00 -0.00000000000E+00 -0.19613197076E+03  0.19613197076E+03  0.00000000000E+00 0.  1.
          6    1    1    2  502    0  0.42831714070E+03  0.36297075197E+03  0.23717439047E+04  0.24433494406E+04  0.17200000000E+03 0. -1.
         -6    1    1    2    0  501 -0.42831714070E+03 -0.36297075197E+03  0.37729484489E+03  0.69795325043E+03  0.17200000000E+03 0.  1.
</event>
<event>
 4    1  0.3190379E-002  0.2646782E+03  0.7818608E-02  0.1104365E+00
         -2   -1    0    0    0  501 -0.00000000000E+00  0.00000000000E+00  0.35997763726E+03  0.35997763726E+03  0.00000000000E+00 0.  1.
          2   -1    0    0  502    0  0.00000000000E+00 -0.00000000000E+00 -0.78820388573E+03  0.78820388573E+03  0.00000000000E+00 0. -1.
          6    1    1    2  502    0  0.19549295440E+03 -0.47466408045E+02 -0.71231652286E+03  0.75990090397E+03  0.17200000000E+03 0. -1.
         -6    1    1    2    0  501 -0.19549295440E+03  0.47466408045E+02  0.28409027439E+03  0.38828061903E+03  0.17200000000E+03 0.  1.
</event>
<event>
 4    1  0.3190379E-002  0.2993659E+03  0.7818608E-02  0.1085558E+00
         -1   -1    0    0    0  501 -0.00000000000E+00  0.00000000000E+00  0.47790534227E+02  0.47790534227E+02  0.00000000000E+00 0.  1.
          1   -1    0    0  502    0  0.00000000000E+00 -0.00000000000E+00 -0.18821353023E+04  0.18821353023E+04  0.00000000000E+00 0. -1.
          6    1    1    2  502    0 -0.19469070579E+03  0.14876655273E+03 -0.97546927201E+03  0.10203726078E+04  0.17200000000E+03 0. -1.
         -6    1    1    2    0  501  0.19469070579E+03 -0.14876655273E+03 -0.85887549611E+03  0.90955322876E+03  0.17200000000E+03 0.  1.
</event>
<event>
 4    1  0.3190379E-002  0.2282277E+03  0.7818608E-02  0.1127893E+00
          2   -1    0    0  502    0  0.00000000000E+00  0.00000000000E+00  0.45507165688E+02  0.45507165688E+02  0.00000000000E+00 0. -1.
         -2   -1    0    0    0  501 -0.00000000000E+00 -0.00000000000E+00 -0.11936203359E+04  0.11936203359E+04  0.00000000000E+00 0.  1.
          6    1    1    2  502    0 -0.12504528982E+03 -0.82870837476E+02 -0.69960240469E+03  0.73588818774E+03  0.17200000000E+03 0.  1.
         -6    1    1    2    0  501  0.12504528982E+03  0.82870837476E+02 -0.44851076553E+03  0.50323931385E+03  0.17200000000E+03 0. -1.
</event>
<event>
 4    1  0.3190379E-002  0.2620425E+03  0.7818608E-02  0.1105922E+00
         -2   -1    0    0    0  501 -0.00000000000E+00  0.00000000000E+00  0.32216778888E+03  0.32216778888E+03  0.00000000000E+00 0.  1.
          2   -1    0    0  502    0  0.00000000000E+00 -0.00000000000E+00 -0.87583203674E+03  0.87583203674E+03  0.00000000000E+00 0. -1.
          6    1    1    2  502    0  0.15220205900E+03  0.12616179287E+03 -0.79787421639E+03  0.83980326858E+03  0.17200000000E+03 0. -1.
         -6    1    1    2    0  501 -0.15220205900E+03 -0.12616179287E+03  0.24420996853E+03  0.35819655703E+03  0.17200000000E+03 0.  1.
</event>
<event>
 4    1  0.3190379E-002  0.2033405E+03  0.7818608E-02  0.1146951E+00
         -2   -1    0    0    0  501 -0.00000000000E+00  0.00000000000E+00  0.86335277206E+02  0.86335277206E+02  0.00000000000E+00 0.  1.
          2   -1    0    0  502    0  0.00000000000E+00 -0.00000000000E+00 -0.48100047529E+03  0.48100047529E+03  0.00000000000E+00 0. -1.
          6    1    1    2  502    0  0.10162373043E+03 -0.37894356871E+02 -0.21600553254E+03  0.29665763931E+03  0.17200000000E+03 0. -1.
         -6    1    1    2    0  501 -0.10162373043E+03  0.37894356871E+02 -0.17865966554E+03  0.27067811319E+03  0.17200000000E+03 0. -1.
</event>
<event>
 4    1  0.3190379E-002  0.1762831E+03  0.7818608E-02  0.1171450E+00
          2   -1    0    0  502    0  0.00000000000E+00  0.00000000000E+00  0.85722651196E+03  0.85722651196E+03  0.00000000000E+00 0. -1.
         -2   -1    0    0    0  501 -0.00000000000E+00 -0.00000000000E+00 -0.52136571607E+02  0.52136571607E+02  0.00000000000E+00 0.  1.
          6    1    1    2  502    0 -0.23078428150E+02  0.30969394704E+02  0.65352036748E+03  0.67687856220E+03  0.17200000000E+03 0. -1.
         -6    1    1    2    0  501  0.23078428150E+02 -0.30969394704E+02  0.15156957287E+03  0.23248452137E+03  0.17200000000E+03 0.  1.
</event>
<event>
 4    1  0.3190379E-002  0.1809594E+03  0.7818608E-02  0.1166878E+00
          2   -1    0    0  502    0  0.00000000000E+00  0.00000000000E+00  0.15463555187E+04  0.15463555187E+04  0.00000000000E+00 0. -1.
         -2   -1    0    0    0  501 -0.00000000000E+00 -0.00000000000E+00 -0.21975430837E+02  0.21975430837E+02  0.00000000000E+00 0.  1.
          6    1    1    2  502    0 -0.23033829014E+02 -0.51300572764E+02  0.91171363173E+03  0.92949881782E+03  0.17200000000E+03 0. -1.
         -6    1    1    2    0  501  0.23033829014E+02  0.51300572764E+02  0.61266645614E+03  0.63883213172E+03  0.17200000000E+03 0. -1.
</event>
<event>
 4    1  0.3190379E-002  0.9662662E+03  0.7818608E-02  0.9346337E-01
         -2   -1    0    0    0  501 -0.00000000000E+00  0.00000000000E+00  0.57125100355E+03  0.57125100355E+03  0.00000000000E+00 0.  1.
          2   -1    0    0  502    0  0.00000000000E+00 -0.00000000000E+00 -0.20464292259E+04  0.20464292259E+04  0.00000000000E+00 0. -1.
          6    1    1    2  502    0  0.91053054715E+03 -0.27389880157E+03 -0.13248564257E+04  0.16397911390E+04  0.17200000000E+03 0. -1.
         -6    1    1    2    0  501 -0.91053054715E+03  0.27389880157E+03 -0.15032179672E+03  0.97788909052E+03  0.17200000000E+03 0.  1.
</event>
<event>
 4    1  0.3190379E-002  0.3637719E+03  0.7818608E-02  0.1057100E+00
          2   -1    0    0  502    0  0.00000000000E+00  0.00000000000E+00  0.83239900823E+03  0.83239900823E+03  0.00000000000E+00 0. -1.
         -2   -1    0    0    0  501 -0.00000000000E+00 -0.00000000000E+00 -0.23928564359E+03  0.23928564359E+03  0.00000000000E+00 0.  1.
          6    1    1    2  502    0  0.20165980972E+03  0.24915723177E+03  0.60698925540E+03  0.70764819025E+03  0.17200000000E+03 0. -1.
         -6    1    1    2    0  501 -0.20165980972E+03 -0.24915723177E+03 -0.13875890764E+02  0.36403646156E+03  0.17200000000E+03 0.  1.
</event>
<event>
 4    1  0.3190379E-002  0.2123038E+03  0.7818608E-02  0.1139755E+00
         -2   -1    0    0    0  501 -0.00000000000E+00  0.00000000000E+00  0.19301496365E+03  0.19301496365E+03  0.00000000000E+00 0.  1.
          2   -1    0    0  502    0  0.00000000000E+00 -0.00000000000E+00 -0.29615406650E+03  0.29615406650E+03  0.00000000000E+00 0. -1.
          6    1    1    2  502    0 -0.11831618719E+03  0.38602864129E+02 -0.16404936006E+03  0.26830037981E+03  0.17200000000E+03 0. -1.
         -6    1    1    2    0  501  0.11831618719E+03 -0.38602864129E+02  0.60910257203E+02  0.22086865034E+03  0.17200000000E+03 0.  1.
</event>
<event>
 4    1  0.3190379E-002  0.1921307E+03  0.7818608E-02  0.1156553E+00
          3   -1    0    0  502    0  0.00000000000E+00  0.00000000000E+00  0.30367440397E+03  0.30367440397E+03  0.00000000000E+00 0. -1.
         -3   -1    0    0    0  501 -0.00000000000E+00 -0.00000000000E+00 -0.12672029963E+03  0.12672029963E+03  0.00000000000E+00 0.  1.
          6    1    1    2  502    0  0.32542810054E+02 -0.79190806317E+02  0.13190932549E+03  0.23305426073E+03  0.17200000000E+03 0. -1.
         -6    1    1    2    0  501 -0.32542810054E+02  0.79190806317E+02  0.45044778847E+02  0.19734044287E+03  0.17200000000E+03 0.  1.
</event>
<event>
 4    1  0.3190379E-002  0.3984929E+03  0.7818608E-02  0.1044303E+00
          2   -1    0    0  502    0  0.00000000000E+00  0.00000000000E+00  0.79796946171E+03  0.79796946171E+03  0.00000000000E+00 0. -1.
         -2   -1    0    0    0  501 -0.00000000000E+00 -0.00000000000E+00 -0.38832879993E+03  0.38832879993E+03  0.00000000000E+00 0.  1.
          6    1    1    2  502    0  0.11693827471E+03  0.33990882061E+03  0.61898353715E+03  0.73616383074E+03  0.17200000000E+03 0. -1.
         -6    1    1    2    0  501 -0.11693827471E+03 -0.33990882061E+03 -0.20934287536E+03  0.45013443090E+03  0.17200000000E+03 0.  1.
</event>
<event>
 4    1  0.3190379E-002  0.3955853E+03  0.7818608E-02  0.1045319E+00
         -1   -1    0    0    0  501 -0.00000000000E+00  0.00000000000E+00  0.12065518666E+04  0.12065518666E+04  0.00000000000E+00 0.  1.
          1   -1    0    0  502    0  0.00000000000E+00 -0.00000000000E+00 -0.19084728718E+03  0.19084728718E+03  0.00000000000E+00 0. -1.
          6    1    1    2  502    0  0.50975489868E+02  0.35256952272E+03  0.11235638357E+03  0.41123196112E+03  0.17200000000E+03 0. -1.
         -6    1    1    2    0  501 -0.50975489868E+02 -0.35256952272E+03  0.90334819586E+03  0.98616719266E+03  0.17200000000E+03 0.  1.
</event>
<event>
 4    1  0.3190379E-002  0.2588237E+03  0.7818608E-02  0.1107852E+00
         -1   -1    0    0    0  501 -0.00000000000E+00  0.00000000000E+00  0.27878753124E+03  0.27878753124E+03  0.00000000000E+00 0.  1.
          1   -1    0    0  502    0  0.00000000000E+00 -0.00000000000E+00 -0.29694226936E+03  0.29694226936E+03  0.00000000000E+00 0. -1.
          6    1    1    2  502    0  0.87833958146E+02  0.17231054055E+03  0.11665964298E+03  0.28389998043E+03  0.17200000000E+03 0.  1.
         -6    1    1    2    0  501 -0.87833958146E+02 -0.17231054055E+03 -0.13481438111E+03  0.29182982017E+03  0.17200000000E+03 0.  1.
</event>
<event>
 4    1  0.3190379E-002  0.1782947E+03  0.7818608E-02  0.1169464E+00
          2   -1    0    0  502    0  0.00000000000E+00  0.00000000000E+00  0.11615482195E+04  0.11615482195E+04  0.00000000000E+00 0. -1.
         -2   -1    0    0    0  501 -0.00000000000E+00 -0.00000000000E+00 -0.31638488375E+02  0.31638488375E+02  0.00000000000E+00 0.  1.
          6    1    1    2  502    0 -0.36646185075E+02  0.29360879395E+02  0.34576515819E+03  0.38902769662E+03  0.17200000000E+03 0.  1.
         -6    1    1    2    0  501  0.36646185075E+02 -0.29360879395E+02  0.78414457296E+03  0.80415901128E+03  0.17200000000E+03 0. -1.
</event>
<event>
 4    1  0.3190379E-002  0.3118502E+03  0.7818608E-02  0.1079462E+00
         -2   -1    0    0    0  501 -0.00000000000E+00  0.00000000000E+00  0.17442556994E+03  0.17442556994E+03  0.00000000000E+00 0.  1.
          2   -1    0    0  502    0  0.00000000000E+00 -0.00000000000E+00 -0.80701297120E+03  0.80701297120E+03  0.00000000000E+00 0. -1.
          6    1    1    2  502    0 -0.25858344248E+03 -0.28305072194E+02 -0.58912733635E+03  0.66657452116E+03  0.17200000000E+03 0. -1.
         -6    1    1    2    0  501  0.25858344248E+03  0.28305072194E+02 -0.43460064911E+02  0.31486401998E+03  0.17200000000E+03 0.  1.
</event>
<event>
 4    1  0.3190379E-002  0.1815579E+03  0.7818608E-02  0.1166304E+00
         -1   -1    0    0    0  501 -0.00000000000E+00  0.00000000000E+00  0.48549266759E+02  0.48549266759E+02  0.00000000000E+00 0.  1.
          1   -1    0    0  502    0  0.00000000000E+00 -0.00000000000E+00 -0.88430908943E+03  0.88430908943E+03  0.00000000000E+00 0. -1.
          6    1    1    2  502    0  0.45328073813E+01  0.57954570854E+02 -0.64264259510E+03  0.66779696290E+03  0.17200000000E+03 0. -1.
         -6    1    1    2    0  501 -0.45328073813E+01 -0.57954570854E+02 -0.19311722757E+03  0.26506139328E+03  0.17200000000E+03 0.  1.
</event>
<event>
 4    1  0.3190379E-002  0.1732760E+03  0.7818608E-02  0.1174474E+00
         -2   -1    0    0    0  501 -0.00000000000E+00  0.00000000000E+00  0.10723322720E+02  0.10723322720E+02  0.00000000000E+00 0.  1.
          2   -1    0    0  502    0  0.00000000000E+00 -0.00000000000E+00 -0.33515168725E+04  0.33515168725E+04  0.00000000000E+00 0. -1.
          6    1    1    2  502    0 -0.63712517110E+00 -0.20979779524E+02 -0.23523975144E+04  0.23587705745E+04  0.17200000000E+03 0. -1.
         -6    1    1    2    0  501  0.63712517110E+00  0.20979779524E+02 -0.98839603535E+03  0.10034696208E+04  0.17200000000E+03 0.  1.
</event>
<event>
 4    1  0.3190379E-002  0.1772705E+03  0.7818608E-02  0.1170471E+00
         -2   -1    0    0    0  501 -0.00000000000E+00  0.00000000000E+00  0.20853879547E+02  0.20853879547E+02  0.00000000000E+00 0.  1.
          2   -1    0    0  502    0  0.00000000000E+00 -0.00000000000E+00 -0.16859421768E+04  0.16859421768E+04  0.00000000000E+00 0. -1.
          6    1    1    2  502    0 -0.22522850547E+02  0.36517616964E+02 -0.11106447451E+04  0.11247028785E+04  0.17200000000E+03 0. -1.
         -6    1    1    2    0  501  0.22522850547E+02 -0.36517616964E+02 -0.55444355221E+03  0.58209317788E+03  0.17200000000E+03 0. -1.
</event>
<event>
 4    1  0.3190379E-002  0.1818126E+03  0.7818608E-02  0.1166060E+00
          1   -1    0    0  502    0  0.00000000000E+00  0.00000000000E+00  0.22359725738E+04  0.22359725738E+04  0.00000000000E+00 0. -1.
         -1   -1    0    0    0  501 -0.00000000000E+00 -0.00000000000E+00 -0.15035826186E+02  0.15035826186E+02  0.00000000000E+00 0.  1.
          6    1    1    2  502    0  0.43187404773E+02 -0.40083396351E+02  0.96470863979E+03  0.98169169818E+03  0.17200000000E+03 0. -1.
         -6    1    1    2    0  501 -0.43187404773E+02  0.40083396351E+02  0.12562281079E+04  0.12693167019E+04  0.17200000000E+03 0.  1.
</event>
<event>
 4    1  0.3190379E-002  0.2547259E+03  0.7818608E-02  0.1110354E+00
          2   -1    0    0  502    0  0.00000000000E+00  0.00000000000E+00  0.12887131499E+03  0.12887131499E+03  0.00000000000E+00 0. -1.
         -2   -1    0    0    0  501 -0.00000000000E+00 -0.00000000000E+00 -0.63225431053E+03  0.63225431053E+03  0.00000000000E+00 0.  1.
          6    1    1    2  502    0  0.15369351763E+03  0.10807211846E+03 -0.79948115658E+02  0.26697749221E+03  0.17200000000E+03 0. -1.
         -6    1    1    2    0  501 -0.15369351763E+03 -0.10807211846E+03 -0.42343487988E+03  0.49414813331E+03  0.17200000000E+03 0.  1.
</event>
<event>
 4    1  0.3190379E-002  0.3772235E+03  0.7818608E-02  0.1051965E+00
          1   -1    0    0  502    0  0.00000000000E+00  0.00000000000E+00  0.12705560475E+04  0.12705560475E+04  0.00000000000E+00 0. -1.
         -1   -1    0    0    0  501 -0.00000000000E+00 -0.00000000000E+00 -0.13173185743E+03  0.13173185743E+03  0.00000000000E+00 0.  1.
          6    1    1    2  502    0 -0.28577987814E+03  0.17619150614E+03  0.84079744697E+03  0.92154106388E+03  0.17200000000E+03 0. -1.
         -6    1    1    2    0  501  0.28577987814E+03 -0.17619150614E+03  0.29802674310E+03  0.48074684106E+03  0.17200000000E+03 0.  1.
</event>
<event>
 4    1  0.3190379E-002  0.2217191E+03  0.7818608E-02  0.1132608E+00
         -2   -1    0    0    0  501 -0.00000000000E+00  0.00000000000E+00  0.14319145956E+03  0.14319145956E+03  0.00000000000E+00 0.  1.
          2   -1    0    0  502    0  0.00000000000E+00 -0.00000000000E+00 -0.59402475705E+03  0.59402475705E+03  0.00000000000E+00 0. -1.
          6    1    1    2  502    0 -0.70604044664E+02 -0.12079077016E+03  0.14053210361E+02  0.22216397998E+03  0.17200000000E+03 0. -1.
         -6    1    1    2    0  501  0.70604044664E+02  0.12079077016E+03 -0.46488650784E+03  0.51505223663E+03  0.17200000000E+03 0. -1.
</event>
<event>
 4    1  0.3190379E-002  0.1794806E+03  0.7818608E-02  0.1168307E+00
         -2   -1    0    0    0  501 -0.00000000000E+00  0.00000000000E+00  0.47750223931E+02  0.47750223931E+02  0.00000000000E+00 0.  1.
          2   -1    0    0  502    0  0.00000000000E+00 -0.00000000000E+00 -0.97032283822E+03  0.97032283822E+03  0.00000000000E+00 0. -1.
          6    1    1    2  502    0 -0.10523518268E+02  0.50185032843E+02 -0.74229397607E+03  0.76368424684E+03  0.17200000000E+03 0. -1.
         -6    1    1    2    0  501  0.10523518268E+02 -0.50185032843E+02 -0.18027863822E+03  0.25438881531E+03  0.17200000000E+03 0.  1.
</event>
<event>
 4    1  0.3190379E-002  0.2642487E+03  0.7818608E-02  0.1104617E+00
          2   -1    0    0  502    0  0.00000000000E+00  0.00000000000E+00  0.14710879783E+04  0.14710879783E+04  0.00000000000E+00 0. -1.
         -2   -1    0    0    0  501 -0.00000000000E+00 -0.00000000000E+00 -0.48947002218E+02  0.48947002218E+02  0.00000000000E+00 0.  1.
          6    1    1    2  502    0 -0.13402095952E+03  0.14927081283E+03  0.57889056209E+03  0.63635027778E+03  0.17200000000E+03 0.  1.
         -6    1    1    2    0  501  0.13402095952E+03 -0.14927081283E+03  0.84325041397E+03  0.88368470272E+03  0.17200000000E+03 0.  1.
</event>
<event>
 4    1  0.3190379E-002  0.1984368E+03  0.7818608E-02  0.1151065E+00
          1   -1    0    0  502    0  0.00000000000E+00  0.00000000000E+00  0.17181007143E+04  0.17181007143E+04  0.00000000000E+00 0. -1.
         -1   -1    0    0    0  501 -0.00000000000E+00 -0.00000000000E+00 -0.44147578576E+02  0.44147578576E+02  0.00000000000E+00 0.  1.
          6    1    1    2  502    0  0.97037693010E+02 -0.19412295392E+02  0.14479806500E+04  0.14615146643E+04  0.17200000000E+03 0. -1.
         -6    1    1    2    0  501 -0.97037693010E+02  0.19412295392E+02  0.22597248574E+03  0.30073362863E+03  0.17200000000E+03 0.  1.
</event>
<event>
 4    1  0.3190379E-002  0.2659769E+03  0.7818608E-02  0.1103604E+00
         -1   -1    0    0    0  501 -0.00000000000E+00  0.00000000000E+00  0.12971734100E+03  0.12971734100E+03  0.00000000000E+00 0.  1.
          1   -1    0    0  502    0  0.00000000000E+00 -0.00000000000E+00 -0.76884739956E+03  0.76884739956E+03  0.00000000000E+00 0. -1.
          6    1    1    2  502    0  0.18004406301E+03  0.93508540097E+02 -0.77340643108E+02  0.27699329734E+03  0.17200000000E+03 0. -1.
         -6    1    1    2    0  501 -0.18004406301E+03 -0.93508540097E+02 -0.56178941545E+03  0.62157144321E+03  0.17200000000E+03 0.  1.
</event>
<event>
 4    1  0.3190379E-002  0.1952396E+03  0.7818608E-02  0.1153819E+00
         -2   -1    0    0    0  501 -0.00000000000E+00  0.00000000000E+00  0.11145438300E+03  0.11145438300E+03  0.00000000000E+00 0.  1.
          2   -1    0    0  502    0  0.00000000000E+00 -0.00000000000E+00 -0.35310149919E+03  0.35310149919E+03  0.00000000000E+00 0. -1.
          6    1    1    2  502    0 -0.10496271551E+02 -0.91784235557E+02 -0.16199087813E+03  0.25369186469E+03  0.17200000000E+03 0.  1.
         -6    1    1    2    0  501  0.10496271551E+02  0.91784235557E+02 -0.79656238056E+02  0.21086401750E+03  0.17200000000E+03 0. -1.
</event>
<event>
 4    1  0.3190379E-002  0.2007236E+03  0.7818608E-02  0.1149130E+00
          1   -1    0    0  502    0  0.00000000000E+00  0.00000000000E+00  0.82339057247E+02  0.82339057247E+02  0.00000000000E+00 0. -1.
         -1   -1    0    0    0  501 -0.00000000000E+00 -0.00000000000E+00 -0.57754135472E+03  0.57754135472E+03  0.00000000000E+00 0.  1.
          6    1    1    2  502    0 -0.38926614809E+02  0.95868024466E+02 -0.11864674438E+03  0.23316734207E+03  0.17200000000E+03 0.  1.
         -6    1    1    2    0  501  0.38926614809E+02 -0.95868024466E+02 -0.37655555309E+03  0.42671306989E+03  0.17200000000E+03 0.  1.
</event>
<event>
 4    1  0.3190379E-002  0.2718253E+03  0.7818608E-02  0.1100239E+00
          2   -1    0    0  502    0  0.00000000000E+00  0.00000000000E+00  0.17648407437E+04  0.17648407437E+04  0.00000000000E+00 0. -1.
         -2   -1    0    0    0  501 -0.00000000000E+00 -0.00000000000E+00 -0.72888669106E+02  0.72888669106E+02  0.00000000000E+00 0.  1.
          6    1    1    2  502    0  0.13465421461E+03 -0.16178149961E+03  0.14454253414E+04  0.14707628731E+04  0.17200000000E+03 0. -1.
         -6    1    1    2    0  501 -0.13465421461E+03  0.16178149961E+03  0.24652673317E+03  0.36696653975E+03  0.17200000000E+03 0.  1.
</event>
<event>
 4    1  0.3190379E-002  0.2419762E+03  0.7818608E-02  0.1118483E+00
         -2   -1    0    0    0  501 -0.00000000000E+00  0.00000000000E+00  0.16189293054E+03  0.16189293054E+03  0.00000000000E+00 0.  1.
          2   -1    0    0  502    0  0.00000000000E+00 -0.00000000000E+00 -0.49749257656E+03  0.49749257656E+03  0.00000000000E+00 0. -1.
          6    1    1    2  502    0 -0.70091874361E+01  0.17005687974E+03 -0.34006425426E+03  0.41736814454E+03  0.17200000000E+03 0. -1.
         -6    1    1    2    0  501  0.70091874361E+01 -0.17005687974E+03  0.44646082334E+01  0.24201736256E+03  0.17200000000E+03 0.  1.
</event>
<event>
 4    1  0.3190379E-002  0.2614134E+03  0.7818608E-02  0.1106297E+00
         -1   -1    0    0    0  501 -0.00000000000E+00  0.00000000000E+00  0.32688402709E+02  0.32688402709E+02  0.00000000000E+00 0.  1.
          1   -1    0    0  502    0  0.00000000000E+00 -0.00000000000E+00 -0.21899326291E+04  0.21899326291E+04  0.00000000000E+00 0. -1.
          6    1    1    2  502    0 -0.18651964872E+03 -0.62955632087E+02 -0.13153549653E+04  0.13410800407E+04  0.17200000000E+03 0. -1.
         -6    1    1    2    0  501  0.18651964872E+03  0.62955632087E+02 -0.84188926111E+03  0.88154099107E+03  0.17200000000E+03 0.  1.
</event>
<event>
 4    1  0.3190379E-002  0.4151664E+03  0.7818608E-02  0.1038651E+00
         -1   -1    0    0    0  501 -0.00000000000E+00  0.00000000000E+00  0.19591432982E+04  0.19591432982E+04  0.00000000000E+00 0.  1.
          1   -1    0    0  502    0  0.00000000000E+00 -0.00000000000E+00 -0.10624295469E+03  0.10624295469E+03  0.00000000000E+00 0. -1.
          6    1    1    2  502    0 -0.27273568283E+03  0.26152314162E+03  0.49827564801E+03  0.64856898453E+03  0.17200000000E+03 0. -1.
         -6    1    1    2    0  501  0.27273568283E+03 -0.26152314162E+03  0.13546246954E+04  0.14168172683E+04  0.17200000000E+03 0.  1.
</event>
<event>
 4    1  0.3190379E-002  0.1907488E+03  0.7818608E-02  0.1157788E+00
          4   -1    0    0  502    0  0.00000000000E+00  0.00000000000E+00  0.10343291313E+03  0.10343291313E+03  0.00000000000E+00 0. -1.
         -4   -1    0    0    0  501 -0.00000000000E+00 -0.00000000000E+00 -0.38157181249E+03  0.38157181249E+03  0.00000000000E+00 0.  1.
          6    1    1    2  502    0 -0.82438345934E+02 -0.22439683583E+01 -0.71303347494E+02  0.20364008357E+03  0.17200000000E+03 0. -1.
         -6    1    1    2    0  501  0.82438345934E+02  0.22439683583E+01 -0.20683555187E+03  0.28136464204E+03  0.17200000000E+03 0.  1.
</event>
<event>
 4    1  0.3190379E-002  0.1855559E+03  0.7818608E-02  0.1162532E+00
         -3   -1    0    0    0  501 -0.00000000000E+00  0.00000000000E+00  0.37685960373E+03  0.37685960373E+03  0.00000000000E+00 0.  1.
          3   -1    0    0  502    0  0.00000000000E+00 -0.00000000000E+00 -0.95241147640E+02  0.95241147640E+02  0.00000000000E+00 0. -1.
          6    1    1    2  502    0  0.36600897828E+02  0.59222921937E+02  0.93175885449E+02  0.20763604175E+03  0.17200000000E+03 0. -1.
         -6    1    1    2    0  501 -0.36600897828E+02 -0.59222921937E+02  0.18844257064E+03  0.26446470962E+03  0.17200000000E+03 0.  1.
</event>
<event>
 4    1  0.3190379E-002  0.2255253E+03  0.7818608E-02  0.1129830E+00
          1   -1    0    0  502    0  0.00000000000E+00  0.00000000000E+00  0.51632987754E+02  0.51632987754E+02  0.00000000000E+00 0. -1.
         -1   -1    0    0    0  501 -0.00000000000E+00 -0.00000000000E+00 -0.98541904448E+03  0.98541904448E+03  0.00000000000E+00 0.  1.
          6    1    1    2  502    0  0.31808220771E+00  0.14586825813E+03 -0.45701108986E+03  0.50962808612E+03  0.17200000000E+03 0.  1.
         -6    1    1    2    0  501 -0.31808220771E+00 -0.14586825813E+03 -0.47677496686E+03  0.52742394611E+03  0.17200000000E+03 0.  1.
</event>
<event>
 4    1  0.3190379E-002  0.2064557E+03  0.7818608E-02  0.1144404E+00
         -2   -1    0    0    0  501 -0.00000000000E+00  0.00000000000E+00  0.19561295616E+02  0.19561295616E+02  0.00000000000E+00 0.  1.
          2   -1    0    0  502    0  0.00000000000E+00 -0.00000000000E+00 -0.37004779097E+04  0.37004779097E+04  0.00000000000E+00 0. -1.
          6    1    1    2  502    0 -0.46931587604E+02 -0.10410270147E+03 -0.30331337874E+04  0.30401520552E+04  0.17200000000E+03 0. -1.
         -6    1    1    2    0  501  0.46931587604E+02  0.10410270147E+03 -0.64778282667E+03  0.67988715012E+03  0.17200000000E+03 0.  1.
</event>
<event>
 4    1  0.3190379E-002  0.1862039E+03  0.7818608E-02  0.1161930E+00
          1   -1    0    0  502    0  0.00000000000E+00  0.00000000000E+00  0.29992841078E+03  0.29992841078E+03  0.00000000000E+00 0. -1.
         -1   -1    0    0    0  501 -0.00000000000E+00 -0.00000000000E+00 -0.11681606620E+03  0.11681606620E+03  0.00000000000E+00 0.  1.
          6    1    1    2  502    0  0.62777533785E+02 -0.33865449430E+02  0.11281160918E+03  0.21771161333E+03  0.17200000000E+03 0. -1.
         -6    1    1    2    0  501 -0.62777533785E+02  0.33865449430E+02  0.70300735404E+02  0.19903286365E+03  0.17200000000E+03 0. -1.
</event>
<event>
 4    1  0.3190379E-002  0.1732950E+03  0.7818608E-02  0.1174455E+00
         -2   -1    0    0    0  501 -0.00000000000E+00  0.00000000000E+00  0.10315436265E+03  0.10315436265E+03  0.00000000000E+00 0.  1.
          2   -1    0    0  502    0  0.00000000000E+00 -0.00000000000E+00 -0.13305997101E+04  0.13305997101E+04  0.00000000000E+00 0. -1.
          6    1    1    2  502    0 -0.21126072498E+02 -0.92824236387E+00 -0.12473402180E+04  0.12593207662E+04  0.17200000000E+03 0. -1.
         -6    1    1    2    0  501  0.21126072498E+02  0.92824236387E+00  0.19894870584E+02  0.17443330659E+03  0.17200000000E+03 0.  1.
</event>
<event>
 4    1  0.3190379E-002  0.2420839E+03  0.7818608E-02  0.1118412E+00
          2   -1    0    0  502    0  0.00000000000E+00  0.00000000000E+00  0.81923898922E+02  0.81923898922E+02  0.00000000000E+00 0. -1.
         -2   -1    0    0    0  501 -0.00000000000E+00 -0.00000000000E+00 -0.84152964671E+03  0.84152964671E+03  0.00000000000E+00 0.  1.
          6    1    1    2  502    0 -0.79085872161E+02  0.15088423598E+03 -0.55859043351E+03  0.60879216507E+03  0.17200000000E+03 0. -1.
         -6    1    1    2    0  501  0.79085872161E+02 -0.15088423598E+03 -0.20101531428E+03  0.31466138056E+03  0.17200000000E+03 0. -1.
</event>
<event>
 4    1  0.3190379E-002  0.3739146E+03  0.7818608E-02  0.1053206E+00
         -2   -1    0    0    0  501 -0.00000000000E+00  0.00000000000E+00  0.88140243378E+02  0.88140243378E+02  0.00000000000E+00 0.  1.
          2   -1    0    0  502    0  0.00000000000E+00 -0.00000000000E+00 -0.15945236376E+04  0.15945236376E+04  0.00000000000E+00 0. -1.
          6    1    1    2  502    0 -0.33082893405E+03  0.27934238503E+02 -0.69257307539E+03  0.78706389197E+03  0.17200000000E+03 0.  1.
         -6    1    1    2    0  501  0.33082893405E+03 -0.27934238503E+02 -0.81381031887E+03  0.89559998905E+03  0.17200000000E+03 0. -1.
</event>
<event>
 4    1  0.3190379E-002  0.1806024E+03  0.7818608E-02  0.1167221E+00
          2   -1    0    0  502    0  0.00000000000E+00  0.00000000000E+00  0.30686569741E+04  0.30686569741E+04  0.00000000000E+00 0. -1.
         -2   -1    0    0    0  501 -0.00000000000E+00 -0.00000000000E+00 -0.11006735857E+02  0.11006735857E+02  0.00000000000E+00 0.  1.
          6    1    1    2  502    0  0.15509510240E+02 -0.52845927408E+02  0.18140240051E+04  0.18229921361E+04  0.17200000000E+03 0. -1.
         -6    1    1    2    0  501 -0.15509510240E+02  0.52845927408E+02  0.12436262331E+04  0.12566715738E+04  0.17200000000E+03 0.  1.
</event>
<event>
 4    1  0.3190379E-002  0.2201976E+03  0.7818608E-02  0.1133736E+00
          1   -1    0    0  502    0  0.00000000000E+00  0.00000000000E+00  0.19289561164E+03  0.19289561164E+03  0.00000000000E+00 0. -1.
         -1   -1    0    0    0  501 -0.00000000000E+00 -0.00000000000E+00 -0.37370319855E+03  0.37370319855E+03  0.00000000000E+00 0.  1.
          6    1    1    2  502    0 -0.89392778182E+02 -0.10446011903E+03  0.71689602646E+02  0.23157371264E+03  0.17200000000E+03 0. -1.
         -6    1    1    2    0  501  0.89392778182E+02  0.10446011903E+03 -0.25249718956E+03  0.33502509756E+03  0.17200000000E+03 0.  1.
</event>
<event>
 4    1  0.3190379E-002  0.2302995E+03  0.7818608E-02  0.1126429E+00
         -2   -1    0    0    0  501 -0.00000000000E+00  0.00000000000E+00  0.24357447863E+02  0.24357447863E+02  0.00000000000E+00 0.  1.
          2   -1    0    0  502    0  0.00000000000E+00 -0.00000000000E+00 -0.28824401154E+04  0.28824401154E+04  0.00000000000E+00 0. -1.
          6    1    1    2  502    0 -0.19781149805E+02 -0.15186361860E+03 -0.21478063927E+04  0.21601180878E+04  0.17200000000E+03 0. -1.
         -6    1    1    2    0  501  0.19781149805E+02  0.15186361860E+03 -0.71027627483E+03  0.74667947550E+03  0.17200000000E+03 0.  1.
</event>
<event>
 4    1  0.3190379E-002  0.2428179E+03  0.7818608E-02  0.1117930E+00
          2   -1    0    0  502    0  0.00000000000E+00  0.00000000000E+00  0.12860160629E+03  0.12860160629E+03  0.00000000000E+00 0. -1.
         -2   -1    0    0    0  501 -0.00000000000E+00 -0.00000000000E+00 -0.48471145461E+03  0.48471145461E+03  0.00000000000E+00 0.  1.
          6    1    1    2  502    0  0.16322048508E+03  0.52303093713E+02 -0.10670913135E+03  0.26523080340E+03  0.17200000000E+03 0. -1.
         -6    1    1    2    0  501 -0.16322048508E+03 -0.52303093713E+02 -0.24940071697E+03  0.34808225750E+03  0.17200000000E+03 0.  1.
</event>
<event>
 4    1  0.3190379E-002  0.2862307E+03  0.7818608E-02  0.1092334E+00
          2   -1    0    0  502    0  0.00000000000E+00  0.00000000000E+00  0.31818601916E+03  0.31818601916E+03  0.00000000000E+00 0. -1.
         -2   -1    0    0    0  501 -0.00000000000E+00 -0.00000000000E+00 -0.43292244211E+03  0.43292244211E+03  0.00000000000E+00 0.  1.
          6    1    1    2  502    0  0.15877882176E+03  0.16472181805E+03  0.18170409945E+03  0.33903446925E+03  0.17200000000E+03 0. -1.
         -6    1    1    2    0  501 -0.15877882176E+03 -0.16472181805E+03 -0.29644052239E+03  0.41207399202E+03  0.17200000000E+03 0. -1.
</event>
<event>
 4    1  0.3190379E-002  0.1774648E+03  0.7818608E-02  0.1170279E+00
          2   -1    0    0  502    0  0.00000000000E+00  0.00000000000E+00  0.29068202754E+04  0.29068202754E+04  0.00000000000E+00 0. -1.
         -2   -1    0    0    0  501 -0.00000000000E+00 -0.00000000000E+00 -0.30151003921E+02  0.30151003921E+02  0.00000000000E+00 0.  1.
          6    1    1    2  502    0  0.16949687992E+01 -0.43667677561E+02  0.26137297266E+04  0.26197474731E+04  0.17200000000E+03 0. -1.
         -6    1    1    2    0  501 -0.16949687992E+01  0.43667677561E+02  0.26293954484E+03  0.31722380621E+03  0.17200000000E+03 0.  1.
</event>
<event>
 4    1  0.3190379E-002  0.6460819E+03  0.7818608E-02  0.9814159E-01
         -1   -1    0    0    0  501 -0.00000000000E+00  0.00000000000E+00  0.29053099672E+03  0.29053099672E+03  0.00000000000E+00 0.  1.
          1   -1    0    0  502    0  0.00000000000E+00 -0.00000000000E+00 -0.17058733888E+04  0.17058733888E+04  0.00000000000E+00 0. -1.
          6    1    1    2  502    0  0.46727977334E+03  0.41168845372E+03 -0.11041473455E+04  0.12792822715E+04  0.17200000000E+03 0. -1.
         -6    1    1    2    0  501 -0.46727977334E+03 -0.41168845372E+03 -0.31119504662E+03  0.71712211411E+03  0.17200000000E+03 0.  1.
</event>
<event>
 4    1  0.3190379E-002  0.7420218E+03  0.7818608E-02  0.9647951E-01
         -2   -1    0    0    0  501 -0.00000000000E+00  0.00000000000E+00  0.74086762638E+03  0.74086762638E+03  0.00000000000E+00 0.  1.
          2   -1    0    0  502    0  0.00000000000E+00 -0.00000000000E+00 -0.86446508532E+03  0.86446508532E+03  0.00000000000E+00 0. -1.
          6    1    1    2  502    0 -0.66981113701E+03 -0.26900822344E+03 -0.36245408383E+03  0.82581435348E+03  0.17200000000E+03 0. -1.
         -6    1    1    2    0  501  0.66981113701E+03  0.26900822344E+03  0.23885662489E+03  0.77951835821E+03  0.17200000000E+03 0.  1.
</event>
<event>
 4    1  0.3190379E-002  0.2559404E+03  0.7818608E-02  0.1109607E+00
          2   -1    0    0  502    0  0.00000000000E+00  0.00000000000E+00  0.74808666271E+03  0.74808666271E+03  0.00000000000E+00 0. -1.
         -2   -1    0    0    0  501 -0.00000000000E+00 -0.00000000000E+00 -0.92722230981E+02  0.92722230981E+02  0.00000000000E+00 0.  1.
          6    1    1    2  502    0  0.39686298123E+02 -0.18532811198E+03  0.42683910613E+03  0.49769180611E+03  0.17200000000E+03 0.  1.
         -6    1    1    2    0  501 -0.39686298123E+02  0.18532811198E+03  0.22852532559E+03  0.34311708758E+03  0.17200000000E+03 0.  1.
</event>
<event>
 4    1  0.3190379E-002  0.1743194E+03  0.7818608E-02  0.1173417E+00
         -1   -1    0    0    0  501 -0.00000000000E+00  0.00000000000E+00  0.57970832083E+02  0.57970832083E+02  0.00000000000E+00 0.  1.
          1   -1    0    0  502    0  0.00000000000E+00 -0.00000000000E+00 -0.57084885879E+03  0.57084885879E+03  0.00000000000E+00 0. -1.
          6    1    1    2  502    0 -0.48720284347E+01  0.27919717117E+02 -0.16654279698E+03  0.24108867765E+03  0.17200000000E+03 0.  1.
         -6    1    1    2    0  501  0.48720284347E+01 -0.27919717117E+02 -0.34633522972E+03  0.38773101322E+03  0.17200000000E+03 0. -1.
</event>
<event>
 4    1  0.3190379E-002  0.2177763E+03  0.7818608E-02  0.1135552E+00
          2   -1    0    0  502    0  0.00000000000E+00  0.00000000000E+00  0.24887553220E+04  0.24887553220E+04  0.00000000000E+00 0. -1.
         -2   -1    0    0    0  501 -0.00000000000E+00 -0.00000000000E+00 -0.20714423702E+02  0.20714423702E+02  0.00000000000E+00 0.  1.
          6    1    1    2  502    0 -0.13123221056E+03 -0.24911958351E+02  0.15890155735E+04  0.16038693811E+04  0.17200000000E+03 0.  1.
         -6    1    1    2    0  501  0.13123221056E+03  0.24911958351E+02  0.87902532475E+03  0.90560036457E+03  0.17200000000E+03 0.  1.
</event>
<event>
 4    1  0.3190379E-002  0.2041721E+03  0.7818608E-02  0.1146266E+00
         -2   -1    0    0    0  501 -0.00000000000E+00  0.00000000000E+00  0.11424143552E+03  0.11424143552E+03  0.00000000000E+00 0.  1.
          2   -1    0    0  502    0  0.00000000000E+00 -0.00000000000E+00 -0.45765027110E+03  0.45765027110E+03  0.00000000000E+00 0. -1.
          6    1    1    2  502    0  0.88008548610E+02 -0.66005567844E+02 -0.30043566172E+03  0.36324623391E+03  0.17200000000E+03 0. -1.
         -6    1    1    2    0  501 -0.88008548610E+02  0.66005567844E+02 -0.42973173863E+02  0.20864547272E+03  0.17200000000E+03 0.  1.
</event>
<event>
 4    1  0.3190379E-002  0.2678611E+03  0.7818608E-02  0.1102510E+00
          1   -1    0    0  502    0  0.00000000000E+00  0.00000000000E+00  0.96693893267E+03  0.96693893267E+03  0.00000000000E+00 0. -1.
         -1   -1    0    0    0  501 -0.00000000000E+00 -0.00000000000E+00 -0.76325986638E+02  0.76325986638E+02  0.00000000000E+00 0.  1.
          6    1    1    2  502    0  0.19021930924E+03  0.77344578673E+02  0.35830568269E+03  0.44736174591E+03  0.17200000000E+03 0. -1.
         -6    1    1    2    0  501 -0.19021930924E+03 -0.77344578673E+02  0.53230726334E+03  0.59590317339E+03  0.17200000000E+03 0.  1.
</event>
<event>
 4    1  0.3190379E-002  0.2001820E+03  0.7818608E-02  0.1149586E+00
          2   -1    0    0  502    0  0.00000000000E+00  0.00000000000E+00  0.68979347695E+03  0.68979347695E+03  0.00000000000E+00 0. -1.
         -2   -1    0    0    0  501 -0.00000000000E+00 -0.00000000000E+00 -0.58248479343E+02  0.58248479343E+02  0.00000000000E+00 0.  1.
          6    1    1    2  502    0 -0.55884285372E+01  0.10226247252E+03  0.33503560979E+03  0.39028413194E+03  0.17200000000E+03 0. -1.
         -6    1    1    2    0  501  0.55884285372E+01 -0.10226247252E+03  0.29650938781E+03  0.35775782435E+03  0.17200000000E+03 0.  1.
</event>
<event>
 4    1  0.3190379E-002  0.3112767E+03  0.7818608E-02  0.1079736E+00
          2   -1    0    0  502    0  0.00000000000E+00  0.00000000000E+00  0.96920373193E+03  0.96920373193E+03  0.00000000000E+00 0. -1.
         -2   -1    0    0    0  501 -0.00000000000E+00 -0.00000000000E+00 -0.10142675538E+03  0.10142675538E+03  0.00000000000E+00 0.  1.
          6    1    1    2  502    0  0.74494201981E+02  0.24851516443E+03  0.49800028398E+03  0.58727970842E+03  0.17200000000E+03 0. -1.
         -6    1    1    2    0  501 -0.74494201981E+02 -0.24851516443E+03  0.36977669258E+03  0.48335077889E+03  0.17200000000E+03 0.  1.
</event>
<event>
 4    1  0.3190379E-002  0.1791975E+03  0.7818608E-02  0.1168582E+00
          2   -1    0    0  502    0  0.00000000000E+00  0.00000000000E+00  0.91931538261E+03  0.91931538261E+03  0.00000000000E+00 0. -1.
         -2   -1    0    0    0  501 -0.00000000000E+00 -0.00000000000E+00 -0.34975056953E+02  0.34975056953E+02  0.00000000000E+00 0.  1.
          6    1    1    2  502    0  0.47233962728E+02  0.17224607171E+02  0.42505423581E+03  0.46128390141E+03  0.17200000000E+03 0.  1.
         -6    1    1    2    0  501 -0.47233962728E+02 -0.17224607171E+02  0.45928608985E+03  0.49300653815E+03  0.17200000000E+03 0.  1.
</event>
<event>
 4    1  0.3190379E-002  0.2954436E+03  0.7818608E-02  0.1087541E+00
          2   -1    0    0  502    0  0.00000000000E+00  0.00000000000E+00  0.97662773635E+03  0.97662773635E+03  0.00000000000E+00 0. -1.
         -2   -1    0    0    0  501 -0.00000000000E+00 -0.00000000000E+00 -0.10143993539E+03  0.10143993539E+03  0.00000000000E+00 0.  1.
          6    1    1    2  502    0 -0.95828242715E+02 -0.22027229191E+03  0.25170274142E+03  0.38812524360E+03  0.17200000000E+03 0.  1.
         -6    1    1    2    0  501  0.95828242715E+02  0.22027229191E+03  0.62348505954E+03  0.68994242814E+03  0.17200000000E+03 0.  1.
</event>
<event>
 4    1  0.3190379E-002  0.4245390E+03  0.7818608E-02  0.1035599E+00
         -2   -1    0    0    0  501 -0.00000000000E+00  0.00000000000E+00  0.42550805473E+03  0.42550805473E+03  0.00000000000E+00 0.  1.
          2   -1    0    0  502    0  0.00000000000E+00 -0.00000000000E+00 -0.76533771024E+03  0.76533771024E+03  0.00000000000E+00 0. -1.
          6    1    1    2  502    0  0.38420114246E+03  0.55125333688E+02 -0.56780496532E+03  0.70896812265E+03  0.17200000000E+03 0. -1.
         -6    1    1    2    0  501 -0.38420114246E+03 -0.55125333688E+02  0.22797530981E+03  0.48187764232E+03  0.17200000000E+03 0.  1.
</event>
<event>
 4    1  0.3190379E-002  0.1727377E+03  0.7818608E-02  0.1175023E+00
         -1   -1    0    0    0  501 -0.00000000000E+00  0.00000000000E+00  0.55739968942E+03  0.55739968942E+03  0.00000000000E+00 0.  1.
          1   -1    0    0  502    0  0.00000000000E+00 -0.00000000000E+00 -0.14112861650E+03  0.14112861650E+03  0.00000000000E+00 0. -1.
          6    1    1    2  502    0 -0.20890505356E+01  0.15809629875E+02 -0.67028687865E+02  0.18528667930E+03  0.17200000000E+03 0. -1.
         -6    1    1    2    0  501  0.20890505356E+01 -0.15809629875E+02  0.48329976079E+03  0.51324162663E+03  0.17200000000E+03 0.  1.
</event>
<event>
 4    1  0.3190379E-002  0.3886356E+03  0.7818608E-02  0.1047787E+00
         -1   -1    0    0    0  501 -0.00000000000E+00  0.00000000000E+00  0.31714700725E+03  0.31714700725E+03  0.00000000000E+00 0.  1.
          1   -1    0    0  502    0  0.00000000000E+00 -0.00000000000E+00 -0.99649380820E+03  0.99649380820E+03  0.00000000000E+00 0. -1.
          6    1    1    2  502    0  0.30986361379E+03 -0.15949353067E+03 -0.81426227785E+03  0.90225312557E+03  0.17200000000E+03 0. -1.
         -6    1    1    2    0  501 -0.30986361379E+03  0.15949353067E+03  0.13491547689E+03  0.41138768988E+03  0.17200000000E+03 0.  1.
</event>
<event>
 4    1  0.3190379E-002  0.1957067E+03  0.7818608E-02  0.1153413E+00
         -2   -1    0    0    0  501 -0.00000000000E+00  0.00000000000E+00  0.13115879903E+04  0.13115879903E+04  0.00000000000E+00 0.  1.
          2   -1    0    0  502    0  0.00000000000E+00 -0.00000000000E+00 -0.30719215915E+02  0.30719215915E+02  0.00000000000E+00 0. -1.
          6    1    1    2  502    0  0.92342502044E+02  0.13783437510E+02  0.78958551864E+03  0.81347797270E+03  0.17200000000E+03 0.  1.
         -6    1    1    2    0  501 -0.92342502044E+02 -0.13783437510E+02  0.49128325570E+03  0.52882923346E+03  0.17200000000E+03 0. -1.
</event>
<event>
 4    1  0.3190379E-002  0.2043812E+03  0.7818608E-02  0.1146094E+00
         -1   -1    0    0    0  501 -0.00000000000E+00  0.00000000000E+00  0.24513386213E+02  0.24513386213E+02  0.00000000000E+00 0.  1.
          1   -1    0    0  502    0  0.00000000000E+00 -0.00000000000E+00 -0.17096694894E+04  0.17096694894E+04  0.00000000000E+00 0. -1.
          6    1    1    2  502    0 -0.95828908081E+02  0.54813344301E+02 -0.89235332735E+03  0.91545952569E+03  0.17200000000E+03 0. -1.
         -6    1    1    2    0  501  0.95828908081E+02 -0.54813344301E+02 -0.79280277581E+03  0.81872334990E+03  0.17200000000E+03 0.  1.
</event>
<event>
 4    1  0.3190379E-002  0.2470718E+03  0.7818608E-02  0.1115169E+00
          2   -1    0    0  502    0  0.00000000000E+00  0.00000000000E+00  0.15323548190E+03  0.15323548190E+03  0.00000000000E+00 0. -1.
         -2   -1    0    0    0  501 -0.00000000000E+00 -0.00000000000E+00 -0.52554669750E+03  0.52554669750E+03  0.00000000000E+00 0.  1.
          6    1    1    2  502    0 -0.28510300024E+01  0.17734807875E+03 -0.19201161502E+02  0.24781677508E+03  0.17200000000E+03 0. -1.
         -6    1    1    2    0  501  0.28510300024E+01 -0.17734807875E+03 -0.35311005410E+03  0.43096540431E+03  0.17200000000E+03 0.  1.
</event>
<event>
 4    1  0.3190379E-002  0.1727380E+03  0.7818608E-02  0.1175022E+00
          2   -1    0    0  502    0  0.00000000000E+00  0.00000000000E+00  0.19840817130E+04  0.19840817130E+04  0.00000000000E+00 0. -1.
         -2   -1    0    0    0  501 -0.00000000000E+00 -0.00000000000E+00 -0.16427376605E+02  0.16427376605E+02  0.00000000000E+00 0.  1.
          6    1    1    2  502    0  0.59827075870E+01  0.14785560460E+02  0.12746280904E+04  0.12862795865E+04  0.17200000000E+03 0. -1.
         -6    1    1    2    0  501 -0.59827075870E+01 -0.14785560460E+02  0.69302624591E+03  0.71422950311E+03  0.17200000000E+03 0.  1.
</event>
<event>
 4    1  0.3190379E-002  0.3868203E+03  0.7818608E-02  0.1048441E+00
         -2   -1    0    0    0  501 -0.00000000000E+00  0.00000000000E+00  0.75849825704E+02  0.75849825704E+02  0.00000000000E+00 0.  1.
          2   -1    0    0  502    0  0.00000000000E+00 -0.00000000000E+00 -0.31175592844E+04  0.31175592844E+04  0.00000000000E+00 0. -1.
          6    1    1    2  502    0  0.29982583746E+03  0.17363872712E+03 -0.24884434239E+04  0.25183289329E+04  0.17200000000E+03 0. -1.
         -6    1    1    2    0  501 -0.29982583746E+03 -0.17363872712E+03 -0.55326603473E+03  0.67508017713E+03  0.17200000000E+03 0.  1.
</event>
<event>
 4    1  0.3190379E-002  0.1920622E+03  0.7818608E-02  0.1156614E+00
         -1   -1    0    0    0  501 -0.00000000000E+00  0.00000000000E+00  0.53761294222E+02  0.53761294222E+02  0.00000000000E+00 0.  1.
          1   -1    0    0  502    0  0.00000000000E+00 -0.00000000000E+00 -0.12842395209E+04  0.12842395209E+04  0.00000000000E+00 0. -1.
          6    1    1    2  502    0  0.44084760240E+01 -0.85348986165E+02 -0.10717901714E+04  0.10888627350E+04  0.17200000000E+03 0. -1.
         -6    1    1    2    0  501 -0.44084760240E+01  0.85348986165E+02 -0.15868805532E+03  0.24913808019E+03  0.17200000000E+03 0.  1.
</event>
<event>
 4    1  0.3190379E-002  0.2380689E+03  0.7818608E-02  0.1121086E+00
         -2   -1    0    0    0  501 -0.00000000000E+00  0.00000000000E+00  0.20756792085E+03  0.20756792085E+03  0.00000000000E+00 0.  1.
          2   -1    0    0  502    0  0.00000000000E+00 -0.00000000000E+00 -0.13647529748E+04  0.13647529748E+04  0.00000000000E+00 0. -1.
          6    1    1    2  502    0  0.93796579751E+02  0.13525905334E+03 -0.12817231933E+04  0.13036453329E+04  0.17200000000E+03 0. -1.
         -6    1    1    2    0  501 -0.93796579751E+02 -0.13525905334E+03  0.12453813930E+03  0.26867556275E+03  0.17200000000E+03 0.  1.
</event>
<event>
 4    1  0.3190379E-002  0.3619205E+03  0.7818608E-02  0.1057826E+00
          1   -1    0    0  502    0  0.00000000000E+00  0.00000000000E+00  0.31474126595E+03  0.31474126595E+03  0.00000000000E+00 0. -1.
         -1   -1    0    0    0  501 -0.00000000000E+00 -0.00000000000E+00 -0.64059732107E+03  0.64059732107E+03  0.00000000000E+00 0.  1.
          6    1    1    2  502    0 -0.19952419119E+03 -0.24817842932E+03  0.11980132384E+03  0.38123325254E+03  0.17200000000E+03 0. -1.
         -6    1    1    2    0  501  0.19952419119E+03  0.24817842932E+03 -0.44565737896E+03  0.57410533448E+03  0.17200000000E+03 0.  1.
</event>
<event>
 4    1  0.3190379E-002  0.4552424E+03  0.7818608E-02  0.1026170E+00
          2   -1    0    0  502    0  0.00000000000E+00  0.00000000000E+00  0.30258392447E+04  0.30258392447E+04  0.00000000000E+00 0. -1.
         -2   -1    0    0    0  501 -0.00000000000E+00 -0.00000000000E+00 -0.13729823432E+03  0.13729823432E+03  0.00000000000E+00 0.  1.
          6    1    1    2  502    0 -0.16779938768E+03 -0.38665883201E+03  0.25638877784E+04  0.26039904430E+04  0.17200000000E+03 0. -1.
         -6    1    1    2    0  501  0.16779938768E+03  0.38665883201E+03  0.32465323195E+03  0.55914703602E+03  0.17200000000E+03 0.  1.
</event>
<event>
 4    1  0.3190379E-002  0.3479874E+03  0.7818608E-02  0.1063444E+00
          2   -1    0    0  502    0  0.00000000000E+00  0.00000000000E+00  0.15670030338E+04  0.15670030338E+04  0.00000000000E+00 0. -1.
         -2   -1    0    0    0  501 -0.00000000000E+00 -0.00000000000E+00 -0.86314602391E+02  0.86314602391E+02  0.00000000000E+00 0.  1.
          6    1    1    2  502    0  0.26964923371E+03 -0.13711502326E+03  0.10078178322E+04  0.10662044934E+04  0.17200000000E+03 0. -1.
         -6    1    1    2    0  501 -0.26964923371E+03  0.13711502326E+03  0.47287059921E+03  0.58711314279E+03  0.17200000000E+03 0.  1.
</event>
<event>
 4    1  0.3190379E-002  0.1797480E+03  0.7818608E-02  0.1168047E+00
          2   -1    0    0  502    0  0.00000000000E+00  0.00000000000E+00  0.23341638752E+04  0.23341638752E+04  0.00000000000E+00 0. -1.
         -2   -1    0    0    0  501 -0.00000000000E+00 -0.00000000000E+00 -0.25447454448E+02  0.25447454448E+02  0.00000000000E+00 0.  1.
          6    1    1    2  502    0 -0.33437713307E+02 -0.40090497681E+02  0.19511057373E+04  0.19593679917E+04  0.17200000000E+03 0. -1.
         -6    1    1    2    0  501  0.33437713307E+02  0.40090497681E+02  0.35761068348E+03  0.40024333800E+03  0.17200000000E+03 0.  1.
</event>
<event>
 4    1  0.3190379E-002  0.1908769E+03  0.7818608E-02  0.1157673E+00
          2   -1    0    0  502    0  0.00000000000E+00  0.00000000000E+00  0.32411816078E+03  0.32411816078E+03  0.00000000000E+00 0. -1.
         -2   -1    0    0    0  501 -0.00000000000E+00 -0.00000000000E+00 -0.14993922508E+03  0.14993922508E+03  0.00000000000E+00 0.  1.
          6    1    1    2  502    0 -0.82361769938E+02  0.81556756508E+01 -0.31495789426E+02  0.19345790484E+03  0.17200000000E+03 0. -1.
         -6    1    1    2    0  501  0.82361769938E+02 -0.81556756508E+01  0.20567472512E+03  0.28059948102E+03  0.17200000000E+03 0. -1.
</event>
<event>
 4    1  0.3190379E-002  0.2397706E+03  0.7818608E-02  0.1119946E+00
         -1   -1    0    0    0  501 -0.00000000000E+00  0.00000000000E+00  0.83750349146E+03  0.83750349146E+03  0.00000000000E+00 0.  1.
          1   -1    0    0  502    0  0.00000000000E+00 -0.00000000000E+00 -0.49619025433E+03  0.49619025433E+03  0.00000000000E+00 0. -1.
          6    1    1    2  502    0 -0.14042316049E+03  0.90483695952E+02 -0.44834720317E+03  0.50843404472E+03  0.17200000000E+03 0. -1.
         -6    1    1    2    0  501  0.14042316049E+03 -0.90483695952E+02  0.78966044030E+03  0.82525970107E+03  0.17200000000E+03 0.  1.
</event>
<event>
 4    1  0.3190379E-002  0.4296302E+03  0.7818608E-02  0.1033977E+00
          2   -1    0    0  502    0  0.00000000000E+00  0.00000000000E+00  0.74296314234E+03  0.74296314234E+03  0.00000000000E+00 0. -1.
         -2   -1    0    0    0  501 -0.00000000000E+00 -0.00000000000E+00 -0.37826814861E+03  0.37826814861E+03  0.00000000000E+00 0.  1.
          6    1    1    2  502    0 -0.11908300578E+03 -0.37525635487E+03  0.51078218044E+03  0.66744327848E+03  0.17200000000E+03 0. -1.
         -6    1    1    2    0  501  0.11908300578E+03  0.37525635487E+03 -0.14608718672E+03  0.45378801246E+03  0.17200000000E+03 0.  1.
</event>
<event>
 4    1  0.3190379E-002  0.2816197E+03  0.7818608E-02  0.1094808E+00
          2   -1    0    0  502    0  0.00000000000E+00  0.00000000000E+00  0.94794370857E+03  0.94794370857E+03  0.00000000000E+00 0. -1.
         -2   -1    0    0    0  501 -0.00000000000E+00 -0.00000000000E+00 -0.83978602690E+02  0.83978602690E+02  0.00000000000E+00 0.  1.
          6    1    1    2  502    0  0.21998479540E+03  0.36501330907E+02  0.46351526278E+03  0.54236155486E+03  0.17200000000E+03 0. -1.
         -6    1    1    2    0  501 -0.21998479540E+03 -0.36501330907E+02  0.40044984310E+03  0.48956075640E+03  0.17200000000E+03 0.  1.
</event>
<event>
 4    1  0.3190379E-002  0.2753474E+03  0.7818608E-02  0.1098258E+00
         -4   -1    0    0    0  501 -0.00000000000E+00  0.00000000000E+00  0.10232595955E+04  0.10232595955E+04  0.00000000000E+00 0.  1.
          4   -1    0    0  502    0  0.00000000000E+00 -0.00000000000E+00 -0.75103885568E+02  0.75103885568E+02  0.00000000000E+00 0. -1.
          6    1    1    2  502    0 -0.18084318062E+03  0.11630968652E+03  0.41035834617E+03  0.49417625542E+03  0.17200000000E+03 0. -1.
         -6    1    1    2    0  501  0.18084318062E+03 -0.11630968652E+03  0.53779736372E+03  0.60418722560E+03  0.17200000000E+03 0.  1.
</event>
<event>
 4    1  0.3190379E-002  0.2028767E+03  0.7818608E-02  0.1147334E+00
          1   -1    0    0  502    0  0.00000000000E+00  0.00000000000E+00  0.10581836900E+04  0.10581836900E+04  0.00000000000E+00 0. -1.
         -1   -1    0    0    0  501 -0.00000000000E+00 -0.00000000000E+00 -0.38898066375E+02  0.38898066375E+02  0.00000000000E+00 0.  1.
          6    1    1    2  502    0 -0.13143494683E+02 -0.10678116136E+03  0.51377124990E+03  0.55237656096E+03  0.17200000000E+03 0.  1.
         -6    1    1    2    0  501  0.13143494683E+02  0.10678116136E+03  0.50551437377E+03  0.54470519546E+03  0.17200000000E+03 0. -1.
</event>
<event>
 4    1  0.3190379E-002  0.2623629E+03  0.7818608E-02  0.1105732E+00
          2   -1    0    0  502    0  0.00000000000E+00  0.00000000000E+00  0.42906190522E+03  0.42906190522E+03  0.00000000000E+00 0. -1.
         -2   -1    0    0    0  501 -0.00000000000E+00 -0.00000000000E+00 -0.18107735256E+03  0.18107735256E+03  0.00000000000E+00 0.  1.
          6    1    1    2  502    0 -0.13574470070E+03  0.14430408414E+03  0.20976968686E+02  0.26320016277E+03  0.17200000000E+03 0.  1.
         -6    1    1    2    0  501  0.13574470070E+03 -0.14430408414E+03  0.22700758397E+03  0.34693909501E+03  0.17200000000E+03 0. -1.
</event>
<event>
 4    1  0.3190379E-002  0.2503736E+03  0.7818608E-02  0.1113069E+00
          2   -1    0    0  502    0  0.00000000000E+00  0.00000000000E+00  0.35497443687E+03  0.35497443687E+03  0.00000000000E+00 0. -1.
         -2   -1    0    0    0  501 -0.00000000000E+00 -0.00000000000E+00 -0.17953251182E+03  0.17953251182E+03  0.00000000000E+00 0.  1.
          6    1    1    2  502    0  0.88519302644E+02  0.15895683518E+03  0.53539286057E+02  0.25603397732E+03  0.17200000000E+03 0.  1.
         -6    1    1    2    0  501 -0.88519302644E+02 -0.15895683518E+03  0.12190263899E+03  0.27847297137E+03  0.17200000000E+03 0.  1.
</event>
<event>
 4    1  0.3190379E-002  0.2038497E+03  0.7818608E-02  0.1146531E+00
          3   -1    0    0  502    0  0.00000000000E+00  0.00000000000E+00  0.45979463893E+03  0.45979463893E+03  0.00000000000E+00 0. -1.
         -3   -1    0    0    0  501 -0.00000000000E+00 -0.00000000000E+00 -0.17631942094E+03  0.17631942094E+03  0.00000000000E+00 0.  1.
          6    1    1    2  502    0  0.15678230106E+02  0.10828156680E+03  0.36379210439E+03  0.41701246962E+03  0.17200000000E+03 0. -1.
         -6    1    1    2    0  501 -0.15678230106E+02 -0.10828156680E+03 -0.80316886392E+02  0.21910159025E+03  0.17200000000E+03 0.  1.
</event>
<event>
 4    1  0.3190379E-002  0.2885929E+03  0.7818608E-02  0.1091086E+00
         -4   -1    0    0    0  501 -0.00000000000E+00  0.00000000000E+00  0.10506717027E+03  0.10506717027E+03  0.00000000000E+00 0.  1.
          4   -1    0    0  502    0  0.00000000000E+00 -0.00000000000E+00 -0.90740336879E+03  0.90740336879E+03  0.00000000000E+00 0. -1.
          6    1    1    2  502    0 -0.14149713384E+03 -0.18352229832E+03 -0.22117493094E+03  0.36359898644E+03  0.17200000000E+03 0. -1.
         -6    1    1    2    0  501  0.14149713384E+03  0.18352229832E+03 -0.58116126757E+03  0.64887155261E+03  0.17200000000E+03 0.  1.
</event>
<event>
 4    1  0.3190379E-002  0.4405013E+03  0.7818608E-02  0.1030593E+00
          1   -1    0    0  502    0  0.00000000000E+00  0.00000000000E+00  0.21847778060E+04  0.21847778060E+04  0.00000000000E+00 0. -1.
         -1   -1    0    0    0  501 -0.00000000000E+00 -0.00000000000E+00 -0.12385877759E+03  0.12385877759E+03  0.00000000000E+00 0.  1.
          6    1    1    2  502    0 -0.13764463912E+03  0.38145945288E+03  0.16444571982E+04  0.17024337983E+04  0.17200000000E+03 0. -1.
         -6    1    1    2    0  501  0.13764463912E+03 -0.38145945288E+03  0.41646183017E+03  0.60620278526E+03  0.17200000000E+03 0.  1.
</event>
<event>
 4    1  0.3190379E-002  0.2057584E+03  0.7818608E-02  0.1144970E+00
         -1   -1    0    0    0  501 -0.00000000000E+00  0.00000000000E+00  0.20471994105E+03  0.20471994105E+03  0.00000000000E+00 0.  1.
          1   -1    0    0  502    0  0.00000000000E+00 -0.00000000000E+00 -0.27964014558E+03  0.27964014558E+03  0.00000000000E+00 0. -1.
          6    1    1    2  502    0  0.10839695940E+03  0.31664014354E+02 -0.16105990569E+03  0.26129830431E+03  0.17200000000E+03 0. -1.
         -6    1    1    2    0  501 -0.10839695940E+03 -0.31664014354E+02  0.86139701166E+02  0.22306178232E+03  0.17200000000E+03 0.  1.
</event>
<event>
 4    1  0.3190379E-002  0.2117063E+03  0.7818608E-02  0.1140222E+00
         -2   -1    0    0    0  501 -0.00000000000E+00  0.00000000000E+00  0.13022853331E+03  0.13022853331E+03  0.00000000000E+00 0.  1.
          2   -1    0    0  502    0  0.00000000000E+00 -0.00000000000E+00 -0.50214965936E+03  0.50214965936E+03  0.00000000000E+00 0. -1.
          6    1    1    2  502    0  0.10970339247E+03 -0.56574875962E+02 -0.36331562601E+03  0.42049708086E+03  0.17200000000E+03 0. -1.
         -6    1    1    2    0  501 -0.10970339247E+03  0.56574875962E+02 -0.86055000390E+01  0.21188111181E+03  0.17200000000E+03 0.  1.
</event>
<event>
 4    1  0.3190379E-002  0.1740668E+03  0.7818608E-02  0.1173672E+00
          2   -1    0    0  502    0  0.00000000000E+00  0.00000000000E+00  0.10506134247E+03  0.10506134247E+03  0.00000000000E+00 0. -1.
         -2   -1    0    0    0  501 -0.00000000000E+00 -0.00000000000E+00 -0.36048925987E+03  0.36048925987E+03  0.00000000000E+00 0.  1.
          6    1    1    2  502    0 -0.11411400392E+02  0.24187611574E+02 -0.23181099367E+03  0.28988893977E+03  0.17200000000E+03 0.  1.
         -6    1    1    2    0  501  0.11411400392E+02 -0.24187611574E+02 -0.23616923733E+02  0.17566166258E+03  0.17200000000E+03 0. -1.
</event>
<event>
 4    1  0.3190379E-002  0.2437351E+03  0.7818608E-02  0.1117329E+00
         -2   -1    0    0    0  501 -0.00000000000E+00  0.00000000000E+00  0.28270189219E+02  0.28270189219E+02  0.00000000000E+00 0.  1.
          2   -1    0    0  502    0  0.00000000000E+00 -0.00000000000E+00 -0.23046393813E+04  0.23046393813E+04  0.00000000000E+00 0. -1.
          6    1    1    2  502    0 -0.54012325838E+02  0.16402883619E+03 -0.14845841710E+04  0.15044590227E+04  0.17200000000E+03 0. -1.
         -6    1    1    2    0  501  0.54012325838E+02 -0.16402883619E+03 -0.79178502114E+03  0.82845054779E+03  0.17200000000E+03 0.  1.
</event>
<event>
 4    1  0.3190379E-002  0.4130160E+03  0.7818608E-02  0.1039364E+00
         -2   -1    0    0    0  501 -0.00000000000E+00  0.00000000000E+00  0.29522610839E+03  0.29522610839E+03  0.00000000000E+00 0.  1.
          2   -1    0    0  502    0  0.00000000000E+00 -0.00000000000E+00 -0.75149476125E+03  0.75149476125E+03  0.00000000000E+00 0. -1.
          6    1    1    2  502    0  0.37516362283E+03 -0.15827314554E+02 -0.47974480176E+03  0.63303816836E+03  0.17200000000E+03 0. -1.
         -6    1    1    2    0  501 -0.37516362283E+03  0.15827314554E+02  0.23476148896E+02  0.41368270129E+03  0.17200000000E+03 0.  1.
</event>
<event>
 4    1  0.3190379E-002  0.3206984E+03  0.7818608E-02  0.1075328E+00
         -3   -1    0    0    0  501 -0.00000000000E+00  0.00000000000E+00  0.40030453955E+03  0.40030453955E+03  0.00000000000E+00 0.  1.
          3   -1    0    0  502    0  0.00000000000E+00 -0.00000000000E+00 -0.30421285909E+03  0.30421285909E+03  0.00000000000E+00 0. -1.
          6    1    1    2  502    0 -0.30460815699E+01  0.27065509968E+03  0.18693128771E+03  0.37120178869E+03  0.17200000000E+03 0.  1.
         -6    1    1    2    0  501  0.30460815699E+01 -0.27065509968E+03 -0.90839607254E+02  0.33331560996E+03  0.17200000000E+03 0. -1.
</event>
<event>
 4    1  0.3190379E-002  0.2060351E+03  0.7818608E-02  0.1144745E+00
         -1   -1    0    0    0  501 -0.00000000000E+00  0.00000000000E+00  0.47156926969E+02  0.47156926969E+02  0.00000000000E+00 0.  1.
          1   -1    0    0  502    0  0.00000000000E+00 -0.00000000000E+00 -0.93222183211E+03  0.93222183211E+03  0.00000000000E+00 0. -1.
          6    1    1    2  502    0 -0.78044572375E+02  0.82313368438E+02 -0.53329689357E+03  0.57171323458E+03  0.17200000000E+03 0. -1.
         -6    1    1    2    0  501  0.78044572375E+02 -0.82313368438E+02 -0.35176801157E+03  0.40766552450E+03  0.17200000000E+03 0. -1.
</event>
<event>
 4    1  0.3190379E-002  0.2276441E+03  0.7818608E-02  0.1128309E+00
          1   -1    0    0  502    0  0.00000000000E+00  0.00000000000E+00  0.12567723968E+04  0.12567723968E+04  0.00000000000E+00 0. -1.
         -1   -1    0    0    0  501 -0.00000000000E+00 -0.00000000000E+00 -0.58363729406E+02  0.58363729406E+02  0.00000000000E+00 0.  1.
          6    1    1    2  502    0  0.14485027117E+03 -0.35443652057E+02  0.95544494877E+03  0.98218985113E+03  0.17200000000E+03 0. -1.
         -6    1    1    2    0  501 -0.14485027117E+03  0.35443652057E+02  0.24296371867E+03  0.33294627512E+03  0.17200000000E+03 0.  1.
</event>
<event>
 4    1  0.3190379E-002  0.2138173E+03  0.7818608E-02  0.1138578E+00
         -2   -1    0    0    0  501 -0.00000000000E+00  0.00000000000E+00  0.33475304280E+02  0.33475304280E+02  0.00000000000E+00 0.  1.
          2   -1    0    0  502    0  0.00000000000E+00 -0.00000000000E+00 -0.14960391064E+04  0.14960391064E+04  0.00000000000E+00 0. -1.
          6    1    1    2  502    0  0.12435995978E+03  0.25854268412E+02 -0.95699596925E+03  0.98059121348E+03  0.17200000000E+03 0. -1.
         -6    1    1    2    0  501 -0.12435995978E+03 -0.25854268412E+02 -0.50556783285E+03  0.54892319718E+03  0.17200000000E+03 0.  1.
</event>
<event>
 4    1  0.3190379E-002  0.2110398E+03  0.7818608E-02  0.1140745E+00
         -1   -1    0    0    0  501 -0.00000000000E+00  0.00000000000E+00  0.51177570380E+03  0.51177570380E+03  0.00000000000E+00 0.  1.
          1   -1    0    0  502    0  0.00000000000E+00 -0.00000000000E+00 -0.10108780020E+03  0.10108780020E+03  0.00000000000E+00 0. -1.
          6    1    1    2  502    0  0.96165156595E+02 -0.75538388040E+02  0.31963311782E+03  0.38301842700E+03  0.17200000000E+03 0.  1.
         -6    1    1    2    0  501 -0.96165156595E+02  0.75538388040E+02  0.91054785771E+02  0.22984507700E+03  0.17200000000E+03 0. -1.
</event>
<event>
 4    1  0.3190379E-002  0.2306381E+03  0.7818608E-02  0.1126191E+00
         -1   -1    0    0    0  501 -0.00000000000E+00  0.00000000000E+00  0.17689662154E+03  0.17689662154E+03  0.00000000000E+00 0.  1.
          1   -1    0    0  502    0  0.00000000000E+00 -0.00000000000E+00 -0.36458436543E+03  0.36458436543E+03  0.00000000000E+00 0. -1.
          6    1    1    2  502    0  0.76023859739E+02 -0.13353016103E+03 -0.20716999280E+03  0.31002151066E+03  0.17200000000E+03 0. -1.
         -6    1    1    2    0  501 -0.76023859739E+02  0.13353016103E+03  0.19482248902E+02  0.23145947632E+03  0.17200000000E+03 0.  1.
</event>
<event>
 4    1  0.3190379E-002  0.2436869E+03  0.7818608E-02  0.1117361E+00
         -2   -1    0    0    0  501 -0.00000000000E+00  0.00000000000E+00  0.31856846547E+03  0.31856846547E+03  0.00000000000E+00 0.  1.
          2   -1    0    0  502    0  0.00000000000E+00 -0.00000000000E+00 -0.20103562277E+03  0.20103562277E+03  0.00000000000E+00 0. -1.
          6    1    1    2  502    0  0.96896398240E+02  0.14286493337E+03  0.12884931152E+03  0.27565457779E+03  0.17200000000E+03 0. -1.
         -6    1    1    2    0  501 -0.96896398240E+02 -0.14286493337E+03 -0.11316468816E+02  0.24394951044E+03  0.17200000000E+03 0.  1.
</event>
<event>
 4    1  0.3190379E-002  0.1979752E+03  0.7818608E-02  0.1151459E+00
         -2   -1    0    0    0  501 -0.00000000000E+00  0.00000000000E+00  0.54197343894E+02  0.54197343894E+02  0.00000000000E+00 0.  1.
          2   -1    0    0  502    0  0.00000000000E+00 -0.00000000000E+00 -0.11000168986E+04  0.11000168986E+04  0.00000000000E+00 0. -1.
          6    1    1    2  502    0  0.80261324383E+02  0.56287621875E+02 -0.86069155320E+03  0.88316709988E+03  0.17200000000E+03 0. -1.
         -6    1    1    2    0  501 -0.80261324383E+02 -0.56287621875E+02 -0.18512800146E+03  0.27104714257E+03  0.17200000000E+03 0.  1.
</event>
<event>
 4    1  0.3190379E-002  0.1781324E+03  0.7818608E-02  0.1169623E+00
         -2   -1    0    0    0  501 -0.00000000000E+00  0.00000000000E+00  0.46019337809E+02  0.46019337809E+02  0.00000000000E+00 0.  1.
          2   -1    0    0  502    0  0.00000000000E+00 -0.00000000000E+00 -0.81807400605E+03  0.81807400605E+03  0.00000000000E+00 0. -1.
          6    1    1    2  502    0 -0.54414129445E+01 -0.46016789880E+02 -0.21475751426E+03  0.27901961196E+03  0.17200000000E+03 0. -1.
         -6    1    1    2    0  501  0.54414129445E+01  0.46016789880E+02 -0.55729715398E+03  0.58507373190E+03  0.17200000000E+03 0. -1.
</event>
<event>
 4    1  0.3190379E-002  0.3631701E+03  0.7818608E-02  0.1057336E+00
         -2   -1    0    0    0  501 -0.00000000000E+00  0.00000000000E+00  0.77673215183E+02  0.77673215183E+02  0.00000000000E+00 0.  1.
          2   -1    0    0  502    0  0.00000000000E+00 -0.00000000000E+00 -0.18214012421E+04  0.18214012421E+04  0.00000000000E+00 0. -1.
          6    1    1    2  502    0  0.15926760579E+03  0.27738480377E+03 -0.11189751712E+04  0.11764344152E+04  0.17200000000E+03 0. -1.
         -6    1    1    2    0  501 -0.15926760579E+03 -0.27738480377E+03 -0.62475285567E+03  0.72264004199E+03  0.17200000000E+03 0.  1.
</event>
<event>
 4    1  0.3190379E-002  0.2134544E+03  0.7818608E-02  0.1138859E+00
          1   -1    0    0  502    0  0.00000000000E+00  0.00000000000E+00  0.13988442889E+03  0.13988442889E+03  0.00000000000E+00 0. -1.
         -1   -1    0    0    0  501 -0.00000000000E+00 -0.00000000000E+00 -0.34783887506E+03  0.34783887506E+03  0.00000000000E+00 0.  1.
          6    1    1    2  502    0  0.33583259252E+01  0.12636256603E+03 -0.16547545341E+03  0.27008313929E+03  0.17200000000E+03 0.  1.
         -6    1    1    2    0  501 -0.33583259252E+01 -0.12636256603E+03 -0.42478992761E+02  0.21764016466E+03  0.17200000000E+03 0. -1.
</event>
<event>
 4    1  0.3190379E-002  0.1789970E+03  0.7818608E-02  0.1168777E+00
         -1   -1    0    0    0  501 -0.00000000000E+00  0.00000000000E+00  0.48372922173E+03  0.48372922173E+03  0.00000000000E+00 0.  1.
          1   -1    0    0  502    0  0.00000000000E+00 -0.00000000000E+00 -0.79144164924E+02  0.79144164924E+02  0.00000000000E+00 0. -1.
          6    1    1    2  502    0 -0.21002891404E+02  0.44886450598E+02  0.31595484993E+03  0.36313548723E+03  0.17200000000E+03 0.  1.
         -6    1    1    2    0  501  0.21002891404E+02 -0.44886450598E+02  0.88630206882E+02  0.19973789942E+03  0.17200000000E+03 0. -1.
</event>
<event>
 4    1  0.3190379E-002  0.1893032E+03  0.7818608E-02  0.1159091E+00
         -2   -1    0    0    0  501 -0.00000000000E+00  0.00000000000E+00  0.13001979023E+02  0.13001979023E+02  0.00000000000E+00 0.  1.
          2   -1    0    0  502    0  0.00000000000E+00 -0.00000000000E+00 -0.29137148229E+04  0.29137148229E+04  0.00000000000E+00 0. -1.
          6    1    1    2  502    0 -0.77115361078E+02  0.17462364857E+02 -0.11100860764E+04  0.11261113667E+04  0.17200000000E+03 0.  1.
         -6    1    1    2    0  501  0.77115361078E+02 -0.17462364857E+02 -0.17906267674E+04  0.18006054352E+04  0.17200000000E+03 0. -1.
</event>
<event>
 4    1  0.3190379E-002  0.2145821E+03  0.7818608E-02  0.1137988E+00
          1   -1    0    0  502    0  0.00000000000E+00  0.00000000000E+00  0.12269801084E+04  0.12269801084E+04  0.00000000000E+00 0. -1.
         -1   -1    0    0    0  501 -0.00000000000E+00 -0.00000000000E+00 -0.39023446144E+02  0.39023446144E+02  0.00000000000E+00 0.  1.
          6    1    1    2  502    0  0.61733325549E+02 -0.11247424218E+03  0.71791634195E+03  0.74929922773E+03  0.17200000000E+03 0. -1.
         -6    1    1    2    0  501 -0.61733325549E+02  0.11247424218E+03  0.47004032031E+03  0.51670432682E+03  0.17200000000E+03 0.  1.
</event>
<event>
 4    1  0.3190379E-002  0.2706222E+03  0.7818608E-02  0.1100924E+00
          2   -1    0    0  502    0  0.00000000000E+00  0.00000000000E+00  0.94187902051E+03  0.94187902051E+03  0.00000000000E+00 0. -1.
         -2   -1    0    0    0  501 -0.00000000000E+00 -0.00000000000E+00 -0.79231733131E+02  0.79231733131E+02  0.00000000000E+00 0.  1.
          6    1    1    2  502    0  0.10131499813E+03 -0.18272294129E+03  0.50101048318E+03  0.56942770075E+03  0.17200000000E+03 0. -1.
         -6    1    1    2    0  501 -0.10131499813E+03  0.18272294129E+03  0.36163680419E+03  0.45168305289E+03  0.17200000000E+03 0.  1.
</event>
<event>
 4    1  0.3190379E-002  0.1877910E+03  0.7818608E-02  0.1160469E+00
         -2   -1    0    0    0  501 -0.00000000000E+00  0.00000000000E+00  0.18290782921E+03  0.18290782921E+03  0.00000000000E+00 0.  1.
          2   -1    0    0  502    0  0.00000000000E+00 -0.00000000000E+00 -0.32221063142E+03  0.32221063142E+03  0.00000000000E+00 0. -1.
          6    1    1    2  502    0 -0.75186947754E+02 -0.53279314683E+01  0.90404110825E+02  0.20841873049E+03  0.17200000000E+03 0. -1.
         -6    1    1    2    0  501  0.75186947754E+02  0.53279314683E+01 -0.22970691304E+03  0.29669973014E+03  0.17200000000E+03 0. -1.
</event>
<event>
 4    1  0.3190379E-002  0.3759988E+03  0.7818608E-02  0.1052423E+00
         -2   -1    0    0    0  501 -0.00000000000E+00  0.00000000000E+00  0.62182341125E+02  0.62182341125E+02  0.00000000000E+00 0.  1.
          2   -1    0    0  502    0  0.00000000000E+00 -0.00000000000E+00 -0.29919428171E+04  0.29919428171E+04  0.00000000000E+00 0. -1.
          6    1    1    2  502    0  0.33168055342E+03 -0.42179865169E+02 -0.22131512169E+04  0.22448637909E+04  0.17200000000E+03 0. -1.
         -6    1    1    2    0  501 -0.33168055342E+03  0.42179865169E+02 -0.71660925900E+03  0.80926136731E+03  0.17200000000E+03 0.  1.
</event>
<event>
 4    1  0.3190379E-002  0.2156980E+03  0.7818608E-02  0.1137132E+00
         -1   -1    0    0    0  501 -0.00000000000E+00  0.00000000000E+00  0.53851070365E+02  0.53851070365E+02  0.00000000000E+00 0.  1.
          1   -1    0    0  502    0  0.00000000000E+00 -0.00000000000E+00 -0.94059852494E+03  0.94059852494E+03  0.00000000000E+00 0. -1.
          6    1    1    2  502    0 -0.12532961950E+03  0.35129777495E+02 -0.30145136311E+03  0.37067308928E+03  0.17200000000E+03 0.  1.
         -6    1    1    2    0  501  0.12532961950E+03 -0.35129777495E+02 -0.58529609146E+03  0.62377650603E+03  0.17200000000E+03 0.  1.
</event>
<event>
 4    1  0.3190379E-002  0.2580009E+03  0.7818608E-02  0.1108350E+00
          1   -1    0    0  502    0  0.00000000000E+00  0.00000000000E+00  0.33655331200E+03  0.33655331200E+03  0.00000000000E+00 0. -1.
         -1   -1    0    0    0  501 -0.00000000000E+00 -0.00000000000E+00 -0.19850548094E+03  0.19850548094E+03  0.00000000000E+00 0.  1.
          6    1    1    2  502    0  0.10746483381E+03  0.15947344989E+03  0.52882378974E+02  0.26336479972E+03  0.17200000000E+03 0. -1.
         -6    1    1    2    0  501 -0.10746483381E+03 -0.15947344989E+03  0.85165452093E+02  0.27169399322E+03  0.17200000000E+03 0.  1.
</event>
<event>
 4    1  0.3190379E-002  0.2203575E+03  0.7818608E-02  0.1133617E+00
          1   -1    0    0  502    0  0.00000000000E+00  0.00000000000E+00  0.88011640500E+03  0.88011640500E+03  0.00000000000E+00 0. -1.
         -1   -1    0    0    0  501 -0.00000000000E+00 -0.00000000000E+00 -0.29035735531E+03  0.29035735531E+03  0.00000000000E+00 0.  1.
          6    1    1    2  502    0 -0.13587724437E+03  0.22601267779E+02  0.82158855503E+03  0.85062635546E+03  0.17200000000E+03 0. -1.
         -6    1    1    2    0  501  0.13587724437E+03 -0.22601267779E+02 -0.23182950534E+03  0.31984740485E+03  0.17200000000E+03 0.  1.
</event>
<event>
 4    1  0.3190379E-002  0.3048686E+03  0.7818608E-02  0.1082832E+00
          1   -1    0    0  502    0  0.00000000000E+00  0.00000000000E+00  0.78011879607E+02  0.78011879607E+02  0.00000000000E+00 0. -1.
         -1   -1    0    0    0  501 -0.00000000000E+00 -0.00000000000E+00 -0.13140754650E+04  0.13140754650E+04  0.00000000000E+00 0.  1.
          6    1    1    2  502    0 -0.20362261850E+03  0.14798213890E+03 -0.40537931106E+03  0.50722506842E+03  0.17200000000E+03 0. -1.
         -6    1    1    2    0  501  0.20362261850E+03 -0.14798213890E+03 -0.83068427436E+03  0.88486227622E+03  0.17200000000E+03 0.  1.
</event>
<event>
 4    1  0.3190379E-002  0.2202027E+03  0.7818608E-02  0.1133732E+00
          2   -1    0    0  502    0  0.00000000000E+00  0.00000000000E+00  0.39597518818E+02  0.39597518818E+02  0.00000000000E+00 0. -1.
         -2   -1    0    0    0  501 -0.00000000000E+00 -0.00000000000E+00 -0.13508597047E+04  0.13508597047E+04  0.00000000000E+00 0.  1.
          6    1    1    2  502    0 -0.89090597684E+02 -0.10472868617E+03 -0.44304397789E+03  0.49474963229E+03  0.17200000000E+03 0. -1.
         -6    1    1    2    0  501  0.89090597684E+02  0.10472868617E+03 -0.86821820802E+03  0.89570759126E+03  0.17200000000E+03 0.  1.
</event>
<event>
 4    1  0.3190379E-002  0.1862610E+03  0.7818608E-02  0.1161878E+00
         -1   -1    0    0    0  501 -0.00000000000E+00  0.00000000000E+00  0.22386983862E+02  0.22386983862E+02  0.00000000000E+00 0.  1.
          1   -1    0    0  502    0  0.00000000000E+00 -0.00000000000E+00 -0.15663226699E+04  0.15663226699E+04  0.00000000000E+00 0. -1.
          6    1    1    2  502    0 -0.52470743841E+02  0.48538365964E+02 -0.85379532684E+03  0.87387619951E+03  0.17200000000E+03 0.  1.
         -6    1    1    2    0  501  0.52470743841E+02 -0.48538365964E+02 -0.69014035921E+03  0.71483345427E+03  0.17200000000E+03 0.  1.
</event>
<event>
 4    1  0.3190379E-002  0.4172716E+03  0.7818608E-02  0.1037958E+00
         -2   -1    0    0    0  501 -0.00000000000E+00  0.00000000000E+00  0.51169700921E+03  0.51169700921E+03  0.00000000000E+00 0.  1.
          2   -1    0    0  502    0  0.00000000000E+00 -0.00000000000E+00 -0.68943607671E+03  0.68943607671E+03  0.00000000000E+00 0. -1.
          6    1    1    2  502    0 -0.36956089489E+03 -0.89198168857E+02 -0.51626472772E+03  0.66381084463E+03  0.17200000000E+03 0. -1.
         -6    1    1    2    0  501  0.36956089489E+03  0.89198168857E+02  0.33852566022E+03  0.53732224129E+03  0.17200000000E+03 0.  1.
</event>
<event>
 4    1  0.3190379E-002  0.4955333E+03  0.7818608E-02  0.1014951E+00
          2   -1    0    0  502    0  0.00000000000E+00  0.00000000000E+00  0.15071211225E+04  0.15071211225E+04  0.00000000000E+00 0. -1.
         -2   -1    0    0    0  501 -0.00000000000E+00 -0.00000000000E+00 -0.16860012014E+03  0.16860012014E+03  0.00000000000E+00 0.  1.
          6    1    1    2  502    0  0.38260219790E+03  0.26378938840E+03  0.51559060421E+03  0.71511324587E+03  0.17200000000E+03 0. -1.
         -6    1    1    2    0  501 -0.38260219790E+03 -0.26378938840E+03  0.82293039817E+03  0.96060799679E+03  0.17200000000E+03 0.  1.
</event>
<event>
 4    1  0.3190379E-002  0.2282441E+03  0.7818608E-02  0.1127882E+00
         -3   -1    0    0    0  501 -0.00000000000E+00  0.00000000000E+00  0.53092952982E+03  0.53092952982E+03  0.00000000000E+00 0.  1.
          3   -1    0    0  502    0  0.00000000000E+00 -0.00000000000E+00 -0.12035311252E+03  0.12035311252E+03  0.00000000000E+00 0. -1.
          6    1    1    2  502    0 -0.11065310941E+03  0.10132753687E+03  0.65329346765E+02  0.23740956994E+03  0.17200000000E+03 0. -1.
         -6    1    1    2    0  501  0.11065310941E+03 -0.10132753687E+03  0.34524707053E+03  0.41387307241E+03  0.17200000000E+03 0.  1.
</event>
<event>
 4    1  0.3190379E-002  0.2738499E+03  0.7818608E-02  0.1099096E+00
          2   -1    0    0  502    0  0.00000000000E+00  0.00000000000E+00  0.45332403133E+03  0.45332403133E+03  0.00000000000E+00 0. -1.
         -2   -1    0    0    0  501 -0.00000000000E+00 -0.00000000000E+00 -0.17315374026E+03  0.17315374026E+03  0.00000000000E+00 0.  1.
          6    1    1    2  502    0 -0.48751439385E+02 -0.20744415967E+03  0.73932149911E+02  0.28365427022E+03  0.17200000000E+03 0. -1.
         -6    1    1    2    0  501  0.48751439385E+02  0.20744415967E+03  0.20623814116E+03  0.34282350137E+03  0.17200000000E+03 0. -1.
</event>
<event>
 4    1  0.3190379E-002  0.3071455E+03  0.7818608E-02  0.1081722E+00
          3   -1    0    0  502    0  0.00000000000E+00  0.00000000000E+00  0.51525186483E+03  0.51525186483E+03  0.00000000000E+00 0. -1.
         -3   -1    0    0    0  501 -0.00000000000E+00 -0.00000000000E+00 -0.18972462162E+03  0.18972462162E+03  0.00000000000E+00 0.  1.
          6    1    1    2  502    0  0.21692597719E+03 -0.13303196702E+03  0.22867075575E+03  0.38292126915E+03  0.17200000000E+03 0. -1.
         -6    1    1    2    0  501 -0.21692597719E+03  0.13303196702E+03  0.96856487466E+02  0.32205521731E+03  0.17200000000E+03 0.  1.
</event>
<event>
 4    1  0.3190379E-002  0.2178842E+03  0.7818608E-02  0.1135470E+00
         -1   -1    0    0    0  501 -0.00000000000E+00  0.00000000000E+00  0.75949861607E+02  0.75949861607E+02  0.00000000000E+00 0.  1.
          1   -1    0    0  502    0  0.00000000000E+00 -0.00000000000E+00 -0.17333550074E+04  0.17333550074E+04  0.00000000000E+00 0. -1.
          6    1    1    2  502    0 -0.61183480917E+02  0.11893742773E+03 -0.15520798898E+04  0.15672987955E+04  0.17200000000E+03 0. -1.
         -6    1    1    2    0  501  0.61183480917E+02 -0.11893742773E+03 -0.10532525594E+03  0.24200607346E+03  0.17200000000E+03 0.  1.
</event>
<event>
 4    1  0.3190379E-002  0.3008754E+03  0.7818608E-02  0.1084804E+00
          2   -1    0    0  502    0  0.00000000000E+00  0.00000000000E+00  0.15735644891E+04  0.15735644891E+04  0.00000000000E+00 0. -1.
         -2   -1    0    0    0  501 -0.00000000000E+00 -0.00000000000E+00 -0.10377406974E+03  0.10377406974E+03  0.00000000000E+00 0.  1.
          6    1    1    2  502    0  0.24463739415E+03 -0.33084387709E+02  0.12947529893E+04  0.13292521712E+04  0.17200000000E+03 0. -1.
         -6    1    1    2    0  501 -0.24463739415E+03  0.33084387709E+02  0.17503743000E+03  0.34808638759E+03  0.17200000000E+03 0.  1.
</event>
<event>
 4    1  0.3190379E-002  0.2171283E+03  0.7818608E-02  0.1136042E+00
         -2   -1    0    0    0  501 -0.00000000000E+00  0.00000000000E+00  0.33563027054E+03  0.33563027054E+03  0.00000000000E+00 0.  1.
          2   -1    0    0  502    0  0.00000000000E+00 -0.00000000000E+00 -0.21783545621E+03  0.21783545621E+03  0.00000000000E+00 0. -1.
          6    1    1    2  502    0  0.65694214640E+02 -0.11508671254E+03 -0.10602546616E+03  0.24163211855E+03  0.17200000000E+03 0. -1.
         -6    1    1    2    0  501 -0.65694214640E+02  0.11508671254E+03  0.22382028049E+03  0.31183360820E+03  0.17200000000E+03 0.  1.
</event>
<event>
 4    1  0.3190379E-002  0.2326471E+03  0.7818608E-02  0.1124790E+00
         -4   -1    0    0    0  501 -0.00000000000E+00  0.00000000000E+00  0.26338699716E+03  0.26338699716E+03  0.00000000000E+00 0.  1.
          4   -1    0    0  502    0  0.00000000000E+00 -0.00000000000E+00 -0.24512217180E+03  0.24512217180E+03  0.00000000000E+00 0. -1.
          6    1    1    2  502    0  0.14390894612E+03 -0.61894183120E+02  0.11136157183E+03  0.25792649022E+03  0.17200000000E+03 0. -1.
         -6    1    1    2    0  501 -0.14390894612E+03  0.61894183120E+02 -0.93096746473E+02  0.25058267874E+03  0.17200000000E+03 0.  1.
</event>
<event>
 4    1  0.3190379E-002  0.2174011E+03  0.7818608E-02  0.1135836E+00
         -2   -1    0    0    0  501 -0.00000000000E+00  0.00000000000E+00  0.67203174015E+03  0.67203174015E+03  0.00000000000E+00 0.  1.
          2   -1    0    0  502    0  0.00000000000E+00 -0.00000000000E+00 -0.82188557581E+02  0.82188557581E+02  0.00000000000E+00 0. -1.
          6    1    1    2  502    0  0.13239642541E+03  0.12264563889E+02  0.15167009641E+03  0.26507932989E+03  0.17200000000E+03 0. -1.
         -6    1    1    2    0  501 -0.13239642541E+03 -0.12264563889E+02  0.43817308616E+03  0.48914096784E+03  0.17200000000E+03 0.  1.
</event>
<event>
 4    1  0.3190379E-002  0.2074533E+03  0.7818608E-02  0.1143599E+00
         -2   -1    0    0    0  501 -0.00000000000E+00  0.00000000000E+00  0.24338008389E+02  0.24338008389E+02  0.00000000000E+00 0.  1.
          2   -1    0    0  502    0  0.00000000000E+00 -0.00000000000E+00 -0.22238310958E+04  0.22238310958E+04  0.00000000000E+00 0. -1.
          6    1    1    2  502    0 -0.10826815539E+03 -0.41604030779E+02 -0.16084999352E+04  0.16218227186E+04  0.17200000000E+03 0. -1.
         -6    1    1    2    0  501  0.10826815539E+03  0.41604030779E+02 -0.59099315220E+03  0.62634638563E+03  0.17200000000E+03 0.  1.
</event>
<event>
 4    1  0.3190379E-002  0.3416647E+03  0.7818608E-02  0.1066089E+00
          1   -1    0    0  502    0  0.00000000000E+00  0.00000000000E+00  0.36814208492E+03  0.36814208492E+03  0.00000000000E+00 0. -1.
         -1   -1    0    0    0  501 -0.00000000000E+00 -0.00000000000E+00 -0.59562999608E+03  0.59562999608E+03  0.00000000000E+00 0.  1.
          6    1    1    2  502    0 -0.29125297627E+03 -0.48192177200E+02  0.21578877679E+03  0.40410342527E+03  0.17200000000E+03 0. -1.
         -6    1    1    2    0  501  0.29125297627E+03  0.48192177200E+02 -0.44327668795E+03  0.55966865573E+03  0.17200000000E+03 0.  1.
</event>
<event>
 4    1  0.3190379E-002  0.1979400E+03  0.7818608E-02  0.1151489E+00
         -1   -1    0    0    0  501 -0.00000000000E+00  0.00000000000E+00  0.24214267553E+02  0.24214267553E+02  0.00000000000E+00 0.  1.
          1   -1    0    0  502    0  0.00000000000E+00 -0.00000000000E+00 -0.16604523850E+04  0.16604523850E+04  0.00000000000E+00 0. -1.
          6    1    1    2  502    0  0.18931460501E+02  0.96113633049E+02 -0.95270355812E+03  0.97304897118E+03  0.17200000000E+03 0. -1.
         -6    1    1    2    0  501 -0.18931460501E+02 -0.96113633049E+02 -0.68353455937E+03  0.71161768142E+03  0.17200000000E+03 0.  1.
</event>
<event>
 4    1  0.3190379E-002  0.1884116E+03  0.7818608E-02  0.1159902E+00
          3   -1    0    0  502    0  0.00000000000E+00  0.00000000000E+00  0.19121361718E+03  0.19121361718E+03  0.00000000000E+00 0. -1.
         -3   -1    0    0    0  501 -0.00000000000E+00 -0.00000000000E+00 -0.19967697991E+03  0.19967697991E+03  0.00000000000E+00 0.  1.
          6    1    1    2  502    0  0.31661624203E+02 -0.70089043873E+02  0.47568733371E+02  0.19432374253E+03  0.17200000000E+03 0. -1.
         -6    1    1    2    0  501 -0.31661624203E+02  0.70089043873E+02 -0.56032096104E+02  0.19656685456E+03  0.17200000000E+03 0.  1.
</event>
<event>
 4    1  0.3190379E-002  0.4391503E+03  0.7818608E-02  0.1031008E+00
         -2   -1    0    0    0  501 -0.00000000000E+00  0.00000000000E+00  0.31715407876E+03  0.31715407876E+03  0.00000000000E+00 0.  1.
          2   -1    0    0  502    0  0.00000000000E+00 -0.00000000000E+00 -0.22269290510E+04  0.22269290510E+04  0.00000000000E+00 0. -1.
          6    1    1    2  502    0  0.40285340477E+03  0.31275031961E+02 -0.20394439331E+04  0.20861890015E+04  0.17200000000E+03 0. -1.
         -6    1    1    2    0  501 -0.40285340477E+03 -0.31275031961E+02  0.12966896087E+03  0.45789412835E+03  0.17200000000E+03 0.  1.
</event>
<event>
 4    1  0.3190379E-002  0.2810577E+03  0.7818608E-02  0.1095113E+00
          2   -1    0    0  502    0  0.00000000000E+00  0.00000000000E+00  0.22225960565E+04  0.22225960565E+04  0.00000000000E+00 0. -1.
         -2   -1    0    0    0  501 -0.00000000000E+00 -0.00000000000E+00 -0.49018344387E+02  0.49018344387E+02  0.00000000000E+00 0.  1.
          6    1    1    2  502    0 -0.20837809463E+03 -0.77382331911E+02  0.16823498347E+04  0.17056653898E+04  0.17200000000E+03 0. -1.
         -6    1    1    2    0  501  0.20837809463E+03  0.77382331911E+02  0.49122787740E+03  0.56594901108E+03  0.17200000000E+03 0.  1.
</event>
<event>
 4    1  0.3190379E-002  0.3748602E+03  0.7818608E-02  0.1052850E+00
         -4   -1    0    0    0  501 -0.00000000000E+00  0.00000000000E+00  0.65278571520E+03  0.65278571520E+03  0.00000000000E+00 0.  1.
          4   -1    0    0  502    0  0.00000000000E+00 -0.00000000000E+00 -0.61725715462E+03  0.61725715462E+03  0.00000000000E+00 0. -1.
          6    1    1    2  502    0 -0.26054847763E+03 -0.20748657551E+03 -0.49470228719E+03  0.62068554128E+03  0.17200000000E+03 0. -1.
         -6    1    1    2    0  501  0.26054847763E+03  0.20748657551E+03  0.53023084776E+03  0.64935732854E+03  0.17200000000E+03 0.  1.
</event>
<event>
 4    1  0.3190379E-002  0.3346622E+03  0.7818608E-02  0.1069092E+00
          2   -1    0    0  502    0  0.00000000000E+00  0.00000000000E+00  0.64545847578E+03  0.64545847578E+03  0.00000000000E+00 0. -1.
         -2   -1    0    0    0  501 -0.00000000000E+00 -0.00000000000E+00 -0.18375540921E+03  0.18375540921E+03  0.00000000000E+00 0.  1.
          6    1    1    2  502    0 -0.17404590623E+03  0.22830413834E+03  0.13299079881E+03  0.36011846610E+03  0.17200000000E+03 0.  1.
         -6    1    1    2    0  501  0.17404590623E+03 -0.22830413834E+03  0.32871226776E+03  0.46909541890E+03  0.17200000000E+03 0. -1.
</event>
<event>
 4    1  0.3190379E-002  0.5228736E+03  0.7818608E-02  0.1007975E+00
         -2   -1    0    0    0  501 -0.00000000000E+00  0.00000000000E+00  0.55996770077E+03  0.55996770077E+03  0.00000000000E+00 0.  1.
          2   -1    0    0  502    0  0.00000000000E+00 -0.00000000000E+00 -0.93065588708E+03  0.93065588708E+03  0.00000000000E+00 0. -1.
          6    1    1    2  502    0  0.48595514005E+03  0.87523653478E+02 -0.69922253767E+03  0.87310305534E+03  0.17200000000E+03 0. -1.
         -6    1    1    2    0  501 -0.48595514005E+03 -0.87523653478E+02  0.32853435135E+03  0.61752053251E+03  0.17200000000E+03 0.  1.
</event>
<event>
 4    1  0.3190379E-002  0.2181816E+03  0.7818608E-02  0.1135246E+00
         -1   -1    0    0    0  501 -0.00000000000E+00  0.00000000000E+00  0.20996122201E+03  0.20996122201E+03  0.00000000000E+00 0.  1.
          1   -1    0    0  502    0  0.00000000000E+00 -0.00000000000E+00 -0.22747286801E+03  0.22747286801E+03  0.00000000000E+00 0. -1.
          6    1    1    2  502    0 -0.13026471295E+03 -0.32408390056E+02  0.37954567768E+01  0.21821458402E+03  0.17200000000E+03 0.  1.
         -6    1    1    2    0  501  0.13026471295E+03  0.32408390056E+02 -0.21307102773E+02  0.21921950601E+03  0.17200000000E+03 0. -1.
</event>
<event>
 4    1  0.3190379E-002  0.3446118E+03  0.7818608E-02  0.1064849E+00
          2   -1    0    0  502    0  0.00000000000E+00  0.00000000000E+00  0.20906782142E+04  0.20906782142E+04  0.00000000000E+00 0. -1.
         -2   -1    0    0    0  501 -0.00000000000E+00 -0.00000000000E+00 -0.16033883678E+03  0.16033883678E+03  0.00000000000E+00 0.  1.
          6    1    1    2  502    0 -0.28454606826E+03  0.90591362110E+02  0.18695983298E+04  0.19010931525E+04  0.17200000000E+03 0. -1.
         -6    1    1    2    0  501  0.28454606826E+03 -0.90591362110E+02  0.60741047639E+02  0.34992389847E+03  0.17200000000E+03 0.  1.
</event>
<event>
 4    1  0.3190379E-002  0.4768008E+03  0.7818608E-02  0.1020018E+00
         -2   -1    0    0    0  501 -0.00000000000E+00  0.00000000000E+00  0.77145988201E+03  0.77145988201E+03  0.00000000000E+00 0.  1.
          2   -1    0    0  502    0  0.00000000000E+00 -0.00000000000E+00 -0.84207283638E+03  0.84207283638E+03  0.00000000000E+00 0. -1.
          6    1    1    2  502    0  0.37488262765E+03  0.23920282670E+03 -0.68576535163E+03  0.83523235948E+03  0.17200000000E+03 0. -1.
         -6    1    1    2    0  501 -0.37488262765E+03 -0.23920282670E+03  0.61515239727E+03  0.77830035891E+03  0.17200000000E+03 0.  1.
</event>
<event>
 4    1  0.3190379E-002  0.3715709E+03  0.7818608E-02  0.1054094E+00
         -2   -1    0    0    0  501 -0.00000000000E+00  0.00000000000E+00  0.52350320008E+03  0.52350320008E+03  0.00000000000E+00 0.  1.
          2   -1    0    0  502    0  0.00000000000E+00 -0.00000000000E+00 -0.28599259450E+03  0.28599259450E+03  0.00000000000E+00 0. -1.
          6    1    1    2  502    0 -0.32056172480E+02 -0.32780075892E+03  0.23167464082E+03  0.43787906429E+03  0.17200000000E+03 0.  1.
         -6    1    1    2    0  501  0.32056172480E+02  0.32780075892E+03  0.58359647582E+01  0.37161673029E+03  0.17200000000E+03 0.  1.
</event>
<event>
 4    1  0.3190379E-002  0.3379381E+03  0.7818608E-02  0.1067678E+00
         -2   -1    0    0    0  501 -0.00000000000E+00  0.00000000000E+00  0.84712798774E+02  0.84712798774E+02  0.00000000000E+00 0.  1.
          2   -1    0    0  502    0  0.00000000000E+00 -0.00000000000E+00 -0.14115052563E+04  0.14115052563E+04  0.00000000000E+00 0. -1.
          6    1    1    2  502    0 -0.28916316095E+03 -0.31667846916E+02 -0.82194081575E+03  0.88870067558E+03  0.17200000000E+03 0.  1.
         -6    1    1    2    0  501  0.28916316095E+03  0.31667846916E+02 -0.50485164176E+03  0.60751737948E+03  0.17200000000E+03 0.  1.
</event>
<event>
 4    1  0.3190379E-002  0.2196641E+03  0.7818608E-02  0.1134134E+00
         -2   -1    0    0    0  501 -0.00000000000E+00  0.00000000000E+00  0.87199786089E+02  0.87199786089E+02  0.00000000000E+00 0.  1.
          2   -1    0    0  502    0  0.00000000000E+00 -0.00000000000E+00 -0.76795872364E+03  0.76795872364E+03  0.00000000000E+00 0. -1.
          6    1    1    2  502    0  0.12334986544E+03  0.58763473690E+02 -0.56641020671E+03  0.60751366850E+03  0.17200000000E+03 0. -1.
         -6    1    1    2    0  501 -0.12334986544E+03 -0.58763473690E+02 -0.11434873084E+03  0.24764484123E+03  0.17200000000E+03 0.  1.
</event>
<event>
 4    1  0.3190379E-002  0.1791033E+03  0.7818608E-02  0.1168674E+00
          1   -1    0    0  502    0  0.00000000000E+00  0.00000000000E+00  0.12988590449E+04  0.12988590449E+04  0.00000000000E+00 0. -1.
         -1   -1    0    0    0  501 -0.00000000000E+00 -0.00000000000E+00 -0.24702212647E+02  0.24702212647E+02  0.00000000000E+00 0.  1.
          6    1    1    2  502    0  0.84539484953E+01 -0.49219304932E+02  0.64662953424E+03  0.67097523335E+03  0.17200000000E+03 0. -1.
         -6    1    1    2    0  501 -0.84539484953E+01  0.49219304932E+02  0.62752729805E+03  0.65258602423E+03  0.17200000000E+03 0.  1.
</event>
<event>
 4    1  0.3190379E-002  0.2316936E+03  0.7818608E-02  0.1125453E+00
         -2   -1    0    0    0  501 -0.00000000000E+00  0.00000000000E+00  0.12714949563E+03  0.12714949563E+03  0.00000000000E+00 0.  1.
          2   -1    0    0  502    0  0.00000000000E+00 -0.00000000000E+00 -0.46942000599E+03  0.46942000599E+03  0.00000000000E+00 0. -1.
          6    1    1    2  502    0  0.10933518709E+03 -0.11019862884E+03 -0.76525736726E+02  0.24400432233E+03  0.17200000000E+03 0. -1.
         -6    1    1    2    0  501 -0.10933518709E+03  0.11019862884E+03 -0.26574477364E+03  0.35256517929E+03  0.17200000000E+03 0.  1.
</event>
<event>
 4    1  0.3190379E-002  0.2286083E+03  0.7818608E-02  0.1127623E+00
         -2   -1    0    0    0  501 -0.00000000000E+00  0.00000000000E+00  0.63531314493E+02  0.63531314493E+02  0.00000000000E+00 0.  1.
          2   -1    0    0  502    0  0.00000000000E+00 -0.00000000000E+00 -0.89003853334E+03  0.89003853334E+03  0.00000000000E+00 0. -1.
          6    1    1    2  502    0  0.12959005167E+03 -0.76708499123E+02 -0.54448137570E+03  0.59052666647E+03  0.17200000000E+03 0. -1.
         -6    1    1    2    0  501 -0.12959005167E+03  0.76708499123E+02 -0.28202584314E+03  0.36304318136E+03  0.17200000000E+03 0.  1.
</event>
<event>
 4    1  0.3190379E-002  0.5610987E+03  0.7818608E-02  0.9989572E-01
         -2   -1    0    0    0  501 -0.00000000000E+00  0.00000000000E+00  0.41205014728E+03  0.41205014728E+03  0.00000000000E+00 0.  1.
          2   -1    0    0  502    0  0.00000000000E+00 -0.00000000000E+00 -0.81152562773E+03  0.81152562773E+03  0.00000000000E+00 0. -1.
          6    1    1    2  502    0 -0.52447232558E+03  0.10087893929E+03 -0.34769323401E+03  0.66009269475E+03  0.17200000000E+03 0. -1.
         -6    1    1    2    0  501  0.52447232558E+03 -0.10087893929E+03 -0.51782246436E+02  0.56348308026E+03  0.17200000000E+03 0.  1.
</event>
<event>
 4    1  0.3190379E-002  0.1746151E+03  0.7818608E-02  0.1173119E+00
         -2   -1    0    0    0  501 -0.00000000000E+00  0.00000000000E+00  0.49451634502E+02  0.49451634502E+02  0.00000000000E+00 0.  1.
          2   -1    0    0  502    0  0.00000000000E+00 -0.00000000000E+00 -0.16135624980E+04  0.16135624980E+04  0.00000000000E+00 0. -1.
          6    1    1    2  502    0 -0.21102497084E+02 -0.21473531644E+02 -0.14356656685E+04  0.14462456014E+04  0.17200000000E+03 0. -1.
         -6    1    1    2    0  501  0.21102497084E+02  0.21473531644E+02 -0.12844519500E+03  0.21676853107E+03  0.17200000000E+03 0.  1.
</event>
<event>
 4    1  0.3190379E-002  0.2665186E+03  0.7818608E-02  0.1103289E+00
         -2   -1    0    0    0  501 -0.00000000000E+00  0.00000000000E+00  0.16552286816E+03  0.16552286816E+03  0.00000000000E+00 0.  1.
          2   -1    0    0  502    0  0.00000000000E+00 -0.00000000000E+00 -0.45010665129E+03  0.45010665129E+03  0.00000000000E+00 0. -1.
          6    1    1    2  502    0  0.12734435742E+03  0.15884449250E+03 -0.75853880082E+02  0.27710281357E+03  0.17200000000E+03 0. -1.
         -6    1    1    2    0  501 -0.12734435742E+03 -0.15884449250E+03 -0.20872990306E+03  0.33852670588E+03  0.17200000000E+03 0.  1.
</event>
<event>
 4    1  0.3190379E-002  0.1759002E+03  0.7818608E-02  0.1171831E+00
         -2   -1    0    0    0  501 -0.00000000000E+00  0.00000000000E+00  0.15238971821E+02  0.15238971821E+02  0.00000000000E+00 0.  1.
          2   -1    0    0  502    0  0.00000000000E+00 -0.00000000000E+00 -0.20328940603E+04  0.20328940603E+04  0.00000000000E+00 0. -1.
          6    1    1    2  502    0  0.34490611375E+02  0.12933540280E+02 -0.10448521759E+04  0.10595550709E+04  0.17200000000E+03 0. -1.
         -6    1    1    2    0  501 -0.34490611375E+02 -0.12933540280E+02 -0.97280291258E+03  0.98857796124E+03  0.17200000000E+03 0.  1.
</event>
<event>
 4    1  0.3190379E-002  0.3120013E+03  0.7818608E-02  0.1079391E+00
         -1   -1    0    0    0  501 -0.00000000000E+00  0.00000000000E+00  0.95580079538E+02  0.95580079538E+02  0.00000000000E+00 0.  1.
          1   -1    0    0  502    0  0.00000000000E+00 -0.00000000000E+00 -0.16688691908E+04  0.16688691908E+04  0.00000000000E+00 0. -1.
          6    1    1    2  502    0 -0.10835462506E+03  0.23668556445E+03 -0.23588715418E+03  0.39113620479E+03  0.17200000000E+03 0. -1.
         -6    1    1    2    0  501  0.10835462506E+03 -0.23668556445E+03 -0.13374019570E+04  0.13733130655E+04  0.17200000000E+03 0. -1.
</event>
<event>
 4    1  0.3190379E-002  0.2008031E+03  0.7818608E-02  0.1149063E+00
         -2   -1    0    0    0  501 -0.00000000000E+00  0.00000000000E+00  0.72000150683E+02  0.72000150683E+02  0.00000000000E+00 0.  1.
          2   -1    0    0  502    0  0.00000000000E+00 -0.00000000000E+00 -0.10846619818E+04  0.10846619818E+04  0.00000000000E+00 0. -1.
          6    1    1    2  502    0  0.99722565847E+02  0.28165588308E+02 -0.10411548467E+03  0.22619001890E+03  0.17200000000E+03 0. -1.
         -6    1    1    2    0  501 -0.99722565847E+02 -0.28165588308E+02 -0.90854634641E+03  0.93047211354E+03  0.17200000000E+03 0. -1.
</event>
<event>
 4    1  0.3190379E-002  0.2003720E+03  0.7818608E-02  0.1149426E+00
          2   -1    0    0  502    0  0.00000000000E+00  0.00000000000E+00  0.20571791578E+04  0.20571791578E+04  0.00000000000E+00 0. -1.
         -2   -1    0    0    0  501 -0.00000000000E+00 -0.00000000000E+00 -0.19516541198E+02  0.19516541198E+02  0.00000000000E+00 0.  1.
          6    1    1    2  502    0 -0.85310781730E+02  0.57332545368E+02  0.10202174219E+04  0.10397079100E+04  0.17200000000E+03 0.  1.
         -6    1    1    2    0  501  0.85310781730E+02 -0.57332545368E+02  0.10174451947E+04  0.10369877890E+04  0.17200000000E+03 0. -1.
</event>
<event>
 4    1  0.3190379E-002  0.2248994E+03  0.7818608E-02  0.1130282E+00
          2   -1    0    0  502    0  0.00000000000E+00  0.00000000000E+00  0.12676858882E+04  0.12676858882E+04  0.00000000000E+00 0. -1.
         -2   -1    0    0    0  501 -0.00000000000E+00 -0.00000000000E+00 -0.14683934114E+04  0.14683934114E+04  0.00000000000E+00 0.  1.
          6    1    1    2  502    0  0.10744371262E+03  0.97219329695E+02  0.12489716578E+04  0.12690586871E+04  0.17200000000E+03 0. -1.
         -6    1    1    2    0  501 -0.10744371262E+03 -0.97219329695E+02 -0.14496791810E+04  0.14670206124E+04  0.17200000000E+03 0.  1.
</event>
<event>
 4    1  0.3190379E-002  0.1760040E+03  0.7818608E-02  0.1171727E+00
          2   -1    0    0  502    0  0.00000000000E+00  0.00000000000E+00  0.20522509305E+04  0.20522509305E+04  0.00000000000E+00 0. -1.
         -2   -1    0    0    0  501 -0.00000000000E+00 -0.00000000000E+00 -0.17552074983E+02  0.17552074983E+02  0.00000000000E+00 0.  1.
          6    1    1    2  502    0  0.36981397423E+02 -0.50789510149E+01  0.14046073598E+04  0.14155914858E+04  0.17200000000E+03 0. -1.
         -6    1    1    2    0  501 -0.36981397423E+02  0.50789510149E+01  0.63009149577E+03  0.65421151973E+03  0.17200000000E+03 0.  1.
</event>
<event>
 4    1  0.3190379E-002  0.3757250E+03  0.7818608E-02  0.1052525E+00
         -2   -1    0    0    0  501 -0.00000000000E+00  0.00000000000E+00  0.45584484978E+03  0.45584484978E+03  0.00000000000E+00 0.  1.
          2   -1    0    0  502    0  0.00000000000E+00 -0.00000000000E+00 -0.36721922656E+03  0.36721922656E+03  0.00000000000E+00 0. -1.
          6    1    1    2  502    0  0.29639810812E+03  0.15405656982E+03 -0.11857785294E+03  0.39399235070E+03  0.17200000000E+03 0. -1.
         -6    1    1    2    0  501 -0.29639810812E+03 -0.15405656982E+03  0.20720347616E+03  0.42907172563E+03  0.17200000000E+03 0.  1.
</event>
<event>
 4    1  0.3190379E-002  0.3676285E+03  0.7818608E-02  0.1055603E+00
          1   -1    0    0  502    0  0.00000000000E+00  0.00000000000E+00  0.50994761455E+03  0.50994761455E+03  0.00000000000E+00 0. -1.
         -1   -1    0    0    0  501 -0.00000000000E+00 -0.00000000000E+00 -0.31503788667E+03  0.31503788667E+03  0.00000000000E+00 0.  1.
          6    1    1    2  502    0  0.32081128410E+03 -0.51447405615E+02  0.26180124498E+03  0.45132095833E+03  0.17200000000E+03 0. -1.
         -6    1    1    2    0  501 -0.32081128410E+03  0.51447405615E+02 -0.66891517104E+02  0.37366454289E+03  0.17200000000E+03 0.  1.
</event>
<event>
 4    1  0.3190379E-002  0.2625509E+03  0.7818608E-02  0.1105620E+00
          2   -1    0    0  502    0  0.00000000000E+00  0.00000000000E+00  0.45420843542E+03  0.45420843542E+03  0.00000000000E+00 0. -1.
         -2   -1    0    0    0  501 -0.00000000000E+00 -0.00000000000E+00 -0.18378441623E+03  0.18378441623E+03  0.00000000000E+00 0.  1.
          6    1    1    2  502    0  0.84648358164E+01 -0.19818508512E+03  0.26836091785E+03  0.37543383391E+03  0.17200000000E+03 0. -1.
         -6    1    1    2    0  501 -0.84648358164E+01  0.19818508512E+03  0.20631013380E+01  0.26255901774E+03  0.17200000000E+03 0.  1.
</event>
<event>
 4    1  0.3190379E-002  0.2551622E+03  0.7818608E-02  0.1110085E+00
          3   -1    0    0  502    0  0.00000000000E+00  0.00000000000E+00  0.57265888905E+02  0.57265888905E+02  0.00000000000E+00 0. -1.
         -3   -1    0    0    0  501 -0.00000000000E+00 -0.00000000000E+00 -0.11996725480E+04  0.11996725480E+04  0.00000000000E+00 0.  1.
          6    1    1    2  502    0 -0.11168556687E+03  0.15182249767E+03 -0.71492020398E+03  0.75909066303E+03  0.17200000000E+03 0.  1.
         -6    1    1    2    0  501  0.11168556687E+03 -0.15182249767E+03 -0.42748645514E+03  0.49784777390E+03  0.17200000000E+03 0. -1.
</event>
<event>
 4    1  0.3190379E-002  0.6995176E+03  0.7818608E-02  0.9718057E-01
          1   -1    0    0  502    0  0.00000000000E+00  0.00000000000E+00  0.10122844959E+04  0.10122844959E+04  0.00000000000E+00 0. -1.
         -1   -1    0    0    0  501 -0.00000000000E+00 -0.00000000000E+00 -0.72600630999E+03  0.72600630999E+03  0.00000000000E+00 0.  1.
          6    1    1    2  502    0 -0.47618847425E+03 -0.48268563725E+03  0.64558020409E+03  0.95189216161E+03  0.17200000000E+03 0. -1.
         -6    1    1    2    0  501  0.47618847425E+03  0.48268563725E+03 -0.35930201820E+03  0.78639864427E+03  0.17200000000E+03 0.  1.
</event>
<event>
 4    1  0.3190379E-002  0.3406649E+03  0.7818608E-02  0.1066513E+00
          2   -1    0    0  502    0  0.00000000000E+00  0.00000000000E+00  0.88129953183E+03  0.88129953183E+03  0.00000000000E+00 0. -1.
         -2   -1    0    0    0  501 -0.00000000000E+00 -0.00000000000E+00 -0.13881551095E+03  0.13881551095E+03  0.00000000000E+00 0.  1.
          6    1    1    2  502    0 -0.20455230437E+03 -0.21125089311E+03  0.48685507498E+03  0.59420572961E+03  0.17200000000E+03 0. -1.
         -6    1    1    2    0  501  0.20455230437E+03  0.21125089311E+03  0.25562894591E+03  0.42590931317E+03  0.17200000000E+03 0.  1.
</event>
<event>
 4    1  0.3190379E-002  0.6213307E+03  0.7818608E-02  0.9862114E-01
          1   -1    0    0  502    0  0.00000000000E+00  0.00000000000E+00  0.24395621404E+04  0.24395621404E+04  0.00000000000E+00 0. -1.
         -1   -1    0    0    0  501 -0.00000000000E+00 -0.00000000000E+00 -0.58699092824E+03  0.58699092824E+03  0.00000000000E+00 0.  1.
          6    1    1    2  502    0 -0.26270141370E+03  0.53614909673E+03  0.22195934348E+04  0.23049179818E+04  0.17200000000E+03 0. -1.
         -6    1    1    2    0  501  0.26270141370E+03 -0.53614909673E+03 -0.36702222267E+03  0.72163508688E+03  0.17200000000E+03 0.  1.
</event>
<event>
 4    1  0.3190379E-002  0.2699410E+03  0.7818608E-02  0.1101313E+00
          1   -1    0    0  502    0  0.00000000000E+00  0.00000000000E+00  0.18168494200E+03  0.18168494200E+03  0.00000000000E+00 0. -1.
         -1   -1    0    0    0  501 -0.00000000000E+00 -0.00000000000E+00 -0.54668920278E+03  0.54668920278E+03  0.00000000000E+00 0.  1.
          6    1    1    2  502    0 -0.16914496298E+02  0.20735970703E+03  0.54578976047E+01  0.26999617948E+03  0.17200000000E+03 0. -1.
         -6    1    1    2    0  501  0.16914496298E+02 -0.20735970703E+03 -0.37046215838E+03  0.45837796531E+03  0.17200000000E+03 0.  1.
</event>
<event>
 4    1  0.3190379E-002  0.2818607E+03  0.7818608E-02  0.1094677E+00
          1   -1    0    0  502    0  0.00000000000E+00  0.00000000000E+00  0.94573760062E+03  0.94573760062E+03  0.00000000000E+00 0. -1.
         -1   -1    0    0    0  501 -0.00000000000E+00 -0.00000000000E+00 -0.88010535103E+02  0.88010535103E+02  0.00000000000E+00 0.  1.
          6    1    1    2  502    0  0.12524351615E+02  0.22294524388E+03  0.31857786042E+03  0.42536724639E+03  0.17200000000E+03 0.  1.
         -6    1    1    2    0  501 -0.12524351615E+02 -0.22294524388E+03  0.53914920509E+03  0.60838088933E+03  0.17200000000E+03 0.  1.
</event>
<event>
 4    1  0.3190379E-002  0.2083787E+03  0.7818608E-02  0.1142856E+00
         -2   -1    0    0    0  501 -0.00000000000E+00  0.00000000000E+00  0.97130679953E+03  0.97130679953E+03  0.00000000000E+00 0.  1.
          2   -1    0    0  502    0  0.00000000000E+00 -0.00000000000E+00 -0.47851408692E+02  0.47851408692E+02  0.00000000000E+00 0. -1.
          6    1    1    2  502    0  0.96041178637E+02  0.67924795650E+02  0.33104642479E+03  0.39116929995E+03  0.17200000000E+03 0. -1.
         -6    1    1    2    0  501 -0.96041178637E+02 -0.67924795650E+02  0.59240896605E+03  0.62798890827E+03  0.17200000000E+03 0.  1.
</event>
<event>
 4    1  0.3190379E-002  0.4695489E+03  0.7818608E-02  0.1022048E+00
         -2   -1    0    0    0  501 -0.00000000000E+00  0.00000000000E+00  0.29961555754E+03  0.29961555754E+03  0.00000000000E+00 0.  1.
          2   -1    0    0  502    0  0.00000000000E+00 -0.00000000000E+00 -0.14111035855E+04  0.14111035855E+04  0.00000000000E+00 0. -1.
          6    1    1    2  502    0 -0.33973309151E+03  0.27472452004E+03 -0.11474396943E+04  0.12397959459E+04  0.17200000000E+03 0. -1.
         -6    1    1    2    0  501  0.33973309151E+03 -0.27472452004E+03  0.35951666277E+02  0.47092319723E+03  0.17200000000E+03 0.  1.
</event>
<event>
 4    1  0.3190379E-002  0.2138776E+03  0.7818608E-02  0.1138532E+00
         -1   -1    0    0    0  501 -0.00000000000E+00  0.00000000000E+00  0.63258823950E+02  0.63258823950E+02  0.00000000000E+00 0.  1.
          1   -1    0    0  502    0  0.00000000000E+00 -0.00000000000E+00 -0.72455245894E+03  0.72455245894E+03  0.00000000000E+00 0. -1.
          6    1    1    2  502    0  0.11910139694E+03  0.44435199472E+02 -0.34817014188E+03  0.40861482768E+03  0.17200000000E+03 0. -1.
         -6    1    1    2    0  501 -0.11910139694E+03 -0.44435199472E+02 -0.31312349310E+03  0.37919645520E+03  0.17200000000E+03 0.  1.
</event>
<event>
 4    1  0.3190379E-002  0.1750043E+03  0.7818608E-02  0.1172727E+00
         -2   -1    0    0    0  501 -0.00000000000E+00  0.00000000000E+00  0.10001954594E+02  0.10001954594E+02  0.00000000000E+00 0.  1.
          2   -1    0    0  502    0  0.00000000000E+00 -0.00000000000E+00 -0.30623219837E+04  0.30623219837E+04  0.00000000000E+00 0. -1.
          6    1    1    2  502    0  0.56208573139E+01 -0.31795077255E+02 -0.15117787386E+04  0.15218743297E+04  0.17200000000E+03 0.  1.
         -6    1    1    2    0  501 -0.56208573139E+01  0.31795077255E+02 -0.15405412905E+04  0.15504496086E+04  0.17200000000E+03 0.  1.
</event>
<event>
 4    1  0.3190379E-002  0.2326810E+03  0.7818608E-02  0.1124767E+00
          3   -1    0    0  502    0  0.00000000000E+00  0.00000000000E+00  0.37209010120E+03  0.37209010120E+03  0.00000000000E+00 0. -1.
         -3   -1    0    0    0  501 -0.00000000000E+00 -0.00000000000E+00 -0.22665153119E+03  0.22665153119E+03  0.00000000000E+00 0.  1.
          6    1    1    2  502    0  0.82622240142E+02 -0.13315409621E+03  0.25184950882E+03  0.34288281234E+03  0.17200000000E+03 0. -1.
         -6    1    1    2    0  501 -0.82622240142E+02  0.13315409621E+03 -0.10641093881E+03  0.25585882006E+03  0.17200000000E+03 0.  1.
</event>
<event>
 4    1  0.3190379E-002  0.1780804E+03  0.7818608E-02  0.1169674E+00
          2   -1    0    0  502    0  0.00000000000E+00  0.00000000000E+00  0.16662585252E+04  0.16662585252E+04  0.00000000000E+00 0. -1.
         -2   -1    0    0    0  501 -0.00000000000E+00 -0.00000000000E+00 -0.19514683146E+02  0.19514683146E+02  0.00000000000E+00 0.  1.
          6    1    1    2  502    0 -0.37467110819E+02  0.26922616204E+02  0.95590277828E+03  0.97234907990E+03  0.17200000000E+03 0. -1.
         -6    1    1    2    0  501  0.37467110819E+02 -0.26922616204E+02  0.69084106381E+03  0.71342412848E+03  0.17200000000E+03 0. -1.
</event>
<event>
 4    1  0.3190379E-002  0.1848758E+03  0.7818608E-02  0.1163166E+00
         -2   -1    0    0    0  501 -0.00000000000E+00  0.00000000000E+00  0.47447741734E+02  0.47447741734E+02  0.00000000000E+00 0.  1.
          2   -1    0    0  502    0  0.00000000000E+00 -0.00000000000E+00 -0.72557774183E+03  0.72557774183E+03  0.00000000000E+00 0. -1.
          6    1    1    2  502    0 -0.66892741751E+02 -0.10974207855E+02 -0.37186689201E+03  0.41528792122E+03  0.17200000000E+03 0. -1.
         -6    1    1    2    0  501  0.66892741751E+02  0.10974207855E+02 -0.30626310808E+03  0.35773756234E+03  0.17200000000E+03 0. -1.
</event>
<event>
 4    1  0.3190379E-002  0.5256569E+03  0.7818608E-02  0.1007291E+00
          2   -1    0    0  502    0  0.00000000000E+00  0.00000000000E+00  0.65730498074E+03  0.65730498074E+03  0.00000000000E+00 0. -1.
         -2   -1    0    0    0  501 -0.00000000000E+00 -0.00000000000E+00 -0.42501904299E+03  0.42501904299E+03  0.00000000000E+00 0.  1.
          6    1    1    2  502    0 -0.38752117503E+03 -0.31073871424E+03  0.59580739232E+02  0.52902275387E+03  0.17200000000E+03 0. -1.
         -6    1    1    2    0  501  0.38752117503E+03  0.31073871424E+03  0.17270519852E+03  0.55330126986E+03  0.17200000000E+03 0.  1.
</event>
<event>
 4    1  0.3190379E-002  0.7444135E+03  0.7818608E-02  0.9644156E-01
         -1   -1    0    0    0  501 -0.00000000000E+00  0.00000000000E+00  0.78469244980E+03  0.78469244980E+03  0.00000000000E+00 0.  1.
          1   -1    0    0  502    0  0.00000000000E+00 -0.00000000000E+00 -0.10584763541E+04  0.10584763541E+04  0.00000000000E+00 0. -1.
          6    1    1    2  502    0 -0.71196120332E+03 -0.13296103616E+03 -0.66855323806E+03  0.10005572569E+04  0.17200000000E+03 0. -1.
         -6    1    1    2    0  501  0.71196120332E+03  0.13296103616E+03  0.39476933381E+03  0.84261154697E+03  0.17200000000E+03 0.  1.
</event>
<event>
 4    1  0.3190379E-002  0.3092123E+03  0.7818608E-02  0.1080724E+00
          2   -1    0    0  502    0  0.00000000000E+00  0.00000000000E+00  0.19120166154E+03  0.19120166154E+03  0.00000000000E+00 0. -1.
         -2   -1    0    0    0  501 -0.00000000000E+00 -0.00000000000E+00 -0.97930900230E+03  0.97930900230E+03  0.00000000000E+00 0.  1.
          6    1    1    2  502    0 -0.19671766481E+03  0.16531911813E+03  0.15363675436E+02  0.30959375476E+03  0.17200000000E+03 0. -1.
         -6    1    1    2    0  501  0.19671766481E+03 -0.16531911813E+03 -0.80347101620E+03  0.86091690908E+03  0.17200000000E+03 0.  1.
</event>
<event>
 4    1  0.3190379E-002  0.5421551E+03  0.7818608E-02  0.1003326E+00
          2   -1    0    0  502    0  0.00000000000E+00  0.00000000000E+00  0.12278659782E+04  0.12278659782E+04  0.00000000000E+00 0. -1.
         -2   -1    0    0    0  501 -0.00000000000E+00 -0.00000000000E+00 -0.23938530599E+03  0.23938530599E+03  0.00000000000E+00 0.  1.
          6    1    1    2  502    0 -0.37202238191E+03  0.35489077676E+03  0.49556398182E+03  0.73451737634E+03  0.17200000000E+03 0. -1.
         -6    1    1    2    0  501  0.37202238191E+03 -0.35489077676E+03  0.49291669044E+03  0.73273390789E+03  0.17200000000E+03 0.  1.
</event>
<event>
 4    1  0.3190379E-002  0.3637828E+03  0.7818608E-02  0.1057096E+00
          2   -1    0    0  502    0  0.00000000000E+00  0.00000000000E+00  0.24417164173E+04  0.24417164173E+04  0.00000000000E+00 0. -1.
         -2   -1    0    0    0  501 -0.00000000000E+00 -0.00000000000E+00 -0.86827975754E+02  0.86827975754E+02  0.00000000000E+00 0.  1.
          6    1    1    2  502    0  0.10904954977E+03 -0.30143338509E+03  0.19524668307E+04  0.19860676260E+04  0.17200000000E+03 0. -1.
         -6    1    1    2    0  501 -0.10904954977E+03  0.30143338509E+03  0.40242161085E+03  0.54247676708E+03  0.17200000000E+03 0.  1.
</event>
<event>
 4    1  0.3190379E-002  0.1799759E+03  0.7818608E-02  0.1167826E+00
          2   -1    0    0  502    0  0.00000000000E+00  0.00000000000E+00  0.15282939000E+04  0.15282939000E+04  0.00000000000E+00 0. -1.
         -2   -1    0    0    0  501 -0.00000000000E+00 -0.00000000000E+00 -0.22533455222E+02  0.22533455222E+02  0.00000000000E+00 0.  1.
          6    1    1    2  502    0 -0.52444352432E+02 -0.75433171881E+01  0.56385723861E+03  0.59188368560E+03  0.17200000000E+03 0.  1.
         -6    1    1    2    0  501  0.52444352432E+02  0.75433171881E+01  0.94190320616E+03  0.95894366962E+03  0.17200000000E+03 0.  1.
</event>
<event>
 4    1  0.3190379E-002  0.1790894E+03  0.7818608E-02  0.1168687E+00
          3   -1    0    0  502    0  0.00000000000E+00  0.00000000000E+00  0.72827542505E+02  0.72827542505E+02  0.00000000000E+00 0. -1.
         -3   -1    0    0    0  501 -0.00000000000E+00 -0.00000000000E+00 -0.44079055982E+03  0.44079055982E+03  0.00000000000E+00 0.  1.
          6    1    1    2  502    0  0.49316392477E+02  0.75433892556E+01 -0.19165805332E+03  0.26230863251E+03  0.17200000000E+03 0.  1.
         -6    1    1    2    0  501 -0.49316392477E+02 -0.75433892556E+01 -0.17630496400E+03  0.25130946982E+03  0.17200000000E+03 0.  1.
</event>
<event>
 4    1  0.3190379E-002  0.1115096E+04  0.7818608E-02  0.9190602E-01
         -2   -1    0    0    0  501 -0.00000000000E+00  0.00000000000E+00  0.17074251608E+04  0.17074251608E+04  0.00000000000E+00 0.  1.
          2   -1    0    0  502    0  0.00000000000E+00 -0.00000000000E+00 -0.76387429310E+03  0.76387429310E+03  0.00000000000E+00 0. -1.
          6    1    1    2  502    0 -0.49875790158E+02 -0.11006218582E+04  0.20494824420E+03  0.11337741627E+04  0.17200000000E+03 0. -1.
         -6    1    1    2    0  501  0.49875790158E+02  0.11006218582E+04  0.73860262346E+03  0.13375252912E+04  0.17200000000E+03 0.  1.
</event>
<event>
 4    1  0.3190379E-002  0.1996831E+03  0.7818608E-02  0.1150007E+00
          1   -1    0    0  502    0  0.00000000000E+00  0.00000000000E+00  0.23616453470E+03  0.23616453470E+03  0.00000000000E+00 0. -1.
         -1   -1    0    0    0  501 -0.00000000000E+00 -0.00000000000E+00 -0.19194827572E+03  0.19194827572E+03  0.00000000000E+00 0.  1.
          6    1    1    2  502    0 -0.98536762411E+02  0.24079982608E+02  0.96383868731E+02  0.22172773679E+03  0.17200000000E+03 0. -1.
         -6    1    1    2    0  501  0.98536762411E+02 -0.24079982608E+02 -0.52167609753E+02  0.20638507363E+03  0.17200000000E+03 0.  1.
</event>
<event>
 4    1  0.3190379E-002  0.2215843E+03  0.7818608E-02  0.1132707E+00
         -1   -1    0    0    0  501 -0.00000000000E+00  0.00000000000E+00  0.16398762137E+03  0.16398762137E+03  0.00000000000E+00 0.  1.
          1   -1    0    0  502    0  0.00000000000E+00 -0.00000000000E+00 -0.32824178394E+03  0.32824178394E+03  0.00000000000E+00 0. -1.
          6    1    1    2  502    0  0.53490067493E+02 -0.12905201481E+03 -0.91858840314E+01  0.22177463857E+03  0.17200000000E+03 0. -1.
         -6    1    1    2    0  501 -0.53490067493E+02  0.12905201481E+03 -0.15506827853E+03  0.27045476674E+03  0.17200000000E+03 0. -1.
</event>
<event>
 4    1  0.3190379E-002  0.2098023E+03  0.7818608E-02  0.1141723E+00
          2   -1    0    0  502    0  0.00000000000E+00  0.00000000000E+00  0.34543204169E+03  0.34543204169E+03  0.00000000000E+00 0. -1.
         -2   -1    0    0    0  501 -0.00000000000E+00 -0.00000000000E+00 -0.17380368377E+03  0.17380368377E+03  0.00000000000E+00 0.  1.
          6    1    1    2  502    0  0.11731076132E+03  0.25907203141E+02 -0.48295447926E+02  0.21528921986E+03  0.17200000000E+03 0.  1.
         -6    1    1    2    0  501 -0.11731076132E+03 -0.25907203141E+02  0.21992380584E+03  0.30394650561E+03  0.17200000000E+03 0. -1.
</event>
<event>
 4    1  0.3190379E-002  0.1976312E+03  0.7818608E-02  0.1151753E+00
         -4   -1    0    0    0  501 -0.00000000000E+00  0.00000000000E+00  0.73652149159E+02  0.73652149159E+02  0.00000000000E+00 0.  1.
          4   -1    0    0  502    0  0.00000000000E+00 -0.00000000000E+00 -0.53462741599E+03  0.53462741599E+03  0.00000000000E+00 0. -1.
          6    1    1    2  502    0  0.86918821334E+02 -0.43808582818E+02 -0.20313928908E+03  0.28341426252E+03  0.17200000000E+03 0.  1.
         -6    1    1    2    0  501 -0.86918821334E+02  0.43808582818E+02 -0.25783597775E+03  0.32486530263E+03  0.17200000000E+03 0. -1.
</event>
<event>
 4    1  0.3190379E-002  0.2228011E+03  0.7818608E-02  0.1131812E+00
          1   -1    0    0  502    0  0.00000000000E+00  0.00000000000E+00  0.24763286023E+03  0.24763286023E+03  0.00000000000E+00 0. -1.
         -1   -1    0    0    0  501 -0.00000000000E+00 -0.00000000000E+00 -0.20135262408E+03  0.20135262408E+03  0.00000000000E+00 0.  1.
          6    1    1    2  502    0  0.11147018221E+03  0.87354135240E+02  0.38091874132E+02  0.22603392962E+03  0.17200000000E+03 0. -1.
         -6    1    1    2    0  501 -0.11147018221E+03 -0.87354135240E+02  0.81883620146E+01  0.22295155469E+03  0.17200000000E+03 0. -1.
</event>
<event>
 4    1  0.3190379E-002  0.3361322E+03  0.7818608E-02  0.1068455E+00
          2   -1    0    0  502    0  0.00000000000E+00  0.00000000000E+00  0.13747974273E+04  0.13747974273E+04  0.00000000000E+00 0. -1.
         -2   -1    0    0    0  501 -0.00000000000E+00 -0.00000000000E+00 -0.13361778071E+03  0.13361778071E+03  0.00000000000E+00 0.  1.
          6    1    1    2  502    0 -0.28712596244E+03  0.30976394279E+02  0.10885270529E+04  0.11392436088E+04  0.17200000000E+03 0. -1.
         -6    1    1    2    0  501  0.28712596244E+03 -0.30976394279E+02  0.15265259370E+03  0.36917159922E+03  0.17200000000E+03 0.  1.
</event>
<event>
 4    1  0.3190379E-002  0.1909794E+03  0.7818608E-02  0.1157581E+00
         -1   -1    0    0    0  501 -0.00000000000E+00  0.00000000000E+00  0.80246420507E+02  0.80246420507E+02  0.00000000000E+00 0.  1.
          1   -1    0    0  502    0  0.00000000000E+00 -0.00000000000E+00 -0.45458164054E+03  0.45458164054E+03  0.00000000000E+00 0. -1.
          6    1    1    2  502    0 -0.55081111106E+02  0.62090270734E+02 -0.19042690316E+03  0.26969526501E+03  0.17200000000E+03 0. -1.
         -6    1    1    2    0  501  0.55081111106E+02 -0.62090270734E+02 -0.18390831687E+03  0.26513279604E+03  0.17200000000E+03 0.  1.
</event>
<event>
 4    1  0.3190379E-002  0.1755220E+03  0.7818608E-02  0.1172209E+00
         -1   -1    0    0    0  501 -0.00000000000E+00  0.00000000000E+00  0.84935282551E+02  0.84935282551E+02  0.00000000000E+00 0.  1.
          1   -1    0    0  502    0  0.00000000000E+00 -0.00000000000E+00 -0.51950082639E+03  0.51950082639E+03  0.00000000000E+00 0. -1.
          6    1    1    2  502    0  0.27138395683E+02  0.22078927945E+02 -0.51259201653E+02  0.18285370473E+03  0.17200000000E+03 0.  1.
         -6    1    1    2    0  501 -0.27138395683E+02 -0.22078927945E+02 -0.38330634218E+03  0.42158240421E+03  0.17200000000E+03 0. -1.
</event>
<event>
 4    1  0.3190379E-002  0.9470574E+03  0.7818608E-02  0.9368597E-01
         -2   -1    0    0    0  501 -0.00000000000E+00  0.00000000000E+00  0.35313932836E+03  0.35313932836E+03  0.00000000000E+00 0.  1.
          2   -1    0    0  502    0  0.00000000000E+00 -0.00000000000E+00 -0.31028295138E+04  0.31028295138E+04  0.00000000000E+00 0. -1.
          6    1    1    2  502    0 -0.63654357120E+03 -0.67981327163E+03 -0.21109006064E+04  0.23136160382E+04  0.17200000000E+03 0. -1.
         -6    1    1    2    0  501  0.63654357120E+03  0.67981327163E+03 -0.63878957905E+03  0.11423528039E+04  0.17200000000E+03 0.  1.
</event>
<event>
 4    1  0.3190379E-002  0.1836087E+03  0.7818608E-02  0.1164356E+00
         -1   -1    0    0    0  501 -0.00000000000E+00  0.00000000000E+00  0.15200611040E+03  0.15200611040E+03  0.00000000000E+00 0.  1.
          1   -1    0    0  502    0  0.00000000000E+00 -0.00000000000E+00 -0.91244587217E+03  0.91244587217E+03  0.00000000000E+00 0. -1.
          6    1    1    2  502    0 -0.15712026575E+02 -0.62299908632E+02 -0.84326791448E+03  0.86302544689E+03  0.17200000000E+03 0. -1.
         -6    1    1    2    0  501  0.15712026575E+02  0.62299908632E+02  0.82828152714E+02  0.20142653568E+03  0.17200000000E+03 0.  1.
</event>
<event>
 4    1  0.3190379E-002  0.2298676E+03  0.7818608E-02  0.1126733E+00
         -2   -1    0    0    0  501 -0.00000000000E+00  0.00000000000E+00  0.36794288856E+02  0.36794288856E+02  0.00000000000E+00 0.  1.
          2   -1    0    0  502    0  0.00000000000E+00 -0.00000000000E+00 -0.18602597557E+04  0.18602597557E+04  0.00000000000E+00 0. -1.
          6    1    1    2  502    0  0.14793101005E+03  0.37034113740E+02 -0.13646761023E+04  0.13839002759E+04  0.17200000000E+03 0. -1.
         -6    1    1    2    0  501 -0.14793101005E+03 -0.37034113740E+02 -0.45878936455E+03  0.51315376871E+03  0.17200000000E+03 0.  1.
</event>
<event>
 4    1  0.3190379E-002  0.1824115E+03  0.7818608E-02  0.1165489E+00
         -1   -1    0    0    0  501 -0.00000000000E+00  0.00000000000E+00  0.59577512901E+02  0.59577512901E+02  0.00000000000E+00 0.  1.
          1   -1    0    0  502    0  0.00000000000E+00 -0.00000000000E+00 -0.56429660109E+03  0.56429660109E+03  0.00000000000E+00 0. -1.
          6    1    1    2  502    0  0.44944927699E+02  0.40864341184E+02 -0.22073947170E+03  0.28635616856E+03  0.17200000000E+03 0.  1.
         -6    1    1    2    0  501 -0.44944927699E+02 -0.40864341184E+02 -0.28397961650E+03  0.33751794544E+03  0.17200000000E+03 0. -1.
</event>
<event>
 4    1  0.3190379E-002  0.2218144E+03  0.7818608E-02  0.1132538E+00
         -1   -1    0    0    0  501 -0.00000000000E+00  0.00000000000E+00  0.18539294214E+02  0.18539294214E+02  0.00000000000E+00 0.  1.
          1   -1    0    0  502    0  0.00000000000E+00 -0.00000000000E+00 -0.26686739144E+04  0.26686739144E+04  0.00000000000E+00 0. -1.
          6    1    1    2  502    0 -0.30854498964E+01  0.14002895029E+03 -0.12251321529E+04  0.12450503680E+04  0.17200000000E+03 0. -1.
         -6    1    1    2    0  501  0.30854498964E+01 -0.14002895029E+03 -0.14250024673E+04  0.14421628406E+04  0.17200000000E+03 0.  1.
</event>
<event>
 4    1  0.3190379E-002  0.5195704E+03  0.7818608E-02  0.1008793E+00
         -1   -1    0    0    0  501 -0.00000000000E+00  0.00000000000E+00  0.70789207623E+03  0.70789207623E+03  0.00000000000E+00 0.  1.
          1   -1    0    0  502    0  0.00000000000E+00 -0.00000000000E+00 -0.53041733549E+03  0.53041733549E+03  0.00000000000E+00 0. -1.
          6    1    1    2  502    0  0.37753833754E+03  0.31278466253E+03 -0.23949698905E+03  0.57211209495E+03  0.17200000000E+03 0. -1.
         -6    1    1    2    0  501 -0.37753833754E+03 -0.31278466253E+03  0.41697172979E+03  0.66619731677E+03  0.17200000000E+03 0.  1.
</event>
<event>
 4    1  0.3190379E-002  0.1760435E+03  0.7818608E-02  0.1171688E+00
          2   -1    0    0  502    0  0.00000000000E+00  0.00000000000E+00  0.37921451922E+03  0.37921451922E+03  0.00000000000E+00 0. -1.
         -2   -1    0    0    0  501 -0.00000000000E+00 -0.00000000000E+00 -0.98434200250E+02  0.98434200250E+02  0.00000000000E+00 0.  1.
          6    1    1    2  502    0  0.32041759052E+02  0.19509597247E+02  0.23878758041E+03  0.29666615457E+03  0.17200000000E+03 0. -1.
         -6    1    1    2    0  501 -0.32041759052E+02 -0.19509597247E+02  0.41992738565E+02  0.18098256491E+03  0.17200000000E+03 0.  1.
</event>
<event>
 4    1  0.3190379E-002  0.1830723E+03  0.7818608E-02  0.1164862E+00
          1   -1    0    0  502    0  0.00000000000E+00  0.00000000000E+00  0.67587936743E+03  0.67587936743E+03  0.00000000000E+00 0. -1.
         -1   -1    0    0    0  501 -0.00000000000E+00 -0.00000000000E+00 -0.56726082722E+02  0.56726082722E+02  0.00000000000E+00 0.  1.
          6    1    1    2  502    0  0.60101321262E+02  0.17869235826E+02  0.43951602113E+03  0.47611953461E+03  0.17200000000E+03 0. -1.
         -6    1    1    2    0  501 -0.60101321262E+02 -0.17869235826E+02  0.17963726358E+03  0.25648591554E+03  0.17200000000E+03 0.  1.
</event>
<event>
 4    1  0.3190379E-002  0.1960697E+03  0.7818608E-02  0.1153098E+00
          2   -1    0    0  502    0  0.00000000000E+00  0.00000000000E+00  0.62516167136E+03  0.62516167136E+03  0.00000000000E+00 0. -1.
         -2   -1    0    0    0  501 -0.00000000000E+00 -0.00000000000E+00 -0.61668358536E+02  0.61668358536E+02  0.00000000000E+00 0.  1.
          6    1    1    2  502    0  0.78562518604E+02  0.51838761467E+02  0.26345570907E+03  0.32840864356E+03  0.17200000000E+03 0.  1.
         -6    1    1    2    0  501 -0.78562518604E+02 -0.51838761467E+02  0.30003760375E+03  0.35842138634E+03  0.17200000000E+03 0.  1.
</event>
<event>
 4    1  0.3190379E-002  0.2497545E+03  0.7818608E-02  0.1113460E+00
         -2   -1    0    0    0  501 -0.00000000000E+00  0.00000000000E+00  0.26250412906E+02  0.26250412906E+02  0.00000000000E+00 0.  1.
          2   -1    0    0  502    0  0.00000000000E+00 -0.00000000000E+00 -0.29759094734E+04  0.29759094734E+04  0.00000000000E+00 0. -1.
          6    1    1    2  502    0  0.16016970842E+03  0.84492525461E+02 -0.21486580160E+04  0.21631247288E+04  0.17200000000E+03 0. -1.
         -6    1    1    2    0  501 -0.16016970842E+03 -0.84492525461E+02 -0.80100104449E+03  0.83903515756E+03  0.17200000000E+03 0.  1.
</event>
<event>
 4    1  0.3190379E-002  0.2753992E+03  0.7818608E-02  0.1098229E+00
          2   -1    0    0  502    0  0.00000000000E+00  0.00000000000E+00  0.29778562958E+04  0.29778562958E+04  0.00000000000E+00 0. -1.
         -2   -1    0    0    0  501 -0.00000000000E+00 -0.00000000000E+00 -0.29267425329E+02  0.29267425329E+02  0.00000000000E+00 0.  1.
          6    1    1    2  502    0 -0.11470378440E+03 -0.18194440750E+03  0.20159187230E+04  0.20346432177E+04  0.17200000000E+03 0. -1.
         -6    1    1    2    0  501  0.11470378440E+03  0.18194440750E+03  0.93267014746E+03  0.97248050342E+03  0.17200000000E+03 0.  1.
</event>
<event>
 4    1  0.3190379E-002  0.1953530E+03  0.7818608E-02  0.1153720E+00
         -1   -1    0    0    0  501 -0.00000000000E+00  0.00000000000E+00  0.17405980898E+03  0.17405980898E+03  0.00000000000E+00 0.  1.
          1   -1    0    0  502    0  0.00000000000E+00 -0.00000000000E+00 -0.29184663050E+03  0.29184663050E+03  0.00000000000E+00 0. -1.
          6    1    1    2  502    0  0.75144315173E+02  0.54149107264E+02  0.57290636372E+02  0.20358047779E+03  0.17200000000E+03 0.  1.
         -6    1    1    2    0  501 -0.75144315173E+02 -0.54149107264E+02 -0.17507745789E+03  0.26232596170E+03  0.17200000000E+03 0. -1.
</event>
<event>
 4    1  0.3190379E-002  0.2214716E+03  0.7818608E-02  0.1132791E+00
         -1   -1    0    0    0  501 -0.00000000000E+00  0.00000000000E+00  0.11945371754E+03  0.11945371754E+03  0.00000000000E+00 0.  1.
          1   -1    0    0  502    0  0.00000000000E+00 -0.00000000000E+00 -0.74253334963E+03  0.74253334963E+03  0.00000000000E+00 0. -1.
          6    1    1    2  502    0 -0.99245270662E+02 -0.98061531889E+02 -0.59969557959E+03  0.63928434672E+03  0.17200000000E+03 0. -1.
         -6    1    1    2    0  501  0.99245270662E+02  0.98061531889E+02 -0.23384052496E+02  0.22270272045E+03  0.17200000000E+03 0.  1.
</event>
<event>
 4    1  0.3190379E-002  0.1768787E+03  0.7818608E-02  0.1170859E+00
         -2   -1    0    0    0  501 -0.00000000000E+00  0.00000000000E+00  0.32633710586E+02  0.32633710586E+02  0.00000000000E+00 0.  1.
          2   -1    0    0  502    0  0.00000000000E+00 -0.00000000000E+00 -0.11900021804E+04  0.11900021804E+04  0.00000000000E+00 0. -1.
          6    1    1    2  502    0 -0.17810724492E+02  0.37213428057E+02 -0.84819715965E+03  0.86644358314E+03  0.17200000000E+03 0. -1.
         -6    1    1    2    0  501  0.17810724492E+02 -0.37213428057E+02 -0.30917131014E+03  0.35619230782E+03  0.17200000000E+03 0.  1.
</event>
<event>
 4    1  0.3190379E-002  0.2437111E+03  0.7818608E-02  0.1117345E+00
          1   -1    0    0  502    0  0.00000000000E+00  0.00000000000E+00  0.13605909877E+04  0.13605909877E+04  0.00000000000E+00 0. -1.
         -1   -1    0    0    0  501 -0.00000000000E+00 -0.00000000000E+00 -0.44716923355E+02  0.44716923355E+02  0.00000000000E+00 0.  1.
          6    1    1    2  502    0 -0.17207467045E+03 -0.14191427930E+02  0.76627459343E+03  0.80409691044E+03  0.17200000000E+03 0. -1.
         -6    1    1    2    0  501  0.17207467045E+03  0.14191427930E+02  0.54959947095E+03  0.60121100065E+03  0.17200000000E+03 0.  1.
</event>
<event>
 4    1  0.3190379E-002  0.1788927E+03  0.7818608E-02  0.1168879E+00
          2   -1    0    0  502    0  0.00000000000E+00  0.00000000000E+00  0.86485523166E+02  0.86485523166E+02  0.00000000000E+00 0. -1.
         -2   -1    0    0    0  501 -0.00000000000E+00 -0.00000000000E+00 -0.50872405354E+03  0.50872405354E+03  0.00000000000E+00 0.  1.
          6    1    1    2  502    0  0.32254045344E+02  0.37125084212E+02 -0.55729921360E+02  0.18737240846E+03  0.17200000000E+03 0. -1.
         -6    1    1    2    0  501 -0.32254045344E+02 -0.37125084212E+02 -0.36650860902E+03  0.40783716824E+03  0.17200000000E+03 0.  1.
</event>
<event>
 4    1  0.3190379E-002  0.2201795E+03  0.7818608E-02  0.1133749E+00
         -2   -1    0    0    0  501 -0.00000000000E+00  0.00000000000E+00  0.20376202058E+03  0.20376202058E+03  0.00000000000E+00 0.  1.
          2   -1    0    0  502    0  0.00000000000E+00 -0.00000000000E+00 -0.36457242061E+03  0.36457242061E+03  0.00000000000E+00 0. -1.
          6    1    1    2  502    0  0.67641185711E+02  0.11966484018E+03 -0.24789535781E+03  0.33155861081E+03  0.17200000000E+03 0. -1.
         -6    1    1    2    0  501 -0.67641185711E+02 -0.11966484018E+03  0.87084957781E+02  0.23677583038E+03  0.17200000000E+03 0.  1.
</event>
<event>
 4    1  0.3190379E-002  0.2325648E+03  0.7818608E-02  0.1124847E+00
         -2   -1    0    0    0  501 -0.00000000000E+00  0.00000000000E+00  0.12762569558E+03  0.12762569558E+03  0.00000000000E+00 0.  1.
          2   -1    0    0  502    0  0.00000000000E+00 -0.00000000000E+00 -0.48928835477E+03  0.48928835477E+03  0.00000000000E+00 0. -1.
          6    1    1    2  502    0 -0.12513617962E+03 -0.94038898371E+02 -0.29368882983E+03  0.37461914876E+03  0.17200000000E+03 0. -1.
         -6    1    1    2    0  501  0.12513617962E+03  0.94038898371E+02 -0.67973829358E+02  0.24229490158E+03  0.17200000000E+03 0.  1.
</event>
<event>
 4    1  0.3190379E-002  0.2952333E+03  0.7818608E-02  0.1087648E+00
          2   -1    0    0  502    0  0.00000000000E+00  0.00000000000E+00  0.40452919526E+03  0.40452919526E+03  0.00000000000E+00 0. -1.
         -2   -1    0    0    0  501 -0.00000000000E+00 -0.00000000000E+00 -0.25188899580E+03  0.25188899580E+03  0.00000000000E+00 0.  1.
          6    1    1    2  502    0 -0.23702658090E+03 -0.37378133060E+02 -0.48483583298E+02  0.29918787197E+03  0.17200000000E+03 0.  1.
         -6    1    1    2    0  501  0.23702658090E+03  0.37378133060E+02  0.20112378275E+03  0.35723031909E+03  0.17200000000E+03 0. -1.
</event>
<event>
 4    1  0.3190379E-002  0.2097323E+03  0.7818608E-02  0.1141778E+00
          4   -1    0    0  502    0  0.00000000000E+00  0.00000000000E+00  0.19466188250E+03  0.19466188250E+03  0.00000000000E+00 0. -1.
         -4   -1    0    0    0  501 -0.00000000000E+00 -0.00000000000E+00 -0.31068142257E+03  0.31068142257E+03  0.00000000000E+00 0.  1.
          6    1    1    2  502    0  0.11970260999E+03  0.86554371012E+01  0.73928677303E+02  0.22238048646E+03  0.17200000000E+03 0. -1.
         -6    1    1    2    0  501 -0.11970260999E+03 -0.86554371012E+01 -0.18994821737E+03  0.28296281860E+03  0.17200000000E+03 0.  1.
</event>
<event>
 4    1  0.3190379E-002  0.2128433E+03  0.7818608E-02  0.1139334E+00
          2   -1    0    0  502    0  0.00000000000E+00  0.00000000000E+00  0.27253440920E+04  0.27253440920E+04  0.00000000000E+00 0. -1.
         -2   -1    0    0    0  501 -0.00000000000E+00 -0.00000000000E+00 -0.16696660842E+02  0.16696660842E+02  0.00000000000E+00 0.  1.
          6    1    1    2  502    0  0.10527826629E+03 -0.68078921135E+02  0.14456465095E+04  0.14612310164E+04  0.17200000000E+03 0. -1.
         -6    1    1    2    0  501 -0.10527826629E+03  0.68078921135E+02  0.12630009216E+04  0.12808097364E+04  0.17200000000E+03 0.  1.
</event>
<event>
 4    1  0.3190379E-002  0.2269178E+03  0.7818608E-02  0.1128828E+00
         -2   -1    0    0    0  501 -0.00000000000E+00  0.00000000000E+00  0.50209507027E+02  0.50209507027E+02  0.00000000000E+00 0.  1.
          2   -1    0    0  502    0  0.00000000000E+00 -0.00000000000E+00 -0.12012229503E+04  0.12012229503E+04  0.00000000000E+00 0. -1.
          6    1    1    2  502    0  0.14645114051E+03  0.21441578640E+02 -0.33621104779E+03  0.40562241865E+03  0.17200000000E+03 0. -1.
         -6    1    1    2    0  501 -0.14645114051E+03 -0.21441578640E+02 -0.81480239544E+03  0.84581003864E+03  0.17200000000E+03 0.  1.
</event>
<event>
 4    1  0.3190379E-002  0.2952772E+03  0.7818608E-02  0.1087626E+00
         -2   -1    0    0    0  501 -0.00000000000E+00  0.00000000000E+00  0.56097272079E+03  0.56097272079E+03  0.00000000000E+00 0.  1.
          2   -1    0    0  502    0  0.00000000000E+00 -0.00000000000E+00 -0.22908853946E+03  0.22908853946E+03  0.00000000000E+00 0. -1.
          6    1    1    2  502    0  0.11917797401E+03 -0.20832958770E+03 -0.58063274915E+02  0.30093180373E+03  0.17200000000E+03 0. -1.
         -6    1    1    2    0  501 -0.11917797401E+03  0.20832958770E+03  0.38994745625E+03  0.48912945652E+03  0.17200000000E+03 0.  1.
</event>
<event>
 4    1  0.3190379E-002  0.7204539E+03  0.7818608E-02  0.9682879E-01
          2   -1    0    0  502    0  0.00000000000E+00  0.00000000000E+00  0.13090154871E+04  0.13090154871E+04  0.00000000000E+00 0. -1.
         -2   -1    0    0    0  501 -0.00000000000E+00 -0.00000000000E+00 -0.39747930586E+03  0.39747930586E+03  0.00000000000E+00 0.  1.
          6    1    1    2  502    0 -0.42351033797E+03 -0.55687416304E+03  0.49763525950E+03  0.87561103884E+03  0.17200000000E+03 0. -1.
         -6    1    1    2    0  501  0.42351033797E+03  0.55687416304E+03  0.41390092170E+03  0.83088375409E+03  0.17200000000E+03 0.  1.
</event>
<event>
 4    1  0.3190379E-002  0.2711757E+03  0.7818608E-02  0.1100609E+00
          1   -1    0    0  502    0  0.00000000000E+00  0.00000000000E+00  0.13927492403E+04  0.13927492403E+04  0.00000000000E+00 0. -1.
         -1   -1    0    0    0  501 -0.00000000000E+00 -0.00000000000E+00 -0.53451470046E+02  0.53451470046E+02  0.00000000000E+00 0.  1.
          6    1    1    2  502    0 -0.19795604367E+03  0.69033757091E+02  0.58977910947E+03  0.64913454138E+03  0.17200000000E+03 0. -1.
         -6    1    1    2    0  501  0.19795604367E+03 -0.69033757091E+02  0.74951866077E+03  0.79706616895E+03  0.17200000000E+03 0.  1.
</event>
<event>
 4    1  0.3190379E-002  0.2570732E+03  0.7818608E-02  0.1108915E+00
          2   -1    0    0  502    0  0.00000000000E+00  0.00000000000E+00  0.12314964386E+04  0.12314964386E+04  0.00000000000E+00 0. -1.
         -2   -1    0    0    0  501 -0.00000000000E+00 -0.00000000000E+00 -0.68536274200E+02  0.68536274200E+02  0.00000000000E+00 0.  1.
          6    1    1    2  502    0  0.13642560982E+03  0.13375611797E+03  0.88428102421E+03  0.92089064274E+03  0.17200000000E+03 0. -1.
         -6    1    1    2    0  501 -0.13642560982E+03 -0.13375611797E+03  0.27867914018E+03  0.37914207005E+03  0.17200000000E+03 0.  1.
</event>
<event>
 4    1  0.3190379E-002  0.3715589E+03  0.7818608E-02  0.1054098E+00
          2   -1    0    0  502    0  0.00000000000E+00  0.00000000000E+00  0.94261094488E+03  0.94261094488E+03  0.00000000000E+00 0. -1.
         -2   -1    0    0    0  501 -0.00000000000E+00 -0.00000000000E+00 -0.34059722645E+03  0.34059722645E+03  0.00000000000E+00 0.  1.
          6    1    1    2  502    0 -0.27361597690E+03  0.18332034215E+03  0.78540168160E+03  0.86885663496E+03  0.17200000000E+03 0. -1.
         -6    1    1    2    0  501  0.27361597690E+03 -0.18332034215E+03 -0.18338796317E+03  0.41435153637E+03  0.17200000000E+03 0.  1.
</event>
<event>
 4    1  0.3190379E-002  0.4626529E+03  0.7818608E-02  0.1024015E+00
          2   -1    0    0  502    0  0.00000000000E+00  0.00000000000E+00  0.13610381082E+04  0.13610381082E+04  0.00000000000E+00 0. -1.
         -2   -1    0    0    0  501 -0.00000000000E+00 -0.00000000000E+00 -0.18858833266E+03  0.18858833266E+03  0.00000000000E+00 0.  1.
          6    1    1    2  502    0 -0.16023027749E+03 -0.39848453781E+03  0.27046775899E+03  0.53591088564E+03  0.17200000000E+03 0. -1.
         -6    1    1    2    0  501  0.16023027749E+03  0.39848453781E+03  0.90198201657E+03  0.10137155552E+04  0.17200000000E+03 0.  1.
</event>
<event>
 4    1  0.3190379E-002  0.2167570E+03  0.7818608E-02  0.1136324E+00
          1   -1    0    0  502    0  0.00000000000E+00  0.00000000000E+00  0.40123133860E+03  0.40123133860E+03  0.00000000000E+00 0. -1.
         -1   -1    0    0    0  501 -0.00000000000E+00 -0.00000000000E+00 -0.64245677257E+03  0.64245677257E+03  0.00000000000E+00 0.  1.
          6    1    1    2  502    0 -0.99662075726E+02  0.86412122812E+02  0.35128358740E+03  0.41277565709E+03  0.17200000000E+03 0. -1.
         -6    1    1    2    0  501  0.99662075726E+02 -0.86412122812E+02 -0.59250902137E+03  0.63091245408E+03  0.17200000000E+03 0.  1.
</event>
<event>
 4    1  0.3190379E-002  0.1796700E+03  0.7818608E-02  0.1168123E+00
         -2   -1    0    0    0  501 -0.00000000000E+00  0.00000000000E+00  0.14508975045E+03  0.14508975045E+03  0.00000000000E+00 0.  1.
          2   -1    0    0  502    0  0.00000000000E+00 -0.00000000000E+00 -0.82284700073E+03  0.82284700073E+03  0.00000000000E+00 0. -1.
          6    1    1    2  502    0 -0.39654423354E+02 -0.33538568971E+02 -0.75227008909E+03  0.77342846847E+03  0.17200000000E+03 0. -1.
         -6    1    1    2    0  501  0.39654423354E+02  0.33538568971E+02  0.74512838806E+02  0.19450828272E+03  0.17200000000E+03 0.  1.
</event>
<event>
 4    1  0.3190379E-002  0.3031456E+03  0.7818608E-02  0.1083679E+00
          2   -1    0    0  502    0  0.00000000000E+00  0.00000000000E+00  0.76991944641E+03  0.76991944641E+03  0.00000000000E+00 0. -1.
         -2   -1    0    0    0  501 -0.00000000000E+00 -0.00000000000E+00 -0.23936656032E+03  0.23936656032E+03  0.00000000000E+00 0.  1.
          6    1    1    2  502    0 -0.60304717162E+02  0.24223257054E+03  0.62259513429E+03  0.69247525471E+03  0.17200000000E+03 0. -1.
         -6    1    1    2    0  501  0.60304717162E+02 -0.24223257054E+03 -0.92042248195E+02  0.31681075202E+03  0.17200000000E+03 0.  1.
</event>
<event>
 4    1  0.3190379E-002  0.2141121E+03  0.7818608E-02  0.1138350E+00
          1   -1    0    0  502    0  0.00000000000E+00  0.00000000000E+00  0.22702913813E+04  0.22702913813E+04  0.00000000000E+00 0. -1.
         -1   -1    0    0    0  501 -0.00000000000E+00 -0.00000000000E+00 -0.39177448836E+02  0.39177448836E+02  0.00000000000E+00 0.  1.
          6    1    1    2  502    0 -0.12113279904E+03 -0.39835065783E+02  0.19193848406E+04  0.19312902821E+04  0.17200000000E+03 0. -1.
         -6    1    1    2    0  501  0.12113279904E+03  0.39835065783E+02  0.31172909187E+03  0.37817854802E+03  0.17200000000E+03 0.  1.
</event>
<event>
 4    1  0.3190379E-002  0.8606310E+03  0.7818608E-02  0.9476178E-01
          1   -1    0    0  502    0  0.00000000000E+00  0.00000000000E+00  0.23649566156E+04  0.23649566156E+04  0.00000000000E+00 0. -1.
         -1   -1    0    0    0  501 -0.00000000000E+00 -0.00000000000E+00 -0.36382389577E+03  0.36382389577E+03  0.00000000000E+00 0.  1.
          6    1    1    2  502    0 -0.78427708449E+03 -0.30985668674E+03  0.15095510226E+04  0.17376507133E+04  0.17200000000E+03 0. -1.
         -6    1    1    2    0  501  0.78427708449E+03  0.30985668674E+03  0.49158169722E+03  0.99112979807E+03  0.17200000000E+03 0.  1.
</event>
<event>
 4    1  0.3190379E-002  0.2863591E+03  0.7818608E-02  0.1092266E+00
          2   -1    0    0  502    0  0.00000000000E+00  0.00000000000E+00  0.23120875355E+04  0.23120875355E+04  0.00000000000E+00 0. -1.
         -2   -1    0    0    0  501 -0.00000000000E+00 -0.00000000000E+00 -0.41185012952E+02  0.41185012952E+02  0.00000000000E+00 0.  1.
          6    1    1    2  502    0 -0.20701811453E+03  0.97780628640E+02  0.15738969975E+04  0.15997353874E+04  0.17200000000E+03 0.  1.
         -6    1    1    2    0  501  0.20701811453E+03 -0.97780628640E+02  0.69700552505E+03  0.75353716102E+03  0.17200000000E+03 0. -1.
</event>
<event>
 4    1  0.3190379E-002  0.3606126E+03  0.7818608E-02  0.1058342E+00
          1   -1    0    0  502    0  0.00000000000E+00  0.00000000000E+00  0.11583518272E+04  0.11583518272E+04  0.00000000000E+00 0. -1.
         -1   -1    0    0    0  501 -0.00000000000E+00 -0.00000000000E+00 -0.12517699336E+03  0.12517699336E+03  0.00000000000E+00 0.  1.
          6    1    1    2  502    0  0.25795363640E+03 -0.18416675354E+03  0.72270879136E+03  0.80768153920E+03  0.17200000000E+03 0. -1.
         -6    1    1    2    0  501 -0.25795363640E+03  0.18416675354E+03  0.31046604245E+03  0.47584728134E+03  0.17200000000E+03 0.  1.
</event>
<event>
 4    1  0.3190379E-002  0.4136840E+03  0.7818608E-02  0.1039142E+00
         -2   -1    0    0    0  501 -0.00000000000E+00  0.00000000000E+00  0.45239236806E+03  0.45239236806E+03  0.00000000000E+00 0.  1.
          2   -1    0    0  502    0  0.00000000000E+00 -0.00000000000E+00 -0.37964645004E+03  0.37964645004E+03  0.00000000000E+00 0. -1.
          6    1    1    2  502    0 -0.44541911686E+02 -0.37358598432E+03  0.11484770165E+02  0.41384341184E+03  0.17200000000E+03 0. -1.
         -6    1    1    2    0  501  0.44541911686E+02  0.37358598432E+03  0.61261147860E+02  0.41819540626E+03  0.17200000000E+03 0.  1.
</event>
<event>
 4    1  0.3190379E-002  0.2426296E+03  0.7818608E-02  0.1118053E+00
         -1   -1    0    0    0  501 -0.00000000000E+00  0.00000000000E+00  0.17163817742E+03  0.17163817742E+03  0.00000000000E+00 0.  1.
          1   -1    0    0  502    0  0.00000000000E+00 -0.00000000000E+00 -0.39172083849E+03  0.39172083849E+03  0.00000000000E+00 0. -1.
          6    1    1    2  502    0  0.16582701126E+03  0.42267345968E+02 -0.10684855517E+02  0.24286476141E+03  0.17200000000E+03 0. -1.
         -6    1    1    2    0  501 -0.16582701126E+03 -0.42267345968E+02 -0.20939780556E+03  0.32049425450E+03  0.17200000000E+03 0.  1.
</event>
<event>
 4    1  0.3190379E-002  0.2172244E+03  0.7818608E-02  0.1135969E+00
         -2   -1    0    0    0  501 -0.00000000000E+00  0.00000000000E+00  0.90497748071E+02  0.90497748071E+02  0.00000000000E+00 0.  1.
          2   -1    0    0  502    0  0.00000000000E+00 -0.00000000000E+00 -0.61552767513E+03  0.61552767513E+03  0.00000000000E+00 0. -1.
          6    1    1    2  502    0 -0.32341683546E+02 -0.12867181578E+03 -0.40055415480E+03  0.45566440677E+03  0.17200000000E+03 0. -1.
         -6    1    1    2    0  501  0.32341683546E+02  0.12867181578E+03 -0.12447577227E+03  0.25036101644E+03  0.17200000000E+03 0. -1.
</event>
<event>
 4    1  0.3190379E-002  0.2371486E+03  0.7818608E-02  0.1121707E+00
         -1   -1    0    0    0  501 -0.00000000000E+00  0.00000000000E+00  0.25765301045E+02  0.25765301045E+02  0.00000000000E+00 0.  1.
          1   -1    0    0  502    0  0.00000000000E+00 -0.00000000000E+00 -0.25667042259E+04  0.25667042259E+04  0.00000000000E+00 0. -1.
          6    1    1    2  502    0 -0.14281056463E+03  0.79123997024E+02 -0.17718066438E+04  0.17876068492E+04  0.17200000000E+03 0. -1.
         -6    1    1    2    0  501  0.14281056463E+03 -0.79123997024E+02 -0.76913228111E+03  0.80486267780E+03  0.17200000000E+03 0.  1.
</event>
<event>
 4    1  0.3190379E-002  0.2243792E+03  0.7818608E-02  0.1130660E+00
         -2   -1    0    0    0  501 -0.00000000000E+00  0.00000000000E+00  0.21292357370E+02  0.21292357370E+02  0.00000000000E+00 0.  1.
          2   -1    0    0  502    0  0.00000000000E+00 -0.00000000000E+00 -0.24284060374E+04  0.24284060374E+04  0.00000000000E+00 0. -1.
          6    1    1    2  502    0 -0.11458097108E+03  0.87368305906E+02 -0.10048766888E+04  0.10296228336E+04  0.17200000000E+03 0. -1.
         -6    1    1    2    0  501  0.11458097108E+03 -0.87368305906E+02 -0.14022369912E+04  0.14200755612E+04  0.17200000000E+03 0.  1.
</event>
<event>
 4    1  0.3190379E-002  0.2165819E+03  0.7818608E-02  0.1136457E+00
          1   -1    0    0  502    0  0.00000000000E+00  0.00000000000E+00  0.11180813754E+04  0.11180813754E+04  0.00000000000E+00 0. -1.
         -1   -1    0    0    0  501 -0.00000000000E+00 -0.00000000000E+00 -0.48788679181E+02  0.48788679181E+02  0.00000000000E+00 0.  1.
          6    1    1    2  502    0 -0.54673740824E+02 -0.11972682806E+03  0.75301951560E+03  0.78354714100E+03  0.17200000000E+03 0. -1.
         -6    1    1    2    0  501  0.54673740824E+02  0.11972682806E+03  0.31627318058E+03  0.38332291355E+03  0.17200000000E+03 0. -1.
</event>
<event>
 4    1  0.3190379E-002  0.3077772E+03  0.7818608E-02  0.1081416E+00
         -2   -1    0    0    0  501 -0.00000000000E+00  0.00000000000E+00  0.62561486052E+02  0.62561486052E+02  0.00000000000E+00 0.  1.
          2   -1    0    0  502    0  0.00000000000E+00 -0.00000000000E+00 -0.17557521670E+04  0.17557521670E+04  0.00000000000E+00 0. -1.
          6    1    1    2  502    0 -0.13005268010E+03  0.21961119450E+03 -0.11838575136E+04  0.12232110974E+04  0.17200000000E+03 0. -1.
         -6    1    1    2    0  501  0.13005268010E+03 -0.21961119450E+03 -0.50933316732E+03  0.59510255560E+03  0.17200000000E+03 0.  1.
</event>
<event>
 4    1  0.3190379E-002  0.4690596E+03  0.7818608E-02  0.1022186E+00
          2   -1    0    0  502    0  0.00000000000E+00  0.00000000000E+00  0.17960204935E+04  0.17960204935E+04  0.00000000000E+00 0. -1.
         -2   -1    0    0    0  501 -0.00000000000E+00 -0.00000000000E+00 -0.15671680566E+03  0.15671680566E+03  0.00000000000E+00 0.  1.
          6    1    1    2  502    0  0.32931210471E+03  0.28633270325E+03  0.12758571525E+04  0.13593485031E+04  0.17200000000E+03 0. -1.
         -6    1    1    2    0  501 -0.32931210471E+03 -0.28633270325E+03  0.36344653532E+03  0.59338879606E+03  0.17200000000E+03 0.  1.
</event>
<event>
 4    1  0.3190379E-002  0.2354755E+03  0.7818608E-02  0.1122844E+00
          1   -1    0    0  502    0  0.00000000000E+00  0.00000000000E+00  0.14706367383E+04  0.14706367383E+04  0.00000000000E+00 0. -1.
         -1   -1    0    0    0  501 -0.00000000000E+00 -0.00000000000E+00 -0.39142528318E+02  0.39142528318E+02  0.00000000000E+00 0.  1.
          6    1    1    2  502    0 -0.83415444473E+01 -0.16060859612E+03  0.86046999522E+03  0.89210835395E+03  0.17200000000E+03 0. -1.
         -6    1    1    2    0  501  0.83415444473E+01  0.16060859612E+03  0.57102421476E+03  0.61767091267E+03  0.17200000000E+03 0.  1.
</event>
<event>
 4    1  0.3190379E-002  0.3279036E+03  0.7818608E-02  0.1072068E+00
          2   -1    0    0  502    0  0.00000000000E+00  0.00000000000E+00  0.55907192132E+03  0.55907192132E+03  0.00000000000E+00 0. -1.
         -2   -1    0    0    0  501 -0.00000000000E+00 -0.00000000000E+00 -0.21542981710E+03  0.21542981710E+03  0.00000000000E+00 0.  1.
          6    1    1    2  502    0  0.21183078504E+03  0.18183642467E+03  0.29865538414E+03  0.44352655535E+03  0.17200000000E+03 0. -1.
         -6    1    1    2    0  501 -0.21183078504E+03 -0.18183642467E+03  0.44986720085E+02  0.33097518307E+03  0.17200000000E+03 0.  1.
</event>
<event>
 4    1  0.3190379E-002  0.2169782E+03  0.7818608E-02  0.1136156E+00
         -2   -1    0    0    0  501 -0.00000000000E+00  0.00000000000E+00  0.85478270746E+02  0.85478270746E+02  0.00000000000E+00 0.  1.
          2   -1    0    0  502    0  0.00000000000E+00 -0.00000000000E+00 -0.11448264970E+04  0.11448264970E+04  0.00000000000E+00 0. -1.
          6    1    1    2  502    0  0.30023197383E+02 -0.12881828357E+03 -0.97279667390E+03  0.99670101400E+03  0.17200000000E+03 0. -1.
         -6    1    1    2    0  501 -0.30023197383E+02  0.12881828357E+03 -0.86551552407E+02  0.23360375380E+03  0.17200000000E+03 0.  1.
</event>
<event>
 4    1  0.3190379E-002  0.2225799E+03  0.7818608E-02  0.1131974E+00
         -4   -1    0    0    0  501 -0.00000000000E+00  0.00000000000E+00  0.80576878795E+03  0.80576878795E+03  0.00000000000E+00 0.  1.
          4   -1    0    0  502    0  0.00000000000E+00 -0.00000000000E+00 -0.74748083097E+02  0.74748083097E+02  0.00000000000E+00 0. -1.
          6    1    1    2  502    0  0.62049533665E+02 -0.12691592164E+03  0.18005125166E+03  0.28628700463E+03  0.17200000000E+03 0. -1.
         -6    1    1    2    0  501 -0.62049533665E+02  0.12691592164E+03  0.55096945319E+03  0.59422986642E+03  0.17200000000E+03 0.  1.
</event>
<event>
 4    1  0.3190379E-002  0.2785021E+03  0.7818608E-02  0.1096510E+00
         -1   -1    0    0    0  501 -0.00000000000E+00  0.00000000000E+00  0.30710332797E+02  0.30710332797E+02  0.00000000000E+00 0.  1.
          1   -1    0    0  502    0  0.00000000000E+00 -0.00000000000E+00 -0.27784566816E+04  0.27784566816E+04  0.00000000000E+00 0. -1.
          6    1    1    2  502    0  0.20533755655E+03 -0.76262234166E+02 -0.17975582275E+04  0.18190049537E+04  0.17200000000E+03 0. -1.
         -6    1    1    2    0  501 -0.20533755655E+03  0.76262234166E+02 -0.95018812128E+03  0.99016206063E+03  0.17200000000E+03 0.  1.
</event>
<event>
 4    1  0.3190379E-002  0.1980823E+03  0.7818608E-02  0.1151367E+00
         -1   -1    0    0    0  501 -0.00000000000E+00  0.00000000000E+00  0.96214953257E+02  0.96214953257E+02  0.00000000000E+00 0.  1.
          1   -1    0    0  502    0  0.00000000000E+00 -0.00000000000E+00 -0.54850507197E+03  0.54850507197E+03  0.00000000000E+00 0. -1.
          6    1    1    2  502    0  0.90648780101E+02  0.37886595297E+02 -0.38941397600E+03  0.43689797452E+03  0.17200000000E+03 0. -1.
         -6    1    1    2    0  501 -0.90648780101E+02 -0.37886595297E+02 -0.62876142715E+02  0.20782205071E+03  0.17200000000E+03 0.  1.
</event>
<event>
 4    1  0.3190379E-002  0.3778719E+03  0.7818608E-02  0.1051723E+00
         -1   -1    0    0    0  501 -0.00000000000E+00  0.00000000000E+00  0.35158314443E+03  0.35158314443E+03  0.00000000000E+00 0.  1.
          1   -1    0    0  502    0  0.00000000000E+00 -0.00000000000E+00 -0.40965216266E+03  0.40965216266E+03  0.00000000000E+00 0. -1.
          6    1    1    2  502    0 -0.30336683575E+03 -0.14550504844E+03 -0.64345910176E+02  0.38331129948E+03  0.17200000000E+03 0. -1.
         -6    1    1    2    0  501  0.30336683575E+03  0.14550504844E+03  0.62768919498E+01  0.37792400761E+03  0.17200000000E+03 0.  1.
</event>
<event>
 4    1  0.3190379E-002  0.1863138E+03  0.7818608E-02  0.1161829E+00
         -2   -1    0    0    0  501 -0.00000000000E+00  0.00000000000E+00  0.92322202550E+02  0.92322202550E+02  0.00000000000E+00 0.  1.
          2   -1    0    0  502    0  0.00000000000E+00 -0.00000000000E+00 -0.38206647096E+03  0.38206647096E+03  0.00000000000E+00 0. -1.
          6    1    1    2  502    0  0.69491852143E+02 -0.17312131423E+02 -0.17476910847E+03  0.25545463136E+03  0.17200000000E+03 0. -1.
         -6    1    1    2    0  501 -0.69491852143E+02  0.17312131423E+02 -0.11497515995E+03  0.21893404215E+03  0.17200000000E+03 0.  1.
</event>
<event>
 4    1  0.3190379E-002  0.1824523E+03  0.7818608E-02  0.1165451E+00
         -2   -1    0    0    0  501 -0.00000000000E+00  0.00000000000E+00  0.22222583769E+02  0.22222583769E+02  0.00000000000E+00 0.  1.
          2   -1    0    0  502    0  0.00000000000E+00 -0.00000000000E+00 -0.17402055913E+04  0.17402055913E+04  0.00000000000E+00 0. -1.
          6    1    1    2  502    0  0.56589844779E+01  0.60603897014E+02 -0.11877646909E+04  0.12016962251E+04  0.17200000000E+03 0. -1.
         -6    1    1    2    0  501 -0.56589844779E+01 -0.60603897014E+02 -0.53021831660E+03  0.56073194995E+03  0.17200000000E+03 0.  1.
</event>
<event>
 4    1  0.3190379E-002  0.1903220E+03  0.7818608E-02  0.1158171E+00
          2   -1    0    0  502    0  0.00000000000E+00  0.00000000000E+00  0.70033898123E+03  0.70033898123E+03  0.00000000000E+00 0. -1.
         -2   -1    0    0    0  501 -0.00000000000E+00 -0.00000000000E+00 -0.58428273635E+02  0.58428273635E+02  0.00000000000E+00 0.  1.
          6    1    1    2  502    0 -0.74949640047E+02  0.31953435353E+02  0.44949262075E+03  0.48812507279E+03  0.17200000000E+03 0. -1.
         -6    1    1    2    0  501  0.74949640047E+02 -0.31953435353E+02  0.19241808684E+03  0.27064218207E+03  0.17200000000E+03 0.  1.
</event>
<event>
 4    1  0.3190379E-002  0.5669655E+03  0.7818608E-02  0.9976416E-01
          1   -1    0    0  502    0  0.00000000000E+00  0.00000000000E+00  0.23328974981E+03  0.23328974981E+03  0.00000000000E+00 0. -1.
         -1   -1    0    0    0  501 -0.00000000000E+00 -0.00000000000E+00 -0.19599686950E+04  0.19599686950E+04  0.00000000000E+00 0.  1.
          6    1    1    2  502    0 -0.53463192700E+03 -0.77682566764E+02 -0.26572311428E+03  0.62614587119E+03  0.17200000000E+03 0. -1.
         -6    1    1    2    0  501  0.53463192700E+03  0.77682566764E+02 -0.14609558309E+04  0.15671125736E+04  0.17200000000E+03 0.  1.
</event>
<event>
 4    1  0.3190379E-002  0.1881655E+03  0.7818608E-02  0.1160126E+00
          2   -1    0    0  502    0  0.00000000000E+00  0.00000000000E+00  0.15483243248E+04  0.15483243248E+04  0.00000000000E+00 0. -1.
         -2   -1    0    0    0  501 -0.00000000000E+00 -0.00000000000E+00 -0.25950290104E+02  0.25950290104E+02  0.00000000000E+00 0.  1.
          6    1    1    2  502    0  0.54393107923E+02  0.53513169015E+02  0.10324890526E+04  0.10494950754E+04  0.17200000000E+03 0. -1.
         -6    1    1    2    0  501 -0.54393107923E+02 -0.53513169015E+02  0.48988498206E+03  0.52477953951E+03  0.17200000000E+03 0.  1.
</event>
<event>
 4    1  0.3190379E-002  0.3005331E+03  0.7818608E-02  0.1084974E+00
          2   -1    0    0  502    0  0.00000000000E+00  0.00000000000E+00  0.45891547116E+03  0.45891547116E+03  0.00000000000E+00 0. -1.
         -2   -1    0    0    0  501 -0.00000000000E+00 -0.00000000000E+00 -0.30967249449E+03  0.30967249449E+03  0.00000000000E+00 0.  1.
          6    1    1    2  502    0 -0.12200196586E+03 -0.21413003898E+03  0.30661877235E+03  0.42934278243E+03  0.17200000000E+03 0. -1.
         -6    1    1    2    0  501  0.12200196586E+03  0.21413003898E+03 -0.15737579569E+03  0.33924518321E+03  0.17200000000E+03 0.  1.
</event>
<event>
 4    1  0.3190379E-002  0.1830376E+03  0.7818608E-02  0.1164895E+00
         -2   -1    0    0    0  501 -0.00000000000E+00  0.00000000000E+00  0.35108469021E+03  0.35108469021E+03  0.00000000000E+00 0.  1.
          2   -1    0    0  502    0  0.00000000000E+00 -0.00000000000E+00 -0.22175077954E+03  0.22175077954E+03  0.00000000000E+00 0. -1.
          6    1    1    2  502    0 -0.55551820249E+02  0.28857439629E+02 -0.15151073557E+03  0.23760946856E+03  0.17200000000E+03 0. -1.
         -6    1    1    2    0  501  0.55551820249E+02 -0.28857439629E+02  0.28084464624E+03  0.33522600119E+03  0.17200000000E+03 0.  1.
</event>
<event>
 4    1  0.3190379E-002  0.2080711E+03  0.7818608E-02  0.1143103E+00
         -2   -1    0    0    0  501 -0.00000000000E+00  0.00000000000E+00  0.35820606619E+02  0.35820606619E+02  0.00000000000E+00 0.  1.
          2   -1    0    0  502    0  0.00000000000E+00 -0.00000000000E+00 -0.13785431096E+04  0.13785431096E+04  0.00000000000E+00 0. -1.
          6    1    1    2  502    0  0.43718664023E+00 -0.11708718669E+03 -0.91964233504E+03  0.94288685684E+03  0.17200000000E+03 0. -1.
         -6    1    1    2    0  501 -0.43718664023E+00  0.11708718669E+03 -0.42308016796E+03  0.47147685939E+03  0.17200000000E+03 0.  1.
</event>
<event>
 4    1  0.3190379E-002  0.1724151E+03  0.7818608E-02  0.1175352E+00
         -2   -1    0    0    0  501 -0.00000000000E+00  0.00000000000E+00  0.25491922487E+03  0.25491922487E+03  0.00000000000E+00 0.  1.
          2   -1    0    0  502    0  0.00000000000E+00 -0.00000000000E+00 -0.11964447324E+03  0.11964447324E+03  0.00000000000E+00 0. -1.
          6    1    1    2  502    0  0.71166867560E+01 -0.96074162293E+01  0.97447311066E+02  0.19804779249E+03  0.17200000000E+03 0.  1.
         -6    1    1    2    0  501 -0.71166867560E+01  0.96074162293E+01  0.37827440567E+02  0.17651590562E+03  0.17200000000E+03 0.  1.
</event>
<event>
 4    1  0.3190379E-002  0.2257141E+03  0.7818608E-02  0.1129693E+00
          1   -1    0    0  502    0  0.00000000000E+00  0.00000000000E+00  0.11095016025E+04  0.11095016025E+04  0.00000000000E+00 0. -1.
         -1   -1    0    0    0  501 -0.00000000000E+00 -0.00000000000E+00 -0.48211553261E+02  0.48211553261E+02  0.00000000000E+00 0.  1.
          6    1    1    2  502    0 -0.46505528530E+02 -0.13856443418E+03  0.65688123169E+03  0.69457887900E+03  0.17200000000E+03 0. -1.
         -6    1    1    2    0  501  0.46505528530E+02  0.13856443418E+03  0.40440881758E+03  0.46313427680E+03  0.17200000000E+03 0. -1.
</event>
<event>
 4    1  0.3190379E-002  0.2316414E+03  0.7818608E-02  0.1125490E+00
          2   -1    0    0  502    0  0.00000000000E+00  0.00000000000E+00  0.13242343342E+04  0.13242343342E+04  0.00000000000E+00 0. -1.
         -2   -1    0    0    0  501 -0.00000000000E+00 -0.00000000000E+00 -0.11100928937E+03  0.11100928937E+03  0.00000000000E+00 0.  1.
          6    1    1    2  502    0 -0.65144938477E+02  0.14081853421E+03  0.11784572523E+04  0.12010075845E+04  0.17200000000E+03 0. -1.
         -6    1    1    2    0  501  0.65144938477E+02 -0.14081853421E+03  0.34767792517E+02  0.23423603903E+03  0.17200000000E+03 0.  1.
</event>
<event>
 4    1  0.3190379E-002  0.2377097E+03  0.7818608E-02  0.1121328E+00
         -1   -1    0    0    0  501 -0.00000000000E+00  0.00000000000E+00  0.74683307235E+03  0.74683307235E+03  0.00000000000E+00 0.  1.
          1   -1    0    0  502    0  0.00000000000E+00 -0.00000000000E+00 -0.75698104752E+02  0.75698104752E+02  0.00000000000E+00 0. -1.
          6    1    1    2  502    0  0.10799043390E+03 -0.12353118550E+03  0.32642127999E+03  0.40380284748E+03  0.17200000000E+03 0.  1.
         -6    1    1    2    0  501 -0.10799043390E+03  0.12353118550E+03  0.34471368762E+03  0.41872832963E+03  0.17200000000E+03 0.  1.
</event>
<event>
 4    1  0.3190379E-002  0.2168261E+03  0.7818608E-02  0.1136272E+00
         -2   -1    0    0    0  501 -0.00000000000E+00  0.00000000000E+00  0.45898353358E+02  0.45898353358E+02  0.00000000000E+00 0.  1.
          2   -1    0    0  502    0  0.00000000000E+00 -0.00000000000E+00 -0.10940473444E+04  0.10940473444E+04  0.00000000000E+00 0. -1.
          6    1    1    2  502    0  0.12645955160E+03  0.37914623251E+02 -0.66799076248E+03  0.70229993280E+03  0.17200000000E+03 0. -1.
         -6    1    1    2    0  501 -0.12645955160E+03 -0.37914623251E+02 -0.38015822859E+03  0.43764576499E+03  0.17200000000E+03 0.  1.
</event>
<event>
 4    1  0.3190379E-002  0.2295551E+03  0.7818608E-02  0.1126953E+00
         -2   -1    0    0    0  501 -0.00000000000E+00  0.00000000000E+00  0.74236473680E+03  0.74236473680E+03  0.00000000000E+00 0.  1.
          2   -1    0    0  502    0  0.00000000000E+00 -0.00000000000E+00 -0.73472281812E+02  0.73472281812E+02  0.00000000000E+00 0. -1.
          6    1    1    2  502    0  0.12320705300E+03  0.89059403336E+02  0.25936767685E+03  0.34636273908E+03  0.17200000000E+03 0. -1.
         -6    1    1    2    0  501 -0.12320705300E+03 -0.89059403336E+02  0.40952477814E+03  0.46947427953E+03  0.17200000000E+03 0.  1.
</event>
<event>
 4    1  0.3190379E-002  0.1928366E+03  0.7818608E-02  0.1155927E+00
          2   -1    0    0  502    0  0.00000000000E+00  0.00000000000E+00  0.35924122062E+03  0.35924122062E+03  0.00000000000E+00 0. -1.
         -2   -1    0    0    0  501 -0.00000000000E+00 -0.00000000000E+00 -0.12912603075E+03  0.12912603075E+03  0.00000000000E+00 0.  1.
          6    1    1    2  502    0 -0.37879551133E+02 -0.78530865408E+02  0.22381137298E+03  0.29542763562E+03  0.17200000000E+03 0. -1.
         -6    1    1    2    0  501  0.37879551133E+02  0.78530865408E+02  0.63038168919E+01  0.19293961574E+03  0.17200000000E+03 0.  1.
</event>
<event>
 4    1  0.3190379E-002  0.3052099E+03  0.7818608E-02  0.1082665E+00
         -1   -1    0    0    0  501 -0.00000000000E+00  0.00000000000E+00  0.50858964117E+02  0.50858964117E+02  0.00000000000E+00 0.  1.
          1   -1    0    0  502    0  0.00000000000E+00 -0.00000000000E+00 -0.20536299802E+04  0.20536299802E+04  0.00000000000E+00 0. -1.
          6    1    1    2  502    0  0.13266501300E+03  0.21440394806E+03 -0.13473771412E+04  0.13815130181E+04  0.17200000000E+03 0. -1.
         -6    1    1    2    0  501 -0.13266501300E+03 -0.21440394806E+03 -0.65539387488E+03  0.72297592619E+03  0.17200000000E+03 0.  1.
</event>
<event>
 4    1  0.3190379E-002  0.1895095E+03  0.7818608E-02  0.1158905E+00
         -2   -1    0    0    0  501 -0.00000000000E+00  0.00000000000E+00  0.45525802297E+03  0.45525802297E+03  0.00000000000E+00 0.  1.
          2   -1    0    0  502    0  0.00000000000E+00 -0.00000000000E+00 -0.11285458865E+03  0.11285458865E+03  0.00000000000E+00 0. -1.
          6    1    1    2  502    0  0.53507734150E+02  0.58879185058E+02  0.15361825617E+02  0.19013106462E+03  0.17200000000E+03 0. -1.
         -6    1    1    2    0  501 -0.53507734150E+02 -0.58879185058E+02  0.32704160871E+03  0.37798154700E+03  0.17200000000E+03 0.  1.
</event>
<event>
 4    1  0.3190379E-002  0.2522389E+03  0.7818608E-02  0.1111898E+00
         -1   -1    0    0    0  501 -0.00000000000E+00  0.00000000000E+00  0.65312712049E+02  0.65312712049E+02  0.00000000000E+00 0.  1.
          1   -1    0    0  502    0  0.00000000000E+00 -0.00000000000E+00 -0.10761699370E+04  0.10761699370E+04  0.00000000000E+00 0. -1.
          6    1    1    2  502    0  0.14756722785E+03  0.11074464567E+03 -0.68115567593E+03  0.72635908346E+03  0.17200000000E+03 0.  1.
         -6    1    1    2    0  501 -0.14756722785E+03 -0.11074464567E+03 -0.32970154904E+03  0.41512356560E+03  0.17200000000E+03 0. -1.
</event>
<event>
 4    1  0.3190379E-002  0.3064577E+03  0.7818608E-02  0.1082056E+00
          2   -1    0    0  502    0  0.00000000000E+00  0.00000000000E+00  0.36195245385E+03  0.36195245385E+03  0.00000000000E+00 0. -1.
         -2   -1    0    0    0  501 -0.00000000000E+00 -0.00000000000E+00 -0.33697780475E+03  0.33697780475E+03  0.00000000000E+00 0.  1.
          6    1    1    2  502    0 -0.89500416959E+02  0.23732255261E+03 -0.15511187011E+03  0.34347636143E+03  0.17200000000E+03 0.  1.
         -6    1    1    2    0  501  0.89500416959E+02 -0.23732255261E+03  0.18008651921E+03  0.35545389717E+03  0.17200000000E+03 0. -1.
</event>
<event>
 4    1  0.3190379E-002  0.1742280E+03  0.7818608E-02  0.1173509E+00
          1   -1    0    0  502    0  0.00000000000E+00  0.00000000000E+00  0.23138748759E+03  0.23138748759E+03  0.00000000000E+00 0. -1.
         -1   -1    0    0    0  501 -0.00000000000E+00 -0.00000000000E+00 -0.25529427369E+03  0.25529427369E+03  0.00000000000E+00 0.  1.
          6    1    1    2  502    0 -0.31143199346E+01 -0.27598576158E+02 -0.18161770853E+03  0.25167513275E+03  0.17200000000E+03 0.  1.
         -6    1    1    2    0  501  0.31143199346E+01  0.27598576158E+02  0.15771092244E+03  0.23500662852E+03  0.17200000000E+03 0. -1.
</event>
<event>
 4    1  0.3190379E-002  0.1757587E+03  0.7818608E-02  0.1171972E+00
         -1   -1    0    0    0  501 -0.00000000000E+00  0.00000000000E+00  0.16391627363E+02  0.16391627363E+02  0.00000000000E+00 0.  1.
          1   -1    0    0  502    0  0.00000000000E+00 -0.00000000000E+00 -0.19461659829E+04  0.19461659829E+04  0.00000000000E+00 0. -1.
          6    1    1    2  502    0 -0.30199947346E+02 -0.19876330135E+02 -0.79030801400E+03  0.80961587331E+03  0.17200000000E+03 0.  1.
         -6    1    1    2    0  501  0.30199947346E+02  0.19876330135E+02 -0.11394663415E+04  0.11529417370E+04  0.17200000000E+03 0. -1.
</event>
<event>
 4    1  0.3190379E-002  0.2107905E+03  0.7818608E-02  0.1140942E+00
          2   -1    0    0  502    0  0.00000000000E+00  0.00000000000E+00  0.70504668576E+03  0.70504668576E+03  0.00000000000E+00 0. -1.
         -2   -1    0    0    0  501 -0.00000000000E+00 -0.00000000000E+00 -0.19335382061E+03  0.19335382061E+03  0.00000000000E+00 0.  1.
          6    1    1    2  502    0  0.10209321392E+03  0.66525247930E+02  0.62464632052E+03  0.65925386512E+03  0.17200000000E+03 0. -1.
         -6    1    1    2    0  501 -0.10209321392E+03 -0.66525247930E+02 -0.11295345537E+03  0.23914664125E+03  0.17200000000E+03 0.  1.
</event>
<event>
 4    1  0.3190379E-002  0.2167301E+03  0.7818608E-02  0.1136345E+00
         -1   -1    0    0    0  501 -0.00000000000E+00  0.00000000000E+00  0.13254776708E+03  0.13254776708E+03  0.00000000000E+00 0.  1.
          1   -1    0    0  502    0  0.00000000000E+00 -0.00000000000E+00 -0.35444304928E+03  0.35444304928E+03  0.00000000000E+00 0. -1.
          6    1    1    2  502    0  0.11772602820E+03  0.59401246593E+02 -0.11426287152E+03  0.24500597874E+03  0.17200000000E+03 0.  1.
         -6    1    1    2    0  501 -0.11772602820E+03 -0.59401246593E+02 -0.10763241068E+03  0.24198483763E+03  0.17200000000E+03 0. -1.
</event>
<event>
 4    1  0.3190379E-002  0.3358206E+03  0.7818608E-02  0.1068590E+00
         -2   -1    0    0    0  501 -0.00000000000E+00  0.00000000000E+00  0.27772739538E+02  0.27772739538E+02  0.00000000000E+00 0.  1.
          2   -1    0    0  502    0  0.00000000000E+00 -0.00000000000E+00 -0.56937868136E+04  0.56937868136E+04  0.00000000000E+00 0. -1.
          6    1    1    2  502    0 -0.25889212058E+03  0.12714701930E+03 -0.43651332276E+04  0.43780319311E+04  0.17200000000E+03 0. -1.
         -6    1    1    2    0  501  0.25889212058E+03 -0.12714701930E+03 -0.13008808464E+04  0.13435276220E+04  0.17200000000E+03 0.  1.
</event>
<event>
 4    1  0.3190379E-002  0.2287167E+03  0.7818608E-02  0.1127546E+00
          2   -1    0    0  502    0  0.00000000000E+00  0.00000000000E+00  0.15037935484E+04  0.15037935484E+04  0.00000000000E+00 0. -1.
         -2   -1    0    0    0  501 -0.00000000000E+00 -0.00000000000E+00 -0.37595793919E+02  0.37595793919E+02  0.00000000000E+00 0.  1.
          6    1    1    2  502    0  0.11916795582E+03  0.92338206086E+02  0.94378224126E+03  0.97110054316E+03  0.17200000000E+03 0. -1.
         -6    1    1    2    0  501 -0.11916795582E+03 -0.92338206086E+02  0.52241551321E+03  0.57028879915E+03  0.17200000000E+03 0.  1.
</event>
<event>
 4    1  0.3190379E-002  0.1917458E+03  0.7818608E-02  0.1156896E+00
         -1   -1    0    0    0  501 -0.00000000000E+00  0.00000000000E+00  0.28369734089E+03  0.28369734089E+03  0.00000000000E+00 0.  1.
          1   -1    0    0  502    0  0.00000000000E+00 -0.00000000000E+00 -0.13416497696E+03  0.13416497696E+03  0.00000000000E+00 0. -1.
          6    1    1    2  502    0 -0.16726614739E+02 -0.83082407016E+02  0.36216407711E+02  0.19513609144E+03  0.17200000000E+03 0.  1.
         -6    1    1    2    0  501  0.16726614739E+02  0.83082407016E+02  0.11331595622E+03  0.22272622641E+03  0.17200000000E+03 0.  1.
</event>
<event>
 4    1  0.3190379E-002  0.2331309E+03  0.7818608E-02  0.1124455E+00
         -1   -1    0    0    0  501 -0.00000000000E+00  0.00000000000E+00  0.17352015395E+03  0.17352015395E+03  0.00000000000E+00 0.  1.
          1   -1    0    0  502    0  0.00000000000E+00 -0.00000000000E+00 -0.35708579568E+03  0.35708579568E+03  0.00000000000E+00 0. -1.
          6    1    1    2  502    0  0.64094939210E+02 -0.14372842520E+03 -0.18476885607E+03  0.29747193416E+03  0.17200000000E+03 0. -1.
         -6    1    1    2    0  501 -0.64094939210E+02  0.14372842520E+03  0.12032143365E+01  0.23313401546E+03  0.17200000000E+03 0.  1.
</event>
<event>
 4    1  0.3190379E-002  0.2348231E+03  0.7818608E-02  0.1123290E+00
         -2   -1    0    0    0  501 -0.00000000000E+00  0.00000000000E+00  0.72150485119E+02  0.72150485119E+02  0.00000000000E+00 0.  1.
          2   -1    0    0  502    0  0.00000000000E+00 -0.00000000000E+00 -0.12378326527E+04  0.12378326527E+04  0.00000000000E+00 0. -1.
          6    1    1    2  502    0 -0.13471777989E+03  0.86075638740E+02 -0.98797350060E+03  0.10154966931E+04  0.17200000000E+03 0. -1.
         -6    1    1    2    0  501  0.13471777989E+03 -0.86075638740E+02 -0.17770866698E+03  0.29448644472E+03  0.17200000000E+03 0.  1.
</event>
<event>
 4    1  0.3190379E-002  0.4232854E+03  0.7818608E-02  0.1036002E+00
          1   -1    0    0  502    0  0.00000000000E+00  0.00000000000E+00  0.11542944474E+04  0.11542944474E+04  0.00000000000E+00 0. -1.
         -1   -1    0    0    0  501 -0.00000000000E+00 -0.00000000000E+00 -0.16534953415E+03  0.16534953415E+03  0.00000000000E+00 0.  1.
          6    1    1    2  502    0  0.26644023010E+03  0.28035009104E+03  0.65777830149E+03  0.78220385046E+03  0.17200000000E+03 0. -1.
         -6    1    1    2    0  501 -0.26644023010E+03 -0.28035009104E+03  0.33116661178E+03  0.53744013110E+03  0.17200000000E+03 0.  1.
</event>
<event>
 4    1  0.3190379E-002  0.4460545E+03  0.7818608E-02  0.1028905E+00
         -2   -1    0    0    0  501 -0.00000000000E+00  0.00000000000E+00  0.18358804878E+03  0.18358804878E+03  0.00000000000E+00 0.  1.
          2   -1    0    0  502    0  0.00000000000E+00 -0.00000000000E+00 -0.11149698871E+04  0.11149698871E+04  0.00000000000E+00 0. -1.
          6    1    1    2  502    0  0.31687241193E+03  0.26262610892E+03 -0.57432738299E+03  0.72719773197E+03  0.17200000000E+03 0. -1.
         -6    1    1    2    0  501 -0.31687241193E+03 -0.26262610892E+03 -0.35705445532E+03  0.57136020389E+03  0.17200000000E+03 0.  1.
</event>
<event>
 4    1  0.3190379E-002  0.4133901E+03  0.7818608E-02  0.1039239E+00
         -2   -1    0    0    0  501 -0.00000000000E+00  0.00000000000E+00  0.15136854820E+03  0.15136854820E+03  0.00000000000E+00 0.  1.
          2   -1    0    0  502    0  0.00000000000E+00 -0.00000000000E+00 -0.12635034237E+04  0.12635034237E+04  0.00000000000E+00 0. -1.
          6    1    1    2  502    0  0.99945061796E+02 -0.36237879335E+03 -0.78690416700E+03  0.88888107939E+03  0.17200000000E+03 0. -1.
         -6    1    1    2    0  501 -0.99945061796E+02  0.36237879335E+03 -0.32523070846E+03  0.52599089248E+03  0.17200000000E+03 0.  1.
</event>
<event>
 4    1  0.3190379E-002  0.1986677E+03  0.7818608E-02  0.1150868E+00
         -2   -1    0    0    0  501 -0.00000000000E+00  0.00000000000E+00  0.54726834441E+02  0.54726834441E+02  0.00000000000E+00 0.  1.
          2   -1    0    0  502    0  0.00000000000E+00 -0.00000000000E+00 -0.74448516636E+03  0.74448516636E+03  0.00000000000E+00 0. -1.
          6    1    1    2  502    0 -0.13930908646E+02  0.98441813234E+02 -0.41555422392E+03  0.46060196898E+03  0.17200000000E+03 0. -1.
         -6    1    1    2    0  501  0.13930908646E+02 -0.98441813234E+02 -0.27420410800E+03  0.33861003182E+03  0.17200000000E+03 0.  1.
</event>
<event>
 4    1  0.3190379E-002  0.2374768E+03  0.7818608E-02  0.1121485E+00
          2   -1    0    0  502    0  0.00000000000E+00  0.00000000000E+00  0.14853178768E+04  0.14853178768E+04  0.00000000000E+00 0. -1.
         -2   -1    0    0    0  501 -0.00000000000E+00 -0.00000000000E+00 -0.40123198421E+02  0.40123198421E+02  0.00000000000E+00 0.  1.
          6    1    1    2  502    0 -0.16327394939E+03 -0.12362332847E+02  0.89935021036E+03  0.93017525806E+03  0.17200000000E+03 0. -1.
         -6    1    1    2    0  501  0.16327394939E+03  0.12362332847E+02  0.54584446802E+03  0.59526581717E+03  0.17200000000E+03 0. -1.
</event>
<event>
 4    1  0.3190379E-002  0.5308888E+03  0.7818608E-02  0.1006017E+00
          2   -1    0    0  502    0  0.00000000000E+00  0.00000000000E+00  0.15542889593E+04  0.15542889593E+04  0.00000000000E+00 0. -1.
         -2   -1    0    0    0  501 -0.00000000000E+00 -0.00000000000E+00 -0.20216223320E+03  0.20216223320E+03  0.00000000000E+00 0.  1.
          6    1    1    2  502    0  0.26988252917E+03  0.42358272333E+03  0.95796608559E+03  0.10952360130E+04  0.17200000000E+03 0. -1.
         -6    1    1    2    0  501 -0.26988252917E+03 -0.42358272333E+03  0.39416064049E+03  0.66121517947E+03  0.17200000000E+03 0.  1.
</event>
<event>
 4    1  0.3190379E-002  0.2635857E+03  0.7818608E-02  0.1105008E+00
          2   -1    0    0  502    0  0.00000000000E+00  0.00000000000E+00  0.46418553003E+03  0.46418553003E+03  0.00000000000E+00 0. -1.
         -2   -1    0    0    0  501 -0.00000000000E+00 -0.00000000000E+00 -0.12969051410E+04  0.12969051410E+04  0.00000000000E+00 0.  1.
          6    1    1    2  502    0  0.10899565970E+03 -0.16737190321E+03  0.41181632727E+03  0.48894794735E+03  0.17200000000E+03 0. -1.
         -6    1    1    2    0  501 -0.10899565970E+03  0.16737190321E+03 -0.12445359382E+04  0.12721427237E+04  0.17200000000E+03 0.  1.
</event>
<event>
 4    1  0.3190379E-002  0.1895665E+03  0.7818608E-02  0.1158853E+00
         -1   -1    0    0    0  501 -0.00000000000E+00  0.00000000000E+00  0.14866753356E+03  0.14866753356E+03  0.00000000000E+00 0.  1.
          1   -1    0    0  502    0  0.00000000000E+00 -0.00000000000E+00 -0.50329638933E+03  0.50329638933E+03  0.00000000000E+00 0. -1.
          6    1    1    2  502    0  0.39858451196E+02 -0.69012705288E+02 -0.41232290973E+03  0.45381233071E+03  0.17200000000E+03 0. -1.
         -6    1    1    2    0  501 -0.39858451196E+02  0.69012705288E+02  0.57694053956E+02  0.19815159218E+03  0.17200000000E+03 0.  1.
</event>
<event>
 4    1  0.3190379E-002  0.2738918E+03  0.7818608E-02  0.1099073E+00
         -1   -1    0    0    0  501 -0.00000000000E+00  0.00000000000E+00  0.11218805253E+03  0.11218805253E+03  0.00000000000E+00 0.  1.
          1   -1    0    0  502    0  0.00000000000E+00 -0.00000000000E+00 -0.87386912276E+03  0.87386912276E+03  0.00000000000E+00 0. -1.
          6    1    1    2  502    0 -0.16591424604E+01  0.21314306005E+03 -0.61975216929E+03  0.67757617147E+03  0.17200000000E+03 0. -1.
         -6    1    1    2    0  501  0.16591424604E+01 -0.21314306005E+03 -0.14192890094E+03  0.30848100383E+03  0.17200000000E+03 0.  1.
</event>
<event>
 4    1  0.3190379E-002  0.2013129E+03  0.7818608E-02  0.1148636E+00
         -1   -1    0    0    0  501 -0.00000000000E+00  0.00000000000E+00  0.27399209014E+03  0.27399209014E+03  0.00000000000E+00 0.  1.
          1   -1    0    0  502    0  0.00000000000E+00 -0.00000000000E+00 -0.26455629407E+03  0.26455629407E+03  0.00000000000E+00 0. -1.
          6    1    1    2  502    0  0.29658204969E+01  0.10456617394E+03  0.18351740871E+03  0.27240690175E+03  0.17200000000E+03 0.  1.
         -6    1    1    2    0  501 -0.29658204969E+01 -0.10456617394E+03 -0.17408161264E+03  0.26614148246E+03  0.17200000000E+03 0. -1.
</event>
<event>
 4    1  0.3190379E-002  0.7088948E+03  0.7818608E-02  0.9702141E-01
          1   -1    0    0  502    0  0.00000000000E+00  0.00000000000E+00  0.18523233415E+04  0.18523233415E+04  0.00000000000E+00 0. -1.
         -1   -1    0    0    0  501 -0.00000000000E+00 -0.00000000000E+00 -0.46420452569E+03  0.46420452569E+03  0.00000000000E+00 0.  1.
          6    1    1    2  502    0 -0.58775861611E+03 -0.35705421878E+03  0.14407249901E+04  0.16056837805E+04  0.17200000000E+03 0. -1.
         -6    1    1    2    0  501  0.58775861611E+03  0.35705421878E+03 -0.52606174286E+02  0.71084408665E+03  0.17200000000E+03 0.  1.
</event>
<event>
 4    1  0.3190379E-002  0.2630494E+03  0.7818608E-02  0.1105325E+00
          2   -1    0    0  502    0  0.00000000000E+00  0.00000000000E+00  0.18109362556E+03  0.18109362556E+03  0.00000000000E+00 0. -1.
         -2   -1    0    0    0  501 -0.00000000000E+00 -0.00000000000E+00 -0.19063704158E+04  0.19063704158E+04  0.00000000000E+00 0.  1.
          6    1    1    2  502    0  0.29718797422E+01 -0.19900285349E+03  0.70652622431E+02  0.27237246708E+03  0.17200000000E+03 0. -1.
         -6    1    1    2    0  501 -0.29718797422E+01  0.19900285349E+03 -0.17959294127E+04  0.18150915743E+04  0.17200000000E+03 0.  1.
</event>
<event>
 4    1  0.3190379E-002  0.1836440E+03  0.7818608E-02  0.1164322E+00
         -2   -1    0    0    0  501 -0.00000000000E+00  0.00000000000E+00  0.26973861179E+02  0.26973861179E+02  0.00000000000E+00 0.  1.
          2   -1    0    0  502    0  0.00000000000E+00 -0.00000000000E+00 -0.12503078807E+04  0.12503078807E+04  0.00000000000E+00 0. -1.
          6    1    1    2  502    0  0.42036796137E+02  0.48724086214E+02 -0.60920210224E+03  0.63628007213E+03  0.17200000000E+03 0.  1.
         -6    1    1    2    0  501 -0.42036796137E+02 -0.48724086214E+02 -0.61413191727E+03  0.64100166974E+03  0.17200000000E+03 0. -1.
</event>
<event>
 4    1  0.3190379E-002  0.6363878E+03  0.7818608E-02  0.9832662E-01
          1   -1    0    0  502    0  0.00000000000E+00  0.00000000000E+00  0.33245716654E+04  0.33245716654E+04  0.00000000000E+00 0. -1.
         -1   -1    0    0    0  501 -0.00000000000E+00 -0.00000000000E+00 -0.21278428684E+03  0.21278428684E+03  0.00000000000E+00 0.  1.
          6    1    1    2  502    0 -0.60453218856E+03  0.99730911985E+02  0.27123295692E+04  0.27859865602E+04  0.17200000000E+03 0. -1.
         -6    1    1    2    0  501  0.60453218856E+03 -0.99730911985E+02  0.39945780941E+03  0.75136939205E+03  0.17200000000E+03 0.  1.
</event>
<event>
 4    1  0.3190379E-002  0.2071385E+03  0.7818608E-02  0.1143852E+00
          1   -1    0    0  502    0  0.00000000000E+00  0.00000000000E+00  0.16156725673E+04  0.16156725673E+04  0.00000000000E+00 0. -1.
         -1   -1    0    0    0  501 -0.00000000000E+00 -0.00000000000E+00 -0.26597673658E+02  0.26597673658E+02  0.00000000000E+00 0.  1.
          6    1    1    2  502    0 -0.20404788083E+02 -0.11360466713E+03  0.82690135762E+03  0.85245072057E+03  0.17200000000E+03 0. -1.
         -6    1    1    2    0  501  0.20404788083E+02  0.11360466713E+03  0.76217353604E+03  0.78981952041E+03  0.17200000000E+03 0.  1.
</event>
<event>
 4    1  0.3190379E-002  0.2266796E+03  0.7818608E-02  0.1128999E+00
          1   -1    0    0  502    0  0.00000000000E+00  0.00000000000E+00  0.81248107798E+03  0.81248107798E+03  0.00000000000E+00 0. -1.
         -1   -1    0    0    0  501 -0.00000000000E+00 -0.00000000000E+00 -0.76741746882E+02  0.76741746882E+02  0.00000000000E+00 0.  1.
          6    1    1    2  502    0 -0.87977649001E+02 -0.11857313123E+03  0.55434148486E+03  0.59889743363E+03  0.17200000000E+03 0. -1.
         -6    1    1    2    0  501  0.87977649001E+02  0.11857313123E+03  0.18139784624E+03  0.29032539123E+03  0.17200000000E+03 0.  1.
</event>
<event>
 4    1  0.3190379E-002  0.2270897E+03  0.7818608E-02  0.1128705E+00
         -1   -1    0    0    0  501 -0.00000000000E+00  0.00000000000E+00  0.94996645271E+02  0.94996645271E+02  0.00000000000E+00 0.  1.
          1   -1    0    0  502    0  0.00000000000E+00 -0.00000000000E+00 -0.96578190499E+03  0.96578190499E+03  0.00000000000E+00 0. -1.
          6    1    1    2  502    0 -0.19057034144E+02 -0.14704609825E+03 -0.78637566081E+03  0.81850864716E+03  0.17200000000E+03 0.  1.
         -6    1    1    2    0  501  0.19057034144E+02  0.14704609825E+03 -0.84409598909E+02  0.24226990310E+03  0.17200000000E+03 0.  1.
</event>
<event>
 4    1  0.3190379E-002  0.2074483E+03  0.7818608E-02  0.1143603E+00
          2   -1    0    0  502    0  0.00000000000E+00  0.00000000000E+00  0.14240780955E+04  0.14240780955E+04  0.00000000000E+00 0. -1.
         -2   -1    0    0    0  501 -0.00000000000E+00 -0.00000000000E+00 -0.35301666526E+02  0.35301666526E+02  0.00000000000E+00 0.  1.
          6    1    1    2  502    0 -0.11594372962E+03  0.27979737658E+01  0.41752217184E+03  0.46621834056E+03  0.17200000000E+03 0.  1.
         -6    1    1    2    0  501  0.11594372962E+03 -0.27979737658E+01  0.97125425717E+03  0.99316142151E+03  0.17200000000E+03 0. -1.
</event>
<event>
 4    1  0.3190379E-002  0.1984384E+03  0.7818608E-02  0.1151063E+00
          3   -1    0    0  502    0  0.00000000000E+00  0.00000000000E+00  0.43263167712E+03  0.43263167712E+03  0.00000000000E+00 0. -1.
         -3   -1    0    0    0  501 -0.00000000000E+00 -0.00000000000E+00 -0.11154557385E+03  0.11154557385E+03  0.00000000000E+00 0.  1.
          6    1    1    2  502    0 -0.88224335638E+02 -0.44835991937E+02  0.43824449393E+02  0.20322003330E+03  0.17200000000E+03 0.  1.
         -6    1    1    2    0  501  0.88224335638E+02  0.44835991937E+02  0.27726165387E+03  0.34095721767E+03  0.17200000000E+03 0. -1.
</event>
<event>
 4    1  0.3190379E-002  0.3062199E+03  0.7818608E-02  0.1082172E+00
         -3   -1    0    0    0  501 -0.00000000000E+00  0.00000000000E+00  0.29552586612E+03  0.29552586612E+03  0.00000000000E+00 0.  1.
          3   -1    0    0  502    0  0.00000000000E+00 -0.00000000000E+00 -0.33786393140E+03  0.33786393140E+03  0.00000000000E+00 0. -1.
          6    1    1    2  502    0  0.25262896311E+03  0.19111358898E+02 -0.99298206201E+02  0.32191733534E+03  0.17200000000E+03 0. -1.
         -6    1    1    2    0  501 -0.25262896311E+03 -0.19111358898E+02  0.56960140924E+02  0.31147246218E+03  0.17200000000E+03 0.  1.
</event>
<event>
 4    1  0.3190379E-002  0.3874736E+03  0.7818608E-02  0.1048206E+00
         -2   -1    0    0    0  501 -0.00000000000E+00  0.00000000000E+00  0.72881574683E+02  0.72881574683E+02  0.00000000000E+00 0.  1.
          2   -1    0    0  502    0  0.00000000000E+00 -0.00000000000E+00 -0.20879980998E+04  0.20879980998E+04  0.00000000000E+00 0. -1.
          6    1    1    2  502    0 -0.32429473885E+03  0.12403524612E+03 -0.88243915274E+03  0.96376069551E+03  0.17200000000E+03 0. -1.
         -6    1    1    2    0  501  0.32429473885E+03 -0.12403524612E+03 -0.11326773724E+04  0.11971189790E+04  0.17200000000E+03 0.  1.
</event>
<event>
 4    1  0.3190379E-002  0.3055152E+03  0.7818608E-02  0.1082516E+00
          2   -1    0    0  502    0  0.00000000000E+00  0.00000000000E+00  0.29980138057E+03  0.29980138057E+03  0.00000000000E+00 0. -1.
         -2   -1    0    0    0  501 -0.00000000000E+00 -0.00000000000E+00 -0.41233456986E+03  0.41233456986E+03  0.00000000000E+00 0.  1.
          6    1    1    2  502    0 -0.25213418357E+03  0.13560061564E+02  0.11995602108E+03  0.32822091461E+03  0.17200000000E+03 0.  1.
         -6    1    1    2    0  501  0.25213418357E+03 -0.13560061564E+02 -0.23248921037E+03  0.38391503582E+03  0.17200000000E+03 0. -1.
</event>
<event>
 4    1  0.3190379E-002  0.2230553E+03  0.7818608E-02  0.1131625E+00
          2   -1    0    0  502    0  0.00000000000E+00  0.00000000000E+00  0.12518285012E+03  0.12518285012E+03  0.00000000000E+00 0. -1.
         -2   -1    0    0    0  501 -0.00000000000E+00 -0.00000000000E+00 -0.56010128810E+03  0.56010128810E+03  0.00000000000E+00 0.  1.
          6    1    1    2  502    0  0.16841316030E+01 -0.14200999217E+03 -0.32813682531E+02  0.22545600887E+03  0.17200000000E+03 0. -1.
         -6    1    1    2    0  501 -0.16841316030E+01  0.14200999217E+03 -0.40210475545E+03  0.45982812934E+03  0.17200000000E+03 0.  1.
</event>
<event>
 4    1  0.3190379E-002  0.1914155E+03  0.7818608E-02  0.1157191E+00
          1   -1    0    0  502    0  0.00000000000E+00  0.00000000000E+00  0.47385846414E+03  0.47385846414E+03  0.00000000000E+00 0. -1.
         -1   -1    0    0    0  501 -0.00000000000E+00 -0.00000000000E+00 -0.76664177453E+03  0.76664177453E+03  0.00000000000E+00 0.  1.
          6    1    1    2  502    0 -0.83588159918E+02 -0.83015570003E+01  0.44174851637E+03  0.48143706551E+03  0.17200000000E+03 0. -1.
         -6    1    1    2    0  501  0.83588159918E+02  0.83015570003E+01 -0.73453182676E+03  0.75906317316E+03  0.17200000000E+03 0.  1.
</event>
<event>
 4    1  0.3190379E-002  0.4168544E+03  0.7818608E-02  0.1038095E+00
          2   -1    0    0  502    0  0.00000000000E+00  0.00000000000E+00  0.29442252842E+03  0.29442252842E+03  0.00000000000E+00 0. -1.
         -2   -1    0    0    0  501 -0.00000000000E+00 -0.00000000000E+00 -0.98696382022E+03  0.98696382022E+03  0.00000000000E+00 0.  1.
          6    1    1    2  502    0  0.33300511302E+02  0.37825212581E+03  0.59954303684E+02  0.42114381542E+03  0.17200000000E+03 0. -1.
         -6    1    1    2    0  501 -0.33300511302E+02 -0.37825212581E+03 -0.75249559549E+03  0.86024253322E+03  0.17200000000E+03 0.  1.
</event>
<event>
 4    1  0.3190379E-002  0.2432158E+03  0.7818608E-02  0.1117669E+00
         -2   -1    0    0    0  501 -0.00000000000E+00  0.00000000000E+00  0.44472350451E+02  0.44472350451E+02  0.00000000000E+00 0.  1.
          2   -1    0    0  502    0  0.00000000000E+00 -0.00000000000E+00 -0.14755574910E+04  0.14755574910E+04  0.00000000000E+00 0. -1.
          6    1    1    2  502    0 -0.38175363318E+02  0.16766806703E+03 -0.95414211164E+03  0.98465278564E+03  0.17200000000E+03 0. -1.
         -6    1    1    2    0  501  0.38175363318E+02 -0.16766806703E+03 -0.47694302895E+03  0.53537705585E+03  0.17200000000E+03 0.  1.
</event>
<event>
 4    1  0.3190379E-002  0.2317392E+03  0.7818608E-02  0.1125422E+00
          2   -1    0    0  502    0  0.00000000000E+00  0.00000000000E+00  0.10256664108E+03  0.10256664108E+03  0.00000000000E+00 0. -1.
         -2   -1    0    0    0  501 -0.00000000000E+00 -0.00000000000E+00 -0.52571667302E+03  0.52571667302E+03  0.00000000000E+00 0.  1.
          6    1    1    2  502    0 -0.13030725633E+02 -0.15475551265E+03 -0.23154602109E+03  0.32759216778E+03  0.17200000000E+03 0. -1.
         -6    1    1    2    0  501  0.13030725633E+02  0.15475551265E+03 -0.19160401085E+03  0.30069114633E+03  0.17200000000E+03 0.  1.
</event>
<event>
 4    1  0.3190379E-002  0.3327367E+03  0.7818608E-02  0.1069932E+00
          2   -1    0    0  502    0  0.00000000000E+00  0.00000000000E+00  0.97957646090E+03  0.97957646090E+03  0.00000000000E+00 0. -1.
         -2   -1    0    0    0  501 -0.00000000000E+00 -0.00000000000E+00 -0.22003335064E+03  0.22003335064E+03  0.00000000000E+00 0.  1.
          6    1    1    2  502    0 -0.25161776320E+03  0.13348493400E+03  0.79806456434E+03  0.86465066658E+03  0.17200000000E+03 0. -1.
         -6    1    1    2    0  501  0.25161776320E+03 -0.13348493400E+03 -0.38521454076E+02  0.33495914495E+03  0.17200000000E+03 0.  1.
</event>
<event>
 4    1  0.3190379E-002  0.2028821E+03  0.7818608E-02  0.1147330E+00
          2   -1    0    0  502    0  0.00000000000E+00  0.00000000000E+00  0.65579729277E+03  0.65579729277E+03  0.00000000000E+00 0. -1.
         -2   -1    0    0    0  501 -0.00000000000E+00 -0.00000000000E+00 -0.10211384394E+03  0.10211384394E+03  0.00000000000E+00 0.  1.
          6    1    1    2  502    0  0.24778938427E+02 -0.10470503183E+03  0.51208205481E+03  0.55080774354E+03  0.17200000000E+03 0. -1.
         -6    1    1    2    0  501 -0.24778938427E+02  0.10470503183E+03  0.41601394012E+02  0.20710339318E+03  0.17200000000E+03 0.  1.
</event>
<event>
 4    1  0.3190379E-002  0.1992051E+03  0.7818608E-02  0.1150411E+00
         -4   -1    0    0    0  501 -0.00000000000E+00  0.00000000000E+00  0.30761400991E+03  0.30761400991E+03  0.00000000000E+00 0.  1.
          4   -1    0    0  502    0  0.00000000000E+00 -0.00000000000E+00 -0.13544278789E+03  0.13544278789E+03  0.00000000000E+00 0. -1.
          6    1    1    2  502    0 -0.10031523939E+03  0.59597624660E+01  0.13439573083E+03  0.24030164063E+03  0.17200000000E+03 0. -1.
         -6    1    1    2    0  501  0.10031523939E+03 -0.59597624660E+01  0.37775491189E+02  0.20275515717E+03  0.17200000000E+03 0.  1.
</event>
<event>
 4    1  0.3190379E-002  0.1802270E+03  0.7818608E-02  0.1167584E+00
          2   -1    0    0  502    0  0.00000000000E+00  0.00000000000E+00  0.12851013952E+04  0.12851013952E+04  0.00000000000E+00 0. -1.
         -2   -1    0    0    0  501 -0.00000000000E+00 -0.00000000000E+00 -0.36239496174E+02  0.36239496174E+02  0.00000000000E+00 0.  1.
          6    1    1    2  502    0 -0.53490872061E+02 -0.60414220955E+01  0.26103901429E+03  0.31721150540E+03  0.17200000000E+03 0.  1.
         -6    1    1    2    0  501  0.53490872061E+02  0.60414220955E+01  0.98782288471E+03  0.10041293860E+04  0.17200000000E+03 0. -1.
</event>
<event>
 4    1  0.3190379E-002  0.2568834E+03  0.7818608E-02  0.1109030E+00
         -2   -1    0    0    0  501 -0.00000000000E+00  0.00000000000E+00  0.99259843698E+03  0.99259843698E+03  0.00000000000E+00 0.  1.
          2   -1    0    0  502    0  0.00000000000E+00 -0.00000000000E+00 -0.78889605281E+02  0.78889605281E+02  0.00000000000E+00 0. -1.
          6    1    1    2  502    0 -0.69101391295E+02 -0.17784841819E+03  0.66932886638E+03  0.71693109397E+03  0.17200000000E+03 0.  1.
         -6    1    1    2    0  501  0.69101391295E+02  0.17784841819E+03  0.24437996532E+03  0.35455694829E+03  0.17200000000E+03 0. -1.
</event>
<event>
 4    1  0.3190379E-002  0.2077103E+03  0.7818608E-02  0.1143392E+00
          1   -1    0    0  502    0  0.00000000000E+00  0.00000000000E+00  0.65245959398E+03  0.65245959398E+03  0.00000000000E+00 0. -1.
         -1   -1    0    0    0  501 -0.00000000000E+00 -0.00000000000E+00 -0.67087403687E+02  0.67087403687E+02  0.00000000000E+00 0.  1.
          6    1    1    2  502    0 -0.11619847225E+03  0.75805441032E+01  0.24958332080E+03  0.32470815146E+03  0.17200000000E+03 0.  1.
         -6    1    1    2    0  501  0.11619847225E+03 -0.75805441032E+01  0.33578886949E+03  0.39483884621E+03  0.17200000000E+03 0. -1.
</event>
<event>
 4    1  0.3190379E-002  0.2473380E+03  0.7818608E-02  0.1114999E+00
         -3   -1    0    0    0  501 -0.00000000000E+00  0.00000000000E+00  0.99098249581E+03  0.99098249581E+03  0.00000000000E+00 0.  1.
          3   -1    0    0  502    0  0.00000000000E+00 -0.00000000000E+00 -0.87377505074E+02  0.87377505074E+02  0.00000000000E+00 0. -1.
          6    1    1    2  502    0 -0.11290531656E+03  0.13727527090E+03  0.15970157436E+03  0.29441586805E+03  0.17200000000E+03 0. -1.
         -6    1    1    2    0  501  0.11290531656E+03 -0.13727527090E+03  0.74390341638E+03  0.78394413284E+03  0.17200000000E+03 0.  1.
</event>
<event>
 4    1  0.3190379E-002  0.1964740E+03  0.7818608E-02  0.1152748E+00
         -1   -1    0    0    0  501 -0.00000000000E+00  0.00000000000E+00  0.93485883925E+02  0.93485883925E+02  0.00000000000E+00 0.  1.
          1   -1    0    0  502    0  0.00000000000E+00 -0.00000000000E+00 -0.73880133700E+03  0.73880133700E+03  0.00000000000E+00 0. -1.
          6    1    1    2  502    0  0.92179423024E+02 -0.22824768938E+02 -0.59904012866E+03  0.63043722277E+03  0.17200000000E+03 0. -1.
         -6    1    1    2    0  501 -0.92179423024E+02  0.22824768938E+02 -0.46275324413E+02  0.20184999816E+03  0.17200000000E+03 0.  1.
</event>
<event>
 4    1  0.3190379E-002  0.1974201E+03  0.7818608E-02  0.1151934E+00
          2   -1    0    0  502    0  0.00000000000E+00  0.00000000000E+00  0.29571938197E+03  0.29571938197E+03  0.00000000000E+00 0. -1.
         -2   -1    0    0    0  501 -0.00000000000E+00 -0.00000000000E+00 -0.24022285225E+03  0.24022285225E+03  0.00000000000E+00 0.  1.
          6    1    1    2  502    0  0.51880240801E+02 -0.81848310212E+02  0.20777987000E+03  0.28661329287E+03  0.17200000000E+03 0. -1.
         -6    1    1    2    0  501 -0.51880240801E+02  0.81848310212E+02 -0.15228334028E+03  0.24932894135E+03  0.17200000000E+03 0.  1.
</event>
<event>
 4    1  0.3190379E-002  0.4297474E+03  0.7818608E-02  0.1033940E+00
          2   -1    0    0  502    0  0.00000000000E+00  0.00000000000E+00  0.26273939507E+04  0.26273939507E+04  0.00000000000E+00 0. -1.
         -2   -1    0    0    0  501 -0.00000000000E+00 -0.00000000000E+00 -0.17577000734E+03  0.17577000734E+03  0.00000000000E+00 0.  1.
          6    1    1    2  502    0 -0.16553823533E+03 -0.35734561935E+03  0.23115589428E+04  0.23511672729E+04  0.17200000000E+03 0. -1.
         -6    1    1    2    0  501  0.16553823533E+03  0.35734561935E+03  0.14006500056E+03  0.45199668517E+03  0.17200000000E+03 0.  1.
</event>
<event>
 4    1  0.3190379E-002  0.3131401E+03  0.7818608E-02  0.1078850E+00
          2   -1    0    0  502    0  0.00000000000E+00  0.00000000000E+00  0.91244525880E+02  0.91244525880E+02  0.00000000000E+00 0. -1.
         -2   -1    0    0    0  501 -0.00000000000E+00 -0.00000000000E+00 -0.10877692765E+04  0.10877692765E+04  0.00000000000E+00 0.  1.
          6    1    1    2  502    0 -0.88320100991E+02 -0.24631744797E+03 -0.43354348554E+03  0.53480527229E+03  0.17200000000E+03 0. -1.
         -6    1    1    2    0  501  0.88320100991E+02  0.24631744797E+03 -0.56298126511E+03  0.64420853012E+03  0.17200000000E+03 0.  1.
</event>
<event>
 4    1  0.3190379E-002  0.1939746E+03  0.7818608E-02  0.1154925E+00
         -1   -1    0    0    0  501 -0.00000000000E+00  0.00000000000E+00  0.77918012249E+03  0.77918012249E+03  0.00000000000E+00 0.  1.
          1   -1    0    0  502    0  0.00000000000E+00 -0.00000000000E+00 -0.49455924529E+02  0.49455924529E+02  0.00000000000E+00 0. -1.
          6    1    1    2  502    0 -0.17885421527E+02 -0.87876446837E+02  0.42849290073E+03  0.47035340351E+03  0.17200000000E+03 0. -1.
         -6    1    1    2    0  501  0.17885421527E+02  0.87876446837E+02  0.30123129723E+03  0.35828264351E+03  0.17200000000E+03 0. -1.
</event>
<event>
 4    1  0.3190379E-002  0.1909471E+03  0.7818608E-02  0.1157610E+00
         -2   -1    0    0    0  501 -0.00000000000E+00  0.00000000000E+00  0.17169962538E+03  0.17169962538E+03  0.00000000000E+00 0.  1.
          2   -1    0    0  502    0  0.00000000000E+00 -0.00000000000E+00 -0.25205491609E+03  0.25205491609E+03  0.00000000000E+00 0. -1.
          6    1    1    2  502    0 -0.77546613413E+02 -0.29382210317E+02  0.43912856740E+02  0.19593144342E+03  0.17200000000E+03 0.  1.
         -6    1    1    2    0  501  0.77546613413E+02  0.29382210317E+02 -0.12426814744E+03  0.22782309805E+03  0.17200000000E+03 0. -1.
</event>
<event>
 4    1  0.3190379E-002  0.2173985E+03  0.7818608E-02  0.1135838E+00
         -2   -1    0    0    0  501 -0.00000000000E+00  0.00000000000E+00  0.24515148513E+03  0.24515148513E+03  0.00000000000E+00 0.  1.
          2   -1    0    0  502    0  0.00000000000E+00 -0.00000000000E+00 -0.27965999997E+03  0.27965999997E+03  0.00000000000E+00 0. -1.
          6    1    1    2  502    0 -0.12395519602E+02 -0.13237992932E+03 -0.16350557958E+03  0.27202236883E+03  0.17200000000E+03 0. -1.
         -6    1    1    2    0  501  0.12395519602E+02  0.13237992932E+03  0.12899706474E+03  0.25278911627E+03  0.17200000000E+03 0.  1.
</event>
<event>
 4    1  0.3190379E-002  0.6696325E+03  0.7818608E-02  0.9770622E-01
          2   -1    0    0  502    0  0.00000000000E+00  0.00000000000E+00  0.80306018641E+03  0.80306018641E+03  0.00000000000E+00 0. -1.
         -2   -1    0    0    0  501 -0.00000000000E+00 -0.00000000000E+00 -0.79744971227E+03  0.79744971227E+03  0.00000000000E+00 0.  1.
          6    1    1    2  502    0  0.43619759169E+03 -0.47807460699E+03  0.44097735507E+03  0.80179093068E+03  0.17200000000E+03 0. -1.
         -6    1    1    2    0  501 -0.43619759169E+03  0.47807460699E+03 -0.43536688093E+03  0.79871896800E+03  0.17200000000E+03 0.  1.
</event>
<event>
 4    1  0.3190379E-002  0.1764221E+03  0.7818608E-02  0.1171311E+00
         -2   -1    0    0    0  501 -0.00000000000E+00  0.00000000000E+00  0.45411388554E+02  0.45411388554E+02  0.00000000000E+00 0.  1.
          2   -1    0    0  502    0  0.00000000000E+00 -0.00000000000E+00 -0.11345028765E+04  0.11345028765E+04  0.00000000000E+00 0. -1.
          6    1    1    2  502    0 -0.13106775160E+02 -0.36999828659E+02 -0.91573261408E+03  0.93257224673E+03  0.17200000000E+03 0. -1.
         -6    1    1    2    0  501  0.13106775160E+02  0.36999828659E+02 -0.17335887383E+03  0.24734201829E+03  0.17200000000E+03 0.  1.
</event>
<event>
 4    1  0.3190379E-002  0.4218082E+03  0.7818608E-02  0.1036479E+00
          2   -1    0    0  502    0  0.00000000000E+00  0.00000000000E+00  0.14093221510E+04  0.14093221510E+04  0.00000000000E+00 0. -1.
         -2   -1    0    0    0  501 -0.00000000000E+00 -0.00000000000E+00 -0.40014288579E+03  0.40014288579E+03  0.00000000000E+00 0.  1.
          6    1    1    2  502    0 -0.31705491432E+02 -0.38383968919E+03  0.12531136040E+04  0.13222011382E+04  0.17200000000E+03 0. -1.
         -6    1    1    2    0  501  0.31705491432E+02  0.38383968919E+03 -0.24393433886E+03  0.48726389858E+03  0.17200000000E+03 0.  1.
</event>
<event>
 4    1  0.3190379E-002  0.2587811E+03  0.7818608E-02  0.1107878E+00
         -2   -1    0    0    0  501 -0.00000000000E+00  0.00000000000E+00  0.80191163624E+02  0.80191163624E+02  0.00000000000E+00 0.  1.
          2   -1    0    0  502    0  0.00000000000E+00 -0.00000000000E+00 -0.23405610450E+04  0.23405610450E+04  0.00000000000E+00 0. -1.
          6    1    1    2  502    0 -0.81800188970E+02  0.17519236172E+03 -0.21009075101E+04  0.21167852986E+04  0.17200000000E+03 0. -1.
         -6    1    1    2    0  501  0.81800188970E+02 -0.17519236172E+03 -0.15946237130E+03  0.30396691001E+03  0.17200000000E+03 0.  1.
</event>
<event>
 4    1  0.3190379E-002  0.1877957E+03  0.7818608E-02  0.1160465E+00
          2   -1    0    0  502    0  0.00000000000E+00  0.00000000000E+00  0.50978873683E+03  0.50978873683E+03  0.00000000000E+00 0. -1.
         -2   -1    0    0    0  501 -0.00000000000E+00 -0.00000000000E+00 -0.76097173786E+02  0.76097173786E+02  0.00000000000E+00 0.  1.
          6    1    1    2  502    0  0.70516339567E+02  0.26658064065E+02  0.30516633892E+03  0.35832066775E+03  0.17200000000E+03 0. -1.
         -6    1    1    2    0  501 -0.70516339567E+02 -0.26658064065E+02  0.12852522412E+03  0.22756524287E+03  0.17200000000E+03 0.  1.
</event>
<event>
 4    1  0.3190379E-002  0.1453470E+04  0.7818608E-02  0.8915998E-01
          1   -1    0    0  502    0  0.00000000000E+00  0.00000000000E+00  0.31228546770E+04  0.31228546770E+04  0.00000000000E+00 0. -1.
         -1   -1    0    0    0  501 -0.00000000000E+00 -0.00000000000E+00 -0.10153461822E+04  0.10153461822E+04  0.00000000000E+00 0.  1.
          6    1    1    2  502    0 -0.14098977433E+04  0.30851383806E+03  0.22490707927E+04  0.26778528462E+04  0.17200000000E+03 0. -1.
         -6    1    1    2    0  501  0.14098977433E+04 -0.30851383806E+03 -0.14156229800E+03  0.14603480130E+04  0.17200000000E+03 0.  1.
</event>
<event>
 4    1  0.3190379E-002  0.2945902E+03  0.7818608E-02  0.1087977E+00
          2   -1    0    0  502    0  0.00000000000E+00  0.00000000000E+00  0.77126814351E+03  0.77126814351E+03  0.00000000000E+00 0. -1.
         -2   -1    0    0    0  501 -0.00000000000E+00 -0.00000000000E+00 -0.21860873125E+03  0.21860873125E+03  0.00000000000E+00 0.  1.
          6    1    1    2  502    0 -0.18078483011E+03 -0.15657652974E+03  0.62111706476E+03  0.68743710447E+03  0.17200000000E+03 0. -1.
         -6    1    1    2    0  501  0.18078483011E+03  0.15657652974E+03 -0.68457652500E+02  0.30243977028E+03  0.17200000000E+03 0.  1.
</event>
<event>
 4    1  0.3190379E-002  0.5252762E+03  0.7818608E-02  0.1007384E+00
         -1   -1    0    0    0  501 -0.00000000000E+00  0.00000000000E+00  0.41549882681E+03  0.41549882681E+03  0.00000000000E+00 0.  1.
          1   -1    0    0  502    0  0.00000000000E+00 -0.00000000000E+00 -0.12218516173E+04  0.12218516173E+04  0.00000000000E+00 0. -1.
          6    1    1    2  502    0  0.56800348737E+01  0.49628499540E+03 -0.95632194993E+03  0.10910851165E+04  0.17200000000E+03 0. -1.
         -6    1    1    2    0  501 -0.56800348737E+01 -0.49628499540E+03  0.14996915941E+03  0.54626532768E+03  0.17200000000E+03 0.  1.
</event>
<event>
 4    1  0.3190379E-002  0.1741517E+03  0.7818608E-02  0.1173586E+00
         -1   -1    0    0    0  501 -0.00000000000E+00  0.00000000000E+00  0.60862832151E+02  0.60862832151E+02  0.00000000000E+00 0.  1.
          1   -1    0    0  502    0  0.00000000000E+00 -0.00000000000E+00 -0.10224299164E+04  0.10224299164E+04  0.00000000000E+00 0. -1.
          6    1    1    2  502    0  0.18251051369E+02  0.20290619646E+02 -0.86858789608E+03  0.88587456412E+03  0.17200000000E+03 0. -1.
         -6    1    1    2    0  501 -0.18251051369E+02 -0.20290619646E+02 -0.92979188200E+02  0.19741818447E+03  0.17200000000E+03 0.  1.
</event>
<event>
 4    1  0.3190379E-002  0.2286843E+03  0.7818608E-02  0.1127569E+00
          1   -1    0    0  502    0  0.00000000000E+00  0.00000000000E+00  0.15712050829E+04  0.15712050829E+04  0.00000000000E+00 0. -1.
         -1   -1    0    0    0  501 -0.00000000000E+00 -0.00000000000E+00 -0.14538178855E+03  0.14538178855E+03  0.00000000000E+00 0.  1.
          6    1    1    2  502    0 -0.14987920067E+03  0.15771393457E+02  0.14665772015E+04  0.14842995653E+04  0.17200000000E+03 0. -1.
         -6    1    1    2    0  501  0.14987920067E+03 -0.15771393457E+02 -0.40753907136E+02  0.23228730614E+03  0.17200000000E+03 0.  1.
</event>
<event>
 4    1  0.3190379E-002  0.2764597E+03  0.7818608E-02  0.1097638E+00
         -2   -1    0    0    0  501 -0.00000000000E+00  0.00000000000E+00  0.91825494664E+03  0.91825494664E+03  0.00000000000E+00 0.  1.
          2   -1    0    0  502    0  0.00000000000E+00 -0.00000000000E+00 -0.10657852827E+03  0.10657852827E+03  0.00000000000E+00 0. -1.
          6    1    1    2  502    0  0.75902345893E+02 -0.20269383016E+03  0.64565621215E+03  0.70235453952E+03  0.17200000000E+03 0.  1.
         -6    1    1    2    0  501 -0.75902345893E+02  0.20269383016E+03  0.16602020622E+03  0.32247893539E+03  0.17200000000E+03 0. -1.
</event>
<event>
 4    1  0.3190379E-002  0.1794190E+03  0.7818608E-02  0.1168367E+00
          2   -1    0    0  502    0  0.00000000000E+00  0.00000000000E+00  0.14118657412E+04  0.14118657412E+04  0.00000000000E+00 0. -1.
         -2   -1    0    0    0  501 -0.00000000000E+00 -0.00000000000E+00 -0.31705565400E+02  0.31705565400E+02  0.00000000000E+00 0.  1.
          6    1    1    2  502    0  0.42468551547E+02  0.28347784099E+02  0.10726054735E+04  0.10875080122E+04  0.17200000000E+03 0. -1.
         -6    1    1    2    0  501 -0.42468551547E+02 -0.28347784099E+02  0.30755470224E+03  0.35606329438E+03  0.17200000000E+03 0.  1.
</event>
<event>
 4    1  0.3190379E-002  0.3565718E+03  0.7818608E-02  0.1059950E+00
          2   -1    0    0  502    0  0.00000000000E+00  0.00000000000E+00  0.23581798357E+04  0.23581798357E+04  0.00000000000E+00 0. -1.
         -2   -1    0    0    0  501 -0.00000000000E+00 -0.00000000000E+00 -0.23941270192E+03  0.23941270192E+03  0.00000000000E+00 0.  1.
          6    1    1    2  502    0  0.30572244456E+03 -0.63978211738E+02  0.22026188871E+04  0.22312941057E+04  0.17200000000E+03 0. -1.
         -6    1    1    2    0  501 -0.30572244456E+03  0.63978211738E+02 -0.83851753259E+02  0.36629843189E+03  0.17200000000E+03 0.  1.
</event>
<event>
 4    1  0.3190379E-002  0.2236007E+03  0.7818608E-02  0.1131227E+00
         -1   -1    0    0    0  501 -0.00000000000E+00  0.00000000000E+00  0.42971112297E+03  0.42971112297E+03  0.00000000000E+00 0.  1.
          1   -1    0    0  502    0  0.00000000000E+00 -0.00000000000E+00 -0.22117190142E+03  0.22117190142E+03  0.00000000000E+00 0. -1.
          6    1    1    2  502    0  0.11254629632E+03 -0.88014743192E+02 -0.11977380424E+03  0.25365927544E+03  0.17200000000E+03 0. -1.
         -6    1    1    2    0  501 -0.11254629632E+03  0.88014743192E+02  0.32831302579E+03  0.39722374896E+03  0.17200000000E+03 0.  1.
</event>
<event>
 4    1  0.3190379E-002  0.4473066E+03  0.7818608E-02  0.1028528E+00
         -1   -1    0    0    0  501 -0.00000000000E+00  0.00000000000E+00  0.40201261997E+03  0.40201261997E+03  0.00000000000E+00 0.  1.
          1   -1    0    0  502    0  0.00000000000E+00 -0.00000000000E+00 -0.82479420269E+03  0.82479420269E+03  0.00000000000E+00 0. -1.
          6    1    1    2  502    0 -0.39483267320E+03 -0.12085674712E+03 -0.59767531916E+03  0.74652460126E+03  0.17200000000E+03 0. -1.
         -6    1    1    2    0  501  0.39483267320E+03  0.12085674712E+03  0.17489373644E+03  0.48028222140E+03  0.17200000000E+03 0.  1.
</event>
<event>
 4    1  0.3190379E-002  0.2017599E+03  0.7818608E-02  0.1148263E+00
          1   -1    0    0  502    0  0.00000000000E+00  0.00000000000E+00  0.38734189815E+03  0.38734189815E+03  0.00000000000E+00 0. -1.
         -1   -1    0    0    0  501 -0.00000000000E+00 -0.00000000000E+00 -0.10647442667E+03  0.10647442667E+03  0.00000000000E+00 0.  1.
          6    1    1    2  502    0  0.55424802385E+02 -0.89728177874E+02  0.16855422830E+03  0.26290222993E+03  0.17200000000E+03 0. -1.
         -6    1    1    2    0  501 -0.55424802385E+02  0.89728177874E+02  0.11231324318E+03  0.23091409489E+03  0.17200000000E+03 0.  1.
</event>
<event>
 4    1  0.3190379E-002  0.2439576E+03  0.7818608E-02  0.1117184E+00
          2   -1    0    0  502    0  0.00000000000E+00  0.00000000000E+00  0.97923689155E+03  0.97923689155E+03  0.00000000000E+00 0. -1.
         -2   -1    0    0    0  501 -0.00000000000E+00 -0.00000000000E+00 -0.67040184044E+02  0.67040184044E+02  0.00000000000E+00 0.  1.
          6    1    1    2  502    0 -0.69431513249E+02  0.15846317279E+03  0.61599468598E+03  0.66254416103E+03  0.17200000000E+03 0. -1.
         -6    1    1    2    0  501  0.69431513249E+02 -0.15846317279E+03  0.29620202153E+03  0.38373291457E+03  0.17200000000E+03 0.  1.
</event>
<event>
 4    1  0.3190379E-002  0.1987830E+03  0.7818608E-02  0.1150770E+00
          2   -1    0    0  502    0  0.00000000000E+00  0.00000000000E+00  0.15900189961E+04  0.15900189961E+04  0.00000000000E+00 0. -1.
         -2   -1    0    0    0  501 -0.00000000000E+00 -0.00000000000E+00 -0.38640176169E+02  0.38640176169E+02  0.00000000000E+00 0.  1.
          6    1    1    2  502    0  0.98954595749E+02  0.11775705866E+02  0.12621400284E+04  0.12776979810E+04  0.17200000000E+03 0. -1.
         -6    1    1    2    0  501 -0.98954595749E+02 -0.11775705866E+02  0.28923879147E+03  0.35096119124E+03  0.17200000000E+03 0.  1.
</event>
<event>
 4    1  0.3190379E-002  0.2924121E+03  0.7818608E-02  0.1089096E+00
          2   -1    0    0  502    0  0.00000000000E+00  0.00000000000E+00  0.12432549530E+04  0.12432549530E+04  0.00000000000E+00 0. -1.
         -2   -1    0    0    0  501 -0.00000000000E+00 -0.00000000000E+00 -0.12774617055E+03  0.12774617055E+03  0.00000000000E+00 0.  1.
          6    1    1    2  502    0  0.20522894675E+03 -0.11748154576E+03  0.10235054156E+04  0.10644567488E+04  0.17200000000E+03 0.  1.
         -6    1    1    2    0  501 -0.20522894675E+03  0.11748154576E+03  0.92003366775E+02  0.30654437473E+03  0.17200000000E+03 0.  1.
</event>
<event>
 4    1  0.3190379E-002  0.2343159E+03  0.7818608E-02  0.1123638E+00
         -4   -1    0    0    0  501 -0.00000000000E+00  0.00000000000E+00  0.91306200579E+02  0.91306200579E+02  0.00000000000E+00 0.  1.
          4   -1    0    0  502    0  0.00000000000E+00 -0.00000000000E+00 -0.60807167724E+03  0.60807167724E+03  0.00000000000E+00 0. -1.
          6    1    1    2  502    0  0.11248266571E+03  0.11255031027E+03 -0.29524006009E+03  0.37692255904E+03  0.17200000000E+03 0.  1.
         -6    1    1    2    0  501 -0.11248266571E+03 -0.11255031027E+03 -0.22152541656E+03  0.32245531878E+03  0.17200000000E+03 0. -1.
</event>
<event>
 4    1  0.3190379E-002  0.2486185E+03  0.7818608E-02  0.1114181E+00
          2   -1    0    0  502    0  0.00000000000E+00  0.00000000000E+00  0.12274353459E+04  0.12274353459E+04  0.00000000000E+00 0. -1.
         -2   -1    0    0    0  501 -0.00000000000E+00 -0.00000000000E+00 -0.50453572354E+02  0.50453572354E+02  0.00000000000E+00 0.  1.
          6    1    1    2  502    0 -0.16563513582E+03 -0.69225469828E+02  0.56067902632E+03  0.61332873277E+03  0.17200000000E+03 0. -1.
         -6    1    1    2    0  501  0.16563513582E+03  0.69225469828E+02  0.61630274726E+03  0.66456018552E+03  0.17200000000E+03 0.  1.
</event>
<event>
 4    1  0.3190379E-002  0.2761790E+03  0.7818608E-02  0.1097794E+00
          2   -1    0    0  502    0  0.00000000000E+00  0.00000000000E+00  0.14177560973E+03  0.14177560973E+03  0.00000000000E+00 0. -1.
         -2   -1    0    0    0  501 -0.00000000000E+00 -0.00000000000E+00 -0.53851701372E+03  0.53851701372E+03  0.00000000000E+00 0.  1.
          6    1    1    2  502    0 -0.19695577696E+03 -0.88877712147E+02 -0.18779881020E+03  0.33398086608E+03  0.17200000000E+03 0. -1.
         -6    1    1    2    0  501  0.19695577696E+03  0.88877712147E+02 -0.20894259380E+03  0.34631175737E+03  0.17200000000E+03 0.  1.
</event>
<event>
 4    1  0.3190379E-002  0.1970679E+03  0.7818608E-02  0.1152237E+00
         -2   -1    0    0    0  501 -0.00000000000E+00  0.00000000000E+00  0.44792007596E+02  0.44792007596E+02  0.00000000000E+00 0.  1.
          2   -1    0    0  502    0  0.00000000000E+00 -0.00000000000E+00 -0.17831742466E+04  0.17831742466E+04  0.00000000000E+00 0. -1.
          6    1    1    2  502    0 -0.96054262511E+02 -0.50354130403E+01 -0.15243165731E+04  0.15370025347E+04  0.17200000000E+03 0. -1.
         -6    1    1    2    0  501  0.96054262511E+02  0.50354130403E+01 -0.21406566592E+03  0.29096371949E+03  0.17200000000E+03 0.  1.
</event>
<event>
 4    1  0.3190379E-002  0.2255484E+03  0.7818608E-02  0.1129813E+00
         -2   -1    0    0    0  501 -0.00000000000E+00  0.00000000000E+00  0.91930525146E+02  0.91930525146E+02  0.00000000000E+00 0.  1.
          2   -1    0    0  502    0  0.00000000000E+00 -0.00000000000E+00 -0.72438918294E+03  0.72438918294E+03  0.00000000000E+00 0. -1.
          6    1    1    2  502    0 -0.29078752301E+02 -0.14297725256E+03 -0.51454643480E+03  0.56180966719E+03  0.17200000000E+03 0.  1.
         -6    1    1    2    0  501  0.29078752301E+02  0.14297725256E+03 -0.11791222300E+03  0.25451004090E+03  0.17200000000E+03 0.  1.
</event>
<event>
 4    1  0.3190379E-002  0.2303868E+03  0.7818608E-02  0.1126368E+00
          2   -1    0    0  502    0  0.00000000000E+00  0.00000000000E+00  0.76582671008E+02  0.76582671008E+02  0.00000000000E+00 0. -1.
         -2   -1    0    0    0  501 -0.00000000000E+00 -0.00000000000E+00 -0.81795782352E+03  0.81795782352E+03  0.00000000000E+00 0.  1.
          6    1    1    2  502    0 -0.20062867901E+02 -0.15195905902E+03 -0.19592692381E+03  0.30243252761E+03  0.17200000000E+03 0. -1.
         -6    1    1    2    0  501  0.20062867901E+02  0.15195905902E+03 -0.54544822870E+03  0.59210796691E+03  0.17200000000E+03 0.  1.
</event>
<event>
 4    1  0.3190379E-002  0.2484533E+03  0.7818608E-02  0.1114286E+00
         -2   -1    0    0    0  501 -0.00000000000E+00  0.00000000000E+00  0.51173079318E+02  0.51173079318E+02  0.00000000000E+00 0.  1.
          2   -1    0    0  502    0  0.00000000000E+00 -0.00000000000E+00 -0.12231421871E+04  0.12231421871E+04  0.00000000000E+00 0. -1.
          6    1    1    2  502    0  0.77199842190E+02 -0.16181846918E+03 -0.51117228989E+03  0.56835388848E+03  0.17200000000E+03 0. -1.
         -6    1    1    2    0  501 -0.77199842190E+02  0.16181846918E+03 -0.66079681793E+03  0.70596137797E+03  0.17200000000E+03 0.  1.
</event>
<event>
 4    1  0.3190379E-002  0.1818932E+03  0.7818608E-02  0.1165983E+00
         -1   -1    0    0    0  501 -0.00000000000E+00  0.00000000000E+00  0.93374904951E+02  0.93374904951E+02  0.00000000000E+00 0.  1.
          1   -1    0    0  502    0  0.00000000000E+00 -0.00000000000E+00 -0.37352107067E+03  0.37352107067E+03  0.00000000000E+00 0. -1.
          6    1    1    2  502    0 -0.68362741967E+01  0.58774047385E+02 -0.19299450078E+03  0.26520181113E+03  0.17200000000E+03 0. -1.
         -6    1    1    2    0  501  0.68362741967E+01 -0.58774047385E+02 -0.87151664935E+02  0.20169416450E+03  0.17200000000E+03 0.  1.
</event>
<event>
 4    1  0.3190379E-002  0.2285874E+03  0.7818608E-02  0.1127638E+00
          2   -1    0    0  502    0  0.00000000000E+00  0.00000000000E+00  0.14617762862E+03  0.14617762862E+03  0.00000000000E+00 0. -1.
         -2   -1    0    0    0  501 -0.00000000000E+00 -0.00000000000E+00 -0.35848919820E+03  0.35848919820E+03  0.00000000000E+00 0.  1.
          6    1    1    2  502    0  0.93464375453E+02 -0.11803656713E+03 -0.92615979374E+02  0.24663726461E+03  0.17200000000E+03 0. -1.
         -6    1    1    2    0  501 -0.93464375453E+02  0.11803656713E+03 -0.11969559020E+03  0.25802956221E+03  0.17200000000E+03 0. -1.
</event>
<event>
 4    1  0.3190379E-002  0.1784328E+03  0.7818608E-02  0.1169328E+00
          2   -1    0    0  502    0  0.00000000000E+00  0.00000000000E+00  0.11613397831E+04  0.11613397831E+04  0.00000000000E+00 0. -1.
         -2   -1    0    0    0  501 -0.00000000000E+00 -0.00000000000E+00 -0.27437019666E+02  0.27437019666E+02  0.00000000000E+00 0.  1.
          6    1    1    2  502    0 -0.20074601224E+02  0.43026351256E+02  0.58374837464E+03  0.61041004367E+03  0.17200000000E+03 0. -1.
         -6    1    1    2    0  501  0.20074601224E+02 -0.43026351256E+02  0.55015438875E+03  0.57836675906E+03  0.17200000000E+03 0.  1.
</event>
<event>
 4    1  0.3190379E-002  0.2503376E+03  0.7818608E-02  0.1113092E+00
         -1   -1    0    0    0  501 -0.00000000000E+00  0.00000000000E+00  0.11814957363E+03  0.11814957363E+03  0.00000000000E+00 0.  1.
          1   -1    0    0  502    0  0.00000000000E+00 -0.00000000000E+00 -0.72489979041E+03  0.72489979041E+03  0.00000000000E+00 0. -1.
          6    1    1    2  502    0  0.46030582814E+02 -0.17597194076E+03 -0.52170885519E+03  0.57866144512E+03  0.17200000000E+03 0. -1.
         -6    1    1    2    0  501 -0.46030582814E+02  0.17597194076E+03 -0.85041361587E+02  0.26438791892E+03  0.17200000000E+03 0.  1.
</event>
<event>
 4    1  0.3190379E-002  0.4350828E+03  0.7818608E-02  0.1032266E+00
         -1   -1    0    0    0  501 -0.00000000000E+00  0.00000000000E+00  0.12103637444E+03  0.12103637444E+03  0.00000000000E+00 0.  1.
          1   -1    0    0  502    0  0.00000000000E+00 -0.00000000000E+00 -0.15839833874E+04  0.15839833874E+04  0.00000000000E+00 0. -1.
          6    1    1    2  502    0  0.39422879267E+02 -0.39769198416E+03 -0.82730331531E+03  0.93473410829E+03  0.17200000000E+03 0.  1.
         -6    1    1    2    0  501 -0.39422879267E+02  0.39769198416E+03 -0.63564369760E+03  0.77028565349E+03  0.17200000000E+03 0.  1.
</event>
<event>
 4    1  0.3190379E-002  0.2135046E+03  0.7818608E-02  0.1138820E+00
         -2   -1    0    0    0  501 -0.00000000000E+00  0.00000000000E+00  0.28906875449E+02  0.28906875449E+02  0.00000000000E+00 0.  1.
          2   -1    0    0  502    0  0.00000000000E+00 -0.00000000000E+00 -0.16503578460E+04  0.16503578460E+04  0.00000000000E+00 0. -1.
          6    1    1    2  502    0  0.10461556233E+03  0.71104140748E+02 -0.98782636551E+03  0.10106360092E+04  0.17200000000E+03 0. -1.
         -6    1    1    2    0  501 -0.10461556233E+03 -0.71104140748E+02 -0.63362460500E+03  0.66862871219E+03  0.17200000000E+03 0.  1.
</event>
<event>
 4    1  0.3190379E-002  0.5176907E+03  0.7818608E-02  0.1009262E+00
         -1   -1    0    0    0  501 -0.00000000000E+00  0.00000000000E+00  0.10858321715E+04  0.10858321715E+04  0.00000000000E+00 0.  1.
          1   -1    0    0  502    0  0.00000000000E+00 -0.00000000000E+00 -0.76818084399E+03  0.76818084399E+03  0.00000000000E+00 0. -1.
          6    1    1    2  502    0  0.27082831253E+03 -0.40629012084E+03 -0.60487085652E+03  0.79616103285E+03  0.17200000000E+03 0. -1.
         -6    1    1    2    0  501 -0.27082831253E+03  0.40629012084E+03  0.92252218407E+03  0.10578519827E+04  0.17200000000E+03 0.  1.
</event>
<event>
 4    1  0.3190379E-002  0.3002802E+03  0.7818608E-02  0.1085101E+00
          2   -1    0    0  502    0  0.00000000000E+00  0.00000000000E+00  0.16749014100E+04  0.16749014100E+04  0.00000000000E+00 0. -1.
         -2   -1    0    0    0  501 -0.00000000000E+00 -0.00000000000E+00 -0.55707218009E+02  0.55707218009E+02  0.00000000000E+00 0.  1.
          6    1    1    2  502    0 -0.19080898805E+03  0.15548676674E+03  0.96823214886E+03  0.10137266390E+04  0.17200000000E+03 0. -1.
         -6    1    1    2    0  501  0.19080898805E+03 -0.15548676674E+03  0.65096204312E+03  0.71688198898E+03  0.17200000000E+03 0.  1.
</event>
<event>
 4    1  0.3190379E-002  0.2952191E+03  0.7818608E-02  0.1087655E+00
          2   -1    0    0  502    0  0.00000000000E+00  0.00000000000E+00  0.43688496105E+03  0.43688496105E+03  0.00000000000E+00 0. -1.
         -2   -1    0    0    0  501 -0.00000000000E+00 -0.00000000000E+00 -0.20316180914E+03  0.20316180914E+03  0.00000000000E+00 0.  1.
          6    1    1    2  502    0 -0.19816717635E+03 -0.13527779473E+03  0.15988282769E+03  0.33573327228E+03  0.17200000000E+03 0. -1.
         -6    1    1    2    0  501  0.19816717635E+03  0.13527779473E+03  0.73840324221E+02  0.30431349791E+03  0.17200000000E+03 0.  1.
</event>
<event>
 4    1  0.3190379E-002  0.2495470E+03  0.7818608E-02  0.1113591E+00
         -3   -1    0    0    0  501 -0.00000000000E+00  0.00000000000E+00  0.17790110729E+04  0.17790110729E+04  0.00000000000E+00 0.  1.
          3   -1    0    0  502    0  0.00000000000E+00 -0.00000000000E+00 -0.35941603539E+02  0.35941603539E+02  0.00000000000E+00 0. -1.
          6    1    1    2  502    0 -0.61926368821E+02  0.16986706443E+03  0.10180527685E+04  0.10481913634E+04  0.17200000000E+03 0. -1.
         -6    1    1    2    0  501  0.61926368821E+02 -0.16986706443E+03  0.72501670079E+03  0.76676131303E+03  0.17200000000E+03 0.  1.
</event>
<event>
 4    1  0.3190379E-002  0.3403353E+03  0.7818608E-02  0.1066653E+00
          2   -1    0    0  502    0  0.00000000000E+00  0.00000000000E+00  0.13906891293E+03  0.13906891293E+03  0.00000000000E+00 0. -1.
         -2   -1    0    0    0  501 -0.00000000000E+00 -0.00000000000E+00 -0.86061260042E+03  0.86061260042E+03  0.00000000000E+00 0.  1.
          6    1    1    2  502    0  0.28726271114E+03 -0.61026385608E+02 -0.45049454684E+03  0.56460023174E+03  0.17200000000E+03 0. -1.
         -6    1    1    2    0  501 -0.28726271114E+03  0.61026385608E+02 -0.27104914065E+03  0.43508128160E+03  0.17200000000E+03 0. -1.
</event>
<event>
 4    1  0.3190379E-002  0.3017649E+03  0.7818608E-02  0.1084362E+00
         -2   -1    0    0    0  501 -0.00000000000E+00  0.00000000000E+00  0.94419552575E+02  0.94419552575E+02  0.00000000000E+00 0.  1.
          2   -1    0    0  502    0  0.00000000000E+00 -0.00000000000E+00 -0.11438235671E+04  0.11438235671E+04  0.00000000000E+00 0. -1.
          6    1    1    2  502    0 -0.10604357832E+03 -0.22412684894E+03 -0.76988286542E+03  0.82691094526E+03  0.17200000000E+03 0. -1.
         -6    1    1    2    0  501  0.10604357832E+03  0.22412684894E+03 -0.27952114913E+03  0.41133217445E+03  0.17200000000E+03 0.  1.
</event>
<event>
 4    1  0.3190379E-002  0.3878809E+03  0.7818608E-02  0.1048059E+00
         -2   -1    0    0    0  501 -0.00000000000E+00  0.00000000000E+00  0.12189052392E+04  0.12189052392E+04  0.00000000000E+00 0.  1.
          2   -1    0    0  502    0  0.00000000000E+00 -0.00000000000E+00 -0.29234765522E+03  0.29234765522E+03  0.00000000000E+00 0. -1.
          6    1    1    2  502    0 -0.33756956135E+03 -0.83152632875E+02 -0.11109240697E+03  0.40347625952E+03  0.17200000000E+03 0. -1.
         -6    1    1    2    0  501  0.33756956135E+03  0.83152632875E+02  0.10376499910E+04  0.11077766349E+04  0.17200000000E+03 0.  1.
</event>
<event>
 4    1  0.3190379E-002  0.3410066E+03  0.7818608E-02  0.1066368E+00
          2   -1    0    0  502    0  0.00000000000E+00  0.00000000000E+00  0.52110501320E+03  0.52110501320E+03  0.00000000000E+00 0. -1.
         -2   -1    0    0    0  501 -0.00000000000E+00 -0.00000000000E+00 -0.22734580843E+03  0.22734580843E+03  0.00000000000E+00 0.  1.
          6    1    1    2  502    0  0.28021200636E+03 -0.90458360516E+02  0.19770821343E+03  0.39417511483E+03  0.17200000000E+03 0. -1.
         -6    1    1    2    0  501 -0.28021200636E+03  0.90458360516E+02  0.96050991344E+02  0.35427570680E+03  0.17200000000E+03 0.  1.
</event>
<event>
 4    1  0.3190379E-002  0.1788545E+03  0.7818608E-02  0.1168916E+00
          1   -1    0    0  502    0  0.00000000000E+00  0.00000000000E+00  0.33365778371E+03  0.33365778371E+03  0.00000000000E+00 0. -1.
         -1   -1    0    0    0  501 -0.00000000000E+00 -0.00000000000E+00 -0.45599373740E+03  0.45599373740E+03  0.00000000000E+00 0.  1.
          6    1    1    2  502    0 -0.47027931215E+02 -0.13903570882E+02  0.28970491200E+03  0.34046713738E+03  0.17200000000E+03 0. -1.
         -6    1    1    2    0  501  0.47027931215E+02  0.13903570882E+02 -0.41204086568E+03  0.44918438374E+03  0.17200000000E+03 0.  1.
</event>
<event>
 4    1  0.3190379E-002  0.2058898E+03  0.7818608E-02  0.1144863E+00
         -2   -1    0    0    0  501 -0.00000000000E+00  0.00000000000E+00  0.22162996572E+02  0.22162996572E+02  0.00000000000E+00 0.  1.
          2   -1    0    0  502    0  0.00000000000E+00 -0.00000000000E+00 -0.19506698120E+04  0.19506698120E+04  0.00000000000E+00 0. -1.
          6    1    1    2  502    0 -0.70714466458E+02  0.88351986807E+02 -0.11019206421E+04  0.11209905043E+04  0.17200000000E+03 0. -1.
         -6    1    1    2    0  501  0.70714466458E+02 -0.88351986807E+02 -0.82658617336E+03  0.85184230426E+03  0.17200000000E+03 0.  1.
</event>
<event>
 4    1  0.3190379E-002  0.2056231E+03  0.7818608E-02  0.1145080E+00
         -2   -1    0    0    0  501 -0.00000000000E+00  0.00000000000E+00  0.38368842582E+02  0.38368842582E+02  0.00000000000E+00 0.  1.
          2   -1    0    0  502    0  0.00000000000E+00 -0.00000000000E+00 -0.11040348685E+04  0.11040348685E+04  0.00000000000E+00 0. -1.
          6    1    1    2  502    0 -0.42914510672E+02  0.10418825575E+03 -0.50805783353E+03  0.54809087757E+03  0.17200000000E+03 0. -1.
         -6    1    1    2    0  501  0.42914510672E+02 -0.10418825575E+03 -0.55760819238E+03  0.59431283351E+03  0.17200000000E+03 0.  1.
</event>
<event>
 4    1  0.3190379E-002  0.2539852E+03  0.7818608E-02  0.1110812E+00
          1   -1    0    0  502    0  0.00000000000E+00  0.00000000000E+00  0.60499042809E+03  0.60499042809E+03  0.00000000000E+00 0. -1.
         -1   -1    0    0    0  501 -0.00000000000E+00 -0.00000000000E+00 -0.13319772546E+03  0.13319772546E+03  0.00000000000E+00 0.  1.
          6    1    1    2  502    0  0.14207460318E+02  0.18634015936E+03  0.40074590528E+03  0.47445314576E+03  0.17200000000E+03 0. -1.
         -6    1    1    2    0  501 -0.14207460318E+02 -0.18634015936E+03  0.71046797349E+02  0.26373500779E+03  0.17200000000E+03 0.  1.
</event>
<event>
 4    1  0.3190379E-002  0.1793738E+03  0.7818608E-02  0.1168410E+00
         -2   -1    0    0    0  501 -0.00000000000E+00  0.00000000000E+00  0.13470603811E+02  0.13470603811E+02  0.00000000000E+00 0.  1.
          2   -1    0    0  502    0  0.00000000000E+00 -0.00000000000E+00 -0.23919829109E+04  0.23919829109E+04  0.00000000000E+00 0. -1.
          6    1    1    2  502    0 -0.52170992546E+01  0.50633453128E+02 -0.12349409243E+04  0.12478998563E+04  0.17200000000E+03 0.  1.
         -6    1    1    2    0  501  0.52170992546E+01 -0.50633453128E+02 -0.11435713828E+04  0.11575536584E+04  0.17200000000E+03 0.  1.
</event>
<event>
 4    1  0.3190379E-002  0.2862460E+03  0.7818608E-02  0.1092326E+00
          1   -1    0    0  502    0  0.00000000000E+00  0.00000000000E+00  0.24706230401E+03  0.24706230401E+03  0.00000000000E+00 0. -1.
         -1   -1    0    0    0  501 -0.00000000000E+00 -0.00000000000E+00 -0.42686074115E+03  0.42686074115E+03  0.00000000000E+00 0.  1.
          6    1    1    2  502    0  0.17389994970E+03 -0.14869960393E+03  0.69245982790E+02  0.29450258207E+03  0.17200000000E+03 0. -1.
         -6    1    1    2    0  501 -0.17389994970E+03  0.14869960393E+03 -0.24904441992E+03  0.37942046309E+03  0.17200000000E+03 0.  1.
</event>
<event>
 4    1  0.3190379E-002  0.4294876E+03  0.7818608E-02  0.1034022E+00
          3   -1    0    0  502    0  0.00000000000E+00  0.00000000000E+00  0.13942365022E+03  0.13942365022E+03  0.00000000000E+00 0. -1.
         -3   -1    0    0    0  501 -0.00000000000E+00 -0.00000000000E+00 -0.13623566048E+04  0.13623566048E+04  0.00000000000E+00 0.  1.
          6    1    1    2  502    0  0.26250605223E+03 -0.29319987366E+03 -0.48386475859E+03  0.64698121918E+03  0.17200000000E+03 0. -1.
         -6    1    1    2    0  501 -0.26250605223E+03  0.29319987366E+03 -0.73906819603E+03  0.85479903589E+03  0.17200000000E+03 0.  1.
</event>
<event>
 4    1  0.3190379E-002  0.2201806E+03  0.7818608E-02  0.1133748E+00
         -1   -1    0    0    0  501 -0.00000000000E+00  0.00000000000E+00  0.24417139046E+02  0.24417139046E+02  0.00000000000E+00 0.  1.
          1   -1    0    0  502    0  0.00000000000E+00 -0.00000000000E+00 -0.23452200563E+04  0.23452200563E+04  0.00000000000E+00 0. -1.
          6    1    1    2  502    0  0.94957265502E+02 -0.99391265890E+02 -0.16244466502E+04  0.16393005903E+04  0.17200000000E+03 0. -1.
         -6    1    1    2    0  501 -0.94957265502E+02  0.99391265890E+02 -0.69635626707E+03  0.73033660506E+03  0.17200000000E+03 0.  1.
</event>
<event>
 4    1  0.3190379E-002  0.2532549E+03  0.7818608E-02  0.1111265E+00
         -2   -1    0    0    0  501 -0.00000000000E+00  0.00000000000E+00  0.79237989347E+02  0.79237989347E+02  0.00000000000E+00 0.  1.
          2   -1    0    0  502    0  0.00000000000E+00 -0.00000000000E+00 -0.15459986718E+04  0.15459986718E+04  0.00000000000E+00 0. -1.
          6    1    1    2  502    0  0.14642149638E+03 -0.11451987093E+03 -0.12942823622E+04  0.13188270881E+04  0.17200000000E+03 0. -1.
         -6    1    1    2    0  501 -0.14642149638E+03  0.11451987093E+03 -0.17247832025E+03  0.30640957295E+03  0.17200000000E+03 0.  1.
</event>
<event>
 4    1  0.3190379E-002  0.2241950E+03  0.7818608E-02  0.1130794E+00
         -2   -1    0    0    0  501 -0.00000000000E+00  0.00000000000E+00  0.93382450500E+02  0.93382450500E+02  0.00000000000E+00 0.  1.
          2   -1    0    0  502    0  0.00000000000E+00 -0.00000000000E+00 -0.65622034233E+03  0.65622034233E+03  0.00000000000E+00 0. -1.
          6    1    1    2  502    0 -0.12925973357E+03 -0.63018283824E+02 -0.44033116025E+03  0.49412034314E+03  0.17200000000E+03 0. -1.
         -6    1    1    2    0  501  0.12925973357E+03  0.63018283824E+02 -0.12250673158E+03  0.25548244969E+03  0.17200000000E+03 0.  1.
</event>
<event>
 4    1  0.3190379E-002  0.3679149E+03  0.7818608E-02  0.1055493E+00
         -1   -1    0    0    0  501 -0.00000000000E+00  0.00000000000E+00  0.10248676798E+04  0.10248676798E+04  0.00000000000E+00 0.  1.
          1   -1    0    0  502    0  0.00000000000E+00 -0.00000000000E+00 -0.14452626237E+03  0.14452626237E+03  0.00000000000E+00 0. -1.
          6    1    1    2  502    0 -0.31965448970E+03  0.59986428665E+02  0.61177601005E+03  0.71388462015E+03  0.17200000000E+03 0.  1.
         -6    1    1    2    0  501  0.31965448970E+03 -0.59986428665E+02  0.26856540737E+03  0.45550932202E+03  0.17200000000E+03 0. -1.
</event>
<event>
 4    1  0.3190379E-002  0.3740159E+03  0.7818608E-02  0.1053168E+00
          2   -1    0    0  502    0  0.00000000000E+00  0.00000000000E+00  0.18699444652E+04  0.18699444652E+04  0.00000000000E+00 0. -1.
         -2   -1    0    0    0  501 -0.00000000000E+00 -0.00000000000E+00 -0.17281692422E+03  0.17281692422E+03  0.00000000000E+00 0.  1.
          6    1    1    2  502    0 -0.30996014978E+03 -0.11928370718E+03  0.16177403054E+04  0.16604130791E+04  0.17200000000E+03 0. -1.
         -6    1    1    2    0  501  0.30996014978E+03  0.11928370718E+03  0.79387235518E+02  0.38234831034E+03  0.17200000000E+03 0.  1.
</event>
<event>
 4    1  0.3190379E-002  0.2519483E+03  0.7818608E-02  0.1112080E+00
         -1   -1    0    0    0  501 -0.00000000000E+00  0.00000000000E+00  0.24033587381E+04  0.24033587381E+04  0.00000000000E+00 0.  1.
          1   -1    0    0  502    0  0.00000000000E+00 -0.00000000000E+00 -0.27685581014E+02  0.27685581014E+02  0.00000000000E+00 0. -1.
          6    1    1    2  502    0 -0.86810631207E+02  0.16235098029E+03  0.92714928163E+03  0.96077245845E+03  0.17200000000E+03 0. -1.
         -6    1    1    2    0  501  0.86810631207E+02 -0.16235098029E+03  0.14485238755E+04  0.14702718607E+04  0.17200000000E+03 0.  1.
</event>
<event>
 4    1  0.3190379E-002  0.2782157E+03  0.7818608E-02  0.1096667E+00
         -1   -1    0    0    0  501 -0.00000000000E+00  0.00000000000E+00  0.30959840577E+02  0.30959840577E+02  0.00000000000E+00 0.  1.
          1   -1    0    0  502    0  0.00000000000E+00 -0.00000000000E+00 -0.25022955977E+04  0.25022955977E+04  0.00000000000E+00 0. -1.
          6    1    1    2  502    0  0.13847322312E+03  0.16924878458E+03 -0.12728303642E+04  0.13028818522E+04  0.17200000000E+03 0.  1.
         -6    1    1    2    0  501 -0.13847322312E+03 -0.16924878458E+03 -0.11985053929E+04  0.12303735861E+04  0.17200000000E+03 0.  1.
</event>
<event>
 4    1  0.3190379E-002  0.1856196E+03  0.7818608E-02  0.1162473E+00
         -2   -1    0    0    0  501 -0.00000000000E+00  0.00000000000E+00  0.70565878224E+02  0.70565878224E+02  0.00000000000E+00 0.  1.
          2   -1    0    0  502    0  0.00000000000E+00 -0.00000000000E+00 -0.62093600811E+03  0.62093600811E+03  0.00000000000E+00 0. -1.
          6    1    1    2  502    0 -0.65926644305E+02  0.22898267395E+02 -0.43500556999E+03  0.47295295644E+03  0.17200000000E+03 0. -1.
         -6    1    1    2    0  501  0.65926644305E+02 -0.22898267395E+02 -0.11536455989E+03  0.21854892989E+03  0.17200000000E+03 0.  1.
</event>
<event>
 4    1  0.3190379E-002  0.3571732E+03  0.7818608E-02  0.1059709E+00
         -2   -1    0    0    0  501 -0.00000000000E+00  0.00000000000E+00  0.60998244917E+03  0.60998244917E+03  0.00000000000E+00 0.  1.
          2   -1    0    0  502    0  0.00000000000E+00 -0.00000000000E+00 -0.61023946000E+03  0.61023946000E+03  0.00000000000E+00 0. -1.
          6    1    1    2  502    0  0.28841289841E+03  0.12168286829E+03 -0.49476236075E+03  0.61021513748E+03  0.17200000000E+03 0. -1.
         -6    1    1    2    0  501 -0.28841289841E+03 -0.12168286829E+03  0.49450534992E+03  0.61000677169E+03  0.17200000000E+03 0.  1.
</event>
<event>
 4    1  0.3190379E-002  0.1831480E+03  0.7818608E-02  0.1164791E+00
         -2   -1    0    0    0  501 -0.00000000000E+00  0.00000000000E+00  0.13970840234E+04  0.13970840234E+04  0.00000000000E+00 0.  1.
          2   -1    0    0  502    0  0.00000000000E+00 -0.00000000000E+00 -0.24010614526E+02  0.24010614526E+02  0.00000000000E+00 0. -1.
          6    1    1    2  502    0 -0.33843531382E+02 -0.53045311421E+02  0.69152951549E+03  0.71537141435E+03  0.17200000000E+03 0.  1.
         -6    1    1    2    0  501  0.33843531382E+02  0.53045311421E+02  0.68154389339E+03  0.70572322358E+03  0.17200000000E+03 0. -1.
</event>
<event>
 4    1  0.3190379E-002  0.3897205E+03  0.7818608E-02  0.1047398E+00
         -4   -1    0    0    0  501 -0.00000000000E+00  0.00000000000E+00  0.26601203346E+03  0.26601203346E+03  0.00000000000E+00 0.  1.
          4   -1    0    0  502    0  0.00000000000E+00 -0.00000000000E+00 -0.57367169962E+03  0.57367169962E+03  0.00000000000E+00 0. -1.
          6    1    1    2  502    0  0.26701348111E+03  0.22583598883E+03 -0.18269780425E+03  0.43041907558E+03  0.17200000000E+03 0. -1.
         -6    1    1    2    0  501 -0.26701348111E+03 -0.22583598883E+03 -0.12496186191E+03  0.40926465749E+03  0.17200000000E+03 0.  1.
</event>
<event>
 4    1  0.3190379E-002  0.2200690E+03  0.7818608E-02  0.1133832E+00
          2   -1    0    0  502    0  0.00000000000E+00  0.00000000000E+00  0.26286261292E+04  0.26286261292E+04  0.00000000000E+00 0. -1.
         -2   -1    0    0    0  501 -0.00000000000E+00 -0.00000000000E+00 -0.21423980459E+02  0.21423980459E+02  0.00000000000E+00 0.  1.
          6    1    1    2  502    0 -0.12083775203E+03 -0.65150703392E+02  0.80778847111E+03  0.83722911472E+03  0.17200000000E+03 0.  1.
         -6    1    1    2    0  501  0.12083775203E+03  0.65150703392E+02  0.17994136776E+04  0.18128209949E+04  0.17200000000E+03 0.  1.
</event>
<event>
 4    1  0.3190379E-002  0.4200515E+03  0.7818608E-02  0.1037050E+00
          2   -1    0    0  502    0  0.00000000000E+00  0.00000000000E+00  0.22025153299E+04  0.22025153299E+04  0.00000000000E+00 0. -1.
         -2   -1    0    0    0  501 -0.00000000000E+00 -0.00000000000E+00 -0.16820501943E+03  0.16820501943E+03  0.00000000000E+00 0.  1.
          6    1    1    2  502    0 -0.35995820604E+03  0.13148898712E+03  0.18749961602E+04  0.19214717964E+04  0.17200000000E+03 0. -1.
         -6    1    1    2    0  501  0.35995820604E+03 -0.13148898712E+03  0.15931415035E+03  0.44924855296E+03  0.17200000000E+03 0.  1.
</event>
<event>
 4    1  0.3190379E-002  0.2019088E+03  0.7818608E-02  0.1148138E+00
         -1   -1    0    0    0  501 -0.00000000000E+00  0.00000000000E+00  0.26483815071E+02  0.26483815071E+02  0.00000000000E+00 0.  1.
          1   -1    0    0  502    0  0.00000000000E+00 -0.00000000000E+00 -0.17996718889E+04  0.17996718889E+04  0.00000000000E+00 0. -1.
          6    1    1    2  502    0  0.93211824971E+02  0.49947126544E+02 -0.12338810654E+04  0.12502918232E+04  0.17200000000E+03 0. -1.
         -6    1    1    2    0  501 -0.93211824971E+02 -0.49947126544E+02 -0.53930700845E+03  0.57586388073E+03  0.17200000000E+03 0.  1.
</event>
<event>
 4    1  0.3190379E-002  0.3925335E+03  0.7818608E-02  0.1046396E+00
         -3   -1    0    0    0  501 -0.00000000000E+00  0.00000000000E+00  0.16934479448E+03  0.16934479448E+03  0.00000000000E+00 0.  1.
          3   -1    0    0  502    0  0.00000000000E+00 -0.00000000000E+00 -0.91770769281E+03  0.91770769281E+03  0.00000000000E+00 0. -1.
          6    1    1    2  502    0 -0.69717680228E+02  0.34588730627E+03 -0.42439555452E+03  0.57809529515E+03  0.17200000000E+03 0. -1.
         -6    1    1    2    0  501  0.69717680228E+02 -0.34588730627E+03 -0.32396734381E+03  0.50895719214E+03  0.17200000000E+03 0.  1.
</event>
<event>
 4    1  0.3190379E-002  0.1763510E+03  0.7818608E-02  0.1171382E+00
         -1   -1    0    0    0  501 -0.00000000000E+00  0.00000000000E+00  0.21119268131E+03  0.21119268131E+03  0.00000000000E+00 0.  1.
          1   -1    0    0  502    0  0.00000000000E+00 -0.00000000000E+00 -0.27709827395E+03  0.27709827395E+03  0.00000000000E+00 0. -1.
          6    1    1    2  502    0  0.24343972576E+01 -0.38855627693E+02  0.13417068794E+03  0.22158849157E+03  0.17200000000E+03 0.  1.
         -6    1    1    2    0  501 -0.24343972576E+01  0.38855627693E+02 -0.20007628058E+03  0.26670246370E+03  0.17200000000E+03 0. -1.
</event>
<event>
 4    1  0.3190379E-002  0.3995242E+03  0.7818608E-02  0.1043945E+00
          2   -1    0    0  502    0  0.00000000000E+00  0.00000000000E+00  0.31472593688E+04  0.31472593688E+04  0.00000000000E+00 0. -1.
         -2   -1    0    0    0  501 -0.00000000000E+00 -0.00000000000E+00 -0.66858891462E+02  0.66858891462E+02  0.00000000000E+00 0.  1.
          6    1    1    2  502    0  0.25300905530E+03  0.25694751331E+03  0.23298404471E+04  0.23638477353E+04  0.17200000000E+03 0. -1.
         -6    1    1    2    0  501 -0.25300905530E+03 -0.25694751331E+03  0.75056003024E+03  0.85027052498E+03  0.17200000000E+03 0.  1.
</event>
<event>
 4    1  0.3190379E-002  0.1836145E+03  0.7818608E-02  0.1164350E+00
         -1   -1    0    0    0  501 -0.00000000000E+00  0.00000000000E+00  0.17919331351E+03  0.17919331351E+03  0.00000000000E+00 0.  1.
          1   -1    0    0  502    0  0.00000000000E+00 -0.00000000000E+00 -0.19180986057E+03  0.19180986057E+03  0.00000000000E+00 0. -1.
          6    1    1    2  502    0  0.35561967194E+02 -0.53531706304E+02 -0.31950187691E+02  0.18637358070E+03  0.17200000000E+03 0. -1.
         -6    1    1    2    0  501 -0.35561967194E+02  0.53531706304E+02  0.19333640632E+02  0.18462959338E+03  0.17200000000E+03 0.  1.
</event>
<event>
 4    1  0.3190379E-002  0.1724481E+03  0.7818608E-02  0.1175319E+00
         -1   -1    0    0    0  501 -0.00000000000E+00  0.00000000000E+00  0.70560843048E+02  0.70560843048E+02  0.00000000000E+00 0.  1.
          1   -1    0    0  502    0  0.00000000000E+00 -0.00000000000E+00 -0.51587921542E+03  0.51587921542E+03  0.00000000000E+00 0. -1.
          6    1    1    2  502    0 -0.12295194114E+02  0.17867604606E+01 -0.97213246251E+02  0.19796156081E+03  0.17200000000E+03 0.  1.
         -6    1    1    2    0  501  0.12295194114E+02 -0.17867604606E+01 -0.34810512612E+03  0.38847849766E+03  0.17200000000E+03 0. -1.
</event>
<event>
 4    1  0.3190379E-002  0.2422605E+03  0.7818608E-02  0.1118296E+00
         -2   -1    0    0    0  501 -0.00000000000E+00  0.00000000000E+00  0.11096645578E+03  0.11096645578E+03  0.00000000000E+00 0.  1.
          2   -1    0    0  502    0  0.00000000000E+00 -0.00000000000E+00 -0.84282593911E+03  0.84282593911E+03  0.00000000000E+00 0. -1.
          6    1    1    2  502    0 -0.23931141933E+02 -0.16891848607E+03 -0.65698036839E+03  0.70022379204E+03  0.17200000000E+03 0. -1.
         -6    1    1    2    0  501  0.23931141933E+02  0.16891848607E+03 -0.74879114940E+02  0.25356860284E+03  0.17200000000E+03 0.  1.
</event>
<event>
 4    1  0.3190379E-002  0.2077763E+03  0.7818608E-02  0.1143339E+00
          1   -1    0    0  502    0  0.00000000000E+00  0.00000000000E+00  0.87837775536E+03  0.87837775536E+03  0.00000000000E+00 0. -1.
         -1   -1    0    0    0  501 -0.00000000000E+00 -0.00000000000E+00 -0.52633634454E+02  0.52633634454E+02  0.00000000000E+00 0.  1.
          6    1    1    2  502    0  0.95150239153E+02 -0.67330705347E+02  0.53265640268E+03  0.57174630318E+03  0.17200000000E+03 0. -1.
         -6    1    1    2    0  501 -0.95150239153E+02  0.67330705347E+02  0.29308771823E+03  0.35926508663E+03  0.17200000000E+03 0.  1.
</event>
<event>
 4    1  0.3190379E-002  0.2023138E+03  0.7818608E-02  0.1147801E+00
          2   -1    0    0  502    0  0.00000000000E+00  0.00000000000E+00  0.60223107530E+03  0.60223107530E+03  0.00000000000E+00 0. -1.
         -2   -1    0    0    0  501 -0.00000000000E+00 -0.00000000000E+00 -0.74191831851E+02  0.74191831851E+02  0.00000000000E+00 0.  1.
          6    1    1    2  502    0 -0.85661993567E+02  0.63315962188E+02  0.36199775752E+03  0.41469659350E+03  0.17200000000E+03 0. -1.
         -6    1    1    2    0  501  0.85661993567E+02 -0.63315962188E+02  0.16604148594E+03  0.26172631366E+03  0.17200000000E+03 0.  1.
</event>
<event>
 4    1  0.3190379E-002  0.2255449E+03  0.7818608E-02  0.1129815E+00
          1   -1    0    0  502    0  0.00000000000E+00  0.00000000000E+00  0.56354303763E+03  0.56354303763E+03  0.00000000000E+00 0. -1.
         -1   -1    0    0    0  501 -0.00000000000E+00 -0.00000000000E+00 -0.93014295033E+02  0.93014295033E+02  0.00000000000E+00 0.  1.
          6    1    1    2  502    0 -0.48299332596E+02 -0.13767233402E+03  0.29166163398E+03  0.36869635992E+03  0.17200000000E+03 0. -1.
         -6    1    1    2    0  501  0.48299332596E+02  0.13767233402E+03  0.17886710862E+03  0.28786097274E+03  0.17200000000E+03 0. -1.
</event>
<event>
 4    1  0.3190379E-002  0.2470105E+03  0.7818608E-02  0.1115209E+00
         -2   -1    0    0    0  501 -0.00000000000E+00  0.00000000000E+00  0.40433859484E+02  0.40433859484E+02  0.00000000000E+00 0.  1.
          2   -1    0    0  502    0  0.00000000000E+00 -0.00000000000E+00 -0.15533677620E+04  0.15533677620E+04  0.00000000000E+00 0. -1.
          6    1    1    2  502    0  0.19589828327E+00  0.17728552829E+03 -0.89116491851E+03  0.92476435317E+03  0.17200000000E+03 0. -1.
         -6    1    1    2    0  501 -0.19589828327E+00 -0.17728552829E+03 -0.62176898398E+03  0.66903726828E+03  0.17200000000E+03 0.  1.
</event>
<event>
 4    1  0.3190379E-002  0.1900093E+03  0.7818608E-02  0.1158453E+00
          2   -1    0    0  502    0  0.00000000000E+00  0.00000000000E+00  0.18940120687E+03  0.18940120687E+03  0.00000000000E+00 0. -1.
         -2   -1    0    0    0  501 -0.00000000000E+00 -0.00000000000E+00 -0.24389216066E+03  0.24389216066E+03  0.00000000000E+00 0.  1.
          6    1    1    2  502    0  0.59605628805E+02 -0.54467350408E+02  0.74007122665E+02  0.20391316154E+03  0.17200000000E+03 0. -1.
         -6    1    1    2    0  501 -0.59605628805E+02  0.54467350408E+02 -0.12849807646E+03  0.22938020599E+03  0.17200000000E+03 0. -1.
</event>
<event>
 4    1  0.3190379E-002  0.4003528E+03  0.7818608E-02  0.1043658E+00
         -2   -1    0    0    0  501 -0.00000000000E+00  0.00000000000E+00  0.14375541226E+03  0.14375541226E+03  0.00000000000E+00 0.  1.
          2   -1    0    0  502    0  0.00000000000E+00 -0.00000000000E+00 -0.15422810393E+04  0.15422810393E+04  0.00000000000E+00 0. -1.
          6    1    1    2  502    0 -0.32646266064E+03  0.15530780582E+03 -0.11430035926E+04  0.12110902510E+04  0.17200000000E+03 0. -1.
         -6    1    1    2    0  501  0.32646266064E+03 -0.15530780582E+03 -0.25552203442E+03  0.47494620055E+03  0.17200000000E+03 0.  1.
</event>
<event>
 4    1  0.3190379E-002  0.1771807E+03  0.7818608E-02  0.1170560E+00
          2   -1    0    0  502    0  0.00000000000E+00  0.00000000000E+00  0.25008174068E+03  0.25008174068E+03  0.00000000000E+00 0. -1.
         -2   -1    0    0    0  501 -0.00000000000E+00 -0.00000000000E+00 -0.14076955699E+03  0.14076955699E+03  0.00000000000E+00 0.  1.
          6    1    1    2  502    0  0.42531925932E+02 -0.21012498733E+00 -0.96421699823E+01  0.17744289312E+03  0.17200000000E+03 0.  1.
         -6    1    1    2    0  501 -0.42531925932E+02  0.21012498733E+00  0.11895435367E+03  0.21340840455E+03  0.17200000000E+03 0. -1.
</event>
<event>
 4    1  0.3190379E-002  0.1827488E+03  0.7818608E-02  0.1165169E+00
         -1   -1    0    0    0  501 -0.00000000000E+00  0.00000000000E+00  0.41380449929E+02  0.41380449929E+02  0.00000000000E+00 0.  1.
          1   -1    0    0  502    0  0.00000000000E+00 -0.00000000000E+00 -0.12204330348E+04  0.12204330348E+04  0.00000000000E+00 0. -1.
          6    1    1    2  502    0  0.96286462290E+00 -0.61743108675E+02 -0.95669970973E+03  0.97399767617E+03  0.17200000000E+03 0. -1.
         -6    1    1    2    0  501 -0.96286462290E+00  0.61743108675E+02 -0.22235287515E+03  0.28781580858E+03  0.17200000000E+03 0.  1.
</event>
<event>
 4    1  0.3190379E-002  0.2720084E+03  0.7818608E-02  0.1100136E+00
          1   -1    0    0  502    0  0.00000000000E+00  0.00000000000E+00  0.19346738738E+04  0.19346738738E+04  0.00000000000E+00 0. -1.
         -1   -1    0    0    0  501 -0.00000000000E+00 -0.00000000000E+00 -0.55699919834E+02  0.55699919834E+02  0.00000000000E+00 0.  1.
          6    1    1    2  502    0  0.16313706004E+03 -0.13338250138E+03  0.14966158285E+04  0.15211336332E+04  0.17200000000E+03 0. -1.
         -6    1    1    2    0  501 -0.16313706004E+03  0.13338250138E+03  0.38235812551E+03  0.46924016045E+03  0.17200000000E+03 0.  1.
</event>
<event>
 4    1  0.3190379E-002  0.1783825E+03  0.7818608E-02  0.1169378E+00
         -1   -1    0    0    0  501 -0.00000000000E+00  0.00000000000E+00  0.17801681599E+03  0.17801681599E+03  0.00000000000E+00 0.  1.
          1   -1    0    0  502    0  0.00000000000E+00 -0.00000000000E+00 -0.19016439769E+03  0.19016439769E+03  0.00000000000E+00 0. -1.
          6    1    1    2  502    0 -0.37235376492E+02  0.29151964124E+02 -0.51177724886E+02  0.18557874285E+03  0.17200000000E+03 0. -1.
         -6    1    1    2    0  501  0.37235376492E+02 -0.29151964124E+02  0.39030143193E+02  0.18260247083E+03  0.17200000000E+03 0.  1.
</event>
<event>
 4    1  0.3190379E-002  0.2010596E+03  0.7818608E-02  0.1148848E+00
         -3   -1    0    0    0  501 -0.00000000000E+00  0.00000000000E+00  0.16271269133E+04  0.16271269133E+04  0.00000000000E+00 0.  1.
          3   -1    0    0  502    0  0.00000000000E+00 -0.00000000000E+00 -0.27925277541E+02  0.27925277541E+02  0.00000000000E+00 0. -1.
          6    1    1    2  502    0  0.93221487642E+02 -0.46375901381E+02  0.52473475897E+03  0.56193552767E+03  0.17200000000E+03 0.  1.
         -6    1    1    2    0  501 -0.93221487642E+02  0.46375901381E+02  0.10744668768E+04  0.10931166632E+04  0.17200000000E+03 0.  1.
</event>
<event>
 4    1  0.3190379E-002  0.2101813E+03  0.7818608E-02  0.1141423E+00
          2   -1    0    0  502    0  0.00000000000E+00  0.00000000000E+00  0.12175760810E+03  0.12175760810E+03  0.00000000000E+00 0. -1.
         -2   -1    0    0    0  501 -0.00000000000E+00 -0.00000000000E+00 -0.36805123159E+03  0.36805123159E+03  0.00000000000E+00 0.  1.
          6    1    1    2  502    0 -0.44074396692E+02 -0.11247049035E+03 -0.93950957767E+02  0.23022368711E+03  0.17200000000E+03 0. -1.
         -6    1    1    2    0  501  0.44074396692E+02  0.11247049035E+03 -0.15234266573E+03  0.25958515258E+03  0.17200000000E+03 0.  1.
</event>
<event>
 4    1  0.3190379E-002  0.3565392E+03  0.7818608E-02  0.1059963E+00
         -1   -1    0    0    0  501 -0.00000000000E+00  0.00000000000E+00  0.22200404793E+03  0.22200404793E+03  0.00000000000E+00 0.  1.
          1   -1    0    0  502    0  0.00000000000E+00 -0.00000000000E+00 -0.12118846156E+04  0.12118846156E+04  0.00000000000E+00 0. -1.
          6    1    1    2  502    0 -0.21562860331E+03  0.22592145139E+03 -0.10156562416E+04  0.10764189695E+04  0.17200000000E+03 0. -1.
         -6    1    1    2    0  501  0.21562860331E+03 -0.22592145139E+03  0.25775673972E+02  0.35746969400E+03  0.17200000000E+03 0.  1.
</event>
<event>
 4    1  0.3190379E-002  0.2356452E+03  0.7818608E-02  0.1122728E+00
         -2   -1    0    0    0  501 -0.00000000000E+00  0.00000000000E+00  0.48479653376E+02  0.48479653376E+02  0.00000000000E+00 0.  1.
          2   -1    0    0  502    0  0.00000000000E+00 -0.00000000000E+00 -0.13167731116E+04  0.13167731116E+04  0.00000000000E+00 0. -1.
          6    1    1    2  502    0 -0.16035891380E+03  0.15155459933E+02 -0.88040849836E+03  0.91139881127E+03  0.17200000000E+03 0. -1.
         -6    1    1    2    0  501  0.16035891380E+03 -0.15155459933E+02 -0.38788495984E+03  0.45385395368E+03  0.17200000000E+03 0.  1.
</event>
<event>
 4    1  0.3190379E-002  0.2493998E+03  0.7818608E-02  0.1113685E+00
         -2   -1    0    0    0  501 -0.00000000000E+00  0.00000000000E+00  0.83807617576E+02  0.83807617576E+02  0.00000000000E+00 0.  1.
          2   -1    0    0  502    0  0.00000000000E+00 -0.00000000000E+00 -0.74217991145E+03  0.74217991145E+03  0.00000000000E+00 0. -1.
          6    1    1    2  502    0 -0.18055634706E+03  0.39604784272E+01 -0.32881461045E+03  0.41269762284E+03  0.17200000000E+03 0.  1.
         -6    1    1    2    0  501  0.18055634706E+03 -0.39604784272E+01 -0.32955768342E+03  0.41328990618E+03  0.17200000000E+03 0. -1.
</event>
<event>
 4    1  0.3190379E-002  0.3379614E+03  0.7818608E-02  0.1067668E+00
         -2   -1    0    0    0  501 -0.00000000000E+00  0.00000000000E+00  0.11003096984E+03  0.11003096984E+03  0.00000000000E+00 0.  1.
          2   -1    0    0  502    0  0.00000000000E+00 -0.00000000000E+00 -0.12274458511E+04  0.12274458511E+04  0.00000000000E+00 0. -1.
          6    1    1    2  502    0  0.28163597277E+03  0.72904554778E+02 -0.82139394062E+03  0.88820374968E+03  0.17200000000E+03 0. -1.
         -6    1    1    2    0  501 -0.28163597277E+03 -0.72904554778E+02 -0.29602094067E+03  0.44927307129E+03  0.17200000000E+03 0.  1.
</event>
<event>
 4    1  0.3190379E-002  0.2472375E+03  0.7818608E-02  0.1115063E+00
         -2   -1    0    0    0  501 -0.00000000000E+00  0.00000000000E+00  0.39015179441E+02  0.39015179441E+02  0.00000000000E+00 0.  1.
          2   -1    0    0  502    0  0.00000000000E+00 -0.00000000000E+00 -0.15697588266E+04  0.15697588266E+04  0.00000000000E+00 0. -1.
          6    1    1    2  502    0  0.16248637232E+03  0.71697623235E+02 -0.80068756450E+03  0.83798982470E+03  0.17200000000E+03 0.  1.
         -6    1    1    2    0  501 -0.16248637232E+03 -0.71697623235E+02 -0.73005608266E+03  0.77078418134E+03  0.17200000000E+03 0.  1.
</event>
<event>
 4    1  0.3190379E-002  0.1962686E+03  0.7818608E-02  0.1152926E+00
         -1   -1    0    0    0  501 -0.00000000000E+00  0.00000000000E+00  0.63041303721E+02  0.63041303721E+02  0.00000000000E+00 0.  1.
          1   -1    0    0  502    0  0.00000000000E+00 -0.00000000000E+00 -0.13640805135E+04  0.13640805135E+04  0.00000000000E+00 0. -1.
          6    1    1    2  502    0 -0.14801456696E+02 -0.93371779869E+02 -0.11806923635E+04  0.11968942433E+04  0.17200000000E+03 0. -1.
         -6    1    1    2    0  501  0.14801456696E+02  0.93371779869E+02 -0.12034684632E+03  0.23022757397E+03  0.17200000000E+03 0.  1.
</event>
<event>
 4    1  0.3190379E-002  0.3529699E+03  0.7818608E-02  0.1061403E+00
         -2   -1    0    0    0  501 -0.00000000000E+00  0.00000000000E+00  0.82040077102E+02  0.82040077102E+02  0.00000000000E+00 0.  1.
          2   -1    0    0  502    0  0.00000000000E+00 -0.00000000000E+00 -0.20196378818E+04  0.20196378818E+04  0.00000000000E+00 0. -1.
          6    1    1    2  502    0 -0.29602941355E+03 -0.85850799051E+02 -0.14921891854E+04  0.15333676462E+04  0.17200000000E+03 0. -1.
         -6    1    1    2    0  501  0.29602941355E+03  0.85850799051E+02 -0.44540861933E+03  0.56831031273E+03  0.17200000000E+03 0.  1.
</event>
<event>
 4    1  0.3190379E-002  0.2220919E+03  0.7818608E-02  0.1132333E+00
         -1   -1    0    0    0  501 -0.00000000000E+00  0.00000000000E+00  0.74709171624E+02  0.74709171624E+02  0.00000000000E+00 0.  1.
          1   -1    0    0  502    0  0.00000000000E+00 -0.00000000000E+00 -0.14272935435E+04  0.14272935435E+04  0.00000000000E+00 0. -1.
          6    1    1    2  502    0 -0.13233426474E+03 -0.47206504725E+02 -0.12268479981E+04  0.12467882026E+04  0.17200000000E+03 0. -1.
         -6    1    1    2    0  501  0.13233426474E+03  0.47206504725E+02 -0.12573637378E+03  0.25521451252E+03  0.17200000000E+03 0.  1.
</event>
<event>
 4    1  0.3190379E-002  0.2112786E+03  0.7818608E-02  0.1140557E+00
          2   -1    0    0  502    0  0.00000000000E+00  0.00000000000E+00  0.12290778410E+04  0.12290778410E+04  0.00000000000E+00 0. -1.
         -2   -1    0    0    0  501 -0.00000000000E+00 -0.00000000000E+00 -0.47042273232E+02  0.47042273232E+02  0.00000000000E+00 0.  1.
          6    1    1    2  502    0 -0.10962237501E+03 -0.55114205530E+02  0.89565643588E+03  0.92023860595E+03  0.17200000000E+03 0. -1.
         -6    1    1    2    0  501  0.10962237501E+03  0.55114205530E+02  0.28637913189E+03  0.35588150828E+03  0.17200000000E+03 0.  1.
</event>
<event>
 4    1  0.3190379E-002  0.3945317E+03  0.7818608E-02  0.1045690E+00
          2   -1    0    0  502    0  0.00000000000E+00  0.00000000000E+00  0.12546347405E+04  0.12546347405E+04  0.00000000000E+00 0. -1.
         -2   -1    0    0    0  501 -0.00000000000E+00 -0.00000000000E+00 -0.14454414274E+03  0.14454414274E+03  0.00000000000E+00 0.  1.
          6    1    1    2  502    0  0.83222726861E+02 -0.34517424199E+03  0.29171116205E+03  0.49066351165E+03  0.17200000000E+03 0. -1.
         -6    1    1    2    0  501 -0.83222726861E+02  0.34517424199E+03  0.81837943569E+03  0.90851537156E+03  0.17200000000E+03 0.  1.
</event>
<event>
 4    1  0.3190379E-002  0.2697806E+03  0.7818608E-02  0.1101405E+00
          2   -1    0    0  502    0  0.00000000000E+00  0.00000000000E+00  0.71634915739E+03  0.71634915739E+03  0.00000000000E+00 0. -1.
         -2   -1    0    0    0  501 -0.00000000000E+00 -0.00000000000E+00 -0.10660896900E+03  0.10660896900E+03  0.00000000000E+00 0.  1.
          6    1    1    2  502    0 -0.56421676578E+01 -0.20776371551E+03  0.21568474815E+03  0.34540050104E+03  0.17200000000E+03 0.  1.
         -6    1    1    2    0  501  0.56421676578E+01  0.20776371551E+03  0.39405544025E+03  0.47755762535E+03  0.17200000000E+03 0.  1.
</event>
<event>
 4    1  0.3190379E-002  0.2407922E+03  0.7818608E-02  0.1119266E+00
          2   -1    0    0  502    0  0.00000000000E+00  0.00000000000E+00  0.31655036996E+04  0.31655036996E+04  0.00000000000E+00 0. -1.
         -2   -1    0    0    0  501 -0.00000000000E+00 -0.00000000000E+00 -0.33700717684E+02  0.33700717684E+02  0.00000000000E+00 0.  1.
          6    1    1    2  502    0 -0.13054554203E+03  0.10655868722E+03  0.26466642688E+04  0.26575952747E+04  0.17200000000E+03 0. -1.
         -6    1    1    2    0  501  0.13054554203E+03 -0.10655868722E+03  0.48513871311E+03  0.54160914258E+03  0.17200000000E+03 0.  1.
</event>
<event>
 4    1  0.3190379E-002  0.1971434E+03  0.7818608E-02  0.1152172E+00
         -2   -1    0    0    0  501 -0.00000000000E+00  0.00000000000E+00  0.37108460905E+03  0.37108460905E+03  0.00000000000E+00 0.  1.
          2   -1    0    0  502    0  0.00000000000E+00 -0.00000000000E+00 -0.28185445129E+03  0.28185445129E+03  0.00000000000E+00 0. -1.
          6    1    1    2  502    0  0.94220176605E+02 -0.20101721258E+02 -0.21418441284E+03  0.29110218753E+03  0.17200000000E+03 0. -1.
         -6    1    1    2    0  501 -0.94220176605E+02  0.20101721258E+02  0.30341457060E+03  0.36183687282E+03  0.17200000000E+03 0.  1.
</event>
<event>
 4    1  0.3190379E-002  0.1860256E+03  0.7818608E-02  0.1162096E+00
         -2   -1    0    0    0  501 -0.00000000000E+00  0.00000000000E+00  0.33969006661E+02  0.33969006661E+02  0.00000000000E+00 0.  1.
          2   -1    0    0  502    0  0.00000000000E+00 -0.00000000000E+00 -0.10425506805E+04  0.10425506805E+04  0.00000000000E+00 0. -1.
          6    1    1    2  502    0  0.57784813594E+02 -0.41017691259E+02 -0.58563806609E+03  0.61447333558E+03  0.17200000000E+03 0.  1.
         -6    1    1    2    0  501 -0.57784813594E+02  0.41017691259E+02 -0.42294360775E+03  0.46204635159E+03  0.17200000000E+03 0.  1.
</event>
<event>
 4    1  0.3190379E-002  0.1900303E+03  0.7818608E-02  0.1158434E+00
         -2   -1    0    0    0  501 -0.00000000000E+00  0.00000000000E+00  0.55507715012E+02  0.55507715012E+02  0.00000000000E+00 0.  1.
          2   -1    0    0  502    0  0.00000000000E+00 -0.00000000000E+00 -0.71410880633E+03  0.71410880633E+03  0.00000000000E+00 0. -1.
          6    1    1    2  502    0 -0.52613949502E+02  0.61312961859E+02 -0.44408703658E+03  0.48303706176E+03  0.17200000000E+03 0.  1.
         -6    1    1    2    0  501  0.52613949502E+02 -0.61312961859E+02 -0.21451405473E+03  0.28657945958E+03  0.17200000000E+03 0. -1.
</event>
<event>
 4    1  0.3190379E-002  0.2018789E+03  0.7818608E-02  0.1148163E+00
          2   -1    0    0  502    0  0.00000000000E+00  0.00000000000E+00  0.10606814962E+04  0.10606814962E+04  0.00000000000E+00 0. -1.
         -2   -1    0    0    0  501 -0.00000000000E+00 -0.00000000000E+00 -0.46449821696E+02  0.46449821696E+02  0.00000000000E+00 0.  1.
          6    1    1    2  502    0 -0.15590181116E+02 -0.10453717790E+03  0.73722605858E+03  0.76436727871E+03  0.17200000000E+03 0. -1.
         -6    1    1    2    0  501  0.15590181116E+02  0.10453717790E+03  0.27700561596E+03  0.34276403922E+03  0.17200000000E+03 0.  1.
</event>
<event>
 4    1  0.3190379E-002  0.1820631E+03  0.7818608E-02  0.1165821E+00
          2   -1    0    0  502    0  0.00000000000E+00  0.00000000000E+00  0.18738556194E+03  0.18738556194E+03  0.00000000000E+00 0. -1.
         -2   -1    0    0    0  501 -0.00000000000E+00 -0.00000000000E+00 -0.20173199012E+03  0.20173199012E+03  0.00000000000E+00 0.  1.
          6    1    1    2  502    0  0.59631249911E+02  0.26608261295E+01  0.61098538957E+02  0.19204165544E+03  0.17200000000E+03 0. -1.
         -6    1    1    2    0  501 -0.59631249911E+02 -0.26608261295E+01 -0.75444967140E+02  0.19707589662E+03  0.17200000000E+03 0.  1.
</event>
<event>
 4    1  0.3190379E-002  0.3174898E+03  0.7818608E-02  0.1076810E+00
          1   -1    0    0  502    0  0.00000000000E+00  0.00000000000E+00  0.99630029884E+03  0.99630029884E+03  0.00000000000E+00 0. -1.
         -1   -1    0    0    0  501 -0.00000000000E+00 -0.00000000000E+00 -0.11390258334E+03  0.11390258334E+03  0.00000000000E+00 0.  1.
          6    1    1    2  502    0  0.22864785222E+03  0.13760780797E+03  0.62676320116E+03  0.70258939607E+03  0.17200000000E+03 0. -1.
         -6    1    1    2    0  501 -0.22864785222E+03 -0.13760780797E+03  0.25563451434E+03  0.40761348612E+03  0.17200000000E+03 0.  1.
</event>
<event>
 4    1  0.3190379E-002  0.3657850E+03  0.7818608E-02  0.1056316E+00
          1   -1    0    0  502    0  0.00000000000E+00  0.00000000000E+00  0.95665285957E+03  0.95665285957E+03  0.00000000000E+00 0. -1.
         -1   -1    0    0    0  501 -0.00000000000E+00 -0.00000000000E+00 -0.14759741921E+03  0.14759741921E+03  0.00000000000E+00 0.  1.
          6    1    1    2  502    0  0.60509804541E+02  0.31710123601E+03  0.53093210238E+03  0.64473834046E+03  0.17200000000E+03 0. -1.
         -6    1    1    2    0  501 -0.60509804541E+02 -0.31710123601E+03  0.27812333799E+03  0.45951193832E+03  0.17200000000E+03 0. -1.
</event>
<event>
 4    1  0.3190379E-002  0.2296706E+03  0.7818608E-02  0.1126872E+00
          2   -1    0    0  502    0  0.00000000000E+00  0.00000000000E+00  0.70556346100E+03  0.70556346100E+03  0.00000000000E+00 0. -1.
         -2   -1    0    0    0  501 -0.00000000000E+00 -0.00000000000E+00 -0.79098948878E+02  0.79098948878E+02  0.00000000000E+00 0.  1.
          6    1    1    2  502    0  0.23402296247E+01 -0.15218120000E+03  0.40511040488E+03  0.46568555319E+03  0.17200000000E+03 0. -1.
         -6    1    1    2    0  501 -0.23402296247E+01  0.15218120000E+03  0.22135410724E+03  0.31897685669E+03  0.17200000000E+03 0.  1.
</event>
<event>
 4    1  0.3190379E-002  0.2493187E+03  0.7818608E-02  0.1113736E+00
         -2   -1    0    0    0  501 -0.00000000000E+00  0.00000000000E+00  0.44143946663E+02  0.44143946663E+02  0.00000000000E+00 0.  1.
          2   -1    0    0  502    0  0.00000000000E+00 -0.00000000000E+00 -0.24688307555E+04  0.24688307555E+04  0.00000000000E+00 0. -1.
          6    1    1    2  502    0 -0.11809310484E+03  0.13649106090E+03 -0.20359347924E+04  0.20511436493E+04  0.17200000000E+03 0. -1.
         -6    1    1    2    0  501  0.11809310484E+03 -0.13649106090E+03 -0.38875201644E+03  0.46183105287E+03  0.17200000000E+03 0.  1.
</event>
<event>
 4    1  0.3190379E-002  0.1725088E+03  0.7818608E-02  0.1175257E+00
         -1   -1    0    0    0  501 -0.00000000000E+00  0.00000000000E+00  0.96348695266E+02  0.96348695266E+02  0.00000000000E+00 0.  1.
          1   -1    0    0  502    0  0.00000000000E+00 -0.00000000000E+00 -0.38078523639E+03  0.38078523639E+03  0.00000000000E+00 0. -1.
          6    1    1    2  502    0  0.12665542567E+02  0.38571676452E+01 -0.38542218869E+02  0.17676197653E+03  0.17200000000E+03 0.  1.
         -6    1    1    2    0  501 -0.12665542567E+02 -0.38571676452E+01 -0.24589432226E+03  0.30037195513E+03  0.17200000000E+03 0. -1.
</event>
<event>
 4    1  0.3190379E-002  0.2242013E+03  0.7818608E-02  0.1130789E+00
         -2   -1    0    0    0  501 -0.00000000000E+00  0.00000000000E+00  0.66102489675E+02  0.66102489675E+02  0.00000000000E+00 0.  1.
          2   -1    0    0  502    0  0.00000000000E+00 -0.00000000000E+00 -0.11451811859E+04  0.11451811859E+04  0.00000000000E+00 0. -1.
          6    1    1    2  502    0 -0.61753805618E+02  0.12987944628E+03 -0.89058994519E+03  0.91837718479E+03  0.17200000000E+03 0. -1.
         -6    1    1    2    0  501  0.61753805618E+02 -0.12987944628E+03 -0.18848875102E+03  0.29290649077E+03  0.17200000000E+03 0.  1.
</event>
<event>
 4    1  0.3190379E-002  0.1988486E+03  0.7818608E-02  0.1150714E+00
          2   -1    0    0  502    0  0.00000000000E+00  0.00000000000E+00  0.77218716333E+03  0.77218716333E+03  0.00000000000E+00 0. -1.
         -2   -1    0    0    0  501 -0.00000000000E+00 -0.00000000000E+00 -0.51850969269E+02  0.51850969269E+02  0.00000000000E+00 0.  1.
          6    1    1    2  502    0  0.44852185211E+02 -0.89134915017E+02  0.40611425564E+03  0.45218308265E+03  0.17200000000E+03 0.  1.
         -6    1    1    2    0  501 -0.44852185211E+02  0.89134915017E+02  0.31422193842E+03  0.37185504995E+03  0.17200000000E+03 0.  1.
</event>
<event>
 4    1  0.3190379E-002  0.1766060E+03  0.7818608E-02  0.1171129E+00
          4   -1    0    0  502    0  0.00000000000E+00  0.00000000000E+00  0.84055796946E+03  0.84055796946E+03  0.00000000000E+00 0. -1.
         -4   -1    0    0    0  501 -0.00000000000E+00 -0.00000000000E+00 -0.54545398822E+02  0.54545398822E+02  0.00000000000E+00 0.  1.
          6    1    1    2  502    0  0.64078724295E+01  0.39555477656E+02  0.64607041538E+03  0.66977360225E+03  0.17200000000E+03 0. -1.
         -6    1    1    2    0  501 -0.64078724295E+01 -0.39555477656E+02  0.13994215526E+03  0.22532976603E+03  0.17200000000E+03 0.  1.
</event>
<event>
 4    1  0.3190379E-002  0.1702243E+04  0.7818608E-02  0.8760086E-01
         -2   -1    0    0    0  501 -0.00000000000E+00  0.00000000000E+00  0.92102532761E+03  0.92102532761E+03  0.00000000000E+00 0.  1.
          2   -1    0    0  502    0  0.00000000000E+00 -0.00000000000E+00 -0.38240918108E+04  0.38240918108E+04  0.00000000000E+00 0. -1.
          6    1    1    2  502    0 -0.17506836915E+03 -0.16844581752E+04 -0.24505365478E+04  0.29837495958E+04  0.17200000000E+03 0. -1.
         -6    1    1    2    0  501  0.17506836915E+03  0.16844581752E+04 -0.45252993537E+03  0.17613675427E+04  0.17200000000E+03 0.  1.
</event>
<event>
 4    1  0.3190379E-002  0.1948355E+03  0.7818608E-02  0.1154171E+00
         -1   -1    0    0    0  501 -0.00000000000E+00  0.00000000000E+00  0.19599989350E+03  0.19599989350E+03  0.00000000000E+00 0.  1.
          1   -1    0    0  502    0  0.00000000000E+00 -0.00000000000E+00 -0.48250843874E+03  0.48250843874E+03  0.00000000000E+00 0. -1.
          6    1    1    2  502    0  0.51019289214E+02 -0.75986242196E+02 -0.40573303916E+03  0.45008907556E+03  0.17200000000E+03 0. -1.
         -6    1    1    2    0  501 -0.51019289214E+02  0.75986242196E+02  0.11922449392E+03  0.22841925668E+03  0.17200000000E+03 0.  1.
</event>
<event>
 4    1  0.3190379E-002  0.3851062E+03  0.7818608E-02  0.1049062E+00
         -2   -1    0    0    0  501 -0.00000000000E+00  0.00000000000E+00  0.13056967648E+03  0.13056967648E+03  0.00000000000E+00 0.  1.
          2   -1    0    0  502    0  0.00000000000E+00 -0.00000000000E+00 -0.11381656781E+04  0.11381656781E+04  0.00000000000E+00 0. -1.
          6    1    1    2  502    0 -0.28042208920E+03 -0.20021557256E+03 -0.47514892274E+03  0.61161533858E+03  0.17200000000E+03 0. -1.
         -6    1    1    2    0  501  0.28042208920E+03  0.20021557256E+03 -0.53244707883E+03  0.65712001595E+03  0.17200000000E+03 0. -1.
</event>
<event>
 4    1  0.3190379E-002  0.2272699E+03  0.7818608E-02  0.1128576E+00
         -1   -1    0    0    0  501 -0.00000000000E+00  0.00000000000E+00  0.13703425679E+03  0.13703425679E+03  0.00000000000E+00 0.  1.
          1   -1    0    0  502    0  0.00000000000E+00 -0.00000000000E+00 -0.37953314856E+03  0.37953314856E+03  0.00000000000E+00 0. -1.
          6    1    1    2  502    0 -0.14541026541E+02  0.14783825358E+03 -0.99836984178E+02  0.24823177493E+03  0.17200000000E+03 0. -1.
         -6    1    1    2    0  501  0.14541026541E+02 -0.14783825358E+03 -0.14266190759E+03  0.26833563042E+03  0.17200000000E+03 0. -1.
</event>
<event>
 4    1  0.3190379E-002  0.2013526E+03  0.7818608E-02  0.1148603E+00
         -1   -1    0    0    0  501 -0.00000000000E+00  0.00000000000E+00  0.11358409405E+03  0.11358409405E+03  0.00000000000E+00 0.  1.
          1   -1    0    0  502    0  0.00000000000E+00 -0.00000000000E+00 -0.56530679799E+03  0.56530679799E+03  0.00000000000E+00 0. -1.
          6    1    1    2  502    0 -0.97088349788E+02  0.39150124122E+02 -0.43194358473E+03  0.47656913483E+03  0.17200000000E+03 0. -1.
         -6    1    1    2    0  501  0.97088349788E+02 -0.39150124122E+02 -0.19779119208E+02  0.20232175721E+03  0.17200000000E+03 0.  1.
</event>
<event>
 4    1  0.3190379E-002  0.1738443E+03  0.7818608E-02  0.1173897E+00
         -1   -1    0    0    0  501 -0.00000000000E+00  0.00000000000E+00  0.89905890790E+02  0.89905890790E+02  0.00000000000E+00 0.  1.
          1   -1    0    0  502    0  0.00000000000E+00 -0.00000000000E+00 -0.35547171056E+03  0.35547171056E+03  0.00000000000E+00 0. -1.
          6    1    1    2  502    0 -0.22168193973E+02  0.12100348407E+02 -0.80864559858E+02  0.19173138579E+03  0.17200000000E+03 0.  1.
         -6    1    1    2    0  501  0.22168193973E+02 -0.12100348407E+02 -0.18470125991E+03  0.25364621556E+03  0.17200000000E+03 0. -1.
</event>
<event>
 4    1  0.3190379E-002  0.2288505E+03  0.7818608E-02  0.1127451E+00
         -2   -1    0    0    0  501 -0.00000000000E+00  0.00000000000E+00  0.37329280129E+02  0.37329280129E+02  0.00000000000E+00 0.  1.
          2   -1    0    0  502    0  0.00000000000E+00 -0.00000000000E+00 -0.14143991583E+04  0.14143991583E+04  0.00000000000E+00 0. -1.
          6    1    1    2  502    0 -0.46672227561E+02 -0.14356272067E+03 -0.75373144295E+03  0.78770783904E+03  0.17200000000E+03 0. -1.
         -6    1    1    2    0  501  0.46672227561E+02  0.14356272067E+03 -0.62333843527E+03  0.66402059944E+03  0.17200000000E+03 0.  1.
</event>
<event>
 4    1  0.3190379E-002  0.5007194E+03  0.7818608E-02  0.1013591E+00
          2   -1    0    0  502    0  0.00000000000E+00  0.00000000000E+00  0.30709423421E+04  0.30709423421E+04  0.00000000000E+00 0. -1.
         -2   -1    0    0    0  501 -0.00000000000E+00 -0.00000000000E+00 -0.86141970531E+02  0.86141970531E+02  0.00000000000E+00 0.  1.
          6    1    1    2  502    0 -0.39857454273E+03 -0.24954806858E+03  0.18531629602E+04  0.19196178948E+04  0.17200000000E+03 0. -1.
         -6    1    1    2    0  501  0.39857454273E+03  0.24954806858E+03  0.11316374113E+04  0.12374664178E+04  0.17200000000E+03 0.  1.
</event>
<event>
 4    1  0.3190379E-002  0.5616481E+03  0.7818608E-02  0.9988332E-01
          2   -1    0    0  502    0  0.00000000000E+00  0.00000000000E+00  0.59675142156E+03  0.59675142156E+03  0.00000000000E+00 0. -1.
         -2   -1    0    0    0  501 -0.00000000000E+00 -0.00000000000E+00 -0.63021098274E+03  0.63021098274E+03  0.00000000000E+00 0.  1.
          6    1    1    2  502    0  0.42223919434E+03  0.32799192152E+03  0.22959477064E+03  0.60676387213E+03  0.17200000000E+03 0. -1.
         -6    1    1    2    0  501 -0.42223919434E+03 -0.32799192152E+03 -0.26305433183E+03  0.62019853217E+03  0.17200000000E+03 0.  1.
</event>
<event>
 4    1  0.3190379E-002  0.1883386E+03  0.7818608E-02  0.1159968E+00
         -1   -1    0    0    0  501 -0.00000000000E+00  0.00000000000E+00  0.10776652002E+03  0.10776652002E+03  0.00000000000E+00 0.  1.
          1   -1    0    0  502    0  0.00000000000E+00 -0.00000000000E+00 -0.34644933009E+03  0.34644933009E+03  0.00000000000E+00 0. -1.
          6    1    1    2  502    0 -0.57235190373E+02 -0.51103307894E+02 -0.68593339206E+02  0.20044066773E+03  0.17200000000E+03 0. -1.
         -6    1    1    2    0  501  0.57235190373E+02  0.51103307894E+02 -0.17008947087E+03  0.25377518239E+03  0.17200000000E+03 0. -1.
</event>
<event>
 4    1  0.3190379E-002  0.2660139E+03  0.7818608E-02  0.1103583E+00
         -1   -1    0    0    0  501 -0.00000000000E+00  0.00000000000E+00  0.56433567955E+02  0.56433567955E+02  0.00000000000E+00 0.  1.
          1   -1    0    0  502    0  0.00000000000E+00 -0.00000000000E+00 -0.15819783097E+04  0.15819783097E+04  0.00000000000E+00 0. -1.
          6    1    1    2  502    0 -0.17031454402E+03  0.11032844144E+03 -0.38972355920E+03  0.47185576344E+03  0.17200000000E+03 0.  1.
         -6    1    1    2    0  501  0.17031454402E+03 -0.11032844144E+03 -0.11358211825E+04  0.11665561142E+04  0.17200000000E+03 0. -1.
</event>
<event>
 4    1  0.3190379E-002  0.2300526E+03  0.7818608E-02  0.1126603E+00
          2   -1    0    0  502    0  0.00000000000E+00  0.00000000000E+00  0.25391748332E+04  0.25391748332E+04  0.00000000000E+00 0. -1.
         -2   -1    0    0    0  501 -0.00000000000E+00 -0.00000000000E+00 -0.39069438042E+02  0.39069438042E+02  0.00000000000E+00 0.  1.
          6    1    1    2  502    0  0.21568425739E+02 -0.15124489904E+03  0.21305448070E+04  0.21429291615E+04  0.17200000000E+03 0. -1.
         -6    1    1    2    0  501 -0.21568425739E+02  0.15124489904E+03  0.36956058819E+03  0.43531510979E+03  0.17200000000E+03 0.  1.
</event>
<event>
 4    1  0.3190379E-002  0.3241110E+03  0.7818608E-02  0.1073773E+00
         -2   -1    0    0    0  501 -0.00000000000E+00  0.00000000000E+00  0.68238612888E+02  0.68238612888E+02  0.00000000000E+00 0.  1.
          2   -1    0    0  502    0  0.00000000000E+00 -0.00000000000E+00 -0.17001243449E+04  0.17001243449E+04  0.00000000000E+00 0. -1.
          6    1    1    2  502    0 -0.84113297968E+02 -0.26151265417E+03 -0.10877834478E+04  0.11350421774E+04  0.17200000000E+03 0. -1.
         -6    1    1    2    0  501  0.84113297968E+02  0.26151265417E+03 -0.54410228427E+03  0.63332078044E+03  0.17200000000E+03 0.  1.
</event>
<event>
 4    1  0.3190379E-002  0.1944571E+03  0.7818608E-02  0.1154502E+00
          2   -1    0    0  502    0  0.00000000000E+00  0.00000000000E+00  0.13000786175E+04  0.13000786175E+04  0.00000000000E+00 0. -1.
         -2   -1    0    0    0  501 -0.00000000000E+00 -0.00000000000E+00 -0.29111023508E+02  0.29111023508E+02  0.00000000000E+00 0.  1.
          6    1    1    2  502    0  0.11411213999E+02 -0.89996370057E+02  0.61584234486E+03  0.64581371629E+03  0.17200000000E+03 0. -1.
         -6    1    1    2    0  501 -0.11411213999E+02  0.89996370057E+02  0.65512524910E+03  0.68337592468E+03  0.17200000000E+03 0.  1.
</event>
<event>
 4    1  0.3190379E-002  0.3194458E+03  0.7818608E-02  0.1075905E+00
          2   -1    0    0  502    0  0.00000000000E+00  0.00000000000E+00  0.11724080539E+03  0.11724080539E+03  0.00000000000E+00 0. -1.
         -2   -1    0    0    0  501 -0.00000000000E+00 -0.00000000000E+00 -0.88354392134E+03  0.88354392134E+03  0.00000000000E+00 0.  1.
          6    1    1    2  502    0 -0.25250066600E+03  0.93300648270E+02 -0.32210351619E+03  0.45364774048E+03  0.17200000000E+03 0.  1.
         -6    1    1    2    0  501  0.25250066600E+03 -0.93300648270E+02 -0.44419959976E+03  0.54713698625E+03  0.17200000000E+03 0. -1.
</event>
<event>
 4    1  0.3190379E-002  0.2334347E+03  0.7818608E-02  0.1124245E+00
         -2   -1    0    0    0  501 -0.00000000000E+00  0.00000000000E+00  0.75461287732E+03  0.75461287732E+03  0.00000000000E+00 0.  1.
          2   -1    0    0  502    0  0.00000000000E+00 -0.00000000000E+00 -0.81743556727E+02  0.81743556727E+02  0.00000000000E+00 0. -1.
          6    1    1    2  502    0  0.14123003786E+03  0.70440231467E+02  0.19363496327E+03  0.30329234874E+03  0.17200000000E+03 0. -1.
         -6    1    1    2    0  501 -0.14123003786E+03 -0.70440231467E+02  0.47923435732E+03  0.53306408530E+03  0.17200000000E+03 0.  1.
</event>
<event>
 4    1  0.3190379E-002  0.2046118E+03  0.7818608E-02  0.1145905E+00
          2   -1    0    0  502    0  0.00000000000E+00  0.00000000000E+00  0.45819123007E+03  0.45819123007E+03  0.00000000000E+00 0. -1.
         -2   -1    0    0    0  501 -0.00000000000E+00 -0.00000000000E+00 -0.11423109713E+03  0.11423109713E+03  0.00000000000E+00 0.  1.
          6    1    1    2  502    0 -0.30321039945E+02  0.10659555225E+03  0.30001287579E+03  0.36314419018E+03  0.17200000000E+03 0. -1.
         -6    1    1    2    0  501  0.30321039945E+02 -0.10659555225E+03  0.43947257140E+02  0.20927813701E+03  0.17200000000E+03 0.  1.
</event>
<event>
 4    1  0.3190379E-002  0.2326555E+03  0.7818608E-02  0.1124785E+00
         -2   -1    0    0    0  501 -0.00000000000E+00  0.00000000000E+00  0.62292309154E+02  0.62292309154E+02  0.00000000000E+00 0.  1.
          2   -1    0    0  502    0  0.00000000000E+00 -0.00000000000E+00 -0.11306611981E+04  0.11306611981E+04  0.00000000000E+00 0. -1.
          6    1    1    2  502    0 -0.10567216772E+03  0.11566310764E+03 -0.82115871934E+03  0.85348122642E+03  0.17200000000E+03 0. -1.
         -6    1    1    2    0  501  0.10567216772E+03 -0.11566310764E+03 -0.24721016961E+03  0.33947228084E+03  0.17200000000E+03 0.  1.
</event>
<event>
 4    1  0.3190379E-002  0.2951766E+03  0.7818608E-02  0.1087677E+00
         -2   -1    0    0    0  501 -0.00000000000E+00  0.00000000000E+00  0.74948890998E+02  0.74948890998E+02  0.00000000000E+00 0.  1.
          2   -1    0    0  502    0  0.00000000000E+00 -0.00000000000E+00 -0.19457900322E+04  0.19457900322E+04  0.00000000000E+00 0. -1.
          6    1    1    2  502    0 -0.41626803895E+01 -0.23984977243E+03 -0.15764666525E+04  0.16038629455E+04  0.17200000000E+03 0. -1.
         -6    1    1    2    0  501  0.41626803895E+01  0.23984977243E+03 -0.29437448866E+03  0.41687597774E+03  0.17200000000E+03 0.  1.
</event>
<event>
 4    1  0.3190379E-002  0.1809620E+03  0.7818608E-02  0.1166875E+00
         -2   -1    0    0    0  501 -0.00000000000E+00  0.00000000000E+00  0.24720868877E+02  0.24720868877E+02  0.00000000000E+00 0.  1.
          2   -1    0    0  502    0  0.00000000000E+00 -0.00000000000E+00 -0.25490182496E+04  0.25490182496E+04  0.00000000000E+00 0. -1.
          6    1    1    2  502    0  0.55009247687E+02  0.11714190874E+02 -0.21540129722E+04  0.21616010557E+04  0.17200000000E+03 0. -1.
         -6    1    1    2    0  501 -0.55009247687E+02 -0.11714190874E+02 -0.37028440858E+03  0.41213806283E+03  0.17200000000E+03 0.  1.
</event>
<event>
 4    1  0.3190379E-002  0.1743183E+03  0.7818608E-02  0.1173418E+00
         -2   -1    0    0    0  501 -0.00000000000E+00  0.00000000000E+00  0.28712795019E+02  0.28712795019E+02  0.00000000000E+00 0.  1.
          2   -1    0    0  502    0  0.00000000000E+00 -0.00000000000E+00 -0.12546467966E+04  0.12546467966E+04  0.00000000000E+00 0. -1.
          6    1    1    2  502    0  0.28048455669E+02  0.40202190037E+01 -0.86680967841E+03  0.88416395347E+03  0.17200000000E+03 0.  1.
         -6    1    1    2    0  501 -0.28048455669E+02 -0.40202190037E+01 -0.35912432318E+03  0.39919563816E+03  0.17200000000E+03 0.  1.
</event>
<event>
 4    1  0.3190379E-002  0.3111558E+03  0.7818608E-02  0.1079793E+00
          2   -1    0    0  502    0  0.00000000000E+00  0.00000000000E+00  0.14856775061E+04  0.14856775061E+04  0.00000000000E+00 0. -1.
         -2   -1    0    0    0  501 -0.00000000000E+00 -0.00000000000E+00 -0.68006678167E+02  0.68006678167E+02  0.00000000000E+00 0.  1.
          6    1    1    2  502    0 -0.20893727584E+03  0.15355495218E+03  0.86756295105E+03  0.92167422803E+03  0.17200000000E+03 0. -1.
         -6    1    1    2    0  501  0.20893727584E+03 -0.15355495218E+03  0.55010787687E+03  0.63200995622E+03  0.17200000000E+03 0.  1.
</event>
<event>
 4    1  0.3190379E-002  0.4535124E+03  0.7818608E-02  0.1026680E+00
         -2   -1    0    0    0  501 -0.00000000000E+00  0.00000000000E+00  0.12938587549E+03  0.12938587549E+03  0.00000000000E+00 0.  1.
          2   -1    0    0  502    0  0.00000000000E+00 -0.00000000000E+00 -0.16694536063E+04  0.16694536063E+04  0.00000000000E+00 0. -1.
          6    1    1    2  502    0  0.31467414976E+03  0.27761426499E+03 -0.96672577683E+03  0.10678165705E+04  0.17200000000E+03 0. -1.
         -6    1    1    2    0  501 -0.31467414976E+03 -0.27761426499E+03 -0.57334195399E+03  0.73102291131E+03  0.17200000000E+03 0.  1.
</event>
<event>
 4    1  0.3190379E-002  0.1741334E+03  0.7818608E-02  0.1173605E+00
         -1   -1    0    0    0  501 -0.00000000000E+00  0.00000000000E+00  0.85761606217E+02  0.85761606217E+02  0.00000000000E+00 0.  1.
          1   -1    0    0  502    0  0.00000000000E+00 -0.00000000000E+00 -0.19796524327E+04  0.19796524327E+04  0.00000000000E+00 0. -1.
          6    1    1    2  502    0 -0.18357770251E+02 -0.20035556058E+02 -0.18828991897E+04  0.18909341051E+04  0.17200000000E+03 0. -1.
         -6    1    1    2    0  501  0.18357770251E+02  0.20035556058E+02 -0.10991636806E+02  0.17447993385E+03  0.17200000000E+03 0.  1.
</event>
<event>
 4    1  0.3190379E-002  0.3125871E+03  0.7818608E-02  0.1079112E+00
          1   -1    0    0  502    0  0.00000000000E+00  0.00000000000E+00  0.46747174965E+03  0.46747174965E+03  0.00000000000E+00 0. -1.
         -1   -1    0    0    0  501 -0.00000000000E+00 -0.00000000000E+00 -0.87738745626E+03  0.87738745626E+03  0.00000000000E+00 0.  1.
          6    1    1    2  502    0 -0.71750899227E+02  0.25095512512E+03  0.38193518146E+03  0.49354346232E+03  0.17200000000E+03 0. -1.
         -6    1    1    2    0  501  0.71750899227E+02 -0.25095512512E+03 -0.79185088806E+03  0.85131574359E+03  0.17200000000E+03 0.  1.
</event>
<event>
 4    1  0.3190379E-002  0.2506865E+03  0.7818608E-02  0.1112872E+00
         -2   -1    0    0    0  501 -0.00000000000E+00  0.00000000000E+00  0.40795902926E+02  0.40795902926E+02  0.00000000000E+00 0.  1.
          2   -1    0    0  502    0  0.00000000000E+00 -0.00000000000E+00 -0.21154592995E+04  0.21154592995E+04  0.00000000000E+00 0. -1.
          6    1    1    2  502    0 -0.18227976620E+03 -0.58157701516E+01 -0.15994246671E+04  0.16189512044E+04  0.17200000000E+03 0. -1.
         -6    1    1    2    0  501  0.18227976620E+03  0.58157701516E+01 -0.47523872942E+03  0.53730399802E+03  0.17200000000E+03 0.  1.
</event>
<event>
 4    1  0.3190379E-002  0.1822661E+03  0.7818608E-02  0.1165628E+00
         -4   -1    0    0    0  501 -0.00000000000E+00  0.00000000000E+00  0.34216457937E+02  0.34216457937E+02  0.00000000000E+00 0.  1.
          4   -1    0    0  502    0  0.00000000000E+00 -0.00000000000E+00 -0.98674858131E+03  0.98674858131E+03  0.00000000000E+00 0. -1.
          6    1    1    2  502    0  0.51363229848E+02 -0.31603172123E+02 -0.41158165755E+03  0.45013376090E+03  0.17200000000E+03 0. -1.
         -6    1    1    2    0  501 -0.51363229848E+02  0.31603172123E+02 -0.54095046583E+03  0.57083127835E+03  0.17200000000E+03 0.  1.
</event>
<event>
 4    1  0.3190379E-002  0.2161277E+03  0.7818608E-02  0.1136803E+00
          2   -1    0    0  502    0  0.00000000000E+00  0.00000000000E+00  0.24108054851E+04  0.24108054851E+04  0.00000000000E+00 0. -1.
         -2   -1    0    0    0  501 -0.00000000000E+00 -0.00000000000E+00 -0.20620841366E+02  0.20620841366E+02  0.00000000000E+00 0.  1.
          6    1    1    2  502    0 -0.33873705498E+02 -0.12641103920E+03  0.14938214003E+04  0.15093752200E+04  0.17200000000E+03 0.  1.
         -6    1    1    2    0  501  0.33873705498E+02  0.12641103920E+03  0.89636324349E+03  0.92205110652E+03  0.17200000000E+03 0.  1.
</event>
<event>
 4    1  0.3190379E-002  0.2957126E+03  0.7818608E-02  0.1087404E+00
          3   -1    0    0  502    0  0.00000000000E+00  0.00000000000E+00  0.43840714300E+03  0.43840714300E+03  0.00000000000E+00 0. -1.
         -3   -1    0    0    0  501 -0.00000000000E+00 -0.00000000000E+00 -0.28111946959E+03  0.28111946959E+03  0.00000000000E+00 0.  1.
          6    1    1    2  502    0  0.21880762795E+03 -0.99925741221E+02  0.27253907368E+03  0.40214857763E+03  0.17200000000E+03 0. -1.
         -6    1    1    2    0  501 -0.21880762795E+03  0.99925741221E+02 -0.11525140027E+03  0.31737803495E+03  0.17200000000E+03 0.  1.
</event>
<event>
 4    1  0.3190379E-002  0.2132135E+03  0.7818608E-02  0.1139046E+00
         -2   -1    0    0    0  501 -0.00000000000E+00  0.00000000000E+00  0.23276571893E+02  0.23276571893E+02  0.00000000000E+00 0.  1.
          2   -1    0    0  502    0  0.00000000000E+00 -0.00000000000E+00 -0.19866967528E+04  0.19866967528E+04  0.00000000000E+00 0. -1.
          6    1    1    2  502    0 -0.62885211242E+02 -0.10918533727E+03 -0.85089583080E+03  0.87720220163E+03  0.17200000000E+03 0. -1.
         -6    1    1    2    0  501  0.62885211242E+02  0.10918533727E+03 -0.11125243501E+04  0.11327711231E+04  0.17200000000E+03 0.  1.
</event>
<event>
 4    1  0.3190379E-002  0.2877563E+03  0.7818608E-02  0.1091526E+00
         -1   -1    0    0    0  501 -0.00000000000E+00  0.00000000000E+00  0.77306162100E+03  0.77306162100E+03  0.00000000000E+00 0.  1.
          1   -1    0    0  502    0  0.00000000000E+00 -0.00000000000E+00 -0.10728074416E+03  0.10728074416E+03  0.00000000000E+00 0. -1.
          6    1    1    2  502    0 -0.22046018331E+03  0.67948649976E+02  0.35037873751E+03  0.45339714507E+03  0.17200000000E+03 0. -1.
         -6    1    1    2    0  501  0.22046018331E+03 -0.67948649976E+02  0.31540213933E+03  0.42694522008E+03  0.17200000000E+03 0.  1.
</event>
<event>
 4    1  0.3190379E-002  0.4387142E+03  0.7818608E-02  0.1031142E+00
         -2   -1    0    0    0  501 -0.00000000000E+00  0.00000000000E+00  0.11229610916E+03  0.11229610916E+03  0.00000000000E+00 0.  1.
          2   -1    0    0  502    0  0.00000000000E+00 -0.00000000000E+00 -0.18307571660E+04  0.18307571660E+04  0.00000000000E+00 0. -1.
          6    1    1    2  502    0  0.36249119375E+03 -0.17744386603E+03 -0.11046276898E+04  0.11885590117E+04  0.17200000000E+03 0. -1.
         -6    1    1    2    0  501 -0.36249119375E+03  0.17744386603E+03 -0.61383336698E+03  0.75449426343E+03  0.17200000000E+03 0.  1.
</event>
<event>
 4    1  0.3190379E-002  0.2375471E+03  0.7818608E-02  0.1121438E+00
         -2   -1    0    0    0  501 -0.00000000000E+00  0.00000000000E+00  0.14976725154E+03  0.14976725154E+03  0.00000000000E+00 0.  1.
          2   -1    0    0  502    0  0.00000000000E+00 -0.00000000000E+00 -0.38239064119E+03  0.38239064119E+03  0.00000000000E+00 0. -1.
          6    1    1    2  502    0  0.60472636869E+02  0.15227498102E+03 -0.14855523788E+03  0.28017363965E+03  0.17200000000E+03 0. -1.
         -6    1    1    2    0  501 -0.60472636869E+02 -0.15227498102E+03 -0.84068151776E+02  0.25198425308E+03  0.17200000000E+03 0.  1.
</event>
<event>
 4    1  0.3190379E-002  0.3520930E+03  0.7818608E-02  0.1061759E+00
         -2   -1    0    0    0  501 -0.00000000000E+00  0.00000000000E+00  0.12731429436E+03  0.12731429436E+03  0.00000000000E+00 0.  1.
          2   -1    0    0  502    0  0.00000000000E+00 -0.00000000000E+00 -0.12911217694E+04  0.12911217694E+04  0.00000000000E+00 0. -1.
          6    1    1    2  502    0  0.78643962783E+02  0.29698589290E+03 -0.93354138378E+03  0.99773193228E+03  0.17200000000E+03 0. -1.
         -6    1    1    2    0  501 -0.78643962783E+02 -0.29698589290E+03 -0.23026609127E+03  0.42070413149E+03  0.17200000000E+03 0.  1.
</event>
<event>
 4    1  0.3190379E-002  0.3407822E+03  0.7818608E-02  0.1066463E+00
         -1   -1    0    0    0  501 -0.00000000000E+00  0.00000000000E+00  0.10734782463E+03  0.10734782463E+03  0.00000000000E+00 0.  1.
          1   -1    0    0  502    0  0.00000000000E+00 -0.00000000000E+00 -0.11767540604E+04  0.11767540604E+04  0.00000000000E+00 0. -1.
          6    1    1    2  502    0  0.28963148715E+03  0.51595648035E+02 -0.35235301778E+03  0.49018890072E+03  0.17200000000E+03 0. -1.
         -6    1    1    2    0  501 -0.28963148715E+03 -0.51595648035E+02 -0.71705321799E+03  0.79391298432E+03  0.17200000000E+03 0.  1.
</event>
<event>
 4    1  0.3190379E-002  0.1735696E+03  0.7818608E-02  0.1174176E+00
         -2   -1    0    0    0  501 -0.00000000000E+00  0.00000000000E+00  0.72849519391E+02  0.72849519391E+02  0.00000000000E+00 0.  1.
          2   -1    0    0  502    0  0.00000000000E+00 -0.00000000000E+00 -0.56046834255E+03  0.56046834255E+03  0.00000000000E+00 0. -1.
          6    1    1    2  502    0  0.15794059632E+02  0.17115455801E+02 -0.40593998244E+03  0.44149027225E+03  0.17200000000E+03 0. -1.
         -6    1    1    2    0  501 -0.15794059632E+02 -0.17115455801E+02 -0.81678840724E+02  0.19182758970E+03  0.17200000000E+03 0.  1.
</event>
<event>
 4    1  0.3190379E-002  0.2157023E+03  0.7818608E-02  0.1137128E+00
         -1   -1    0    0    0  501 -0.00000000000E+00  0.00000000000E+00  0.68734515775E+02  0.68734515775E+02  0.00000000000E+00 0.  1.
          1   -1    0    0  502    0  0.00000000000E+00 -0.00000000000E+00 -0.68549351048E+03  0.68549351048E+03  0.00000000000E+00 0. -1.
          6    1    1    2  502    0  0.82843898338E+02  0.10040099748E+03 -0.35056464905E+03  0.41161030715E+03  0.17200000000E+03 0. -1.
         -6    1    1    2    0  501 -0.82843898338E+02 -0.10040099748E+03 -0.26619434565E+03  0.34261771911E+03  0.17200000000E+03 0.  1.
</event>
<event>
 4    1  0.3190379E-002  0.2448713E+03  0.7818608E-02  0.1116590E+00
         -2   -1    0    0    0  501 -0.00000000000E+00  0.00000000000E+00  0.35798079199E+03  0.35798079199E+03  0.00000000000E+00 0.  1.
          2   -1    0    0  502    0  0.00000000000E+00 -0.00000000000E+00 -0.23950706987E+03  0.23950706987E+03  0.00000000000E+00 0. -1.
          6    1    1    2  502    0  0.89137044953E+02 -0.14977490214E+03 -0.10456778518E+03  0.26626369597E+03  0.17200000000E+03 0. -1.
         -6    1    1    2    0  501 -0.89137044953E+02  0.14977490214E+03  0.22304150730E+03  0.33122416589E+03  0.17200000000E+03 0.  1.
</event>
<event>
 4    1  0.3190379E-002  0.1947100E+03  0.7818608E-02  0.1154281E+00
          2   -1    0    0  502    0  0.00000000000E+00  0.00000000000E+00  0.71761522025E+03  0.71761522025E+03  0.00000000000E+00 0. -1.
         -2   -1    0    0    0  501 -0.00000000000E+00 -0.00000000000E+00 -0.53734729519E+02  0.53734729519E+02  0.00000000000E+00 0.  1.
          6    1    1    2  502    0  0.28902466390E+02  0.86559933140E+02  0.38197042129E+03  0.42873462343E+03  0.17200000000E+03 0. -1.
         -6    1    1    2    0  501 -0.28902466390E+02 -0.86559933140E+02  0.28191006944E+03  0.34261532634E+03  0.17200000000E+03 0.  1.
</event>
<event>
 4    1  0.3190379E-002  0.1810387E+03  0.7818608E-02  0.1166802E+00
         -2   -1    0    0    0  501 -0.00000000000E+00  0.00000000000E+00  0.31549964596E+02  0.31549964596E+02  0.00000000000E+00 0.  1.
          2   -1    0    0  502    0  0.00000000000E+00 -0.00000000000E+00 -0.10420919815E+04  0.10420919815E+04  0.00000000000E+00 0. -1.
          6    1    1    2  502    0 -0.15166912824E+02  0.54414898612E+02 -0.47523187414E+03  0.50854729439E+03  0.17200000000E+03 0.  1.
         -6    1    1    2    0  501  0.15166912824E+02 -0.54414898612E+02 -0.53531014273E+03  0.56509465167E+03  0.17200000000E+03 0.  1.
</event>
<event>
 4    1  0.3190379E-002  0.2844956E+03  0.7818608E-02  0.1093259E+00
          2   -1    0    0  502    0  0.00000000000E+00  0.00000000000E+00  0.16630327026E+04  0.16630327026E+04  0.00000000000E+00 0. -1.
         -2   -1    0    0    0  501 -0.00000000000E+00 -0.00000000000E+00 -0.53108772172E+02  0.53108772172E+02  0.00000000000E+00 0.  1.
          6    1    1    2  502    0  0.12390436664E+03 -0.18974052128E+03  0.10530646773E+04  0.10908175705E+04  0.17200000000E+03 0. -1.
         -6    1    1    2    0  501 -0.12390436664E+03  0.18974052128E+03  0.55685925313E+03  0.62532390430E+03  0.17200000000E+03 0.  1.
</event>
<event>
 4    1  0.3190379E-002  0.3397937E+03  0.7818608E-02  0.1066884E+00
          2   -1    0    0  502    0  0.00000000000E+00  0.00000000000E+00  0.33077168588E+04  0.33077168588E+04  0.00000000000E+00 0. -1.
         -2   -1    0    0    0  501 -0.00000000000E+00 -0.00000000000E+00 -0.35012750436E+02  0.35012750436E+02  0.00000000000E+00 0.  1.
          6    1    1    2  502    0  0.56027871808E+02 -0.28763975043E+03  0.17285632523E+04  0.17616443074E+04  0.17200000000E+03 0. -1.
         -6    1    1    2    0  501 -0.56027871808E+02  0.28763975043E+03  0.15441408561E+04  0.15810853019E+04  0.17200000000E+03 0. -1.
</event>
<event>
 4    1  0.3190379E-002  0.2563584E+03  0.7818608E-02  0.1109351E+00
          2   -1    0    0  502    0  0.00000000000E+00  0.00000000000E+00  0.81490791211E+03  0.81490791211E+03  0.00000000000E+00 0. -1.
         -2   -1    0    0    0  501 -0.00000000000E+00 -0.00000000000E+00 -0.10033414532E+03  0.10033414532E+03  0.00000000000E+00 0.  1.
          6    1    1    2  502    0  0.15166187603E+03  0.11460497562E+03  0.55999745456E+03  0.61588698167E+03  0.17200000000E+03 0. -1.
         -6    1    1    2    0  501 -0.15166187603E+03 -0.11460497562E+03  0.15457631223E+03  0.29935507576E+03  0.17200000000E+03 0.  1.
</event>
<event>
 4    1  0.3190379E-002  0.2790421E+03  0.7818608E-02  0.1096213E+00
          2   -1    0    0  502    0  0.00000000000E+00  0.00000000000E+00  0.14049769039E+04  0.14049769039E+04  0.00000000000E+00 0. -1.
         -2   -1    0    0    0  501 -0.00000000000E+00 -0.00000000000E+00 -0.76733474487E+02  0.76733474487E+02  0.00000000000E+00 0.  1.
          6    1    1    2  502    0 -0.92139190200E+02  0.19947644392E+03  0.10545697315E+04  0.10908628698E+04  0.17200000000E+03 0. -1.
         -6    1    1    2    0  501  0.92139190200E+02 -0.19947644392E+03  0.27367369786E+03  0.39084750856E+03  0.17200000000E+03 0.  1.
</event>
<event>
 4    1  0.3190379E-002  0.2056120E+03  0.7818608E-02  0.1145089E+00
         -2   -1    0    0    0  501 -0.00000000000E+00  0.00000000000E+00  0.60886588588E+03  0.60886588588E+03  0.00000000000E+00 0.  1.
          2   -1    0    0  502    0  0.00000000000E+00 -0.00000000000E+00 -0.11754518376E+03  0.11754518376E+03  0.00000000000E+00 0. -1.
          6    1    1    2  502    0 -0.11182086434E+03 -0.13725597502E+02  0.13295300403E+02  0.20604141026E+03  0.17200000000E+03 0. -1.
         -6    1    1    2    0  501  0.11182086434E+03  0.13725597502E+02  0.47802540171E+03  0.52036965939E+03  0.17200000000E+03 0.  1.
</event>
<event>
 4    1  0.3190379E-002  0.2625182E+03  0.7818608E-02  0.1105640E+00
          2   -1    0    0  502    0  0.00000000000E+00  0.00000000000E+00  0.30619366190E+04  0.30619366190E+04  0.00000000000E+00 0. -1.
         -2   -1    0    0    0  501 -0.00000000000E+00 -0.00000000000E+00 -0.53790166231E+02  0.53790166231E+02  0.00000000000E+00 0.  1.
          6    1    1    2  502    0 -0.17677235017E+03  0.89907509873E+02  0.26921142271E+04  0.27048835161E+04  0.17200000000E+03 0. -1.
         -6    1    1    2    0  501  0.17677235017E+03 -0.89907509873E+02  0.31603222575E+03  0.41084326918E+03  0.17200000000E+03 0.  1.
</event>
<event>
 4    1  0.3190379E-002  0.3438579E+03  0.7818608E-02  0.1065165E+00
         -2   -1    0    0    0  501 -0.00000000000E+00  0.00000000000E+00  0.11899245771E+03  0.11899245771E+03  0.00000000000E+00 0.  1.
          2   -1    0    0  502    0  0.00000000000E+00 -0.00000000000E+00 -0.19309138740E+04  0.19309138740E+04  0.00000000000E+00 0. -1.
          6    1    1    2  502    0 -0.23385158168E+03 -0.18430325417E+03 -0.16200471548E+04  0.16561373843E+04  0.17200000000E+03 0. -1.
         -6    1    1    2    0  501  0.23385158168E+03  0.18430325417E+03 -0.19187426147E+03  0.39376894744E+03  0.17200000000E+03 0.  1.
</event>
<event>
 4    1  0.3190379E-002  0.2379554E+03  0.7818608E-02  0.1121162E+00
         -1   -1    0    0    0  501 -0.00000000000E+00  0.00000000000E+00  0.38257390903E+02  0.38257390903E+02  0.00000000000E+00 0.  1.
          1   -1    0    0  502    0  0.00000000000E+00 -0.00000000000E+00 -0.16865370713E+04  0.16865370713E+04  0.00000000000E+00 0. -1.
          6    1    1    2  502    0  0.16329762486E+03 -0.19303749003E+02 -0.11258977442E+04  0.11507686472E+04  0.17200000000E+03 0. -1.
         -6    1    1    2    0  501 -0.16329762486E+03  0.19303749003E+02 -0.52238193619E+03  0.57402581499E+03  0.17200000000E+03 0.  1.
</event>
<event>
 4    1  0.3190379E-002  0.1773584E+03  0.7818608E-02  0.1170384E+00
         -2   -1    0    0    0  501 -0.00000000000E+00  0.00000000000E+00  0.13466172940E+03  0.13466172940E+03  0.00000000000E+00 0.  1.
          2   -1    0    0  502    0  0.00000000000E+00 -0.00000000000E+00 -0.46260093953E+03  0.46260093953E+03  0.00000000000E+00 0. -1.
          6    1    1    2  502    0  0.30610725596E+02  0.30577545544E+02 -0.37408488326E+03  0.41399939939E+03  0.17200000000E+03 0. -1.
         -6    1    1    2    0  501 -0.30610725596E+02 -0.30577545544E+02  0.46145673125E+02  0.18326326954E+03  0.17200000000E+03 0.  1.
</event>
<event>
 4    1  0.3190379E-002  0.1744557E+03  0.7818608E-02  0.1173279E+00
         -1   -1    0    0    0  501 -0.00000000000E+00  0.00000000000E+00  0.16011221555E+03  0.16011221555E+03  0.00000000000E+00 0.  1.
          1   -1    0    0  502    0  0.00000000000E+00 -0.00000000000E+00 -0.19016861078E+03  0.19016861078E+03  0.00000000000E+00 0. -1.
          6    1    1    2  502    0  0.29143797416E+02  0.11904428741E+01 -0.11334967956E+02  0.17482350981E+03  0.17200000000E+03 0.  1.
         -6    1    1    2    0  501 -0.29143797416E+02 -0.11904428741E+01 -0.18721427282E+02  0.17545731652E+03  0.17200000000E+03 0.  1.
</event>
<event>
 4    1  0.3190379E-002  0.2102415E+03  0.7818608E-02  0.1141375E+00
          2   -1    0    0  502    0  0.00000000000E+00  0.00000000000E+00  0.75757215495E+02  0.75757215495E+02  0.00000000000E+00 0. -1.
         -2   -1    0    0    0  501 -0.00000000000E+00 -0.00000000000E+00 -0.96131683863E+03  0.96131683863E+03  0.00000000000E+00 0.  1.
          6    1    1    2  502    0 -0.11868944866E+03  0.23028656021E+02 -0.11768605395E+03  0.24093881280E+03  0.17200000000E+03 0. -1.
         -6    1    1    2    0  501  0.11868944866E+03 -0.23028656021E+02 -0.76787356919E+03  0.79613524132E+03  0.17200000000E+03 0.  1.
</event>
<event>
 4    1  0.3190379E-002  0.1807787E+03  0.7818608E-02  0.1167052E+00
          2   -1    0    0  502    0  0.00000000000E+00  0.00000000000E+00  0.21312941503E+04  0.21312941503E+04  0.00000000000E+00 0. -1.
         -2   -1    0    0    0  501 -0.00000000000E+00 -0.00000000000E+00 -0.18567949053E+02  0.18567949053E+02  0.00000000000E+00 0.  1.
          6    1    1    2  502    0 -0.78597630980E+01  0.55092441340E+02  0.15049793926E+04  0.15157981149E+04  0.17200000000E+03 0. -1.
         -6    1    1    2    0  501  0.78597630980E+01 -0.55092441340E+02  0.60774680868E+03  0.63406398449E+03  0.17200000000E+03 0.  1.
</event>
<event>
 4    1  0.3190379E-002  0.2076390E+03  0.7818608E-02  0.1143449E+00
          1   -1    0    0  502    0  0.00000000000E+00  0.00000000000E+00  0.43753572843E+02  0.43753572843E+02  0.00000000000E+00 0. -1.
         -1   -1    0    0    0  501 -0.00000000000E+00 -0.00000000000E+00 -0.10183386570E+04  0.10183386570E+04  0.00000000000E+00 0.  1.
          6    1    1    2  502    0  0.10185368823E+03  0.56176304718E+02 -0.39175753715E+03  0.44338236200E+03  0.17200000000E+03 0.  1.
         -6    1    1    2    0  501 -0.10185368823E+03 -0.56176304718E+02 -0.58282754700E+03  0.61870986784E+03  0.17200000000E+03 0. -1.
</event>
<event>
 4    1  0.3190379E-002  0.1743726E+03  0.7818608E-02  0.1173363E+00
         -2   -1    0    0    0  501 -0.00000000000E+00  0.00000000000E+00  0.26506154649E+02  0.26506154649E+02  0.00000000000E+00 0.  1.
          2   -1    0    0  502    0  0.00000000000E+00 -0.00000000000E+00 -0.11484515407E+04  0.11484515407E+04  0.00000000000E+00 0. -1.
          6    1    1    2  502    0  0.25452396909E+02  0.13190546274E+02 -0.54099010082E+03  0.56839783972E+03  0.17200000000E+03 0. -1.
         -6    1    1    2    0  501 -0.25452396909E+02 -0.13190546274E+02 -0.58095528528E+03  0.60655985567E+03  0.17200000000E+03 0.  1.
</event>
<event>
 4    1  0.3190379E-002  0.2199061E+03  0.7818608E-02  0.1133953E+00
         -1   -1    0    0    0  501 -0.00000000000E+00  0.00000000000E+00  0.53914070636E+03  0.53914070636E+03  0.00000000000E+00 0.  1.
          1   -1    0    0  502    0  0.00000000000E+00 -0.00000000000E+00 -0.89712775096E+02  0.89712775096E+02  0.00000000000E+00 0. -1.
          6    1    1    2  502    0 -0.54081360207E+02 -0.12589630836E+03  0.22039286423E+03  0.31133854336E+03  0.17200000000E+03 0. -1.
         -6    1    1    2    0  501  0.54081360207E+02  0.12589630836E+03  0.22903506704E+03  0.31751493810E+03  0.17200000000E+03 0. -1.
</event>
<event>
 4    1  0.3190379E-002  0.1759566E+03  0.7818608E-02  0.1171775E+00
          2   -1    0    0  502    0  0.00000000000E+00  0.00000000000E+00  0.11026159458E+04  0.11026159458E+04  0.00000000000E+00 0. -1.
         -2   -1    0    0    0  501 -0.00000000000E+00 -0.00000000000E+00 -0.28101783712E+02  0.28101783712E+02  0.00000000000E+00 0.  1.
          6    1    1    2  502    0 -0.92437597322E+01 -0.35934578053E+02  0.55323024081E+03  0.58053806107E+03  0.17200000000E+03 0.  1.
         -6    1    1    2    0  501  0.92437597322E+01  0.35934578053E+02  0.52128392128E+03  0.55017966845E+03  0.17200000000E+03 0. -1.
</event>
<event>
 4    1  0.3190379E-002  0.1949906E+03  0.7818608E-02  0.1154036E+00
         -2   -1    0    0    0  501 -0.00000000000E+00  0.00000000000E+00  0.25375808647E+03  0.25375808647E+03  0.00000000000E+00 0.  1.
          2   -1    0    0  502    0  0.00000000000E+00 -0.00000000000E+00 -0.15824371725E+04  0.15824371725E+04  0.00000000000E+00 0. -1.
          6    1    1    2  502    0  0.57321335919E+02 -0.71774508198E+02 -0.15378915094E+04  0.15502037318E+04  0.17200000000E+03 0. -1.
         -6    1    1    2    0  501 -0.57321335919E+02  0.71774508198E+02  0.20921242328E+03  0.28599152721E+03  0.17200000000E+03 0.  1.
</event>
<event>
 4    1  0.3190379E-002  0.5449553E+03  0.7818608E-02  0.1002668E+00
          2   -1    0    0  502    0  0.00000000000E+00  0.00000000000E+00  0.18952790299E+04  0.18952790299E+04  0.00000000000E+00 0. -1.
         -2   -1    0    0    0  501 -0.00000000000E+00 -0.00000000000E+00 -0.18095997488E+03  0.18095997488E+03  0.00000000000E+00 0.  1.
          6    1    1    2  502    0  0.37049448577E+03  0.36072993110E+03  0.12373202620E+04  0.13520124548E+04  0.17200000000E+03 0. -1.
         -6    1    1    2    0  501 -0.37049448577E+03 -0.36072993110E+03  0.47699879308E+03  0.72422655004E+03  0.17200000000E+03 0.  1.
</event>
<event>
 4    1  0.3190379E-002  0.2495002E+03  0.7818608E-02  0.1113621E+00
          2   -1    0    0  502    0  0.00000000000E+00  0.00000000000E+00  0.28912747238E+03  0.28912747238E+03  0.00000000000E+00 0. -1.
         -2   -1    0    0    0  501 -0.00000000000E+00 -0.00000000000E+00 -0.29951799193E+03  0.29951799193E+03  0.00000000000E+00 0.  1.
          6    1    1    2  502    0 -0.95013738044E+02 -0.15374892702E+03  0.15086923266E+03  0.29156794806E+03  0.17200000000E+03 0. -1.
         -6    1    1    2    0  501  0.95013738044E+02  0.15374892702E+03 -0.16125975221E+03  0.29707751625E+03  0.17200000000E+03 0.  1.
</event>
<event>
 4    1  0.3190379E-002  0.3016185E+03  0.7818608E-02  0.1084434E+00
         -2   -1    0    0    0  501 -0.00000000000E+00  0.00000000000E+00  0.85254312341E+02  0.85254312341E+02  0.00000000000E+00 0.  1.
          2   -1    0    0  502    0  0.00000000000E+00 -0.00000000000E+00 -0.14539681382E+04  0.14539681382E+04  0.00000000000E+00 0. -1.
          6    1    1    2  502    0 -0.24715275243E+03 -0.17471353912E+02 -0.10813500250E+04  0.11226271010E+04  0.17200000000E+03 0. -1.
         -6    1    1    2    0  501  0.24715275243E+03  0.17471353912E+02 -0.28736380082E+03  0.41659534954E+03  0.17200000000E+03 0.  1.
</event>
<event>
 4    1  0.3190379E-002  0.2073538E+03  0.7818608E-02  0.1143679E+00
          1   -1    0    0  502    0  0.00000000000E+00  0.00000000000E+00  0.13283126132E+04  0.13283126132E+04  0.00000000000E+00 0. -1.
         -1   -1    0    0    0  501 -0.00000000000E+00 -0.00000000000E+00 -0.41748105737E+02  0.41748105737E+02  0.00000000000E+00 0.  1.
          6    1    1    2  502    0 -0.90284056923E+02 -0.72528635681E+02  0.96798167029E+03  0.98994147703E+03  0.17200000000E+03 0. -1.
         -6    1    1    2    0  501  0.90284056923E+02  0.72528635681E+02  0.31858283719E+03  0.38011924192E+03  0.17200000000E+03 0.  1.
</event>
<event>
 4    1  0.3190379E-002  0.1780453E+03  0.7818608E-02  0.1169708E+00
          2   -1    0    0  502    0  0.00000000000E+00  0.00000000000E+00  0.20793217131E+04  0.20793217131E+04  0.00000000000E+00 0. -1.
         -2   -1    0    0    0  501 -0.00000000000E+00 -0.00000000000E+00 -0.15443799980E+02  0.15443799980E+02  0.00000000000E+00 0.  1.
          6    1    1    2  502    0 -0.45549819501E+02 -0.64293221796E+01  0.11506477339E+04  0.11643411569E+04  0.17200000000E+03 0. -1.
         -6    1    1    2    0  501  0.45549819501E+02  0.64293221796E+01  0.91323017924E+03  0.93042435615E+03  0.17200000000E+03 0. -1.
</event>
<event>
 4    1  0.3190379E-002  0.5706365E+03  0.7818608E-02  0.9968271E-01
          1   -1    0    0  502    0  0.00000000000E+00  0.00000000000E+00  0.68624836145E+03  0.68624836145E+03  0.00000000000E+00 0. -1.
         -1   -1    0    0    0  501 -0.00000000000E+00 -0.00000000000E+00 -0.47474084299E+03  0.47474084299E+03  0.00000000000E+00 0.  1.
          6    1    1    2  502    0 -0.54386240556E+03  0.15992294696E+02  0.92727335363E+02  0.57812146509E+03  0.17200000000E+03 0. -1.
         -6    1    1    2    0  501  0.54386240556E+03 -0.15992294696E+02  0.11878018310E+03  0.58286773934E+03  0.17200000000E+03 0.  1.
</event>
<event>
 4    1  0.3190379E-002  0.1758808E+03  0.7818608E-02  0.1171850E+00
         -1   -1    0    0    0  501 -0.00000000000E+00  0.00000000000E+00  0.56363455361E+02  0.56363455361E+02  0.00000000000E+00 0.  1.
          1   -1    0    0  502    0  0.00000000000E+00 -0.00000000000E+00 -0.56856042127E+03  0.56856042127E+03  0.00000000000E+00 0. -1.
          6    1    1    2  502    0  0.25116441655E+02 -0.26818048756E+02 -0.19789355293E+03  0.26475630620E+03  0.17200000000E+03 0. -1.
         -6    1    1    2    0  501 -0.25116441655E+02  0.26818048756E+02 -0.31430341298E+03  0.36016757043E+03  0.17200000000E+03 0.  1.
</event>
<event>
 4    1  0.3190379E-002  0.2405307E+03  0.7818608E-02  0.1119440E+00
         -4   -1    0    0    0  501 -0.00000000000E+00  0.00000000000E+00  0.45427979708E+03  0.45427979708E+03  0.00000000000E+00 0.  1.
          4   -1    0    0  502    0  0.00000000000E+00 -0.00000000000E+00 -0.22370877218E+03  0.22370877218E+03  0.00000000000E+00 0. -1.
          6    1    1    2  502    0 -0.16339942025E+03 -0.39643863667E+02 -0.10719102837E+03  0.26333424203E+03  0.17200000000E+03 0. -1.
         -6    1    1    2    0  501  0.16339942025E+03  0.39643863667E+02  0.33776205327E+03  0.41465432723E+03  0.17200000000E+03 0.  1.
</event>
<event>
 4    1  0.3190379E-002  0.4735946E+03  0.7818608E-02  0.1020911E+00
          2   -1    0    0  502    0  0.00000000000E+00  0.00000000000E+00  0.31031843773E+03  0.31031843773E+03  0.00000000000E+00 0. -1.
         -2   -1    0    0    0  501 -0.00000000000E+00 -0.00000000000E+00 -0.72374097740E+03  0.72374097740E+03  0.00000000000E+00 0.  1.
          6    1    1    2  502    0  0.43859227399E+03 -0.48421977324E+02 -0.22555408693E+03  0.52456316762E+03  0.17200000000E+03 0.  1.
         -6    1    1    2    0  501 -0.43859227399E+03  0.48421977324E+02 -0.18786845274E+03  0.50949624751E+03  0.17200000000E+03 0.  1.
</event>
<event>
 4    1  0.3190379E-002  0.2231449E+03  0.7818608E-02  0.1131560E+00
          3   -1    0    0  502    0  0.00000000000E+00  0.00000000000E+00  0.59319336142E+02  0.59319336142E+02  0.00000000000E+00 0. -1.
         -3   -1    0    0    0  501 -0.00000000000E+00 -0.00000000000E+00 -0.84779199362E+03  0.84779199362E+03  0.00000000000E+00 0.  1.
          6    1    1    2  502    0 -0.96015576994E+01 -0.14183600277E+03 -0.43931653276E+03  0.49273994921E+03  0.17200000000E+03 0. -1.
         -6    1    1    2    0  501  0.96015576994E+01  0.14183600277E+03 -0.34915612472E+03  0.41437138055E+03  0.17200000000E+03 0.  1.
</event>
<event>
 4    1  0.3190379E-002  0.2468275E+03  0.7818608E-02  0.1115326E+00
         -2   -1    0    0    0  501 -0.00000000000E+00  0.00000000000E+00  0.19065390047E+03  0.19065390047E+03  0.00000000000E+00 0.  1.
          2   -1    0    0  502    0  0.00000000000E+00 -0.00000000000E+00 -0.36182850373E+03  0.36182850373E+03  0.00000000000E+00 0. -1.
          6    1    1    2  502    0  0.17034732758E+03  0.48182987614E+02 -0.18001234996E+03  0.30549674049E+03  0.17200000000E+03 0. -1.
         -6    1    1    2    0  501 -0.17034732758E+03 -0.48182987614E+02  0.88377467051E+01  0.24698566371E+03  0.17200000000E+03 0.  1.
</event>
<event>
 4    1  0.3190379E-002  0.9689148E+03  0.7818608E-02  0.9343311E-01
         -2   -1    0    0    0  501 -0.00000000000E+00  0.00000000000E+00  0.83238911650E+03  0.83238911650E+03  0.00000000000E+00 0.  1.
          2   -1    0    0  502    0  0.00000000000E+00 -0.00000000000E+00 -0.26602639631E+04  0.26602639631E+04  0.00000000000E+00 0. -1.
          6    1    1    2  502    0 -0.65667427883E+03 -0.69136881974E+03 -0.22393574890E+04  0.24399831796E+04  0.17200000000E+03 0. -1.
         -6    1    1    2    0  501  0.65667427883E+03  0.69136881974E+03  0.41148264236E+03  0.10526699000E+04  0.17200000000E+03 0.  1.
</event>
<event>
 4    1  0.3190379E-002  0.1726579E+03  0.7818608E-02  0.1175104E+00
         -2   -1    0    0    0  501 -0.00000000000E+00  0.00000000000E+00  0.14239992956E+02  0.14239992956E+02  0.00000000000E+00 0.  1.
          2   -1    0    0  502    0  0.00000000000E+00 -0.00000000000E+00 -0.22976611272E+04  0.22976611272E+04  0.00000000000E+00 0. -1.
          6    1    1    2  502    0  0.14487873015E+02  0.41050079091E+01 -0.14863248410E+04  0.14963195790E+04  0.17200000000E+03 0. -1.
         -6    1    1    2    0  501 -0.14487873015E+02 -0.41050079091E+01 -0.79709629326E+03  0.81558154117E+03  0.17200000000E+03 0.  1.
</event>
<event>
 4    1  0.3190379E-002  0.3680461E+03  0.7818608E-02  0.1055443E+00
          2   -1    0    0  502    0  0.00000000000E+00  0.00000000000E+00  0.13265098521E+04  0.13265098521E+04  0.00000000000E+00 0. -1.
         -2   -1    0    0    0  501 -0.00000000000E+00 -0.00000000000E+00 -0.10521480161E+03  0.10521480161E+03  0.00000000000E+00 0.  1.
          6    1    1    2  502    0 -0.15346973707E+03 -0.28691636308E+03  0.73349996115E+03  0.82065836534E+03  0.17200000000E+03 0. -1.
         -6    1    1    2    0  501  0.15346973707E+03  0.28691636308E+03  0.48779508937E+03  0.61106628839E+03  0.17200000000E+03 0.  1.
</event>
<event>
 4    1  0.3190379E-002  0.2049909E+03  0.7818608E-02  0.1145595E+00
         -2   -1    0    0    0  501 -0.00000000000E+00  0.00000000000E+00  0.15438759618E+03  0.15438759618E+03  0.00000000000E+00 0.  1.
          2   -1    0    0  502    0  0.00000000000E+00 -0.00000000000E+00 -0.27713573698E+03  0.27713573698E+03  0.00000000000E+00 0. -1.
          6    1    1    2  502    0 -0.40910524173E+02 -0.10374778315E+03 -0.32522742507E+02  0.20755481752E+03  0.17200000000E+03 0. -1.
         -6    1    1    2    0  501  0.40910524173E+02  0.10374778315E+03 -0.90225398293E+02  0.22396851563E+03  0.17200000000E+03 0.  1.
</event>
<event>
 4    1  0.3190379E-002  0.4539750E+03  0.7818608E-02  0.1026543E+00
         -1   -1    0    0    0  501 -0.00000000000E+00  0.00000000000E+00  0.64290233630E+03  0.64290233630E+03  0.00000000000E+00 0.  1.
          1   -1    0    0  502    0  0.00000000000E+00 -0.00000000000E+00 -0.72825487089E+03  0.72825487089E+03  0.00000000000E+00 0. -1.
          6    1    1    2  502    0 -0.30443391683E+03  0.28953293436E+03 -0.55563142943E+03  0.71750931365E+03  0.17200000000E+03 0. -1.
         -6    1    1    2    0  501  0.30443391683E+03 -0.28953293436E+03  0.47027889484E+03  0.65364789354E+03  0.17200000000E+03 0.  1.
</event>
<event>
 4    1  0.3190379E-002  0.7290698E+03  0.7818608E-02  0.9668771E-01
         -1   -1    0    0    0  501 -0.00000000000E+00  0.00000000000E+00  0.41207000425E+03  0.41207000425E+03  0.00000000000E+00 0.  1.
          1   -1    0    0  502    0  0.00000000000E+00 -0.00000000000E+00 -0.12929085768E+04  0.12929085768E+04  0.00000000000E+00 0. -1.
          6    1    1    2  502    0  0.66316608435E+03  0.24933807543E+03 -0.48131563120E+03  0.87361746098E+03  0.17200000000E+03 0. -1.
         -6    1    1    2    0  501 -0.66316608435E+03 -0.24933807543E+03 -0.39952294135E+03  0.83136112007E+03  0.17200000000E+03 0.  1.
</event>
<event>
 4    1  0.3190379E-002  0.1883784E+03  0.7818608E-02  0.1159932E+00
         -2   -1    0    0    0  501 -0.00000000000E+00  0.00000000000E+00  0.16614692554E+02  0.16614692554E+02  0.00000000000E+00 0.  1.
          2   -1    0    0  502    0  0.00000000000E+00 -0.00000000000E+00 -0.21714875298E+04  0.21714875298E+04  0.00000000000E+00 0. -1.
          6    1    1    2  502    0  0.50435338349E+02 -0.57954161373E+02 -0.12176025686E+04  0.12320886426E+04  0.17200000000E+03 0. -1.
         -6    1    1    2    0  501 -0.50435338349E+02  0.57954161373E+02 -0.93727026862E+03  0.95601357972E+03  0.17200000000E+03 0.  1.
</event>
<event>
 4    1  0.3190379E-002  0.4968307E+03  0.7818608E-02  0.1014609E+00
          1   -1    0    0  502    0  0.00000000000E+00  0.00000000000E+00  0.11686717356E+04  0.11686717356E+04  0.00000000000E+00 0. -1.
         -1   -1    0    0    0  501 -0.00000000000E+00 -0.00000000000E+00 -0.22041642471E+03  0.22041642471E+03  0.00000000000E+00 0.  1.
          6    1    1    2  502    0  0.15885546284E+03 -0.43820278480E+03  0.33221841838E+03  0.59767032400E+03  0.17200000000E+03 0. -1.
         -6    1    1    2    0  501 -0.15885546284E+03  0.43820278480E+03  0.61603689252E+03  0.79141783631E+03  0.17200000000E+03 0.  1.
</event>
<event>
 4    1  0.3190379E-002  0.5643202E+03  0.7818608E-02  0.9982326E-01
         -2   -1    0    0    0  501 -0.00000000000E+00  0.00000000000E+00  0.43079350636E+03  0.43079350636E+03  0.00000000000E+00 0.  1.
          2   -1    0    0  502    0  0.00000000000E+00 -0.00000000000E+00 -0.74884679833E+03  0.74884679833E+03  0.00000000000E+00 0. -1.
          6    1    1    2  502    0 -0.25344494485E+03  0.47396097243E+03 -0.92201352949E+02  0.57180279201E+03  0.17200000000E+03 0. -1.
         -6    1    1    2    0  501  0.25344494485E+03 -0.47396097243E+03 -0.22585193902E+03  0.60783751268E+03  0.17200000000E+03 0.  1.
</event>
<event>
 4    1  0.3190379E-002  0.2566465E+03  0.7818608E-02  0.1109175E+00
          1   -1    0    0  502    0  0.00000000000E+00  0.00000000000E+00  0.35531947284E+04  0.35531947284E+04  0.00000000000E+00 0. -1.
         -1   -1    0    0    0  501 -0.00000000000E+00 -0.00000000000E+00 -0.37663264173E+02  0.37663264173E+02  0.00000000000E+00 0.  1.
          6    1    1    2  502    0  0.18855017620E+03  0.27060256718E+02  0.30372012472E+04  0.30480254005E+04  0.17200000000E+03 0. -1.
         -6    1    1    2    0  501 -0.18855017620E+03 -0.27060256718E+02  0.47833021705E+03  0.54283259204E+03  0.17200000000E+03 0.  1.
</event>
<event>
 4    1  0.3190379E-002  0.2026114E+03  0.7818608E-02  0.1147554E+00
         -1   -1    0    0    0  501 -0.00000000000E+00  0.00000000000E+00  0.52912225326E+02  0.52912225326E+02  0.00000000000E+00 0.  1.
          1   -1    0    0  502    0  0.00000000000E+00 -0.00000000000E+00 -0.12915076302E+04  0.12915076302E+04  0.00000000000E+00 0. -1.
          6    1    1    2  502    0 -0.10145635802E+03 -0.34263497108E+02 -0.10440558286E+04  0.10635337104E+04  0.17200000000E+03 0. -1.
         -6    1    1    2    0  501  0.10145635802E+03  0.34263497108E+02 -0.19453957628E+03  0.28088614518E+03  0.17200000000E+03 0.  1.
</event>
<event>
 4    1  0.3190379E-002  0.3057955E+03  0.7818608E-02  0.1082379E+00
         -1   -1    0    0    0  501 -0.00000000000E+00  0.00000000000E+00  0.25090866278E+03  0.25090866278E+03  0.00000000000E+00 0.  1.
          1   -1    0    0  502    0  0.00000000000E+00 -0.00000000000E+00 -0.14530582256E+04  0.14530582256E+04  0.00000000000E+00 0. -1.
          6    1    1    2  502    0 -0.12073450712E+03 -0.22214868026E+03 -0.13357168301E+04  0.13702738075E+04  0.17200000000E+03 0. -1.
         -6    1    1    2    0  501  0.12073450712E+03  0.22214868026E+03  0.13356726726E+03  0.33369308089E+03  0.17200000000E+03 0.  1.
</event>
<event>
 4    1  0.3190379E-002  0.2435904E+03  0.7818608E-02  0.1117424E+00
          1   -1    0    0  502    0  0.00000000000E+00  0.00000000000E+00  0.91726676633E+03  0.91726676633E+03  0.00000000000E+00 0. -1.
         -1   -1    0    0    0  501 -0.00000000000E+00 -0.00000000000E+00 -0.94389285134E+02  0.94389285134E+02  0.00000000000E+00 0.  1.
          6    1    1    2  502    0 -0.17247077894E+03  0.24682912065E+01  0.12769369472E+03  0.27503080141E+03  0.17200000000E+03 0.  1.
         -6    1    1    2    0  501  0.17247077894E+03 -0.24682912065E+01  0.69518378647E+03  0.73662525006E+03  0.17200000000E+03 0. -1.
</event>
<event>
 4    1  0.3190379E-002  0.2301291E+03  0.7818608E-02  0.1126549E+00
          1   -1    0    0  502    0  0.00000000000E+00  0.00000000000E+00  0.59467849039E+03  0.59467849039E+03  0.00000000000E+00 0. -1.
         -1   -1    0    0    0  501 -0.00000000000E+00 -0.00000000000E+00 -0.91745324386E+02  0.91745324386E+02  0.00000000000E+00 0.  1.
          6    1    1    2  502    0  0.71860627339E+01 -0.15272115343E+03  0.31023342497E+03  0.38626955377E+03  0.17200000000E+03 0. -1.
         -6    1    1    2    0  501 -0.71860627339E+01  0.15272115343E+03  0.19269974104E+03  0.30015426101E+03  0.17200000000E+03 0.  1.
</event>
<event>
 4    1  0.3190379E-002  0.3687819E+03  0.7818608E-02  0.1055160E+00
         -2   -1    0    0    0  501 -0.00000000000E+00  0.00000000000E+00  0.10596900495E+03  0.10596900495E+03  0.00000000000E+00 0.  1.
          2   -1    0    0  502    0  0.00000000000E+00 -0.00000000000E+00 -0.15939026476E+04  0.15939026476E+04  0.00000000000E+00 0. -1.
          6    1    1    2  502    0  0.28579536444E+03  0.15728022682E+03 -0.11191052847E+04  0.11783024647E+04  0.17200000000E+03 0.  1.
         -6    1    1    2    0  501 -0.28579536444E+03 -0.15728022682E+03 -0.36882835799E+03  0.52156918788E+03  0.17200000000E+03 0.  1.
</event>
<event>
 4    1  0.3190379E-002  0.3172114E+03  0.7818608E-02  0.1076940E+00
         -2   -1    0    0    0  501 -0.00000000000E+00  0.00000000000E+00  0.33628233212E+04  0.33628233212E+04  0.00000000000E+00 0.  1.
          2   -1    0    0  502    0  0.00000000000E+00 -0.00000000000E+00 -0.30020820660E+02  0.30020820660E+02  0.00000000000E+00 0. -1.
          6    1    1    2  502    0  0.24516336944E+03 -0.10456580443E+03  0.17636307275E+04  0.17919309217E+04  0.17200000000E+03 0.  1.
         -6    1    1    2    0  501 -0.24516336944E+03  0.10456580443E+03  0.15691717731E+04  0.16009132202E+04  0.17200000000E+03 0.  1.
</event>
<event>
 4    1  0.3190379E-002  0.1729265E+03  0.7818608E-02  0.1174830E+00
          1   -1    0    0  502    0  0.00000000000E+00  0.00000000000E+00  0.59343378919E+03  0.59343378919E+03  0.00000000000E+00 0. -1.
         -1   -1    0    0    0  501 -0.00000000000E+00 -0.00000000000E+00 -0.21372451715E+03  0.21372451715E+03  0.00000000000E+00 0.  1.
          6    1    1    2  502    0  0.16525050671E+02 -0.68193657211E+01  0.54266353051E+03  0.56955007541E+03  0.17200000000E+03 0. -1.
         -6    1    1    2    0  501 -0.16525050671E+02  0.68193657211E+01 -0.16295425847E+03  0.23760823092E+03  0.17200000000E+03 0.  1.
</event>
<event>
 4    1  0.3190379E-002  0.8890021E+03  0.7818608E-02  0.9439435E-01
         -2   -1    0    0    0  501 -0.00000000000E+00  0.00000000000E+00  0.41162875671E+03  0.41162875671E+03  0.00000000000E+00 0.  1.
          2   -1    0    0  502    0  0.00000000000E+00 -0.00000000000E+00 -0.19926230457E+04  0.19926230457E+04  0.00000000000E+00 0. -1.
          6    1    1    2  502    0 -0.71015961324E+02 -0.86930862860E+03 -0.56099199348E+03  0.10512072941E+04  0.17200000000E+03 0. -1.
         -6    1    1    2    0  501  0.71015961324E+02  0.86930862860E+03 -0.10200022955E+04  0.13530445083E+04  0.17200000000E+03 0.  1.
</event>
<event>
 4    1  0.3190379E-002  0.2170468E+03  0.7818608E-02  0.1136104E+00
         -2   -1    0    0    0  501 -0.00000000000E+00  0.00000000000E+00  0.28101550883E+02  0.28101550883E+02  0.00000000000E+00 0.  1.
          2   -1    0    0  502    0  0.00000000000E+00 -0.00000000000E+00 -0.16777884599E+04  0.16777884599E+04  0.00000000000E+00 0. -1.
          6    1    1    2  502    0  0.11100840909E+03  0.72127838772E+02 -0.84942677721E+03  0.87671839370E+03  0.17200000000E+03 0.  1.
         -6    1    1    2    0  501 -0.11100840909E+03 -0.72127838772E+02 -0.80026013183E+03  0.82917161710E+03  0.17200000000E+03 0.  1.
</event>
<event>
 4    1  0.3190379E-002  0.3313488E+03  0.7818608E-02  0.1070542E+00
         -2   -1    0    0    0  501 -0.00000000000E+00  0.00000000000E+00  0.12056896103E+03  0.12056896103E+03  0.00000000000E+00 0.  1.
          2   -1    0    0  502    0  0.00000000000E+00 -0.00000000000E+00 -0.96115653213E+03  0.96115653213E+03  0.00000000000E+00 0. -1.
          6    1    1    2  502    0  0.27748022775E+03 -0.56680998998E+02 -0.29626846401E+03  0.44448511247E+03  0.17200000000E+03 0. -1.
         -6    1    1    2    0  501 -0.27748022775E+03  0.56680998998E+02 -0.54431910710E+03  0.63724038070E+03  0.17200000000E+03 0.  1.
</event>
<event>
 4    1  0.3190379E-002  0.1766755E+03  0.7818608E-02  0.1171060E+00
         -2   -1    0    0    0  501 -0.00000000000E+00  0.00000000000E+00  0.12855012734E+02  0.12855012734E+02  0.00000000000E+00 0.  1.
          2   -1    0    0  502    0  0.00000000000E+00 -0.00000000000E+00 -0.24615206770E+04  0.24615206770E+04  0.00000000000E+00 0. -1.
          6    1    1    2  502    0 -0.29218992150E+02 -0.27865519404E+02 -0.13683271978E+04  0.13796860357E+04  0.17200000000E+03 0. -1.
         -6    1    1    2    0  501  0.29218992150E+02  0.27865519404E+02 -0.10803384664E+04  0.10946896541E+04  0.17200000000E+03 0.  1.
</event>
<event>
 4    1  0.3190379E-002  0.1958479E+03  0.7818608E-02  0.1153290E+00
          1   -1    0    0  502    0  0.00000000000E+00  0.00000000000E+00  0.88418528430E+03  0.88418528430E+03  0.00000000000E+00 0. -1.
         -1   -1    0    0    0  501 -0.00000000000E+00 -0.00000000000E+00 -0.43381104335E+02  0.43381104335E+02  0.00000000000E+00 0.  1.
          6    1    1    2  502    0 -0.87925272020E+02  0.32272844556E+02  0.42214886943E+03  0.46536658444E+03  0.17200000000E+03 0. -1.
         -6    1    1    2    0  501  0.87925272020E+02 -0.32272844556E+02  0.41865531054E+03  0.46219980419E+03  0.17200000000E+03 0.  1.
</event>
<event>
 4    1  0.3190379E-002  0.1988619E+03  0.7818608E-02  0.1150703E+00
          2   -1    0    0  502    0  0.00000000000E+00  0.00000000000E+00  0.15519490066E+04  0.15519490066E+04  0.00000000000E+00 0. -1.
         -2   -1    0    0    0  501 -0.00000000000E+00 -0.00000000000E+00 -0.62932346339E+02  0.62932346339E+02  0.00000000000E+00 0.  1.
          6    1    1    2  502    0 -0.97794159617E+02  0.19959019002E+02  0.13673880819E+04  0.13817728563E+04  0.17200000000E+03 0. -1.
         -6    1    1    2    0  501  0.97794159617E+02 -0.19959019002E+02  0.12162857836E+03  0.23310849656E+03  0.17200000000E+03 0.  1.
</event>
<event>
 4    1  0.3190379E-002  0.4527996E+03  0.7818608E-02  0.1026890E+00
          1   -1    0    0  502    0  0.00000000000E+00  0.00000000000E+00  0.17599430436E+04  0.17599430436E+04  0.00000000000E+00 0. -1.
         -1   -1    0    0    0  501 -0.00000000000E+00 -0.00000000000E+00 -0.11927004328E+03  0.11927004328E+03  0.00000000000E+00 0.  1.
          6    1    1    2  502    0 -0.15828378842E+03 -0.38780108408E+03  0.96361710983E+03  0.10646996632E+04  0.17200000000E+03 0. -1.
         -6    1    1    2    0  501  0.15828378842E+03  0.38780108408E+03  0.67705589051E+03  0.81451342368E+03  0.17200000000E+03 0.  1.
</event>
<event>
 4    1  0.3190379E-002  0.2029727E+03  0.7818608E-02  0.1147255E+00
         -2   -1    0    0    0  501 -0.00000000000E+00  0.00000000000E+00  0.25972962393E+03  0.25972962393E+03  0.00000000000E+00 0.  1.
          2   -1    0    0  502    0  0.00000000000E+00 -0.00000000000E+00 -0.22586146387E+03  0.22586146387E+03  0.00000000000E+00 0. -1.
          6    1    1    2  502    0  0.94596044754E+02 -0.51628672297E+02 -0.11554367658E+03  0.23355571644E+03  0.17200000000E+03 0.  1.
         -6    1    1    2    0  501 -0.94596044754E+02  0.51628672297E+02  0.14941183664E+03  0.25203537135E+03  0.17200000000E+03 0.  1.
</event>
<event>
 4    1  0.3190379E-002  0.3672733E+03  0.7818608E-02  0.1055740E+00
          2   -1    0    0  502    0  0.00000000000E+00  0.00000000000E+00  0.69632183582E+03  0.69632183582E+03  0.00000000000E+00 0. -1.
         -2   -1    0    0    0  501 -0.00000000000E+00 -0.00000000000E+00 -0.19848091019E+03  0.19848091019E+03  0.00000000000E+00 0.  1.
          6    1    1    2  502    0  0.14427314408E+03  0.29067326469E+03  0.17960989751E+03  0.40883909083E+03  0.17200000000E+03 0.  1.
         -6    1    1    2    0  501 -0.14427314408E+03 -0.29067326469E+03  0.31823102812E+03  0.48596365519E+03  0.17200000000E+03 0. -1.
</event>
<event>
 4    1  0.3190379E-002  0.1974522E+03  0.7818608E-02  0.1151907E+00
          2   -1    0    0  502    0  0.00000000000E+00  0.00000000000E+00  0.72518839979E+03  0.72518839979E+03  0.00000000000E+00 0. -1.
         -2   -1    0    0    0  501 -0.00000000000E+00 -0.00000000000E+00 -0.13290722391E+03  0.13290722391E+03  0.00000000000E+00 0.  1.
          6    1    1    2  502    0  0.23732570241E+02  0.94022039794E+02  0.62722940360E+03  0.65757440917E+03  0.17200000000E+03 0. -1.
         -6    1    1    2    0  501 -0.23732570241E+02 -0.94022039794E+02 -0.34948227719E+02  0.20052121453E+03  0.17200000000E+03 0.  1.
</event>
<event>
 4    1  0.3190379E-002  0.1992290E+03  0.7818608E-02  0.1150391E+00
          2   -1    0    0  502    0  0.00000000000E+00  0.00000000000E+00  0.12994893732E+04  0.12994893732E+04  0.00000000000E+00 0. -1.
         -2   -1    0    0    0  501 -0.00000000000E+00 -0.00000000000E+00 -0.46450948328E+02  0.46450948328E+02  0.00000000000E+00 0.  1.
          6    1    1    2  502    0  0.56982463583E+02 -0.82832299560E+02  0.10203283404E+04  0.10395970918E+04  0.17200000000E+03 0. -1.
         -6    1    1    2    0  501 -0.56982463583E+02  0.82832299560E+02  0.23271008452E+03  0.30634322980E+03  0.17200000000E+03 0.  1.
</event>
<event>
 4    1  0.3190379E-002  0.1848719E+03  0.7818608E-02  0.1163170E+00
         -2   -1    0    0    0  501 -0.00000000000E+00  0.00000000000E+00  0.21443037079E+03  0.21443037079E+03  0.00000000000E+00 0.  1.
          2   -1    0    0  502    0  0.00000000000E+00 -0.00000000000E+00 -0.19120462422E+04  0.19120462422E+04  0.00000000000E+00 0. -1.
          6    1    1    2  502    0 -0.30117790114E+02  0.60716815676E+02 -0.18667663763E+04  0.18758982693E+04  0.17200000000E+03 0. -1.
         -6    1    1    2    0  501  0.30117790114E+02 -0.60716815676E+02  0.16915050495E+03  0.25057834366E+03  0.17200000000E+03 0.  1.
</event>
<event>
 4    1  0.3190379E-002  0.1996807E+03  0.7818608E-02  0.1150009E+00
         -2   -1    0    0    0  501 -0.00000000000E+00  0.00000000000E+00  0.76787855748E+02  0.76787855748E+02  0.00000000000E+00 0.  1.
          2   -1    0    0  502    0  0.00000000000E+00 -0.00000000000E+00 -0.59459071801E+03  0.59459071801E+03  0.00000000000E+00 0. -1.
          6    1    1    2  502    0  0.47969115397E+01 -0.10131808037E+03 -0.37839187488E+03  0.42784667200E+03  0.17200000000E+03 0. -1.
         -6    1    1    2    0  501 -0.47969115397E+01  0.10131808037E+03 -0.13941098739E+03  0.24353190176E+03  0.17200000000E+03 0.  1.
</event>
<event>
 4    1  0.3190379E-002  0.1755535E+03  0.7818608E-02  0.1172177E+00
         -2   -1    0    0    0  501 -0.00000000000E+00  0.00000000000E+00  0.27706417785E+02  0.27706417785E+02  0.00000000000E+00 0.  1.
          2   -1    0    0  502    0  0.00000000000E+00 -0.00000000000E+00 -0.11253797101E+04  0.11253797101E+04  0.00000000000E+00 0. -1.
          6    1    1    2  502    0  0.34285596758E+02  0.77160857352E+01 -0.61089011534E+03  0.63561448469E+03  0.17200000000E+03 0. -1.
         -6    1    1    2    0  501 -0.34285596758E+02 -0.77160857352E+01 -0.48678317693E+03  0.51747164315E+03  0.17200000000E+03 0.  1.
</event>
<event>
 4    1  0.3190379E-002  0.3400778E+03  0.7818608E-02  0.1066763E+00
         -1   -1    0    0    0  501 -0.00000000000E+00  0.00000000000E+00  0.40221654869E+03  0.40221654869E+03  0.00000000000E+00 0.  1.
          1   -1    0    0  502    0  0.00000000000E+00 -0.00000000000E+00 -0.28942782634E+03  0.28942782634E+03  0.00000000000E+00 0. -1.
          6    1    1    2  502    0 -0.24754203873E+03 -0.15745437539E+03  0.84331348090E+02  0.35037796383E+03  0.17200000000E+03 0. -1.
         -6    1    1    2    0  501  0.24754203873E+03  0.15745437539E+03  0.28457374260E+02  0.34126641121E+03  0.17200000000E+03 0.  1.
</event>
<event>
 4    1  0.3190379E-002  0.4238476E+03  0.7818608E-02  0.1035821E+00
          2   -1    0    0  502    0  0.00000000000E+00  0.00000000000E+00  0.16693942072E+04  0.16693942072E+04  0.00000000000E+00 0. -1.
         -2   -1    0    0    0  501 -0.00000000000E+00 -0.00000000000E+00 -0.12049538632E+03  0.12049538632E+03  0.00000000000E+00 0.  1.
          6    1    1    2  502    0 -0.38726506974E+03  0.94123921703E+01  0.10670844158E+04  0.11481794189E+04  0.17200000000E+03 0. -1.
         -6    1    1    2    0  501  0.38726506974E+03 -0.94123921703E+01  0.48181440505E+03  0.64171017468E+03  0.17200000000E+03 0.  1.
</event>
<event>
 4    1  0.3190379E-002  0.1825934E+03  0.7818608E-02  0.1165316E+00
         -2   -1    0    0    0  501 -0.00000000000E+00  0.00000000000E+00  0.16706341261E+03  0.16706341261E+03  0.00000000000E+00 0.  1.
          2   -1    0    0  502    0  0.00000000000E+00 -0.00000000000E+00 -0.37158649163E+03  0.37158649163E+03  0.00000000000E+00 0. -1.
          6    1    1    2  502    0 -0.27484960302E+02 -0.54780873149E+02 -0.28550787072E+03  0.33890280516E+03  0.17200000000E+03 0. -1.
         -6    1    1    2    0  501  0.27484960302E+02  0.54780873149E+02  0.80984791694E+02  0.19974709908E+03  0.17200000000E+03 0.  1.
</event>
<event>
 4    1  0.3190379E-002  0.1853655E+03  0.7818608E-02  0.1162709E+00
          1   -1    0    0  502    0  0.00000000000E+00  0.00000000000E+00  0.60063036305E+02  0.60063036305E+02  0.00000000000E+00 0. -1.
         -1   -1    0    0    0  501 -0.00000000000E+00 -0.00000000000E+00 -0.58369253677E+03  0.58369253677E+03  0.00000000000E+00 0.  1.
          6    1    1    2  502    0  0.57181222113E+02 -0.38815756582E+02 -0.30723193146E+03  0.35882003125E+03  0.17200000000E+03 0.  1.
         -6    1    1    2    0  501 -0.57181222113E+02  0.38815756582E+02 -0.21639756901E+03  0.28493554182E+03  0.17200000000E+03 0. -1.
</event>
<event>
 4    1  0.3190379E-002  0.2562889E+03  0.7818608E-02  0.1109394E+00
         -2   -1    0    0    0  501 -0.00000000000E+00  0.00000000000E+00  0.11942322125E+03  0.11942322125E+03  0.00000000000E+00 0.  1.
          2   -1    0    0  502    0  0.00000000000E+00 -0.00000000000E+00 -0.77195395790E+03  0.77195395790E+03  0.00000000000E+00 0. -1.
          6    1    1    2  502    0  0.18260615498E+03  0.52488038231E+02 -0.56524296216E+03  0.62063162042E+03  0.17200000000E+03 0. -1.
         -6    1    1    2    0  501 -0.18260615498E+03 -0.52488038231E+02 -0.87287774497E+02  0.27074555873E+03  0.17200000000E+03 0.  1.
</event>
<event>
 4    1  0.3190379E-002  0.2328372E+03  0.7818608E-02  0.1124659E+00
         -1   -1    0    0    0  501 -0.00000000000E+00  0.00000000000E+00  0.11062009163E+04  0.11062009163E+04  0.00000000000E+00 0.  1.
          1   -1    0    0  502    0  0.00000000000E+00 -0.00000000000E+00 -0.18334862192E+03  0.18334862192E+03  0.00000000000E+00 0. -1.
          6    1    1    2  502    0 -0.15445552504E+03  0.27796958053E+02 -0.90488827076E+02  0.24980273801E+03  0.17200000000E+03 0. -1.
         -6    1    1    2    0  501  0.15445552504E+03 -0.27796958053E+02  0.10133411215E+04  0.10397468002E+04  0.17200000000E+03 0.  1.
</event>
<event>
 4    1  0.3190379E-002  0.1928738E+03  0.7818608E-02  0.1155895E+00
          2   -1    0    0  502    0  0.00000000000E+00  0.00000000000E+00  0.16463631234E+04  0.16463631234E+04  0.00000000000E+00 0. -1.
         -2   -1    0    0    0  501 -0.00000000000E+00 -0.00000000000E+00 -0.25329269201E+02  0.25329269201E+02  0.00000000000E+00 0.  1.
          6    1    1    2  502    0  0.86892541583E+02  0.81239288441E+01  0.10851166601E+04  0.11021245292E+04  0.17200000000E+03 0. -1.
         -6    1    1    2    0  501 -0.86892541583E+02 -0.81239288441E+01  0.53591719412E+03  0.56956786334E+03  0.17200000000E+03 0.  1.
</event>
<event>
 4    1  0.3190379E-002  0.1789397E+03  0.7818608E-02  0.1168833E+00
         -2   -1    0    0    0  501 -0.00000000000E+00  0.00000000000E+00  0.96425925421E+01  0.96425925421E+01  0.00000000000E+00 0.  1.
          2   -1    0    0  502    0  0.00000000000E+00 -0.00000000000E+00 -0.35789066720E+04  0.35789066720E+04  0.00000000000E+00 0. -1.
          6    1    1    2  502    0  0.46888928396E+02 -0.15389652701E+02 -0.22666490253E+04  0.22737012154E+04  0.17200000000E+03 0. -1.
         -6    1    1    2    0  501 -0.46888928396E+02  0.15389652701E+02 -0.13026150542E+04  0.13148480492E+04  0.17200000000E+03 0. -1.
</event>
<event>
 4    1  0.3190379E-002  0.2000442E+03  0.7818608E-02  0.1149702E+00
         -2   -1    0    0    0  501 -0.00000000000E+00  0.00000000000E+00  0.17885720614E+03  0.17885720614E+03  0.00000000000E+00 0.  1.
          2   -1    0    0  502    0  0.00000000000E+00 -0.00000000000E+00 -0.35948863015E+03  0.35948863015E+03  0.00000000000E+00 0. -1.
          6    1    1    2  502    0 -0.95328060234E+02 -0.36690912443E+02 -0.25572319850E+03  0.32467216754E+03  0.17200000000E+03 0. -1.
         -6    1    1    2    0  501  0.95328060234E+02  0.36690912443E+02  0.75091774480E+02  0.21367366875E+03  0.17200000000E+03 0.  1.
</event>
<event>
 4    1  0.3190379E-002  0.1856682E+03  0.7818608E-02  0.1162427E+00
         -2   -1    0    0    0  501 -0.00000000000E+00  0.00000000000E+00  0.37638170998E+03  0.37638170998E+03  0.00000000000E+00 0.  1.
          2   -1    0    0  502    0  0.00000000000E+00 -0.00000000000E+00 -0.32051000913E+03  0.32051000913E+03  0.00000000000E+00 0. -1.
          6    1    1    2  502    0 -0.46593838187E+02 -0.52131379470E+02  0.32241647524E+03  0.37205517062E+03  0.17200000000E+03 0.  1.
         -6    1    1    2    0  501  0.46593838187E+02  0.52131379470E+02 -0.26654477439E+03  0.32483654849E+03  0.17200000000E+03 0. -1.
</event>
<event>
 4    1  0.3190379E-002  0.2192664E+03  0.7818608E-02  0.1134431E+00
          3   -1    0    0  502    0  0.00000000000E+00  0.00000000000E+00  0.40491650629E+02  0.40491650629E+02  0.00000000000E+00 0. -1.
         -3   -1    0    0    0  501 -0.00000000000E+00 -0.00000000000E+00 -0.14998927810E+04  0.14998927810E+04  0.00000000000E+00 0.  1.
          6    1    1    2  502    0  0.13159950873E+03  0.34282819460E+02 -0.10812804982E+04  0.11032883840E+04  0.17200000000E+03 0. -1.
         -6    1    1    2    0  501 -0.13159950873E+03 -0.34282819460E+02 -0.37812063216E+03  0.43709604766E+03  0.17200000000E+03 0. -1.
</event>
<event>
 4    1  0.3190379E-002  0.2674976E+03  0.7818608E-02  0.1102720E+00
         -2   -1    0    0    0  501 -0.00000000000E+00  0.00000000000E+00  0.10498111183E+03  0.10498111183E+03  0.00000000000E+00 0.  1.
          2   -1    0    0  502    0  0.00000000000E+00 -0.00000000000E+00 -0.68542517239E+03  0.68542517239E+03  0.00000000000E+00 0. -1.
          6    1    1    2  502    0  0.73660392598E+02 -0.19116773303E+03 -0.31975165338E+03  0.41688856476E+03  0.17200000000E+03 0. -1.
         -6    1    1    2    0  501 -0.73660392598E+02  0.19116773303E+03 -0.26069240717E+03  0.37351771946E+03  0.17200000000E+03 0.  1.
</event>
<event>
 4    1  0.3190379E-002  0.5356833E+03  0.7818608E-02  0.1004863E+00
         -1   -1    0    0    0  501 -0.00000000000E+00  0.00000000000E+00  0.13843654653E+04  0.13843654653E+04  0.00000000000E+00 0.  1.
          1   -1    0    0  502    0  0.00000000000E+00 -0.00000000000E+00 -0.29755891926E+03  0.29755891926E+03  0.00000000000E+00 0. -1.
          6    1    1    2  502    0 -0.42511109108E+03 -0.27686298175E+03  0.80197469206E+02  0.54165319577E+03  0.17200000000E+03 0. -1.
         -6    1    1    2    0  501  0.42511109108E+03  0.27686298175E+03  0.10066090768E+04  0.11402711888E+04  0.17200000000E+03 0.  1.
</event>
<event>
 4    1  0.3190379E-002  0.1811601E+03  0.7818608E-02  0.1166685E+00
          2   -1    0    0  502    0  0.00000000000E+00  0.00000000000E+00  0.35230624090E+03  0.35230624090E+03  0.00000000000E+00 0. -1.
         -2   -1    0    0    0  501 -0.00000000000E+00 -0.00000000000E+00 -0.10526947534E+03  0.10526947534E+03  0.00000000000E+00 0.  1.
          6    1    1    2  502    0  0.56855905306E+02  0.15422205411E+01  0.45904408458E+02  0.18688549202E+03  0.17200000000E+03 0.  1.
         -6    1    1    2    0  501 -0.56855905306E+02 -0.15422205411E+01  0.20113235710E+03  0.27069022421E+03  0.17200000000E+03 0. -1.
</event>
<event>
 4    1  0.3190379E-002  0.2366261E+03  0.7818608E-02  0.1122061E+00
          2   -1    0    0  502    0  0.00000000000E+00  0.00000000000E+00  0.31913946850E+03  0.31913946850E+03  0.00000000000E+00 0. -1.
         -2   -1    0    0    0  501 -0.00000000000E+00 -0.00000000000E+00 -0.22070983683E+03  0.22070983683E+03  0.00000000000E+00 0.  1.
          6    1    1    2  502    0 -0.77223610681E+02 -0.14298402320E+03  0.17145240524E+03  0.29221198504E+03  0.17200000000E+03 0. -1.
         -6    1    1    2    0  501  0.77223610681E+02  0.14298402320E+03 -0.73022773568E+02  0.24763732028E+03  0.17200000000E+03 0.  1.
</event>
<event>
 4    1  0.3190379E-002  0.1826844E+03  0.7818608E-02  0.1165230E+00
          2   -1    0    0  502    0  0.00000000000E+00  0.00000000000E+00  0.10024368399E+03  0.10024368399E+03  0.00000000000E+00 0. -1.
         -2   -1    0    0    0  501 -0.00000000000E+00 -0.00000000000E+00 -0.43876229147E+03  0.43876229147E+03  0.00000000000E+00 0.  1.
          6    1    1    2  502    0 -0.18422222758E+01  0.61531935465E+02 -0.36895440785E+02  0.18637286931E+03  0.17200000000E+03 0. -1.
         -6    1    1    2    0  501  0.18422222758E+01 -0.61531935465E+02 -0.30162316669E+03  0.35263310615E+03  0.17200000000E+03 0. -1.
</event>
<event>
 4    1  0.3190379E-002  0.1941084E+03  0.7818608E-02  0.1154807E+00
         -2   -1    0    0    0  501 -0.00000000000E+00  0.00000000000E+00  0.60911429853E+02  0.60911429853E+02  0.00000000000E+00 0.  1.
          2   -1    0    0  502    0  0.00000000000E+00 -0.00000000000E+00 -0.96501686494E+03  0.96501686494E+03  0.00000000000E+00 0. -1.
          6    1    1    2  502    0  0.74110196739E+01  0.89661395803E+02 -0.75940524445E+03  0.78382039678E+03  0.17200000000E+03 0. -1.
         -6    1    1    2    0  501 -0.74110196739E+01 -0.89661395803E+02 -0.14470019064E+03  0.24210789801E+03  0.17200000000E+03 0.  1.
</event>
<event>
 4    1  0.3190379E-002  0.1892117E+03  0.7818608E-02  0.1159174E+00
         -2   -1    0    0    0  501 -0.00000000000E+00  0.00000000000E+00  0.28645437458E+03  0.28645437458E+03  0.00000000000E+00 0.  1.
          2   -1    0    0  502    0  0.00000000000E+00 -0.00000000000E+00 -0.15876430068E+03  0.15876430068E+03  0.00000000000E+00 0. -1.
          6    1    1    2  502    0 -0.78836989173E+02  0.13348117173E+01 -0.38844159804E+02  0.19315776281E+03  0.17200000000E+03 0. -1.
         -6    1    1    2    0  501  0.78836989173E+02 -0.13348117173E+01  0.16653423370E+03  0.25206091244E+03  0.17200000000E+03 0.  1.
</event>
<event>
 4    1  0.3190379E-002  0.1866518E+03  0.7818608E-02  0.1161516E+00
         -1   -1    0    0    0  501 -0.00000000000E+00  0.00000000000E+00  0.19329779793E+03  0.19329779793E+03  0.00000000000E+00 0.  1.
          1   -1    0    0  502    0  0.00000000000E+00 -0.00000000000E+00 -0.21631118068E+03  0.21631118068E+03  0.00000000000E+00 0. -1.
          6    1    1    2  502    0  0.13075604933E+02 -0.71301593226E+02 -0.95146806777E+02  0.20950370756E+03  0.17200000000E+03 0. -1.
         -6    1    1    2    0  501 -0.13075604933E+02  0.71301593226E+02  0.72133424031E+02  0.20010527105E+03  0.17200000000E+03 0.  1.
</event>
<event>
 4    1  0.3190379E-002  0.2822552E+03  0.7818608E-02  0.1094464E+00
         -2   -1    0    0    0  501 -0.00000000000E+00  0.00000000000E+00  0.38565436162E+02  0.38565436162E+02  0.00000000000E+00 0.  1.
          2   -1    0    0  502    0  0.00000000000E+00 -0.00000000000E+00 -0.21751543674E+04  0.21751543674E+04  0.00000000000E+00 0. -1.
          6    1    1    2  502    0 -0.18504219306E+03  0.12587042089E+03 -0.82010032585E+03  0.86731339234E+03  0.17200000000E+03 0.  1.
         -6    1    1    2    0  501  0.18504219306E+03 -0.12587042089E+03 -0.13164886054E+04  0.13464064112E+04  0.17200000000E+03 0.  1.
</event>
<event>
 4    1  0.3190379E-002  0.1836876E+03  0.7818608E-02  0.1164281E+00
          2   -1    0    0  502    0  0.00000000000E+00  0.00000000000E+00  0.54691153363E+03  0.54691153363E+03  0.00000000000E+00 0. -1.
         -2   -1    0    0    0  501 -0.00000000000E+00 -0.00000000000E+00 -0.62253754323E+02  0.62253754323E+02  0.00000000000E+00 0.  1.
          6    1    1    2  502    0  0.63674674010E+02  0.10132744546E+02  0.27121159028E+03  0.32756199921E+03  0.17200000000E+03 0.  1.
         -6    1    1    2    0  501 -0.63674674010E+02 -0.10132744546E+02  0.21344618902E+03  0.28160328874E+03  0.17200000000E+03 0.  1.
</event>
<event>
 4    1  0.3190379E-002  0.1971812E+03  0.7818608E-02  0.1152139E+00
         -1   -1    0    0    0  501 -0.00000000000E+00  0.00000000000E+00  0.39100542578E+02  0.39100542578E+02  0.00000000000E+00 0.  1.
          1   -1    0    0  502    0  0.00000000000E+00 -0.00000000000E+00 -0.17444868482E+04  0.17444868482E+04  0.00000000000E+00 0. -1.
          6    1    1    2  502    0  0.27325030232E+02 -0.92465028593E+02 -0.14374761934E+04  0.14509370233E+04  0.17200000000E+03 0. -1.
         -6    1    1    2    0  501 -0.27325030232E+02  0.92465028593E+02 -0.26791011215E+03  0.33265036748E+03  0.17200000000E+03 0.  1.
</event>
<event>
 4    1  0.3190379E-002  0.1735773E+03  0.7818608E-02  0.1174168E+00
          1   -1    0    0  502    0  0.00000000000E+00  0.00000000000E+00  0.64371013766E+03  0.64371013766E+03  0.00000000000E+00 0. -1.
         -1   -1    0    0    0  501 -0.00000000000E+00 -0.00000000000E+00 -0.57763408116E+02  0.57763408116E+02  0.00000000000E+00 0.  1.
          6    1    1    2  502    0  0.17228914241E+02  0.15756082636E+02  0.14020924997E+03  0.22313162797E+03  0.17200000000E+03 0.  1.
         -6    1    1    2    0  501 -0.17228914241E+02 -0.15756082636E+02  0.44573747958E+03  0.47834191780E+03  0.17200000000E+03 0. -1.
</event>
<event>
 4    1  0.3190379E-002  0.4347357E+03  0.7818608E-02  0.1032374E+00
          2   -1    0    0  502    0  0.00000000000E+00  0.00000000000E+00  0.19275034489E+03  0.19275034489E+03  0.00000000000E+00 0. -1.
         -2   -1    0    0    0  501 -0.00000000000E+00 -0.00000000000E+00 -0.12387268166E+04  0.12387268166E+04  0.00000000000E+00 0.  1.
          6    1    1    2  502    0 -0.37304232875E+03  0.14230441965E+03 -0.19621051829E+03  0.47696299058E+03  0.17200000000E+03 0.  1.
         -6    1    1    2    0  501  0.37304232875E+03 -0.14230441965E+03 -0.84976595341E+03  0.95451417091E+03  0.17200000000E+03 0. -1.
</event>
<event>
 4    1  0.3190379E-002  0.4793677E+03  0.7818608E-02  0.1019309E+00
          1   -1    0    0  502    0  0.00000000000E+00  0.00000000000E+00  0.62734950561E+03  0.62734950561E+03  0.00000000000E+00 0. -1.
         -1   -1    0    0    0  501 -0.00000000000E+00 -0.00000000000E+00 -0.37063643708E+03  0.37063643708E+03  0.00000000000E+00 0.  1.
          6    1    1    2  502    0  0.43598164569E+03 -0.10064470736E+03  0.18237813106E+03  0.51288900864E+03  0.17200000000E+03 0. -1.
         -6    1    1    2    0  501 -0.43598164569E+03  0.10064470736E+03  0.74334937469E+02  0.48509693405E+03  0.17200000000E+03 0.  1.
</event>
<event>
 4    1  0.3190379E-002  0.2631730E+03  0.7818608E-02  0.1105252E+00
         -1   -1    0    0    0  501 -0.00000000000E+00  0.00000000000E+00  0.32497594467E+03  0.32497594467E+03  0.00000000000E+00 0.  1.
          1   -1    0    0  502    0  0.00000000000E+00 -0.00000000000E+00 -0.25817962781E+03  0.25817962781E+03  0.00000000000E+00 0. -1.
          6    1    1    2  502    0 -0.18053410823E+03  0.84163411666E+02 -0.88408179648E+02  0.27762573787E+03  0.17200000000E+03 0. -1.
         -6    1    1    2    0  501  0.18053410823E+03 -0.84163411666E+02  0.15520449651E+03  0.30552983461E+03  0.17200000000E+03 0.  1.
</event>
<event>
 4    1  0.3190379E-002  0.6014346E+03  0.7818608E-02  0.9902434E-01
         -2   -1    0    0    0  501 -0.00000000000E+00  0.00000000000E+00  0.17547846303E+03  0.17547846303E+03  0.00000000000E+00 0.  1.
          2   -1    0    0  502    0  0.00000000000E+00 -0.00000000000E+00 -0.21669632742E+04  0.21669632742E+04  0.00000000000E+00 0. -1.
          6    1    1    2  502    0 -0.31241242742E+03 -0.48429127232E+03 -0.12543017237E+04  0.13910414714E+04  0.17200000000E+03 0. -1.
         -6    1    1    2    0  501  0.31241242742E+03  0.48429127232E+03 -0.73718308752E+03  0.95140026581E+03  0.17200000000E+03 0.  1.
</event>
<event>
 4    1  0.3190379E-002  0.2438348E+03  0.7818608E-02  0.1117264E+00
         -2   -1    0    0    0  501 -0.00000000000E+00  0.00000000000E+00  0.99539162926E+02  0.99539162926E+02  0.00000000000E+00 0.  1.
          2   -1    0    0  502    0  0.00000000000E+00 -0.00000000000E+00 -0.68164798402E+03  0.68164798402E+03  0.00000000000E+00 0. -1.
          6    1    1    2  502    0  0.14488996805E+03  0.94224859604E+02 -0.42844742517E+03  0.49297324790E+03  0.17200000000E+03 0. -1.
         -6    1    1    2    0  501 -0.14488996805E+03 -0.94224859604E+02 -0.15366139592E+03  0.28821389905E+03  0.17200000000E+03 0.  1.
</event>
<event>
 4    1  0.3190379E-002  0.2349525E+03  0.7818608E-02  0.1123202E+00
         -2   -1    0    0    0  501 -0.00000000000E+00  0.00000000000E+00  0.14667519565E+02  0.14667519565E+02  0.00000000000E+00 0.  1.
          2   -1    0    0  502    0  0.00000000000E+00 -0.00000000000E+00 -0.41839693813E+04  0.41839693813E+04  0.00000000000E+00 0. -1.
          6    1    1    2  502    0  0.12407439952E+02 -0.15957665917E+03 -0.27500778771E+04  0.27600961912E+04  0.17200000000E+03 0. -1.
         -6    1    1    2    0  501 -0.12407439952E+02  0.15957665917E+03 -0.14192239847E+04  0.14385407097E+04  0.17200000000E+03 0.  1.
</event>
<event>
 4    1  0.3190379E-002  0.4747222E+03  0.7818608E-02  0.1020596E+00
         -1   -1    0    0    0  501 -0.00000000000E+00  0.00000000000E+00  0.15557567008E+03  0.15557567008E+03  0.00000000000E+00 0.  1.
          1   -1    0    0  502    0  0.00000000000E+00 -0.00000000000E+00 -0.17787870680E+04  0.17787870680E+04  0.00000000000E+00 0. -1.
          6    1    1    2  502    0 -0.11873160572E+03 -0.42623930106E+03 -0.12283315104E+04  0.13168748746E+04  0.17200000000E+03 0. -1.
         -6    1    1    2    0  501  0.11873160572E+03  0.42623930106E+03 -0.39487988756E+03  0.61748786349E+03  0.17200000000E+03 0.  1.
</event>
<event>
 4    1  0.3190379E-002  0.2664416E+03  0.7818608E-02  0.1103334E+00
         -2   -1    0    0    0  501 -0.00000000000E+00  0.00000000000E+00  0.15736514035E+03  0.15736514035E+03  0.00000000000E+00 0.  1.
          2   -1    0    0  502    0  0.00000000000E+00 -0.00000000000E+00 -0.10528566038E+04  0.10528566038E+04  0.00000000000E+00 0. -1.
          6    1    1    2  502    0  0.18372403982E+03 -0.87479138478E+02 -0.90520483419E+03  0.94360315510E+03  0.17200000000E+03 0. -1.
         -6    1    1    2    0  501 -0.18372403982E+03  0.87479138478E+02  0.97133707005E+01  0.26661858909E+03  0.17200000000E+03 0.  1.
</event>
<event>
 4    1  0.3190379E-002  0.4364681E+03  0.7818608E-02  0.1031836E+00
         -2   -1    0    0    0  501 -0.00000000000E+00  0.00000000000E+00  0.16604135730E+03  0.16604135730E+03  0.00000000000E+00 0.  1.
          2   -1    0    0  502    0  0.00000000000E+00 -0.00000000000E+00 -0.15306990937E+04  0.15306990937E+04  0.00000000000E+00 0. -1.
          6    1    1    2  502    0 -0.40106797581E+03 -0.80529953848E+01 -0.11068981528E+04  0.11898436421E+04  0.17200000000E+03 0. -1.
         -6    1    1    2    0  501  0.40106797581E+03  0.80529953848E+01 -0.25775958360E+03  0.50689680891E+03  0.17200000000E+03 0.  1.
</event>
<event>
 4    1  0.3190379E-002  0.2072987E+03  0.7818608E-02  0.1143723E+00
         -2   -1    0    0    0  501 -0.00000000000E+00  0.00000000000E+00  0.69605204387E+02  0.69605204387E+02  0.00000000000E+00 0.  1.
          2   -1    0    0  502    0  0.00000000000E+00 -0.00000000000E+00 -0.66713967194E+03  0.66713967194E+03  0.00000000000E+00 0. -1.
          6    1    1    2  502    0 -0.88024779300E+02  0.75102540985E+02 -0.19816114895E+03  0.28677620959E+03  0.17200000000E+03 0.  1.
         -6    1    1    2    0  501  0.88024779300E+02 -0.75102540985E+02 -0.39937331860E+03  0.44996866674E+03  0.17200000000E+03 0. -1.
</event>
<event>
 4    1  0.3190379E-002  0.1770564E+03  0.7818608E-02  0.1170683E+00
         -2   -1    0    0    0  501 -0.00000000000E+00  0.00000000000E+00  0.69103928943E+02  0.69103928943E+02  0.00000000000E+00 0.  1.
          2   -1    0    0  502    0  0.00000000000E+00 -0.00000000000E+00 -0.45524107605E+03  0.45524107605E+03  0.00000000000E+00 0. -1.
          6    1    1    2  502    0 -0.40917750206E+02  0.95242315104E+01 -0.17756758218E+03  0.25075729204E+03  0.17200000000E+03 0.  1.
         -6    1    1    2    0  501  0.40917750206E+02 -0.95242315104E+01 -0.20856956493E+03  0.27358771296E+03  0.17200000000E+03 0.  1.
</event>
<event>
 4    1  0.3190379E-002  0.1778403E+03  0.7818608E-02  0.1169910E+00
         -2   -1    0    0    0  501 -0.00000000000E+00  0.00000000000E+00  0.70481585795E+02  0.70481585795E+02  0.00000000000E+00 0.  1.
          2   -1    0    0  502    0  0.00000000000E+00 -0.00000000000E+00 -0.10375364820E+04  0.10375364820E+04  0.00000000000E+00 0. -1.
          6    1    1    2  502    0  0.53554825793E+00 -0.45198116617E+02 -0.90087866809E+03  0.91826441245E+03  0.17200000000E+03 0. -1.
         -6    1    1    2    0  501 -0.53554825793E+00  0.45198116617E+02 -0.66176228154E+02  0.18975365538E+03  0.17200000000E+03 0.  1.
</event>
<event>
 4    1  0.3190379E-002  0.2235986E+03  0.7818608E-02  0.1131228E+00
          1   -1    0    0  502    0  0.00000000000E+00  0.00000000000E+00  0.14545538321E+04  0.14545538321E+04  0.00000000000E+00 0. -1.
         -1   -1    0    0    0  501 -0.00000000000E+00 -0.00000000000E+00 -0.82736653988E+02  0.82736653988E+02  0.00000000000E+00 0.  1.
          6    1    1    2  502    0 -0.13899444220E+03  0.33058932416E+02  0.12735869530E+04  0.12930661525E+04  0.17200000000E+03 0. -1.
         -6    1    1    2    0  501  0.13899444220E+03 -0.33058932416E+02  0.98230225110E+02  0.24422433355E+03  0.17200000000E+03 0.  1.
</event>
<event>
 4    1  0.3190379E-002  0.6583929E+03  0.7818608E-02  0.9791157E-01
         -1   -1    0    0    0  501 -0.00000000000E+00  0.00000000000E+00  0.25736610723E+03  0.25736610723E+03  0.00000000000E+00 0.  1.
          1   -1    0    0  502    0  0.00000000000E+00 -0.00000000000E+00 -0.17616909456E+04  0.17616909456E+04  0.00000000000E+00 0. -1.
          6    1    1    2  502    0 -0.63458556728E+03 -0.34617981253E+02 -0.96375679808E+03  0.11671796831E+04  0.17200000000E+03 0. -1.
         -6    1    1    2    0  501  0.63458556728E+03  0.34617981253E+02 -0.54056804028E+03  0.85187736970E+03  0.17200000000E+03 0.  1.
</event>
<event>
 4    1  0.3190379E-002  0.2089106E+03  0.7818608E-02  0.1142432E+00
          2   -1    0    0  502    0  0.00000000000E+00  0.00000000000E+00  0.20315952844E+03  0.20315952844E+03  0.00000000000E+00 0. -1.
         -2   -1    0    0    0  501 -0.00000000000E+00 -0.00000000000E+00 -0.28123223454E+03  0.28123223454E+03  0.00000000000E+00 0.  1.
          6    1    1    2  502    0 -0.11839914816E+03  0.64253650439E+01  0.78654726260E+02  0.22322681193E+03  0.17200000000E+03 0. -1.
         -6    1    1    2    0  501  0.11839914816E+03 -0.64253650439E+01 -0.15672743236E+03  0.26116495105E+03  0.17200000000E+03 0.  1.
</event>
<event>
 4    1  0.3190379E-002  0.1790817E+03  0.7818608E-02  0.1168695E+00
         -1   -1    0    0    0  501 -0.00000000000E+00  0.00000000000E+00  0.24566430796E+03  0.24566430796E+03  0.00000000000E+00 0.  1.
          1   -1    0    0  502    0  0.00000000000E+00 -0.00000000000E+00 -0.21090306177E+03  0.21090306177E+03  0.00000000000E+00 0. -1.
          6    1    1    2  502    0  0.97844683193E+01 -0.48892882060E+02 -0.12353142562E+03  0.21755519496E+03  0.17200000000E+03 0. -1.
         -6    1    1    2    0  501 -0.97844683193E+01  0.48892882060E+02  0.15829267181E+03  0.23901217476E+03  0.17200000000E+03 0.  1.
</event>
<event>
 4    1  0.3190379E-002  0.3068401E+03  0.7818608E-02  0.1081870E+00
          2   -1    0    0  502    0  0.00000000000E+00  0.00000000000E+00  0.43832932355E+03  0.43832932355E+03  0.00000000000E+00 0. -1.
         -2   -1    0    0    0  501 -0.00000000000E+00 -0.00000000000E+00 -0.21488480659E+03  0.21488480659E+03  0.00000000000E+00 0.  1.
          6    1    1    2  502    0 -0.13153246654E+03  0.21740756824E+03  0.11840822047E+03  0.32889412758E+03  0.17200000000E+03 0. -1.
         -6    1    1    2    0  501  0.13153246654E+03 -0.21740756824E+03  0.10503629649E+03  0.32432000256E+03  0.17200000000E+03 0.  1.
</event>
<event>
 4    1  0.3190379E-002  0.2639544E+03  0.7818608E-02  0.1104790E+00
         -2   -1    0    0    0  501 -0.00000000000E+00  0.00000000000E+00  0.15831087709E+03  0.15831087709E+03  0.00000000000E+00 0.  1.
          2   -1    0    0  502    0  0.00000000000E+00 -0.00000000000E+00 -0.44838044084E+03  0.44838044084E+03  0.00000000000E+00 0. -1.
          6    1    1    2  502    0  0.16841448527E+03  0.10827970503E+03 -0.18626868046E+03  0.32306029575E+03  0.17200000000E+03 0. -1.
         -6    1    1    2    0  501 -0.16841448527E+03 -0.10827970503E+03 -0.10380088329E+03  0.28363102218E+03  0.17200000000E+03 0.  1.
</event>
<event>
 4    1  0.3190379E-002  0.2090256E+03  0.7818608E-02  0.1142340E+00
         -2   -1    0    0    0  501 -0.00000000000E+00  0.00000000000E+00  0.19066296294E+02  0.19066296294E+02  0.00000000000E+00 0.  1.
          2   -1    0    0  502    0  0.00000000000E+00 -0.00000000000E+00 -0.25362466833E+04  0.25362466833E+04  0.00000000000E+00 0. -1.
          6    1    1    2  502    0 -0.62239129552E+02  0.10116324216E+03 -0.16554312495E+04  0.16685755400E+04  0.17200000000E+03 0. -1.
         -6    1    1    2    0  501  0.62239129552E+02 -0.10116324216E+03 -0.86174913752E+03  0.88673743962E+03  0.17200000000E+03 0.  1.
</event>
<event>
 4    1  0.3190379E-002  0.6238715E+03  0.7818608E-02  0.9857082E-01
         -1   -1    0    0    0  501 -0.00000000000E+00  0.00000000000E+00  0.61006391404E+03  0.61006391404E+03  0.00000000000E+00 0.  1.
          1   -1    0    0  502    0  0.00000000000E+00 -0.00000000000E+00 -0.78612872376E+03  0.78612872376E+03  0.00000000000E+00 0. -1.
          6    1    1    2  502    0 -0.59738950197E+03 -0.52511538131E+02 -0.39107271855E+03  0.73631076992E+03  0.17200000000E+03 0. -1.
         -6    1    1    2    0  501  0.59738950197E+03  0.52511538131E+02  0.21500790883E+03  0.65988186789E+03  0.17200000000E+03 0.  1.
</event>
<event>
 4    1  0.3190379E-002  0.1792560E+03  0.7818608E-02  0.1168525E+00
          1   -1    0    0  502    0  0.00000000000E+00  0.00000000000E+00  0.50463986552E+03  0.50463986552E+03  0.00000000000E+00 0. -1.
         -1   -1    0    0    0  501 -0.00000000000E+00 -0.00000000000E+00 -0.66787189334E+02  0.66787189334E+02  0.00000000000E+00 0.  1.
          6    1    1    2  502    0 -0.44329159313E+02 -0.24158523427E+02  0.28060709418E+03  0.33297605008E+03  0.17200000000E+03 0.  1.
         -6    1    1    2    0  501  0.44329159313E+02  0.24158523427E+02  0.15724558200E+03  0.23845100478E+03  0.17200000000E+03 0.  1.
</event>
<event>
 4    1  0.3190379E-002  0.1835608E+03  0.7818608E-02  0.1164401E+00
          2   -1    0    0  502    0  0.00000000000E+00  0.00000000000E+00  0.11763790248E+04  0.11763790248E+04  0.00000000000E+00 0. -1.
         -2   -1    0    0    0  501 -0.00000000000E+00 -0.00000000000E+00 -0.55881381523E+02  0.55881381523E+02  0.00000000000E+00 0.  1.
          6    1    1    2  502    0 -0.60809885806E+02 -0.20315714790E+02  0.99041143017E+03  0.10072781996E+04  0.17200000000E+03 0. -1.
         -6    1    1    2    0  501  0.60809885806E+02  0.20315714790E+02  0.13008621311E+03  0.22498220668E+03  0.17200000000E+03 0.  1.
</event>
<event>
 4    1  0.3190379E-002  0.2263707E+03  0.7818608E-02  0.1129221E+00
          1   -1    0    0  502    0  0.00000000000E+00  0.00000000000E+00  0.17506370264E+03  0.17506370264E+03  0.00000000000E+00 0. -1.
         -1   -1    0    0    0  501 -0.00000000000E+00 -0.00000000000E+00 -0.45422779226E+03  0.45422779226E+03  0.00000000000E+00 0.  1.
          6    1    1    2  502    0 -0.11527046500E+03  0.91501006958E+02  0.48042183004E+02  0.23141254444E+03  0.17200000000E+03 0. -1.
         -6    1    1    2    0  501  0.11527046500E+03 -0.91501006958E+02 -0.32720627262E+03  0.39787895046E+03  0.17200000000E+03 0.  1.
</event>
<event>
 4    1  0.3190379E-002  0.3106102E+03  0.7818608E-02  0.1080054E+00
         -1   -1    0    0    0  501 -0.00000000000E+00  0.00000000000E+00  0.37309804261E+03  0.37309804261E+03  0.00000000000E+00 0.  1.
          1   -1    0    0  502    0  0.00000000000E+00 -0.00000000000E+00 -0.30314605285E+03  0.30314605285E+03  0.00000000000E+00 0. -1.
          6    1    1    2  502    0 -0.25830373235E+03  0.13186212699E+02 -0.94655462137E+02  0.32471272052E+03  0.17200000000E+03 0. -1.
         -6    1    1    2    0  501  0.25830373235E+03 -0.13186212699E+02  0.16460745190E+03  0.35153137495E+03  0.17200000000E+03 0. -1.
</event>
<event>
 4    1  0.3190379E-002  0.2719968E+03  0.7818608E-02  0.1100142E+00
         -2   -1    0    0    0  501 -0.00000000000E+00  0.00000000000E+00  0.11685823322E+03  0.11685823322E+03  0.00000000000E+00 0.  1.
          2   -1    0    0  502    0  0.00000000000E+00 -0.00000000000E+00 -0.79830063792E+03  0.79830063792E+03  0.00000000000E+00 0. -1.
          6    1    1    2  502    0 -0.66085574757E+01 -0.21060531320E+03 -0.13256146605E+03  0.30258025921E+03  0.17200000000E+03 0. -1.
         -6    1    1    2    0  501  0.66085574757E+01  0.21060531320E+03 -0.54888093865E+03  0.61257861193E+03  0.17200000000E+03 0.  1.
</event>
<event>
 4    1  0.3190379E-002  0.6188206E+03  0.7818608E-02  0.9867111E-01
         -1   -1    0    0    0  501 -0.00000000000E+00  0.00000000000E+00  0.34825613021E+03  0.34825613021E+03  0.00000000000E+00 0.  1.
          1   -1    0    0  502    0  0.00000000000E+00 -0.00000000000E+00 -0.12283600504E+04  0.12283600504E+04  0.00000000000E+00 0. -1.
          6    1    1    2  502    0  0.53262494305E+03  0.26394248857E+03 -0.69528713810E+03  0.93078631900E+03  0.17200000000E+03 0. -1.
         -6    1    1    2    0  501 -0.53262494305E+03 -0.26394248857E+03 -0.18481678211E+03  0.64582986164E+03  0.17200000000E+03 0.  1.
</event>
<event>
 4    1  0.3190379E-002  0.2362806E+03  0.7818608E-02  0.1122296E+00
          2   -1    0    0  502    0  0.00000000000E+00  0.00000000000E+00  0.63176218776E+03  0.63176218776E+03  0.00000000000E+00 0. -1.
         -2   -1    0    0    0  501 -0.00000000000E+00 -0.00000000000E+00 -0.13022627069E+03  0.13022627069E+03  0.00000000000E+00 0.  1.
          6    1    1    2  502    0 -0.12956631287E+03  0.97247496065E+02  0.46676708051E+03  0.52316346621E+03  0.17200000000E+03 0. -1.
         -6    1    1    2    0  501  0.12956631287E+03 -0.97247496065E+02  0.34768836558E+02  0.23882499224E+03  0.17200000000E+03 0.  1.
</event>
<event>
 4    1  0.3190379E-002  0.1911244E+03  0.7818608E-02  0.1157451E+00
          1   -1    0    0  502    0  0.00000000000E+00  0.00000000000E+00  0.41225442950E+03  0.41225442950E+03  0.00000000000E+00 0. -1.
         -1   -1    0    0    0  501 -0.00000000000E+00 -0.00000000000E+00 -0.92387065416E+02  0.92387065416E+02  0.00000000000E+00 0.  1.
          6    1    1    2  502    0 -0.76050004207E+02  0.34072651365E+02  0.10889398181E+03  0.21996919781E+03  0.17200000000E+03 0. -1.
         -6    1    1    2    0  501  0.76050004207E+02 -0.34072651365E+02  0.21097338227E+03  0.28467229710E+03  0.17200000000E+03 0. -1.
</event>
<event>
 4    1  0.3190379E-002  0.3262139E+03  0.7818608E-02  0.1072824E+00
         -2   -1    0    0    0  501 -0.00000000000E+00  0.00000000000E+00  0.73066635345E+03  0.73066635345E+03  0.00000000000E+00 0.  1.
          2   -1    0    0  502    0  0.00000000000E+00 -0.00000000000E+00 -0.17236805018E+03  0.17236805018E+03  0.00000000000E+00 0. -1.
          6    1    1    2  502    0  0.30897534599E+02 -0.27545754735E+03  0.10135583566E+03  0.34159701911E+03  0.17200000000E+03 0. -1.
         -6    1    1    2    0  501 -0.30897534599E+02  0.27545754735E+03  0.45694246761E+03  0.56143738453E+03  0.17200000000E+03 0.  1.
</event>
<event>
 4    1  0.3190379E-002  0.3994448E+03  0.7818608E-02  0.1043972E+00
          1   -1    0    0  502    0  0.00000000000E+00  0.00000000000E+00  0.25198508699E+03  0.25198508699E+03  0.00000000000E+00 0. -1.
         -1   -1    0    0    0  501 -0.00000000000E+00 -0.00000000000E+00 -0.66267039012E+03  0.66267039012E+03  0.00000000000E+00 0.  1.
          6    1    1    2  502    0  0.31827442130E+03 -0.16933265232E+03 -0.10889421915E+03  0.41402186580E+03  0.17200000000E+03 0. -1.
         -6    1    1    2    0  501 -0.31827442130E+03  0.16933265232E+03 -0.30179108399E+03  0.50063361131E+03  0.17200000000E+03 0.  1.
</event>
<event>
 4    1  0.3190379E-002  0.2625507E+03  0.7818608E-02  0.1105620E+00
         -1   -1    0    0    0  501 -0.00000000000E+00  0.00000000000E+00  0.15104336336E+04  0.15104336336E+04  0.00000000000E+00 0.  1.
          1   -1    0    0  502    0  0.00000000000E+00 -0.00000000000E+00 -0.48297813391E+02  0.48297813391E+02  0.00000000000E+00 0. -1.
          6    1    1    2  502    0 -0.85880167123E+02 -0.17881132265E+03  0.54816602804E+03  0.60779839298E+03  0.17200000000E+03 0. -1.
         -6    1    1    2    0  501  0.85880167123E+02  0.17881132265E+03  0.91396979218E+03  0.95093305402E+03  0.17200000000E+03 0.  1.
</event>
<event>
 4    1  0.3190379E-002  0.1990527E+03  0.7818608E-02  0.1150541E+00
          2   -1    0    0  502    0  0.00000000000E+00  0.00000000000E+00  0.89956144571E+03  0.89956144571E+03  0.00000000000E+00 0. -1.
         -2   -1    0    0    0  501 -0.00000000000E+00 -0.00000000000E+00 -0.48213119532E+02  0.48213119532E+02  0.00000000000E+00 0.  1.
          6    1    1    2  502    0  0.94303875516E+02 -0.33834236669E+02  0.56499517204E+03  0.59903382286E+03  0.17200000000E+03 0. -1.
         -6    1    1    2    0  501 -0.94303875516E+02  0.33834236669E+02  0.28635315414E+03  0.34874074238E+03  0.17200000000E+03 0.  1.
</event>
<event>
 4    1  0.3190379E-002  0.5597619E+03  0.7818608E-02  0.9992593E-01
          2   -1    0    0  502    0  0.00000000000E+00  0.00000000000E+00  0.31425024728E+03  0.31425024728E+03  0.00000000000E+00 0. -1.
         -2   -1    0    0    0  501 -0.00000000000E+00 -0.00000000000E+00 -0.12716041989E+04  0.12716041989E+04  0.00000000000E+00 0.  1.
          6    1    1    2  502    0  0.47452126640E+03  0.24203099525E+03 -0.11025488855E+03  0.57051693698E+03  0.17200000000E+03 0. -1.
         -6    1    1    2    0  501 -0.47452126640E+03 -0.24203099525E+03 -0.84709906308E+03  0.10153375092E+04  0.17200000000E+03 0.  1.
</event>
<event>
 4    1  0.3190379E-002  0.2184073E+03  0.7818608E-02  0.1135076E+00
         -1   -1    0    0    0  501 -0.00000000000E+00  0.00000000000E+00  0.30394232654E+02  0.30394232654E+02  0.00000000000E+00 0.  1.
          1   -1    0    0  502    0  0.00000000000E+00 -0.00000000000E+00 -0.19673765202E+04  0.19673765202E+04  0.00000000000E+00 0. -1.
          6    1    1    2  502    0 -0.12448184143E+03 -0.51205778125E+02 -0.14177345954E+04  0.14344591816E+04  0.17200000000E+03 0.  1.
         -6    1    1    2    0  501  0.12448184143E+03  0.51205778125E+02 -0.51924769216E+03  0.56331157132E+03  0.17200000000E+03 0.  1.
</event>
<event>
 4    1  0.3190379E-002  0.3499110E+03  0.7818608E-02  0.1062652E+00
         -1   -1    0    0    0  501 -0.00000000000E+00  0.00000000000E+00  0.10082621775E+03  0.10082621775E+03  0.00000000000E+00 0.  1.
          1   -1    0    0  502    0  0.00000000000E+00 -0.00000000000E+00 -0.18738291503E+04  0.18738291503E+04  0.00000000000E+00 0. -1.
          6    1    1    2  502    0  0.25578887850E+03  0.16560722361E+03 -0.14722333449E+04  0.15132444365E+04  0.17200000000E+03 0. -1.
         -6    1    1    2    0  501 -0.25578887850E+03 -0.16560722361E+03 -0.30076958766E+03  0.46141093153E+03  0.17200000000E+03 0.  1.
</event>
<event>
 4    1  0.3190379E-002  0.2984581E+03  0.7818608E-02  0.1086014E+00
         -2   -1    0    0    0  501 -0.00000000000E+00  0.00000000000E+00  0.11136302402E+03  0.11136302402E+03  0.00000000000E+00 0.  1.
          2   -1    0    0  502    0  0.00000000000E+00 -0.00000000000E+00 -0.16804235921E+04  0.16804235921E+04  0.00000000000E+00 0. -1.
          6    1    1    2  502    0  0.16610795039E+02  0.24334608878E+03 -0.14330481359E+04  0.14637978676E+04  0.17200000000E+03 0. -1.
         -6    1    1    2    0  501 -0.16610795039E+02 -0.24334608878E+03 -0.13601243220E+03  0.32798874851E+03  0.17200000000E+03 0.  1.
</event>
<event>
 4    1  0.3190379E-002  0.2010476E+03  0.7818608E-02  0.1148858E+00
          1   -1    0    0  502    0  0.00000000000E+00  0.00000000000E+00  0.59209776345E+03  0.59209776345E+03  0.00000000000E+00 0. -1.
         -1   -1    0    0    0  501 -0.00000000000E+00 -0.00000000000E+00 -0.70658916911E+02  0.70658916911E+02  0.00000000000E+00 0.  1.
          6    1    1    2  502    0 -0.10066475673E+03 -0.26509374497E+02  0.32170193650E+03  0.37935771526E+03  0.17200000000E+03 0. -1.
         -6    1    1    2    0  501  0.10066475673E+03  0.26509374497E+02  0.19973691004E+03  0.28339896510E+03  0.17200000000E+03 0.  1.
</event>
<event>
 4    1  0.3190379E-002  0.1730694E+03  0.7818608E-02  0.1174684E+00
          2   -1    0    0  502    0  0.00000000000E+00  0.00000000000E+00  0.11635820866E+03  0.11635820866E+03  0.00000000000E+00 0. -1.
         -2   -1    0    0    0  501 -0.00000000000E+00 -0.00000000000E+00 -0.42408717289E+03  0.42408717289E+03  0.00000000000E+00 0.  1.
          6    1    1    2  502    0  0.11012661562E+02 -0.15740237622E+02  0.15537356145E+02  0.17376548343E+03  0.17200000000E+03 0. -1.
         -6    1    1    2    0  501 -0.11012661562E+02  0.15740237622E+02 -0.32326632038E+03  0.36667989812E+03  0.17200000000E+03 0.  1.
</event>
<event>
 4    1  0.3190379E-002  0.2056866E+03  0.7818608E-02  0.1145028E+00
          2   -1    0    0  502    0  0.00000000000E+00  0.00000000000E+00  0.97923798017E+03  0.97923798017E+03  0.00000000000E+00 0. -1.
         -2   -1    0    0    0  501 -0.00000000000E+00 -0.00000000000E+00 -0.43308105834E+02  0.43308105834E+02  0.00000000000E+00 0.  1.
          6    1    1    2  502    0 -0.78662721651E+01  0.11252160059E+03  0.49303322664E+03  0.53421788758E+03  0.17200000000E+03 0.  1.
         -6    1    1    2    0  501  0.78662721651E+01 -0.11252160059E+03  0.44289664770E+03  0.48832819843E+03  0.17200000000E+03 0.  1.
</event>
<event>
 4    1  0.3190379E-002  0.2031070E+03  0.7818608E-02  0.1147144E+00
         -2   -1    0    0    0  501 -0.00000000000E+00  0.00000000000E+00  0.24479289481E+03  0.24479289481E+03  0.00000000000E+00 0.  1.
          2   -1    0    0  502    0  0.00000000000E+00 -0.00000000000E+00 -0.18864685614E+03  0.18864685614E+03  0.00000000000E+00 0. -1.
          6    1    1    2  502    0  0.33337648717E+02 -0.10274751332E+03 -0.42715700290E+02  0.20755019000E+03  0.17200000000E+03 0. -1.
         -6    1    1    2    0  501 -0.33337648717E+02  0.10274751332E+03  0.98861738968E+02  0.22588956095E+03  0.17200000000E+03 0.  1.
</event>
<event>
 4    1  0.3190379E-002  0.3915711E+03  0.7818608E-02  0.1046738E+00
         -2   -1    0    0    0  501 -0.00000000000E+00  0.00000000000E+00  0.15413680450E+03  0.15413680450E+03  0.00000000000E+00 0.  1.
          2   -1    0    0  502    0  0.00000000000E+00 -0.00000000000E+00 -0.12014991306E+04  0.12014991306E+04  0.00000000000E+00 0. -1.
          6    1    1    2  502    0  0.32654267886E+03 -0.13081983441E+03 -0.80485228431E+03  0.89505036157E+03  0.17200000000E+03 0. -1.
         -6    1    1    2    0  501 -0.32654267886E+03  0.13081983441E+03 -0.24251004181E+03  0.46058557356E+03  0.17200000000E+03 0.  1.
</event>
<event>
 4    1  0.3190379E-002  0.2440639E+03  0.7818608E-02  0.1117115E+00
         -1   -1    0    0    0  501 -0.00000000000E+00  0.00000000000E+00  0.19007522923E+03  0.19007522923E+03  0.00000000000E+00 0.  1.
          1   -1    0    0  502    0  0.00000000000E+00 -0.00000000000E+00 -0.31601300825E+03  0.31601300825E+03  0.00000000000E+00 0. -1.
          6    1    1    2  502    0 -0.52726041674E+02  0.16493384697E+03 -0.86033535125E+02  0.25878365194E+03  0.17200000000E+03 0. -1.
         -6    1    1    2    0  501  0.52726041674E+02 -0.16493384697E+03 -0.39904243904E+02  0.24730458554E+03  0.17200000000E+03 0.  1.
</event>
<event>
 4    1  0.3190379E-002  0.2201853E+03  0.7818608E-02  0.1133745E+00
         -2   -1    0    0    0  501 -0.00000000000E+00  0.00000000000E+00  0.33129152515E+02  0.33129152515E+02  0.00000000000E+00 0.  1.
          2   -1    0    0  502    0  0.00000000000E+00 -0.00000000000E+00 -0.15450775947E+04  0.15450775947E+04  0.00000000000E+00 0. -1.
          6    1    1    2  502    0 -0.10261605141E+03  0.91474076733E+02 -0.93739265631E+03  0.96290526679E+03  0.17200000000E+03 0. -1.
         -6    1    1    2    0  501  0.10261605141E+03 -0.91474076733E+02 -0.57455578586E+03  0.61530148040E+03  0.17200000000E+03 0. -1.
</event>
<event>
 4    1  0.3190379E-002  0.2610765E+03  0.7818608E-02  0.1106498E+00
         -1   -1    0    0    0  501 -0.00000000000E+00  0.00000000000E+00  0.58334632647E+02  0.58334632647E+02  0.00000000000E+00 0.  1.
          1   -1    0    0  502    0  0.00000000000E+00 -0.00000000000E+00 -0.23923637642E+04  0.23923637642E+04  0.00000000000E+00 0. -1.
          6    1    1    2  502    0 -0.18260610898E+03 -0.72332372449E+02 -0.29057476100E+03  0.39063365814E+03  0.17200000000E+03 0. -1.
         -6    1    1    2    0  501  0.18260610898E+03  0.72332372449E+02 -0.20434543706E+04  0.20600647387E+04  0.17200000000E+03 0. -1.
</event>
<event>
 4    1  0.3190379E-002  0.1889775E+03  0.7818608E-02  0.1159387E+00
          2   -1    0    0  502    0  0.00000000000E+00  0.00000000000E+00  0.18371199031E+04  0.18371199031E+04  0.00000000000E+00 0. -1.
         -2   -1    0    0    0  501 -0.00000000000E+00 -0.00000000000E+00 -0.39019233349E+02  0.39019233349E+02  0.00000000000E+00 0.  1.
          6    1    1    2  502    0  0.22878375522E+02 -0.74867142851E+02  0.15635582736E+04  0.15749371365E+04  0.17200000000E+03 0. -1.
         -6    1    1    2    0  501 -0.22878375522E+02  0.74867142851E+02  0.23454239612E+03  0.30120199986E+03  0.17200000000E+03 0.  1.
</event>
<event>
 4    1  0.3190379E-002  0.6288378E+03  0.7818608E-02  0.9847319E-01
         -2   -1    0    0    0  501 -0.00000000000E+00  0.00000000000E+00  0.13576742849E+04  0.13576742849E+04  0.00000000000E+00 0.  1.
          2   -1    0    0  502    0  0.00000000000E+00 -0.00000000000E+00 -0.95060552216E+03  0.95060552216E+03  0.00000000000E+00 0. -1.
          6    1    1    2  502    0  0.32387587876E+03  0.51083986669E+03 -0.75766756341E+03  0.98463043366E+03  0.17200000000E+03 0. -1.
         -6    1    1    2    0  501 -0.32387587876E+03 -0.51083986669E+03  0.11647363262E+04  0.13236493734E+04  0.17200000000E+03 0.  1.
</event>
<event>
 4    1  0.3190379E-002  0.3106431E+03  0.7818608E-02  0.1080038E+00
         -2   -1    0    0    0  501 -0.00000000000E+00  0.00000000000E+00  0.11843650339E+03  0.11843650339E+03  0.00000000000E+00 0.  1.
          2   -1    0    0  502    0  0.00000000000E+00 -0.00000000000E+00 -0.82197822004E+03  0.82197822004E+03  0.00000000000E+00 0. -1.
          6    1    1    2  502    0 -0.24374046300E+03 -0.86635684000E+02 -0.30775500551E+03  0.43727828492E+03  0.17200000000E+03 0. -1.
         -6    1    1    2    0  501  0.24374046300E+03  0.86635684000E+02 -0.39578671114E+03  0.50313643852E+03  0.17200000000E+03 0.  1.
</event>
<event>
 4    1  0.3190379E-002  0.2641213E+03  0.7818608E-02  0.1104692E+00
         -3   -1    0    0    0  501 -0.00000000000E+00  0.00000000000E+00  0.27291687825E+03  0.27291687825E+03  0.00000000000E+00 0.  1.
          3   -1    0    0  502    0  0.00000000000E+00 -0.00000000000E+00 -0.50823812819E+03  0.50823812819E+03  0.00000000000E+00 0. -1.
          6    1    1    2  502    0 -0.11814340588E+03 -0.16192032843E+03 -0.39302970126E+03  0.47353183967E+03  0.17200000000E+03 0. -1.
         -6    1    1    2    0  501  0.11814340588E+03  0.16192032843E+03  0.15770845132E+03  0.30762316676E+03  0.17200000000E+03 0.  1.
</event>
<event>
 4    1  0.3190379E-002  0.2807007E+03  0.7818608E-02  0.1095307E+00
         -2   -1    0    0    0  501 -0.00000000000E+00  0.00000000000E+00  0.24091874918E+03  0.24091874918E+03  0.00000000000E+00 0.  1.
          2   -1    0    0  502    0  0.00000000000E+00 -0.00000000000E+00 -0.49592777537E+03  0.49592777537E+03  0.00000000000E+00 0. -1.
          6    1    1    2  502    0 -0.13340111259E+03  0.17723713897E+03 -0.34249638012E+03  0.44282799219E+03  0.17200000000E+03 0. -1.
         -6    1    1    2    0  501  0.13340111259E+03 -0.17723713897E+03  0.87487353935E+02  0.29401853236E+03  0.17200000000E+03 0.  1.
</event>
<event>
 4    1  0.3190379E-002  0.7709326E+03  0.7818608E-02  0.9603071E-01
          1   -1    0    0  502    0  0.00000000000E+00  0.00000000000E+00  0.14185421748E+04  0.14185421748E+04  0.00000000000E+00 0. -1.
         -1   -1    0    0    0  501 -0.00000000000E+00 -0.00000000000E+00 -0.10897567944E+04  0.10897567944E+04  0.00000000000E+00 0.  1.
          6    1    1    2  502    0 -0.48412012852E+03  0.57478764064E+03  0.11483457115E+04  0.13831250861E+04  0.17200000000E+03 0. -1.
         -6    1    1    2    0  501  0.48412012852E+03 -0.57478764064E+03 -0.81956033119E+03  0.11251738831E+04  0.17200000000E+03 0.  1.
</event>
<event>
 4    1  0.3190379E-002  0.1827902E+03  0.7818608E-02  0.1165130E+00
         -2   -1    0    0    0  501 -0.00000000000E+00  0.00000000000E+00  0.19924661835E+02  0.19924661835E+02  0.00000000000E+00 0.  1.
          2   -1    0    0  502    0  0.00000000000E+00 -0.00000000000E+00 -0.19312754322E+04  0.19312754322E+04  0.00000000000E+00 0. -1.
          6    1    1    2  502    0  0.60445685924E+02 -0.13212382012E+02 -0.13097235329E+04  0.13224174759E+04  0.17200000000E+03 0. -1.
         -6    1    1    2    0  501 -0.60445685924E+02  0.13212382012E+02 -0.60162723746E+03  0.62878261811E+03  0.17200000000E+03 0.  1.
</event>
<event>
 4    1  0.3190379E-002  0.1877615E+03  0.7818608E-02  0.1160496E+00
          2   -1    0    0  502    0  0.00000000000E+00  0.00000000000E+00  0.75890102862E+02  0.75890102862E+02  0.00000000000E+00 0. -1.
         -2   -1    0    0    0  501 -0.00000000000E+00 -0.00000000000E+00 -0.55918923288E+03  0.55918923288E+03  0.00000000000E+00 0.  1.
          6    1    1    2  502    0  0.35078786501E+02  0.66632375623E+02 -0.11101297061E+03  0.21812444702E+03  0.17200000000E+03 0. -1.
         -6    1    1    2    0  501 -0.35078786501E+02 -0.66632375623E+02 -0.37228615940E+03  0.41695488872E+03  0.17200000000E+03 0.  1.
</event>
<event>
 4    1  0.3190379E-002  0.2143832E+03  0.7818608E-02  0.1138141E+00
          2   -1    0    0  502    0  0.00000000000E+00  0.00000000000E+00  0.13010091147E+04  0.13010091147E+04  0.00000000000E+00 0. -1.
         -2   -1    0    0    0  501 -0.00000000000E+00 -0.00000000000E+00 -0.60626148084E+02  0.60626148084E+02  0.00000000000E+00 0.  1.
          6    1    1    2  502    0 -0.12436478905E+03  0.30159174490E+02  0.10599938189E+04  0.10814559967E+04  0.17200000000E+03 0. -1.
         -6    1    1    2    0  501  0.12436478905E+03 -0.30159174490E+02  0.18038914771E+03  0.28017926614E+03  0.17200000000E+03 0.  1.
</event>
<event>
 4    1  0.3190379E-002  0.2844778E+03  0.7818608E-02  0.1093268E+00
         -2   -1    0    0    0  501 -0.00000000000E+00  0.00000000000E+00  0.74727660165E+03  0.74727660165E+03  0.00000000000E+00 0.  1.
          2   -1    0    0  502    0  0.00000000000E+00 -0.00000000000E+00 -0.22350009919E+03  0.22350009919E+03  0.00000000000E+00 0. -1.
          6    1    1    2  502    0  0.17643015412E+03 -0.14218309728E+03 -0.86595897427E+02  0.29736590572E+03  0.17200000000E+03 0. -1.
         -6    1    1    2    0  501 -0.17643015412E+03  0.14218309728E+03  0.61037239988E+03  0.67341079511E+03  0.17200000000E+03 0.  1.
</event>
<event>
 4    1  0.3190379E-002  0.2101843E+03  0.7818608E-02  0.1141420E+00
          2   -1    0    0  502    0  0.00000000000E+00  0.00000000000E+00  0.32147697827E+03  0.32147697827E+03  0.00000000000E+00 0. -1.
         -2   -1    0    0    0  501 -0.00000000000E+00 -0.00000000000E+00 -0.17170407814E+03  0.17170407814E+03  0.00000000000E+00 0.  1.
          6    1    1    2  502    0 -0.63196397573E+02  0.10295453359E+03 -0.35300777050E+02  0.21312804957E+03  0.17200000000E+03 0.  1.
         -6    1    1    2    0  501  0.63196397573E+02 -0.10295453359E+03  0.18507367718E+03  0.28005300684E+03  0.17200000000E+03 0. -1.
</event>
<event>
 4    1  0.3190379E-002  0.5393209E+03  0.7818608E-02  0.1003996E+00
          2   -1    0    0  502    0  0.00000000000E+00  0.00000000000E+00  0.78684061174E+03  0.78684061174E+03  0.00000000000E+00 0. -1.
         -2   -1    0    0    0  501 -0.00000000000E+00 -0.00000000000E+00 -0.37064635693E+03  0.37064635693E+03  0.00000000000E+00 0.  1.
          6    1    1    2  502    0 -0.35312580393E+03 -0.36957429180E+03  0.23788535178E+03  0.58945435036E+03  0.17200000000E+03 0. -1.
         -6    1    1    2    0  501  0.35312580393E+03  0.36957429180E+03  0.17830890304E+03  0.56803261831E+03  0.17200000000E+03 0.  1.
</event>
<event>
 4    1  0.3190379E-002  0.3425315E+03  0.7818608E-02  0.1065723E+00
          2   -1    0    0  502    0  0.00000000000E+00  0.00000000000E+00  0.37628949218E+04  0.37628949218E+04  0.00000000000E+00 0. -1.
         -2   -1    0    0    0  501 -0.00000000000E+00 -0.00000000000E+00 -0.32240972915E+02  0.32240972915E+02  0.00000000000E+00 0.  1.
          6    1    1    2  502    0  0.29058265935E+03 -0.57494073278E+02  0.15211335093E+04  0.15592225638E+04  0.17200000000E+03 0. -1.
         -6    1    1    2    0  501 -0.29058265935E+03  0.57494073278E+02  0.22095204395E+04  0.22359133309E+04  0.17200000000E+03 0.  1.
</event>
<event>
 4    1  0.3190379E-002  0.5115638E+03  0.7818608E-02  0.1010804E+00
         -2   -1    0    0    0  501 -0.00000000000E+00  0.00000000000E+00  0.25667337809E+03  0.25667337809E+03  0.00000000000E+00 0.  1.
          2   -1    0    0  502    0  0.00000000000E+00 -0.00000000000E+00 -0.30151076780E+04  0.30151076780E+04  0.00000000000E+00 0. -1.
          6    1    1    2  502    0  0.28647761856E+02  0.48092916147E+03 -0.27100770334E+04  0.27579367432E+04  0.17200000000E+03 0. -1.
         -6    1    1    2    0  501 -0.28647761856E+02 -0.48092916147E+03 -0.48357266472E+02  0.51384431284E+03  0.17200000000E+03 0.  1.
</event>
<event>
 4    1  0.3190379E-002  0.2287460E+03  0.7818608E-02  0.1127526E+00
          1   -1    0    0  502    0  0.00000000000E+00  0.00000000000E+00  0.11325778928E+04  0.11325778928E+04  0.00000000000E+00 0. -1.
         -1   -1    0    0    0  501 -0.00000000000E+00 -0.00000000000E+00 -0.47816494838E+02  0.47816494838E+02  0.00000000000E+00 0.  1.
          6    1    1    2  502    0 -0.14858142164E+03 -0.25773648164E+02  0.65090833988E+03  0.68993216096E+03  0.17200000000E+03 0. -1.
         -6    1    1    2    0  501  0.14858142164E+03  0.25773648164E+02  0.43385305810E+03  0.49046222670E+03  0.17200000000E+03 0.  1.
</event>
<event>
 4    1  0.3190379E-002  0.4105882E+03  0.7818608E-02  0.1040174E+00
          1   -1    0    0  502    0  0.00000000000E+00  0.00000000000E+00  0.27075895110E+03  0.27075895110E+03  0.00000000000E+00 0. -1.
         -1   -1    0    0    0  501 -0.00000000000E+00 -0.00000000000E+00 -0.64141337447E+03  0.64141337447E+03  0.00000000000E+00 0.  1.
          6    1    1    2  502    0  0.26596135795E+03 -0.26127229885E+03 -0.10727878158E+03  0.42437176514E+03  0.17200000000E+03 0. -1.
         -6    1    1    2    0  501 -0.26596135795E+03  0.26127229885E+03 -0.26337564179E+03  0.48780056043E+03  0.17200000000E+03 0.  1.
</event>
<event>
 4    1  0.3190379E-002  0.3597279E+03  0.7818608E-02  0.1058692E+00
         -2   -1    0    0    0  501 -0.00000000000E+00  0.00000000000E+00  0.46706386462E+02  0.46706386462E+02  0.00000000000E+00 0.  1.
          2   -1    0    0  502    0  0.00000000000E+00 -0.00000000000E+00 -0.29068387127E+04  0.29068387127E+04  0.00000000000E+00 0. -1.
          6    1    1    2  502    0  0.30040687306E+03  0.97856271086E+02 -0.11103437842E+04  0.11671621389E+04  0.17200000000E+03 0. -1.
         -6    1    1    2    0  501 -0.30040687306E+03 -0.97856271086E+02 -0.17497885420E+04  0.17863829603E+04  0.17200000000E+03 0.  1.
</event>
<event>
 4    1  0.3190379E-002  0.3092473E+03  0.7818608E-02  0.1080707E+00
         -1   -1    0    0    0  501 -0.00000000000E+00  0.00000000000E+00  0.34664440282E+03  0.34664440282E+03  0.00000000000E+00 0.  1.
          1   -1    0    0  502    0  0.00000000000E+00 -0.00000000000E+00 -0.24255878854E+04  0.24255878854E+04  0.00000000000E+00 0. -1.
          6    1    1    2  502    0 -0.56036243299E+02  0.25081835267E+03 -0.23443811385E+04  0.23646895841E+04  0.17200000000E+03 0. -1.
         -6    1    1    2    0  501  0.56036243299E+02 -0.25081835267E+03  0.26543765585E+03  0.40754270419E+03  0.17200000000E+03 0.  1.
</event>
<event>
 4    1  0.3190379E-002  0.1938453E+03  0.7818608E-02  0.1155038E+00
          2   -1    0    0  502    0  0.00000000000E+00  0.00000000000E+00  0.23938511934E+04  0.23938511934E+04  0.00000000000E+00 0. -1.
         -2   -1    0    0    0  501 -0.00000000000E+00 -0.00000000000E+00 -0.27670811007E+02  0.27670811007E+02  0.00000000000E+00 0.  1.
          6    1    1    2  502    0 -0.71659105193E+02 -0.53450574938E+02  0.19795537007E+04  0.19890220827E+04  0.17200000000E+03 0. -1.
         -6    1    1    2    0  501  0.71659105193E+02  0.53450574938E+02  0.38662668166E+03  0.43249992172E+03  0.17200000000E+03 0.  1.
</event>
<event>
 4    1  0.3190379E-002  0.1949172E+03  0.7818608E-02  0.1154100E+00
          2   -1    0    0  502    0  0.00000000000E+00  0.00000000000E+00  0.37664936334E+03  0.37664936334E+03  0.00000000000E+00 0. -1.
         -2   -1    0    0    0  501 -0.00000000000E+00 -0.00000000000E+00 -0.10157178297E+03  0.10157178297E+03  0.00000000000E+00 0.  1.
          6    1    1    2  502    0 -0.32790350298E+02 -0.85635875300E+02  0.11766683561E+03  0.22768002638E+03  0.17200000000E+03 0. -1.
         -6    1    1    2    0  501  0.32790350298E+02  0.85635875300E+02  0.15741074476E+03  0.25054111993E+03  0.17200000000E+03 0. -1.
</event>
<event>
 4    1  0.3190379E-002  0.2202451E+03  0.7818608E-02  0.1133700E+00
         -1   -1    0    0    0  501 -0.00000000000E+00  0.00000000000E+00  0.89998689999E+02  0.89998689999E+02  0.00000000000E+00 0.  1.
          1   -1    0    0  502    0  0.00000000000E+00 -0.00000000000E+00 -0.95738653978E+03  0.95738653978E+03  0.00000000000E+00 0. -1.
          6    1    1    2  502    0  0.90423715719E+02 -0.10366986594E+03 -0.77989606004E+03  0.81039851551E+03  0.17200000000E+03 0. -1.
         -6    1    1    2    0  501 -0.90423715719E+02  0.10366986594E+03 -0.87491789740E+02  0.23698671427E+03  0.17200000000E+03 0.  1.
</event>
<event>
 4    1  0.3190379E-002  0.1960795E+03  0.7818608E-02  0.1153090E+00
         -1   -1    0    0    0  501 -0.00000000000E+00  0.00000000000E+00  0.20074912523E+02  0.20074912523E+02  0.00000000000E+00 0.  1.
          1   -1    0    0  502    0  0.00000000000E+00 -0.00000000000E+00 -0.19398955804E+04  0.19398955804E+04  0.00000000000E+00 0. -1.
          6    1    1    2  502    0 -0.59403765235E+02  0.73036740292E+02 -0.84930623694E+03  0.87164686477E+03  0.17200000000E+03 0. -1.
         -6    1    1    2    0  501  0.59403765235E+02 -0.73036740292E+02 -0.10705144310E+04  0.10883236282E+04  0.17200000000E+03 0. -1.
</event>
<event>
 4    1  0.3190379E-002  0.3429625E+03  0.7818608E-02  0.1065541E+00
          1   -1    0    0  502    0  0.00000000000E+00  0.00000000000E+00  0.98876788865E+03  0.98876788865E+03  0.00000000000E+00 0. -1.
         -1   -1    0    0    0  501 -0.00000000000E+00 -0.00000000000E+00 -0.14996208119E+03  0.14996208119E+03  0.00000000000E+00 0.  1.
          6    1    1    2  502    0  0.29171767368E+03 -0.54222184530E+02  0.67828354176E+03  0.76006039856E+03  0.17200000000E+03 0. -1.
         -6    1    1    2    0  501 -0.29171767368E+03  0.54222184530E+02  0.16052226569E+03  0.37866957128E+03  0.17200000000E+03 0.  1.
</event>
<event>
 4    1  0.3190379E-002  0.5302107E+03  0.7818608E-02  0.1006181E+00
         -1   -1    0    0    0  501 -0.00000000000E+00  0.00000000000E+00  0.23373247658E+03  0.23373247658E+03  0.00000000000E+00 0.  1.
          1   -1    0    0  502    0  0.00000000000E+00 -0.00000000000E+00 -0.12789617577E+04  0.12789617577E+04  0.00000000000E+00 0. -1.
          6    1    1    2  502    0  0.14987609998E+03 -0.47861940843E+03 -0.70723656949E+03  0.88391569094E+03  0.17200000000E+03 0. -1.
         -6    1    1    2    0  501 -0.14987609998E+03  0.47861940843E+03 -0.33799271167E+03  0.62877854338E+03  0.17200000000E+03 0.  1.
</event>
<event>
 4    1  0.3190379E-002  0.5513474E+03  0.7818608E-02  0.1001183E+00
          2   -1    0    0  502    0  0.00000000000E+00  0.00000000000E+00  0.24995751628E+03  0.24995751628E+03  0.00000000000E+00 0. -1.
         -2   -1    0    0    0  501 -0.00000000000E+00 -0.00000000000E+00 -0.18688358805E+04  0.18688358805E+04  0.00000000000E+00 0.  1.
          6    1    1    2  502    0  0.45444027874E+03  0.26054565029E+03 -0.18336242842E+03  0.58103853829E+03  0.17200000000E+03 0. -1.
         -6    1    1    2    0  501 -0.45444027874E+03 -0.26054565029E+03 -0.14355159358E+04  0.15377548584E+04  0.17200000000E+03 0.  1.
</event>
<event>
 4    1  0.3190379E-002  0.2068951E+03  0.7818608E-02  0.1144049E+00
         -1   -1    0    0    0  501 -0.00000000000E+00  0.00000000000E+00  0.16996162714E+04  0.16996162714E+04  0.00000000000E+00 0.  1.
          1   -1    0    0  502    0  0.00000000000E+00 -0.00000000000E+00 -0.43268618671E+02  0.43268618671E+02  0.00000000000E+00 0. -1.
          6    1    1    2  502    0  0.10373620268E+03 -0.49602392014E+02  0.26480931483E+03  0.33604995203E+03  0.17200000000E+03 0. -1.
         -6    1    1    2    0  501 -0.10373620268E+03  0.49602392014E+02  0.13915383379E+04  0.14068349380E+04  0.17200000000E+03 0.  1.
</event>
<event>
 4    1  0.3190379E-002  0.1833588E+03  0.7818608E-02  0.1164591E+00
          1   -1    0    0  502    0  0.00000000000E+00  0.00000000000E+00  0.24933893492E+03  0.24933893492E+03  0.00000000000E+00 0. -1.
         -1   -1    0    0    0  501 -0.00000000000E+00 -0.00000000000E+00 -0.80995096850E+03  0.80995096850E+03  0.00000000000E+00 0.  1.
          6    1    1    2  502    0 -0.61225674951E+02 -0.16967021906E+02  0.20324641222E+03  0.27373265641E+03  0.17200000000E+03 0. -1.
         -6    1    1    2    0  501  0.61225674951E+02  0.16967021906E+02 -0.76385844580E+03  0.78555724701E+03  0.17200000000E+03 0.  1.
</event>
<event>
 4    1  0.3190379E-002  0.1919570E+03  0.7818608E-02  0.1156708E+00
         -2   -1    0    0    0  501 -0.00000000000E+00  0.00000000000E+00  0.11990892308E+02  0.11990892308E+02  0.00000000000E+00 0.  1.
          2   -1    0    0  502    0  0.00000000000E+00 -0.00000000000E+00 -0.31347760162E+04  0.31347760162E+04  0.00000000000E+00 0. -1.
          6    1    1    2  502    0  0.78637967394E+02 -0.32856456944E+02 -0.13404404492E+04  0.13541152368E+04  0.17200000000E+03 0. -1.
         -6    1    1    2    0  501 -0.78637967394E+02  0.32856456944E+02 -0.17823446747E+04  0.17926516717E+04  0.17200000000E+03 0.  1.
</event>
<event>
 4    1  0.3190379E-002  0.2276803E+03  0.7818608E-02  0.1128283E+00
          2   -1    0    0  502    0  0.00000000000E+00  0.00000000000E+00  0.12646948759E+04  0.12646948759E+04  0.00000000000E+00 0. -1.
         -2   -1    0    0    0  501 -0.00000000000E+00 -0.00000000000E+00 -0.75733336879E+02  0.75733336879E+02  0.00000000000E+00 0.  1.
          6    1    1    2  502    0  0.13723685990E+03 -0.58483854256E+02  0.14052522665E+03  0.26755495930E+03  0.17200000000E+03 0. -1.
         -6    1    1    2    0  501 -0.13723685990E+03  0.58483854256E+02  0.10484363124E+04  0.10728732535E+04  0.17200000000E+03 0. -1.
</event>
<event>
 4    1  0.3190379E-002  0.3198162E+03  0.7818608E-02  0.1075734E+00
         -2   -1    0    0    0  501 -0.00000000000E+00  0.00000000000E+00  0.34127030154E+02  0.34127030154E+02  0.00000000000E+00 0.  1.
          2   -1    0    0  502    0  0.00000000000E+00 -0.00000000000E+00 -0.30153558809E+04  0.30153558809E+04  0.00000000000E+00 0. -1.
          6    1    1    2  502    0 -0.18996656836E+02  0.26895635835E+03 -0.16092276024E+04  0.16406998116E+04  0.17200000000E+03 0. -1.
         -6    1    1    2    0  501  0.18996656836E+02 -0.26895635835E+03 -0.13720012483E+04  0.14087830994E+04  0.17200000000E+03 0.  1.
</event>
<event>
 4    1  0.3190379E-002  0.5786966E+03  0.7818608E-02  0.9950617E-01
          1   -1    0    0  502    0  0.00000000000E+00  0.00000000000E+00  0.22291864979E+04  0.22291864979E+04  0.00000000000E+00 0. -1.
         -1   -1    0    0    0  501 -0.00000000000E+00 -0.00000000000E+00 -0.21867441436E+03  0.21867441436E+03  0.00000000000E+00 0.  1.
          6    1    1    2  502    0 -0.54003366130E+03 -0.11691602448E+03  0.16899999070E+04  0.17863340667E+04  0.17200000000E+03 0. -1.
         -6    1    1    2    0  501  0.54003366130E+03  0.11691602448E+03  0.32051217654E+03  0.66152684558E+03  0.17200000000E+03 0.  1.
</event>
<event>
 4    1  0.3190379E-002  0.2212318E+03  0.7818608E-02  0.1132968E+00
         -2   -1    0    0    0  501 -0.00000000000E+00  0.00000000000E+00  0.14514064531E+03  0.14514064531E+03  0.00000000000E+00 0.  1.
          2   -1    0    0  502    0  0.00000000000E+00 -0.00000000000E+00 -0.17932325781E+04  0.17932325781E+04  0.00000000000E+00 0. -1.
          6    1    1    2  502    0 -0.76380226792E+02  0.11629941940E+03 -0.16973641782E+04  0.17117209607E+04  0.17200000000E+03 0. -1.
         -6    1    1    2    0  501  0.76380226792E+02 -0.11629941940E+03  0.49272245420E+02  0.22665226266E+03  0.17200000000E+03 0.  1.
</event>
<event>
 4    1  0.3190379E-002  0.2694833E+03  0.7818608E-02  0.1101576E+00
          2   -1    0    0  502    0  0.00000000000E+00  0.00000000000E+00  0.31011939644E+04  0.31011939644E+04  0.00000000000E+00 0. -1.
         -2   -1    0    0    0  501 -0.00000000000E+00 -0.00000000000E+00 -0.49548338630E+02  0.49548338630E+02  0.00000000000E+00 0.  1.
          6    1    1    2  502    0 -0.16383606798E+03 -0.12725948606E+03  0.26698797221E+04  0.26834453534E+04  0.17200000000E+03 0. -1.
         -6    1    1    2    0  501  0.16383606798E+03  0.12725948606E+03  0.38176590362E+03  0.46729694962E+03  0.17200000000E+03 0. -1.
</event>
<event>
 4    1  0.3190379E-002  0.2002138E+03  0.7818608E-02  0.1149559E+00
         -2   -1    0    0    0  501 -0.00000000000E+00  0.00000000000E+00  0.66792234209E+02  0.66792234209E+02  0.00000000000E+00 0.  1.
          2   -1    0    0  502    0  0.00000000000E+00 -0.00000000000E+00 -0.69010855908E+03  0.69010855908E+03  0.00000000000E+00 0. -1.
          6    1    1    2  502    0  0.64243397398E+02  0.79839504352E+02 -0.17502244815E+03  0.26592934761E+03  0.17200000000E+03 0.  1.
         -6    1    1    2    0  501 -0.64243397398E+02 -0.79839504352E+02 -0.44829387673E+03  0.49097144568E+03  0.17200000000E+03 0. -1.
</event>
<event>
 4    1  0.3190379E-002  0.2756314E+03  0.7818608E-02  0.1098099E+00
         -2   -1    0    0    0  501 -0.00000000000E+00  0.00000000000E+00  0.92695331100E+02  0.92695331100E+02  0.00000000000E+00 0.  1.
          2   -1    0    0  502    0  0.00000000000E+00 -0.00000000000E+00 -0.84264864705E+03  0.84264864705E+03  0.00000000000E+00 0. -1.
          6    1    1    2  502    0  0.22677799365E+02 -0.21418304131E+03 -0.29762224722E+03  0.40564967621E+03  0.17200000000E+03 0. -1.
         -6    1    1    2    0  501 -0.22677799365E+02  0.21418304131E+03 -0.45233106873E+03  0.52969430194E+03  0.17200000000E+03 0.  1.
</event>
<event>
 4    1  0.3190379E-002  0.2272651E+03  0.7818608E-02  0.1128580E+00
          2   -1    0    0  502    0  0.00000000000E+00  0.00000000000E+00  0.87202471114E+03  0.87202471114E+03  0.00000000000E+00 0. -1.
         -2   -1    0    0    0  501 -0.00000000000E+00 -0.00000000000E+00 -0.19239628636E+03  0.19239628636E+03  0.00000000000E+00 0.  1.
          6    1    1    2  502    0 -0.13884349396E+03  0.52800762706E+02  0.78258946296E+03  0.81492067337E+03  0.17200000000E+03 0. -1.
         -6    1    1    2    0  501  0.13884349396E+03 -0.52800762706E+02 -0.10296103818E+03  0.24950032413E+03  0.17200000000E+03 0.  1.
</event>
<event>
 4    1  0.3190379E-002  0.5544818E+03  0.7818608E-02  0.1000462E+00
         -2   -1    0    0    0  501 -0.00000000000E+00  0.00000000000E+00  0.63281416901E+03  0.63281416901E+03  0.00000000000E+00 0.  1.
          2   -1    0    0  502    0  0.00000000000E+00 -0.00000000000E+00 -0.50580938829E+03  0.50580938829E+03  0.00000000000E+00 0. -1.
          6    1    1    2  502    0  0.25753440391E+03  0.45993708650E+03 -0.49601165757E+02  0.55669593889E+03  0.17200000000E+03 0. -1.
         -6    1    1    2    0  501 -0.25753440391E+03 -0.45993708650E+03  0.17660594648E+03  0.58192761841E+03  0.17200000000E+03 0.  1.
</event>
<event>
 4    1  0.3190379E-002  0.3095334E+03  0.7818608E-02  0.1080570E+00
         -2   -1    0    0    0  501 -0.00000000000E+00  0.00000000000E+00  0.22672818085E+03  0.22672818085E+03  0.00000000000E+00 0.  1.
          2   -1    0    0  502    0  0.00000000000E+00 -0.00000000000E+00 -0.43582678724E+03  0.43582678724E+03  0.00000000000E+00 0. -1.
          6    1    1    2  502    0 -0.22791474288E+03  0.11950658486E+03 -0.16230285932E+03  0.34950418022E+03  0.17200000000E+03 0. -1.
         -6    1    1    2    0  501  0.22791474288E+03 -0.11950658486E+03 -0.46795747060E+02  0.31305078787E+03  0.17200000000E+03 0.  1.
</event>
<event>
 4    1  0.3190379E-002  0.1824932E+03  0.7818608E-02  0.1165412E+00
         -2   -1    0    0    0  501 -0.00000000000E+00  0.00000000000E+00  0.11483907953E+03  0.11483907953E+03  0.00000000000E+00 0.  1.
          2   -1    0    0  502    0  0.00000000000E+00 -0.00000000000E+00 -0.29694532550E+03  0.29694532550E+03  0.00000000000E+00 0. -1.
          6    1    1    2  502    0 -0.54269501848E+02 -0.27831588152E+02 -0.59573661391E+02  0.19197082398E+03  0.17200000000E+03 0.  1.
         -6    1    1    2    0  501  0.54269501848E+02  0.27831588152E+02 -0.12253258458E+03  0.21981358105E+03  0.17200000000E+03 0.  1.
</event>
<event>
 4    1  0.3190379E-002  0.5715607E+03  0.7818608E-02  0.9966231E-01
          1   -1    0    0  502    0  0.00000000000E+00  0.00000000000E+00  0.74912123647E+03  0.74912123647E+03  0.00000000000E+00 0. -1.
         -1   -1    0    0    0  501 -0.00000000000E+00 -0.00000000000E+00 -0.48044036053E+03  0.48044036053E+03  0.00000000000E+00 0.  1.
          6    1    1    2  502    0  0.28298109714E+03 -0.46585339406E+03  0.32113579737E+03  0.65559887618E+03  0.17200000000E+03 0.  1.
         -6    1    1    2    0  501 -0.28298109714E+03  0.46585339406E+03 -0.52454921438E+02  0.57396272081E+03  0.17200000000E+03 0.  1.
</event>
<event>
 4    1  0.3190379E-002  0.2428378E+03  0.7818608E-02  0.1117917E+00
          1   -1    0    0  502    0  0.00000000000E+00  0.00000000000E+00  0.27571050475E+03  0.27571050475E+03  0.00000000000E+00 0. -1.
         -1   -1    0    0    0  501 -0.00000000000E+00 -0.00000000000E+00 -0.14073138946E+04  0.14073138946E+04  0.00000000000E+00 0.  1.
          6    1    1    2  502    0  0.18993683459E+02  0.17036852522E+03  0.20912977854E+03  0.32047692377E+03  0.17200000000E+03 0. -1.
         -6    1    1    2    0  501 -0.18993683459E+02 -0.17036852522E+03 -0.13407331684E+04  0.13625474756E+04  0.17200000000E+03 0.  1.
</event>
<event>
 4    1  0.3190379E-002  0.1785114E+03  0.7818608E-02  0.1169252E+00
          1   -1    0    0  502    0  0.00000000000E+00  0.00000000000E+00  0.70413496095E+02  0.70413496095E+02  0.00000000000E+00 0. -1.
         -1   -1    0    0    0  501 -0.00000000000E+00 -0.00000000000E+00 -0.52259346038E+03  0.52259346038E+03  0.00000000000E+00 0.  1.
          6    1    1    2  502    0 -0.90150173641E+01 -0.46915210182E+02 -0.11754701979E+03  0.21373724370E+03  0.17200000000E+03 0. -1.
         -6    1    1    2    0  501  0.90150173641E+01  0.46915210182E+02 -0.33463294450E+03  0.37926971277E+03  0.17200000000E+03 0.  1.
</event>
<event>
 4    1  0.3190379E-002  0.3447029E+03  0.7818608E-02  0.1064810E+00
         -1   -1    0    0    0  501 -0.00000000000E+00  0.00000000000E+00  0.30600374524E+03  0.30600374524E+03  0.00000000000E+00 0.  1.
          1   -1    0    0  502    0  0.00000000000E+00 -0.00000000000E+00 -0.49087697657E+03  0.49087697657E+03  0.00000000000E+00 0. -1.
          6    1    1    2  502    0  0.26093848285E+03 -0.14542081858E+03 -0.27457852375E+03  0.44069657590E+03  0.17200000000E+03 0. -1.
         -6    1    1    2    0  501 -0.26093848285E+03  0.14542081858E+03  0.89705292416E+02  0.35618414591E+03  0.17200000000E+03 0.  1.
</event>
<event>
 4    1  0.3190379E-002  0.3957863E+03  0.7818608E-02  0.1045249E+00
          2   -1    0    0  502    0  0.00000000000E+00  0.00000000000E+00  0.81551187770E+03  0.81551187770E+03  0.00000000000E+00 0. -1.
         -2   -1    0    0    0  501 -0.00000000000E+00 -0.00000000000E+00 -0.19209077941E+03  0.19209077941E+03  0.00000000000E+00 0.  1.
          6    1    1    2  502    0  0.28927640174E+03 -0.20828334800E+03  0.31470185362E+03  0.50565210010E+03  0.17200000000E+03 0. -1.
         -6    1    1    2    0  501 -0.28927640174E+03  0.20828334800E+03  0.30871924466E+03  0.50195055701E+03  0.17200000000E+03 0. -1.
</event>
<event>
 4    1  0.3190379E-002  0.1785739E+03  0.7818608E-02  0.1169190E+00
         -2   -1    0    0    0  501 -0.00000000000E+00  0.00000000000E+00  0.67972494618E+02  0.67972494618E+02  0.00000000000E+00 0.  1.
          2   -1    0    0  502    0  0.00000000000E+00 -0.00000000000E+00 -0.60866088913E+03  0.60866088913E+03  0.00000000000E+00 0. -1.
          6    1    1    2  502    0  0.33548996160E+02  0.34337931719E+02 -0.43232183359E+03  0.46775078461E+03  0.17200000000E+03 0. -1.
         -6    1    1    2    0  501 -0.33548996160E+02 -0.34337931719E+02 -0.10836656092E+03  0.20888259914E+03  0.17200000000E+03 0.  1.
</event>
<event>
 4    1  0.3190379E-002  0.1881604E+03  0.7818608E-02  0.1160131E+00
         -3   -1    0    0    0  501 -0.00000000000E+00  0.00000000000E+00  0.16680662953E+03  0.16680662953E+03  0.00000000000E+00 0.  1.
          3   -1    0    0  502    0  0.00000000000E+00 -0.00000000000E+00 -0.21231966844E+03  0.21231966844E+03  0.00000000000E+00 0. -1.
          6    1    1    2  502    0  0.27883713113E+02  0.71012819484E+02 -0.26246769153E+02  0.18998214358E+03  0.17200000000E+03 0.  1.
         -6    1    1    2    0  501 -0.27883713113E+02 -0.71012819484E+02 -0.19266269755E+02  0.18914415439E+03  0.17200000000E+03 0.  1.
</event>
<event>
 4    1  0.3190379E-002  0.3975235E+03  0.7818608E-02  0.1044641E+00
         -1   -1    0    0    0  501 -0.00000000000E+00  0.00000000000E+00  0.12018383113E+03  0.12018383113E+03  0.00000000000E+00 0.  1.
          1   -1    0    0  502    0  0.00000000000E+00 -0.00000000000E+00 -0.20906397737E+04  0.20906397737E+04  0.00000000000E+00 0. -1.
          6    1    1    2  502    0  0.19118331585E+02  0.35787626276E+03 -0.16585978376E+04  0.17055707892E+04  0.17200000000E+03 0. -1.
         -6    1    1    2    0  501 -0.19118331585E+02 -0.35787626276E+03 -0.31185810492E+03  0.50525281558E+03  0.17200000000E+03 0.  1.
</event>
<event>
 4    1  0.3190379E-002  0.2234006E+03  0.7818608E-02  0.1131373E+00
          2   -1    0    0  502    0  0.00000000000E+00  0.00000000000E+00  0.53511625187E+03  0.53511625187E+03  0.00000000000E+00 0. -1.
         -2   -1    0    0    0  501 -0.00000000000E+00 -0.00000000000E+00 -0.18373190216E+03  0.18373190216E+03  0.00000000000E+00 0.  1.
          6    1    1    2  502    0 -0.11524243887E+03 -0.83922706768E+02 -0.76515755875E+02  0.23614085060E+03  0.17200000000E+03 0.  1.
         -6    1    1    2    0  501  0.11524243887E+03  0.83922706768E+02  0.42790010559E+03  0.48270730343E+03  0.17200000000E+03 0. -1.
</event>
<event>
 4    1  0.3190379E-002  0.1879060E+03  0.7818608E-02  0.1160364E+00
         -1   -1    0    0    0  501 -0.00000000000E+00  0.00000000000E+00  0.78488696569E+02  0.78488696569E+02  0.00000000000E+00 0.  1.
          1   -1    0    0  502    0  0.00000000000E+00 -0.00000000000E+00 -0.87975375659E+03  0.87975375659E+03  0.00000000000E+00 0. -1.
          6    1    1    2  502    0 -0.44584884134E+02 -0.61129678424E+02 -0.73555723941E+03  0.75917922912E+03  0.17200000000E+03 0. -1.
         -6    1    1    2    0  501  0.44584884134E+02  0.61129678424E+02 -0.65707820618E+02  0.19906322405E+03  0.17200000000E+03 0.  1.
</event>
<event>
 4    1  0.3190379E-002  0.2093827E+03  0.7818608E-02  0.1142056E+00
          1   -1    0    0  502    0  0.00000000000E+00  0.00000000000E+00  0.19757987276E+04  0.19757987276E+04  0.00000000000E+00 0. -1.
         -1   -1    0    0    0  501 -0.00000000000E+00 -0.00000000000E+00 -0.87985616103E+02  0.87985616103E+02  0.00000000000E+00 0.  1.
          6    1    1    2  502    0  0.95144648346E+01  0.11902352548E+03  0.18362459079E+04  0.18481450589E+04  0.17200000000E+03 0. -1.
         -6    1    1    2    0  501 -0.95144648346E+01 -0.11902352548E+03  0.51567203655E+02  0.21563928481E+03  0.17200000000E+03 0.  1.
</event>
<event>
 4    1  0.3190379E-002  0.1929013E+03  0.7818608E-02  0.1155870E+00
          2   -1    0    0  502    0  0.00000000000E+00  0.00000000000E+00  0.39173339453E+03  0.39173339453E+03  0.00000000000E+00 0. -1.
         -2   -1    0    0    0  501 -0.00000000000E+00 -0.00000000000E+00 -0.95374512343E+02  0.95374512343E+02  0.00000000000E+00 0.  1.
          6    1    1    2  502    0 -0.60082236801E+02  0.63380242059E+02  0.16363488781E+03  0.25295712437E+03  0.17200000000E+03 0. -1.
         -6    1    1    2    0  501  0.60082236801E+02 -0.63380242059E+02  0.13272399438E+03  0.23415078250E+03  0.17200000000E+03 0.  1.
</event>
<event>
 4    1  0.3190379E-002  0.2050351E+03  0.7818608E-02  0.1145559E+00
          2   -1    0    0  502    0  0.00000000000E+00  0.00000000000E+00  0.19692990403E+03  0.19692990403E+03  0.00000000000E+00 0. -1.
         -2   -1    0    0    0  501 -0.00000000000E+00 -0.00000000000E+00 -0.22859344212E+03  0.22859344212E+03  0.00000000000E+00 0.  1.
          6    1    1    2  502    0  0.10650780485E+03  0.33338663778E+02  0.38886452530E+02  0.20869004573E+03  0.17200000000E+03 0. -1.
         -6    1    1    2    0  501 -0.10650780485E+03 -0.33338663778E+02 -0.70549990618E+02  0.21683330043E+03  0.17200000000E+03 0.  1.
</event>
<event>
 4    1  0.3190379E-002  0.5678999E+03  0.7818608E-02  0.9974337E-01
         -1   -1    0    0    0  501 -0.00000000000E+00  0.00000000000E+00  0.61080802307E+03  0.61080802307E+03  0.00000000000E+00 0.  1.
          1   -1    0    0  502    0  0.00000000000E+00 -0.00000000000E+00 -0.52860001897E+03  0.52860001897E+03  0.00000000000E+00 0. -1.
          6    1    1    2  502    0 -0.49731641345E+03  0.21354776581E+03  0.60202903560E+02  0.57108200197E+03  0.17200000000E+03 0. -1.
         -6    1    1    2    0  501  0.49731641345E+03 -0.21354776581E+03  0.22005100538E+02  0.56832604007E+03  0.17200000000E+03 0.  1.
</event>
<event>
 4    1  0.3190379E-002  0.3418217E+03  0.7818608E-02  0.1066023E+00
         -3   -1    0    0    0  501 -0.00000000000E+00  0.00000000000E+00  0.19726555376E+03  0.19726555376E+03  0.00000000000E+00 0.  1.
          3   -1    0    0  502    0  0.00000000000E+00 -0.00000000000E+00 -0.71424426555E+03  0.71424426555E+03  0.00000000000E+00 0. -1.
          6    1    1    2  502    0  0.16587818673E+03  0.24442286071E+03 -0.70179462564E+02  0.34895166519E+03  0.17200000000E+03 0. -1.
         -6    1    1    2    0  501 -0.16587818673E+03 -0.24442286071E+03 -0.44679924922E+03  0.56255815413E+03  0.17200000000E+03 0.  1.
</event>
<event>
 4    1  0.3190379E-002  0.2005776E+03  0.7818608E-02  0.1149253E+00
          3   -1    0    0  502    0  0.00000000000E+00  0.00000000000E+00  0.22322337534E+03  0.22322337534E+03  0.00000000000E+00 0. -1.
         -3   -1    0    0    0  501 -0.00000000000E+00 -0.00000000000E+00 -0.20581692343E+03  0.20581692343E+03  0.00000000000E+00 0.  1.
          6    1    1    2  502    0 -0.93726380629E+02 -0.43159378269E+02  0.84341833607E+02  0.21758885830E+03  0.17200000000E+03 0. -1.
         -6    1    1    2    0  501  0.93726380629E+02  0.43159378269E+02 -0.66935381696E+02  0.21145144048E+03  0.17200000000E+03 0.  1.
</event>
<event>
 4    1  0.3190379E-002  0.1917672E+03  0.7818608E-02  0.1156877E+00
         -1   -1    0    0    0  501 -0.00000000000E+00  0.00000000000E+00  0.27214294226E+03  0.27214294226E+03  0.00000000000E+00 0.  1.
          1   -1    0    0  502    0  0.00000000000E+00 -0.00000000000E+00 -0.26116723227E+03  0.26116723227E+03  0.00000000000E+00 0. -1.
          6    1    1    2  502    0 -0.51103680013E+02 -0.67668752889E+02 -0.17975443716E+03  0.26284273608E+03  0.17200000000E+03 0. -1.
         -6    1    1    2    0  501  0.51103680013E+02  0.67668752889E+02  0.19073014715E+03  0.27046743845E+03  0.17200000000E+03 0.  1.
</event>
<event>
 4    1  0.3190379E-002  0.3681356E+03  0.7818608E-02  0.1055408E+00
          2   -1    0    0  502    0  0.00000000000E+00  0.00000000000E+00  0.25076490432E+04  0.25076490432E+04  0.00000000000E+00 0. -1.
         -2   -1    0    0    0  501 -0.00000000000E+00 -0.00000000000E+00 -0.83592338253E+02  0.83592338253E+02  0.00000000000E+00 0.  1.
          6    1    1    2  502    0 -0.11304709141E+03  0.30522155599E+03  0.19823282255E+04  0.20162214751E+04  0.17200000000E+03 0. -1.
         -6    1    1    2    0  501  0.11304709141E+03 -0.30522155599E+03  0.44172847943E+03  0.57501990631E+03  0.17200000000E+03 0.  1.
</event>
<event>
 4    1  0.3190379E-002  0.1816959E+03  0.7818608E-02  0.1166172E+00
         -2   -1    0    0    0  501 -0.00000000000E+00  0.00000000000E+00  0.18456196749E+03  0.18456196749E+03  0.00000000000E+00 0.  1.
          2   -1    0    0  502    0  0.00000000000E+00 -0.00000000000E+00 -0.26006788824E+03  0.26006788824E+03  0.00000000000E+00 0. -1.
          6    1    1    2  502    0 -0.53154057037E+02  0.24576995249E+02 -0.16197145906E+03  0.24340940004E+03  0.17200000000E+03 0. -1.
         -6    1    1    2    0  501  0.53154057037E+02 -0.24576995249E+02  0.86465538318E+02  0.20122045570E+03  0.17200000000E+03 0.  1.
</event>
<event>
 4    1  0.3190379E-002  0.1739911E+03  0.7818608E-02  0.1173749E+00
         -2   -1    0    0    0  501 -0.00000000000E+00  0.00000000000E+00  0.33618873621E+02  0.33618873621E+02  0.00000000000E+00 0.  1.
          2   -1    0    0  502    0  0.00000000000E+00 -0.00000000000E+00 -0.15256740664E+04  0.15256740664E+04  0.00000000000E+00 0. -1.
          6    1    1    2  502    0  0.39265879449E+01  0.25951801161E+02 -0.12451147833E+04  0.12572126860E+04  0.17200000000E+03 0. -1.
         -6    1    1    2    0  501 -0.39265879449E+01 -0.25951801161E+02 -0.24694040947E+03  0.30208025408E+03  0.17200000000E+03 0.  1.
</event>
<event>
 4    1  0.3190379E-002  0.3575027E+03  0.7818608E-02  0.1059577E+00
          2   -1    0    0  502    0  0.00000000000E+00  0.00000000000E+00  0.30687348248E+04  0.30687348248E+04  0.00000000000E+00 0. -1.
         -2   -1    0    0    0  501 -0.00000000000E+00 -0.00000000000E+00 -0.57677869682E+02  0.57677869682E+02  0.00000000000E+00 0.  1.
          6    1    1    2  502    0 -0.90454898337E+02  0.30007018280E+03  0.23296095183E+04  0.23568811407E+04  0.17200000000E+03 0. -1.
         -6    1    1    2    0  501  0.90454898337E+02 -0.30007018280E+03  0.68144743674E+03  0.76953155379E+03  0.17200000000E+03 0.  1.
</event>
<event>
 4    1  0.3190379E-002  0.2024482E+03  0.7818608E-02  0.1147690E+00
          1   -1    0    0  502    0  0.00000000000E+00  0.00000000000E+00  0.59545732234E+03  0.59545732234E+03  0.00000000000E+00 0. -1.
         -1   -1    0    0    0  501 -0.00000000000E+00 -0.00000000000E+00 -0.75881641848E+02  0.75881641848E+02  0.00000000000E+00 0.  1.
          6    1    1    2  502    0  0.18469560208E+02  0.10516726238E+03  0.15746061548E+03  0.25647441034E+03  0.17200000000E+03 0.  1.
         -6    1    1    2    0  501 -0.18469560208E+02 -0.10516726238E+03  0.36211506501E+03  0.41486455385E+03  0.17200000000E+03 0. -1.
</event>
<event>
 4    1  0.3190379E-002  0.2064370E+03  0.7818608E-02  0.1144419E+00
         -1   -1    0    0    0  501 -0.00000000000E+00  0.00000000000E+00  0.21618670837E+03  0.21618670837E+03  0.00000000000E+00 0.  1.
          1   -1    0    0  502    0  0.00000000000E+00 -0.00000000000E+00 -0.60949763208E+03  0.60949763208E+03  0.00000000000E+00 0. -1.
          6    1    1    2  502    0 -0.57758803797E+02 -0.98469033735E+02 -0.53623532024E+03  0.57459946806E+03  0.17200000000E+03 0. -1.
         -6    1    1    2    0  501  0.57758803797E+02  0.98469033735E+02  0.14292439653E+03  0.25108487239E+03  0.17200000000E+03 0.  1.
</event>
<event>
 4    1  0.3190379E-002  0.2051806E+03  0.7818608E-02  0.1145440E+00
         -1   -1    0    0    0  501 -0.00000000000E+00  0.00000000000E+00  0.19404649824E+03  0.19404649824E+03  0.00000000000E+00 0.  1.
          1   -1    0    0  502    0  0.00000000000E+00 -0.00000000000E+00 -0.39715666330E+03  0.39715666330E+03  0.00000000000E+00 0. -1.
          6    1    1    2  502    0 -0.93080010797E+02 -0.62057964725E+02 -0.30067144665E+03  0.36400878867E+03  0.17200000000E+03 0. -1.
         -6    1    1    2    0  501  0.93080010797E+02  0.62057964725E+02  0.97561281598E+02  0.22719437287E+03  0.17200000000E+03 0.  1.
</event>
<event>
 4    1  0.3190379E-002  0.1921850E+03  0.7818608E-02  0.1156505E+00
          1   -1    0    0  502    0  0.00000000000E+00  0.00000000000E+00  0.18338524837E+04  0.18338524837E+04  0.00000000000E+00 0. -1.
         -1   -1    0    0    0  501 -0.00000000000E+00 -0.00000000000E+00 -0.40395322393E+02  0.40395322393E+02  0.00000000000E+00 0.  1.
          6    1    1    2  502    0  0.46304433738E+02 -0.72159463046E+02  0.23314832053E+03  0.30214769246E+03  0.17200000000E+03 0.  1.
         -6    1    1    2    0  501 -0.46304433738E+02  0.72159463046E+02  0.15603088407E+04  0.15721001136E+04  0.17200000000E+03 0. -1.
</event>
<event>
 4    1  0.3190379E-002  0.2979451E+03  0.7818608E-02  0.1086272E+00
         -2   -1    0    0    0  501 -0.00000000000E+00  0.00000000000E+00  0.57328247573E+02  0.57328247573E+02  0.00000000000E+00 0.  1.
          2   -1    0    0  502    0  0.00000000000E+00 -0.00000000000E+00 -0.19390914420E+04  0.19390914420E+04  0.00000000000E+00 0. -1.
          6    1    1    2  502    0 -0.66499854704E+02  0.23401932441E+03 -0.13889030103E+04  0.14205009141E+04  0.17200000000E+03 0. -1.
         -6    1    1    2    0  501  0.66499854704E+02 -0.23401932441E+03 -0.49286018413E+03  0.57591877550E+03  0.17200000000E+03 0. -1.
</event>
<event>
 4    1  0.3190379E-002  0.1815137E+03  0.7818608E-02  0.1166346E+00
          1   -1    0    0  502    0  0.00000000000E+00  0.00000000000E+00  0.31716101828E+03  0.31716101828E+03  0.00000000000E+00 0. -1.
         -1   -1    0    0    0  501 -0.00000000000E+00 -0.00000000000E+00 -0.18755832880E+03  0.18755832880E+03  0.00000000000E+00 0.  1.
          6    1    1    2  502    0 -0.28647461259E+02  0.50423717581E+02  0.23336108215E+03  0.29564272863E+03  0.17200000000E+03 0. -1.
         -6    1    1    2    0  501  0.28647461259E+02 -0.50423717581E+02 -0.10375839267E+03  0.20907661844E+03  0.17200000000E+03 0.  1.
</event>
<event>
 4    1  0.3190379E-002  0.1009570E+04  0.7818608E-02  0.9298111E-01
          2   -1    0    0  502    0  0.00000000000E+00  0.00000000000E+00  0.83061385406E+03  0.83061385406E+03  0.00000000000E+00 0. -1.
         -2   -1    0    0    0  501 -0.00000000000E+00 -0.00000000000E+00 -0.13814722268E+04  0.13814722268E+04  0.00000000000E+00 0.  1.
          6    1    1    2  502    0 -0.96425973972E+03 -0.24464338954E+03  0.94323194206E+02  0.10139665175E+04  0.17200000000E+03 0. -1.
         -6    1    1    2    0  501  0.96425973972E+03  0.24464338954E+03 -0.64518156694E+03  0.11981195633E+04  0.17200000000E+03 0.  1.
</event>
<event>
 4    1  0.3190379E-002  0.2408287E+03  0.7818608E-02  0.1119242E+00
          1   -1    0    0  502    0  0.00000000000E+00  0.00000000000E+00  0.39787012136E+04  0.39787012136E+04  0.00000000000E+00 0. -1.
         -1   -1    0    0    0  501 -0.00000000000E+00 -0.00000000000E+00 -0.17093098033E+02  0.17093098033E+02  0.00000000000E+00 0.  1.
          6    1    1    2  502    0  0.15775605316E+03 -0.59392650312E+02  0.27472937288E+04  0.27578290903E+04  0.17200000000E+03 0. -1.
         -6    1    1    2    0  501 -0.15775605316E+03  0.59392650312E+02  0.12143143867E+04  0.12379652213E+04  0.17200000000E+03 0.  1.
</event>
<event>
 4    1  0.3190379E-002  0.1876365E+03  0.7818608E-02  0.1160610E+00
         -2   -1    0    0    0  501 -0.00000000000E+00  0.00000000000E+00  0.50343127846E+02  0.50343127846E+02  0.00000000000E+00 0.  1.
          2   -1    0    0  502    0  0.00000000000E+00 -0.00000000000E+00 -0.70095223049E+03  0.70095223049E+03  0.00000000000E+00 0. -1.
          6    1    1    2  502    0 -0.58943069806E+02 -0.46359266021E+02 -0.30734491763E+03  0.36009493945E+03  0.17200000000E+03 0. -1.
         -6    1    1    2    0  501  0.58943069806E+02  0.46359266021E+02 -0.34326418502E+03  0.39120041889E+03  0.17200000000E+03 0. -1.
</event>
<event>
 4    1  0.3190379E-002  0.7829785E+03  0.7818608E-02  0.9584987E-01
         -1   -1    0    0    0  501 -0.00000000000E+00  0.00000000000E+00  0.21882843312E+04  0.21882843312E+04  0.00000000000E+00 0.  1.
          1   -1    0    0  502    0  0.00000000000E+00 -0.00000000000E+00 -0.28237226052E+03  0.28237226052E+03  0.00000000000E+00 0. -1.
          6    1    1    2  502    0 -0.55480167531E+03  0.52503943357E+03  0.10624615323E+04  0.13198029449E+04  0.17200000000E+03 0. -1.
         -6    1    1    2    0  501  0.55480167531E+03 -0.52503943357E+03  0.84345053837E+03  0.11508536468E+04  0.17200000000E+03 0.  1.
</event>
<event>
 4    1  0.3190379E-002  0.2710663E+03  0.7818608E-02  0.1100671E+00
         -2   -1    0    0    0  501 -0.00000000000E+00  0.00000000000E+00  0.20777042949E+03  0.20777042949E+03  0.00000000000E+00 0.  1.
          2   -1    0    0  502    0  0.00000000000E+00 -0.00000000000E+00 -0.39310752713E+03  0.39310752713E+03  0.00000000000E+00 0. -1.
          6    1    1    2  502    0  0.18834683195E+02  0.20865811798E+03  0.25219321696E+01  0.27107806188E+03  0.17200000000E+03 0. -1.
         -6    1    1    2    0  501 -0.18834683195E+02 -0.20865811798E+03 -0.18785902982E+03  0.32979989474E+03  0.17200000000E+03 0.  1.
</event>
<event>
 4    1  0.3190379E-002  0.2247771E+03  0.7818608E-02  0.1130371E+00
         -2   -1    0    0    0  501 -0.00000000000E+00  0.00000000000E+00  0.50124677776E+02  0.50124677776E+02  0.00000000000E+00 0.  1.
          2   -1    0    0  502    0  0.00000000000E+00 -0.00000000000E+00 -0.10209763400E+04  0.10209763400E+04  0.00000000000E+00 0. -1.
          6    1    1    2  502    0 -0.17472730653E+02 -0.14365047675E+03 -0.42500656666E+03  0.48078616608E+03  0.17200000000E+03 0.  1.
         -6    1    1    2    0  501  0.17472730653E+02  0.14365047675E+03 -0.54584509557E+03  0.59031485171E+03  0.17200000000E+03 0. -1.
</event>
<event>
 4    1  0.3190379E-002  0.2434675E+03  0.7818608E-02  0.1117504E+00
         -1   -1    0    0    0  501 -0.00000000000E+00  0.00000000000E+00  0.51930273089E+03  0.51930273089E+03  0.00000000000E+00 0.  1.
          1   -1    0    0  502    0  0.00000000000E+00 -0.00000000000E+00 -0.13328377369E+03  0.13328377369E+03  0.00000000000E+00 0. -1.
          6    1    1    2  502    0  0.15894505551E+03  0.66549933396E+02  0.31665064364E+03  0.39942966143E+03  0.17200000000E+03 0. -1.
         -6    1    1    2    0  501 -0.15894505551E+03 -0.66549933396E+02  0.69368313557E+02  0.25315684315E+03  0.17200000000E+03 0. -1.
</event>
<event>
 4    1  0.3190379E-002  0.1011638E+04  0.7818608E-02  0.9295872E-01
         -2   -1    0    0    0  501 -0.00000000000E+00  0.00000000000E+00  0.41965347034E+03  0.41965347034E+03  0.00000000000E+00 0.  1.
          2   -1    0    0  502    0  0.00000000000E+00 -0.00000000000E+00 -0.24614148052E+04  0.24614148052E+04  0.00000000000E+00 0. -1.
          6    1    1    2  502    0  0.37436165357E+03 -0.92394796942E+03 -0.88250820502E+03  0.13424720592E+04  0.17200000000E+03 0.  1.
         -6    1    1    2    0  501 -0.37436165357E+03  0.92394796942E+03 -0.11592531298E+04  0.15385962163E+04  0.17200000000E+03 0. -1.
</event>
<event>
 4    1  0.3190379E-002  0.1191645E+04  0.7818608E-02  0.9120201E-01
         -1   -1    0    0    0  501 -0.00000000000E+00  0.00000000000E+00  0.12459540272E+04  0.12459540272E+04  0.00000000000E+00 0.  1.
          1   -1    0    0  502    0  0.00000000000E+00 -0.00000000000E+00 -0.13756638971E+04  0.13756638971E+04  0.00000000000E+00 0. -1.
          6    1    1    2  502    0  0.98200778353E+03 -0.65275938891E+03  0.47802380578E+03  0.12839489342E+04  0.17200000000E+03 0. -1.
         -6    1    1    2    0  501 -0.98200778353E+03  0.65275938891E+03 -0.60773367568E+03  0.13376689902E+04  0.17200000000E+03 0.  1.
</event>
<event>
 4    1  0.3190379E-002  0.2512706E+03  0.7818608E-02  0.1112504E+00
          2   -1    0    0  502    0  0.00000000000E+00  0.00000000000E+00  0.17619466775E+04  0.17619466775E+04  0.00000000000E+00 0. -1.
         -2   -1    0    0    0  501 -0.00000000000E+00 -0.00000000000E+00 -0.38129653892E+02  0.38129653892E+02  0.00000000000E+00 0.  1.
          6    1    1    2  502    0 -0.53848675562E+02  0.17508070102E+03  0.64104782150E+03  0.68853412492E+03  0.17200000000E+03 0. -1.
         -6    1    1    2    0  501  0.53848675562E+02 -0.17508070102E+03  0.10827692021E+04  0.11115422064E+04  0.17200000000E+03 0.  1.
</event>
<event>
 4    1  0.3190379E-002  0.3286988E+03  0.7818608E-02  0.1071714E+00
         -1   -1    0    0    0  501 -0.00000000000E+00  0.00000000000E+00  0.76074180582E+03  0.76074180582E+03  0.00000000000E+00 0.  1.
          1   -1    0    0  502    0  0.00000000000E+00 -0.00000000000E+00 -0.14325281631E+03  0.14325281631E+03  0.00000000000E+00 0. -1.
          6    1    1    2  502    0 -0.17087607629E+03 -0.22194660795E+03  0.26686688004E+03  0.42339209002E+03  0.17200000000E+03 0. -1.
         -6    1    1    2    0  501  0.17087607629E+03  0.22194660795E+03  0.35062210946E+03  0.48060253211E+03  0.17200000000E+03 0.  1.
</event>
<event>
 4    1  0.3190379E-002  0.2018072E+03  0.7818608E-02  0.1148223E+00
          2   -1    0    0  502    0  0.00000000000E+00  0.00000000000E+00  0.10125707155E+04  0.10125707155E+04  0.00000000000E+00 0. -1.
         -2   -1    0    0    0  501 -0.00000000000E+00 -0.00000000000E+00 -0.61231515320E+02  0.61231515320E+02  0.00000000000E+00 0.  1.
          6    1    1    2  502    0 -0.98864530672E+02  0.36985585702E+02  0.79017639390E+03  0.81553961427E+03  0.17200000000E+03 0. -1.
         -6    1    1    2    0  501  0.98864530672E+02 -0.36985585702E+02  0.16116280627E+03  0.25826261653E+03  0.17200000000E+03 0.  1.
</event>
<event>
 4    1  0.3190379E-002  0.1891435E+03  0.7818608E-02  0.1159236E+00
          1   -1    0    0  502    0  0.00000000000E+00  0.00000000000E+00  0.22739104974E+04  0.22739104974E+04  0.00000000000E+00 0. -1.
         -1   -1    0    0    0  501 -0.00000000000E+00 -0.00000000000E+00 -0.16084003245E+02  0.16084003245E+02  0.00000000000E+00 0.  1.
          6    1    1    2  502    0  0.64762526127E+02 -0.44688790716E+02  0.12980767791E+04  0.13117845087E+04  0.17200000000E+03 0. -1.
         -6    1    1    2    0  501 -0.64762526127E+02  0.44688790716E+02  0.95974971500E+03  0.97820999190E+03  0.17200000000E+03 0.  1.
</event>
<event>
 4    1  0.3190379E-002  0.2082567E+03  0.7818608E-02  0.1142954E+00
         -1   -1    0    0    0  501 -0.00000000000E+00  0.00000000000E+00  0.15532673512E+03  0.15532673512E+03  0.00000000000E+00 0.  1.
          1   -1    0    0  502    0  0.00000000000E+00 -0.00000000000E+00 -0.37312970847E+03  0.37312970847E+03  0.00000000000E+00 0. -1.
          6    1    1    2  502    0 -0.87953150405E+02  0.77788861793E+02 -0.24145663605E+03  0.31886073885E+03  0.17200000000E+03 0. -1.
         -6    1    1    2    0  501  0.87953150405E+02 -0.77788861793E+02  0.23653662709E+02  0.20959570474E+03  0.17200000000E+03 0.  1.
</event>
<event>
 4    1  0.3190379E-002  0.1789962E+03  0.7818608E-02  0.1168778E+00
         -2   -1    0    0    0  501 -0.00000000000E+00  0.00000000000E+00  0.13041433104E+02  0.13041433104E+02  0.00000000000E+00 0.  1.
          2   -1    0    0  502    0  0.00000000000E+00 -0.00000000000E+00 -0.30415448675E+04  0.30415448675E+04  0.00000000000E+00 0. -1.
          6    1    1    2  502    0  0.43446813673E+02  0.23833363440E+02 -0.21839417251E+04  0.21912647292E+04  0.17200000000E+03 0.  1.
         -6    1    1    2    0  501 -0.43446813673E+02 -0.23833363440E+02 -0.84456170932E+03  0.86332157142E+03  0.17200000000E+03 0.  1.
</event>
<event>
 4    1  0.3190379E-002  0.4814027E+03  0.7818608E-02  0.1018750E+00
          1   -1    0    0  502    0  0.00000000000E+00  0.00000000000E+00  0.22254486550E+04  0.22254486550E+04  0.00000000000E+00 0. -1.
         -1   -1    0    0    0  501 -0.00000000000E+00 -0.00000000000E+00 -0.11966958660E+03  0.11966958660E+03  0.00000000000E+00 0.  1.
          6    1    1    2  502    0  0.38946310421E+01  0.44961029071E+03  0.14753473704E+04  0.15519015578E+04  0.17200000000E+03 0. -1.
         -6    1    1    2    0  501 -0.38946310421E+01 -0.44961029071E+03  0.63043169801E+03  0.79321668384E+03  0.17200000000E+03 0.  1.
</event>
<event>
 4    1  0.3190379E-002  0.2086589E+03  0.7818608E-02  0.1142632E+00
         -1   -1    0    0    0  501 -0.00000000000E+00  0.00000000000E+00  0.64346660550E+03  0.64346660550E+03  0.00000000000E+00 0.  1.
          1   -1    0    0  502    0  0.00000000000E+00 -0.00000000000E+00 -0.16489651299E+03  0.16489651299E+03  0.00000000000E+00 0. -1.
          6    1    1    2  502    0 -0.18943801987E+02 -0.11660045701E+03  0.54965519961E+03  0.58792803358E+03  0.17200000000E+03 0.  1.
         -6    1    1    2    0  501  0.18943801987E+02  0.11660045701E+03 -0.71085107097E+02  0.22043508491E+03  0.17200000000E+03 0. -1.
</event>
<event>
 4    1  0.3190379E-002  0.9971093E+03  0.7818608E-02  0.9311721E-01
         -1   -1    0    0    0  501 -0.00000000000E+00  0.00000000000E+00  0.47953189966E+03  0.47953189966E+03  0.00000000000E+00 0.  1.
          1   -1    0    0  502    0  0.00000000000E+00 -0.00000000000E+00 -0.21935728425E+04  0.21935728425E+04  0.00000000000E+00 0. -1.
          6    1    1    2  502    0  0.29406255894E+03  0.93710734301E+03 -0.11699474482E+04  0.15372065549E+04  0.17200000000E+03 0. -1.
         -6    1    1    2    0  501 -0.29406255894E+03 -0.93710734301E+03 -0.54409349464E+03  0.11358981873E+04  0.17200000000E+03 0.  1.
</event>
<event>
 4    1  0.3190379E-002  0.2554013E+03  0.7818608E-02  0.1109938E+00
          2   -1    0    0  502    0  0.00000000000E+00  0.00000000000E+00  0.26844975639E+03  0.26844975639E+03  0.00000000000E+00 0. -1.
         -2   -1    0    0    0  501 -0.00000000000E+00 -0.00000000000E+00 -0.24299079160E+03  0.24299079160E+03  0.00000000000E+00 0.  1.
          6    1    1    2  502    0 -0.18793780301E+03  0.18033666649E+02  0.13724635976E+02  0.25576981168E+03  0.17200000000E+03 0. -1.
         -6    1    1    2    0  501  0.18793780301E+03 -0.18033666649E+02  0.11734328811E+02  0.25567073631E+03  0.17200000000E+03 0.  1.
</event>
<event>
 4    1  0.3190379E-002  0.3852429E+03  0.7818608E-02  0.1049013E+00
          2   -1    0    0  502    0  0.00000000000E+00  0.00000000000E+00  0.87850396298E+03  0.87850396298E+03  0.00000000000E+00 0. -1.
         -2   -1    0    0    0  501 -0.00000000000E+00 -0.00000000000E+00 -0.24546919541E+03  0.24546919541E+03  0.00000000000E+00 0.  1.
          6    1    1    2  502    0 -0.28524948813E+03 -0.19354805856E+03  0.63031422673E+03  0.73872061422E+03  0.17200000000E+03 0. -1.
         -6    1    1    2    0  501  0.28524948813E+03  0.19354805856E+03  0.27205408463E+01  0.38525254417E+03  0.17200000000E+03 0.  1.
</event>
<event>
 4    1  0.3190379E-002  0.2338873E+03  0.7818608E-02  0.1123933E+00
          2   -1    0    0  502    0  0.00000000000E+00  0.00000000000E+00  0.17372004556E+04  0.17372004556E+04  0.00000000000E+00 0. -1.
         -2   -1    0    0    0  501 -0.00000000000E+00 -0.00000000000E+00 -0.44868114174E+02  0.44868114174E+02  0.00000000000E+00 0.  1.
          6    1    1    2  502    0  0.48895975403E+02  0.15075956862E+03  0.13327234407E+04  0.13530909184E+04  0.17200000000E+03 0. -1.
         -6    1    1    2    0  501 -0.48895975403E+02 -0.15075956862E+03  0.35960890076E+03  0.42897765145E+03  0.17200000000E+03 0.  1.
</event>
<event>
 4    1  0.3190379E-002  0.4461217E+03  0.7818608E-02  0.1028885E+00
          1   -1    0    0  502    0  0.00000000000E+00  0.00000000000E+00  0.63102411764E+03  0.63102411764E+03  0.00000000000E+00 0. -1.
         -1   -1    0    0    0  501 -0.00000000000E+00 -0.00000000000E+00 -0.54848954843E+03  0.54848954843E+03  0.00000000000E+00 0.  1.
          6    1    1    2  502    0 -0.40965293172E+03 -0.40311328177E+02  0.42572706248E+03  0.61665878683E+03  0.17200000000E+03 0. -1.
         -6    1    1    2    0  501  0.40965293172E+03  0.40311328177E+02 -0.34319249328E+03  0.56285487924E+03  0.17200000000E+03 0.  1.
</event>
<event>
 4    1  0.3190379E-002  0.1943658E+03  0.7818608E-02  0.1154582E+00
          2   -1    0    0  502    0  0.00000000000E+00  0.00000000000E+00  0.73841003069E+03  0.73841003069E+03  0.00000000000E+00 0. -1.
         -2   -1    0    0    0  501 -0.00000000000E+00 -0.00000000000E+00 -0.51930685992E+02  0.51930685992E+02  0.00000000000E+00 0.  1.
          6    1    1    2  502    0 -0.63479265532E+02 -0.64532590738E+02  0.39133726326E+03  0.43694728062E+03  0.17200000000E+03 0. -1.
         -6    1    1    2    0  501  0.63479265532E+02  0.64532590738E+02  0.29514208143E+03  0.35339343606E+03  0.17200000000E+03 0.  1.
</event>
<event>
 4    1  0.3190379E-002  0.1991116E+03  0.7818608E-02  0.1150491E+00
          2   -1    0    0  502    0  0.00000000000E+00  0.00000000000E+00  0.43546895498E+03  0.43546895498E+03  0.00000000000E+00 0. -1.
         -2   -1    0    0    0  501 -0.00000000000E+00 -0.00000000000E+00 -0.14449641310E+03  0.14449641310E+03  0.00000000000E+00 0.  1.
          6    1    1    2  502    0 -0.29034415832E+02 -0.96012648125E+02  0.32186261652E+03  0.37847188775E+03  0.17200000000E+03 0. -1.
         -6    1    1    2    0  501  0.29034415832E+02  0.96012648125E+02 -0.30890074643E+02  0.20149348033E+03  0.17200000000E+03 0.  1.
</event>
<event>
 4    1  0.3190379E-002  0.2678557E+03  0.7818608E-02  0.1102513E+00
         -2   -1    0    0    0  501 -0.00000000000E+00  0.00000000000E+00  0.60535829983E+03  0.60535829983E+03  0.00000000000E+00 0.  1.
          2   -1    0    0  502    0  0.00000000000E+00 -0.00000000000E+00 -0.12167264341E+03  0.12167264341E+03  0.00000000000E+00 0. -1.
          6    1    1    2  502    0  0.18776536983E+03  0.83107538908E+02  0.18332263048E+03  0.32458263043E+03  0.17200000000E+03 0. -1.
         -6    1    1    2    0  501 -0.18776536983E+03 -0.83107538908E+02  0.30036302594E+03  0.40244831281E+03  0.17200000000E+03 0.  1.
</event>
<event>
 4    1  0.3190379E-002  0.1967152E+03  0.7818608E-02  0.1152540E+00
          4   -1    0    0  502    0  0.00000000000E+00  0.00000000000E+00  0.17378893609E+03  0.17378893609E+03  0.00000000000E+00 0. -1.
         -4   -1    0    0    0  501 -0.00000000000E+00 -0.00000000000E+00 -0.43376370835E+03  0.43376370835E+03  0.00000000000E+00 0.  1.
          6    1    1    2  502    0 -0.94967588703E+02  0.96958260880E+01  0.81931314066E+02  0.21309526549E+03  0.17200000000E+03 0. -1.
         -6    1    1    2    0  501  0.94967588703E+02 -0.96958260880E+01 -0.34190608632E+03  0.39445737895E+03  0.17200000000E+03 0.  1.
</event>
<event>
 4    1  0.3190379E-002  0.3449900E+03  0.7818608E-02  0.1064690E+00
         -2   -1    0    0    0  501 -0.00000000000E+00  0.00000000000E+00  0.75805047067E+02  0.75805047067E+02  0.00000000000E+00 0.  1.
          2   -1    0    0  502    0  0.00000000000E+00 -0.00000000000E+00 -0.15956538528E+04  0.15956538528E+04  0.00000000000E+00 0. -1.
          6    1    1    2  502    0 -0.25819595240E+03 -0.15089376223E+03 -0.86577867498E+03  0.93198218404E+03  0.17200000000E+03 0. -1.
         -6    1    1    2    0  501  0.25819595240E+03  0.15089376223E+03 -0.65407013080E+03  0.73947671588E+03  0.17200000000E+03 0.  1.
</event>
<event>
 4    1  0.3190379E-002  0.2531692E+03  0.7818608E-02  0.1111318E+00
         -2   -1    0    0    0  501 -0.00000000000E+00  0.00000000000E+00  0.50976617692E+02  0.50976617692E+02  0.00000000000E+00 0.  1.
          2   -1    0    0  502    0  0.00000000000E+00 -0.00000000000E+00 -0.16612966987E+04  0.16612966987E+04  0.00000000000E+00 0. -1.
          6    1    1    2  502    0 -0.41617284079E+02 -0.18104871013E+03 -0.12273327284E+04  0.12531720791E+04  0.17200000000E+03 0. -1.
         -6    1    1    2    0  501  0.41617284079E+02  0.18104871013E+03 -0.38298735263E+03  0.45910123726E+03  0.17200000000E+03 0.  1.
</event>
<event>
 4    1  0.3190379E-002  0.3019626E+03  0.7818608E-02  0.1084264E+00
          2   -1    0    0  502    0  0.00000000000E+00  0.00000000000E+00  0.24938154059E+04  0.24938154059E+04  0.00000000000E+00 0. -1.
         -2   -1    0    0    0  501 -0.00000000000E+00 -0.00000000000E+00 -0.39114850099E+02  0.39114850099E+02  0.00000000000E+00 0.  1.
          6    1    1    2  502    0 -0.21587135181E+03  0.12246217625E+03  0.15508308412E+04  0.15799549750E+04  0.17200000000E+03 0. -1.
         -6    1    1    2    0  501  0.21587135181E+03 -0.12246217625E+03  0.90386971462E+03  0.95297528097E+03  0.17200000000E+03 0.  1.
</event>
<event>
 4    1  0.3190379E-002  0.2313483E+03  0.7818608E-02  0.1125694E+00
         -2   -1    0    0    0  501 -0.00000000000E+00  0.00000000000E+00  0.10735845967E+03  0.10735845967E+03  0.00000000000E+00 0.  1.
          2   -1    0    0  502    0  0.00000000000E+00 -0.00000000000E+00 -0.62086707597E+03  0.62086707597E+03  0.00000000000E+00 0. -1.
          6    1    1    2  502    0  0.13214467834E+03  0.80472443853E+02 -0.41837815306E+03  0.47808190636E+03  0.17200000000E+03 0. -1.
         -6    1    1    2    0  501 -0.13214467834E+03 -0.80472443853E+02 -0.95130463240E+02  0.25014362928E+03  0.17200000000E+03 0.  1.
</event>
<event>
 4    1  0.3190379E-002  0.3373363E+03  0.7818608E-02  0.1067936E+00
         -4   -1    0    0    0  501 -0.00000000000E+00  0.00000000000E+00  0.55098149552E+03  0.55098149552E+03  0.00000000000E+00 0.  1.
          4   -1    0    0  502    0  0.00000000000E+00 -0.00000000000E+00 -0.20663474919E+03  0.20663474919E+03  0.00000000000E+00 0. -1.
          6    1    1    2  502    0 -0.13058713711E+03 -0.25915012650E+03  0.18058470524E+03  0.38263118562E+03  0.17200000000E+03 0. -1.
         -6    1    1    2    0  501  0.13058713711E+03  0.25915012650E+03  0.16376204109E+03  0.37498505909E+03  0.17200000000E+03 0. -1.
</event>
<event>
 4    1  0.3190379E-002  0.1882177E+03  0.7818608E-02  0.1160079E+00
         -1   -1    0    0    0  501 -0.00000000000E+00  0.00000000000E+00  0.46188004917E+03  0.46188004917E+03  0.00000000000E+00 0.  1.
          1   -1    0    0  502    0  0.00000000000E+00 -0.00000000000E+00 -0.34163089487E+03  0.34163089487E+03  0.00000000000E+00 0. -1.
          6    1    1    2  502    0 -0.25924388837E+02  0.71901456545E+02 -0.29366910912E+03  0.34880859944E+03  0.17200000000E+03 0. -1.
         -6    1    1    2    0  501  0.25924388837E+02 -0.71901456545E+02  0.41391826342E+03  0.45470234460E+03  0.17200000000E+03 0.  1.
</event>
<event>
 4    1  0.3190379E-002  0.1840645E+03  0.7818608E-02  0.1163926E+00
          2   -1    0    0  502    0  0.00000000000E+00  0.00000000000E+00  0.11338409565E+03  0.11338409565E+03  0.00000000000E+00 0. -1.
         -2   -1    0    0    0  501 -0.00000000000E+00 -0.00000000000E+00 -0.35911522129E+03  0.35911522129E+03  0.00000000000E+00 0.  1.
          6    1    1    2  502    0  0.64173413278E+02 -0.13323334178E+02 -0.21968211943E+03  0.28660071843E+03  0.17200000000E+03 0.  1.
         -6    1    1    2    0  501 -0.64173413278E+02  0.13323334178E+02 -0.26049006214E+02  0.18589859852E+03  0.17200000000E+03 0. -1.
</event>
<event>
 4    1  0.3190379E-002  0.2202756E+03  0.7818608E-02  0.1133678E+00
         -2   -1    0    0    0  501 -0.00000000000E+00  0.00000000000E+00  0.12690092242E+03  0.12690092242E+03  0.00000000000E+00 0.  1.
          2   -1    0    0  502    0  0.00000000000E+00 -0.00000000000E+00 -0.68498220325E+03  0.68498220325E+03  0.00000000000E+00 0. -1.
          6    1    1    2  502    0 -0.47259190579E+02 -0.12924362799E+03 -0.54886244446E+03  0.59141468481E+03  0.17200000000E+03 0. -1.
         -6    1    1    2    0  501  0.47259190579E+02  0.12924362799E+03 -0.92188363733E+01  0.22046844086E+03  0.17200000000E+03 0.  1.
</event>
<event>
 4    1  0.3190379E-002  0.2768686E+03  0.7818608E-02  0.1097412E+00
         -2   -1    0    0    0  501 -0.00000000000E+00  0.00000000000E+00  0.10877141094E+03  0.10877141094E+03  0.00000000000E+00 0.  1.
          2   -1    0    0  502    0  0.00000000000E+00 -0.00000000000E+00 -0.73750974640E+03  0.73750974640E+03  0.00000000000E+00 0. -1.
          6    1    1    2  502    0  0.21610023876E+03 -0.19310348225E+02 -0.22518281029E+03  0.35688023312E+03  0.17200000000E+03 0.  1.
         -6    1    1    2    0  501 -0.21610023876E+03  0.19310348225E+02 -0.40355552517E+03  0.48940092422E+03  0.17200000000E+03 0.  1.
</event>
<event>
 4    1  0.3190379E-002  0.2048215E+03  0.7818608E-02  0.1145734E+00
          2   -1    0    0  502    0  0.00000000000E+00  0.00000000000E+00  0.31382551651E+03  0.31382551651E+03  0.00000000000E+00 0. -1.
         -2   -1    0    0    0  501 -0.00000000000E+00 -0.00000000000E+00 -0.15791831878E+03  0.15791831878E+03  0.00000000000E+00 0.  1.
          6    1    1    2  502    0  0.65608050495E+02 -0.89796660152E+02 -0.14456810446E+02  0.20533108832E+03  0.17200000000E+03 0. -1.
         -6    1    1    2    0  501 -0.65608050495E+02  0.89796660152E+02  0.17036400818E+03  0.26641274697E+03  0.17200000000E+03 0.  1.
</event>
<event>
 4    1  0.3190379E-002  0.3323582E+03  0.7818608E-02  0.1070098E+00
         -2   -1    0    0    0  501 -0.00000000000E+00  0.00000000000E+00  0.97747219575E+02  0.97747219575E+02  0.00000000000E+00 0.  1.
          2   -1    0    0  502    0  0.00000000000E+00 -0.00000000000E+00 -0.12623269546E+04  0.12623269546E+04  0.00000000000E+00 0. -1.
          6    1    1    2  502    0 -0.25633709538E+03  0.12316356512E+03 -0.80240150201E+03  0.86851029969E+03  0.17200000000E+03 0. -1.
         -6    1    1    2    0  501  0.25633709538E+03 -0.12316356512E+03 -0.36217823306E+03  0.49156387453E+03  0.17200000000E+03 0.  1.
</event>
<event>
 4    1  0.3190379E-002  0.1734810E+03  0.7818608E-02  0.1174266E+00
         -2   -1    0    0    0  501 -0.00000000000E+00  0.00000000000E+00  0.22228775285E+03  0.22228775285E+03  0.00000000000E+00 0.  1.
          2   -1    0    0  502    0  0.00000000000E+00 -0.00000000000E+00 -0.14085211414E+03  0.14085211414E+03  0.00000000000E+00 0. -1.
          6    1    1    2  502    0 -0.22555640720E+02 -0.16987220512E+01  0.49638648368E+01  0.17355195919E+03  0.17200000000E+03 0. -1.
         -6    1    1    2    0  501  0.22555640720E+02  0.16987220512E+01  0.76471773874E+02  0.18958790780E+03  0.17200000000E+03 0.  1.
</event>
<event>
 4    1  0.3190379E-002  0.2059423E+03  0.7818608E-02  0.1144820E+00
          2   -1    0    0  502    0  0.00000000000E+00  0.00000000000E+00  0.17165816062E+04  0.17165816062E+04  0.00000000000E+00 0. -1.
         -2   -1    0    0    0  501 -0.00000000000E+00 -0.00000000000E+00 -0.73244773992E+02  0.73244773992E+02  0.00000000000E+00 0.  1.
          6    1    1    2  502    0 -0.11209911900E+03 -0.16187181111E+02  0.15501705136E+04  0.15637905418E+04  0.17200000000E+03 0. -1.
         -6    1    1    2    0  501  0.11209911900E+03  0.16187181111E+02  0.93166318557E+02  0.22603583837E+03  0.17200000000E+03 0.  1.
</event>
<event>
 4    1  0.3190379E-002  0.2003496E+03  0.7818608E-02  0.1149444E+00
          2   -1    0    0  502    0  0.00000000000E+00  0.00000000000E+00  0.81329300589E+03  0.81329300589E+03  0.00000000000E+00 0. -1.
         -2   -1    0    0    0  501 -0.00000000000E+00 -0.00000000000E+00 -0.11483602158E+03  0.11483602158E+03  0.00000000000E+00 0.  1.
          6    1    1    2  502    0  0.33230337541E+02  0.97219881187E+02  0.69965543156E+03  0.72777584704E+03  0.17200000000E+03 0. -1.
         -6    1    1    2    0  501 -0.33230337541E+02 -0.97219881187E+02 -0.11984472420E+01  0.20035318043E+03  0.17200000000E+03 0.  1.
</event>
<event>
 4    1  0.3190379E-002  0.2348086E+03  0.7818608E-02  0.1123300E+00
         -2   -1    0    0    0  501 -0.00000000000E+00  0.00000000000E+00  0.20936153098E+03  0.20936153098E+03  0.00000000000E+00 0.  1.
          2   -1    0    0  502    0  0.00000000000E+00 -0.00000000000E+00 -0.59178545789E+03  0.59178545789E+03  0.00000000000E+00 0. -1.
          6    1    1    2  502    0  0.13612297946E+03  0.83794990729E+02 -0.48963064629E+03  0.54302231611E+03  0.17200000000E+03 0. -1.
         -6    1    1    2    0  501 -0.13612297946E+03 -0.83794990729E+02  0.10720671938E+03  0.25812467276E+03  0.17200000000E+03 0.  1.
</event>
<event>
 4    1  0.3190379E-002  0.5501988E+03  0.7818608E-02  0.1001448E+00
          2   -1    0    0  502    0  0.00000000000E+00  0.00000000000E+00  0.51472034845E+03  0.51472034845E+03  0.00000000000E+00 0. -1.
         -2   -1    0    0    0  501 -0.00000000000E+00 -0.00000000000E+00 -0.72715888250E+03  0.72715888250E+03  0.00000000000E+00 0.  1.
          6    1    1    2  502    0 -0.47758386602E+03  0.21224606635E+03  0.16529869567E+03  0.57449316841E+03  0.17200000000E+03 0. -1.
         -6    1    1    2    0  501  0.47758386602E+03 -0.21224606635E+03 -0.37773722971E+03  0.66738606254E+03  0.17200000000E+03 0.  1.
</event>
<event>
 4    1  0.3190379E-002  0.1886889E+03  0.7818608E-02  0.1159649E+00
          2   -1    0    0  502    0  0.00000000000E+00  0.00000000000E+00  0.13036354454E+03  0.13036354454E+03  0.00000000000E+00 0. -1.
         -2   -1    0    0    0  501 -0.00000000000E+00 -0.00000000000E+00 -0.39480512187E+03  0.39480512187E+03  0.00000000000E+00 0.  1.
          6    1    1    2  502    0 -0.66095557304E+02 -0.40631112605E+02  0.13564959322E+02  0.18917589204E+03  0.17200000000E+03 0. -1.
         -6    1    1    2    0  501  0.66095557304E+02  0.40631112605E+02 -0.27800653665E+03  0.33599277437E+03  0.17200000000E+03 0.  1.
</event>
<event>
 4    1  0.3190379E-002  0.2810670E+03  0.7818608E-02  0.1095108E+00
         -1   -1    0    0    0  501 -0.00000000000E+00  0.00000000000E+00  0.35147641957E+03  0.35147641957E+03  0.00000000000E+00 0.  1.
          1   -1    0    0  502    0  0.00000000000E+00 -0.00000000000E+00 -0.58206498230E+03  0.58206498230E+03  0.00000000000E+00 0. -1.
          6    1    1    2  502    0 -0.10015862389E+03 -0.19845125132E+03  0.25041500519E+03  0.37643900424E+03  0.17200000000E+03 0. -1.
         -6    1    1    2    0  501  0.10015862389E+03  0.19845125132E+03 -0.48100356792E+03  0.55710239763E+03  0.17200000000E+03 0.  1.
</event>
<event>
 4    1  0.3190379E-002  0.2054929E+03  0.7818608E-02  0.1145186E+00
          2   -1    0    0  502    0  0.00000000000E+00  0.00000000000E+00  0.12392228649E+04  0.12392228649E+04  0.00000000000E+00 0. -1.
         -2   -1    0    0    0  501 -0.00000000000E+00 -0.00000000000E+00 -0.34158463339E+02  0.34158463339E+02  0.00000000000E+00 0.  1.
          6    1    1    2  502    0 -0.11244238678E+03  0.22491027092E+00  0.63387912602E+03  0.66635582637E+03  0.17200000000E+03 0.  1.
         -6    1    1    2    0  501  0.11244238678E+03 -0.22491027092E+00  0.57118527557E+03  0.60702550190E+03  0.17200000000E+03 0. -1.
</event>
<event>
 4    1  0.3190379E-002  0.2805786E+03  0.7818608E-02  0.1095373E+00
         -1   -1    0    0    0  501 -0.00000000000E+00  0.00000000000E+00  0.31798912531E+02  0.31798912531E+02  0.00000000000E+00 0.  1.
          1   -1    0    0  502    0  0.00000000000E+00 -0.00000000000E+00 -0.35600046218E+04  0.35600046218E+04  0.00000000000E+00 0. -1.
          6    1    1    2  502    0  0.13031342699E+03  0.17932864355E+03 -0.27552412771E+04  0.27694907198E+04  0.17200000000E+03 0. -1.
         -6    1    1    2    0  501 -0.13031342699E+03 -0.17932864355E+03 -0.77296443215E+03  0.82231281458E+03  0.17200000000E+03 0.  1.
</event>
<event>
 4    1  0.3190379E-002  0.2602302E+03  0.7818608E-02  0.1107005E+00
          1   -1    0    0  502    0  0.00000000000E+00  0.00000000000E+00  0.58227878902E+03  0.58227878902E+03  0.00000000000E+00 0. -1.
         -1   -1    0    0    0  501 -0.00000000000E+00 -0.00000000000E+00 -0.12996213013E+03  0.12996213013E+03  0.00000000000E+00 0.  1.
          6    1    1    2  502    0  0.13815873876E+03 -0.13801427339E+03  0.11069949945E+03  0.28279702250E+03  0.17200000000E+03 0. -1.
         -6    1    1    2    0  501 -0.13815873876E+03  0.13801427339E+03  0.34161715943E+03  0.42944389665E+03  0.17200000000E+03 0. -1.
</event>
<event>
 4    1  0.3190379E-002  0.3302130E+03  0.7818608E-02  0.1071043E+00
          2   -1    0    0  502    0  0.00000000000E+00  0.00000000000E+00  0.23752611448E+04  0.23752611448E+04  0.00000000000E+00 0. -1.
         -2   -1    0    0    0  501 -0.00000000000E+00 -0.00000000000E+00 -0.95540815564E+02  0.95540815564E+02  0.00000000000E+00 0.  1.
          6    1    1    2  502    0 -0.18310259425E+03  0.21431305270E+03  0.20302970958E+04  0.20569751923E+04  0.17200000000E+03 0. -1.
         -6    1    1    2    0  501  0.18310259425E+03 -0.21431305270E+03  0.24942323344E+03  0.41382676806E+03  0.17200000000E+03 0.  1.
</event>
<event>
 4    1  0.3190379E-002  0.1741006E+03  0.7818608E-02  0.1173638E+00
         -1   -1    0    0    0  501 -0.00000000000E+00  0.00000000000E+00  0.48865386495E+02  0.48865386495E+02  0.00000000000E+00 0.  1.
          1   -1    0    0  502    0  0.00000000000E+00 -0.00000000000E+00 -0.64221624192E+03  0.64221624192E+03  0.00000000000E+00 0. -1.
          6    1    1    2  502    0 -0.21333822259E+02 -0.16488865184E+02 -0.23283744151E+03  0.29073061211E+03  0.17200000000E+03 0.  1.
         -6    1    1    2    0  501  0.21333822259E+02  0.16488865184E+02 -0.36051341391E+03  0.40035101631E+03  0.17200000000E+03 0.  1.
</event>
<event>
 4    1  0.3190379E-002  0.1812531E+03  0.7818608E-02  0.1166596E+00
         -3   -1    0    0    0  501 -0.00000000000E+00  0.00000000000E+00  0.10498631869E+04  0.10498631869E+04  0.00000000000E+00 0.  1.
          3   -1    0    0  502    0  0.00000000000E+00 -0.00000000000E+00 -0.40229703728E+02  0.40229703728E+02  0.00000000000E+00 0. -1.
          6    1    1    2  502    0 -0.42052764504E+02 -0.38733017858E+02  0.76171707922E+03  0.78298505123E+03  0.17200000000E+03 0.  1.
         -6    1    1    2    0  501  0.42052764504E+02  0.38733017858E+02  0.24791640399E+03  0.30710783943E+03  0.17200000000E+03 0. -1.
</event>
<event>
 4    1  0.3190379E-002  0.6651746E+03  0.7818608E-02  0.9778715E-01
          1   -1    0    0  502    0  0.00000000000E+00  0.00000000000E+00  0.34606730979E+03  0.34606730979E+03  0.00000000000E+00 0. -1.
         -1   -1    0    0    0  501 -0.00000000000E+00 -0.00000000000E+00 -0.13379051643E+04  0.13379051643E+04  0.00000000000E+00 0.  1.
          6    1    1    2  502    0  0.63344423696E+03 -0.10780345034E+03 -0.31854188588E+03  0.73751346991E+03  0.17200000000E+03 0. -1.
         -6    1    1    2    0  501 -0.63344423696E+03  0.10780345034E+03 -0.67329596863E+03  0.94645900419E+03  0.17200000000E+03 0.  1.
</event>
<event>
 4    1  0.3190379E-002  0.1917760E+03  0.7818608E-02  0.1156869E+00
         -1   -1    0    0    0  501 -0.00000000000E+00  0.00000000000E+00  0.10545054721E+03  0.10545054721E+03  0.00000000000E+00 0.  1.
          1   -1    0    0  502    0  0.00000000000E+00 -0.00000000000E+00 -0.94381783965E+03  0.94381783965E+03  0.00000000000E+00 0. -1.
          6    1    1    2  502    0 -0.78213736673E+02 -0.32811999625E+02 -0.83575398570E+03  0.85747462967E+03  0.17200000000E+03 0. -1.
         -6    1    1    2    0  501  0.78213736673E+02  0.32811999625E+02 -0.26133067326E+01  0.19179375719E+03  0.17200000000E+03 0.  1.
</event>
<event>
 4    1  0.3190379E-002  0.1933230E+03  0.7818608E-02  0.1155498E+00
          2   -1    0    0  502    0  0.00000000000E+00  0.00000000000E+00  0.67239307159E+03  0.67239307159E+03  0.00000000000E+00 0. -1.
         -2   -1    0    0    0  501 -0.00000000000E+00 -0.00000000000E+00 -0.61215366574E+02  0.61215366574E+02  0.00000000000E+00 0.  1.
          6    1    1    2  502    0  0.47131649846E+01  0.88133719228E+02  0.41684945120E+03  0.45949671528E+03  0.17200000000E+03 0. -1.
         -6    1    1    2    0  501 -0.47131649846E+01 -0.88133719228E+02  0.19432825381E+03  0.27411172288E+03  0.17200000000E+03 0.  1.
</event>
<event>
 4    1  0.3190379E-002  0.1957369E+03  0.7818608E-02  0.1153386E+00
         -4   -1    0    0    0  501 -0.00000000000E+00  0.00000000000E+00  0.78193573825E+02  0.78193573825E+02  0.00000000000E+00 0.  1.
          4   -1    0    0  502    0  0.00000000000E+00 -0.00000000000E+00 -0.49390941511E+03  0.49390941511E+03  0.00000000000E+00 0. -1.
          6    1    1    2  502    0  0.79922309955E+02  0.48387737017E+02 -0.23338632549E+03  0.30460158510E+03  0.17200000000E+03 0. -1.
         -6    1    1    2    0  501 -0.79922309955E+02 -0.48387737017E+02 -0.18232951580E+03  0.26750140384E+03  0.17200000000E+03 0.  1.
</event>
<event>
 4    1  0.3190379E-002  0.2357326E+03  0.7818608E-02  0.1122669E+00
          4   -1    0    0  502    0  0.00000000000E+00  0.00000000000E+00  0.21583363948E+03  0.21583363948E+03  0.00000000000E+00 0. -1.
         -4   -1    0    0    0  501 -0.00000000000E+00 -0.00000000000E+00 -0.25813515192E+03  0.25813515192E+03  0.00000000000E+00 0.  1.
          6    1    1    2  502    0 -0.34115313411E+02 -0.15755005669E+03 -0.90870259488E+01  0.23590771292E+03  0.17200000000E+03 0. -1.
         -6    1    1    2    0  501  0.34115313411E+02  0.15755005669E+03 -0.33214486493E+02  0.23806107848E+03  0.17200000000E+03 0.  1.
</event>
<event>
 4    1  0.3190379E-002  0.2219868E+03  0.7818608E-02  0.1132410E+00
         -2   -1    0    0    0  501 -0.00000000000E+00  0.00000000000E+00  0.25612790253E+02  0.25612790253E+02  0.00000000000E+00 0.  1.
          2   -1    0    0  502    0  0.00000000000E+00 -0.00000000000E+00 -0.22834999947E+04  0.22834999947E+04  0.00000000000E+00 0. -1.
          6    1    1    2  502    0  0.95229984624E+02  0.10307960870E+03 -0.15870688176E+04  0.16025185140E+04  0.17200000000E+03 0. -1.
         -6    1    1    2    0  501 -0.95229984624E+02 -0.10307960870E+03 -0.67081838678E+03  0.70659427095E+03  0.17200000000E+03 0.  1.
</event>
<event>
 4    1  0.3190379E-002  0.2338315E+03  0.7818608E-02  0.1123972E+00
          1   -1    0    0  502    0  0.00000000000E+00  0.00000000000E+00  0.31512721612E+04  0.31512721612E+04  0.00000000000E+00 0. -1.
         -1   -1    0    0    0  501 -0.00000000000E+00 -0.00000000000E+00 -0.55248602803E+02  0.55248602803E+02  0.00000000000E+00 0.  1.
          6    1    1    2  502    0  0.84631039927E+02  0.13390573771E+03  0.28758657177E+04  0.28853562667E+04  0.17200000000E+03 0. -1.
         -6    1    1    2    0  501 -0.84631039927E+02 -0.13390573771E+03  0.22015784069E+03  0.32116449730E+03  0.17200000000E+03 0.  1.
</event>
<event>
 4    1  0.3190379E-002  0.3124269E+03  0.7818608E-02  0.1079188E+00
         -2   -1    0    0    0  501 -0.00000000000E+00  0.00000000000E+00  0.10473531442E+03  0.10473531442E+03  0.00000000000E+00 0.  1.
          2   -1    0    0  502    0  0.00000000000E+00 -0.00000000000E+00 -0.10121736766E+04  0.10121736766E+04  0.00000000000E+00 0. -1.
          6    1    1    2  502    0  0.13247095697E+01  0.26081568346E+03 -0.61091715744E+03  0.68617078694E+03  0.17200000000E+03 0. -1.
         -6    1    1    2    0  501 -0.13247095697E+01 -0.26081568346E+03 -0.29652120477E+03  0.43073820410E+03  0.17200000000E+03 0.  1.
</event>
<event>
 4    1  0.3190379E-002  0.2516073E+03  0.7818608E-02  0.1112293E+00
         -2   -1    0    0    0  501 -0.00000000000E+00  0.00000000000E+00  0.52144432065E+03  0.52144432065E+03  0.00000000000E+00 0.  1.
          2   -1    0    0  502    0  0.00000000000E+00 -0.00000000000E+00 -0.12880313609E+03  0.12880313609E+03  0.00000000000E+00 0. -1.
          6    1    1    2  502    0 -0.41093118397E+02  0.17897924676E+03  0.11840371231E+03  0.27807490760E+03  0.17200000000E+03 0.  1.
         -6    1    1    2    0  501  0.41093118397E+02 -0.17897924676E+03  0.27423747225E+03  0.37217254914E+03  0.17200000000E+03 0.  1.
</event>
<event>
 4    1  0.3190379E-002  0.3283110E+03  0.7818608E-02  0.1071887E+00
         -1   -1    0    0    0  501 -0.00000000000E+00  0.00000000000E+00  0.46999854696E+03  0.46999854696E+03  0.00000000000E+00 0.  1.
          1   -1    0    0  502    0  0.00000000000E+00 -0.00000000000E+00 -0.26793813608E+03  0.26793813608E+03  0.00000000000E+00 0. -1.
          6    1    1    2  502    0  0.19817971148E+03  0.19730411796E+03 -0.39015955597E+02  0.33062116962E+03  0.17200000000E+03 0. -1.
         -6    1    1    2    0  501 -0.19817971148E+03 -0.19730411796E+03  0.24107636648E+03  0.40731551343E+03  0.17200000000E+03 0.  1.
</event>
<event>
 4    1  0.3190379E-002  0.2515796E+03  0.7818608E-02  0.1112311E+00
         -2   -1    0    0    0  501 -0.00000000000E+00  0.00000000000E+00  0.97554020857E+02  0.97554020857E+02  0.00000000000E+00 0.  1.
          2   -1    0    0  502    0  0.00000000000E+00 -0.00000000000E+00 -0.67715110749E+03  0.67715110749E+03  0.00000000000E+00 0. -1.
          6    1    1    2  502    0 -0.25089144065E+02 -0.18187586671E+03 -0.36906833931E+03  0.44665840989E+03  0.17200000000E+03 0. -1.
         -6    1    1    2    0  501  0.25089144065E+02  0.18187586671E+03 -0.21052874732E+03  0.32804671846E+03  0.17200000000E+03 0.  1.
</event>
<event>
 4    1  0.3190379E-002  0.1925224E+03  0.7818608E-02  0.1156206E+00
          1   -1    0    0  502    0  0.00000000000E+00  0.00000000000E+00  0.17956272588E+04  0.17956272588E+04  0.00000000000E+00 0. -1.
         -1   -1    0    0    0  501 -0.00000000000E+00 -0.00000000000E+00 -0.20938233101E+02  0.20938233101E+02  0.00000000000E+00 0.  1.
          6    1    1    2  502    0  0.86012139019E+02 -0.90981770183E+01  0.77926065318E+03  0.80269049483E+03  0.17200000000E+03 0. -1.
         -6    1    1    2    0  501 -0.86012139019E+02  0.90981770183E+01  0.99542837251E+03  0.10138749971E+04  0.17200000000E+03 0.  1.
</event>
<event>
 4    1  0.3190379E-002  0.1807748E+03  0.7818608E-02  0.1167055E+00
          1   -1    0    0  502    0  0.00000000000E+00  0.00000000000E+00  0.42471760680E+03  0.42471760680E+03  0.00000000000E+00 0. -1.
         -1   -1    0    0    0  501 -0.00000000000E+00 -0.00000000000E+00 -0.37156352518E+03  0.37156352518E+03  0.00000000000E+00 0.  1.
          6    1    1    2  502    0 -0.51296612956E+02 -0.21544711562E+02  0.38110506946E+03  0.42180634309E+03  0.17200000000E+03 0. -1.
         -6    1    1    2    0  501  0.51296612956E+02  0.21544711562E+02 -0.32795098784E+03  0.37447478890E+03  0.17200000000E+03 0.  1.
</event>
<event>
 4    1  0.3190379E-002  0.2543404E+03  0.7818608E-02  0.1110592E+00
         -1   -1    0    0    0  501 -0.00000000000E+00  0.00000000000E+00  0.21998234815E+03  0.21998234815E+03  0.00000000000E+00 0.  1.
          1   -1    0    0  502    0  0.00000000000E+00 -0.00000000000E+00 -0.12630672676E+04  0.12630672676E+04  0.00000000000E+00 0. -1.
          6    1    1    2  502    0  0.25216951476E+02 -0.18565867333E+03 -0.11710361172E+04  0.11983382767E+04  0.17200000000E+03 0. -1.
         -6    1    1    2    0  501 -0.25216951476E+02  0.18565867333E+03  0.12795119769E+03  0.28471133910E+03  0.17200000000E+03 0.  1.
</event>
<event>
 4    1  0.3190379E-002  0.2649772E+03  0.7818608E-02  0.1104189E+00
         -2   -1    0    0    0  501 -0.00000000000E+00  0.00000000000E+00  0.32226657298E+02  0.32226657298E+02  0.00000000000E+00 0.  1.
          2   -1    0    0  502    0  0.00000000000E+00 -0.00000000000E+00 -0.36534756998E+04  0.36534756998E+04  0.00000000000E+00 0. -1.
          6    1    1    2  502    0  0.55695930802E+02 -0.19371851912E+03 -0.29814630859E+04  0.29932148326E+04  0.17200000000E+03 0. -1.
         -6    1    1    2    0  501 -0.55695930802E+02  0.19371851912E+03 -0.63978595662E+03  0.69248752454E+03  0.17200000000E+03 0.  1.
</event>
<event>
 4    1  0.3190379E-002  0.1767996E+03  0.7818608E-02  0.1170937E+00
          1   -1    0    0  502    0  0.00000000000E+00  0.00000000000E+00  0.13326536546E+03  0.13326536546E+03  0.00000000000E+00 0. -1.
         -1   -1    0    0    0  501 -0.00000000000E+00 -0.00000000000E+00 -0.25694560019E+03  0.25694560019E+03  0.00000000000E+00 0.  1.
          6    1    1    2  502    0 -0.84957197655E+01  0.40023846320E+02 -0.42457873192E+01  0.17685053644E+03  0.17200000000E+03 0. -1.
         -6    1    1    2    0  501  0.84957197655E+01 -0.40023846320E+02 -0.11943444741E+03  0.21336042922E+03  0.17200000000E+03 0.  1.
</event>
<event>
 4    1  0.3190379E-002  0.4644100E+03  0.7818608E-02  0.1023510E+00
          1   -1    0    0  502    0  0.00000000000E+00  0.00000000000E+00  0.11024594729E+04  0.11024594729E+04  0.00000000000E+00 0. -1.
         -1   -1    0    0    0  501 -0.00000000000E+00 -0.00000000000E+00 -0.31002729700E+03  0.31002729700E+03  0.00000000000E+00 0.  1.
          6    1    1    2  502    0 -0.26269542598E+03  0.34217502234E+03  0.82521681395E+03  0.94692102246E+03  0.17200000000E+03 0. -1.
         -6    1    1    2    0  501  0.26269542598E+03 -0.34217502234E+03 -0.32784638004E+02  0.46556574748E+03  0.17200000000E+03 0.  1.
</event>
<event>
 4    1  0.3190379E-002  0.2011440E+03  0.7818608E-02  0.1148777E+00
          2   -1    0    0  502    0  0.00000000000E+00  0.00000000000E+00  0.14205554476E+04  0.14205554476E+04  0.00000000000E+00 0. -1.
         -2   -1    0    0    0  501 -0.00000000000E+00 -0.00000000000E+00 -0.35461755510E+02  0.35461755510E+02  0.00000000000E+00 0.  1.
          6    1    1    2  502    0 -0.44364096896E+02 -0.94375429321E+02  0.10155497325E+04  0.10352778149E+04  0.17200000000E+03 0. -1.
         -6    1    1    2    0  501  0.44364096896E+02  0.94375429321E+02  0.36954395954E+03  0.42073938820E+03  0.17200000000E+03 0.  1.
</event>
<event>
 4    1  0.3190379E-002  0.3072217E+03  0.7818608E-02  0.1081685E+00
         -2   -1    0    0    0  501 -0.00000000000E+00  0.00000000000E+00  0.30331702339E+03  0.30331702339E+03  0.00000000000E+00 0.  1.
          2   -1    0    0  502    0  0.00000000000E+00 -0.00000000000E+00 -0.31779215905E+03  0.31779215905E+03  0.00000000000E+00 0. -1.
          6    1    1    2  502    0 -0.15789522700E+03 -0.19967539814E+03  0.37569740289E+02  0.30951034347E+03  0.17200000000E+03 0. -1.
         -6    1    1    2    0  501  0.15789522700E+03  0.19967539814E+03 -0.52044875948E+02  0.31159883896E+03  0.17200000000E+03 0. -1.
</event>
<event>
 4    1  0.3190379E-002  0.2461117E+03  0.7818608E-02  0.1115787E+00
          2   -1    0    0  502    0  0.00000000000E+00  0.00000000000E+00  0.31883522464E+04  0.31883522464E+04  0.00000000000E+00 0. -1.
         -2   -1    0    0    0  501 -0.00000000000E+00 -0.00000000000E+00 -0.19000093958E+02  0.19000093958E+02  0.00000000000E+00 0.  1.
          6    1    1    2  502    0  0.52012136422E+02  0.16817165093E+03  0.16031346532E+04  0.16219160530E+04  0.17200000000E+03 0. -1.
         -6    1    1    2    0  501 -0.52012136422E+02 -0.16817165093E+03  0.15662174992E+04  0.15854362874E+04  0.17200000000E+03 0.  1.
</event>
<event>
 4    1  0.3190379E-002  0.1789075E+03  0.7818608E-02  0.1168865E+00
          2   -1    0    0  502    0  0.00000000000E+00  0.00000000000E+00  0.24766682455E+04  0.24766682455E+04  0.00000000000E+00 0. -1.
         -2   -1    0    0    0  501 -0.00000000000E+00 -0.00000000000E+00 -0.31897402371E+02  0.31897402371E+02  0.00000000000E+00 0.  1.
          6    1    1    2  502    0 -0.47915618400E+02  0.11312556278E+02  0.21897565138E+04  0.21970529056E+04  0.17200000000E+03 0. -1.
         -6    1    1    2    0  501  0.47915618400E+02 -0.11312556278E+02  0.25501432934E+03  0.31151274225E+03  0.17200000000E+03 0.  1.
</event>
<event>
 4    1  0.3190379E-002  0.3532332E+03  0.7818608E-02  0.1061296E+00
          1   -1    0    0  502    0  0.00000000000E+00  0.00000000000E+00  0.81367612266E+03  0.81367612266E+03  0.00000000000E+00 0. -1.
         -1   -1    0    0    0  501 -0.00000000000E+00 -0.00000000000E+00 -0.16972186967E+03  0.16972186967E+03  0.00000000000E+00 0.  1.
          6    1    1    2  502    0  0.18978078421E+02  0.30794399070E+03  0.47471180456E+03  0.59171358465E+03  0.17200000000E+03 0. -1.
         -6    1    1    2    0  501 -0.18978078421E+02 -0.30794399070E+03  0.16924244842E+03  0.39168440768E+03  0.17200000000E+03 0.  1.
</event>
<event>
 4    1  0.3190379E-002  0.3011200E+03  0.7818608E-02  0.1084682E+00
          2   -1    0    0  502    0  0.00000000000E+00  0.00000000000E+00  0.27487214601E+04  0.27487214601E+04  0.00000000000E+00 0. -1.
         -2   -1    0    0    0  501 -0.00000000000E+00 -0.00000000000E+00 -0.33194413721E+02  0.33194413721E+02  0.00000000000E+00 0.  1.
          6    1    1    2  502    0  0.44552281437E+02 -0.24311384635E+03  0.12479254499E+04  0.12837410863E+04  0.17200000000E+03 0.  1.
         -6    1    1    2    0  501 -0.44552281437E+02  0.24311384635E+03  0.14676015965E+04  0.14981747876E+04  0.17200000000E+03 0.  1.
</event>
<event>
 4    1  0.3190379E-002  0.4059545E+03  0.7818608E-02  0.1041737E+00
         -1   -1    0    0    0  501 -0.00000000000E+00  0.00000000000E+00  0.44589604353E+03  0.44589604353E+03  0.00000000000E+00 0.  1.
          1   -1    0    0  502    0  0.00000000000E+00 -0.00000000000E+00 -0.11930814860E+04  0.11930814860E+04  0.00000000000E+00 0. -1.
          6    1    1    2  502    0 -0.53961551798E+02 -0.36373510850E+03 -0.10544205428E+04  0.11298680274E+04  0.17200000000E+03 0. -1.
         -6    1    1    2    0  501  0.53961551798E+02  0.36373510850E+03  0.30723510037E+03  0.50910950210E+03  0.17200000000E+03 0.  1.
</event>
<event>
 4    1  0.3190379E-002  0.2023169E+03  0.7818608E-02  0.1147799E+00
          1   -1    0    0  502    0  0.00000000000E+00  0.00000000000E+00  0.17919449626E+03  0.17919449626E+03  0.00000000000E+00 0. -1.
         -1   -1    0    0    0  501 -0.00000000000E+00 -0.00000000000E+00 -0.27887949713E+03  0.27887949713E+03  0.00000000000E+00 0.  1.
          6    1    1    2  502    0  0.68082910695E+02  0.81931847113E+02  0.47579426385E+02  0.20783626275E+03  0.17200000000E+03 0. -1.
         -6    1    1    2    0  501 -0.68082910695E+02 -0.81931847113E+02 -0.14726442725E+03  0.25023773064E+03  0.17200000000E+03 0.  1.
</event>
<event>
 4    1  0.3190379E-002  0.2541051E+03  0.7818608E-02  0.1110738E+00
         -1   -1    0    0    0  501 -0.00000000000E+00  0.00000000000E+00  0.42386176177E+02  0.42386176177E+02  0.00000000000E+00 0.  1.
          1   -1    0    0  502    0  0.00000000000E+00 -0.00000000000E+00 -0.18466304693E+04  0.18466304693E+04  0.00000000000E+00 0. -1.
          6    1    1    2  502    0  0.83918496133E+02  0.16716188044E+03 -0.12973056082E+04  0.13219573553E+04  0.17200000000E+03 0. -1.
         -6    1    1    2    0  501 -0.83918496133E+02 -0.16716188044E+03 -0.50693868496E+03  0.56705929018E+03  0.17200000000E+03 0. -1.
</event>
<event>
 4    1  0.3190379E-002  0.1870182E+03  0.7818608E-02  0.1161179E+00
          2   -1    0    0  502    0  0.00000000000E+00  0.00000000000E+00  0.15658095374E+03  0.15658095374E+03  0.00000000000E+00 0. -1.
         -2   -1    0    0    0  501 -0.00000000000E+00 -0.00000000000E+00 -0.22538276783E+03  0.22538276783E+03  0.00000000000E+00 0.  1.
          6    1    1    2  502    0 -0.60914691542E+02  0.41002495121E+02 -0.52439819450E+02  0.19423114816E+03  0.17200000000E+03 0. -1.
         -6    1    1    2    0  501  0.60914691542E+02 -0.41002495121E+02 -0.16361994634E+02  0.18773257341E+03  0.17200000000E+03 0. -1.
</event>
<event>
 4    1  0.3190379E-002  0.1968705E+03  0.7818608E-02  0.1152407E+00
         -2   -1    0    0    0  501 -0.00000000000E+00  0.00000000000E+00  0.26186439079E+02  0.26186439079E+02  0.00000000000E+00 0.  1.
          2   -1    0    0  502    0  0.00000000000E+00 -0.00000000000E+00 -0.16088426145E+04  0.16088426145E+04  0.00000000000E+00 0. -1.
          6    1    1    2  502    0 -0.95113546012E+02  0.11286930328E+02 -0.10226071836E+04  0.10413853434E+04  0.17200000000E+03 0. -1.
         -6    1    1    2    0  501  0.95113546012E+02 -0.11286930328E+02 -0.56004899178E+03  0.59364371017E+03  0.17200000000E+03 0.  1.
</event>
<event>
 4    1  0.3190379E-002  0.2086131E+03  0.7818608E-02  0.1142669E+00
          2   -1    0    0  502    0  0.00000000000E+00  0.00000000000E+00  0.35815352180E+04  0.35815352180E+04  0.00000000000E+00 0. -1.
         -2   -1    0    0    0  501 -0.00000000000E+00 -0.00000000000E+00 -0.18577259255E+02  0.18577259255E+02  0.00000000000E+00 0.  1.
          6    1    1    2  502    0 -0.39019047555E+02  0.11141330784E+03  0.28401784745E+04  0.28478295557E+04  0.17200000000E+03 0. -1.
         -6    1    1    2    0  501  0.39019047555E+02 -0.11141330784E+03  0.72277948424E+03  0.75228292156E+03  0.17200000000E+03 0.  1.
</event>
<event>
 4    1  0.3190379E-002  0.2440677E+03  0.7818608E-02  0.1117112E+00
         -2   -1    0    0    0  501 -0.00000000000E+00  0.00000000000E+00  0.53430813867E+03  0.53430813867E+03  0.00000000000E+00 0.  1.
          2   -1    0    0  502    0  0.00000000000E+00 -0.00000000000E+00 -0.12531001244E+03  0.12531001244E+03  0.00000000000E+00 0. -1.
          6    1    1    2  502    0  0.15976497036E+03 -0.66784589992E+02  0.94964051040E+02  0.26189157719E+03  0.17200000000E+03 0. -1.
         -6    1    1    2    0  501 -0.15976497036E+03  0.66784589992E+02  0.31403407519E+03  0.39772657391E+03  0.17200000000E+03 0.  1.
</event>
<event>
 4    1  0.3190379E-002  0.1745513E+03  0.7818608E-02  0.1173183E+00
         -2   -1    0    0    0  501 -0.00000000000E+00  0.00000000000E+00  0.75468907562E+03  0.75468907562E+03  0.00000000000E+00 0.  1.
          2   -1    0    0  502    0  0.00000000000E+00 -0.00000000000E+00 -0.40444206668E+02  0.40444206668E+02  0.00000000000E+00 0. -1.
          6    1    1    2  502    0  0.14303841770E+02  0.26068562983E+02  0.34030275821E+03  0.38245802006E+03  0.17200000000E+03 0.  1.
         -6    1    1    2    0  501 -0.14303841770E+02 -0.26068562983E+02  0.37394211074E+03  0.41267526222E+03  0.17200000000E+03 0. -1.
</event>
<event>
 4    1  0.3190379E-002  0.2055264E+03  0.7818608E-02  0.1145158E+00
          2   -1    0    0  502    0  0.00000000000E+00  0.00000000000E+00  0.26564201260E+04  0.26564201260E+04  0.00000000000E+00 0. -1.
         -2   -1    0    0    0  501 -0.00000000000E+00 -0.00000000000E+00 -0.15964780714E+02  0.15964780714E+02  0.00000000000E+00 0.  1.
          6    1    1    2  502    0  0.51451347541E+02 -0.10004923169E+03  0.14043459838E+04  0.14193057219E+04  0.17200000000E+03 0.  1.
         -6    1    1    2    0  501 -0.51451347541E+02  0.10004923169E+03  0.12361093614E+04  0.12530791848E+04  0.17200000000E+03 0.  1.
</event>
<event>
 4    1  0.3190379E-002  0.2537857E+03  0.7818608E-02  0.1110935E+00
         -1   -1    0    0    0  501 -0.00000000000E+00  0.00000000000E+00  0.18554178339E+03  0.18554178339E+03  0.00000000000E+00 0.  1.
          1   -1    0    0  502    0  0.00000000000E+00 -0.00000000000E+00 -0.72678462204E+03  0.72678462204E+03  0.00000000000E+00 0. -1.
          6    1    1    2  502    0 -0.10548164945E+03  0.15393760194E+03 -0.60031583660E+03  0.65175629443E+03  0.17200000000E+03 0. -1.
         -6    1    1    2    0  501  0.10548164945E+03 -0.15393760194E+03  0.59072997948E+02  0.26057011100E+03  0.17200000000E+03 0.  1.
</event>
<event>
 4    1  0.3190379E-002  0.1739938E+03  0.7818608E-02  0.1173746E+00
          1   -1    0    0  502    0  0.00000000000E+00  0.00000000000E+00  0.16157462024E+03  0.16157462024E+03  0.00000000000E+00 0. -1.
         -1   -1    0    0    0  501 -0.00000000000E+00 -0.00000000000E+00 -0.26839771908E+03  0.26839771908E+03  0.00000000000E+00 0.  1.
          6    1    1    2  502    0  0.18233666525E+02  0.18904347863E+02  0.64714173812E+02  0.18563880320E+03  0.17200000000E+03 0. -1.
         -6    1    1    2    0  501 -0.18233666525E+02 -0.18904347863E+02 -0.17153727265E+03  0.24433353611E+03  0.17200000000E+03 0.  1.
</event>
<event>
 4    1  0.3190379E-002  0.2007729E+03  0.7818608E-02  0.1149089E+00
         -2   -1    0    0    0  501 -0.00000000000E+00  0.00000000000E+00  0.60710108804E+02  0.60710108804E+02  0.00000000000E+00 0.  1.
          2   -1    0    0  502    0  0.00000000000E+00 -0.00000000000E+00 -0.82082665492E+03  0.82082665492E+03  0.00000000000E+00 0. -1.
          6    1    1    2  502    0 -0.75960505415E+02  0.70397145999E+02 -0.57273740733E+03  0.60690847276E+03  0.17200000000E+03 0. -1.
         -6    1    1    2    0  501  0.75960505415E+02 -0.70397145999E+02 -0.18737913879E+03  0.27462829097E+03  0.17200000000E+03 0.  1.
</event>
<event>
 4    1  0.3190379E-002  0.1969906E+03  0.7818608E-02  0.1152303E+00
          4   -1    0    0  502    0  0.00000000000E+00  0.00000000000E+00  0.52575221955E+03  0.52575221955E+03  0.00000000000E+00 0. -1.
         -4   -1    0    0    0  501 -0.00000000000E+00 -0.00000000000E+00 -0.76014209343E+02  0.76014209343E+02  0.00000000000E+00 0.  1.
          6    1    1    2  502    0  0.92484010402E+02 -0.25845555536E+02  0.27611596548E+03  0.33918330046E+03  0.17200000000E+03 0. -1.
         -6    1    1    2    0  501 -0.92484010402E+02  0.25845555536E+02  0.17362204473E+03  0.26258312843E+03  0.17200000000E+03 0. -1.
</event>
<event>
 4    1  0.3190379E-002  0.1879772E+03  0.7818608E-02  0.1160299E+00
         -2   -1    0    0    0  501 -0.00000000000E+00  0.00000000000E+00  0.25333269116E+03  0.25333269116E+03  0.00000000000E+00 0.  1.
          2   -1    0    0  502    0  0.00000000000E+00 -0.00000000000E+00 -0.20633840217E+03  0.20633840217E+03  0.00000000000E+00 0. -1.
          6    1    1    2  502    0  0.75146793219E+02 -0.10216117918E+02 -0.10733001398E+03  0.21646048484E+03  0.17200000000E+03 0. -1.
         -6    1    1    2    0  501 -0.75146793219E+02  0.10216117918E+02  0.15432430296E+03  0.24321060849E+03  0.17200000000E+03 0.  1.
</event>
<event>
 4    1  0.3190379E-002  0.1747811E+03  0.7818608E-02  0.1172952E+00
         -1   -1    0    0    0  501 -0.00000000000E+00  0.00000000000E+00  0.44683565030E+02  0.44683565030E+02  0.00000000000E+00 0.  1.
          1   -1    0    0  502    0  0.00000000000E+00 -0.00000000000E+00 -0.88552829225E+03  0.88552829225E+03  0.00000000000E+00 0. -1.
          6    1    1    2  502    0  0.35658475332E+01 -0.30849796475E+02 -0.64248898522E+03  0.66583820959E+03  0.17200000000E+03 0. -1.
         -6    1    1    2    0  501 -0.35658475332E+01  0.30849796475E+02 -0.19835574199E+03  0.26437364769E+03  0.17200000000E+03 0.  1.
</event>
<event>
 4    1  0.3190379E-002  0.1909442E+03  0.7818608E-02  0.1157612E+00
         -1   -1    0    0    0  501 -0.00000000000E+00  0.00000000000E+00  0.25197247249E+02  0.25197247249E+02  0.00000000000E+00 0.  1.
          1   -1    0    0  502    0  0.00000000000E+00 -0.00000000000E+00 -0.25553343081E+04  0.25553343081E+04  0.00000000000E+00 0. -1.
          6    1    1    2  502    0 -0.74333821696E+02 -0.36744754256E+02 -0.21148286079E+04  0.21234311232E+04  0.17200000000E+03 0. -1.
         -6    1    1    2    0  501  0.74333821696E+02  0.36744754256E+02 -0.41530845293E+03  0.45710043217E+03  0.17200000000E+03 0.  1.
</event>
<event>
 4    1  0.3190379E-002  0.1820540E+03  0.7818608E-02  0.1165830E+00
         -2   -1    0    0    0  501 -0.00000000000E+00  0.00000000000E+00  0.29057317676E+03  0.29057317676E+03  0.00000000000E+00 0.  1.
          2   -1    0    0  502    0  0.00000000000E+00 -0.00000000000E+00 -0.22137802963E+03  0.22137802963E+03  0.00000000000E+00 0. -1.
          6    1    1    2  502    0 -0.54310715410E+02 -0.24698617120E+02 -0.14362446274E+03  0.23188717471E+03  0.17200000000E+03 0. -1.
         -6    1    1    2    0  501  0.54310715410E+02  0.24698617120E+02  0.21281960987E+03  0.28006403168E+03  0.17200000000E+03 0.  1.
</event>
<event>
 4    1  0.3190379E-002  0.4822921E+03  0.7818608E-02  0.1018507E+00
         -2   -1    0    0    0  501 -0.00000000000E+00  0.00000000000E+00  0.22650499978E+03  0.22650499978E+03  0.00000000000E+00 0.  1.
          2   -1    0    0  502    0  0.00000000000E+00 -0.00000000000E+00 -0.10358260805E+04  0.10358260805E+04  0.00000000000E+00 0. -1.
          6    1    1    2  502    0 -0.44959036412E+03 -0.29835104239E+02 -0.46314057775E+03  0.66865897415E+03  0.17200000000E+03 0. -1.
         -6    1    1    2    0  501  0.44959036412E+03  0.29835104239E+02 -0.34618050295E+03  0.59367210612E+03  0.17200000000E+03 0.  1.
</event>
<event>
 4    1  0.3190379E-002  0.1886395E+03  0.7818608E-02  0.1159694E+00
         -1   -1    0    0    0  501 -0.00000000000E+00  0.00000000000E+00  0.21060668428E+03  0.21060668428E+03  0.00000000000E+00 0.  1.
          1   -1    0    0  502    0  0.00000000000E+00 -0.00000000000E+00 -0.51250204393E+03  0.51250204393E+03  0.00000000000E+00 0. -1.
          6    1    1    2  502    0 -0.75652511569E+02 -0.16659986958E+02 -0.44696252866E+03  0.48513952601E+03  0.17200000000E+03 0. -1.
         -6    1    1    2    0  501  0.75652511569E+02  0.16659986958E+02  0.14506716900E+03  0.23796920220E+03  0.17200000000E+03 0.  1.
</event>
<event>
 4    1  0.3190379E-002  0.3325169E+03  0.7818608E-02  0.1070029E+00
          2   -1    0    0  502    0  0.00000000000E+00  0.00000000000E+00  0.12495926368E+04  0.12495926368E+04  0.00000000000E+00 0. -1.
         -2   -1    0    0    0  501 -0.00000000000E+00 -0.00000000000E+00 -0.89295521944E+02  0.89295521944E+02  0.00000000000E+00 0.  1.
          6    1    1    2  502    0  0.20381703055E+03 -0.19860037798E+03  0.64401351205E+03  0.72479024261E+03  0.17200000000E+03 0.  1.
         -6    1    1    2    0  501 -0.20381703055E+03  0.19860037798E+03  0.51628360280E+03  0.61409791613E+03  0.17200000000E+03 0.  1.
</event>
<event>
 4    1  0.3190379E-002  0.1923228E+03  0.7818608E-02  0.1156383E+00
          2   -1    0    0  502    0  0.00000000000E+00  0.00000000000E+00  0.15313107680E+04  0.15313107680E+04  0.00000000000E+00 0. -1.
         -2   -1    0    0    0  501 -0.00000000000E+00 -0.00000000000E+00 -0.24826264795E+02  0.24826264795E+02  0.00000000000E+00 0.  1.
          6    1    1    2  502    0 -0.56232543581E+02  0.65130422546E+02  0.88122914670E+03  0.90197166247E+03  0.17200000000E+03 0.  1.
         -6    1    1    2    0  501  0.56232543581E+02 -0.65130422546E+02  0.62525535648E+03  0.65416537030E+03  0.17200000000E+03 0.  1.
</event>
<event>
 4    1  0.3190379E-002  0.1781956E+03  0.7818608E-02  0.1169561E+00
          1   -1    0    0  502    0  0.00000000000E+00  0.00000000000E+00  0.13669495528E+04  0.13669495528E+04  0.00000000000E+00 0. -1.
         -1   -1    0    0    0  501 -0.00000000000E+00 -0.00000000000E+00 -0.74539550239E+02  0.74539550239E+02  0.00000000000E+00 0.  1.
          6    1    1    2  502    0 -0.31677397784E+02 -0.34150134947E+02  0.12441879319E+04  0.12568839640E+04  0.17200000000E+03 0. -1.
         -6    1    1    2    0  501  0.31677397784E+02  0.34150134947E+02  0.48222070705E+02  0.18460513901E+03  0.17200000000E+03 0.  1.
</event>
<event>
 4    1  0.3190379E-002  0.3032275E+03  0.7818608E-02  0.1083638E+00
         -2   -1    0    0    0  501 -0.00000000000E+00  0.00000000000E+00  0.13179542423E+03  0.13179542423E+03  0.00000000000E+00 0.  1.
          2   -1    0    0  502    0  0.00000000000E+00 -0.00000000000E+00 -0.11240922515E+04  0.11240922515E+04  0.00000000000E+00 0. -1.
          6    1    1    2  502    0 -0.12460564273E+03  0.21641709122E+03 -0.88291641415E+03  0.93353538655E+03  0.17200000000E+03 0. -1.
         -6    1    1    2    0  501  0.12460564273E+03 -0.21641709122E+03 -0.10938041315E+03  0.32235228920E+03  0.17200000000E+03 0.  1.
</event>
<event>
 4    1  0.3190379E-002  0.1944695E+03  0.7818608E-02  0.1154491E+00
          2   -1    0    0  502    0  0.00000000000E+00  0.00000000000E+00  0.11628806903E+04  0.11628806903E+04  0.00000000000E+00 0. -1.
         -2   -1    0    0    0  501 -0.00000000000E+00 -0.00000000000E+00 -0.32562702116E+02  0.32562702116E+02  0.00000000000E+00 0.  1.
          6    1    1    2  502    0 -0.82238310313E+02  0.38357046620E+02  0.54384814133E+03  0.57757181678E+03  0.17200000000E+03 0. -1.
         -6    1    1    2    0  501  0.82238310313E+02 -0.38357046620E+02  0.58646984681E+03  0.61787157559E+03  0.17200000000E+03 0.  1.
</event>
<event>
 4    1  0.3190379E-002  0.1868602E+03  0.7818608E-02  0.1161324E+00
         -2   -1    0    0    0  501 -0.00000000000E+00  0.00000000000E+00  0.81378095052E+02  0.81378095052E+02  0.00000000000E+00 0.  1.
          2   -1    0    0  502    0  0.00000000000E+00 -0.00000000000E+00 -0.45317723877E+03  0.45317723877E+03  0.00000000000E+00 0. -1.
          6    1    1    2  502    0 -0.71428409906E+02 -0.15189640731E+02 -0.24754766724E+03  0.31015575197E+03  0.17200000000E+03 0. -1.
         -6    1    1    2    0  501  0.71428409906E+02  0.15189640731E+02 -0.12425147648E+03  0.22439958185E+03  0.17200000000E+03 0. -1.
</event>
<event>
 4    1  0.3190379E-002  0.2043825E+03  0.7818608E-02  0.1146093E+00
         -2   -1    0    0    0  501 -0.00000000000E+00  0.00000000000E+00  0.16947258452E+03  0.16947258452E+03  0.00000000000E+00 0.  1.
          2   -1    0    0  502    0  0.00000000000E+00 -0.00000000000E+00 -0.46435633816E+03  0.46435633816E+03  0.00000000000E+00 0. -1.
          6    1    1    2  502    0 -0.94277642339E+02  0.57444907721E+02 -0.36452094083E+03  0.41790873115E+03  0.17200000000E+03 0. -1.
         -6    1    1    2    0  501  0.94277642339E+02 -0.57444907721E+02  0.69637187192E+02  0.21592019152E+03  0.17200000000E+03 0.  1.
</event>
<event>
 4    1  0.3190379E-002  0.2306611E+03  0.7818608E-02  0.1126175E+00
          2   -1    0    0  502    0  0.00000000000E+00  0.00000000000E+00  0.12827816114E+04  0.12827816114E+04  0.00000000000E+00 0. -1.
         -2   -1    0    0    0  501 -0.00000000000E+00 -0.00000000000E+00 -0.51247055107E+02  0.51247055107E+02  0.00000000000E+00 0.  1.
          6    1    1    2  502    0 -0.11557742584E+03  0.10130360772E+03  0.90702199146E+03  0.93589179679E+03  0.17200000000E+03 0. -1.
         -6    1    1    2    0  501  0.11557742584E+03 -0.10130360772E+03  0.32451256486E+03  0.39813686975E+03  0.17200000000E+03 0.  1.
</event>
<event>
 4    1  0.3190379E-002  0.1797897E+03  0.7818608E-02  0.1168007E+00
         -2   -1    0    0    0  501 -0.00000000000E+00  0.00000000000E+00  0.21007467774E+02  0.21007467774E+02  0.00000000000E+00 0.  1.
          2   -1    0    0  502    0  0.00000000000E+00 -0.00000000000E+00 -0.15959900758E+04  0.15959900758E+04  0.00000000000E+00 0. -1.
          6    1    1    2  502    0  0.42982040641E+02  0.29881393932E+02 -0.63432099661E+03  0.65930833474E+03  0.17200000000E+03 0. -1.
         -6    1    1    2    0  501 -0.42982040641E+02 -0.29881393932E+02 -0.94066161144E+03  0.95768920885E+03  0.17200000000E+03 0. -1.
</event>
<event>
 4    1  0.3190379E-002  0.2343496E+03  0.7818608E-02  0.1123615E+00
          2   -1    0    0  502    0  0.00000000000E+00  0.00000000000E+00  0.87419115137E+02  0.87419115137E+02  0.00000000000E+00 0. -1.
         -2   -1    0    0    0  501 -0.00000000000E+00 -0.00000000000E+00 -0.68706190684E+03  0.68706190684E+03  0.00000000000E+00 0.  1.
          6    1    1    2  502    0  0.11927581701E+03 -0.10539937660E+03 -0.18651072764E+03  0.29950960024E+03  0.17200000000E+03 0. -1.
         -6    1    1    2    0  501 -0.11927581701E+03  0.10539937660E+03 -0.41313206407E+03  0.47497142174E+03  0.17200000000E+03 0.  1.
</event>
<event>
 4    1  0.3190379E-002  0.2738899E+03  0.7818608E-02  0.1099074E+00
         -1   -1    0    0    0  501 -0.00000000000E+00  0.00000000000E+00  0.68017885419E+03  0.68017885419E+03  0.00000000000E+00 0.  1.
          1   -1    0    0  502    0  0.00000000000E+00 -0.00000000000E+00 -0.11139929498E+03  0.11139929498E+03  0.00000000000E+00 0. -1.
          6    1    1    2  502    0  0.69135995854E+02 -0.20162310870E+03  0.32391815657E+03  0.42419174443E+03  0.17200000000E+03 0. -1.
         -6    1    1    2    0  501 -0.69135995854E+02  0.20162310870E+03  0.24486140264E+03  0.36738640474E+03  0.17200000000E+03 0. -1.
</event>
<event>
 4    1  0.3190379E-002  0.6030707E+03  0.7818608E-02  0.9899056E-01
         -2   -1    0    0    0  501 -0.00000000000E+00  0.00000000000E+00  0.44337061535E+03  0.44337061535E+03  0.00000000000E+00 0.  1.
          2   -1    0    0  502    0  0.00000000000E+00 -0.00000000000E+00 -0.83879112437E+03  0.83879112437E+03  0.00000000000E+00 0. -1.
          6    1    1    2  502    0  0.36424368859E+02 -0.57687389236E+03 -0.29291068057E+03  0.67044081702E+03  0.17200000000E+03 0. -1.
         -6    1    1    2    0  501 -0.36424368859E+02  0.57687389236E+03 -0.10250982845E+03  0.61172092269E+03  0.17200000000E+03 0.  1.
</event>
<event>
 4    1  0.3190379E-002  0.2939407E+03  0.7818608E-02  0.1088309E+00
         -2   -1    0    0    0  501 -0.00000000000E+00  0.00000000000E+00  0.12045272593E+03  0.12045272593E+03  0.00000000000E+00 0.  1.
          2   -1    0    0  502    0  0.00000000000E+00 -0.00000000000E+00 -0.71837013214E+03  0.71837013214E+03  0.00000000000E+00 0. -1.
          6    1    1    2  502    0 -0.49666899778E+02 -0.23313163619E+03 -0.31511997091E+03  0.43093126690E+03  0.17200000000E+03 0.  1.
         -6    1    1    2    0  501  0.49666899778E+02  0.23313163619E+03 -0.28279743530E+03  0.40789159116E+03  0.17200000000E+03 0.  1.
</event>
<event>
 4    1  0.3190379E-002  0.2485305E+03  0.7818608E-02  0.1114237E+00
         -2   -1    0    0    0  501 -0.00000000000E+00  0.00000000000E+00  0.26593660268E+02  0.26593660268E+02  0.00000000000E+00 0.  1.
          2   -1    0    0  502    0  0.00000000000E+00 -0.00000000000E+00 -0.23657438513E+04  0.23657438513E+04  0.00000000000E+00 0. -1.
          6    1    1    2  502    0  0.28844571012E+02  0.17706321248E+03 -0.10081068217E+04  0.10382903035E+04  0.17200000000E+03 0. -1.
         -6    1    1    2    0  501 -0.28844571012E+02 -0.17706321248E+03 -0.13310433693E+04  0.13540472080E+04  0.17200000000E+03 0.  1.
</event>
<event>
 4    1  0.3190379E-002  0.2496928E+03  0.7818608E-02  0.1113499E+00
          1   -1    0    0  502    0  0.00000000000E+00  0.00000000000E+00  0.25327581953E+04  0.25327581953E+04  0.00000000000E+00 0. -1.
         -1   -1    0    0    0  501 -0.00000000000E+00 -0.00000000000E+00 -0.24870099648E+02  0.24870099648E+02  0.00000000000E+00 0.  1.
          6    1    1    2  502    0  0.70989186066E+02  0.16650237717E+03  0.13831929006E+04  0.14055493967E+04  0.17200000000E+03 0.  1.
         -6    1    1    2    0  501 -0.70989186066E+02 -0.16650237717E+03  0.11246951950E+04  0.11520788983E+04  0.17200000000E+03 0. -1.
</event>
<event>
 4    1  0.3190379E-002  0.2517568E+03  0.7818608E-02  0.1112200E+00
          1   -1    0    0  502    0  0.00000000000E+00  0.00000000000E+00  0.21736741103E+03  0.21736741103E+03  0.00000000000E+00 0. -1.
         -1   -1    0    0    0  501 -0.00000000000E+00 -0.00000000000E+00 -0.67040410928E+03  0.67040410928E+03  0.00000000000E+00 0.  1.
          6    1    1    2  502    0  0.15720803959E+02  0.18316759451E+03  0.10715204314E+03  0.27361116883E+03  0.17200000000E+03 0. -1.
         -6    1    1    2    0  501 -0.15720803959E+02 -0.18316759451E+03 -0.56018874139E+03  0.61416035149E+03  0.17200000000E+03 0.  1.
</event>
<event>
 4    1  0.3190379E-002  0.1929963E+03  0.7818608E-02  0.1155786E+00
         -1   -1    0    0    0  501 -0.00000000000E+00  0.00000000000E+00  0.99174561481E+02  0.99174561481E+02  0.00000000000E+00 0.  1.
          1   -1    0    0  502    0  0.00000000000E+00 -0.00000000000E+00 -0.46076897530E+03  0.46076897530E+03  0.00000000000E+00 0. -1.
          6    1    1    2  502    0  0.84290939144E+02 -0.23635180305E+02 -0.30118280722E+03  0.35771310786E+03  0.17200000000E+03 0. -1.
         -6    1    1    2    0  501 -0.84290939144E+02  0.23635180305E+02 -0.60411606598E+02  0.20223042892E+03  0.17200000000E+03 0.  1.
</event>
<event>
 4    1  0.3190379E-002  0.2481330E+03  0.7818608E-02  0.1114490E+00
         -1   -1    0    0    0  501 -0.00000000000E+00  0.00000000000E+00  0.13986824721E+03  0.13986824721E+03  0.00000000000E+00 0.  1.
          1   -1    0    0  502    0  0.00000000000E+00 -0.00000000000E+00 -0.87360851594E+03  0.87360851594E+03  0.00000000000E+00 0. -1.
          6    1    1    2  502    0 -0.21784068683E+02  0.17751455572E+03 -0.72379288524E+03  0.76514449868E+03  0.17200000000E+03 0. -1.
         -6    1    1    2    0  501  0.21784068683E+02 -0.17751455572E+03 -0.99473834919E+01  0.24833226448E+03  0.17200000000E+03 0.  1.
</event>
<event>
 4    1  0.3190379E-002  0.2173521E+03  0.7818608E-02  0.1135873E+00
         -2   -1    0    0    0  501 -0.00000000000E+00  0.00000000000E+00  0.71609207901E+03  0.71609207901E+03  0.00000000000E+00 0.  1.
          2   -1    0    0  502    0  0.00000000000E+00 -0.00000000000E+00 -0.77359629893E+02  0.77359629893E+02  0.00000000000E+00 0. -1.
          6    1    1    2  502    0  0.91116310580E+02 -0.96725102994E+02  0.16715291757E+03  0.27419340885E+03  0.17200000000E+03 0. -1.
         -6    1    1    2    0  501 -0.91116310580E+02  0.96725102994E+02  0.47157953155E+03  0.51925830006E+03  0.17200000000E+03 0.  1.
</event>
<event>
 4    1  0.3190379E-002  0.2646557E+03  0.7818608E-02  0.1104378E+00
          2   -1    0    0  502    0  0.00000000000E+00  0.00000000000E+00  0.11561966538E+04  0.11561966538E+04  0.00000000000E+00 0. -1.
         -2   -1    0    0    0  501 -0.00000000000E+00 -0.00000000000E+00 -0.19648163166E+03  0.19648163166E+03  0.00000000000E+00 0.  1.
          6    1    1    2  502    0  0.70178487605E+02 -0.18850370060E+03 -0.82633393466E+02  0.27725609638E+03  0.17200000000E+03 0. -1.
         -6    1    1    2    0  501 -0.70178487605E+02  0.18850370060E+03  0.10423484156E+04  0.10754221891E+04  0.17200000000E+03 0.  1.
</event>
<event>
 4    1  0.3190379E-002  0.3573441E+03  0.7818608E-02  0.1059640E+00
         -1   -1    0    0    0  501 -0.00000000000E+00  0.00000000000E+00  0.13612955867E+03  0.13612955867E+03  0.00000000000E+00 0.  1.
          1   -1    0    0  502    0  0.00000000000E+00 -0.00000000000E+00 -0.13726388783E+04  0.13726388783E+04  0.00000000000E+00 0. -1.
          6    1    1    2  502    0  0.28565779632E+03  0.12849304600E+03 -0.19377270678E+03  0.40650055518E+03  0.17200000000E+03 0.  1.
         -6    1    1    2    0  501 -0.28565779632E+03 -0.12849304600E+03 -0.10427366129E+04  0.11022678818E+04  0.17200000000E+03 0. -1.
</event>
<event>
 4    1  0.3190379E-002  0.3435393E+03  0.7818608E-02  0.1065298E+00
          1   -1    0    0  502    0  0.00000000000E+00  0.00000000000E+00  0.22518061823E+04  0.22518061823E+04  0.00000000000E+00 0. -1.
         -1   -1    0    0    0  501 -0.00000000000E+00 -0.00000000000E+00 -0.17958718927E+03  0.17958718927E+03  0.00000000000E+00 0.  1.
          6    1    1    2  502    0  0.18078046601E+03  0.23612211197E+03  0.20591447514E+04  0.20876054072E+04  0.17200000000E+03 0. -1.
         -6    1    1    2    0  501 -0.18078046601E+03 -0.23612211197E+03  0.13074241554E+02  0.34378796437E+03  0.17200000000E+03 0.  1.
</event>
<event>
 4    1  0.3190379E-002  0.3017969E+03  0.7818608E-02  0.1084346E+00
         -2   -1    0    0    0  501 -0.00000000000E+00  0.00000000000E+00  0.11467864079E+04  0.11467864079E+04  0.00000000000E+00 0.  1.
          2   -1    0    0  502    0  0.00000000000E+00 -0.00000000000E+00 -0.16647229967E+03  0.16647229967E+03  0.00000000000E+00 0. -1.
          6    1    1    2  502    0 -0.19126303321E+03 -0.15784746305E+03  0.15334201578E+02  0.30218621279E+03  0.17200000000E+03 0. -1.
         -6    1    1    2    0  501  0.19126303321E+03  0.15784746305E+03  0.96497990667E+03  0.10110724948E+04  0.17200000000E+03 0.  1.
</event>
<event>
 4    1  0.3190379E-002  0.2197749E+03  0.7818608E-02  0.1134051E+00
         -2   -1    0    0    0  501 -0.00000000000E+00  0.00000000000E+00  0.58636656502E+02  0.58636656502E+02  0.00000000000E+00 0.  1.
          2   -1    0    0  502    0  0.00000000000E+00 -0.00000000000E+00 -0.96015807691E+03  0.96015807691E+03  0.00000000000E+00 0. -1.
          6    1    1    2  502    0  0.13505061213E+03  0.21870538192E+02 -0.64277403269E+03  0.67930806367E+03  0.17200000000E+03 0. -1.
         -6    1    1    2    0  501 -0.13505061213E+03 -0.21870538192E+02 -0.25874738772E+03  0.33948666973E+03  0.17200000000E+03 0.  1.
</event>
<event>
 4    1  0.3190379E-002  0.1947761E+03  0.7818608E-02  0.1154223E+00
         -2   -1    0    0    0  501 -0.00000000000E+00  0.00000000000E+00  0.42741077259E+02  0.42741077259E+02  0.00000000000E+00 0.  1.
          2   -1    0    0  502    0  0.00000000000E+00 -0.00000000000E+00 -0.90070702134E+03  0.90070702134E+03  0.00000000000E+00 0. -1.
          6    1    1    2  502    0 -0.85150282833E+02  0.33213697510E+02 -0.48585008024E+03  0.52343865050E+03  0.17200000000E+03 0.  1.
         -6    1    1    2    0  501  0.85150282833E+02 -0.33213697510E+02 -0.37211586384E+03  0.42000944810E+03  0.17200000000E+03 0.  1.
</event>
<event>
 4    1  0.3190379E-002  0.2481495E+03  0.7818608E-02  0.1114480E+00
         -2   -1    0    0    0  501 -0.00000000000E+00  0.00000000000E+00  0.24631642911E+03  0.24631642911E+03  0.00000000000E+00 0.  1.
          2   -1    0    0  502    0  0.00000000000E+00 -0.00000000000E+00 -0.55413417648E+03  0.55413417648E+03  0.00000000000E+00 0. -1.
          6    1    1    2  502    0 -0.35944439306E+02  0.17522041279E+03  0.14259633622E+03  0.28620256966E+03  0.17200000000E+03 0. -1.
         -6    1    1    2    0  501  0.35944439306E+02 -0.17522041279E+03 -0.45041408358E+03  0.51424803594E+03  0.17200000000E+03 0. -1.
</event>
<event>
 4    1  0.3190379E-002  0.1796030E+03  0.7818608E-02  0.1168188E+00
          2   -1    0    0  502    0  0.00000000000E+00  0.00000000000E+00  0.61642372386E+02  0.61642372386E+02  0.00000000000E+00 0. -1.
         -2   -1    0    0    0  501 -0.00000000000E+00 -0.00000000000E+00 -0.80353531052E+03  0.80353531052E+03  0.00000000000E+00 0.  1.
          6    1    1    2  502    0  0.39994002386E+02  0.32767664201E+02 -0.11547821442E+03  0.21352390510E+03  0.17200000000E+03 0. -1.
         -6    1    1    2    0  501 -0.39994002386E+02 -0.32767664201E+02 -0.62641472371E+03  0.65165377780E+03  0.17200000000E+03 0.  1.
</event>
<event>
 4    1  0.3190379E-002  0.2059702E+03  0.7818608E-02  0.1144798E+00
          2   -1    0    0  502    0  0.00000000000E+00  0.00000000000E+00  0.15245757333E+04  0.15245757333E+04  0.00000000000E+00 0. -1.
         -2   -1    0    0    0  501 -0.00000000000E+00 -0.00000000000E+00 -0.27954109775E+02  0.27954109775E+02  0.00000000000E+00 0.  1.
          6    1    1    2  502    0  0.85167396243E+02  0.74741042359E+02  0.80074506090E+03  0.82681095865E+03  0.17200000000E+03 0. -1.
         -6    1    1    2    0  501 -0.85167396243E+02 -0.74741042359E+02  0.69587656265E+03  0.72571888445E+03  0.17200000000E+03 0.  1.
</event>
<event>
 4    1  0.3190379E-002  0.4640328E+03  0.7818608E-02  0.1023618E+00
         -2   -1    0    0    0  501 -0.00000000000E+00  0.00000000000E+00  0.63769865336E+03  0.63769865336E+03  0.00000000000E+00 0.  1.
          2   -1    0    0  502    0  0.00000000000E+00 -0.00000000000E+00 -0.42545881247E+03  0.42545881247E+03  0.00000000000E+00 0. -1.
          6    1    1    2  502    0 -0.38197698728E+03 -0.19958963416E+03  0.34759862528E+03  0.57978551652E+03  0.17200000000E+03 0.  1.
         -6    1    1    2    0  501  0.38197698728E+03  0.19958963416E+03 -0.13535878439E+03  0.48337194931E+03  0.17200000000E+03 0.  1.
</event>
<event>
 4    1  0.3190379E-002  0.1879959E+03  0.7818608E-02  0.1160281E+00
          1   -1    0    0  502    0  0.00000000000E+00  0.00000000000E+00  0.59878435765E+03  0.59878435765E+03  0.00000000000E+00 0. -1.
         -1   -1    0    0    0  501 -0.00000000000E+00 -0.00000000000E+00 -0.60330438346E+02  0.60330438346E+02  0.00000000000E+00 0.  1.
          6    1    1    2  502    0 -0.67346408742E+02 -0.34970235207E+02  0.31772905710E+03  0.36918045702E+03  0.17200000000E+03 0. -1.
         -6    1    1    2    0  501  0.67346408742E+02  0.34970235207E+02  0.22072486220E+03  0.28993433897E+03  0.17200000000E+03 0.  1.
</event>
<event>
 4    1  0.3190379E-002  0.4894178E+03  0.7818608E-02  0.1016579E+00
         -1   -1    0    0    0  501 -0.00000000000E+00  0.00000000000E+00  0.58152853532E+03  0.58152853532E+03  0.00000000000E+00 0.  1.
          1   -1    0    0  502    0  0.00000000000E+00 -0.00000000000E+00 -0.95958495327E+03  0.95958495327E+03  0.00000000000E+00 0. -1.
          6    1    1    2  502    0 -0.30988168956E+03 -0.33751900399E+03 -0.77117108477E+03  0.91336442977E+03  0.17200000000E+03 0. -1.
         -6    1    1    2    0  501  0.30988168956E+03  0.33751900399E+03  0.39311466682E+03  0.62774905882E+03  0.17200000000E+03 0.  1.
</event>
<event>
 4    1  0.3190379E-002  0.2369079E+03  0.7818608E-02  0.1121870E+00
          2   -1    0    0  502    0  0.00000000000E+00  0.00000000000E+00  0.20398326769E+04  0.20398326769E+04  0.00000000000E+00 0. -1.
         -2   -1    0    0    0  501 -0.00000000000E+00 -0.00000000000E+00 -0.29582366224E+02  0.29582366224E+02  0.00000000000E+00 0.  1.
          6    1    1    2  502    0 -0.93575153421E+02 -0.13336063867E+03  0.12786785660E+04  0.13004400195E+04  0.17200000000E+03 0. -1.
         -6    1    1    2    0  501  0.93575153421E+02  0.13336063867E+03  0.73157174471E+03  0.76897502361E+03  0.17200000000E+03 0.  1.
</event>
<event>
 4    1  0.3190379E-002  0.1759322E+03  0.7818608E-02  0.1171799E+00
         -1   -1    0    0    0  501 -0.00000000000E+00  0.00000000000E+00  0.10216933718E+03  0.10216933718E+03  0.00000000000E+00 0.  1.
          1   -1    0    0  502    0  0.00000000000E+00 -0.00000000000E+00 -0.29167599191E+04  0.29167599191E+04  0.00000000000E+00 0. -1.
          6    1    1    2  502    0  0.18349010982E+02  0.32116055180E+02  0.21630448725E+02  0.17725688567E+03  0.17200000000E+03 0.  1.
         -6    1    1    2    0  501 -0.18349010982E+02 -0.32116055180E+02 -0.28362210306E+04  0.28416723706E+04  0.17200000000E+03 0. -1.
</event>
<event>
 4    1  0.3190379E-002  0.2022372E+03  0.7818608E-02  0.1147865E+00
          2   -1    0    0  502    0  0.00000000000E+00  0.00000000000E+00  0.31436434034E+04  0.31436434034E+04  0.00000000000E+00 0. -1.
         -2   -1    0    0    0  501 -0.00000000000E+00 -0.00000000000E+00 -0.13115902689E+02  0.13115902689E+02  0.00000000000E+00 0.  1.
          6    1    1    2  502    0  0.77789177741E+02  0.72558542094E+02  0.17068590482E+04  0.17187983328E+04  0.17200000000E+03 0. -1.
         -6    1    1    2    0  501 -0.77789177741E+02 -0.72558542094E+02  0.14236684525E+04  0.14379609734E+04  0.17200000000E+03 0.  1.
</event>
<event>
 4    1  0.3190379E-002  0.2977821E+03  0.7818608E-02  0.1086355E+00
          2   -1    0    0  502    0  0.00000000000E+00  0.00000000000E+00  0.69039971631E+03  0.69039971631E+03  0.00000000000E+00 0. -1.
         -2   -1    0    0    0  501 -0.00000000000E+00 -0.00000000000E+00 -0.14042241956E+03  0.14042241956E+03  0.00000000000E+00 0.  1.
          6    1    1    2  502    0 -0.23391671370E+03 -0.66129983724E+02  0.39634189882E+03  0.49574298225E+03  0.17200000000E+03 0. -1.
         -6    1    1    2    0  501  0.23391671370E+03  0.66129983724E+02  0.15363539793E+03  0.33507915362E+03  0.17200000000E+03 0.  1.
</event>
<event>
 4    1  0.3190379E-002  0.4250354E+03  0.7818608E-02  0.1035440E+00
          2   -1    0    0  502    0  0.00000000000E+00  0.00000000000E+00  0.50369203133E+03  0.50369203133E+03  0.00000000000E+00 0. -1.
         -2   -1    0    0    0  501 -0.00000000000E+00 -0.00000000000E+00 -0.74290088054E+03  0.74290088054E+03  0.00000000000E+00 0.  1.
          6    1    1    2  502    0 -0.17830022477E+03  0.34536951736E+03  0.32865559639E+03  0.53727979184E+03  0.17200000000E+03 0. -1.
         -6    1    1    2    0  501  0.17830022477E+03 -0.34536951736E+03 -0.56786444560E+03  0.70931312003E+03  0.17200000000E+03 0.  1.
</event>
<event>
 4    1  0.3190379E-002  0.2000792E+03  0.7818608E-02  0.1149672E+00
          1   -1    0    0  502    0  0.00000000000E+00  0.00000000000E+00  0.96365530464E+03  0.96365530464E+03  0.00000000000E+00 0. -1.
         -1   -1    0    0    0  501 -0.00000000000E+00 -0.00000000000E+00 -0.66757705983E+02  0.66757705983E+02  0.00000000000E+00 0.  1.
          6    1    1    2  502    0  0.70723592408E+02 -0.73795938966E+02  0.76509237684E+03  0.79082110002E+03  0.17200000000E+03 0. -1.
         -6    1    1    2    0  501 -0.70723592408E+02  0.73795938966E+02  0.13180522182E+03  0.23959191061E+03  0.17200000000E+03 0.  1.
</event>
<event>
 4    1  0.3190379E-002  0.1825953E+03  0.7818608E-02  0.1165315E+00
          1   -1    0    0  502    0  0.00000000000E+00  0.00000000000E+00  0.30477075988E+03  0.30477075988E+03  0.00000000000E+00 0. -1.
         -1   -1    0    0    0  501 -0.00000000000E+00 -0.00000000000E+00 -0.18909852787E+03  0.18909852787E+03  0.00000000000E+00 0.  1.
          6    1    1    2  502    0  0.32946453441E+02  0.51687428774E+02 -0.10247764618E+03  0.20938654936E+03  0.17200000000E+03 0.  1.
         -6    1    1    2    0  501 -0.32946453441E+02 -0.51687428774E+02  0.21814987819E+03  0.28448273839E+03  0.17200000000E+03 0. -1.
</event>
<event>
 4    1  0.3190379E-002  0.2382129E+03  0.7818608E-02  0.1120989E+00
          1   -1    0    0  502    0  0.00000000000E+00  0.00000000000E+00  0.53327421702E+03  0.53327421702E+03  0.00000000000E+00 0. -1.
         -1   -1    0    0    0  501 -0.00000000000E+00 -0.00000000000E+00 -0.11709408618E+03  0.11709408618E+03  0.00000000000E+00 0.  1.
          6    1    1    2  502    0 -0.12632102392E+02  0.16432226104E+03  0.30631987655E+03  0.38804283560E+03  0.17200000000E+03 0. -1.
         -6    1    1    2    0  501  0.12632102392E+02 -0.16432226104E+03  0.10986025429E+03  0.26232546761E+03  0.17200000000E+03 0.  1.
</event>
<event>
 4    1  0.3190379E-002  0.1884678E+03  0.7818608E-02  0.1159851E+00
         -2   -1    0    0    0  501 -0.00000000000E+00  0.00000000000E+00  0.14242778258E+03  0.14242778258E+03  0.00000000000E+00 0.  1.
          2   -1    0    0  502    0  0.00000000000E+00 -0.00000000000E+00 -0.99218333814E+03  0.99218333814E+03  0.00000000000E+00 0. -1.
          6    1    1    2  502    0  0.24881154449E+02 -0.72917945477E+02 -0.91573479711E+03  0.93492797437E+03  0.17200000000E+03 0. -1.
         -6    1    1    2    0  501 -0.24881154449E+02  0.72917945477E+02  0.65979241558E+02  0.19968314635E+03  0.17200000000E+03 0.  1.
</event>
<event>
 4    1  0.3190379E-002  0.2041096E+03  0.7818608E-02  0.1146317E+00
         -1   -1    0    0    0  501 -0.00000000000E+00  0.00000000000E+00  0.15534557695E+03  0.15534557695E+03  0.00000000000E+00 0.  1.
          1   -1    0    0  502    0  0.00000000000E+00 -0.00000000000E+00 -0.34712877983E+03  0.34712877983E+03  0.00000000000E+00 0. -1.
          6    1    1    2  502    0 -0.62021044931E+02 -0.90719949346E+02 -0.21570593772E+03  0.29696762583E+03  0.17200000000E+03 0. -1.
         -6    1    1    2    0  501  0.62021044931E+02  0.90719949346E+02  0.23922734840E+02  0.20550673095E+03  0.17200000000E+03 0.  1.
</event>
<event>
 4    1  0.3190379E-002  0.2697174E+03  0.7818608E-02  0.1101441E+00
          3   -1    0    0  502    0  0.00000000000E+00  0.00000000000E+00  0.35518107595E+03  0.35518107595E+03  0.00000000000E+00 0. -1.
         -3   -1    0    0    0  501 -0.00000000000E+00 -0.00000000000E+00 -0.22224425690E+03  0.22224425690E+03  0.00000000000E+00 0.  1.
          6    1    1    2  502    0 -0.15932131583E+03  0.13334240588E+03  0.14731329978E+03  0.30732505133E+03  0.17200000000E+03 0. -1.
         -6    1    1    2    0  501  0.15932131583E+03 -0.13334240588E+03 -0.14376480731E+02  0.27010028153E+03  0.17200000000E+03 0.  1.
</event>
<event>
 4    1  0.3190379E-002  0.6174709E+03  0.7818608E-02  0.9869808E-01
          2   -1    0    0  502    0  0.00000000000E+00  0.00000000000E+00  0.82689221566E+03  0.82689221566E+03  0.00000000000E+00 0. -1.
         -2   -1    0    0    0  501 -0.00000000000E+00 -0.00000000000E+00 -0.66076423286E+03  0.66076423286E+03  0.00000000000E+00 0.  1.
          6    1    1    2  502    0  0.23876860651E+03 -0.54284056270E+03  0.49195941872E+03  0.78948995791E+03  0.17200000000E+03 0. -1.
         -6    1    1    2    0  501 -0.23876860651E+03  0.54284056270E+03 -0.32583143593E+03  0.69816649061E+03  0.17200000000E+03 0. -1.
</event>
<event>
 4    1  0.3190379E-002  0.4540852E+03  0.7818608E-02  0.1026511E+00
         -2   -1    0    0    0  501 -0.00000000000E+00  0.00000000000E+00  0.69396724078E+03  0.69396724078E+03  0.00000000000E+00 0.  1.
          2   -1    0    0  502    0  0.00000000000E+00 -0.00000000000E+00 -0.32990011963E+03  0.32990011963E+03  0.00000000000E+00 0. -1.
          6    1    1    2  502    0 -0.38959970857E+03  0.15754814246E+03  0.20668124156E+02  0.45455530078E+03  0.17200000000E+03 0. -1.
         -6    1    1    2    0  501  0.38959970857E+03 -0.15754814246E+03  0.34339899700E+03  0.56931205964E+03  0.17200000000E+03 0.  1.
</event>
<event>
 4    1  0.3190379E-002  0.6092413E+03  0.7818608E-02  0.9886417E-01
          2   -1    0    0  502    0  0.00000000000E+00  0.00000000000E+00  0.15658891043E+04  0.15658891043E+04  0.00000000000E+00 0. -1.
         -2   -1    0    0    0  501 -0.00000000000E+00 -0.00000000000E+00 -0.24177731357E+03  0.24177731357E+03  0.00000000000E+00 0.  1.
          6    1    1    2  502    0 -0.53540147022E+03  0.23438486335E+03  0.53551096007E+03  0.81113931408E+03  0.17200000000E+03 0. -1.
         -6    1    1    2    0  501  0.53540147022E+03 -0.23438486335E+03  0.78860083067E+03  0.99652710381E+03  0.17200000000E+03 0.  1.
</event>
<event>
 4    1  0.3190379E-002  0.2013648E+03  0.7818608E-02  0.1148593E+00
         -2   -1    0    0    0  501 -0.00000000000E+00  0.00000000000E+00  0.91488791850E+02  0.91488791850E+02  0.00000000000E+00 0.  1.
          2   -1    0    0  502    0  0.00000000000E+00 -0.00000000000E+00 -0.15605138042E+04  0.15605138042E+04  0.00000000000E+00 0. -1.
          6    1    1    2  502    0 -0.63583275377E+01 -0.10451479428E+03 -0.35580970318E+02  0.20448417054E+03  0.17200000000E+03 0.  1.
         -6    1    1    2    0  501  0.63583275377E+01  0.10451479428E+03 -0.14334440421E+04  0.14475184256E+04  0.17200000000E+03 0. -1.
</event>
<event>
 4    1  0.3190379E-002  0.1721590E+03  0.7818608E-02  0.1175615E+00
          2   -1    0    0  502    0  0.00000000000E+00  0.00000000000E+00  0.26259312721E+03  0.26259312721E+03  0.00000000000E+00 0. -1.
         -2   -1    0    0    0  501 -0.00000000000E+00 -0.00000000000E+00 -0.11398066545E+03  0.11398066545E+03  0.00000000000E+00 0.  1.
          6    1    1    2  502    0 -0.54386218177E+01 -0.50149600229E+01  0.55714765724E+02  0.18094989238E+03  0.17200000000E+03 0.  1.
         -6    1    1    2    0  501  0.54386218177E+01  0.50149600229E+01  0.92897696043E+02  0.19562390028E+03  0.17200000000E+03 0. -1.
</event>
<event>
 4    1  0.3190379E-002  0.1841520E+03  0.7818608E-02  0.1163844E+00
         -2   -1    0    0    0  501 -0.00000000000E+00  0.00000000000E+00  0.19979090848E+02  0.19979090848E+02  0.00000000000E+00 0.  1.
          2   -1    0    0  502    0  0.00000000000E+00 -0.00000000000E+00 -0.18101676966E+04  0.18101676966E+04  0.00000000000E+00 0. -1.
          6    1    1    2  502    0  0.36858746545E+02  0.54492095309E+02 -0.66667006453E+03  0.69163641503E+03  0.17200000000E+03 0. -1.
         -6    1    1    2    0  501 -0.36858746545E+02 -0.54492095309E+02 -0.11235185413E+04  0.11385103725E+04  0.17200000000E+03 0. -1.
</event>
<event>
 4    1  0.3190379E-002  0.1835602E+03  0.7818608E-02  0.1164401E+00
          2   -1    0    0  502    0  0.00000000000E+00  0.00000000000E+00  0.15273099353E+02  0.15273099353E+02  0.00000000000E+00 0. -1.
         -2   -1    0    0    0  501 -0.00000000000E+00 -0.00000000000E+00 -0.26066512374E+04  0.26066512374E+04  0.00000000000E+00 0.  1.
          6    1    1    2  502    0 -0.43158983084E+02 -0.47409553796E+02 -0.78180603874E+03  0.80306602831E+03  0.17200000000E+03 0. -1.
         -6    1    1    2    0  501  0.43158983084E+02  0.47409553796E+02 -0.18095720993E+04  0.18188583084E+04  0.17200000000E+03 0.  1.
</event>
<event>
 4    1  0.3190379E-002  0.2597461E+03  0.7818608E-02  0.1107296E+00
          1   -1    0    0  502    0  0.00000000000E+00  0.00000000000E+00  0.16036314809E+03  0.16036314809E+03  0.00000000000E+00 0. -1.
         -1   -1    0    0    0  501 -0.00000000000E+00 -0.00000000000E+00 -0.48287930981E+03  0.48287930981E+03  0.00000000000E+00 0.  1.
          6    1    1    2  502    0 -0.18563886045E+03 -0.58499945394E+02 -0.45865605922E+02  0.26376444781E+03  0.17200000000E+03 0. -1.
         -6    1    1    2    0  501  0.18563886045E+03  0.58499945394E+02 -0.27665055580E+03  0.37947801009E+03  0.17200000000E+03 0.  1.
</event>
<event>
 4    1  0.3190379E-002  0.3634991E+03  0.7818608E-02  0.1057207E+00
         -2   -1    0    0    0  501 -0.00000000000E+00  0.00000000000E+00  0.17938122077E+03  0.17938122077E+03  0.00000000000E+00 0.  1.
          2   -1    0    0  502    0  0.00000000000E+00 -0.00000000000E+00 -0.76683559830E+03  0.76683559830E+03  0.00000000000E+00 0. -1.
          6    1    1    2  502    0 -0.39748985736E+02 -0.31775398400E+03 -0.19977777381E+03  0.41478034563E+03  0.17200000000E+03 0. -1.
         -6    1    1    2    0  501  0.39748985736E+02  0.31775398400E+03 -0.38767660373E+03  0.53143647343E+03  0.17200000000E+03 0. -1.
</event>
<event>
 4    1  0.3190379E-002  0.1774434E+03  0.7818608E-02  0.1170300E+00
         -2   -1    0    0    0  501 -0.00000000000E+00  0.00000000000E+00  0.15955981699E+04  0.15955981699E+04  0.00000000000E+00 0.  1.
          2   -1    0    0  502    0  0.00000000000E+00 -0.00000000000E+00 -0.40314784451E+02  0.40314784451E+02  0.00000000000E+00 0. -1.
          6    1    1    2  502    0  0.18365184618E+02  0.39558761777E+02  0.13620790533E+04  0.13735885567E+04  0.17200000000E+03 0.  1.
         -6    1    1    2    0  501 -0.18365184618E+02 -0.39558761777E+02  0.19320433210E+03  0.26232439761E+03  0.17200000000E+03 0. -1.
</event>
<event>
 4    1  0.3190379E-002  0.1860069E+03  0.7818608E-02  0.1162113E+00
         -1   -1    0    0    0  501 -0.00000000000E+00  0.00000000000E+00  0.47016358026E+02  0.47016358026E+02  0.00000000000E+00 0.  1.
          1   -1    0    0  502    0  0.00000000000E+00 -0.00000000000E+00 -0.75145841614E+03  0.75145841614E+03  0.00000000000E+00 0. -1.
          6    1    1    2  502    0 -0.70541981389E+02  0.61951067672E+01 -0.29474390479E+03  0.34852908042E+03  0.17200000000E+03 0. -1.
         -6    1    1    2    0  501  0.70541981389E+02 -0.61951067672E+01 -0.40969815332E+03  0.44994569374E+03  0.17200000000E+03 0. -1.
</event>
<event>
 4    1  0.3190379E-002  0.2087267E+03  0.7818608E-02  0.1142578E+00
          2   -1    0    0  502    0  0.00000000000E+00  0.00000000000E+00  0.81458261736E+03  0.81458261736E+03  0.00000000000E+00 0. -1.
         -2   -1    0    0    0  501 -0.00000000000E+00 -0.00000000000E+00 -0.29422508426E+03  0.29422508426E+03  0.00000000000E+00 0.  1.
          6    1    1    2  502    0 -0.95405647004E+02 -0.69861407179E+02  0.76166822653E+03  0.78975017632E+03  0.17200000000E+03 0. -1.
         -6    1    1    2    0  501  0.95405647004E+02  0.69861407179E+02 -0.24131069343E+03  0.31905752531E+03  0.17200000000E+03 0.  1.
</event>
<event>
 4    1  0.3190379E-002  0.2318347E+03  0.7818608E-02  0.1125355E+00
          2   -1    0    0  502    0  0.00000000000E+00  0.00000000000E+00  0.15906701262E+04  0.15906701262E+04  0.00000000000E+00 0. -1.
         -2   -1    0    0    0  501 -0.00000000000E+00 -0.00000000000E+00 -0.33789429227E+02  0.33789429227E+02  0.00000000000E+00 0.  1.
          6    1    1    2  502    0 -0.37514092652E+02  0.15085096839E+03  0.77592896788E+03  0.80982287261E+03  0.17200000000E+03 0. -1.
         -6    1    1    2    0  501  0.37514092652E+02 -0.15085096839E+03  0.78095172910E+03  0.81463668282E+03  0.17200000000E+03 0.  1.
</event>
<event>
 4    1  0.3190379E-002  0.3446482E+03  0.7818608E-02  0.1064833E+00
         -2   -1    0    0    0  501 -0.00000000000E+00  0.00000000000E+00  0.43673387094E+02  0.43673387094E+02  0.00000000000E+00 0.  1.
          2   -1    0    0  502    0  0.00000000000E+00 -0.00000000000E+00 -0.35406607426E+04  0.35406607426E+04  0.00000000000E+00 0. -1.
          6    1    1    2  502    0  0.29421908051E+03  0.51317729025E+02 -0.88556656366E+03  0.95026865428E+03  0.17200000000E+03 0. -1.
         -6    1    1    2    0  501 -0.29421908051E+03 -0.51317729025E+02 -0.26114207919E+04  0.26340654754E+04  0.17200000000E+03 0. -1.
</event>
<event>
 4    1  0.3190379E-002  0.3303103E+03  0.7818608E-02  0.1071000E+00
          2   -1    0    0  502    0  0.00000000000E+00  0.00000000000E+00  0.28788571955E+03  0.28788571955E+03  0.00000000000E+00 0. -1.
         -2   -1    0    0    0  501 -0.00000000000E+00 -0.00000000000E+00 -0.37932123635E+03  0.37932123635E+03  0.00000000000E+00 0.  1.
          6    1    1    2  502    0 -0.28060606381E+03 -0.27948595047E+02 -0.35812059990E+02  0.33224597914E+03  0.17200000000E+03 0. -1.
         -6    1    1    2    0  501  0.28060606381E+03  0.27948595047E+02 -0.55623456807E+02  0.33496097677E+03  0.17200000000E+03 0.  1.
</event>
<event>
 4    1  0.3190379E-002  0.1942909E+03  0.7818608E-02  0.1154647E+00
          1   -1    0    0  502    0  0.00000000000E+00  0.00000000000E+00  0.24137779426E+04  0.24137779426E+04  0.00000000000E+00 0. -1.
         -1   -1    0    0    0  501 -0.00000000000E+00 -0.00000000000E+00 -0.47901401136E+02  0.47901401136E+02  0.00000000000E+00 0.  1.
          6    1    1    2  502    0  0.14138091849E+02 -0.89247276628E+02  0.21930653897E+04  0.22016550060E+04  0.17200000000E+03 0. -1.
         -6    1    1    2    0  501 -0.14138091849E+02  0.89247276628E+02  0.17281115174E+03  0.26002433769E+03  0.17200000000E+03 0.  1.
</event>
<event>
 4    1  0.3190379E-002  0.2767683E+03  0.7818608E-02  0.1097467E+00
          2   -1    0    0  502    0  0.00000000000E+00  0.00000000000E+00  0.20239805221E+04  0.20239805221E+04  0.00000000000E+00 0. -1.
         -2   -1    0    0    0  501 -0.00000000000E+00 -0.00000000000E+00 -0.46104090940E+02  0.46104090940E+02  0.00000000000E+00 0.  1.
          6    1    1    2  502    0 -0.79026039747E+00  0.21683186338E+03  0.55089826750E+03  0.61651405712E+03  0.17200000000E+03 0. -1.
         -6    1    1    2    0  501  0.79026039747E+00 -0.21683186338E+03  0.14269781636E+04  0.14535705559E+04  0.17200000000E+03 0. -1.
</event>
<event>
 4    1  0.3190379E-002  0.2605158E+03  0.7818608E-02  0.1106834E+00
          2   -1    0    0  502    0  0.00000000000E+00  0.00000000000E+00  0.23986697082E+03  0.23986697082E+03  0.00000000000E+00 0. -1.
         -2   -1    0    0    0  501 -0.00000000000E+00 -0.00000000000E+00 -0.38800399364E+03  0.38800399364E+03  0.00000000000E+00 0.  1.
          6    1    1    2  502    0 -0.19317538176E+03 -0.31108641336E+02 -0.23742817168E+03  0.35247781830E+03  0.17200000000E+03 0. -1.
         -6    1    1    2    0  501  0.19317538176E+03  0.31108641336E+02  0.89291148860E+02  0.27539314616E+03  0.17200000000E+03 0.  1.
</event>
<event>
 4    1  0.3190379E-002  0.2187832E+03  0.7818608E-02  0.1134793E+00
         -2   -1    0    0    0  501 -0.00000000000E+00  0.00000000000E+00  0.31119462761E+02  0.31119462761E+02  0.00000000000E+00 0.  1.
          2   -1    0    0  502    0  0.00000000000E+00 -0.00000000000E+00 -0.18072035849E+04  0.18072035849E+04  0.00000000000E+00 0. -1.
          6    1    1    2  502    0 -0.92972594269E+02  0.98174224571E+02 -0.53337897641E+03  0.57650603998E+03  0.17200000000E+03 0.  1.
         -6    1    1    2    0  501  0.92972594269E+02 -0.98174224571E+02 -0.12427051457E+04  0.12618170077E+04  0.17200000000E+03 0.  1.
</event>
<event>
 4    1  0.3190379E-002  0.2220337E+03  0.7818608E-02  0.1132376E+00
         -2   -1    0    0    0  501 -0.00000000000E+00  0.00000000000E+00  0.41488580320E+02  0.41488580320E+02  0.00000000000E+00 0.  1.
          2   -1    0    0  502    0  0.00000000000E+00 -0.00000000000E+00 -0.13138381157E+04  0.13138381157E+04  0.00000000000E+00 0. -1.
          6    1    1    2  502    0 -0.14018013739E+03  0.80317927285E+01 -0.84568731908E+03  0.87434891335E+03  0.17200000000E+03 0.  1.
         -6    1    1    2    0  501  0.14018013739E+03 -0.80317927285E+01 -0.42666221631E+03  0.48097778269E+03  0.17200000000E+03 0.  1.
</event>
<event>
 4    1  0.3190379E-002  0.1858599E+03  0.7818608E-02  0.1162249E+00
          3   -1    0    0  502    0  0.00000000000E+00  0.00000000000E+00  0.26692784071E+03  0.26692784071E+03  0.00000000000E+00 0. -1.
         -3   -1    0    0    0  501 -0.00000000000E+00 -0.00000000000E+00 -0.81156379830E+03  0.81156379830E+03  0.00000000000E+00 0.  1.
          6    1    1    2  502    0 -0.40775355792E+02  0.57422044523E+02  0.22206745191E+03  0.28958224054E+03  0.17200000000E+03 0. -1.
         -6    1    1    2    0  501  0.40775355792E+02 -0.57422044523E+02 -0.76670340951E+03  0.78890939846E+03  0.17200000000E+03 0.  1.
</event>
<event>
 4    1  0.3190379E-002  0.2490016E+03  0.7818608E-02  0.1113937E+00
         -2   -1    0    0    0  501 -0.00000000000E+00  0.00000000000E+00  0.22320852440E+02  0.22320852440E+02  0.00000000000E+00 0.  1.
          2   -1    0    0  502    0  0.00000000000E+00 -0.00000000000E+00 -0.30767889739E+04  0.30767889739E+04  0.00000000000E+00 0. -1.
          6    1    1    2  502    0  0.17552985046E+03  0.40088099779E+02 -0.20103160352E+04  0.20256782434E+04  0.17200000000E+03 0. -1.
         -6    1    1    2    0  501 -0.17552985046E+03 -0.40088099779E+02 -0.10441520862E+04  0.10734315829E+04  0.17200000000E+03 0.  1.
</event>
<event>
 4    1  0.3190379E-002  0.1996970E+03  0.7818608E-02  0.1149995E+00
         -2   -1    0    0    0  501 -0.00000000000E+00  0.00000000000E+00  0.67294318734E+02  0.67294318734E+02  0.00000000000E+00 0.  1.
          2   -1    0    0  502    0  0.00000000000E+00 -0.00000000000E+00 -0.83080738104E+03  0.83080738104E+03  0.00000000000E+00 0. -1.
          6    1    1    2  502    0  0.77619022880E+02  0.65346639673E+02 -0.14130966201E+03  0.24463711208E+03  0.17200000000E+03 0.  1.
         -6    1    1    2    0  501 -0.77619022880E+02 -0.65346639673E+02 -0.62220340030E+03  0.65346458770E+03  0.17200000000E+03 0. -1.
</event>
<event>
 4    1  0.3190379E-002  0.2134930E+03  0.7818608E-02  0.1138829E+00
          2   -1    0    0  502    0  0.00000000000E+00  0.00000000000E+00  0.27332108463E+04  0.27332108463E+04  0.00000000000E+00 0. -1.
         -2   -1    0    0    0  501 -0.00000000000E+00 -0.00000000000E+00 -0.33272214500E+02  0.33272214500E+02  0.00000000000E+00 0.  1.
          6    1    1    2  502    0 -0.78244597553E+02  0.99363223138E+02  0.23268927379E+04  0.23366662322E+04  0.17200000000E+03 0. -1.
         -6    1    1    2    0  501  0.78244597553E+02 -0.99363223138E+02  0.37304589385E+03  0.42981682852E+03  0.17200000000E+03 0.  1.
</event>
<event>
 4    1  0.3190379E-002  0.1771102E+03  0.7818608E-02  0.1170629E+00
         -2   -1    0    0    0  501 -0.00000000000E+00  0.00000000000E+00  0.20490362345E+04  0.20490362345E+04  0.00000000000E+00 0.  1.
          2   -1    0    0  502    0  0.00000000000E+00 -0.00000000000E+00 -0.16037962900E+02  0.16037962900E+02  0.00000000000E+00 0. -1.
          6    1    1    2  502    0  0.61613838733E+01  0.41785818946E+02  0.79631684945E+03  0.81577481086E+03  0.17200000000E+03 0. -1.
         -6    1    1    2    0  501 -0.61613838733E+01 -0.41785818946E+02  0.12366814222E+04  0.12492993866E+04  0.17200000000E+03 0.  1.
</event>
<event>
 4    1  0.3190379E-002  0.1931388E+03  0.7818608E-02  0.1155660E+00
          2   -1    0    0  502    0  0.00000000000E+00  0.00000000000E+00  0.35052845115E+04  0.35052845115E+04  0.00000000000E+00 0. -1.
         -2   -1    0    0    0  501 -0.00000000000E+00 -0.00000000000E+00 -0.26718634445E+02  0.26718634445E+02  0.00000000000E+00 0.  1.
          6    1    1    2  502    0 -0.13752485396E+02 -0.86772583966E+02  0.31091673888E+04  0.31151604235E+04  0.17200000000E+03 0. -1.
         -6    1    1    2    0  501  0.13752485396E+02  0.86772583966E+02  0.36939848827E+03  0.41684272252E+03  0.17200000000E+03 0.  1.
</event>
<event>
 4    1  0.3190379E-002  0.5301778E+03  0.7818608E-02  0.1006189E+00
          1   -1    0    0  502    0  0.00000000000E+00  0.00000000000E+00  0.59958640142E+03  0.59958640142E+03  0.00000000000E+00 0. -1.
         -1   -1    0    0    0  501 -0.00000000000E+00 -0.00000000000E+00 -0.50212166756E+03  0.50212166756E+03  0.00000000000E+00 0.  1.
          6    1    1    2  502    0 -0.42823489569E+03  0.26099693841E+03 -0.93163283519E+02  0.53830096149E+03  0.17200000000E+03 0. -1.
         -6    1    1    2    0  501  0.42823489569E+03 -0.26099693841E+03  0.19062801739E+03  0.56340710748E+03  0.17200000000E+03 0. -1.
</event>
<event>
 4    1  0.3190379E-002  0.2693955E+03  0.7818608E-02  0.1101626E+00
          2   -1    0    0  502    0  0.00000000000E+00  0.00000000000E+00  0.74721288356E+03  0.74721288356E+03  0.00000000000E+00 0. -1.
         -2   -1    0    0    0  501 -0.00000000000E+00 -0.00000000000E+00 -0.12976444485E+03  0.12976444485E+03  0.00000000000E+00 0.  1.
          6    1    1    2  502    0 -0.75543112342E+02  0.19308857861E+03  0.52863362050E+03  0.59331902526E+03  0.17200000000E+03 0. -1.
         -6    1    1    2    0  501  0.75543112342E+02 -0.19308857861E+03  0.88814818201E+02  0.28365830315E+03  0.17200000000E+03 0.  1.
</event>
<event>
 4    1  0.3190379E-002  0.4448967E+03  0.7818608E-02  0.1029255E+00
         -1   -1    0    0    0  501 -0.00000000000E+00  0.00000000000E+00  0.53437568241E+03  0.53437568241E+03  0.00000000000E+00 0.  1.
          1   -1    0    0  502    0  0.00000000000E+00 -0.00000000000E+00 -0.75065847030E+03  0.75065847030E+03  0.00000000000E+00 0. -1.
          6    1    1    2  502    0  0.30392406110E+02 -0.40917643535E+03 -0.56544287371E+03  0.71948502210E+03  0.17200000000E+03 0. -1.
         -6    1    1    2    0  501 -0.30392406110E+02  0.40917643535E+03  0.34916008583E+03  0.56554913061E+03  0.17200000000E+03 0.  1.
</event>
<event>
 4    1  0.3190379E-002  0.4415396E+03  0.7818608E-02  0.1030275E+00
          2   -1    0    0  502    0  0.00000000000E+00  0.00000000000E+00  0.38518330098E+03  0.38518330098E+03  0.00000000000E+00 0. -1.
         -2   -1    0    0    0  501 -0.00000000000E+00 -0.00000000000E+00 -0.50614172472E+03  0.50614172472E+03  0.00000000000E+00 0.  1.
          6    1    1    2  502    0 -0.25422965705E+03  0.31739648901E+03 -0.60175524454E+02  0.44562130055E+03  0.17200000000E+03 0. -1.
         -6    1    1    2    0  501  0.25422965705E+03 -0.31739648901E+03 -0.60782899291E+02  0.44570372515E+03  0.17200000000E+03 0.  1.
</event>
<event>
 4    1  0.3190379E-002  0.4299345E+03  0.7818608E-02  0.1033881E+00
         -2   -1    0    0    0  501 -0.00000000000E+00  0.00000000000E+00  0.47650315952E+02  0.47650315952E+02  0.00000000000E+00 0.  1.
          2   -1    0    0  502    0  0.00000000000E+00 -0.00000000000E+00 -0.39460167287E+04  0.39460167287E+04  0.00000000000E+00 0. -1.
          6    1    1    2  502    0  0.33497890682E+03 -0.20748213652E+03 -0.22090797535E+04  0.22505281741E+04  0.17200000000E+03 0. -1.
         -6    1    1    2    0  501 -0.33497890682E+03  0.20748213652E+03 -0.16892866592E+04  0.17431388705E+04  0.17200000000E+03 0.  1.
</event>
<event>
 4    1  0.3190379E-002  0.1804164E+03  0.7818608E-02  0.1167401E+00
         -4   -1    0    0    0  501 -0.00000000000E+00  0.00000000000E+00  0.14396506232E+03  0.14396506232E+03  0.00000000000E+00 0.  1.
          4   -1    0    0  502    0  0.00000000000E+00 -0.00000000000E+00 -0.24815989738E+03  0.24815989738E+03  0.00000000000E+00 0. -1.
          6    1    1    2  502    0  0.98453360571E+01  0.53564503924E+02 -0.11055740676E+03  0.21159637736E+03  0.17200000000E+03 0. -1.
         -6    1    1    2    0  501 -0.98453360571E+01 -0.53564503924E+02  0.63625716889E+01  0.18052858234E+03  0.17200000000E+03 0. -1.
</event>
<event>
 4    1  0.3190379E-002  0.4420870E+03  0.7818608E-02  0.1030108E+00
         -1   -1    0    0    0  501 -0.00000000000E+00  0.00000000000E+00  0.39462683585E+03  0.39462683585E+03  0.00000000000E+00 0.  1.
          1   -1    0    0  502    0  0.00000000000E+00 -0.00000000000E+00 -0.52675122447E+03  0.52675122447E+03  0.00000000000E+00 0. -1.
          6    1    1    2  502    0 -0.40655668727E+03  0.23844694926E+02 -0.17871302929E+03  0.47684301009E+03  0.17200000000E+03 0. -1.
         -6    1    1    2    0  501  0.40655668727E+03 -0.23844694926E+02  0.46588640675E+02  0.44453505022E+03  0.17200000000E+03 0.  1.
</event>
<event>
 4    1  0.3190379E-002  0.1731609E+03  0.7818608E-02  0.1174591E+00
         -2   -1    0    0    0  501 -0.00000000000E+00  0.00000000000E+00  0.17036644627E+02  0.17036644627E+02  0.00000000000E+00 0.  1.
          2   -1    0    0  502    0  0.00000000000E+00 -0.00000000000E+00 -0.17601874509E+04  0.17601874509E+04  0.00000000000E+00 0. -1.
          6    1    1    2  502    0  0.19860863853E+02  0.24988904506E+01 -0.86270271077E+03  0.87990946439E+03  0.17200000000E+03 0.  1.
         -6    1    1    2    0  501 -0.19860863853E+02 -0.24988904506E+01 -0.88044809553E+03  0.89731463116E+03  0.17200000000E+03 0. -1.
</event>
<event>
 4    1  0.3190379E-002  0.1752701E+03  0.7818608E-02  0.1172461E+00
         -1   -1    0    0    0  501 -0.00000000000E+00  0.00000000000E+00  0.19240983934E+02  0.19240983934E+02  0.00000000000E+00 0.  1.
          1   -1    0    0  502    0  0.00000000000E+00 -0.00000000000E+00 -0.22303024617E+04  0.22303024617E+04  0.00000000000E+00 0. -1.
          6    1    1    2  502    0  0.31936303373E+01  0.33547007047E+02 -0.17050940793E+04  0.17140785922E+04  0.17200000000E+03 0. -1.
         -6    1    1    2    0  501 -0.31936303373E+01 -0.33547007047E+02 -0.50596739843E+03  0.53546485340E+03  0.17200000000E+03 0.  1.
</event>
<event>
 4    1  0.3190379E-002  0.2011939E+03  0.7818608E-02  0.1148736E+00
          2   -1    0    0  502    0  0.00000000000E+00  0.00000000000E+00  0.43995095132E+03  0.43995095132E+03  0.00000000000E+00 0. -1.
         -2   -1    0    0    0  501 -0.00000000000E+00 -0.00000000000E+00 -0.97759053288E+02  0.97759053288E+02  0.00000000000E+00 0.  1.
          6    1    1    2  502    0 -0.94860596682E+02  0.43548321833E+02  0.10588584878E+03  0.22735611298E+03  0.17200000000E+03 0.  1.
         -6    1    1    2    0  501  0.94860596682E+02 -0.43548321833E+02  0.23630604926E+03  0.31035389163E+03  0.17200000000E+03 0.  1.
</event>
<event>
 4    1  0.3190379E-002  0.1821453E+03  0.7818608E-02  0.1165743E+00
          2   -1    0    0  502    0  0.00000000000E+00  0.00000000000E+00  0.44932678556E+03  0.44932678556E+03  0.00000000000E+00 0. -1.
         -2   -1    0    0    0  501 -0.00000000000E+00 -0.00000000000E+00 -0.79912019709E+02  0.79912019709E+02  0.00000000000E+00 0.  1.
          6    1    1    2  502    0 -0.14418709587E+02  0.58180976916E+02  0.25766838625E+03  0.31554702111E+03  0.17200000000E+03 0. -1.
         -6    1    1    2    0  501  0.14418709587E+02 -0.58180976916E+02  0.11174637960E+03  0.21369178415E+03  0.17200000000E+03 0.  1.
</event>
<event>
 4    1  0.3190379E-002  0.2029176E+03  0.7818608E-02  0.1147301E+00
         -2   -1    0    0    0  501 -0.00000000000E+00  0.00000000000E+00  0.23371934258E+02  0.23371934258E+02  0.00000000000E+00 0.  1.
          2   -1    0    0  502    0  0.00000000000E+00 -0.00000000000E+00 -0.17994299626E+04  0.17994299626E+04  0.00000000000E+00 0. -1.
          6    1    1    2  502    0 -0.11917734259E+02  0.10700233640E+03 -0.10199125328E+04  0.10399024507E+04  0.17200000000E+03 0. -1.
         -6    1    1    2    0  501  0.11917734259E+02 -0.10700233640E+03 -0.75614549558E+03  0.78289944621E+03  0.17200000000E+03 0.  1.
</event>
<event>
 4    1  0.3190379E-002  0.1895178E+03  0.7818608E-02  0.1158897E+00
          1   -1    0    0  502    0  0.00000000000E+00  0.00000000000E+00  0.36270571495E+03  0.36270571495E+03  0.00000000000E+00 0. -1.
         -1   -1    0    0    0  501 -0.00000000000E+00 -0.00000000000E+00 -0.27509306098E+03  0.27509306098E+03  0.00000000000E+00 0.  1.
          6    1    1    2  502    0  0.76919142043E+02  0.20406619260E+02  0.29893189510E+03  0.35394528169E+03  0.17200000000E+03 0. -1.
         -6    1    1    2    0  501 -0.76919142043E+02 -0.20406619260E+02 -0.21131924113E+03  0.28385349424E+03  0.17200000000E+03 0.  1.
</event>
<event>
 4    1  0.3190379E-002  0.3415134E+03  0.7818608E-02  0.1066153E+00
          2   -1    0    0  502    0  0.00000000000E+00  0.00000000000E+00  0.16668104100E+04  0.16668104100E+04  0.00000000000E+00 0. -1.
         -2   -1    0    0    0  501 -0.00000000000E+00 -0.00000000000E+00 -0.14639633128E+03  0.14639633128E+03  0.00000000000E+00 0.  1.
          6    1    1    2  502    0  0.23549573264E+03 -0.17773330813E+03  0.14152440239E+04  0.14558664142E+04  0.17200000000E+03 0. -1.
         -6    1    1    2    0  501 -0.23549573264E+03  0.17773330813E+03  0.10517005484E+03  0.35734032706E+03  0.17200000000E+03 0.  1.
</event>
<event>
 4    1  0.3190379E-002  0.2013266E+03  0.7818608E-02  0.1148625E+00
         -1   -1    0    0    0  501 -0.00000000000E+00  0.00000000000E+00  0.25623798135E+03  0.25623798135E+03  0.00000000000E+00 0.  1.
          1   -1    0    0  502    0  0.00000000000E+00 -0.00000000000E+00 -0.17324183571E+03  0.17324183571E+03  0.00000000000E+00 0. -1.
          6    1    1    2  502    0  0.34518856253E+02  0.98776717107E+02 -0.21814181130E+02  0.20250493766E+03  0.17200000000E+03 0.  1.
         -6    1    1    2    0  501 -0.34518856253E+02 -0.98776717107E+02  0.10481032677E+03  0.22697487939E+03  0.17200000000E+03 0.  1.
</event>
<event>
 4    1  0.3190379E-002  0.1745663E+03  0.7818608E-02  0.1173168E+00
         -1   -1    0    0    0  501 -0.00000000000E+00  0.00000000000E+00  0.51983480663E+02  0.51983480663E+02  0.00000000000E+00 0.  1.
          1   -1    0    0  502    0  0.00000000000E+00 -0.00000000000E+00 -0.70886070436E+03  0.70886070436E+03  0.00000000000E+00 0. -1.
          6    1    1    2  502    0  0.12502577254E+02 -0.27075238801E+02 -0.48667825790E+03  0.51703878936E+03  0.17200000000E+03 0. -1.
         -6    1    1    2    0  501 -0.12502577254E+02  0.27075238801E+02 -0.17019896579E+03  0.24380539566E+03  0.17200000000E+03 0.  1.
</event>
<event>
 4    1  0.3190379E-002  0.2888555E+03  0.7818608E-02  0.1090948E+00
         -3   -1    0    0    0  501 -0.00000000000E+00  0.00000000000E+00  0.65212161114E+03  0.65212161114E+03  0.00000000000E+00 0.  1.
          3   -1    0    0  502    0  0.00000000000E+00 -0.00000000000E+00 -0.21666745796E+03  0.21666745796E+03  0.00000000000E+00 0. -1.
          6    1    1    2  502    0  0.18299995508E+03 -0.14270429043E+03 -0.60242676104E+02  0.29507063238E+03  0.17200000000E+03 0. -1.
         -6    1    1    2    0  501 -0.18299995508E+03  0.14270429043E+03  0.49569682929E+03  0.57371843672E+03  0.17200000000E+03 0.  1.
</event>
<event>
 4    1  0.3190379E-002  0.4134732E+03  0.7818608E-02  0.1039212E+00
         -2   -1    0    0    0  501 -0.00000000000E+00  0.00000000000E+00  0.83513296853E+03  0.83513296853E+03  0.00000000000E+00 0.  1.
          2   -1    0    0  502    0  0.00000000000E+00 -0.00000000000E+00 -0.79990278937E+03  0.79990278937E+03  0.00000000000E+00 0. -1.
          6    1    1    2  502    0 -0.22273802371E+02  0.37533980909E+03 -0.68757706756E+03  0.80232307607E+03  0.17200000000E+03 0. -1.
         -6    1    1    2    0  501  0.22273802371E+02 -0.37533980909E+03  0.72280724673E+03  0.83271268183E+03  0.17200000000E+03 0.  1.
</event>
<event>
 4    1  0.3190379E-002  0.1811807E+03  0.7818608E-02  0.1166665E+00
          1   -1    0    0  502    0  0.00000000000E+00  0.00000000000E+00  0.46923513803E+03  0.46923513803E+03  0.00000000000E+00 0. -1.
         -1   -1    0    0    0  501 -0.00000000000E+00 -0.00000000000E+00 -0.80691365651E+02  0.80691365651E+02  0.00000000000E+00 0.  1.
          6    1    1    2  502    0  0.17260512799E+02 -0.54263598478E+02  0.93985607283E+02  0.20410722133E+03  0.17200000000E+03 0.  1.
         -6    1    1    2    0  501 -0.17260512799E+02  0.54263598478E+02  0.29455816510E+03  0.34581928236E+03  0.17200000000E+03 0. -1.
</event>
<event>
 4    1  0.3190379E-002  0.3012593E+03  0.7818608E-02  0.1084613E+00
          2   -1    0    0  502    0  0.00000000000E+00  0.00000000000E+00  0.11994030737E+04  0.11994030737E+04  0.00000000000E+00 0. -1.
         -2   -1    0    0    0  501 -0.00000000000E+00 -0.00000000000E+00 -0.95963108096E+02  0.95963108096E+02  0.00000000000E+00 0.  1.
          6    1    1    2  502    0  0.55487815665E+02  0.24102754900E+03  0.84957124313E+03  0.90140361338E+03  0.17200000000E+03 0. -1.
         -6    1    1    2    0  501 -0.55487815665E+02 -0.24102754900E+03  0.25386872248E+03  0.39396256842E+03  0.17200000000E+03 0.  1.
</event>
<event>
 4    1  0.3190379E-002  0.2523677E+03  0.7818608E-02  0.1111818E+00
          1   -1    0    0  502    0  0.00000000000E+00  0.00000000000E+00  0.37624469775E+03  0.37624469775E+03  0.00000000000E+00 0. -1.
         -1   -1    0    0    0  501 -0.00000000000E+00 -0.00000000000E+00 -0.16968591884E+03  0.16968591884E+03  0.00000000000E+00 0.  1.
          6    1    1    2  502    0 -0.16987216345E+03  0.72449212927E+02  0.89873636359E+02  0.26789309599E+03  0.17200000000E+03 0. -1.
         -6    1    1    2    0  501  0.16987216345E+03 -0.72449212927E+02  0.11668514256E+03  0.27803752060E+03  0.17200000000E+03 0. -1.
</event>
<event>
 4    1  0.3190379E-002  0.2076424E+03  0.7818608E-02  0.1143447E+00
          2   -1    0    0  502    0  0.00000000000E+00  0.00000000000E+00  0.86269565983E+03  0.86269565983E+03  0.00000000000E+00 0. -1.
         -2   -1    0    0    0  501 -0.00000000000E+00 -0.00000000000E+00 -0.55381113404E+02  0.55381113404E+02  0.00000000000E+00 0.  1.
          6    1    1    2  502    0  0.82017818437E+02 -0.82488998538E+02  0.26026987213E+03  0.33295009199E+03  0.17200000000E+03 0. -1.
         -6    1    1    2    0  501 -0.82017818437E+02  0.82488998538E+02  0.54704467430E+03  0.58512668124E+03  0.17200000000E+03 0. -1.
</event>
<event>
 4    1  0.3190379E-002  0.2082223E+03  0.7818608E-02  0.1142982E+00
          1   -1    0    0  502    0  0.00000000000E+00  0.00000000000E+00  0.18510014549E+04  0.18510014549E+04  0.00000000000E+00 0. -1.
         -1   -1    0    0    0  501 -0.00000000000E+00 -0.00000000000E+00 -0.24939276983E+02  0.24939276983E+02  0.00000000000E+00 0.  1.
          6    1    1    2  502    0 -0.93536106847E+02 -0.70876766930E+02  0.11442891180E+04  0.11630795781E+04  0.17200000000E+03 0. -1.
         -6    1    1    2    0  501  0.93536106847E+02  0.70876766930E+02  0.68177305998E+03  0.71286115386E+03  0.17200000000E+03 0.  1.
</event>
<event>
 4    1  0.3190379E-002  0.2321012E+03  0.7818608E-02  0.1125170E+00
         -2   -1    0    0    0  501 -0.00000000000E+00  0.00000000000E+00  0.51132600711E+02  0.51132600711E+02  0.00000000000E+00 0.  1.
          2   -1    0    0  502    0  0.00000000000E+00 -0.00000000000E+00 -0.12502212206E+04  0.12502212206E+04  0.00000000000E+00 0. -1.
          6    1    1    2  502    0  0.15577131514E+03  0.47180057192E+01 -0.85761448683E+03  0.88846697757E+03  0.17200000000E+03 0. -1.
         -6    1    1    2    0  501 -0.15577131514E+03 -0.47180057192E+01 -0.34147413310E+03  0.41288684379E+03  0.17200000000E+03 0.  1.
</event>
<event>
 4    1  0.3190379E-002  0.3395043E+03  0.7818608E-02  0.1067007E+00
          3   -1    0    0  502    0  0.00000000000E+00  0.00000000000E+00  0.13306839795E+04  0.13306839795E+04  0.00000000000E+00 0. -1.
         -3   -1    0    0    0  501 -0.00000000000E+00 -0.00000000000E+00 -0.55623961601E+03  0.55623961601E+03  0.00000000000E+00 0.  1.
          6    1    1    2  502    0  0.25323014949E+03  0.14681153758E+03  0.12541176300E+04  0.12992590835E+04  0.17200000000E+03 0. -1.
         -6    1    1    2    0  501 -0.25323014949E+03 -0.14681153758E+03 -0.47967326646E+03  0.58766451206E+03  0.17200000000E+03 0.  1.
</event>
<event>
 4    1  0.3190379E-002  0.1875008E+03  0.7818608E-02  0.1160735E+00
         -2   -1    0    0    0  501 -0.00000000000E+00  0.00000000000E+00  0.48726758897E+02  0.48726758897E+02  0.00000000000E+00 0.  1.
          2   -1    0    0  502    0  0.00000000000E+00 -0.00000000000E+00 -0.79808740977E+03  0.79808740977E+03  0.00000000000E+00 0. -1.
          6    1    1    2  502    0 -0.71035686112E+02  0.22945149093E+02 -0.24352062757E+03  0.30734157646E+03  0.17200000000E+03 0.  1.
         -6    1    1    2    0  501  0.71035686112E+02 -0.22945149093E+02 -0.50584002331E+03  0.53947259221E+03  0.17200000000E+03 0. -1.
</event>
<event>
 4    1  0.3190379E-002  0.2025648E+03  0.7818608E-02  0.1147593E+00
         -2   -1    0    0    0  501 -0.00000000000E+00  0.00000000000E+00  0.20709340964E+03  0.20709340964E+03  0.00000000000E+00 0.  1.
          2   -1    0    0  502    0  0.00000000000E+00 -0.00000000000E+00 -0.23341242773E+03  0.23341242773E+03  0.00000000000E+00 0. -1.
          6    1    1    2  502    0 -0.13151153390E+02 -0.10618628186E+03 -0.98785842921E+02  0.22536885777E+03  0.17200000000E+03 0. -1.
         -6    1    1    2    0  501  0.13151153390E+02  0.10618628186E+03  0.72466824826E+02  0.21513697960E+03  0.17200000000E+03 0.  1.
</event>
<event>
 4    1  0.3190379E-002  0.6036338E+03  0.7818608E-02  0.9897896E-01
         -2   -1    0    0    0  501 -0.00000000000E+00  0.00000000000E+00  0.40418882243E+03  0.40418882243E+03  0.00000000000E+00 0.  1.
          2   -1    0    0  502    0  0.00000000000E+00 -0.00000000000E+00 -0.10279665244E+04  0.10279665244E+04  0.00000000000E+00 0. -1.
          6    1    1    2  502    0 -0.19971820566E+03  0.54304917675E+03 -0.60718217673E+02  0.60667987604E+03  0.17200000000E+03 0. -1.
         -6    1    1    2    0  501  0.19971820566E+03 -0.54304917675E+03 -0.56305948431E+03  0.82547547081E+03  0.17200000000E+03 0.  1.
</event>
<event>
 4    1  0.3190379E-002  0.3111844E+03  0.7818608E-02  0.1079780E+00
          1   -1    0    0  502    0  0.00000000000E+00  0.00000000000E+00  0.70886615863E+03  0.70886615863E+03  0.00000000000E+00 0. -1.
         -1   -1    0    0    0  501 -0.00000000000E+00 -0.00000000000E+00 -0.21729334426E+03  0.21729334426E+03  0.00000000000E+00 0.  1.
          6    1    1    2  502    0  0.15005260890E+03  0.21150866962E+03  0.52797147490E+03  0.61285363756E+03  0.17200000000E+03 0. -1.
         -6    1    1    2    0  501 -0.15005260890E+03 -0.21150866962E+03 -0.36398660539E+02  0.31330586533E+03  0.17200000000E+03 0.  1.
</event>
<event>
 4    1  0.3190379E-002  0.1768201E+03  0.7818608E-02  0.1170917E+00
          2   -1    0    0  502    0  0.00000000000E+00  0.00000000000E+00  0.47103667936E+02  0.47103667936E+02  0.00000000000E+00 0. -1.
         -2   -1    0    0    0  501 -0.00000000000E+00 -0.00000000000E+00 -0.69605226956E+03  0.69605226956E+03  0.00000000000E+00 0.  1.
          6    1    1    2  502    0 -0.30619966038E+02  0.27272019808E+02 -0.24443472884E+03  0.30168473950E+03  0.17200000000E+03 0. -1.
         -6    1    1    2    0  501  0.30619966038E+02 -0.27272019808E+02 -0.40451387279E+03  0.44147119800E+03  0.17200000000E+03 0.  1.
</event>
<event>
 4    1  0.3190379E-002  0.3361282E+03  0.7818608E-02  0.1068457E+00
         -2   -1    0    0    0  501 -0.00000000000E+00  0.00000000000E+00  0.34200467712E+03  0.34200467712E+03  0.00000000000E+00 0.  1.
          2   -1    0    0  502    0  0.00000000000E+00 -0.00000000000E+00 -0.35240297918E+03  0.35240297918E+03  0.00000000000E+00 0. -1.
          6    1    1    2  502    0 -0.27784380773E+03 -0.78746276931E+02 -0.92049602155E+02  0.34850435705E+03  0.17200000000E+03 0. -1.
         -6    1    1    2    0  501  0.27784380773E+03  0.78746276931E+02  0.81651300100E+02  0.34590329925E+03  0.17200000000E+03 0.  1.
</event>
<event>
 4    1  0.3190379E-002  0.5637351E+03  0.7818608E-02  0.9983639E-01
          2   -1    0    0  502    0  0.00000000000E+00  0.00000000000E+00  0.74449933183E+03  0.74449933183E+03  0.00000000000E+00 0. -1.
         -2   -1    0    0    0  501 -0.00000000000E+00 -0.00000000000E+00 -0.60883315098E+03  0.60883315098E+03  0.00000000000E+00 0.  1.
          6    1    1    2  502    0  0.27886436039E+03  0.45874600328E+03  0.43777082588E+03  0.71375102313E+03  0.17200000000E+03 0. -1.
         -6    1    1    2    0  501 -0.27886436039E+03 -0.45874600328E+03 -0.30210464503E+03  0.63958145969E+03  0.17200000000E+03 0.  1.
</event>
<event>
 4    1  0.3190379E-002  0.2034716E+03  0.7818608E-02  0.1146843E+00
         -2   -1    0    0    0  501 -0.00000000000E+00  0.00000000000E+00  0.10089963645E+03  0.10089963645E+03  0.00000000000E+00 0.  1.
          2   -1    0    0  502    0  0.00000000000E+00 -0.00000000000E+00 -0.41703319248E+03  0.41703319248E+03  0.00000000000E+00 0. -1.
          6    1    1    2  502    0  0.54362404918E+02 -0.94135074592E+02 -0.12519912798E+03  0.23890480318E+03  0.17200000000E+03 0.  1.
         -6    1    1    2    0  501 -0.54362404918E+02  0.94135074592E+02 -0.19093442805E+03  0.27902802574E+03  0.17200000000E+03 0.  1.
</event>
<event>
 4    1  0.3190379E-002  0.1782778E+03  0.7818608E-02  0.1169480E+00
         -2   -1    0    0    0  501 -0.00000000000E+00  0.00000000000E+00  0.10519346945E+03  0.10519346945E+03  0.00000000000E+00 0.  1.
          2   -1    0    0  502    0  0.00000000000E+00 -0.00000000000E+00 -0.11238199484E+04  0.11238199484E+04  0.00000000000E+00 0. -1.
          6    1    1    2  502    0 -0.42549968802E+02 -0.19709841048E+02 -0.10347616103E+04  0.10500069371E+04  0.17200000000E+03 0. -1.
         -6    1    1    2    0  501  0.42549968802E+02  0.19709841048E+02  0.16135131419E+02  0.17900648073E+03  0.17200000000E+03 0.  1.
</event>
<event>
 4    1  0.3190379E-002  0.5261976E+03  0.7818608E-02  0.1007158E+00
          2   -1    0    0  502    0  0.00000000000E+00  0.00000000000E+00  0.58629845607E+03  0.58629845607E+03  0.00000000000E+00 0. -1.
         -2   -1    0    0    0  501 -0.00000000000E+00 -0.00000000000E+00 -0.53738860646E+03  0.53738860646E+03  0.00000000000E+00 0.  1.
          6    1    1    2  502    0 -0.33987877019E+03 -0.36301833568E+03  0.22005324314E+03  0.57035718658E+03  0.17200000000E+03 0. -1.
         -6    1    1    2    0  501  0.33987877019E+03  0.36301833568E+03 -0.17114339353E+03  0.55332987595E+03  0.17200000000E+03 0.  1.
</event>
<event>
 4    1  0.3190379E-002  0.2802857E+03  0.7818608E-02  0.1095533E+00
          1   -1    0    0  502    0  0.00000000000E+00  0.00000000000E+00  0.28791798977E+04  0.28791798977E+04  0.00000000000E+00 0. -1.
         -1   -1    0    0    0  501 -0.00000000000E+00 -0.00000000000E+00 -0.29019431869E+02  0.29019431869E+02  0.00000000000E+00 0.  1.
          6    1    1    2  502    0  0.20884349059E+03 -0.73215160119E+02  0.17805126464E+04  0.18024387221E+04  0.17200000000E+03 0. -1.
         -6    1    1    2    0  501 -0.20884349059E+03  0.73215160119E+02  0.10696478194E+04  0.11057606074E+04  0.17200000000E+03 0.  1.
</event>
<event>
 4    1  0.3190379E-002  0.2708061E+03  0.7818608E-02  0.1100819E+00
          1   -1    0    0  502    0  0.00000000000E+00  0.00000000000E+00  0.15380403106E+03  0.15380403106E+03  0.00000000000E+00 0. -1.
         -1   -1    0    0    0  501 -0.00000000000E+00 -0.00000000000E+00 -0.63103211471E+03  0.63103211471E+03  0.00000000000E+00 0.  1.
          6    1    1    2  502    0  0.17113452056E+03 -0.12027020271E+03 -0.43260910812E+03  0.51037886537E+03  0.17200000000E+03 0. -1.
         -6    1    1    2    0  501 -0.17113452056E+03  0.12027020271E+03 -0.44618975537E+02  0.27445728040E+03  0.17200000000E+03 0. -1.
</event>
<event>
 4    1  0.3190379E-002  0.2987921E+03  0.7818608E-02  0.1085846E+00
          1   -1    0    0  502    0  0.00000000000E+00  0.00000000000E+00  0.11357868378E+04  0.11357868378E+04  0.00000000000E+00 0. -1.
         -1   -1    0    0    0  501 -0.00000000000E+00 -0.00000000000E+00 -0.12454865720E+03  0.12454865720E+03  0.00000000000E+00 0.  1.
          6    1    1    2  502    0  0.19518146133E+03  0.14695884825E+03  0.88836186029E+03  0.93726383731E+03  0.17200000000E+03 0. -1.
         -6    1    1    2    0  501 -0.19518146133E+03 -0.14695884825E+03  0.12287632035E+03  0.32307165773E+03  0.17200000000E+03 0.  1.
</event>
<event>
 4    1  0.3190379E-002  0.1801694E+03  0.7818608E-02  0.1167639E+00
          1   -1    0    0  502    0  0.00000000000E+00  0.00000000000E+00  0.13170685202E+04  0.13170685202E+04  0.00000000000E+00 0. -1.
         -1   -1    0    0    0  501 -0.00000000000E+00 -0.00000000000E+00 -0.41331376510E+02  0.41331376510E+02  0.00000000000E+00 0.  1.
          6    1    1    2  502    0 -0.24832232557E+02  0.47543243139E+02  0.10694080061E+04  0.10844788994E+04  0.17200000000E+03 0. -1.
         -6    1    1    2    0  501  0.24832232557E+02 -0.47543243139E+02  0.20632913755E+03  0.27392099727E+03  0.17200000000E+03 0.  1.
</event>
<event>
 4    1  0.3190379E-002  0.2373358E+03  0.7818608E-02  0.1121580E+00
          2   -1    0    0  502    0  0.00000000000E+00  0.00000000000E+00  0.48048960279E+03  0.48048960279E+03  0.00000000000E+00 0. -1.
         -2   -1    0    0    0  501 -0.00000000000E+00 -0.00000000000E+00 -0.11781128252E+03  0.11781128252E+03  0.00000000000E+00 0.  1.
          6    1    1    2  502    0 -0.16308704300E+03 -0.12120005196E+02  0.16034421295E+03  0.28642371541E+03  0.17200000000E+03 0. -1.
         -6    1    1    2    0  501  0.16308704300E+03  0.12120005196E+02  0.20233410732E+03  0.31187716990E+03  0.17200000000E+03 0. -1.
</event>
<event>
 4    1  0.3190379E-002  0.2371765E+03  0.7818608E-02  0.1121688E+00
          1   -1    0    0  502    0  0.00000000000E+00  0.00000000000E+00  0.11914739212E+04  0.11914739212E+04  0.00000000000E+00 0. -1.
         -1   -1    0    0    0  501 -0.00000000000E+00 -0.00000000000E+00 -0.59295161303E+02  0.59295161303E+02  0.00000000000E+00 0.  1.
          6    1    1    2  502    0 -0.36331360309E+02  0.15921281999E+03  0.28378644918E+03  0.36984785863E+03  0.17200000000E+03 0. -1.
         -6    1    1    2    0  501  0.36331360309E+02 -0.15921281999E+03  0.84839231070E+03  0.88092122386E+03  0.17200000000E+03 0. -1.
</event>
<event>
 4    1  0.3190379E-002  0.2596018E+03  0.7818608E-02  0.1107383E+00
         -1   -1    0    0    0  501 -0.00000000000E+00  0.00000000000E+00  0.29828966618E+03  0.29828966618E+03  0.00000000000E+00 0.  1.
          1   -1    0    0  502    0  0.00000000000E+00 -0.00000000000E+00 -0.30564452636E+03  0.30564452636E+03  0.00000000000E+00 0. -1.
          6    1    1    2  502    0  0.45304229835E+02 -0.18909414671E+03 -0.15788852287E+03  0.30384511715E+03  0.17200000000E+03 0. -1.
         -6    1    1    2    0  501 -0.45304229835E+02  0.18909414671E+03  0.15053366269E+03  0.30008907538E+03  0.17200000000E+03 0.  1.
</event>
<event>
 4    1  0.3190379E-002  0.2005657E+03  0.7818608E-02  0.1149263E+00
         -1   -1    0    0    0  501 -0.00000000000E+00  0.00000000000E+00  0.28551693056E+02  0.28551693056E+02  0.00000000000E+00 0.  1.
          1   -1    0    0  502    0  0.00000000000E+00 -0.00000000000E+00 -0.15390559811E+04  0.15390559811E+04  0.00000000000E+00 0. -1.
          6    1    1    2  502    0  0.56900489947E+02  0.86051991208E+02 -0.98318378132E+03  0.10034325881E+04  0.17200000000E+03 0. -1.
         -6    1    1    2    0  501 -0.56900489947E+02 -0.86051991208E+02 -0.52732050669E+03  0.56417508606E+03  0.17200000000E+03 0.  1.
</event>
<event>
 4    1  0.3190379E-002  0.2397177E+03  0.7818608E-02  0.1119981E+00
         -2   -1    0    0    0  501 -0.00000000000E+00  0.00000000000E+00  0.14795027253E+03  0.14795027253E+03  0.00000000000E+00 0.  1.
          2   -1    0    0  502    0  0.00000000000E+00 -0.00000000000E+00 -0.72548020796E+03  0.72548020796E+03  0.00000000000E+00 0. -1.
          6    1    1    2  502    0  0.27420703856E+02  0.16470783956E+03 -0.58644466988E+03  0.63354709236E+03  0.17200000000E+03 0. -1.
         -6    1    1    2    0  501 -0.27420703856E+02 -0.16470783956E+03  0.89147344473E+01  0.23988338813E+03  0.17200000000E+03 0.  1.
</event>
<event>
 4    1  0.3190379E-002  0.1856983E+03  0.7818608E-02  0.1162399E+00
         -1   -1    0    0    0  501 -0.00000000000E+00  0.00000000000E+00  0.47098143579E+03  0.47098143579E+03  0.00000000000E+00 0.  1.
          1   -1    0    0  502    0  0.00000000000E+00 -0.00000000000E+00 -0.96307715238E+02  0.96307715238E+02  0.00000000000E+00 0. -1.
          6    1    1    2  502    0 -0.57050869015E+02 -0.40559416054E+02  0.32622406389E+03  0.37537449000E+03  0.17200000000E+03 0.  1.
         -6    1    1    2    0  501  0.57050869015E+02  0.40559416054E+02  0.48449656667E+02  0.19191466103E+03  0.17200000000E+03 0. -1.
</event>
<event>
 4    1  0.3190379E-002  0.2076408E+03  0.7818608E-02  0.1143448E+00
         -4   -1    0    0    0  501 -0.00000000000E+00  0.00000000000E+00  0.53451693625E+02  0.53451693625E+02  0.00000000000E+00 0.  1.
          4   -1    0    0  502    0  0.00000000000E+00 -0.00000000000E+00 -0.86639844977E+03  0.86639844977E+03  0.00000000000E+00 0. -1.
          6    1    1    2  502    0  0.21643750272E+02 -0.11429011859E+03 -0.52729260316E+03  0.56670289613E+03  0.17200000000E+03 0. -1.
         -6    1    1    2    0  501 -0.21643750272E+02  0.11429011859E+03 -0.28565415299E+03  0.35314724727E+03  0.17200000000E+03 0.  1.
</event>
<event>
 4    1  0.3190379E-002  0.1853154E+03  0.7818608E-02  0.1162756E+00
         -1   -1    0    0    0  501 -0.00000000000E+00  0.00000000000E+00  0.27694665336E+03  0.27694665336E+03  0.00000000000E+00 0.  1.
          1   -1    0    0  502    0  0.00000000000E+00 -0.00000000000E+00 -0.13455502623E+03  0.13455502623E+03  0.00000000000E+00 0. -1.
          6    1    1    2  502    0  0.22971095972E+02 -0.65039473731E+02  0.13573570916E+02  0.18581185705E+03  0.17200000000E+03 0. -1.
         -6    1    1    2    0  501 -0.22971095972E+02  0.65039473731E+02  0.12881805622E+03  0.22568982255E+03  0.17200000000E+03 0.  1.
</event>
<event>
 4    1  0.3190379E-002  0.2172783E+03  0.7818608E-02  0.1135929E+00
         -2   -1    0    0    0  501 -0.00000000000E+00  0.00000000000E+00  0.40737368369E+03  0.40737368369E+03  0.00000000000E+00 0.  1.
          2   -1    0    0  502    0  0.00000000000E+00 -0.00000000000E+00 -0.19271163395E+03  0.19271163395E+03  0.00000000000E+00 0. -1.
          6    1    1    2  502    0  0.28130996084E+02  0.12974787053E+03 -0.82110630789E+02  0.23227573816E+03  0.17200000000E+03 0. -1.
         -6    1    1    2    0  501 -0.28130996084E+02 -0.12974787053E+03  0.29677268053E+03  0.36780957948E+03  0.17200000000E+03 0.  1.
</event>
<event>
 4    1  0.3190379E-002  0.1811130E+03  0.7818608E-02  0.1166730E+00
          2   -1    0    0  502    0  0.00000000000E+00  0.00000000000E+00  0.17129360301E+04  0.17129360301E+04  0.00000000000E+00 0. -1.
         -2   -1    0    0    0  501 -0.00000000000E+00 -0.00000000000E+00 -0.20969483543E+02  0.20969483543E+02  0.00000000000E+00 0.  1.
          6    1    1    2  502    0  0.28304982419E+02  0.49160455109E+02  0.11013895365E+04  0.11161813623E+04  0.17200000000E+03 0. -1.
         -6    1    1    2    0  501 -0.28304982419E+02 -0.49160455109E+02  0.59057701007E+03  0.61772415138E+03  0.17200000000E+03 0.  1.
</event>
<event>
 4    1  0.3190379E-002  0.3279985E+03  0.7818608E-02  0.1072026E+00
          1   -1    0    0  502    0  0.00000000000E+00  0.00000000000E+00  0.17228800169E+03  0.17228800169E+03  0.00000000000E+00 0. -1.
         -1   -1    0    0    0  501 -0.00000000000E+00 -0.00000000000E+00 -0.29336005189E+04  0.29336005189E+04  0.00000000000E+00 0.  1.
          6    1    1    2  502    0  0.17517336827E+03 -0.21751620148E+03 -0.28672280728E+01  0.32801101789E+03  0.17200000000E+03 0. -1.
         -6    1    1    2    0  501 -0.17517336827E+03  0.21751620148E+03 -0.27584452891E+04  0.27778775027E+04  0.17200000000E+03 0.  1.
</event>
<event>
 4    1  0.3190379E-002  0.2223309E+03  0.7818608E-02  0.1132157E+00
         -2   -1    0    0    0  501 -0.00000000000E+00  0.00000000000E+00  0.39180819931E+02  0.39180819931E+02  0.00000000000E+00 0.  1.
          2   -1    0    0  502    0  0.00000000000E+00 -0.00000000000E+00 -0.16981965597E+04  0.16981965597E+04  0.00000000000E+00 0. -1.
          6    1    1    2  502    0 -0.13672688449E+03  0.33952414894E+02 -0.38905019011E+03  0.44809715224E+03  0.17200000000E+03 0.  1.
         -6    1    1    2    0  501  0.13672688449E+03 -0.33952414894E+02 -0.12699655496E+04  0.12892802274E+04  0.17200000000E+03 0.  1.
</event>
<event>
 4    1  0.3190379E-002  0.3413500E+03  0.7818608E-02  0.1066222E+00
          2   -1    0    0  502    0  0.00000000000E+00  0.00000000000E+00  0.26565992142E+04  0.26565992142E+04  0.00000000000E+00 0. -1.
         -2   -1    0    0    0  501 -0.00000000000E+00 -0.00000000000E+00 -0.69039973546E+02  0.69039973546E+02  0.00000000000E+00 0.  1.
          6    1    1    2  502    0 -0.16358776429E+03 -0.24530570354E+03  0.21168010440E+04  0.21441470343E+04  0.17200000000E+03 0. -1.
         -6    1    1    2    0  501  0.16358776429E+03  0.24530570354E+03  0.47075819670E+03  0.58149215350E+03  0.17200000000E+03 0.  1.
</event>
<event>
 4    1  0.3190379E-002  0.2579275E+03  0.7818608E-02  0.1108395E+00
         -2   -1    0    0    0  501 -0.00000000000E+00  0.00000000000E+00  0.16107971563E+03  0.16107971563E+03  0.00000000000E+00 0.  1.
          2   -1    0    0  502    0  0.00000000000E+00 -0.00000000000E+00 -0.24351981224E+04  0.24351981224E+04  0.00000000000E+00 0. -1.
          6    1    1    2  502    0 -0.78802355299E+02  0.17530771042E+03 -0.23200065575E+04  0.23343001159E+04  0.17200000000E+03 0. -1.
         -6    1    1    2    0  501  0.78802355299E+02 -0.17530771042E+03  0.45888150652E+02  0.26197772215E+03  0.17200000000E+03 0.  1.
</event>
<event>
 4    1  0.3190379E-002  0.3018018E+03  0.7818608E-02  0.1084343E+00
          1   -1    0    0  502    0  0.00000000000E+00  0.00000000000E+00  0.93229073340E+03  0.93229073340E+03  0.00000000000E+00 0. -1.
         -1   -1    0    0    0  501 -0.00000000000E+00 -0.00000000000E+00 -0.29651417802E+03  0.29651417802E+03  0.00000000000E+00 0.  1.
          6    1    1    2  502    0  0.15760838653E+03 -0.19146777474E+03  0.82098844709E+03  0.87470357409E+03  0.17200000000E+03 0. -1.
         -6    1    1    2    0  501 -0.15760838653E+03  0.19146777474E+03 -0.18521189172E+03  0.35410133733E+03  0.17200000000E+03 0.  1.
</event>
<event>
 4    1  0.3190379E-002  0.1915228E+03  0.7818608E-02  0.1157095E+00
          2   -1    0    0  502    0  0.00000000000E+00  0.00000000000E+00  0.70441205411E+03  0.70441205411E+03  0.00000000000E+00 0. -1.
         -2   -1    0    0    0  501 -0.00000000000E+00 -0.00000000000E+00 -0.53397165132E+02  0.53397165132E+02  0.00000000000E+00 0.  1.
          6    1    1    2  502    0 -0.80911488111E+02  0.23458935933E+02  0.26584392420E+03  0.32764917613E+03  0.17200000000E+03 0.  1.
         -6    1    1    2    0  501  0.80911488111E+02 -0.23458935933E+02  0.38517096478E+03  0.43016004312E+03  0.17200000000E+03 0. -1.
</event>
<event>
 4    1  0.3190379E-002  0.2360635E+03  0.7818608E-02  0.1122443E+00
          1   -1    0    0  502    0  0.00000000000E+00  0.00000000000E+00  0.10945127325E+03  0.10945127325E+03  0.00000000000E+00 0. -1.
         -1   -1    0    0    0  501 -0.00000000000E+00 -0.00000000000E+00 -0.64577239224E+03  0.64577239224E+03  0.00000000000E+00 0.  1.
          6    1    1    2  502    0 -0.15186330947E+03  0.55493137554E+02 -0.94467012576E+02  0.25426358281E+03  0.17200000000E+03 0. -1.
         -6    1    1    2    0  501  0.15186330947E+03 -0.55493137554E+02 -0.44185410642E+03  0.50096008268E+03  0.17200000000E+03 0.  1.
</event>
<event>
 4    1  0.3190379E-002  0.2862098E+03  0.7818608E-02  0.1092345E+00
          1   -1    0    0  502    0  0.00000000000E+00  0.00000000000E+00  0.37615323174E+04  0.37615323174E+04  0.00000000000E+00 0. -1.
         -1   -1    0    0    0  501 -0.00000000000E+00 -0.00000000000E+00 -0.35602498142E+02  0.35602498142E+02  0.00000000000E+00 0.  1.
          6    1    1    2  502    0  0.68390906955E+02 -0.21829964361E+03  0.30460645711E+04  0.30594812341E+04  0.17200000000E+03 0. -1.
         -6    1    1    2    0  501 -0.68390906955E+02  0.21829964361E+03  0.67986524821E+03  0.73765358149E+03  0.17200000000E+03 0.  1.
</event>
<event>
 4    1  0.3190379E-002  0.4799654E+03  0.7818608E-02  0.1019145E+00
         -2   -1    0    0    0  501 -0.00000000000E+00  0.00000000000E+00  0.14397044240E+03  0.14397044240E+03  0.00000000000E+00 0.  1.
          2   -1    0    0  502    0  0.00000000000E+00 -0.00000000000E+00 -0.19331209281E+04  0.19331209281E+04  0.00000000000E+00 0. -1.
          6    1    1    2  502    0  0.44778383881E+03  0.16506439140E+02 -0.46351982491E+03  0.66724617415E+03  0.17200000000E+03 0. -1.
         -6    1    1    2    0  501 -0.44778383881E+03 -0.16506439140E+02 -0.13256306608E+04  0.14098451964E+04  0.17200000000E+03 0.  1.
</event>
<event>
 4    1  0.3190379E-002  0.2489322E+03  0.7818608E-02  0.1113982E+00
         -1   -1    0    0    0  501 -0.00000000000E+00  0.00000000000E+00  0.55202831682E+02  0.55202831682E+02  0.00000000000E+00 0.  1.
          1   -1    0    0  502    0  0.00000000000E+00 -0.00000000000E+00 -0.16060948070E+04  0.16060948070E+04  0.00000000000E+00 0. -1.
          6    1    1    2  502    0 -0.11214999520E+03  0.14073239605E+03 -0.12312267606E+04  0.12561395483E+04  0.17200000000E+03 0. -1.
         -6    1    1    2    0  501  0.11214999520E+03 -0.14073239605E+03 -0.31966521472E+03  0.40515809040E+03  0.17200000000E+03 0.  1.
</event>
<event>
 4    1  0.3190379E-002  0.4237845E+03  0.7818608E-02  0.1035842E+00
         -1   -1    0    0    0  501 -0.00000000000E+00  0.00000000000E+00  0.97168603851E+02  0.97168603851E+02  0.00000000000E+00 0.  1.
          1   -1    0    0  502    0  0.00000000000E+00 -0.00000000000E+00 -0.18812484489E+04  0.18812484489E+04  0.00000000000E+00 0. -1.
          6    1    1    2  502    0 -0.38154523039E+03  0.66577531561E+02 -0.10230222619E+04  0.11073246492E+04  0.17200000000E+03 0. -1.
         -6    1    1    2    0  501  0.38154523039E+03 -0.66577531561E+02 -0.76105758320E+03  0.87109240353E+03  0.17200000000E+03 0.  1.
</event>
<event>
 4    1  0.3190379E-002  0.3498775E+03  0.7818608E-02  0.1062665E+00
         -1   -1    0    0    0  501 -0.00000000000E+00  0.00000000000E+00  0.25093242002E+03  0.25093242002E+03  0.00000000000E+00 0.  1.
          1   -1    0    0  502    0  0.00000000000E+00 -0.00000000000E+00 -0.12310794383E+04  0.12310794383E+04  0.00000000000E+00 0. -1.
          6    1    1    2  502    0 -0.24353048862E+03  0.18309337772E+03 -0.10658364420E+04  0.11217939226E+04  0.17200000000E+03 0. -1.
         -6    1    1    2    0  501  0.24353048862E+03 -0.18309337772E+03  0.85689423688E+02  0.36021793568E+03  0.17200000000E+03 0.  1.
</event>
<event>
 4    1  0.3190379E-002  0.1894030E+03  0.7818608E-02  0.1159001E+00
         -2   -1    0    0    0  501 -0.00000000000E+00  0.00000000000E+00  0.12072467007E+03  0.12072467007E+03  0.00000000000E+00 0.  1.
          2   -1    0    0  502    0  0.00000000000E+00 -0.00000000000E+00 -0.65736547826E+03  0.65736547826E+03  0.00000000000E+00 0. -1.
          6    1    1    2  502    0 -0.78629639821E+02 -0.10337802869E+02 -0.55631005866E+03  0.58766859010E+03  0.17200000000E+03 0. -1.
         -6    1    1    2    0  501  0.78629639821E+02  0.10337802869E+02  0.19669250465E+02  0.19042155823E+03  0.17200000000E+03 0.  1.
</event>
<event>
 4    1  0.3190379E-002  0.3575050E+03  0.7818608E-02  0.1059576E+00
         -2   -1    0    0    0  501 -0.00000000000E+00  0.00000000000E+00  0.22096497448E+03  0.22096497448E+03  0.00000000000E+00 0.  1.
          2   -1    0    0  502    0  0.00000000000E+00 -0.00000000000E+00 -0.97665791999E+03  0.97665791999E+03  0.00000000000E+00 0. -1.
          6    1    1    2  502    0  0.10870801214E+03  0.29395304284E+03 -0.76022366562E+03  0.84008918876E+03  0.17200000000E+03 0. -1.
         -6    1    1    2    0  501 -0.10870801214E+03 -0.29395304284E+03  0.45307201180E+01  0.35753370571E+03  0.17200000000E+03 0.  1.
</event>
<event>
 4    1  0.3190379E-002  0.1886657E+03  0.7818608E-02  0.1159670E+00
         -2   -1    0    0    0  501 -0.00000000000E+00  0.00000000000E+00  0.15938352242E+03  0.15938352242E+03  0.00000000000E+00 0.  1.
          2   -1    0    0  502    0  0.00000000000E+00 -0.00000000000E+00 -0.37461828347E+03  0.37461828347E+03  0.00000000000E+00 0. -1.
          6    1    1    2  502    0 -0.15910745963E+02 -0.75878721131E+02 -0.27729493814E+03  0.33539113715E+03  0.17200000000E+03 0. -1.
         -6    1    1    2    0  501  0.15910745963E+02  0.75878721131E+02  0.62060177087E+02  0.19861066874E+03  0.17200000000E+03 0.  1.
</event>
<event>
 4    1  0.3190379E-002  0.1765750E+03  0.7818608E-02  0.1171160E+00
          2   -1    0    0  502    0  0.00000000000E+00  0.00000000000E+00  0.14564230649E+04  0.14564230649E+04  0.00000000000E+00 0. -1.
         -2   -1    0    0    0  501 -0.00000000000E+00 -0.00000000000E+00 -0.21562762433E+02  0.21562762433E+02  0.00000000000E+00 0.  1.
          6    1    1    2  502    0  0.84766321741E+01  0.39024058149E+02  0.78008885450E+03  0.79982332507E+03  0.17200000000E+03 0.  1.
         -6    1    1    2    0  501 -0.84766321741E+01 -0.39024058149E+02  0.65477144799E+03  0.67816250229E+03  0.17200000000E+03 0.  1.
</event>
<event>
 4    1  0.3190379E-002  0.2857580E+03  0.7818608E-02  0.1092585E+00
         -2   -1    0    0    0  501 -0.00000000000E+00  0.00000000000E+00  0.32753053705E+02  0.32753053705E+02  0.00000000000E+00 0.  1.
          2   -1    0    0  502    0  0.00000000000E+00 -0.00000000000E+00 -0.31546076521E+04  0.31546076521E+04  0.00000000000E+00 0. -1.
          6    1    1    2  502    0 -0.18402468716E+03 -0.13493899233E+03 -0.83115702864E+03  0.87890819964E+03  0.17200000000E+03 0. -1.
         -6    1    1    2    0  501  0.18402468716E+03  0.13493899233E+03 -0.22906975697E+04  0.23084525061E+04  0.17200000000E+03 0. -1.
</event>
<event>
 4    1  0.3190379E-002  0.1729187E+03  0.7818608E-02  0.1174838E+00
         -2   -1    0    0    0  501 -0.00000000000E+00  0.00000000000E+00  0.18411642486E+02  0.18411642486E+02  0.00000000000E+00 0.  1.
          2   -1    0    0  502    0  0.00000000000E+00 -0.00000000000E+00 -0.18442873730E+04  0.18442873730E+04  0.00000000000E+00 0. -1.
          6    1    1    2  502    0  0.97989006939E+01  0.14861050567E+02 -0.12348029139E+04  0.12468516774E+04  0.17200000000E+03 0. -1.
         -6    1    1    2    0  501 -0.97989006939E+01 -0.14861050567E+02 -0.59107281665E+03  0.61584733812E+03  0.17200000000E+03 0.  1.
</event>
<event>
 4    1  0.3190379E-002  0.1933184E+03  0.7818608E-02  0.1155502E+00
         -2   -1    0    0    0  501 -0.00000000000E+00  0.00000000000E+00  0.96582075018E+02  0.96582075018E+02  0.00000000000E+00 0.  1.
          2   -1    0    0  502    0  0.00000000000E+00 -0.00000000000E+00 -0.49033624345E+03  0.49033624345E+03  0.00000000000E+00 0. -1.
          6    1    1    2  502    0 -0.88019626729E+02  0.63676346777E+01 -0.33163101842E+03  0.38386343123E+03  0.17200000000E+03 0. -1.
         -6    1    1    2    0  501  0.88019626729E+02 -0.63676346777E+01 -0.62123150010E+02  0.20305488723E+03  0.17200000000E+03 0.  1.
</event>
<event>
 4    1  0.3190379E-002  0.1747135E+03  0.7818608E-02  0.1173020E+00
         -1   -1    0    0    0  501 -0.00000000000E+00  0.00000000000E+00  0.86796368958E+02  0.86796368958E+02  0.00000000000E+00 0.  1.
          1   -1    0    0  502    0  0.00000000000E+00 -0.00000000000E+00 -0.35574224976E+03  0.35574224976E+03  0.00000000000E+00 0. -1.
          6    1    1    2  502    0 -0.24664159634E+02  0.18233965090E+02 -0.15810937656E+03  0.23563398144E+03  0.17200000000E+03 0. -1.
         -6    1    1    2    0  501  0.24664159634E+02 -0.18233965090E+02 -0.11083650424E+03  0.20690463727E+03  0.17200000000E+03 0. -1.
</event>
<event>
 4    1  0.3190379E-002  0.2979026E+03  0.7818608E-02  0.1086294E+00
          2   -1    0    0  502    0  0.00000000000E+00  0.00000000000E+00  0.22638782131E+04  0.22638782131E+04  0.00000000000E+00 0. -1.
         -2   -1    0    0    0  501 -0.00000000000E+00 -0.00000000000E+00 -0.49831471753E+02  0.49831471753E+02  0.00000000000E+00 0.  1.
          6    1    1    2  502    0 -0.22327791048E+03  0.96482961418E+02  0.16413490071E+04  0.16681644255E+04  0.17200000000E+03 0. -1.
         -6    1    1    2    0  501  0.22327791048E+03 -0.96482961418E+02  0.57269773423E+03  0.64554525941E+03  0.17200000000E+03 0.  1.
</event>
<event>
 4    1  0.3190379E-002  0.1930878E+03  0.7818608E-02  0.1155705E+00
         -1   -1    0    0    0  501 -0.00000000000E+00  0.00000000000E+00  0.72783016492E+02  0.72783016492E+02  0.00000000000E+00 0.  1.
          1   -1    0    0  502    0  0.00000000000E+00 -0.00000000000E+00 -0.51269179242E+03  0.51269179242E+03  0.00000000000E+00 0. -1.
          6    1    1    2  502    0 -0.41334019205E+02  0.77397547226E+02 -0.21133192513E+03  0.28625873618E+03  0.17200000000E+03 0. -1.
         -6    1    1    2    0  501  0.41334019205E+02 -0.77397547226E+02 -0.22857685080E+03  0.29921607273E+03  0.17200000000E+03 0.  1.
</event>
<event>
 4    1  0.3190379E-002  0.2728489E+03  0.7818608E-02  0.1099660E+00
          2   -1    0    0  502    0  0.00000000000E+00  0.00000000000E+00  0.61257880751E+03  0.61257880751E+03  0.00000000000E+00 0. -1.
         -2   -1    0    0    0  501 -0.00000000000E+00 -0.00000000000E+00 -0.21047324377E+03  0.21047324377E+03  0.00000000000E+00 0.  1.
          6    1    1    2  502    0  0.20642726549E+03 -0.47437350130E+02 -0.66467107150E+02  0.28082805141E+03  0.17200000000E+03 0.  1.
         -6    1    1    2    0  501 -0.20642726549E+03  0.47437350130E+02  0.46857267090E+03  0.54222399987E+03  0.17200000000E+03 0.  1.
</event>
<event>
 4    1  0.3190379E-002  0.5095376E+03  0.7818608E-02  0.1011319E+00
          2   -1    0    0  502    0  0.00000000000E+00  0.00000000000E+00  0.11138168978E+04  0.11138168978E+04  0.00000000000E+00 0. -1.
         -2   -1    0    0    0  501 -0.00000000000E+00 -0.00000000000E+00 -0.90980641244E+03  0.90980641244E+03  0.00000000000E+00 0.  1.
          6    1    1    2  502    0 -0.13319019608E+03 -0.46076559434E+03  0.97462682199E+03  0.10997845259E+04  0.17200000000E+03 0. -1.
         -6    1    1    2    0  501  0.13319019608E+03  0.46076559434E+03 -0.77061633660E+03  0.92383878436E+03  0.17200000000E+03 0.  1.
</event>
<event>
 4    1  0.3190379E-002  0.2512853E+03  0.7818608E-02  0.1112495E+00
         -2   -1    0    0    0  501 -0.00000000000E+00  0.00000000000E+00  0.31310599263E+02  0.31310599263E+02  0.00000000000E+00 0.  1.
          2   -1    0    0  502    0  0.00000000000E+00 -0.00000000000E+00 -0.21373307014E+04  0.21373307014E+04  0.00000000000E+00 0. -1.
          6    1    1    2  502    0  0.14523860693E+03 -0.11165155047E+03 -0.13106049255E+04  0.13344772731E+04  0.17200000000E+03 0. -1.
         -6    1    1    2    0  501 -0.14523860693E+03  0.11165155047E+03 -0.79541517666E+03  0.83416402759E+03  0.17200000000E+03 0.  1.
</event>
<event>
 4    1  0.3190379E-002  0.1925052E+03  0.7818608E-02  0.1156221E+00
         -1   -1    0    0    0  501 -0.00000000000E+00  0.00000000000E+00  0.37841473535E+02  0.37841473535E+02  0.00000000000E+00 0.  1.
          1   -1    0    0  502    0  0.00000000000E+00 -0.00000000000E+00 -0.98980030582E+03  0.98980030582E+03  0.00000000000E+00 0. -1.
          6    1    1    2  502    0 -0.85566939224E+02  0.12351923523E+02 -0.42306481846E+03  0.46480330434E+03  0.17200000000E+03 0. -1.
         -6    1    1    2    0  501  0.85566939224E+02 -0.12351923523E+02 -0.52889401382E+03  0.56283847502E+03  0.17200000000E+03 0. -1.
</event>
<event>
 4    1  0.3190379E-002  0.4365882E+03  0.7818608E-02  0.1031799E+00
          1   -1    0    0  502    0  0.00000000000E+00  0.00000000000E+00  0.69125247855E+03  0.69125247855E+03  0.00000000000E+00 0. -1.
         -1   -1    0    0    0  501 -0.00000000000E+00 -0.00000000000E+00 -0.77817773858E+03  0.77817773858E+03  0.00000000000E+00 0.  1.
          6    1    1    2  502    0 -0.21517590141E+03  0.33871023914E+03  0.54689966116E+03  0.69979177905E+03  0.17200000000E+03 0. -1.
         -6    1    1    2    0  501  0.21517590141E+03 -0.33871023914E+03 -0.63382492119E+03  0.76963843808E+03  0.17200000000E+03 0.  1.
</event>
<event>
 4    1  0.3190379E-002  0.2023453E+03  0.7818608E-02  0.1147775E+00
          2   -1    0    0  502    0  0.00000000000E+00  0.00000000000E+00  0.10556052000E+04  0.10556052000E+04  0.00000000000E+00 0. -1.
         -2   -1    0    0    0  501 -0.00000000000E+00 -0.00000000000E+00 -0.41403014800E+02  0.41403014800E+02  0.00000000000E+00 0.  1.
          6    1    1    2  502    0 -0.87252720078E+02  0.61209217890E+02  0.64497943694E+03  0.67597491048E+03  0.17200000000E+03 0. -1.
         -6    1    1    2    0  501  0.87252720078E+02 -0.61209217890E+02  0.36922274823E+03  0.42103330430E+03  0.17200000000E+03 0. -1.
</event>
<event>
 4    1  0.3190379E-002  0.2013684E+03  0.7818608E-02  0.1148590E+00
          1   -1    0    0  502    0  0.00000000000E+00  0.00000000000E+00  0.20589762058E+03  0.20589762058E+03  0.00000000000E+00 0. -1.
         -1   -1    0    0    0  501 -0.00000000000E+00 -0.00000000000E+00 -0.40787055422E+03  0.40787055422E+03  0.00000000000E+00 0.  1.
          6    1    1    2  502    0 -0.31808073216E+02 -0.99767059866E+02  0.11970433292E+03  0.23426127951E+03  0.17200000000E+03 0. -1.
         -6    1    1    2    0  501  0.31808073216E+02  0.99767059866E+02 -0.32167726656E+03  0.37950689530E+03  0.17200000000E+03 0.  1.
</event>
<event>
 4    1  0.3190379E-002  0.4381642E+03  0.7818608E-02  0.1031312E+00
          2   -1    0    0  502    0  0.00000000000E+00  0.00000000000E+00  0.11921417829E+04  0.11921417829E+04  0.00000000000E+00 0. -1.
         -2   -1    0    0    0  501 -0.00000000000E+00 -0.00000000000E+00 -0.17946804992E+03  0.17946804992E+03  0.00000000000E+00 0.  1.
          6    1    1    2  502    0  0.38653523775E+03 -0.11399301509E+03  0.28660477940E+03  0.52357444274E+03  0.17200000000E+03 0. -1.
         -6    1    1    2    0  501 -0.38653523775E+03  0.11399301509E+03  0.72606895362E+03  0.84803539013E+03  0.17200000000E+03 0.  1.
</event>
<event>
 4    1  0.3190379E-002  0.2262777E+03  0.7818608E-02  0.1129287E+00
         -2   -1    0    0    0  501 -0.00000000000E+00  0.00000000000E+00  0.28765555240E+03  0.28765555240E+03  0.00000000000E+00 0.  1.
          2   -1    0    0  502    0  0.00000000000E+00 -0.00000000000E+00 -0.18036536863E+03  0.18036536863E+03  0.00000000000E+00 0. -1.
          6    1    1    2  502    0 -0.30427770349E+02  0.14384630292E+03  0.80464710079E+02  0.24015865098E+03  0.17200000000E+03 0.  1.
         -6    1    1    2    0  501  0.30427770349E+02 -0.14384630292E+03  0.26825473691E+02  0.22786227005E+03  0.17200000000E+03 0. -1.
</event>
<event>
 4    1  0.3190379E-002  0.1953323E+03  0.7818608E-02  0.1153738E+00
          2   -1    0    0  502    0  0.00000000000E+00  0.00000000000E+00  0.61276864816E+02  0.61276864816E+02  0.00000000000E+00 0. -1.
         -2   -1    0    0    0  501 -0.00000000000E+00 -0.00000000000E+00 -0.89367629682E+03  0.89367629682E+03  0.00000000000E+00 0.  1.
          6    1    1    2  502    0  0.73233497577E+02  0.56635468733E+02 -0.15325844438E+03  0.24827982653E+03  0.17200000000E+03 0. -1.
         -6    1    1    2    0  501 -0.73233497577E+02 -0.56635468733E+02 -0.67914098762E+03  0.70667333511E+03  0.17200000000E+03 0.  1.
</event>
<event>
 4    1  0.3190379E-002  0.3296317E+03  0.7818608E-02  0.1071300E+00
         -2   -1    0    0    0  501 -0.00000000000E+00  0.00000000000E+00  0.19532453070E+03  0.19532453070E+03  0.00000000000E+00 0.  1.
          2   -1    0    0  502    0  0.00000000000E+00 -0.00000000000E+00 -0.57361276370E+03  0.57361276370E+03  0.00000000000E+00 0. -1.
          6    1    1    2  502    0 -0.26287607364E+03  0.99846028734E+02 -0.25595721823E+03  0.41733818075E+03  0.17200000000E+03 0. -1.
         -6    1    1    2    0  501  0.26287607364E+03 -0.99846028734E+02 -0.12233101478E+03  0.35159911365E+03  0.17200000000E+03 0.  1.
</event>
<event>
 4    1  0.3190379E-002  0.1896914E+03  0.7818608E-02  0.1158740E+00
          2   -1    0    0  502    0  0.00000000000E+00  0.00000000000E+00  0.11965102297E+04  0.11965102297E+04  0.00000000000E+00 0. -1.
         -2   -1    0    0    0  501 -0.00000000000E+00 -0.00000000000E+00 -0.42695073088E+02  0.42695073088E+02  0.00000000000E+00 0.  1.
          6    1    1    2  502    0  0.79245748484E+02  0.10906082212E+02  0.24001832574E+03  0.30592748810E+03  0.17200000000E+03 0.  1.
         -6    1    1    2    0  501 -0.79245748484E+02 -0.10906082212E+02  0.91379683084E+03  0.93327781466E+03  0.17200000000E+03 0. -1.
</event>
<event>
 4    1  0.3190379E-002  0.2434692E+03  0.7818608E-02  0.1117503E+00
         -4   -1    0    0    0  501 -0.00000000000E+00  0.00000000000E+00  0.76613963415E+03  0.76613963415E+03  0.00000000000E+00 0.  1.
          4   -1    0    0  502    0  0.00000000000E+00 -0.00000000000E+00 -0.77381913661E+02  0.77381913661E+02  0.00000000000E+00 0. -1.
          6    1    1    2  502    0 -0.11978508147E+03  0.12387406982E+03  0.34930875702E+03  0.42578616540E+03  0.17200000000E+03 0. -1.
         -6    1    1    2    0  501  0.11978508147E+03 -0.12387406982E+03  0.33944896347E+03  0.41773538241E+03  0.17200000000E+03 0.  1.
</event>
<event>
 4    1  0.3190379E-002  0.1877516E+03  0.7818608E-02  0.1160505E+00
         -1   -1    0    0    0  501 -0.00000000000E+00  0.00000000000E+00  0.30878292213E+02  0.30878292213E+02  0.00000000000E+00 0.  1.
          1   -1    0    0  502    0  0.00000000000E+00 -0.00000000000E+00 -0.11588656843E+04  0.11588656843E+04  0.00000000000E+00 0. -1.
          6    1    1    2  502    0 -0.74366815251E+02  0.11671611729E+02 -0.63660469166E+03  0.66371393173E+03  0.17200000000E+03 0. -1.
         -6    1    1    2    0  501  0.74366815251E+02 -0.11671611729E+02 -0.49138270039E+03  0.52603004475E+03  0.17200000000E+03 0.  1.
</event>
<event>
 4    1  0.3190379E-002  0.1937669E+03  0.7818608E-02  0.1155107E+00
         -2   -1    0    0    0  501 -0.00000000000E+00  0.00000000000E+00  0.47010115222E+02  0.47010115222E+02  0.00000000000E+00 0.  1.
          2   -1    0    0  502    0  0.00000000000E+00 -0.00000000000E+00 -0.86459737052E+03  0.86459737052E+03  0.00000000000E+00 0. -1.
          6    1    1    2  502    0  0.44718052240E+02  0.77213437261E+02 -0.53465726557E+03  0.56868621463E+03  0.17200000000E+03 0.  1.
         -6    1    1    2    0  501 -0.44718052240E+02 -0.77213437261E+02 -0.28292998973E+03  0.34292127111E+03  0.17200000000E+03 0.  1.
</event>
<event>
 4    1  0.3190379E-002  0.4539109E+03  0.7818608E-02  0.1026562E+00
         -2   -1    0    0    0  501 -0.00000000000E+00  0.00000000000E+00  0.14767294282E+04  0.14767294282E+04  0.00000000000E+00 0.  1.
          2   -1    0    0  502    0  0.00000000000E+00 -0.00000000000E+00 -0.13996505132E+03  0.13996505132E+03  0.00000000000E+00 0. -1.
          6    1    1    2  502    0  0.29845911956E+03 -0.29558973247E+03  0.71390010399E+03  0.84598374362E+03  0.17200000000E+03 0. -1.
         -6    1    1    2    0  501 -0.29845911956E+03  0.29558973247E+03  0.62286427288E+03  0.77071073590E+03  0.17200000000E+03 0.  1.
</event>
<event>
 4    1  0.3190379E-002  0.1927084E+03  0.7818608E-02  0.1156041E+00
         -2   -1    0    0    0  501 -0.00000000000E+00  0.00000000000E+00  0.76677212321E+02  0.76677212321E+02  0.00000000000E+00 0.  1.
          2   -1    0    0  502    0  0.00000000000E+00 -0.00000000000E+00 -0.54372217384E+03  0.54372217384E+03  0.00000000000E+00 0. -1.
          6    1    1    2  502    0 -0.86712363549E+02 -0.57862816868E+01 -0.33605086525E+03  0.38738443320E+03  0.17200000000E+03 0. -1.
         -6    1    1    2    0  501  0.86712363549E+02  0.57862816868E+01 -0.13099409627E+03  0.23301495297E+03  0.17200000000E+03 0.  1.
</event>
<event>
 4    1  0.3190379E-002  0.1746803E+03  0.7818608E-02  0.1173053E+00
         -1   -1    0    0    0  501 -0.00000000000E+00  0.00000000000E+00  0.39359992764E+02  0.39359992764E+02  0.00000000000E+00 0.  1.
          1   -1    0    0  502    0  0.00000000000E+00 -0.00000000000E+00 -0.99655007346E+03  0.99655007346E+03  0.00000000000E+00 0. -1.
          6    1    1    2  502    0  0.29092110971E+02 -0.91029274134E+01 -0.72268433607E+03  0.74349570530E+03  0.17200000000E+03 0. -1.
         -6    1    1    2    0  501 -0.29092110971E+02  0.91029274134E+01 -0.23450574463E+03  0.29241436092E+03  0.17200000000E+03 0.  1.
</event>
<event>
 4    1  0.3190379E-002  0.4142535E+03  0.7818608E-02  0.1038953E+00
          1   -1    0    0  502    0  0.00000000000E+00  0.00000000000E+00  0.23598968410E+03  0.23598968410E+03  0.00000000000E+00 0. -1.
         -1   -1    0    0    0  501 -0.00000000000E+00 -0.00000000000E+00 -0.86783876905E+03  0.86783876905E+03  0.00000000000E+00 0.  1.
          6    1    1    2  502    0 -0.27424739144E+03 -0.25847686963E+03 -0.93725404127E+02  0.42472388115E+03  0.17200000000E+03 0. -1.
         -6    1    1    2    0  501  0.27424739144E+03  0.25847686963E+03 -0.53812368083E+03  0.67910457200E+03  0.17200000000E+03 0.  1.
</event>
<event>
 4    1  0.3190379E-002  0.3168608E+03  0.7818608E-02  0.1077103E+00
         -1   -1    0    0    0  501 -0.00000000000E+00  0.00000000000E+00  0.12696041684E+03  0.12696041684E+03  0.00000000000E+00 0.  1.
          1   -1    0    0  502    0  0.00000000000E+00 -0.00000000000E+00 -0.11168331280E+04  0.11168331280E+04  0.00000000000E+00 0. -1.
          6    1    1    2  502    0  0.16036428692E+03 -0.21236780537E+03 -0.83094654327E+03  0.88931037723E+03  0.17200000000E+03 0. -1.
         -6    1    1    2    0  501 -0.16036428692E+03  0.21236780537E+03 -0.15892616788E+03  0.35448316760E+03  0.17200000000E+03 0. -1.
</event>
<event>
 4    1  0.3190379E-002  0.2333546E+03  0.7818608E-02  0.1124301E+00
          3   -1    0    0  502    0  0.00000000000E+00  0.00000000000E+00  0.24172818781E+03  0.24172818781E+03  0.00000000000E+00 0. -1.
         -3   -1    0    0    0  501 -0.00000000000E+00 -0.00000000000E+00 -0.11181883138E+04  0.11181883138E+04  0.00000000000E+00 0.  1.
          6    1    1    2  502    0 -0.44240332347E+02 -0.15137094506E+03  0.16938758034E+03  0.28835138700E+03  0.17200000000E+03 0. -1.
         -6    1    1    2    0  501  0.44240332347E+02  0.15137094506E+03 -0.10458477063E+04  0.10715651146E+04  0.17200000000E+03 0.  1.
</event>
<event>
 4    1  0.3190379E-002  0.1879368E+03  0.7818608E-02  0.1160335E+00
         -1   -1    0    0    0  501 -0.00000000000E+00  0.00000000000E+00  0.19684097818E+03  0.19684097818E+03  0.00000000000E+00 0.  1.
          1   -1    0    0  502    0  0.00000000000E+00 -0.00000000000E+00 -0.26638371474E+03  0.26638371474E+03  0.00000000000E+00 0. -1.
          6    1    1    2  502    0  0.13623181423E+02 -0.74502671684E+02 -0.16709531985E+03  0.25147780235E+03  0.17200000000E+03 0. -1.
         -6    1    1    2    0  501 -0.13623181423E+02  0.74502671684E+02  0.97552583292E+02  0.21174689057E+03  0.17200000000E+03 0.  1.
</event>
<event>
 4    1  0.3190379E-002  0.2287281E+03  0.7818608E-02  0.1127538E+00
         -2   -1    0    0    0  501 -0.00000000000E+00  0.00000000000E+00  0.21043029426E+03  0.21043029426E+03  0.00000000000E+00 0.  1.
          2   -1    0    0  502    0  0.00000000000E+00 -0.00000000000E+00 -0.41649566881E+03  0.41649566881E+03  0.00000000000E+00 0. -1.
          6    1    1    2  502    0  0.14891598651E+03  0.23591676941E+02 -0.30204449129E+03  0.37887651415E+03  0.17200000000E+03 0. -1.
         -6    1    1    2    0  501 -0.14891598651E+03 -0.23591676941E+02  0.95979116743E+02  0.24804944892E+03  0.17200000000E+03 0.  1.
</event>
<event>
 4    1  0.3190379E-002  0.3275810E+03  0.7818608E-02  0.1072212E+00
         -2   -1    0    0    0  501 -0.00000000000E+00  0.00000000000E+00  0.74886880675E+03  0.74886880675E+03  0.00000000000E+00 0.  1.
          2   -1    0    0  502    0  0.00000000000E+00 -0.00000000000E+00 -0.16017394022E+03  0.16017394022E+03  0.00000000000E+00 0. -1.
          6    1    1    2  502    0 -0.25209295348E+03 -0.11905644076E+03  0.44189382868E+03  0.55007222172E+03  0.17200000000E+03 0. -1.
         -6    1    1    2    0  501  0.25209295348E+03  0.11905644076E+03  0.14680103785E+03  0.35897052524E+03  0.17200000000E+03 0.  1.
</event>
<event>
 4    1  0.3190379E-002  0.3577258E+03  0.7818608E-02  0.1059488E+00
          1   -1    0    0  502    0  0.00000000000E+00  0.00000000000E+00  0.33388337699E+03  0.33388337699E+03  0.00000000000E+00 0. -1.
         -1   -1    0    0    0  501 -0.00000000000E+00 -0.00000000000E+00 -0.54205741052E+03  0.54205741052E+03  0.00000000000E+00 0.  1.
          6    1    1    2  502    0 -0.67909599601E+02  0.30622220582E+03  0.13295701938E+03  0.38163506398E+03  0.17200000000E+03 0. -1.
         -6    1    1    2    0  501  0.67909599601E+02 -0.30622220582E+03 -0.34113105291E+03  0.49430572353E+03  0.17200000000E+03 0.  1.
</event>
<event>
 4    1  0.3190379E-002  0.1855377E+03  0.7818608E-02  0.1162549E+00
          1   -1    0    0  502    0  0.00000000000E+00  0.00000000000E+00  0.86435669806E+03  0.86435669806E+03  0.00000000000E+00 0. -1.
         -1   -1    0    0    0  501 -0.00000000000E+00 -0.00000000000E+00 -0.50211061982E+02  0.50211061982E+02  0.00000000000E+00 0.  1.
          6    1    1    2  502    0  0.69198323397E+02 -0.71983325845E+01  0.61503394823E+03  0.64241029057E+03  0.17200000000E+03 0. -1.
         -6    1    1    2    0  501 -0.69198323397E+02  0.71983325845E+01  0.19911168785E+03  0.27215746947E+03  0.17200000000E+03 0.  1.
</event>
<event>
 4    1  0.3190379E-002  0.2202580E+03  0.7818608E-02  0.1133691E+00
          4   -1    0    0  502    0  0.00000000000E+00  0.00000000000E+00  0.32970195960E+03  0.32970195960E+03  0.00000000000E+00 0. -1.
         -4   -1    0    0    0  501 -0.00000000000E+00 -0.00000000000E+00 -0.16254865972E+03  0.16254865972E+03  0.00000000000E+00 0.  1.
          6    1    1    2  502    0  0.61576021192E+02  0.12303647559E+03  0.78071809368E+01  0.22039630846E+03  0.17200000000E+03 0.  1.
         -6    1    1    2    0  501 -0.61576021192E+02 -0.12303647559E+03  0.15934611894E+03  0.27185431086E+03  0.17200000000E+03 0.  1.
</event>
<event>
 4    1  0.3190379E-002  0.1930593E+03  0.7818608E-02  0.1155731E+00
          1   -1    0    0  502    0  0.00000000000E+00  0.00000000000E+00  0.27248510705E+03  0.27248510705E+03  0.00000000000E+00 0. -1.
         -1   -1    0    0    0  501 -0.00000000000E+00 -0.00000000000E+00 -0.13706297496E+03  0.13706297496E+03  0.00000000000E+00 0.  1.
          6    1    1    2  502    0 -0.62596999217E+02 -0.61396474798E+02  0.76930712301E+02  0.20782263092E+03  0.17200000000E+03 0.  1.
         -6    1    1    2    0  501  0.62596999217E+02  0.61396474798E+02  0.58491419791E+02  0.20172545109E+03  0.17200000000E+03 0.  1.
</event>
<event>
 4    1  0.3190379E-002  0.1961373E+03  0.7818608E-02  0.1153039E+00
         -2   -1    0    0    0  501 -0.00000000000E+00  0.00000000000E+00  0.42317063713E+03  0.42317063713E+03  0.00000000000E+00 0.  1.
          2   -1    0    0  502    0  0.00000000000E+00 -0.00000000000E+00 -0.11712309234E+03  0.11712309234E+03  0.00000000000E+00 0. -1.
          6    1    1    2  502    0  0.32693991269E+02  0.88413528629E+02  0.25218310779E+02  0.19775189584E+03  0.17200000000E+03 0. -1.
         -6    1    1    2    0  501 -0.32693991269E+02 -0.88413528629E+02  0.28082923401E+03  0.34254183363E+03  0.17200000000E+03 0.  1.
</event>
<event>
 4    1  0.3190379E-002  0.4636245E+03  0.7818608E-02  0.1023735E+00
          1   -1    0    0  502    0  0.00000000000E+00  0.00000000000E+00  0.14104942935E+04  0.14104942935E+04  0.00000000000E+00 0. -1.
         -1   -1    0    0    0  501 -0.00000000000E+00 -0.00000000000E+00 -0.48500619624E+03  0.48500619624E+03  0.00000000000E+00 0.  1.
          6    1    1    2  502    0 -0.67702570634E+02 -0.42518237276E+03  0.12476015587E+04  0.13309610578E+04  0.17200000000E+03 0. -1.
         -6    1    1    2    0  501  0.67702570634E+02  0.42518237276E+03 -0.32211346142E+03  0.56453943193E+03  0.17200000000E+03 0.  1.
</event>
<event>
 4    1  0.3190379E-002  0.2138298E+03  0.7818608E-02  0.1138569E+00
         -2   -1    0    0    0  501 -0.00000000000E+00  0.00000000000E+00  0.36129899803E+03  0.36129899803E+03  0.00000000000E+00 0.  1.
          2   -1    0    0  502    0  0.00000000000E+00 -0.00000000000E+00 -0.20896248243E+03  0.20896248243E+03  0.00000000000E+00 0. -1.
          6    1    1    2  502    0  0.40251778235E+02  0.12049474276E+03 -0.10289255121E+03  0.23729742050E+03  0.17200000000E+03 0. -1.
         -6    1    1    2    0  501 -0.40251778235E+02 -0.12049474276E+03  0.25522906680E+03  0.33296405996E+03  0.17200000000E+03 0.  1.
</event>
<event>
 4    1  0.3190379E-002  0.2899223E+03  0.7818608E-02  0.1090390E+00
          2   -1    0    0  502    0  0.00000000000E+00  0.00000000000E+00  0.87824184163E+03  0.87824184163E+03  0.00000000000E+00 0. -1.
         -2   -1    0    0    0  501 -0.00000000000E+00 -0.00000000000E+00 -0.10236947407E+03  0.10236947407E+03  0.00000000000E+00 0.  1.
          6    1    1    2  502    0  0.80870402871E+02  0.21893133408E+03  0.26286417524E+03  0.39134706556E+03  0.17200000000E+03 0.  1.
         -6    1    1    2    0  501 -0.80870402871E+02 -0.21893133408E+03  0.51300819232E+03  0.58926425013E+03  0.17200000000E+03 0. -1.
</event>
<event>
 4    1  0.3190379E-002  0.1878397E+03  0.7818608E-02  0.1160424E+00
         -2   -1    0    0    0  501 -0.00000000000E+00  0.00000000000E+00  0.12713882639E+03  0.12713882639E+03  0.00000000000E+00 0.  1.
          2   -1    0    0  502    0  0.00000000000E+00 -0.00000000000E+00 -0.34493660641E+03  0.34493660641E+03  0.00000000000E+00 0. -1.
          6    1    1    2  502    0 -0.70271076031E+02 -0.27599250026E+02 -0.45492980068E+01  0.18789475469E+03  0.17200000000E+03 0. -1.
         -6    1    1    2    0  501  0.70271076031E+02  0.27599250026E+02 -0.21324848201E+03  0.28418067810E+03  0.17200000000E+03 0. -1.
</event>
<event>
 4    1  0.3190379E-002  0.1824825E+03  0.7818608E-02  0.1165422E+00
         -2   -1    0    0    0  501 -0.00000000000E+00  0.00000000000E+00  0.21619763412E+03  0.21619763412E+03  0.00000000000E+00 0.  1.
          2   -1    0    0  502    0  0.00000000000E+00 -0.00000000000E+00 -0.50602049508E+03  0.50602049508E+03  0.00000000000E+00 0. -1.
          6    1    1    2  502    0  0.37287568796E+02  0.48223401735E+02 -0.44608914690E+03  0.48197031676E+03  0.17200000000E+03 0. -1.
         -6    1    1    2    0  501 -0.37287568796E+02 -0.48223401735E+02  0.15626628594E+03  0.24024781244E+03  0.17200000000E+03 0.  1.
</event>
<event>
 4    1  0.3190379E-002  0.1817600E+03  0.7818608E-02  0.1166110E+00
         -1   -1    0    0    0  501 -0.00000000000E+00  0.00000000000E+00  0.24931322091E+02  0.24931322091E+02  0.00000000000E+00 0.  1.
          1   -1    0    0  502    0  0.00000000000E+00 -0.00000000000E+00 -0.14331148546E+04  0.14331148546E+04  0.00000000000E+00 0. -1.
          6    1    1    2  502    0  0.33853177372E+02 -0.48027755156E+02 -0.90422801506E+03  0.92231502541E+03  0.17200000000E+03 0. -1.
         -6    1    1    2    0  501 -0.33853177372E+02  0.48027755156E+02 -0.50395551748E+03  0.53573115131E+03  0.17200000000E+03 0.  1.
</event>
<event>
 4    1  0.3190379E-002  0.1822195E+03  0.7818608E-02  0.1165672E+00
          2   -1    0    0  502    0  0.00000000000E+00  0.00000000000E+00  0.13609882964E+04  0.13609882964E+04  0.00000000000E+00 0. -1.
         -2   -1    0    0    0  501 -0.00000000000E+00 -0.00000000000E+00 -0.26375653054E+02  0.26375653054E+02  0.00000000000E+00 0.  1.
          6    1    1    2  502    0  0.14601027803E+02 -0.58367479348E+02  0.47730790647E+03  0.51090780992E+03  0.17200000000E+03 0.  1.
         -6    1    1    2    0  501 -0.14601027803E+02  0.58367479348E+02  0.85730473689E+03  0.87645613955E+03  0.17200000000E+03 0. -1.
</event>
<event>
 4    1  0.3190379E-002  0.2090291E+03  0.7818608E-02  0.1142337E+00
         -2   -1    0    0    0  501 -0.00000000000E+00  0.00000000000E+00  0.46148740484E+02  0.46148740484E+02  0.00000000000E+00 0.  1.
          2   -1    0    0  502    0  0.00000000000E+00 -0.00000000000E+00 -0.97368029313E+03  0.97368029313E+03  0.00000000000E+00 0. -1.
          6    1    1    2  502    0 -0.97953775811E+02 -0.67187989581E+02 -0.54850540966E+03  0.58698496792E+03  0.17200000000E+03 0. -1.
         -6    1    1    2    0  501  0.97953775811E+02  0.67187989581E+02 -0.37902614299E+03  0.43284406570E+03  0.17200000000E+03 0.  1.
</event>
<event>
 4    1  0.3190379E-002  0.8807213E+03  0.7818608E-02  0.9450007E-01
          2   -1    0    0  502    0  0.00000000000E+00  0.00000000000E+00  0.30431474675E+04  0.30431474675E+04  0.00000000000E+00 0. -1.
         -2   -1    0    0    0  501 -0.00000000000E+00 -0.00000000000E+00 -0.26642609274E+03  0.26642609274E+03  0.00000000000E+00 0.  1.
          6    1    1    2  502    0 -0.78110896196E+03  0.36872051449E+03  0.17326865227E+04  0.19436750279E+04  0.17200000000E+03 0. -1.
         -6    1    1    2    0  501  0.78110896196E+03 -0.36872051449E+03  0.10440348520E+04  0.13658985323E+04  0.17200000000E+03 0.  1.
</event>
<event>
 4    1  0.3190379E-002  0.1824423E+03  0.7818608E-02  0.1165460E+00
          2   -1    0    0  502    0  0.00000000000E+00  0.00000000000E+00  0.38230835197E+03  0.38230835197E+03  0.00000000000E+00 0. -1.
         -2   -1    0    0    0  501 -0.00000000000E+00 -0.00000000000E+00 -0.33357126034E+03  0.33357126034E+03  0.00000000000E+00 0.  1.
          6    1    1    2  502    0  0.23973947411E+02 -0.55914608788E+02  0.33207086900E+03  0.37888818360E+03  0.17200000000E+03 0. -1.
         -6    1    1    2    0  501 -0.23973947411E+02  0.55914608788E+02 -0.28333377737E+03  0.33699142872E+03  0.17200000000E+03 0.  1.
</event>
<event>
 4    1  0.3190379E-002  0.3326032E+03  0.7818608E-02  0.1069991E+00
         -2   -1    0    0    0  501 -0.00000000000E+00  0.00000000000E+00  0.15710266441E+04  0.15710266441E+04  0.00000000000E+00 0.  1.
          2   -1    0    0  502    0  0.00000000000E+00 -0.00000000000E+00 -0.71091778434E+02  0.71091778434E+02  0.00000000000E+00 0. -1.
          6    1    1    2  502    0  0.12420701774E+03  0.25615138587E+03  0.66989768394E+03  0.74792233733E+03  0.17200000000E+03 0.  1.
         -6    1    1    2    0  501 -0.12420701774E+03 -0.25615138587E+03  0.83003718174E+03  0.89419608521E+03  0.17200000000E+03 0.  1.
</event>
<event>
 4    1  0.3190379E-002  0.1898712E+03  0.7818608E-02  0.1158578E+00
         -2   -1    0    0    0  501 -0.00000000000E+00  0.00000000000E+00  0.12284592086E+03  0.12284592086E+03  0.00000000000E+00 0.  1.
          2   -1    0    0  502    0  0.00000000000E+00 -0.00000000000E+00 -0.10356013218E+04  0.10356013218E+04  0.00000000000E+00 0. -1.
          6    1    1    2  502    0 -0.70337232446E+02  0.38984080779E+02 -0.94671118981E+03  0.96556364976E+03  0.17200000000E+03 0. -1.
         -6    1    1    2    0  501  0.70337232446E+02 -0.38984080779E+02  0.33955788857E+02  0.19288359292E+03  0.17200000000E+03 0.  1.
</event>
<event>
 4    1  0.3190379E-002  0.2628564E+03  0.7818608E-02  0.1105439E+00
          2   -1    0    0  502    0  0.00000000000E+00  0.00000000000E+00  0.19195921120E+04  0.19195921120E+04  0.00000000000E+00 0. -1.
         -2   -1    0    0    0  501 -0.00000000000E+00 -0.00000000000E+00 -0.13379327078E+03  0.13379327078E+03  0.00000000000E+00 0.  1.
          6    1    1    2  502    0 -0.55062858957E+02  0.19099104967E+03  0.17706911593E+04  0.17900951598E+04  0.17200000000E+03 0. -1.
         -6    1    1    2    0  501  0.55062858957E+02 -0.19099104967E+03  0.15107681976E+02  0.26329022303E+03  0.17200000000E+03 0.  1.
</event>
<event>
 4    1  0.3190379E-002  0.1798046E+03  0.7818608E-02  0.1167992E+00
          1   -1    0    0  502    0  0.00000000000E+00  0.00000000000E+00  0.74513887335E+03  0.74513887335E+03  0.00000000000E+00 0. -1.
         -1   -1    0    0    0  501 -0.00000000000E+00 -0.00000000000E+00 -0.56305531442E+02  0.56305531442E+02  0.00000000000E+00 0.  1.
          6    1    1    2  502    0 -0.52024867833E+02  0.62527234108E+01  0.53635720883E+03  0.56569314905E+03  0.17200000000E+03 0. -1.
         -6    1    1    2    0  501  0.52024867833E+02 -0.62527234108E+01  0.15247613308E+03  0.23575125574E+03  0.17200000000E+03 0.  1.
</event>
<event>
 4    1  0.3190379E-002  0.2080222E+03  0.7818608E-02  0.1143142E+00
          1   -1    0    0  502    0  0.00000000000E+00  0.00000000000E+00  0.74136621504E+03  0.74136621504E+03  0.00000000000E+00 0. -1.
         -1   -1    0    0    0  501 -0.00000000000E+00 -0.00000000000E+00 -0.71003932731E+02  0.71003932731E+02  0.00000000000E+00 0.  1.
          6    1    1    2  502    0  0.43269129645E+02  0.10870607049E+03  0.50652140266E+03  0.54757388423E+03  0.17200000000E+03 0. -1.
         -6    1    1    2    0  501 -0.43269129645E+02 -0.10870607049E+03  0.16384087965E+03  0.26479626354E+03  0.17200000000E+03 0.  1.
</event>
<event>
 4    1  0.3190379E-002  0.2561812E+03  0.7818608E-02  0.1109460E+00
         -1   -1    0    0    0  501 -0.00000000000E+00  0.00000000000E+00  0.52473667137E+03  0.52473667137E+03  0.00000000000E+00 0.  1.
          1   -1    0    0  502    0  0.00000000000E+00 -0.00000000000E+00 -0.13536381991E+03  0.13536381991E+03  0.00000000000E+00 0. -1.
          6    1    1    2  502    0 -0.71789057780E+02  0.17575879643E+03  0.10367063911E+03  0.27636284981E+03  0.17200000000E+03 0. -1.
         -6    1    1    2    0  501  0.71789057780E+02 -0.17575879643E+03  0.28570221235E+03  0.38373764147E+03  0.17200000000E+03 0.  1.
</event>
<event>
 4    1  0.3190379E-002  0.1963031E+03  0.7818608E-02  0.1152896E+00
         -2   -1    0    0    0  501 -0.00000000000E+00  0.00000000000E+00  0.35200729363E+02  0.35200729363E+02  0.00000000000E+00 0.  1.
          2   -1    0    0  502    0  0.00000000000E+00 -0.00000000000E+00 -0.11175080815E+04  0.11175080815E+04  0.00000000000E+00 0. -1.
          6    1    1    2  502    0 -0.13925154281E+02 -0.93578872402E+02 -0.45884880928E+03  0.49907629182E+03  0.17200000000E+03 0.  1.
         -6    1    1    2    0  501  0.13925154281E+02  0.93578872402E+02 -0.62345854282E+03  0.65363251900E+03  0.17200000000E+03 0.  1.
</event>
<event>
 4    1  0.3190379E-002  0.2444595E+03  0.7818608E-02  0.1116857E+00
          2   -1    0    0  502    0  0.00000000000E+00  0.00000000000E+00  0.11663811085E+04  0.11663811085E+04  0.00000000000E+00 0. -1.
         -2   -1    0    0    0  501 -0.00000000000E+00 -0.00000000000E+00 -0.51246791550E+02  0.51246791550E+02  0.00000000000E+00 0.  1.
          6    1    1    2  502    0  0.10466135442E+03  0.13864498628E+03  0.54863777998E+03  0.60063620017E+03  0.17200000000E+03 0.  1.
         -6    1    1    2    0  501 -0.10466135442E+03 -0.13864498628E+03  0.56649653697E+03  0.61699169989E+03  0.17200000000E+03 0.  1.
</event>
<event>
 4    1  0.3190379E-002  0.3969478E+03  0.7818608E-02  0.1044842E+00
         -1   -1    0    0    0  501 -0.00000000000E+00  0.00000000000E+00  0.11738550508E+03  0.11738550508E+03  0.00000000000E+00 0.  1.
          1   -1    0    0  502    0  0.00000000000E+00 -0.00000000000E+00 -0.13577481321E+04  0.13577481321E+04  0.00000000000E+00 0. -1.
          6    1    1    2  502    0  0.19891347899E+03  0.29734996734E+03 -0.69883309530E+03  0.80370098313E+03  0.17200000000E+03 0. -1.
         -6    1    1    2    0  501 -0.19891347899E+03 -0.29734996734E+03 -0.54152953171E+03  0.67143265404E+03  0.17200000000E+03 0.  1.
</event>
<event>
 4    1  0.3190379E-002  0.2758571E+03  0.7818608E-02  0.1097973E+00
          2   -1    0    0  502    0  0.00000000000E+00  0.00000000000E+00  0.10630269305E+04  0.10630269305E+04  0.00000000000E+00 0. -1.
         -2   -1    0    0    0  501 -0.00000000000E+00 -0.00000000000E+00 -0.10606109235E+03  0.10606109235E+03  0.00000000000E+00 0.  1.
          6    1    1    2  502    0  0.15611474540E+03 -0.14879953187E+03  0.81175291844E+03  0.85734468856E+03  0.17200000000E+03 0. -1.
         -6    1    1    2    0  501 -0.15611474540E+03  0.14879953187E+03  0.14521291971E+03  0.31174333428E+03  0.17200000000E+03 0.  1.
</event>
<event>
 4    1  0.3190379E-002  0.2823626E+03  0.7818608E-02  0.1094405E+00
         -1   -1    0    0    0  501 -0.00000000000E+00  0.00000000000E+00  0.47650617541E+03  0.47650617541E+03  0.00000000000E+00 0.  1.
          1   -1    0    0  502    0  0.00000000000E+00 -0.00000000000E+00 -0.30251235292E+03  0.30251235292E+03  0.00000000000E+00 0. -1.
          6    1    1    2  502    0 -0.92354816032E+02 -0.20399814869E+03 -0.17339260810E+03  0.33135125359E+03  0.17200000000E+03 0. -1.
         -6    1    1    2    0  501  0.92354816032E+02  0.20399814869E+03  0.34738643059E+03  0.44766727474E+03  0.17200000000E+03 0.  1.
</event>
<event>
 4    1  0.3190379E-002  0.1852709E+03  0.7818608E-02  0.1162797E+00
          2   -1    0    0  502    0  0.00000000000E+00  0.00000000000E+00  0.53979099510E+03  0.53979099510E+03  0.00000000000E+00 0. -1.
         -2   -1    0    0    0  501 -0.00000000000E+00 -0.00000000000E+00 -0.66998052964E+02  0.66998052964E+02  0.00000000000E+00 0.  1.
          6    1    1    2  502    0 -0.46886079896E+02 -0.50428328243E+02  0.16796931835E+03  0.25007801319E+03  0.17200000000E+03 0.  1.
         -6    1    1    2    0  501  0.46886079896E+02  0.50428328243E+02  0.30482362379E+03  0.35671103487E+03  0.17200000000E+03 0. -1.
</event>
<event>
 4    1  0.3190379E-002  0.2026088E+03  0.7818608E-02  0.1147556E+00
         -1   -1    0    0    0  501 -0.00000000000E+00  0.00000000000E+00  0.14149628371E+03  0.14149628371E+03  0.00000000000E+00 0.  1.
          1   -1    0    0  502    0  0.00000000000E+00 -0.00000000000E+00 -0.37296210586E+03  0.37296210586E+03  0.00000000000E+00 0. -1.
          6    1    1    2  502    0  0.63408574039E+02 -0.86288255952E+02 -0.23696690857E+03  0.31177496072E+03  0.17200000000E+03 0. -1.
         -6    1    1    2    0  501 -0.63408574039E+02  0.86288255952E+02  0.55010864205E+01  0.20268342885E+03  0.17200000000E+03 0.  1.
</event>
<event>
 4    1  0.3190379E-002  0.5004377E+03  0.7818608E-02  0.1013665E+00
          1   -1    0    0  502    0  0.00000000000E+00  0.00000000000E+00  0.51041189297E+03  0.51041189297E+03  0.00000000000E+00 0. -1.
         -1   -1    0    0    0  501 -0.00000000000E+00 -0.00000000000E+00 -0.49210807680E+03  0.49210807680E+03  0.00000000000E+00 0.  1.
          6    1    1    2  502    0  0.22132143936E+03  0.41457295642E+03  0.36357533121E+02  0.50175669994E+03  0.17200000000E+03 0. -1.
         -6    1    1    2    0  501 -0.22132143936E+03 -0.41457295642E+03 -0.18053716942E+02  0.50076326983E+03  0.17200000000E+03 0.  1.
</event>
<event>
 4    1  0.3190379E-002  0.3071391E+03  0.7818608E-02  0.1081725E+00
         -2   -1    0    0    0  501 -0.00000000000E+00  0.00000000000E+00  0.13490773744E+03  0.13490773744E+03  0.00000000000E+00 0.  1.
          2   -1    0    0  502    0  0.00000000000E+00 -0.00000000000E+00 -0.17266363738E+04  0.17266363738E+04  0.00000000000E+00 0. -1.
          6    1    1    2  502    0  0.20867127655E+03 -0.14562519350E+03 -0.15138396752E+04  0.15446828026E+04  0.17200000000E+03 0. -1.
         -6    1    1    2    0  501 -0.20867127655E+03  0.14562519350E+03 -0.77888961230E+02  0.31686130865E+03  0.17200000000E+03 0.  1.
</event>
<event>
 4    1  0.3190379E-002  0.1821470E+03  0.7818608E-02  0.1165741E+00
         -2   -1    0    0    0  501 -0.00000000000E+00  0.00000000000E+00  0.32357222690E+02  0.32357222690E+02  0.00000000000E+00 0.  1.
          2   -1    0    0  502    0  0.00000000000E+00 -0.00000000000E+00 -0.20497940342E+04  0.20497940342E+04  0.00000000000E+00 0. -1.
          6    1    1    2  502    0  0.30493390614E+02  0.51610987217E+02 -0.17447066478E+04  0.17541889373E+04  0.17200000000E+03 0. -1.
         -6    1    1    2    0  501 -0.30493390614E+02 -0.51610987217E+02 -0.27273016371E+03  0.32796231959E+03  0.17200000000E+03 0.  1.
</event>
<event>
 4    1  0.3190379E-002  0.1930053E+03  0.7818608E-02  0.1155778E+00
         -1   -1    0    0    0  501 -0.00000000000E+00  0.00000000000E+00  0.14776713382E+03  0.14776713382E+03  0.00000000000E+00 0.  1.
          1   -1    0    0  502    0  0.00000000000E+00 -0.00000000000E+00 -0.31479923822E+03  0.31479923822E+03  0.00000000000E+00 0. -1.
          6    1    1    2  502    0 -0.78427883835E+02 -0.38937295186E+02 -0.18674058609E+03  0.26855742852E+03  0.17200000000E+03 0. -1.
         -6    1    1    2    0  501  0.78427883835E+02  0.38937295186E+02  0.19708481688E+02  0.19400894353E+03  0.17200000000E+03 0.  1.
</event>
<event>
 4    1  0.3190379E-002  0.1886728E+03  0.7818608E-02  0.1159664E+00
         -2   -1    0    0    0  501 -0.00000000000E+00  0.00000000000E+00  0.75480050604E+02  0.75480050604E+02  0.00000000000E+00 0.  1.
          2   -1    0    0  502    0  0.00000000000E+00 -0.00000000000E+00 -0.80137035170E+03  0.80137035170E+03  0.00000000000E+00 0. -1.
          6    1    1    2  502    0 -0.32053538044E+02  0.70611704688E+02 -0.64418413144E+03  0.67124558646E+03  0.17200000000E+03 0. -1.
         -6    1    1    2    0  501  0.32053538044E+02 -0.70611704688E+02 -0.81706169658E+02  0.20560481585E+03  0.17200000000E+03 0.  1.
</event>
<event>
 4    1  0.3190379E-002  0.2055444E+03  0.7818608E-02  0.1145144E+00
         -1   -1    0    0    0  501 -0.00000000000E+00  0.00000000000E+00  0.78281577082E+02  0.78281577082E+02  0.00000000000E+00 0.  1.
          1   -1    0    0  502    0  0.00000000000E+00 -0.00000000000E+00 -0.54996800574E+03  0.54996800574E+03  0.00000000000E+00 0. -1.
          6    1    1    2  502    0  0.66419478974E+02  0.90845843058E+02 -0.27876628721E+03  0.34635120509E+03  0.17200000000E+03 0. -1.
         -6    1    1    2    0  501 -0.66419478974E+02 -0.90845843058E+02 -0.19292014146E+03  0.28189837773E+03  0.17200000000E+03 0.  1.
</event>
<event>
 4    1  0.3190379E-002  0.3663833E+03  0.7818608E-02  0.1056085E+00
         -2   -1    0    0    0  501 -0.00000000000E+00  0.00000000000E+00  0.13995805312E+03  0.13995805312E+03  0.00000000000E+00 0.  1.
          2   -1    0    0  502    0  0.00000000000E+00 -0.00000000000E+00 -0.97570944966E+03  0.97570944966E+03  0.00000000000E+00 0. -1.
          6    1    1    2  502    0 -0.18341518095E+01  0.32349553253E+03 -0.49061111847E+03  0.61232017217E+03  0.17200000000E+03 0. -1.
         -6    1    1    2    0  501  0.18341518095E+01 -0.32349553253E+03 -0.34514027808E+03  0.50334733061E+03  0.17200000000E+03 0.  1.
</event>
<event>
 4    1  0.3190379E-002  0.2788661E+03  0.7818608E-02  0.1096310E+00
          2   -1    0    0  502    0  0.00000000000E+00  0.00000000000E+00  0.16330488271E+04  0.16330488271E+04  0.00000000000E+00 0. -1.
         -2   -1    0    0    0  501 -0.00000000000E+00 -0.00000000000E+00 -0.67872590645E+02  0.67872590645E+02  0.00000000000E+00 0.  1.
          6    1    1    2  502    0 -0.10431129936E+03 -0.19313582329E+03  0.31802578288E+03  0.42297363037E+03  0.17200000000E+03 0. -1.
         -6    1    1    2    0  501  0.10431129936E+03  0.19313582329E+03  0.12471504536E+04  0.12779477874E+04  0.17200000000E+03 0. -1.
</event>
<event>
 4    1  0.3190379E-002  0.2288006E+03  0.7818608E-02  0.1127487E+00
         -1   -1    0    0    0  501 -0.00000000000E+00  0.00000000000E+00  0.14063831118E+03  0.14063831118E+03  0.00000000000E+00 0.  1.
          1   -1    0    0  502    0  0.00000000000E+00 -0.00000000000E+00 -0.37494631519E+03  0.37494631519E+03  0.00000000000E+00 0. -1.
          6    1    1    2  502    0 -0.15055416924E+03  0.99581858747E+01 -0.95209877585E+02  0.24781978156E+03  0.17200000000E+03 0. -1.
         -6    1    1    2    0  501  0.15055416924E+03 -0.99581858747E+01 -0.13909812642E+03  0.26776484481E+03  0.17200000000E+03 0.  1.
</event>
<event>
 4    1  0.3190379E-002  0.2762670E+03  0.7818608E-02  0.1097745E+00
          1   -1    0    0  502    0  0.00000000000E+00  0.00000000000E+00  0.47576574921E+03  0.47576574921E+03  0.00000000000E+00 0. -1.
         -1   -1    0    0    0  501 -0.00000000000E+00 -0.00000000000E+00 -0.18490970496E+03  0.18490970496E+03  0.00000000000E+00 0.  1.
          6    1    1    2  502    0  0.75347713049E+02 -0.20263806258E+03  0.26564040638E+03  0.38326007850E+03  0.17200000000E+03 0. -1.
         -6    1    1    2    0  501 -0.75347713049E+02  0.20263806258E+03  0.25215637877E+02  0.27741537567E+03  0.17200000000E+03 0. -1.
</event>
<event>
 4    1  0.3190379E-002  0.1822175E+03  0.7818608E-02  0.1165674E+00
         -2   -1    0    0    0  501 -0.00000000000E+00  0.00000000000E+00  0.20314104069E+02  0.20314104069E+02  0.00000000000E+00 0.  1.
          2   -1    0    0  502    0  0.00000000000E+00 -0.00000000000E+00 -0.18108815522E+04  0.18108815522E+04  0.00000000000E+00 0. -1.
          6    1    1    2  502    0 -0.57820619510E+02  0.16613154916E+02 -0.11810410348E+04  0.11950151241E+04  0.17200000000E+03 0. -1.
         -6    1    1    2    0  501  0.57820619510E+02 -0.16613154916E+02 -0.60952641332E+03  0.63618053215E+03  0.17200000000E+03 0.  1.
</event>
<event>
 4    1  0.3190379E-002  0.1921969E+03  0.7818608E-02  0.1156495E+00
         -4   -1    0    0    0  501 -0.00000000000E+00  0.00000000000E+00  0.12073928797E+04  0.12073928797E+04  0.00000000000E+00 0.  1.
          4   -1    0    0  502    0  0.00000000000E+00 -0.00000000000E+00 -0.31228022923E+02  0.31228022923E+02  0.00000000000E+00 0. -1.
          6    1    1    2  502    0  0.46370695916E+02  0.72148402523E+02  0.67628933207E+03  0.70306962251E+03  0.17200000000E+03 0. -1.
         -6    1    1    2    0  501 -0.46370695916E+02 -0.72148402523E+02  0.49987552469E+03  0.53555128009E+03  0.17200000000E+03 0. -1.
</event>
<event>
 4    1  0.3190379E-002  0.2301816E+03  0.7818608E-02  0.1126512E+00
          1   -1    0    0  502    0  0.00000000000E+00  0.00000000000E+00  0.89562180918E+03  0.89562180918E+03  0.00000000000E+00 0. -1.
         -1   -1    0    0    0  501 -0.00000000000E+00 -0.00000000000E+00 -0.72112927127E+02  0.72112927127E+02  0.00000000000E+00 0.  1.
          6    1    1    2  502    0 -0.47982441854E+02 -0.14524889687E+03  0.61683783144E+03  0.65838625978E+03  0.17200000000E+03 0. -1.
         -6    1    1    2    0  501  0.47982441854E+02  0.14524889687E+03  0.20667105061E+03  0.30934847653E+03  0.17200000000E+03 0.  1.
</event>
<event>
 4    1  0.3190379E-002  0.1849592E+03  0.7818608E-02  0.1163088E+00
         -1   -1    0    0    0  501 -0.00000000000E+00  0.00000000000E+00  0.11677307164E+03  0.11677307164E+03  0.00000000000E+00 0.  1.
          1   -1    0    0  502    0  0.00000000000E+00 -0.00000000000E+00 -0.40229981781E+03  0.40229981781E+03  0.00000000000E+00 0. -1.
          6    1    1    2  502    0 -0.22859158488E+02 -0.64057388402E+02 -0.27806771634E+03  0.33396338872E+03  0.17200000000E+03 0. -1.
         -6    1    1    2    0  501  0.22859158488E+02  0.64057388402E+02 -0.74590298346E+01  0.18510950073E+03  0.17200000000E+03 0.  1.
</event>
<event>
 4    1  0.3190379E-002  0.2768264E+03  0.7818608E-02  0.1097435E+00
          2   -1    0    0  502    0  0.00000000000E+00  0.00000000000E+00  0.34977190282E+04  0.34977190282E+04  0.00000000000E+00 0. -1.
         -2   -1    0    0    0  501 -0.00000000000E+00 -0.00000000000E+00 -0.22210063208E+02  0.22210063208E+02  0.00000000000E+00 0.  1.
          6    1    1    2  502    0 -0.20966785552E+03  0.55571859478E+02  0.15329749607E+04  0.15577692613E+04  0.17200000000E+03 0. -1.
         -6    1    1    2    0  501  0.20966785552E+03 -0.55571859478E+02  0.19425340043E+04  0.19621598301E+04  0.17200000000E+03 0.  1.
</event>
<event>
 4    1  0.3190379E-002  0.1963323E+03  0.7818608E-02  0.1152871E+00
         -1   -1    0    0    0  501 -0.00000000000E+00  0.00000000000E+00  0.40589145883E+02  0.40589145883E+02  0.00000000000E+00 0.  1.
          1   -1    0    0  502    0  0.00000000000E+00 -0.00000000000E+00 -0.18287527762E+04  0.18287527762E+04  0.00000000000E+00 0. -1.
          6    1    1    2  502    0 -0.32148319184E+02 -0.89044027004E+02 -0.15421128083E+04  0.15545604738E+04  0.17200000000E+03 0. -1.
         -6    1    1    2    0  501  0.32148319184E+02  0.89044027004E+02 -0.24605082204E+03  0.31478144830E+03  0.17200000000E+03 0.  1.
</event>
<event>
 4    1  0.3190379E-002  0.2021188E+03  0.7818608E-02  0.1147964E+00
         -2   -1    0    0    0  501 -0.00000000000E+00  0.00000000000E+00  0.10693100967E+03  0.10693100967E+03  0.00000000000E+00 0.  1.
          2   -1    0    0  502    0  0.00000000000E+00 -0.00000000000E+00 -0.39546347829E+03  0.39546347829E+03  0.00000000000E+00 0. -1.
          6    1    1    2  502    0 -0.90649478684E+02  0.55232930970E+02 -0.19054500876E+03  0.27777581790E+03  0.17200000000E+03 0.  1.
         -6    1    1    2    0  501  0.90649478684E+02 -0.55232930970E+02 -0.97987459863E+02  0.22461867006E+03  0.17200000000E+03 0. -1.
</event>
<event>
 4    1  0.3190379E-002  0.3249707E+03  0.7818608E-02  0.1073384E+00
          1   -1    0    0  502    0  0.00000000000E+00  0.00000000000E+00  0.57109587420E+02  0.57109587420E+02  0.00000000000E+00 0. -1.
         -1   -1    0    0    0  501 -0.00000000000E+00 -0.00000000000E+00 -0.19203395776E+04  0.19203395776E+04  0.00000000000E+00 0.  1.
          6    1    1    2  502    0  0.25260768047E+03  0.11050469330E+03 -0.74128734069E+03  0.80939041811E+03  0.17200000000E+03 0. -1.
         -6    1    1    2    0  501 -0.25260768047E+03 -0.11050469330E+03 -0.11219426495E+04  0.11680587469E+04  0.17200000000E+03 0.  1.
</event>
<event>
 4    1  0.3190379E-002  0.4032536E+03  0.7818608E-02  0.1042659E+00
         -2   -1    0    0    0  501 -0.00000000000E+00  0.00000000000E+00  0.12684288538E+03  0.12684288538E+03  0.00000000000E+00 0.  1.
          2   -1    0    0  502    0  0.00000000000E+00 -0.00000000000E+00 -0.22614547429E+04  0.22614547429E+04  0.00000000000E+00 0. -1.
          6    1    1    2  502    0  0.29784601115E+03  0.21051661773E+03 -0.18531838562E+04  0.18965505260E+04  0.17200000000E+03 0. -1.
         -6    1    1    2    0  501 -0.29784601115E+03 -0.21051661773E+03 -0.28142800134E+03  0.49174710231E+03  0.17200000000E+03 0.  1.
</event>
<event>
 4    1  0.3190379E-002  0.3989076E+03  0.7818608E-02  0.1044159E+00
         -2   -1    0    0    0  501 -0.00000000000E+00  0.00000000000E+00  0.37356404789E+03  0.37356404789E+03  0.00000000000E+00 0.  1.
          2   -1    0    0  502    0  0.00000000000E+00 -0.00000000000E+00 -0.17617610815E+04  0.17617610815E+04  0.00000000000E+00 0. -1.
          6    1    1    2  502    0 -0.71189260730E+02  0.35281063618E+03 -0.16237704110E+04  0.16720519141E+04  0.17200000000E+03 0. -1.
         -6    1    1    2    0  501  0.71189260730E+02 -0.35281063618E+03  0.23557337741E+03  0.46327321527E+03  0.17200000000E+03 0.  1.
</event>
<event>
 4    1  0.3190379E-002  0.2917418E+03  0.7818608E-02  0.1089443E+00
         -2   -1    0    0    0  501 -0.00000000000E+00  0.00000000000E+00  0.65764036627E+03  0.65764036627E+03  0.00000000000E+00 0.  1.
          2   -1    0    0  502    0  0.00000000000E+00 -0.00000000000E+00 -0.13163617082E+03  0.13163617082E+03  0.00000000000E+00 0. -1.
          6    1    1    2  502    0 -0.23523165127E+03  0.13976852331E+02  0.31418143602E+03  0.42874614505E+03  0.17200000000E+03 0.  1.
         -6    1    1    2    0  501  0.23523165127E+03 -0.13976852331E+02  0.21182275943E+03  0.36053039203E+03  0.17200000000E+03 0. -1.
</event>
<event>
 4    1  0.3190379E-002  0.2047346E+03  0.7818608E-02  0.1145805E+00
          1   -1    0    0  502    0  0.00000000000E+00  0.00000000000E+00  0.63389413797E+02  0.63389413797E+02  0.00000000000E+00 0. -1.
         -1   -1    0    0    0  501 -0.00000000000E+00 -0.00000000000E+00 -0.75614962307E+03  0.75614962307E+03  0.00000000000E+00 0.  1.
          6    1    1    2  502    0  0.90010180445E+02 -0.65041567067E+02 -0.20121292122E+03  0.28705901431E+03  0.17200000000E+03 0. -1.
         -6    1    1    2    0  501 -0.90010180445E+02  0.65041567067E+02 -0.49154728805E+03  0.53248002256E+03  0.17200000000E+03 0.  1.
</event>
<event>
 4    1  0.3190379E-002  0.1956532E+03  0.7818608E-02  0.1153459E+00
          2   -1    0    0  502    0  0.00000000000E+00  0.00000000000E+00  0.22847496152E+03  0.22847496152E+03  0.00000000000E+00 0. -1.
         -2   -1    0    0    0  501 -0.00000000000E+00 -0.00000000000E+00 -0.29167663599E+03  0.29167663599E+03  0.00000000000E+00 0.  1.
          6    1    1    2  502    0 -0.83906283484E+02 -0.40692903722E+02  0.13806240450E+03  0.23946065305E+03  0.17200000000E+03 0. -1.
         -6    1    1    2    0  501  0.83906283484E+02  0.40692903722E+02 -0.20126407897E+03  0.28069094446E+03  0.17200000000E+03 0.  1.
</event>
<event>
 4    1  0.3190379E-002  0.2072165E+03  0.7818608E-02  0.1143789E+00
          2   -1    0    0  502    0  0.00000000000E+00  0.00000000000E+00  0.13356448966E+04  0.13356448966E+04  0.00000000000E+00 0. -1.
         -2   -1    0    0    0  501 -0.00000000000E+00 -0.00000000000E+00 -0.12584339748E+03  0.12584339748E+03  0.00000000000E+00 0.  1.
          6    1    1    2  502    0  0.76372786628E+02 -0.86728642716E+02  0.12354349582E+04  0.12526923788E+04  0.17200000000E+03 0. -1.
         -6    1    1    2    0  501 -0.76372786628E+02  0.86728642716E+02 -0.25633459075E+02  0.20879591526E+03  0.17200000000E+03 0.  1.
</event>
<event>
 4    1  0.3190379E-002  0.1955554E+03  0.7818608E-02  0.1153544E+00
         -2   -1    0    0    0  501 -0.00000000000E+00  0.00000000000E+00  0.11940016568E+03  0.11940016568E+03  0.00000000000E+00 0.  1.
          2   -1    0    0  502    0  0.00000000000E+00 -0.00000000000E+00 -0.37122464456E+03  0.37122464456E+03  0.00000000000E+00 0. -1.
          6    1    1    2  502    0  0.84657105042E+02  0.38614614027E+02 -0.21678528242E+03  0.29195508648E+03  0.17200000000E+03 0. -1.
         -6    1    1    2    0  501 -0.84657105042E+02 -0.38614614027E+02 -0.35039196458E+02  0.19866972376E+03  0.17200000000E+03 0.  1.
</event>
<event>
 4    1  0.3190379E-002  0.2101687E+03  0.7818608E-02  0.1141432E+00
         -1   -1    0    0    0  501 -0.00000000000E+00  0.00000000000E+00  0.71379268740E+02  0.71379268740E+02  0.00000000000E+00 0.  1.
          1   -1    0    0  502    0  0.00000000000E+00 -0.00000000000E+00 -0.16892161520E+04  0.16892161520E+04  0.00000000000E+00 0. -1.
          6    1    1    2  502    0  0.36288817187E+02 -0.11519547074E+03 -0.15096623889E+04  0.15242215728E+04  0.17200000000E+03 0. -1.
         -6    1    1    2    0  501 -0.36288817187E+02  0.11519547074E+03 -0.10817449437E+03  0.23637384788E+03  0.17200000000E+03 0.  1.
</event>
<event>
 4    1  0.3190379E-002  0.4558116E+03  0.7818608E-02  0.1026003E+00
          1   -1    0    0  502    0  0.00000000000E+00  0.00000000000E+00  0.15099365620E+04  0.15099365620E+04  0.00000000000E+00 0. -1.
         -1   -1    0    0    0  501 -0.00000000000E+00 -0.00000000000E+00 -0.16516618578E+03  0.16516618578E+03  0.00000000000E+00 0.  1.
          6    1    1    2  502    0  0.30369102454E+03 -0.29317565430E+03  0.33020470792E+03  0.56284931535E+03  0.17200000000E+03 0.  1.
         -6    1    1    2    0  501 -0.30369102454E+03  0.29317565430E+03  0.10145656683E+04  0.11122534324E+04  0.17200000000E+03 0. -1.
</event>
<event>
 4    1  0.3190379E-002  0.1874480E+03  0.7818608E-02  0.1160783E+00
         -1   -1    0    0    0  501 -0.00000000000E+00  0.00000000000E+00  0.28663399486E+02  0.28663399486E+02  0.00000000000E+00 0.  1.
          1   -1    0    0  502    0  0.00000000000E+00 -0.00000000000E+00 -0.18789260118E+04  0.18789260118E+04  0.00000000000E+00 0. -1.
          6    1    1    2  502    0  0.49903956607E+00 -0.74515239473E+02 -0.36280949342E+03  0.40837176503E+03  0.17200000000E+03 0.  1.
         -6    1    1    2    0  501 -0.49903956607E+00  0.74515239473E+02 -0.14874531189E+04  0.14992176462E+04  0.17200000000E+03 0. -1.
</event>
<event>
 4    1  0.3190379E-002  0.1876304E+03  0.7818608E-02  0.1160616E+00
         -1   -1    0    0    0  501 -0.00000000000E+00  0.00000000000E+00  0.46987333933E+02  0.46987333933E+02  0.00000000000E+00 0.  1.
          1   -1    0    0  502    0  0.00000000000E+00 -0.00000000000E+00 -0.10357958832E+04  0.10357958832E+04  0.00000000000E+00 0. -1.
          6    1    1    2  502    0 -0.59260947001E+02  0.45927312227E+02 -0.77916024631E+03  0.80143363249E+03  0.17200000000E+03 0. -1.
         -6    1    1    2    0  501  0.59260947001E+02 -0.45927312227E+02 -0.20964830295E+03  0.28134958464E+03  0.17200000000E+03 0.  1.
</event>
<event>
 4    1  0.3190379E-002  0.2139236E+03  0.7818608E-02  0.1138496E+00
          2   -1    0    0  502    0  0.00000000000E+00  0.00000000000E+00  0.12111129597E+04  0.12111129597E+04  0.00000000000E+00 0. -1.
         -2   -1    0    0    0  501 -0.00000000000E+00 -0.00000000000E+00 -0.43112040407E+02  0.43112040407E+02  0.00000000000E+00 0.  1.
          6    1    1    2  502    0  0.11948517771E+03  0.43618776764E+02  0.80441587479E+03  0.83237503867E+03  0.17200000000E+03 0.  1.
         -6    1    1    2    0  501 -0.11948517771E+03 -0.43618776764E+02  0.36358504448E+03  0.42184996141E+03  0.17200000000E+03 0.  1.
</event>
<event>
 4    1  0.3190379E-002  0.1855957E+03  0.7818608E-02  0.1162495E+00
          2   -1    0    0  502    0  0.00000000000E+00  0.00000000000E+00  0.12599007725E+03  0.12599007725E+03  0.00000000000E+00 0. -1.
         -2   -1    0    0    0  501 -0.00000000000E+00 -0.00000000000E+00 -0.34756850300E+03  0.34756850300E+03  0.00000000000E+00 0.  1.
          6    1    1    2  502    0  0.27612828767E+02  0.64025800001E+02 -0.14108783484E+01  0.18560108285E+03  0.17200000000E+03 0. -1.
         -6    1    1    2    0  501 -0.27612828767E+02 -0.64025800001E+02 -0.22016754741E+03  0.28795749740E+03  0.17200000000E+03 0.  1.
</event>
<event>
 4    1  0.3190379E-002  0.7430783E+03  0.7818608E-02  0.9646272E-01
         -2   -1    0    0    0  501 -0.00000000000E+00  0.00000000000E+00  0.11136893383E+04  0.11136893383E+04  0.00000000000E+00 0.  1.
          2   -1    0    0  502    0  0.00000000000E+00 -0.00000000000E+00 -0.51979384147E+03  0.51979384147E+03  0.00000000000E+00 0. -1.
          6    1    1    2  502    0 -0.17429887648E+03  0.70157061352E+03  0.47243000795E+03  0.88054275110E+03  0.17200000000E+03 0. -1.
         -6    1    1    2    0  501  0.17429887648E+03 -0.70157061352E+03  0.12146548884E+03  0.75294042864E+03  0.17200000000E+03 0.  1.
</event>
<event>
 4    1  0.3190379E-002  0.1808682E+03  0.7818608E-02  0.1166965E+00
          2   -1    0    0  502    0  0.00000000000E+00  0.00000000000E+00  0.20834131277E+04  0.20834131277E+04  0.00000000000E+00 0. -1.
         -2   -1    0    0    0  501 -0.00000000000E+00 -0.00000000000E+00 -0.16039796638E+02  0.16039796638E+02  0.00000000000E+00 0.  1.
          6    1    1    2  502    0 -0.10461782163E+02 -0.54953316494E+02  0.11860706018E+04  0.11997819753E+04  0.17200000000E+03 0. -1.
         -6    1    1    2    0  501  0.10461782163E+02  0.54953316494E+02  0.88130272929E+03  0.89967094903E+03  0.17200000000E+03 0. -1.
</event>
<event>
 4    1  0.3190379E-002  0.2300814E+03  0.7818608E-02  0.1126582E+00
         -2   -1    0    0    0  501 -0.00000000000E+00  0.00000000000E+00  0.37273158068E+02  0.37273158068E+02  0.00000000000E+00 0.  1.
          2   -1    0    0  502    0  0.00000000000E+00 -0.00000000000E+00 -0.19949639968E+04  0.19949639968E+04  0.00000000000E+00 0. -1.
          6    1    1    2  502    0 -0.40516082091E+01  0.15276466041E+03 -0.15242266281E+04  0.15414941682E+04  0.17200000000E+03 0. -1.
         -6    1    1    2    0  501  0.40516082091E+01 -0.15276466041E+03 -0.43346421067E+03  0.49074298664E+03  0.17200000000E+03 0.  1.
</event>
<event>
 4    1  0.3190379E-002  0.3672456E+03  0.7818608E-02  0.1055751E+00
         -2   -1    0    0    0  501 -0.00000000000E+00  0.00000000000E+00  0.10532556866E+03  0.10532556866E+03  0.00000000000E+00 0.  1.
          2   -1    0    0  502    0  0.00000000000E+00 -0.00000000000E+00 -0.15244128012E+04  0.15244128012E+04  0.00000000000E+00 0. -1.
          6    1    1    2  502    0 -0.32405760776E+03  0.16493336920E+02 -0.10354959760E+04  0.10986907115E+04  0.17200000000E+03 0. -1.
         -6    1    1    2    0  501  0.32405760776E+03 -0.16493336920E+02 -0.38359125655E+03  0.53104765833E+03  0.17200000000E+03 0.  1.
</event>
<event>
 4    1  0.3190379E-002  0.1924377E+03  0.7818608E-02  0.1156281E+00
          1   -1    0    0  502    0  0.00000000000E+00  0.00000000000E+00  0.44743106545E+02  0.44743106545E+02  0.00000000000E+00 0. -1.
         -1   -1    0    0    0  501 -0.00000000000E+00 -0.00000000000E+00 -0.83739454858E+03  0.83739454858E+03  0.00000000000E+00 0.  1.
          6    1    1    2  502    0  0.79058452928E+02 -0.34612562488E+02 -0.44387073862E+03  0.48379076166E+03  0.17200000000E+03 0. -1.
         -6    1    1    2    0  501 -0.79058452928E+02  0.34612562488E+02 -0.34878070342E+03  0.39834689347E+03  0.17200000000E+03 0.  1.
</event>
<event>
 4    1  0.3190379E-002  0.1812540E+03  0.7818608E-02  0.1166595E+00
          3   -1    0    0  502    0  0.00000000000E+00  0.00000000000E+00  0.20942067504E+03  0.20942067504E+03  0.00000000000E+00 0. -1.
         -3   -1    0    0    0  501 -0.00000000000E+00 -0.00000000000E+00 -0.16115778048E+03  0.16115778048E+03  0.00000000000E+00 0.  1.
          6    1    1    2  502    0 -0.36638653373E+02  0.43893424886E+02 -0.60715361437E+01  0.18135569255E+03  0.17200000000E+03 0.  1.
         -6    1    1    2    0  501  0.36638653373E+02 -0.43893424886E+02  0.54334430703E+02  0.18922276298E+03  0.17200000000E+03 0. -1.
</event>
<event>
 4    1  0.3190379E-002  0.2304237E+03  0.7818608E-02  0.1126342E+00
         -2   -1    0    0    0  501 -0.00000000000E+00  0.00000000000E+00  0.32887227434E+03  0.32887227434E+03  0.00000000000E+00 0.  1.
          2   -1    0    0  502    0  0.00000000000E+00 -0.00000000000E+00 -0.61185211187E+03  0.61185211187E+03  0.00000000000E+00 0. -1.
          6    1    1    2  502    0  0.10201853379E+03 -0.11446964050E+03 -0.54505293698E+03  0.59175821409E+03  0.17200000000E+03 0. -1.
         -6    1    1    2    0  501 -0.10201853379E+03  0.11446964050E+03  0.26207309944E+03  0.34896617212E+03  0.17200000000E+03 0.  1.
</event>
<event>
 4    1  0.3190379E-002  0.4612016E+03  0.7818608E-02  0.1024433E+00
         -2   -1    0    0    0  501 -0.00000000000E+00  0.00000000000E+00  0.16177362968E+03  0.16177362968E+03  0.00000000000E+00 0.  1.
          2   -1    0    0  502    0  0.00000000000E+00 -0.00000000000E+00 -0.13517325236E+04  0.13517325236E+04  0.00000000000E+00 0. -1.
          6    1    1    2  502    0 -0.21894410652E+03 -0.36767700195E+03 -0.71999419423E+03  0.85504300434E+03  0.17200000000E+03 0. -1.
         -6    1    1    2    0  501  0.21894410652E+03  0.36767700195E+03 -0.46996469968E+03  0.65846314892E+03  0.17200000000E+03 0. -1.
</event>
<event>
 4    1  0.3190379E-002  0.2403599E+03  0.7818608E-02  0.1119553E+00
         -1   -1    0    0    0  501 -0.00000000000E+00  0.00000000000E+00  0.57319063004E+02  0.57319063004E+02  0.00000000000E+00 0.  1.
          1   -1    0    0  502    0  0.00000000000E+00 -0.00000000000E+00 -0.13342081353E+04  0.13342081353E+04  0.00000000000E+00 0. -1.
          6    1    1    2  502    0 -0.13652278854E+03  0.97726287720E+02 -0.98251870700E+03  0.10114919222E+04  0.17200000000E+03 0. -1.
         -6    1    1    2    0  501  0.13652278854E+03 -0.97726287720E+02 -0.29437036527E+03  0.38003527606E+03  0.17200000000E+03 0.  1.
</event>
<event>
 4    1  0.3190379E-002  0.2798623E+03  0.7818608E-02  0.1095764E+00
         -1   -1    0    0    0  501 -0.00000000000E+00  0.00000000000E+00  0.41878478980E+03  0.41878478980E+03  0.00000000000E+00 0.  1.
          1   -1    0    0  502    0  0.00000000000E+00 -0.00000000000E+00 -0.19059765415E+03  0.19059765415E+03  0.00000000000E+00 0. -1.
          6    1    1    2  502    0 -0.10550646251E+02 -0.22051665743E+03  0.72373781637E+02  0.28906898244E+03  0.17200000000E+03 0. -1.
         -6    1    1    2    0  501  0.10550646251E+02  0.22051665743E+03  0.15581335401E+03  0.32031346151E+03  0.17200000000E+03 0.  1.
</event>
<event>
 4    1  0.3190379E-002  0.2391829E+03  0.7818608E-02  0.1120338E+00
         -1   -1    0    0    0  501 -0.00000000000E+00  0.00000000000E+00  0.44834620811E+03  0.44834620811E+03  0.00000000000E+00 0.  1.
          1   -1    0    0  502    0  0.00000000000E+00 -0.00000000000E+00 -0.13008622539E+03  0.13008622539E+03  0.00000000000E+00 0. -1.
          6    1    1    2  502    0  0.46036056994E+02  0.15970323446E+03  0.19912274748E+03  0.31122067766E+03  0.17200000000E+03 0. -1.
         -6    1    1    2    0  501 -0.46036056994E+02 -0.15970323446E+03  0.11913723524E+03  0.26721175584E+03  0.17200000000E+03 0.  1.
</event>
<event>
 4    1  0.3190379E-002  0.1757490E+03  0.7818608E-02  0.1171982E+00
         -4   -1    0    0    0  501 -0.00000000000E+00  0.00000000000E+00  0.56818844863E+02  0.56818844863E+02  0.00000000000E+00 0.  1.
          4   -1    0    0  502    0  0.00000000000E+00 -0.00000000000E+00 -0.69856418651E+03  0.69856418651E+03  0.00000000000E+00 0. -1.
          6    1    1    2  502    0 -0.16195777909E+02 -0.32270941836E+02 -0.49875190628E+03  0.52881110137E+03  0.17200000000E+03 0. -1.
         -6    1    1    2    0  501  0.16195777909E+02  0.32270941836E+02 -0.14299343537E+03  0.22657193001E+03  0.17200000000E+03 0.  1.
</event>
<event>
 4    1  0.3190379E-002  0.1776781E+03  0.7818608E-02  0.1170069E+00
         -2   -1    0    0    0  501 -0.00000000000E+00  0.00000000000E+00  0.10216648635E+03  0.10216648635E+03  0.00000000000E+00 0.  1.
          2   -1    0    0  502    0  0.00000000000E+00 -0.00000000000E+00 -0.56941977448E+03  0.56941977448E+03  0.00000000000E+00 0. -1.
          6    1    1    2  502    0  0.16973988029E+01 -0.44526674973E+02 -0.46071350690E+03  0.49378785059E+03  0.17200000000E+03 0. -1.
         -6    1    1    2    0  501 -0.16973988029E+01  0.44526674973E+02 -0.65397812234E+01  0.17779841024E+03  0.17200000000E+03 0.  1.
</event>
<event>
 4    1  0.3190379E-002  0.1984910E+03  0.7818608E-02  0.1151018E+00
          2   -1    0    0  502    0  0.00000000000E+00  0.00000000000E+00  0.91326715130E+03  0.91326715130E+03  0.00000000000E+00 0. -1.
         -2   -1    0    0    0  501 -0.00000000000E+00 -0.00000000000E+00 -0.58236363830E+02  0.58236363830E+02  0.00000000000E+00 0.  1.
          6    1    1    2  502    0  0.73095174957E+02  0.66871340604E+02  0.67482907501E+03  0.70341521257E+03  0.17200000000E+03 0. -1.
         -6    1    1    2    0  501 -0.73095174957E+02 -0.66871340604E+02  0.18020171246E+03  0.26808830256E+03  0.17200000000E+03 0.  1.
</event>
<event>
 4    1  0.3190379E-002  0.5070432E+03  0.7818608E-02  0.1011957E+00
         -2   -1    0    0    0  501 -0.00000000000E+00  0.00000000000E+00  0.11206619392E+03  0.11206619392E+03  0.00000000000E+00 0.  1.
          2   -1    0    0  502    0  0.00000000000E+00 -0.00000000000E+00 -0.23071925763E+04  0.23071925763E+04  0.00000000000E+00 0. -1.
          6    1    1    2  502    0  0.45311511447E+03 -0.14898171081E+03 -0.10064972124E+04  0.11270002199E+04  0.17200000000E+03 0. -1.
         -6    1    1    2    0  501 -0.45311511447E+03  0.14898171081E+03 -0.11886291700E+04  0.12922585503E+04  0.17200000000E+03 0. -1.
</event>
<event>
 4    1  0.3190379E-002  0.2139430E+03  0.7818608E-02  0.1138481E+00
          2   -1    0    0  502    0  0.00000000000E+00  0.00000000000E+00  0.20023069823E+04  0.20023069823E+04  0.00000000000E+00 0. -1.
         -2   -1    0    0    0  501 -0.00000000000E+00 -0.00000000000E+00 -0.25258667078E+02  0.25258667078E+02  0.00000000000E+00 0.  1.
          6    1    1    2  502    0 -0.10516823023E+03 -0.71604898730E+02  0.13009704017E+04  0.13184443880E+04  0.17200000000E+03 0. -1.
         -6    1    1    2    0  501  0.10516823023E+03  0.71604898730E+02  0.67607791346E+03  0.70912126130E+03  0.17200000000E+03 0.  1.
</event>
<event>
 4    1  0.3190379E-002  0.2022697E+03  0.7818608E-02  0.1147838E+00
         -2   -1    0    0    0  501 -0.00000000000E+00  0.00000000000E+00  0.24448624067E+02  0.24448624067E+02  0.00000000000E+00 0.  1.
          2   -1    0    0  502    0  0.00000000000E+00 -0.00000000000E+00 -0.17384240237E+04  0.17384240237E+04  0.00000000000E+00 0. -1.
          6    1    1    2  502    0  0.10507937779E+03  0.16951838470E+02 -0.68655512660E+03  0.71573108240E+03  0.17200000000E+03 0.  1.
         -6    1    1    2    0  501 -0.10507937779E+03 -0.16951838470E+02 -0.10274202731E+04  0.10471415654E+04  0.17200000000E+03 0.  1.
</event>
<event>
 4    1  0.3190379E-002  0.3386379E+03  0.7818608E-02  0.1067378E+00
         -1   -1    0    0    0  501 -0.00000000000E+00  0.00000000000E+00  0.44816378265E+03  0.44816378265E+03  0.00000000000E+00 0.  1.
          1   -1    0    0  502    0  0.00000000000E+00 -0.00000000000E+00 -0.26274785274E+03  0.26274785274E+03  0.00000000000E+00 0. -1.
          6    1    1    2  502    0  0.77832992208E+02 -0.28112929169E+03  0.15018064806E+03  0.37044551606E+03  0.17200000000E+03 0. -1.
         -6    1    1    2    0  501 -0.77832992208E+02  0.28112929169E+03  0.35235281861E+02  0.34046611933E+03  0.17200000000E+03 0.  1.
</event>
<event>
 4    1  0.3190379E-002  0.2124537E+03  0.7818608E-02  0.1139638E+00
          4   -1    0    0  502    0  0.00000000000E+00  0.00000000000E+00  0.57436007953E+03  0.57436007953E+03  0.00000000000E+00 0. -1.
         -4   -1    0    0    0  501 -0.00000000000E+00 -0.00000000000E+00 -0.78595793076E+02  0.78595793076E+02  0.00000000000E+00 0.  1.
          6    1    1    2  502    0  0.12016795032E+03 -0.33350047064E+02  0.25155846352E+03  0.32926922494E+03  0.17200000000E+03 0. -1.
         -6    1    1    2    0  501 -0.12016795032E+03  0.33350047064E+02  0.24420582293E+03  0.32368664767E+03  0.17200000000E+03 0. -1.
</event>
<event>
 4    1  0.3190379E-002  0.2055221E+03  0.7818608E-02  0.1145162E+00
          2   -1    0    0  502    0  0.00000000000E+00  0.00000000000E+00  0.19781121437E+04  0.19781121437E+04  0.00000000000E+00 0. -1.
         -2   -1    0    0    0  501 -0.00000000000E+00 -0.00000000000E+00 -0.51022703411E+02  0.51022703411E+02  0.00000000000E+00 0.  1.
          6    1    1    2  502    0  0.10818600117E+03 -0.30840111710E+02  0.17372101878E+04  0.17493251728E+04  0.17200000000E+03 0. -1.
         -6    1    1    2    0  501 -0.10818600117E+03  0.30840111710E+02  0.18987925240E+03  0.27980967430E+03  0.17200000000E+03 0.  1.
</event>
<event>
 4    1  0.3190379E-002  0.2054424E+03  0.7818608E-02  0.1145227E+00
          2   -1    0    0  502    0  0.00000000000E+00  0.00000000000E+00  0.20154979542E+04  0.20154979542E+04  0.00000000000E+00 0. -1.
         -2   -1    0    0    0  501 -0.00000000000E+00 -0.00000000000E+00 -0.27125586461E+02  0.27125586461E+02  0.00000000000E+00 0.  1.
          6    1    1    2  502    0  0.29067956462E+02  0.10852472502E+03  0.14818536282E+04  0.14960269842E+04  0.17200000000E+03 0. -1.
         -6    1    1    2    0  501 -0.29067956462E+02 -0.10852472502E+03  0.50651873953E+03  0.54659655645E+03  0.17200000000E+03 0.  1.
</event>
<event>
 4    1  0.3190379E-002  0.1915667E+03  0.7818608E-02  0.1157056E+00
          1   -1    0    0  502    0  0.00000000000E+00  0.00000000000E+00  0.17417882983E+03  0.17417882983E+03  0.00000000000E+00 0. -1.
         -1   -1    0    0    0  501 -0.00000000000E+00 -0.00000000000E+00 -0.21936207655E+03  0.21936207655E+03  0.00000000000E+00 0.  1.
          6    1    1    2  502    0  0.60209814069E+02 -0.59064093957E+02  0.16531479849E+02  0.19227864866E+03  0.17200000000E+03 0. -1.
         -6    1    1    2    0  501 -0.60209814069E+02  0.59064093957E+02 -0.61714726572E+02  0.20126225772E+03  0.17200000000E+03 0.  1.
</event>
<event>
 4    1  0.3190379E-002  0.2700481E+03  0.7818608E-02  0.1101252E+00
         -2   -1    0    0    0  501 -0.00000000000E+00  0.00000000000E+00  0.10486598859E+03  0.10486598859E+03  0.00000000000E+00 0.  1.
          2   -1    0    0  502    0  0.00000000000E+00 -0.00000000000E+00 -0.76078253813E+03  0.76078253813E+03  0.00000000000E+00 0. -1.
          6    1    1    2  502    0  0.20381438334E+03 -0.42446110358E+02 -0.45482378997E+03  0.52895241286E+03  0.17200000000E+03 0. -1.
         -6    1    1    2    0  501 -0.20381438334E+03  0.42446110358E+02 -0.20109275957E+03  0.33669611386E+03  0.17200000000E+03 0. -1.
</event>
<event>
 4    1  0.3190379E-002  0.1735186E+03  0.7818608E-02  0.1174227E+00
         -2   -1    0    0    0  501 -0.00000000000E+00  0.00000000000E+00  0.14987221525E+02  0.14987221525E+02  0.00000000000E+00 0.  1.
          2   -1    0    0  502    0  0.00000000000E+00 -0.00000000000E+00 -0.30402821422E+04  0.30402821422E+04  0.00000000000E+00 0. -1.
          6    1    1    2  502    0 -0.19511145689E+02  0.12000645979E+02 -0.24023813502E+04  0.24086396269E+04  0.17200000000E+03 0. -1.
         -6    1    1    2    0  501  0.19511145689E+02 -0.12000645979E+02 -0.62291357043E+03  0.64662973682E+03  0.17200000000E+03 0.  1.
</event>
<event>
 4    1  0.3190379E-002  0.1997543E+03  0.7818608E-02  0.1149946E+00
          2   -1    0    0  502    0  0.00000000000E+00  0.00000000000E+00  0.12309158755E+03  0.12309158755E+03  0.00000000000E+00 0. -1.
         -2   -1    0    0    0  501 -0.00000000000E+00 -0.00000000000E+00 -0.33751874585E+03  0.33751874585E+03  0.00000000000E+00 0.  1.
          6    1    1    2  502    0 -0.86218018417E+01 -0.10120986018E+03 -0.15302612746E+03  0.25163220571E+03  0.17200000000E+03 0.  1.
         -6    1    1    2    0  501  0.86218018417E+01  0.10120986018E+03 -0.61401030835E+02  0.20897812769E+03  0.17200000000E+03 0.  1.
</event>
<event>
 4    1  0.3190379E-002  0.1891738E+03  0.7818608E-02  0.1159209E+00
          2   -1    0    0  502    0  0.00000000000E+00  0.00000000000E+00  0.82376129717E+03  0.82376129717E+03  0.00000000000E+00 0. -1.
         -2   -1    0    0    0  501 -0.00000000000E+00 -0.00000000000E+00 -0.15017871303E+03  0.15017871303E+03  0.00000000000E+00 0.  1.
          6    1    1    2  502    0 -0.62524954099E+02 -0.47888958788E+02  0.74732871486E+03  0.77090007804E+03  0.17200000000E+03 0. -1.
         -6    1    1    2    0  501  0.62524954099E+02  0.47888958788E+02 -0.73746130722E+02  0.20303993217E+03  0.17200000000E+03 0.  1.
</event>
<event>
 4    1  0.3190379E-002  0.2088696E+03  0.7818608E-02  0.1142464E+00
          1   -1    0    0  502    0  0.00000000000E+00  0.00000000000E+00  0.91922404221E+03  0.91922404221E+03  0.00000000000E+00 0. -1.
         -1   -1    0    0    0  501 -0.00000000000E+00 -0.00000000000E+00 -0.54273799635E+02  0.54273799635E+02  0.00000000000E+00 0.  1.
          6    1    1    2  502    0 -0.65169662692E+02  0.98971903727E+02  0.26001075539E+03  0.33351479065E+03  0.17200000000E+03 0.  1.
         -6    1    1    2    0  501  0.65169662692E+02 -0.98971903727E+02  0.60493948718E+03  0.63998305120E+03  0.17200000000E+03 0. -1.
</event>
<event>
 4    1  0.3190379E-002  0.2158541E+03  0.7818608E-02  0.1137012E+00
         -1   -1    0    0    0  501 -0.00000000000E+00  0.00000000000E+00  0.84225495196E+02  0.84225495196E+02  0.00000000000E+00 0.  1.
          1   -1    0    0  502    0  0.00000000000E+00 -0.00000000000E+00 -0.56641688929E+03  0.56641688929E+03  0.00000000000E+00 0. -1.
          6    1    1    2  502    0  0.92870674269E+02  0.91564334084E+02 -0.19138875728E+03  0.28848335451E+03  0.17200000000E+03 0. -1.
         -6    1    1    2    0  501 -0.92870674269E+02 -0.91564334084E+02 -0.29080263681E+03  0.36215902997E+03  0.17200000000E+03 0. -1.
</event>
<event>
 4    1  0.3190379E-002  0.2227771E+03  0.7818608E-02  0.1131829E+00
          3   -1    0    0  502    0  0.00000000000E+00  0.00000000000E+00  0.12754872546E+04  0.12754872546E+04  0.00000000000E+00 0. -1.
         -3   -1    0    0    0  501 -0.00000000000E+00 -0.00000000000E+00 -0.59480876907E+02  0.59480876907E+02  0.00000000000E+00 0.  1.
          6    1    1    2  502    0  0.38943944981E+02  0.13612122734E+03  0.10005353345E+04  0.10250368652E+04  0.17200000000E+03 0. -1.
         -6    1    1    2    0  501 -0.38943944981E+02 -0.13612122734E+03  0.21547104312E+03  0.30993126626E+03  0.17200000000E+03 0.  1.
</event>
<event>
 4    1  0.3190379E-002  0.3650599E+03  0.7818608E-02  0.1056598E+00
         -2   -1    0    0    0  501 -0.00000000000E+00  0.00000000000E+00  0.12806533027E+03  0.12806533027E+03  0.00000000000E+00 0.  1.
          2   -1    0    0  502    0  0.00000000000E+00 -0.00000000000E+00 -0.10631449619E+04  0.10631449619E+04  0.00000000000E+00 0. -1.
          6    1    1    2  502    0  0.23281595497E+03 -0.22244424413E+03 -0.38086531863E+03  0.52756715361E+03  0.17200000000E+03 0. -1.
         -6    1    1    2    0  501 -0.23281595497E+03  0.22244424413E+03 -0.55421431301E+03  0.66364313858E+03  0.17200000000E+03 0.  1.
</event>
<event>
 4    1  0.3190379E-002  0.2546633E+03  0.7818608E-02  0.1110393E+00
          2   -1    0    0  502    0  0.00000000000E+00  0.00000000000E+00  0.22208249431E+04  0.22208249431E+04  0.00000000000E+00 0. -1.
         -2   -1    0    0    0  501 -0.00000000000E+00 -0.00000000000E+00 -0.61108141513E+02  0.61108141513E+02  0.00000000000E+00 0.  1.
          6    1    1    2  502    0 -0.18614758724E+03 -0.24869288268E+02  0.19042960784E+04  0.19212488022E+04  0.17200000000E+03 0. -1.
         -6    1    1    2    0  501  0.18614758724E+03  0.24869288268E+02  0.25542072312E+03  0.36068428235E+03  0.17200000000E+03 0.  1.
</event>
<event>
 4    1  0.3190379E-002  0.2390634E+03  0.7818608E-02  0.1120418E+00
         -1   -1    0    0    0  501 -0.00000000000E+00  0.00000000000E+00  0.75883364524E+03  0.75883364524E+03  0.00000000000E+00 0.  1.
          1   -1    0    0  502    0  0.00000000000E+00 -0.00000000000E+00 -0.79273259935E+02  0.79273259935E+02  0.00000000000E+00 0. -1.
          6    1    1    2  502    0 -0.73702865063E+02 -0.14877909671E+03  0.24613738709E+03  0.34312526176E+03  0.17200000000E+03 0. -1.
         -6    1    1    2    0  501  0.73702865063E+02  0.14877909671E+03  0.43342299822E+03  0.49498164341E+03  0.17200000000E+03 0.  1.
</event>
<event>
 4    1  0.3190379E-002  0.6157240E+03  0.7818608E-02  0.9873310E-01
          1   -1    0    0  502    0  0.00000000000E+00  0.00000000000E+00  0.12359036350E+04  0.12359036350E+04  0.00000000000E+00 0. -1.
         -1   -1    0    0    0  501 -0.00000000000E+00 -0.00000000000E+00 -0.30955089126E+03  0.30955089126E+03  0.00000000000E+00 0.  1.
          6    1    1    2  502    0 -0.42141445571E+03 -0.41465879201E+03  0.53665213241E+03  0.81676898111E+03  0.17200000000E+03 0. -1.
         -6    1    1    2    0  501  0.42141445571E+03  0.41465879201E+03  0.38970061137E+03  0.72868554519E+03  0.17200000000E+03 0.  1.
</event>
<event>
 4    1  0.3190379E-002  0.3139299E+03  0.7818608E-02  0.1078477E+00
          2   -1    0    0  502    0  0.00000000000E+00  0.00000000000E+00  0.14912853518E+04  0.14912853518E+04  0.00000000000E+00 0. -1.
         -2   -1    0    0    0  501 -0.00000000000E+00 -0.00000000000E+00 -0.77655241278E+02  0.77655241278E+02  0.00000000000E+00 0.  1.
          6    1    1    2  502    0 -0.25881953524E+03 -0.44501714470E+02  0.40401373113E+03  0.51164347876E+03  0.17200000000E+03 0.  1.
         -6    1    1    2    0  501  0.25881953524E+03  0.44501714470E+02  0.10096163794E+04  0.10572971144E+04  0.17200000000E+03 0. -1.
</event>
<event>
 4    1  0.3190379E-002  0.3502167E+03  0.7818608E-02  0.1062526E+00
          2   -1    0    0  502    0  0.00000000000E+00  0.00000000000E+00  0.17231241869E+04  0.17231241869E+04  0.00000000000E+00 0. -1.
         -2   -1    0    0    0  501 -0.00000000000E+00 -0.00000000000E+00 -0.76247293251E+02  0.76247293251E+02  0.00000000000E+00 0.  1.
          6    1    1    2  502    0 -0.30474785605E+03  0.14017020384E+02  0.10553769143E+04  0.11119676991E+04  0.17200000000E+03 0. -1.
         -6    1    1    2    0  501  0.30474785605E+03 -0.14017020384E+02  0.59149997940E+03  0.68740378109E+03  0.17200000000E+03 0.  1.
</event>
<event>
 4    1  0.3190379E-002  0.3769009E+03  0.7818608E-02  0.1052085E+00
         -1   -1    0    0    0  501 -0.00000000000E+00  0.00000000000E+00  0.55250049341E+03  0.55250049341E+03  0.00000000000E+00 0.  1.
          1   -1    0    0  502    0  0.00000000000E+00 -0.00000000000E+00 -0.25715652968E+03  0.25715652968E+03  0.00000000000E+00 0. -1.
          6    1    1    2  502    0 -0.29733909044E+03 -0.15511199782E+03  0.15302510970E+03  0.40678120750E+03  0.17200000000E+03 0. -1.
         -6    1    1    2    0  501  0.29733909044E+03  0.15511199782E+03  0.14231885404E+03  0.40287581559E+03  0.17200000000E+03 0.  1.
</event>
<event>
 4    1  0.3190379E-002  0.2068225E+03  0.7818608E-02  0.1144107E+00
         -2   -1    0    0    0  501 -0.00000000000E+00  0.00000000000E+00  0.33919540611E+02  0.33919540611E+02  0.00000000000E+00 0.  1.
          2   -1    0    0  502    0  0.00000000000E+00 -0.00000000000E+00 -0.16720210925E+04  0.16720210925E+04  0.00000000000E+00 0. -1.
          6    1    1    2  502    0 -0.54487082815E+02 -0.10110732499E+03 -0.39618895087E+03  0.44692417495E+03  0.17200000000E+03 0.  1.
         -6    1    1    2    0  501  0.54487082815E+02  0.10110732499E+03 -0.12419126011E+04  0.12590164582E+04  0.17200000000E+03 0.  1.
</event>
<event>
 4    1  0.3190379E-002  0.2055924E+03  0.7818608E-02  0.1145105E+00
         -2   -1    0    0    0  501 -0.00000000000E+00  0.00000000000E+00  0.20678579924E+03  0.20678579924E+03  0.00000000000E+00 0.  1.
          2   -1    0    0  502    0  0.00000000000E+00 -0.00000000000E+00 -0.24345419161E+03  0.24345419161E+03  0.00000000000E+00 0. -1.
          6    1    1    2  502    0  0.10680547145E+03 -0.35732649641E+02  0.71824294920E+02  0.21777731820E+03  0.17200000000E+03 0.  1.
         -6    1    1    2    0  501 -0.10680547145E+03  0.35732649641E+02 -0.10849268728E+03  0.23246267265E+03  0.17200000000E+03 0. -1.
</event>
<event>
 4    1  0.3190379E-002  0.2420730E+03  0.7818608E-02  0.1118420E+00
          2   -1    0    0  502    0  0.00000000000E+00  0.00000000000E+00  0.15151240150E+04  0.15151240150E+04  0.00000000000E+00 0. -1.
         -2   -1    0    0    0  501 -0.00000000000E+00 -0.00000000000E+00 -0.48726732753E+02  0.48726732753E+02  0.00000000000E+00 0.  1.
          6    1    1    2  502    0 -0.12617211881E+03  0.11443746423E+03  0.37807890131E+03  0.44893539892E+03  0.17200000000E+03 0. -1.
         -6    1    1    2    0  501  0.12617211881E+03 -0.11443746423E+03  0.10883183810E+04  0.11149153489E+04  0.17200000000E+03 0.  1.
</event>
<event>
 4    1  0.3190379E-002  0.2331751E+03  0.7818608E-02  0.1124425E+00
          2   -1    0    0  502    0  0.00000000000E+00  0.00000000000E+00  0.32933840282E+04  0.32933840282E+04  0.00000000000E+00 0. -1.
         -2   -1    0    0    0  501 -0.00000000000E+00 -0.00000000000E+00 -0.31914476967E+02  0.31914476967E+02  0.00000000000E+00 0.  1.
          6    1    1    2  502    0  0.15260840462E+03 -0.38694857596E+02  0.27858990526E+04  0.27956402037E+04  0.17200000000E+03 0. -1.
         -6    1    1    2    0  501 -0.15260840462E+03  0.38694857596E+02  0.47557049865E+03  0.52965830151E+03  0.17200000000E+03 0.  1.
</event>
<event>
 4    1  0.3190379E-002  0.3794343E+03  0.7818608E-02  0.1051143E+00
         -1   -1    0    0    0  501 -0.00000000000E+00  0.00000000000E+00  0.25995144612E+03  0.25995144612E+03  0.00000000000E+00 0.  1.
          1   -1    0    0  502    0  0.00000000000E+00 -0.00000000000E+00 -0.68094637442E+03  0.68094637442E+03  0.00000000000E+00 0. -1.
          6    1    1    2  502    0 -0.32367150150E+03  0.98097734086E+02 -0.41375512468E+03  0.56139443310E+03  0.17200000000E+03 0. -1.
         -6    1    1    2    0  501  0.32367150150E+03 -0.98097734086E+02 -0.72398036235E+01  0.37950338744E+03  0.17200000000E+03 0.  1.
</event>
<event>
 4    1  0.3190379E-002  0.1870213E+03  0.7818608E-02  0.1161176E+00
          1   -1    0    0  502    0  0.00000000000E+00  0.00000000000E+00  0.31757780077E+03  0.31757780077E+03  0.00000000000E+00 0. -1.
         -1   -1    0    0    0  501 -0.00000000000E+00 -0.00000000000E+00 -0.29778281498E+03  0.29778281498E+03  0.00000000000E+00 0.  1.
          6    1    1    2  502    0  0.65755978403E+02  0.32697532873E+02  0.25413910132E+03  0.31553709793E+03  0.17200000000E+03 0. -1.
         -6    1    1    2    0  501 -0.65755978403E+02 -0.32697532873E+02 -0.23434411553E+03  0.29982351782E+03  0.17200000000E+03 0.  1.
</event>
<event>
 4    1  0.3190379E-002  0.4515449E+03  0.7818608E-02  0.1027262E+00
         -3   -1    0    0    0  501 -0.00000000000E+00  0.00000000000E+00  0.24964797633E+03  0.24964797633E+03  0.00000000000E+00 0.  1.
          3   -1    0    0  502    0  0.00000000000E+00 -0.00000000000E+00 -0.22869234545E+04  0.22869234545E+04  0.00000000000E+00 0. -1.
          6    1    1    2  502    0  0.23489970021E+03  0.34515351323E+03 -0.20355414119E+04  0.20850231789E+04  0.17200000000E+03 0. -1.
         -6    1    1    2    0  501 -0.23489970021E+03 -0.34515351323E+03 -0.17340662616E+01  0.45154825195E+03  0.17200000000E+03 0.  1.
</event>
<event>
 4    1  0.3190379E-002  0.2773092E+03  0.7818608E-02  0.1097168E+00
          1   -1    0    0  502    0  0.00000000000E+00  0.00000000000E+00  0.87614675498E+03  0.87614675498E+03  0.00000000000E+00 0. -1.
         -1   -1    0    0    0  501 -0.00000000000E+00 -0.00000000000E+00 -0.11464342629E+03  0.11464342629E+03  0.00000000000E+00 0.  1.
          6    1    1    2  502    0 -0.16590848426E+03  0.14067968953E+03  0.62059597568E+03  0.67973506988E+03  0.17200000000E+03 0. -1.
         -6    1    1    2    0  501  0.16590848426E+03 -0.14067968953E+03  0.14090735302E+03  0.31105511140E+03  0.17200000000E+03 0.  1.
</event>
<event>
 4    1  0.3190379E-002  0.2217656E+03  0.7818608E-02  0.1132574E+00
          3   -1    0    0  502    0  0.00000000000E+00  0.00000000000E+00  0.59455775446E+03  0.59455775446E+03  0.00000000000E+00 0. -1.
         -3   -1    0    0    0  501 -0.00000000000E+00 -0.00000000000E+00 -0.11848241722E+03  0.11848241722E+03  0.00000000000E+00 0.  1.
          6    1    1    2  502    0 -0.12205070669E+03 -0.68553596902E+02  0.43391732878E+03  0.48730300519E+03  0.17200000000E+03 0. -1.
         -6    1    1    2    0  501  0.12205070669E+03  0.68553596902E+02  0.42158008460E+02  0.22573716648E+03  0.17200000000E+03 0.  1.
</event>
<event>
 4    1  0.3190379E-002  0.2392453E+03  0.7818608E-02  0.1120297E+00
          1   -1    0    0  502    0  0.00000000000E+00  0.00000000000E+00  0.18060799280E+03  0.18060799280E+03  0.00000000000E+00 0. -1.
         -1   -1    0    0    0  501 -0.00000000000E+00 -0.00000000000E+00 -0.36418628239E+03  0.36418628239E+03  0.00000000000E+00 0.  1.
          6    1    1    2  502    0 -0.97589204015E+01 -0.16600933191E+03  0.63438845244E+01  0.23932943756E+03  0.17200000000E+03 0. -1.
         -6    1    1    2    0  501  0.97589204015E+01  0.16600933191E+03 -0.18992217411E+03  0.30546483763E+03  0.17200000000E+03 0.  1.
</event>
<event>
 4    1  0.3190379E-002  0.2433469E+03  0.7818608E-02  0.1117583E+00
          2   -1    0    0  502    0  0.00000000000E+00  0.00000000000E+00  0.15604177523E+04  0.15604177523E+04  0.00000000000E+00 0. -1.
         -2   -1    0    0    0  501 -0.00000000000E+00 -0.00000000000E+00 -0.10211400291E+03  0.10211400291E+03  0.00000000000E+00 0.  1.
          6    1    1    2  502    0  0.15672537767E+03  0.71210076065E+02  0.13880880038E+04  0.14092572601E+04  0.17200000000E+03 0. -1.
         -6    1    1    2    0  501 -0.15672537767E+03 -0.71210076065E+02  0.70215745628E+02  0.25327449511E+03  0.17200000000E+03 0.  1.
</event>
<event>
 4    1  0.3190379E-002  0.2111985E+03  0.7818608E-02  0.1140620E+00
         -2   -1    0    0    0  501 -0.00000000000E+00  0.00000000000E+00  0.46692421474E+03  0.46692421474E+03  0.00000000000E+00 0.  1.
          2   -1    0    0  502    0  0.00000000000E+00 -0.00000000000E+00 -0.95578362530E+02  0.95578362530E+02  0.00000000000E+00 0. -1.
          6    1    1    2  502    0 -0.12017652475E+03  0.24049793459E+02  0.19206647406E+03  0.28547210043E+03  0.17200000000E+03 0.  1.
         -6    1    1    2    0  501  0.12017652475E+03 -0.24049793459E+02  0.17927937815E+03  0.27703047684E+03  0.17200000000E+03 0. -1.
</event>
<event>
 4    1  0.3190379E-002  0.1851577E+03  0.7818608E-02  0.1162903E+00
          2   -1    0    0  502    0  0.00000000000E+00  0.00000000000E+00  0.18025311646E+04  0.18025311646E+04  0.00000000000E+00 0. -1.
         -2   -1    0    0    0  501 -0.00000000000E+00 -0.00000000000E+00 -0.19602526614E+02  0.19602526614E+02  0.00000000000E+00 0.  1.
          6    1    1    2  502    0 -0.63535155404E+02  0.25742368503E+02  0.73435257644E+03  0.75733552144E+03  0.17200000000E+03 0. -1.
         -6    1    1    2    0  501  0.63535155404E+02 -0.25742368503E+02  0.10485760615E+04  0.10647981698E+04  0.17200000000E+03 0. -1.
</event>
<event>
 4    1  0.3190379E-002  0.2067928E+03  0.7818608E-02  0.1144131E+00
          2   -1    0    0  502    0  0.00000000000E+00  0.00000000000E+00  0.23592455664E+04  0.23592455664E+04  0.00000000000E+00 0. -1.
         -2   -1    0    0    0  501 -0.00000000000E+00 -0.00000000000E+00 -0.19158694394E+02  0.19158694394E+02  0.00000000000E+00 0.  1.
          6    1    1    2  502    0  0.79921778777E+02 -0.82412246551E+02  0.14461620661E+04  0.14608723389E+04  0.17200000000E+03 0. -1.
         -6    1    1    2    0  501 -0.79921778777E+02  0.82412246551E+02  0.89392480597E+03  0.91753192197E+03  0.17200000000E+03 0.  1.
</event>
<event>
 4    1  0.3190379E-002  0.1862573E+03  0.7818608E-02  0.1161881E+00
          2   -1    0    0  502    0  0.00000000000E+00  0.00000000000E+00  0.29206992395E+03  0.29206992395E+03  0.00000000000E+00 0. -1.
         -2   -1    0    0    0  501 -0.00000000000E+00 -0.00000000000E+00 -0.21624487302E+03  0.21624487302E+03  0.00000000000E+00 0.  1.
          6    1    1    2  502    0  0.44714945819E+02 -0.55752747306E+02  0.20854275290E+03  0.27961021977E+03  0.17200000000E+03 0. -1.
         -6    1    1    2    0  501 -0.44714945819E+02  0.55752747306E+02 -0.13271770198E+03  0.22870457720E+03  0.17200000000E+03 0.  1.
</event>
<event>
 4    1  0.3190379E-002  0.2772288E+03  0.7818608E-02  0.1097212E+00
          1   -1    0    0  502    0  0.00000000000E+00  0.00000000000E+00  0.18878158436E+04  0.18878158436E+04  0.00000000000E+00 0. -1.
         -1   -1    0    0    0  501 -0.00000000000E+00 -0.00000000000E+00 -0.42703152346E+02  0.42703152346E+02  0.00000000000E+00 0.  1.
          6    1    1    2  502    0 -0.48724463220E+02 -0.21189087154E+03  0.71409723547E+03  0.76602263443E+03  0.17200000000E+03 0. -1.
         -6    1    1    2    0  501  0.48724463220E+02  0.21189087154E+03  0.11310154558E+04  0.11644963615E+04  0.17200000000E+03 0. -1.
</event>
<event>
 4    1  0.3190379E-002  0.3527073E+03  0.7818608E-02  0.1061509E+00
          1   -1    0    0  502    0  0.00000000000E+00  0.00000000000E+00  0.10021155950E+04  0.10021155950E+04  0.00000000000E+00 0. -1.
         -1   -1    0    0    0  501 -0.00000000000E+00 -0.00000000000E+00 -0.30626271467E+03  0.30626271467E+03  0.00000000000E+00 0.  1.
          6    1    1    2  502    0 -0.10873981431E+03  0.28808700951E+03  0.85240013037E+03  0.92249035471E+03  0.17200000000E+03 0. -1.
         -6    1    1    2    0  501  0.10873981431E+03 -0.28808700951E+03 -0.15654725006E+03  0.38588795494E+03  0.17200000000E+03 0.  1.
</event>
<event>
 4    1  0.3190379E-002  0.2149205E+03  0.7818608E-02  0.1137728E+00
         -1   -1    0    0    0  501 -0.00000000000E+00  0.00000000000E+00  0.28325983721E+03  0.28325983721E+03  0.00000000000E+00 0.  1.
          1   -1    0    0  502    0  0.00000000000E+00 -0.00000000000E+00 -0.16915514064E+03  0.16915514064E+03  0.00000000000E+00 0. -1.
          6    1    1    2  502    0  0.83276204298E+02  0.98345829996E+02  0.99960931646E+02  0.23702956848E+03  0.17200000000E+03 0.  1.
         -6    1    1    2    0  501 -0.83276204298E+02 -0.98345829996E+02  0.14143764929E+02  0.21538540936E+03  0.17200000000E+03 0. -1.
</event>
<event>
 4    1  0.3190379E-002  0.1926211E+03  0.7818608E-02  0.1156118E+00
         -1   -1    0    0    0  501 -0.00000000000E+00  0.00000000000E+00  0.49830866608E+02  0.49830866608E+02  0.00000000000E+00 0.  1.
          1   -1    0    0  502    0  0.00000000000E+00 -0.00000000000E+00 -0.10074953213E+04  0.10074953213E+04  0.00000000000E+00 0. -1.
          6    1    1    2  502    0 -0.74595306296E+02 -0.44209062906E+02 -0.20876731176E+03  0.28405402906E+03  0.17200000000E+03 0.  1.
         -6    1    1    2    0  501  0.74595306296E+02  0.44209062906E+02 -0.74889714293E+03  0.77327215885E+03  0.17200000000E+03 0. -1.
</event>
<event>
 4    1  0.3190379E-002  0.1779152E+03  0.7818608E-02  0.1169836E+00
          2   -1    0    0  502    0  0.00000000000E+00  0.00000000000E+00  0.17306081954E+04  0.17306081954E+04  0.00000000000E+00 0. -1.
         -2   -1    0    0    0  501 -0.00000000000E+00 -0.00000000000E+00 -0.24049714212E+02  0.24049714212E+02  0.00000000000E+00 0.  1.
          6    1    1    2  502    0  0.16851873008E+02 -0.42259263143E+02  0.12826040945E+04  0.12948849733E+04  0.17200000000E+03 0. -1.
         -6    1    1    2    0  501 -0.16851873008E+02  0.42259263143E+02  0.42395438678E+03  0.45977293636E+03  0.17200000000E+03 0.  1.
</event>
<event>
 4    1  0.3190379E-002  0.1935460E+03  0.7818608E-02  0.1155301E+00
         -2   -1    0    0    0  501 -0.00000000000E+00  0.00000000000E+00  0.16786418178E+03  0.16786418178E+03  0.00000000000E+00 0.  1.
          2   -1    0    0  502    0  0.00000000000E+00 -0.00000000000E+00 -0.23930997067E+03  0.23930997067E+03  0.00000000000E+00 0. -1.
          6    1    1    2  502    0  0.73816952231E+02  0.49265638770E+02  0.17170049727E+02  0.19430608896E+03  0.17200000000E+03 0.  1.
         -6    1    1    2    0  501 -0.73816952231E+02 -0.49265638770E+02 -0.88615838612E+02  0.21286806349E+03  0.17200000000E+03 0. -1.
</event>
<event>
 4    1  0.3190379E-002  0.2592201E+03  0.7818608E-02  0.1107613E+00
         -2   -1    0    0    0  501 -0.00000000000E+00  0.00000000000E+00  0.49321812877E+02  0.49321812877E+02  0.00000000000E+00 0.  1.
          2   -1    0    0  502    0  0.00000000000E+00 -0.00000000000E+00 -0.14008032193E+04  0.14008032193E+04  0.00000000000E+00 0. -1.
          6    1    1    2  502    0 -0.16984640462E+03 -0.93612163917E+02 -0.55565667269E+03  0.61314710821E+03  0.17200000000E+03 0. -1.
         -6    1    1    2    0  501  0.16984640462E+03  0.93612163917E+02 -0.79582473374E+03  0.83697792398E+03  0.17200000000E+03 0.  1.
</event>
<event>
 4    1  0.3190379E-002  0.1921270E+03  0.7818608E-02  0.1156557E+00
          1   -1    0    0  502    0  0.00000000000E+00  0.00000000000E+00  0.10444723147E+04  0.10444723147E+04  0.00000000000E+00 0. -1.
         -1   -1    0    0    0  501 -0.00000000000E+00 -0.00000000000E+00 -0.44519633307E+02  0.44519633307E+02  0.00000000000E+00 0.  1.
          6    1    1    2  502    0  0.50599577673E+02  0.69054020175E+02  0.25274352974E+03  0.31747766344E+03  0.17200000000E+03 0. -1.
         -6    1    1    2    0  501 -0.50599577673E+02 -0.69054020175E+02  0.74720915166E+03  0.77151428456E+03  0.17200000000E+03 0. -1.
</event>
<event>
 4    1  0.3190379E-002  0.2037906E+03  0.7818608E-02  0.1146580E+00
         -1   -1    0    0    0  501 -0.00000000000E+00  0.00000000000E+00  0.52688047344E+02  0.52688047344E+02  0.00000000000E+00 0.  1.
          1   -1    0    0  502    0  0.00000000000E+00 -0.00000000000E+00 -0.99523197177E+03  0.99523197177E+03  0.00000000000E+00 0. -1.
          6    1    1    2  502    0 -0.69775135347E+02  0.84131137465E+02 -0.71022738273E+03  0.73888669834E+03  0.17200000000E+03 0. -1.
         -6    1    1    2    0  501  0.69775135347E+02 -0.84131137465E+02 -0.23231654170E+03  0.30903332078E+03  0.17200000000E+03 0.  1.
</event>
<event>
 4    1  0.3190379E-002  0.1739430E+03  0.7818608E-02  0.1173797E+00
          2   -1    0    0  502    0  0.00000000000E+00  0.00000000000E+00  0.19654920681E+04  0.19654920681E+04  0.00000000000E+00 0. -1.
         -2   -1    0    0    0  501 -0.00000000000E+00 -0.00000000000E+00 -0.16746072155E+02  0.16746072155E+02  0.00000000000E+00 0.  1.
          6    1    1    2  502    0 -0.25476511826E+02  0.48071902504E+01  0.69271622347E+03  0.71422120382E+03  0.17200000000E+03 0.  1.
         -6    1    1    2    0  501  0.25476511826E+02 -0.48071902504E+01  0.12560297725E+04  0.12680169364E+04  0.17200000000E+03 0. -1.
</event>
<event>
 4    1  0.3190379E-002  0.2020637E+03  0.7818608E-02  0.1148009E+00
         -2   -1    0    0    0  501 -0.00000000000E+00  0.00000000000E+00  0.51732880537E+02  0.51732880537E+02  0.00000000000E+00 0.  1.
          2   -1    0    0  502    0  0.00000000000E+00 -0.00000000000E+00 -0.81316270538E+03  0.81316270538E+03  0.00000000000E+00 0. -1.
          6    1    1    2  502    0 -0.10480687392E+03 -0.16163664134E+02 -0.45488605607E+03  0.49774598829E+03  0.17200000000E+03 0. -1.
         -6    1    1    2    0  501  0.10480687392E+03  0.16163664134E+02 -0.30654376878E+03  0.36714959762E+03  0.17200000000E+03 0.  1.
</event>
<event>
 4    1  0.3190379E-002  0.1813091E+03  0.7818608E-02  0.1166542E+00
          2   -1    0    0  502    0  0.00000000000E+00  0.00000000000E+00  0.83602002736E+03  0.83602002736E+03  0.00000000000E+00 0. -1.
         -2   -1    0    0    0  501 -0.00000000000E+00 -0.00000000000E+00 -0.95992852194E+02  0.95992852194E+02  0.00000000000E+00 0.  1.
          6    1    1    2  502    0 -0.57188180471E+02  0.43029354797E+01  0.72807441968E+03  0.75031017841E+03  0.17200000000E+03 0. -1.
         -6    1    1    2    0  501  0.57188180471E+02 -0.43029354797E+01  0.11952755491E+02  0.18170270114E+03  0.17200000000E+03 0.  1.
</event>
<event>
 4    1  0.3190379E-002  0.1889896E+03  0.7818608E-02  0.1159376E+00
         -2   -1    0    0    0  501 -0.00000000000E+00  0.00000000000E+00  0.37134126613E+02  0.37134126613E+02  0.00000000000E+00 0.  1.
          2   -1    0    0  502    0  0.00000000000E+00 -0.00000000000E+00 -0.10657172441E+04  0.10657172441E+04  0.00000000000E+00 0. -1.
          6    1    1    2  502    0  0.48787034070E+02  0.61260897068E+02 -0.68644952093E+03  0.71199018040E+03  0.17200000000E+03 0. -1.
         -6    1    1    2    0  501 -0.48787034070E+02 -0.61260897068E+02 -0.34213359659E+03  0.39086119035E+03  0.17200000000E+03 0.  1.
</event>
<event>
 4    1  0.3190379E-002  0.8646919E+03  0.7818608E-02  0.9470827E-01
          2   -1    0    0  502    0  0.00000000000E+00  0.00000000000E+00  0.38617953864E+04  0.38617953864E+04  0.00000000000E+00 0. -1.
         -2   -1    0    0    0  501 -0.00000000000E+00 -0.00000000000E+00 -0.28721689510E+03  0.28721689510E+03  0.00000000000E+00 0.  1.
          6    1    1    2  502    0 -0.73567554908E+03 -0.42058250246E+03  0.29715781930E+04  0.30948294157E+04  0.17200000000E+03 0. -1.
         -6    1    1    2    0  501  0.73567554908E+03  0.42058250246E+03  0.60300029828E+03  0.10541828658E+04  0.17200000000E+03 0.  1.
</event>
<event>
 4    1  0.3190379E-002  0.1877266E+03  0.7818608E-02  0.1160528E+00
          1   -1    0    0  502    0  0.00000000000E+00  0.00000000000E+00  0.40945707868E+02  0.40945707868E+02  0.00000000000E+00 0. -1.
         -1   -1    0    0    0  501 -0.00000000000E+00 -0.00000000000E+00 -0.86118366676E+03  0.86118366676E+03  0.00000000000E+00 0.  1.
          6    1    1    2  502    0 -0.13136757550E+02 -0.74058668528E+02 -0.42099856931E+03  0.46095667491E+03  0.17200000000E+03 0. -1.
         -6    1    1    2    0  501  0.13136757550E+02  0.74058668528E+02 -0.39923938958E+03  0.44117269972E+03  0.17200000000E+03 0.  1.
</event>
<event>
 4    1  0.3190379E-002  0.1735873E+03  0.7818608E-02  0.1174158E+00
          1   -1    0    0  502    0  0.00000000000E+00  0.00000000000E+00  0.27604402296E+03  0.27604402296E+03  0.00000000000E+00 0. -1.
         -1   -1    0    0    0  501 -0.00000000000E+00 -0.00000000000E+00 -0.11120961341E+03  0.11120961341E+03  0.00000000000E+00 0.  1.
          6    1    1    2  502    0  0.20753222172E+02  0.10855692626E+02  0.10871338720E+03  0.20481978139E+03  0.17200000000E+03 0. -1.
         -6    1    1    2    0  501 -0.20753222172E+02 -0.10855692626E+02  0.56121022351E+02  0.18243385498E+03  0.17200000000E+03 0.  1.
</event>
<event>
 4    1  0.3190379E-002  0.2146956E+03  0.7818608E-02  0.1137901E+00
          2   -1    0    0  502    0  0.00000000000E+00  0.00000000000E+00  0.13932916074E+04  0.13932916074E+04  0.00000000000E+00 0. -1.
         -2   -1    0    0    0  501 -0.00000000000E+00 -0.00000000000E+00 -0.42684331082E+02  0.42684331082E+02  0.00000000000E+00 0.  1.
          6    1    1    2  502    0 -0.79421613823E+02 -0.10100698747E+03  0.10158291515E+04  0.10382692662E+04  0.17200000000E+03 0. -1.
         -6    1    1    2    0  501  0.79421613823E+02  0.10100698747E+03  0.33477812483E+03  0.39770667221E+03  0.17200000000E+03 0.  1.
</event>
<event>
 4    1  0.3190379E-002  0.2133804E+03  0.7818608E-02  0.1138917E+00
          2   -1    0    0  502    0  0.00000000000E+00  0.00000000000E+00  0.18044194789E+03  0.18044194789E+03  0.00000000000E+00 0. -1.
         -2   -1    0    0    0  501 -0.00000000000E+00 -0.00000000000E+00 -0.25392724906E+03  0.25392724906E+03  0.00000000000E+00 0.  1.
          6    1    1    2  502    0 -0.55697462763E+02  0.11333582000E+03 -0.53958778901E+02  0.22009717234E+03  0.17200000000E+03 0. -1.
         -6    1    1    2    0  501  0.55697462763E+02 -0.11333582000E+03 -0.19526522269E+02  0.21427202460E+03  0.17200000000E+03 0. -1.
</event>
<event>
 4    1  0.3190379E-002  0.2071357E+03  0.7818608E-02  0.1143854E+00
          1   -1    0    0  502    0  0.00000000000E+00  0.00000000000E+00  0.21712205903E+04  0.21712205903E+04  0.00000000000E+00 0. -1.
         -1   -1    0    0    0  501 -0.00000000000E+00 -0.00000000000E+00 -0.23705704712E+02  0.23705704712E+02  0.00000000000E+00 0.  1.
          6    1    1    2  502    0  0.12232851443E+02 -0.11476740982E+03  0.15214481594E+04  0.15354835404E+04  0.17200000000E+03 0. -1.
         -6    1    1    2    0  501 -0.12232851443E+02  0.11476740982E+03  0.62606672624E+03  0.65944275469E+03  0.17200000000E+03 0.  1.
</event>
<event>
 4    1  0.3190379E-002  0.1762137E+03  0.7818608E-02  0.1171519E+00
          1   -1    0    0  502    0  0.00000000000E+00  0.00000000000E+00  0.94167378911E+02  0.94167378911E+02  0.00000000000E+00 0. -1.
         -1   -1    0    0    0  501 -0.00000000000E+00 -0.00000000000E+00 -0.34504043852E+03  0.34504043852E+03  0.00000000000E+00 0.  1.
          6    1    1    2  502    0  0.37343290286E+02  0.85284312951E+01 -0.17167261356E+03  0.24601370230E+03  0.17200000000E+03 0.  1.
         -6    1    1    2    0  501 -0.37343290286E+02 -0.85284312951E+01 -0.79200446050E+02  0.19319411514E+03  0.17200000000E+03 0. -1.
</event>
<event>
 4    1  0.3190379E-002  0.5664863E+03  0.7818608E-02  0.9977484E-01
         -2   -1    0    0    0  501 -0.00000000000E+00  0.00000000000E+00  0.27985099124E+03  0.27985099124E+03  0.00000000000E+00 0.  1.
          2   -1    0    0  502    0  0.00000000000E+00 -0.00000000000E+00 -0.19311769750E+04  0.19311769750E+04  0.00000000000E+00 0. -1.
          6    1    1    2  502    0  0.34090554960E+02 -0.53866555483E+03 -0.15302614795E+04  0.16317496565E+04  0.17200000000E+03 0. -1.
         -6    1    1    2    0  501 -0.34090554960E+02  0.53866555483E+03 -0.12106450425E+03  0.57927830970E+03  0.17200000000E+03 0.  1.
</event>
<event>
 4    1  0.3190379E-002  0.2679467E+03  0.7818608E-02  0.1102461E+00
          3   -1    0    0  502    0  0.00000000000E+00  0.00000000000E+00  0.17964443366E+03  0.17964443366E+03  0.00000000000E+00 0. -1.
         -3   -1    0    0    0  501 -0.00000000000E+00 -0.00000000000E+00 -0.58149460187E+03  0.58149460187E+03  0.00000000000E+00 0.  1.
          6    1    1    2  502    0  0.13283644875E+03  0.15673519417E+03 -0.41374278062E+03  0.49292852598E+03  0.17200000000E+03 0. -1.
         -6    1    1    2    0  501 -0.13283644875E+03 -0.15673519417E+03  0.11892612409E+02  0.26821050956E+03  0.17200000000E+03 0.  1.
</event>
<event>
 4    1  0.3190379E-002  0.1968085E+03  0.7818608E-02  0.1152460E+00
          1   -1    0    0  502    0  0.00000000000E+00  0.00000000000E+00  0.15750639251E+04  0.15750639251E+04  0.00000000000E+00 0. -1.
         -1   -1    0    0    0  501 -0.00000000000E+00 -0.00000000000E+00 -0.28388743271E+02  0.28388743271E+02  0.00000000000E+00 0.  1.
          6    1    1    2  502    0 -0.27011852300E+02  0.91760348104E+02  0.10665431030E+04  0.10845495804E+04  0.17200000000E+03 0. -1.
         -6    1    1    2    0  501  0.27011852300E+02 -0.91760348104E+02  0.48013207878E+03  0.51890308799E+03  0.17200000000E+03 0.  1.
</event>
<event>
 4    1  0.3190379E-002  0.2164732E+03  0.7818608E-02  0.1136540E+00
         -1   -1    0    0    0  501 -0.00000000000E+00  0.00000000000E+00  0.38028970002E+02  0.38028970002E+02  0.00000000000E+00 0.  1.
          1   -1    0    0  502    0  0.00000000000E+00 -0.00000000000E+00 -0.13465282577E+04  0.13465282577E+04  0.00000000000E+00 0. -1.
          6    1    1    2  502    0 -0.84378974833E+01  0.13116954114E+03 -0.85593879903E+03  0.88288837025E+03  0.17200000000E+03 0. -1.
         -6    1    1    2    0  501  0.84378974833E+01 -0.13116954114E+03 -0.45256048867E+03  0.50166885745E+03  0.17200000000E+03 0.  1.
</event>
<event>
 4    1  0.3190379E-002  0.2495915E+03  0.7818608E-02  0.1113563E+00
          2   -1    0    0  502    0  0.00000000000E+00  0.00000000000E+00  0.18220290745E+04  0.18220290745E+04  0.00000000000E+00 0. -1.
         -2   -1    0    0    0  501 -0.00000000000E+00 -0.00000000000E+00 -0.35635142228E+02  0.35635142228E+02  0.00000000000E+00 0.  1.
          6    1    1    2  502    0 -0.16711901366E+03 -0.69160395915E+02  0.70617555819E+03  0.74898587708E+03  0.17200000000E+03 0.  1.
         -6    1    1    2    0  501  0.16711901366E+03  0.69160395915E+02  0.10802183741E+04  0.11086783397E+04  0.17200000000E+03 0.  1.
</event>
<event>
 4    1  0.3190379E-002  0.1947218E+03  0.7818608E-02  0.1154270E+00
          1   -1    0    0  502    0  0.00000000000E+00  0.00000000000E+00  0.84508233276E+03  0.84508233276E+03  0.00000000000E+00 0. -1.
         -1   -1    0    0    0  501 -0.00000000000E+00 -0.00000000000E+00 -0.50606363238E+02  0.50606363238E+02  0.00000000000E+00 0.  1.
          6    1    1    2  502    0 -0.88559249752E+02  0.22132675424E+02  0.24642333181E+03  0.31407173464E+03  0.17200000000E+03 0.  1.
         -6    1    1    2    0  501  0.88559249752E+02 -0.22132675424E+02  0.54805263772E+03  0.58161696137E+03  0.17200000000E+03 0. -1.
</event>
<event>
 4    1  0.3190379E-002  0.1999924E+03  0.7818608E-02  0.1149745E+00
          2   -1    0    0  502    0  0.00000000000E+00  0.00000000000E+00  0.11636921068E+04  0.11636921068E+04  0.00000000000E+00 0. -1.
         -2   -1    0    0    0  501 -0.00000000000E+00 -0.00000000000E+00 -0.15159700120E+03  0.15159700120E+03  0.00000000000E+00 0.  1.
          6    1    1    2  502    0 -0.36863800522E+02 -0.95152697164E+02  0.10843544250E+04  0.11026429588E+04  0.17200000000E+03 0. -1.
         -6    1    1    2    0  501  0.36863800522E+02  0.95152697164E+02 -0.72259319337E+02  0.21264614927E+03  0.17200000000E+03 0.  1.
</event>
<event>
 4    1  0.3190379E-002  0.2742111E+03  0.7818608E-02  0.1098893E+00
         -2   -1    0    0    0  501 -0.00000000000E+00  0.00000000000E+00  0.50554641215E+03  0.50554641215E+03  0.00000000000E+00 0.  1.
          2   -1    0    0  502    0  0.00000000000E+00 -0.00000000000E+00 -0.14909944092E+03  0.14909944092E+03  0.00000000000E+00 0. -1.
          6    1    1    2  502    0  0.20812913166E+03 -0.47853860290E+02  0.16200923678E+03  0.31849445865E+03  0.17200000000E+03 0. -1.
         -6    1    1    2    0  501 -0.20812913166E+03  0.47853860290E+02  0.19443773445E+03  0.33615139441E+03  0.17200000000E+03 0.  1.
</event>
<event>
 4    1  0.3190379E-002  0.1930248E+03  0.7818608E-02  0.1155761E+00
         -2   -1    0    0    0  501 -0.00000000000E+00  0.00000000000E+00  0.24433576907E+03  0.24433576907E+03  0.00000000000E+00 0.  1.
          2   -1    0    0  502    0  0.00000000000E+00 -0.00000000000E+00 -0.18064197890E+03  0.18064197890E+03  0.00000000000E+00 0. -1.
          6    1    1    2  502    0 -0.10741679161E+02  0.86943504478E+02  0.11573256610E+03  0.22506128831E+03  0.17200000000E+03 0.  1.
         -6    1    1    2    0  501  0.10741679161E+02 -0.86943504478E+02 -0.52038775920E+02  0.19991645966E+03  0.17200000000E+03 0. -1.
</event>
<event>
 4    1  0.3190379E-002  0.1785311E+03  0.7818608E-02  0.1169232E+00
         -1   -1    0    0    0  501 -0.00000000000E+00  0.00000000000E+00  0.37072358156E+02  0.37072358156E+02  0.00000000000E+00 0.  1.
          1   -1    0    0  502    0  0.00000000000E+00 -0.00000000000E+00 -0.10017242750E+04  0.10017242750E+04  0.00000000000E+00 0. -1.
          6    1    1    2  502    0 -0.41187582394E+02  0.24350443012E+02 -0.67785655255E+03  0.70097280037E+03  0.17200000000E+03 0. -1.
         -6    1    1    2    0  501  0.41187582394E+02 -0.24350443012E+02 -0.28679536427E+03  0.33782383277E+03  0.17200000000E+03 0.  1.
</event>
<event>
 4    1  0.3190379E-002  0.1815908E+03  0.7818608E-02  0.1166272E+00
          2   -1    0    0  502    0  0.00000000000E+00  0.00000000000E+00  0.91504510430E+02  0.91504510430E+02  0.00000000000E+00 0. -1.
         -2   -1    0    0    0  501 -0.00000000000E+00 -0.00000000000E+00 -0.36042596407E+03  0.36042596407E+03  0.00000000000E+00 0.  1.
          6    1    1    2  502    0  0.43481564736E+02 -0.38737230148E+02 -0.13157416512E+03  0.22424758728E+03  0.17200000000E+03 0.  1.
         -6    1    1    2    0  501 -0.43481564736E+02  0.38737230148E+02 -0.13734728851E+03  0.22768288722E+03  0.17200000000E+03 0.  1.
</event>
<event>
 4    1  0.3190379E-002  0.4583008E+03  0.7818608E-02  0.1025275E+00
         -1   -1    0    0    0  501 -0.00000000000E+00  0.00000000000E+00  0.29334230637E+03  0.29334230637E+03  0.00000000000E+00 0.  1.
          1   -1    0    0  502    0  0.00000000000E+00 -0.00000000000E+00 -0.79886509912E+03  0.79886509912E+03  0.00000000000E+00 0. -1.
          6    1    1    2  502    0  0.36302323588E+03  0.22061224120E+03 -0.42862088199E+03  0.62749939541E+03  0.17200000000E+03 0. -1.
         -6    1    1    2    0  501 -0.36302323588E+03 -0.22061224120E+03 -0.76901910757E+02  0.46470801008E+03  0.17200000000E+03 0.  1.
</event>
<event>
 4    1  0.3190379E-002  0.2424351E+03  0.7818608E-02  0.1118181E+00
         -1   -1    0    0    0  501 -0.00000000000E+00  0.00000000000E+00  0.58277991743E+03  0.58277991743E+03  0.00000000000E+00 0.  1.
          1   -1    0    0  502    0  0.00000000000E+00 -0.00000000000E+00 -0.10756220242E+03  0.10756220242E+03  0.00000000000E+00 0. -1.
          6    1    1    2  502    0 -0.43423155645E+02 -0.16524283534E+03  0.32381907632E+03  0.40451645117E+03  0.17200000000E+03 0.  1.
         -6    1    1    2    0  501  0.43423155645E+02  0.16524283534E+03  0.15139863870E+03  0.28582566868E+03  0.17200000000E+03 0.  1.
</event>
<event>
 4    1  0.3190379E-002  0.2399572E+03  0.7818608E-02  0.1119821E+00
          2   -1    0    0  502    0  0.00000000000E+00  0.00000000000E+00  0.38867820678E+03  0.38867820678E+03  0.00000000000E+00 0. -1.
         -2   -1    0    0    0  501 -0.00000000000E+00 -0.00000000000E+00 -0.15121670642E+03  0.15121670642E+03  0.00000000000E+00 0.  1.
          6    1    1    2  502    0  0.13587570148E+03 -0.97638476421E+02  0.80236375086E+02  0.25301650977E+03  0.17200000000E+03 0. -1.
         -6    1    1    2    0  501 -0.13587570148E+03  0.97638476421E+02  0.15722512528E+03  0.28687840343E+03  0.17200000000E+03 0. -1.
</event>
<event>
 4    1  0.3190379E-002  0.3533491E+03  0.7818608E-02  0.1061249E+00
          2   -1    0    0  502    0  0.00000000000E+00  0.00000000000E+00  0.76697635246E+03  0.76697635246E+03  0.00000000000E+00 0. -1.
         -2   -1    0    0    0  501 -0.00000000000E+00 -0.00000000000E+00 -0.39820371577E+03  0.39820371577E+03  0.00000000000E+00 0.  1.
          6    1    1    2  502    0 -0.49607718867E+02  0.30464843635E+03  0.63233355456E+03  0.72436269904E+03  0.17200000000E+03 0. -1.
         -6    1    1    2    0  501  0.49607718867E+02 -0.30464843635E+03 -0.26356091788E+03  0.44081736918E+03  0.17200000000E+03 0.  1.
</event>
<event>
 4    1  0.3190379E-002  0.2100636E+03  0.7818608E-02  0.1141516E+00
          2   -1    0    0  502    0  0.00000000000E+00  0.00000000000E+00  0.22876314687E+03  0.22876314687E+03  0.00000000000E+00 0. -1.
         -2   -1    0    0    0  501 -0.00000000000E+00 -0.00000000000E+00 -0.35267697479E+03  0.35267697479E+03  0.00000000000E+00 0.  1.
          6    1    1    2  502    0 -0.86006197288E+02  0.84531983674E+02  0.13372630201E+03  0.24901695943E+03  0.17200000000E+03 0. -1.
         -6    1    1    2    0  501  0.86006197288E+02 -0.84531983674E+02 -0.25764012993E+03  0.33242316223E+03  0.17200000000E+03 0.  1.
</event>
<event>
 4    1  0.3190379E-002  0.5006669E+03  0.7818608E-02  0.1013605E+00
         -1   -1    0    0    0  501 -0.00000000000E+00  0.00000000000E+00  0.10430347185E+03  0.10430347185E+03  0.00000000000E+00 0.  1.
          1   -1    0    0  502    0  0.00000000000E+00 -0.00000000000E+00 -0.24302284850E+04  0.24302284850E+04  0.00000000000E+00 0. -1.
          6    1    1    2  502    0  0.45801155276E+02 -0.46795894018E+03 -0.10294403777E+04  0.11447335091E+04  0.17200000000E+03 0. -1.
         -6    1    1    2    0  501 -0.45801155276E+02  0.46795894018E+03 -0.12964846354E+04  0.13897984478E+04  0.17200000000E+03 0.  1.
</event>
<event>
 4    1  0.3190379E-002  0.5191224E+03  0.7818608E-02  0.1008905E+00
          1   -1    0    0  502    0  0.00000000000E+00  0.00000000000E+00  0.80331674084E+03  0.80331674084E+03  0.00000000000E+00 0. -1.
         -1   -1    0    0    0  501 -0.00000000000E+00 -0.00000000000E+00 -0.73435426295E+03  0.73435426295E+03  0.00000000000E+00 0.  1.
          6    1    1    2  502    0  0.29423341127E+03 -0.39157473473E+03  0.60111764306E+03  0.79424838306E+03  0.17200000000E+03 0. -1.
         -6    1    1    2    0  501 -0.29423341127E+03  0.39157473473E+03 -0.53215516517E+03  0.74342262073E+03  0.17200000000E+03 0.  1.
</event>
<event>
 4    1  0.3190379E-002  0.2719608E+03  0.7818608E-02  0.1100163E+00
          1   -1    0    0  502    0  0.00000000000E+00  0.00000000000E+00  0.15159783310E+04  0.15159783310E+04  0.00000000000E+00 0. -1.
         -1   -1    0    0    0  501 -0.00000000000E+00 -0.00000000000E+00 -0.53399886233E+02  0.53399886233E+02  0.00000000000E+00 0.  1.
          6    1    1    2  502    0 -0.19116035157E+03  0.88523413545E+02  0.50070380379E+03  0.56979555447E+03  0.17200000000E+03 0.  1.
         -6    1    1    2    0  501  0.19116035157E+03 -0.88523413545E+02  0.96187464100E+03  0.99958266279E+03  0.17200000000E+03 0.  1.
</event>
<event>
 4    1  0.3190379E-002  0.5933452E+03  0.7818608E-02  0.9919310E-01
          2   -1    0    0  502    0  0.00000000000E+00  0.00000000000E+00  0.85329811056E+03  0.85329811056E+03  0.00000000000E+00 0. -1.
         -2   -1    0    0    0  501 -0.00000000000E+00 -0.00000000000E+00 -0.15904981780E+04  0.15904981780E+04  0.00000000000E+00 0.  1.
          6    1    1    2  502    0 -0.26061147973E+03  0.50453563962E+03  0.68293788439E+03  0.90468928862E+03  0.17200000000E+03 0. -1.
         -6    1    1    2    0  501  0.26061147973E+03 -0.50453563962E+03 -0.14201379518E+04  0.15391069999E+04  0.17200000000E+03 0.  1.
</event>
<event>
 4    1  0.3190379E-002  0.1819445E+03  0.7818608E-02  0.1165934E+00
         -1   -1    0    0    0  501 -0.00000000000E+00  0.00000000000E+00  0.84894873744E+02  0.84894873744E+02  0.00000000000E+00 0.  1.
          1   -1    0    0  502    0  0.00000000000E+00 -0.00000000000E+00 -0.50234076605E+03  0.50234076605E+03  0.00000000000E+00 0. -1.
          6    1    1    2  502    0 -0.29093849857E+02  0.51704309556E+02 -0.34761280907E+03  0.39234991112E+03  0.17200000000E+03 0. -1.
         -6    1    1    2    0  501  0.29093849857E+02 -0.51704309556E+02 -0.69833083235E+02  0.19488572867E+03  0.17200000000E+03 0.  1.
</event>
<event>
 4    1  0.3190379E-002  0.2065680E+03  0.7818608E-02  0.1144313E+00
         -2   -1    0    0    0  501 -0.00000000000E+00  0.00000000000E+00  0.39423893650E+03  0.39423893650E+03  0.00000000000E+00 0.  1.
          2   -1    0    0  502    0  0.00000000000E+00 -0.00000000000E+00 -0.11322635627E+03  0.11322635627E+03  0.00000000000E+00 0. -1.
          6    1    1    2  502    0  0.97525695394E+02 -0.59792020099E+02  0.87231299216E+02  0.22423123443E+03  0.17200000000E+03 0. -1.
         -6    1    1    2    0  501 -0.97525695394E+02  0.59792020099E+02  0.19378128101E+03  0.28323405834E+03  0.17200000000E+03 0.  1.
</event>
<event>
 4    1  0.3190379E-002  0.2141855E+03  0.7818608E-02  0.1138294E+00
          3   -1    0    0  502    0  0.00000000000E+00  0.00000000000E+00  0.99989028882E+03  0.99989028882E+03  0.00000000000E+00 0. -1.
         -3   -1    0    0    0  501 -0.00000000000E+00 -0.00000000000E+00 -0.10355644754E+03  0.10355644754E+03  0.00000000000E+00 0.  1.
          6    1    1    2  502    0  0.11451472915E+03  0.56372088395E+02  0.85991377715E+03  0.88618685371E+03  0.17200000000E+03 0. -1.
         -6    1    1    2    0  501 -0.11451472915E+03 -0.56372088395E+02  0.36420064131E+02  0.21725988266E+03  0.17200000000E+03 0.  1.
</event>
<event>
 4    1  0.3190379E-002  0.2157692E+03  0.7818608E-02  0.1137077E+00
          2   -1    0    0  502    0  0.00000000000E+00  0.00000000000E+00  0.17720803452E+04  0.17720803452E+04  0.00000000000E+00 0. -1.
         -2   -1    0    0    0  501 -0.00000000000E+00 -0.00000000000E+00 -0.30177005623E+02  0.30177005623E+02  0.00000000000E+00 0.  1.
          6    1    1    2  502    0 -0.10978390302E+03 -0.70141626802E+02  0.11951057278E+04  0.12144274593E+04  0.17200000000E+03 0. -1.
         -6    1    1    2    0  501  0.10978390302E+03  0.70141626802E+02  0.54679761174E+03  0.58782989153E+03  0.17200000000E+03 0.  1.
</event>
<event>
 4    1  0.3190379E-002  0.2036843E+03  0.7818608E-02  0.1146667E+00
         -2   -1    0    0    0  501 -0.00000000000E+00  0.00000000000E+00  0.37091918473E+02  0.37091918473E+02  0.00000000000E+00 0.  1.
          2   -1    0    0  502    0  0.00000000000E+00 -0.00000000000E+00 -0.14301955572E+04  0.14301955572E+04  0.00000000000E+00 0. -1.
          6    1    1    2  502    0 -0.68564456447E+02  0.84865721520E+02 -0.10390462187E+04  0.10588221381E+04  0.17200000000E+03 0. -1.
         -6    1    1    2    0  501  0.68564456447E+02 -0.84865721520E+02 -0.35405741995E+03  0.40846533758E+03  0.17200000000E+03 0.  1.
</event>
<event>
 4    1  0.3190379E-002  0.2404769E+03  0.7818608E-02  0.1119476E+00
         -1   -1    0    0    0  501 -0.00000000000E+00  0.00000000000E+00  0.95434068950E+02  0.95434068950E+02  0.00000000000E+00 0.  1.
          1   -1    0    0  502    0  0.00000000000E+00 -0.00000000000E+00 -0.17348172455E+04  0.17348172455E+04  0.00000000000E+00 0. -1.
          6    1    1    2  502    0 -0.12917813497E+03  0.10750881985E+03 -0.15578907765E+04  0.15763415900E+04  0.17200000000E+03 0. -1.
         -6    1    1    2    0  501  0.12917813497E+03 -0.10750881985E+03 -0.81492400056E+02  0.25390972444E+03  0.17200000000E+03 0.  1.
</event>
<event>
 4    1  0.3190379E-002  0.1955962E+03  0.7818608E-02  0.1153509E+00
         -1   -1    0    0    0  501 -0.00000000000E+00  0.00000000000E+00  0.14859948750E+03  0.14859948750E+03  0.00000000000E+00 0.  1.
          1   -1    0    0  502    0  0.00000000000E+00 -0.00000000000E+00 -0.28557191887E+03  0.28557191887E+03  0.00000000000E+00 0. -1.
          6    1    1    2  502    0  0.67500741306E+02 -0.64167957097E+02 -0.13660190618E+03  0.23857484689E+03  0.17200000000E+03 0. -1.
         -6    1    1    2    0  501 -0.67500741306E+02  0.64167957097E+02 -0.37052518981E+00  0.19559655949E+03  0.17200000000E+03 0.  1.
</event>
<event>
 4    1  0.3190379E-002  0.2216039E+03  0.7818608E-02  0.1132693E+00
         -2   -1    0    0    0  501 -0.00000000000E+00  0.00000000000E+00  0.24015475116E+02  0.24015475116E+02  0.00000000000E+00 0.  1.
          2   -1    0    0  502    0  0.00000000000E+00 -0.00000000000E+00 -0.24456809633E+04  0.24456809633E+04  0.00000000000E+00 0. -1.
          6    1    1    2  502    0 -0.12724083987E+03  0.57741181202E+02 -0.17107396052E+04  0.17250328322E+04  0.17200000000E+03 0. -1.
         -6    1    1    2    0  501  0.12724083987E+03 -0.57741181202E+02 -0.71092588295E+03  0.74466360619E+03  0.17200000000E+03 0.  1.
</event>
<event>
 4    1  0.3190379E-002  0.2063943E+03  0.7818608E-02  0.1144454E+00
         -2   -1    0    0    0  501 -0.00000000000E+00  0.00000000000E+00  0.14056903244E+03  0.14056903244E+03  0.00000000000E+00 0.  1.
          2   -1    0    0  502    0  0.00000000000E+00 -0.00000000000E+00 -0.38122863650E+03  0.38122863650E+03  0.00000000000E+00 0. -1.
          6    1    1    2  502    0  0.26766522653E+02  0.11089707828E+03 -0.21781069617E+01  0.20640579656E+03  0.17200000000E+03 0.  1.
         -6    1    1    2    0  501 -0.26766522653E+02 -0.11089707828E+03 -0.23848149710E+03  0.31539187238E+03  0.17200000000E+03 0. -1.
</event>
<event>
 4    1  0.3190379E-002  0.3013927E+03  0.7818608E-02  0.1084546E+00
          1   -1    0    0  502    0  0.00000000000E+00  0.00000000000E+00  0.13166049982E+04  0.13166049982E+04  0.00000000000E+00 0. -1.
         -1   -1    0    0    0  501 -0.00000000000E+00 -0.00000000000E+00 -0.10034506348E+03  0.10034506348E+03  0.00000000000E+00 0.  1.
          6    1    1    2  502    0  0.21046479126E+03  0.13022335687E+03  0.10041382134E+04  0.10483945357E+04  0.17200000000E+03 0. -1.
         -6    1    1    2    0  501 -0.21046479126E+03 -0.13022335687E+03  0.21212172139E+03  0.36855552597E+03  0.17200000000E+03 0.  1.
</event>
<event>
 4    1  0.3190379E-002  0.2472542E+03  0.7818608E-02  0.1115052E+00
          2   -1    0    0  502    0  0.00000000000E+00  0.00000000000E+00  0.95385455480E+03  0.95385455480E+03  0.00000000000E+00 0. -1.
         -2   -1    0    0    0  501 -0.00000000000E+00 -0.00000000000E+00 -0.64971399213E+02  0.64971399213E+02  0.00000000000E+00 0.  1.
          6    1    1    2  502    0  0.68060329415E+02  0.16406841035E+03  0.50369981160E+03  0.56111331469E+03  0.17200000000E+03 0.  1.
         -6    1    1    2    0  501 -0.68060329415E+02 -0.16406841035E+03  0.38518334398E+03  0.45771263932E+03  0.17200000000E+03 0.  1.
</event>
<event>
 4    1  0.3190379E-002  0.1801935E+03  0.7818608E-02  0.1167616E+00
         -1   -1    0    0    0  501 -0.00000000000E+00  0.00000000000E+00  0.18554124807E+03  0.18554124807E+03  0.00000000000E+00 0.  1.
          1   -1    0    0  502    0  0.00000000000E+00 -0.00000000000E+00 -0.17831437103E+03  0.17831437103E+03  0.00000000000E+00 0. -1.
          6    1    1    2  502    0 -0.34721874448E+02 -0.40988754916E+02  0.28417209588E+02  0.18242046046E+03  0.17200000000E+03 0.  1.
         -6    1    1    2    0  501  0.34721874448E+02  0.40988754916E+02 -0.21190332549E+02  0.18143515863E+03  0.17200000000E+03 0. -1.
</event>
<event>
 4    1  0.3190379E-002  0.4727769E+03  0.7818608E-02  0.1021139E+00
         -1   -1    0    0    0  501 -0.00000000000E+00  0.00000000000E+00  0.46128149302E+03  0.46128149302E+03  0.00000000000E+00 0.  1.
          1   -1    0    0  502    0  0.00000000000E+00 -0.00000000000E+00 -0.58409298792E+03  0.58409298792E+03  0.00000000000E+00 0. -1.
          6    1    1    2  502    0 -0.43914763719E+03 -0.32914764169E+02 -0.27717369768E+03  0.54803584521E+03  0.17200000000E+03 0. -1.
         -6    1    1    2    0  501  0.43914763719E+03  0.32914764169E+02  0.15436220277E+03  0.49733863574E+03  0.17200000000E+03 0.  1.
</event>
<event>
 4    1  0.3190379E-002  0.1789649E+03  0.7818608E-02  0.1168809E+00
          2   -1    0    0  502    0  0.00000000000E+00  0.00000000000E+00  0.19861683710E+03  0.19861683710E+03  0.00000000000E+00 0. -1.
         -2   -1    0    0    0  501 -0.00000000000E+00 -0.00000000000E+00 -0.18042422871E+03  0.18042422871E+03  0.00000000000E+00 0.  1.
          6    1    1    2  502    0  0.38622505474E+02  0.30866713740E+02  0.70867070625E+02  0.19248530761E+03  0.17200000000E+03 0.  1.
         -6    1    1    2    0  501 -0.38622505474E+02 -0.30866713740E+02 -0.52674462241E+02  0.18655575820E+03  0.17200000000E+03 0.  1.
</event>
<event>
 4    1  0.3190379E-002  0.3641062E+03  0.7818608E-02  0.1056970E+00
          2   -1    0    0  502    0  0.00000000000E+00  0.00000000000E+00  0.49607579182E+03  0.49607579182E+03  0.00000000000E+00 0. -1.
         -2   -1    0    0    0  501 -0.00000000000E+00 -0.00000000000E+00 -0.29321471316E+03  0.29321471316E+03  0.00000000000E+00 0.  1.
          6    1    1    2  502    0  0.10137521756E+03  0.30448705411E+03 -0.16020150299E+02  0.36445842845E+03  0.17200000000E+03 0. -1.
         -6    1    1    2    0  501 -0.10137521756E+03 -0.30448705411E+03  0.21888122896E+03  0.42483207653E+03  0.17200000000E+03 0.  1.
</event>
<event>
 4    1  0.3190379E-002  0.2367876E+03  0.7818608E-02  0.1121951E+00
          2   -1    0    0  502    0  0.00000000000E+00  0.00000000000E+00  0.27236884487E+04  0.27236884487E+04  0.00000000000E+00 0. -1.
         -2   -1    0    0    0  501 -0.00000000000E+00 -0.00000000000E+00 -0.25132002878E+02  0.25132002878E+02  0.00000000000E+00 0.  1.
          6    1    1    2  502    0  0.75317211619E+02 -0.14426261824E+03  0.76469900534E+03  0.80052042707E+03  0.17200000000E+03 0.  1.
         -6    1    1    2    0  501 -0.75317211619E+02  0.14426261824E+03  0.19338574405E+04  0.19483000245E+04  0.17200000000E+03 0.  1.
</event>
<event>
 4    1  0.3190379E-002  0.1759864E+03  0.7818608E-02  0.1171745E+00
         -2   -1    0    0    0  501 -0.00000000000E+00  0.00000000000E+00  0.11565026320E+03  0.11565026320E+03  0.00000000000E+00 0.  1.
          2   -1    0    0  502    0  0.00000000000E+00 -0.00000000000E+00 -0.33597347545E+03  0.33597347545E+03  0.00000000000E+00 0. -1.
          6    1    1    2  502    0 -0.29734437712E+02 -0.22429323800E+02 -0.21188012682E+03  0.27543492788E+03  0.17200000000E+03 0. -1.
         -6    1    1    2    0  501  0.29734437712E+02  0.22429323800E+02 -0.84430854280E+01  0.17618881078E+03  0.17200000000E+03 0.  1.
</event>
<event>
 4    1  0.3190379E-002  0.1807707E+03  0.7818608E-02  0.1167059E+00
         -3   -1    0    0    0  501 -0.00000000000E+00  0.00000000000E+00  0.20719043238E+03  0.20719043238E+03  0.00000000000E+00 0.  1.
          3   -1    0    0  502    0  0.00000000000E+00 -0.00000000000E+00 -0.19232312110E+03  0.19232312110E+03  0.00000000000E+00 0. -1.
          6    1    1    2  502    0 -0.17135847336E+02 -0.52918806880E+02 -0.77297776689E+02  0.19660362069E+03  0.17200000000E+03 0. -1.
         -6    1    1    2    0  501  0.17135847336E+02  0.52918806880E+02  0.92165087965E+02  0.20290993279E+03  0.17200000000E+03 0.  1.
</event>
<event>
 4    1  0.3190379E-002  0.4764890E+03  0.7818608E-02  0.1020105E+00
          1   -1    0    0  502    0  0.00000000000E+00  0.00000000000E+00  0.17832944382E+04  0.17832944382E+04  0.00000000000E+00 0. -1.
         -1   -1    0    0    0  501 -0.00000000000E+00 -0.00000000000E+00 -0.14493723635E+03  0.14493723635E+03  0.00000000000E+00 0.  1.
          6    1    1    2  502    0 -0.15442215882E+03 -0.41666720505E+03  0.11553482232E+04  0.12497484866E+04  0.17200000000E+03 0. -1.
         -6    1    1    2    0  501  0.15442215882E+03  0.41666720505E+03  0.48300897871E+03  0.67848318801E+03  0.17200000000E+03 0.  1.
</event>
<event>
 4    1  0.3190379E-002  0.2487894E+03  0.7818608E-02  0.1114072E+00
         -2   -1    0    0    0  501 -0.00000000000E+00  0.00000000000E+00  0.45112424070E+03  0.45112424070E+03  0.00000000000E+00 0.  1.
          2   -1    0    0  502    0  0.00000000000E+00 -0.00000000000E+00 -0.14475328925E+03  0.14475328925E+03  0.00000000000E+00 0. -1.
          6    1    1    2  502    0  0.15176682789E+03 -0.96327459583E+02  0.22122472302E+03  0.33292120328E+03  0.17200000000E+03 0. -1.
         -6    1    1    2    0  501 -0.15176682789E+03  0.96327459583E+02  0.85146228436E+02  0.26295632667E+03  0.17200000000E+03 0. -1.
</event>
<event>
 4    1  0.3190379E-002  0.1731417E+03  0.7818608E-02  0.1174611E+00
         -2   -1    0    0    0  501 -0.00000000000E+00  0.00000000000E+00  0.20239379345E+02  0.20239379345E+02  0.00000000000E+00 0.  1.
          2   -1    0    0  502    0  0.00000000000E+00 -0.00000000000E+00 -0.15035520750E+04  0.15035520750E+04  0.00000000000E+00 0. -1.
          6    1    1    2  502    0  0.15176537925E+02 -0.12795882627E+02 -0.83460398123E+03  0.85237425313E+03  0.17200000000E+03 0. -1.
         -6    1    1    2    0  501 -0.15176537925E+02  0.12795882627E+02 -0.64870871441E+03  0.67141720120E+03  0.17200000000E+03 0.  1.
</event>
<event>
 4    1  0.3190379E-002  0.4116815E+03  0.7818608E-02  0.1039808E+00
          1   -1    0    0  502    0  0.00000000000E+00  0.00000000000E+00  0.44305302137E+03  0.44305302137E+03  0.00000000000E+00 0. -1.
         -1   -1    0    0    0  501 -0.00000000000E+00 -0.00000000000E+00 -0.40943543121E+03  0.40943543121E+03  0.00000000000E+00 0.  1.
          6    1    1    2  502    0 -0.26194306411E+03 -0.26698970253E+03 -0.92454649071E+02  0.42193545979E+03  0.17200000000E+03 0. -1.
         -6    1    1    2    0  501  0.26194306411E+03  0.26698970253E+03  0.12607223923E+03  0.43055299279E+03  0.17200000000E+03 0.  1.
</event>
<event>
 4    1  0.3190379E-002  0.1844098E+03  0.7818608E-02  0.1163602E+00
          2   -1    0    0  502    0  0.00000000000E+00  0.00000000000E+00  0.33552523325E+03  0.33552523325E+03  0.00000000000E+00 0. -1.
         -2   -1    0    0    0  501 -0.00000000000E+00 -0.00000000000E+00 -0.14150999414E+03  0.14150999414E+03  0.00000000000E+00 0.  1.
          6    1    1    2  502    0 -0.75915066659E+00 -0.66501201209E+02  0.22406487973E+03  0.29019313638E+03  0.17200000000E+03 0. -1.
         -6    1    1    2    0  501  0.75915066659E+00  0.66501201209E+02 -0.30049640628E+02  0.18684209101E+03  0.17200000000E+03 0.  1.
</event>
<event>
 4    1  0.3190379E-002  0.1840234E+03  0.7818608E-02  0.1163965E+00
          1   -1    0    0  502    0  0.00000000000E+00  0.00000000000E+00  0.57620659606E+03  0.57620659606E+03  0.00000000000E+00 0. -1.
         -1   -1    0    0    0  501 -0.00000000000E+00 -0.00000000000E+00 -0.58775623203E+02  0.58775623203E+02  0.00000000000E+00 0.  1.
          6    1    1    2  502    0  0.27081681669E+02 -0.59558372327E+02  0.26132312303E+03  0.31961600684E+03  0.17200000000E+03 0.  1.
         -6    1    1    2    0  501 -0.27081681669E+02  0.59558372327E+02  0.25610784982E+03  0.31536621242E+03  0.17200000000E+03 0.  1.
</event>
<event>
 4    1  0.3190379E-002  0.2809210E+03  0.7818608E-02  0.1095187E+00
          1   -1    0    0  502    0  0.00000000000E+00  0.00000000000E+00  0.45249283334E+03  0.45249283334E+03  0.00000000000E+00 0. -1.
         -1   -1    0    0    0  501 -0.00000000000E+00 -0.00000000000E+00 -0.26455684589E+03  0.26455684589E+03  0.00000000000E+00 0.  1.
          6    1    1    2  502    0 -0.11051263602E+03  0.19266441238E+03  0.30325832122E+03  0.41337903661E+03  0.17200000000E+03 0. -1.
         -6    1    1    2    0  501  0.11051263602E+03 -0.19266441238E+03 -0.11532233378E+03  0.30367064261E+03  0.17200000000E+03 0.  1.
</event>
<event>
 4    1  0.3190379E-002  0.5058524E+03  0.7818608E-02  0.1012263E+00
          1   -1    0    0  502    0  0.00000000000E+00  0.00000000000E+00  0.55789141931E+03  0.55789141931E+03  0.00000000000E+00 0. -1.
         -1   -1    0    0    0  501 -0.00000000000E+00 -0.00000000000E+00 -0.47210116526E+03  0.47210116526E+03  0.00000000000E+00 0.  1.
          6    1    1    2  502    0  0.22341346777E+03  0.41998702575E+03 -0.43977577096E+02  0.50776048159E+03  0.17200000000E+03 0.  1.
         -6    1    1    2    0  501 -0.22341346777E+03 -0.41998702575E+03  0.12976783115E+03  0.52223210298E+03  0.17200000000E+03 0.  1.
</event>
<event>
 4    1  0.3190379E-002  0.3697826E+03  0.7818608E-02  0.1054776E+00
         -1   -1    0    0    0  501 -0.00000000000E+00  0.00000000000E+00  0.61759142568E+03  0.61759142568E+03  0.00000000000E+00 0.  1.
          1   -1    0    0  502    0  0.00000000000E+00 -0.00000000000E+00 -0.11841936956E+04  0.11841936956E+04  0.00000000000E+00 0. -1.
          6    1    1    2  502    0  0.31672645102E+03 -0.82701265043E+02 -0.10956201875E+04  0.11563402351E+04  0.17200000000E+03 0. -1.
         -6    1    1    2    0  501 -0.31672645102E+03  0.82701265043E+02  0.52901791758E+03  0.64544488621E+03  0.17200000000E+03 0.  1.
</event>
<event>
 4    1  0.3190379E-002  0.3757957E+03  0.7818608E-02  0.1052499E+00
         -1   -1    0    0    0  501 -0.00000000000E+00  0.00000000000E+00  0.92843211060E+03  0.92843211060E+03  0.00000000000E+00 0.  1.
          1   -1    0    0  502    0  0.00000000000E+00 -0.00000000000E+00 -0.16210235078E+03  0.16210235078E+03  0.00000000000E+00 0. -1.
          6    1    1    2  502    0 -0.29354268723E+03 -0.15959657443E+03  0.51855348257E+03  0.64040619148E+03  0.17200000000E+03 0. -1.
         -6    1    1    2    0  501  0.29354268723E+03  0.15959657443E+03  0.24777627725E+03  0.45012826990E+03  0.17200000000E+03 0.  1.
</event>
<event>
 4    1  0.3190379E-002  0.1924053E+03  0.7818608E-02  0.1156310E+00
         -1   -1    0    0    0  501 -0.00000000000E+00  0.00000000000E+00  0.25401909166E+03  0.25401909166E+03  0.00000000000E+00 0.  1.
          1   -1    0    0  502    0  0.00000000000E+00 -0.00000000000E+00 -0.14624087075E+03  0.14624087075E+03  0.00000000000E+00 0. -1.
          6    1    1    2  502    0 -0.78185609834E+02  0.36370328582E+02  0.65645106036E+02  0.20329552463E+03  0.17200000000E+03 0.  1.
         -6    1    1    2    0  501  0.78185609834E+02 -0.36370328582E+02  0.42133114875E+02  0.19696443779E+03  0.17200000000E+03 0.  1.
</event>
<event>
 4    1  0.3190379E-002  0.2763913E+03  0.7818608E-02  0.1097676E+00
          2   -1    0    0  502    0  0.00000000000E+00  0.00000000000E+00  0.70591273660E+03  0.70591273660E+03  0.00000000000E+00 0. -1.
         -2   -1    0    0    0  501 -0.00000000000E+00 -0.00000000000E+00 -0.14431951237E+03  0.14431951237E+03  0.00000000000E+00 0.  1.
          6    1    1    2  502    0 -0.41356804334E+02  0.21236228903E+03  0.49341979976E+03  0.56555744700E+03  0.17200000000E+03 0. -1.
         -6    1    1    2    0  501  0.41356804334E+02 -0.21236228903E+03  0.68173424479E+02  0.28467480196E+03  0.17200000000E+03 0.  1.
</event>
<event>
 4    1  0.3190379E-002  0.2243004E+03  0.7818608E-02  0.1130717E+00
          2   -1    0    0  502    0  0.00000000000E+00  0.00000000000E+00  0.18934480021E+04  0.18934480021E+04  0.00000000000E+00 0. -1.
         -2   -1    0    0    0  501 -0.00000000000E+00 -0.00000000000E+00 -0.26705038197E+02  0.26705038197E+02  0.00000000000E+00 0.  1.
          6    1    1    2  502    0  0.12532591623E+03 -0.70852590367E+02  0.10014071204E+04  0.10262197112E+04  0.17200000000E+03 0. -1.
         -6    1    1    2    0  501 -0.12532591623E+03  0.70852590367E+02  0.86533584347E+03  0.89393332908E+03  0.17200000000E+03 0.  1.
</event>
<event>
 4    1  0.3190379E-002  0.1747111E+03  0.7818608E-02  0.1173022E+00
          2   -1    0    0  502    0  0.00000000000E+00  0.00000000000E+00  0.19744185789E+04  0.19744185789E+04  0.00000000000E+00 0. -1.
         -2   -1    0    0    0  501 -0.00000000000E+00 -0.00000000000E+00 -0.15464635703E+02  0.15464635703E+02  0.00000000000E+00 0.  1.
          6    1    1    2  502    0  0.13100071917E+02 -0.27719024707E+02  0.99721761170E+03  0.10124065000E+04  0.17200000000E+03 0.  1.
         -6    1    1    2    0  501 -0.13100071917E+02  0.27719024707E+02  0.96173633149E+03  0.97747671457E+03  0.17200000000E+03 0.  1.
</event>
<event>
 4    1  0.3190379E-002  0.2298797E+03  0.7818608E-02  0.1126724E+00
         -2   -1    0    0    0  501 -0.00000000000E+00  0.00000000000E+00  0.57719968443E+02  0.57719968443E+02  0.00000000000E+00 0.  1.
          2   -1    0    0  502    0  0.00000000000E+00 -0.00000000000E+00 -0.12894550209E+04  0.12894550209E+04  0.00000000000E+00 0. -1.
          6    1    1    2  502    0 -0.42677254989E+02 -0.14642179239E+03 -0.97859453426E+03  0.10052322875E+04  0.17200000000E+03 0. -1.
         -6    1    1    2    0  501  0.42677254989E+02  0.14642179239E+03 -0.25314051820E+03  0.34194270183E+03  0.17200000000E+03 0.  1.
</event>
<event>
 4    1  0.3190379E-002  0.2967666E+03  0.7818608E-02  0.1086868E+00
         -1   -1    0    0    0  501 -0.00000000000E+00  0.00000000000E+00  0.91010119614E+02  0.91010119614E+02  0.00000000000E+00 0.  1.
          1   -1    0    0  502    0  0.00000000000E+00 -0.00000000000E+00 -0.16765016254E+04  0.16765016254E+04  0.00000000000E+00 0. -1.
          6    1    1    2  502    0 -0.23285370597E+03  0.65311488406E+02 -0.13673817881E+04  0.13992152777E+04  0.17200000000E+03 0. -1.
         -6    1    1    2    0  501  0.23285370597E+03 -0.65311488406E+02 -0.21810971771E+03  0.36829646734E+03  0.17200000000E+03 0.  1.
</event>
<event>
 4    1  0.3190379E-002  0.2830650E+03  0.7818608E-02  0.1094027E+00
          2   -1    0    0  502    0  0.00000000000E+00  0.00000000000E+00  0.44528907861E+03  0.44528907861E+03  0.00000000000E+00 0. -1.
         -2   -1    0    0    0  501 -0.00000000000E+00 -0.00000000000E+00 -0.23666535124E+03  0.23666535124E+03  0.00000000000E+00 0.  1.
          6    1    1    2  502    0 -0.17907885561E+03 -0.13591380615E+03  0.27124496760E+03  0.39204544593E+03  0.17200000000E+03 0. -1.
         -6    1    1    2    0  501  0.17907885561E+03  0.13591380615E+03 -0.62621240229E+02  0.28990898391E+03  0.17200000000E+03 0.  1.
</event>
<event>
 4    1  0.3190379E-002  0.2429754E+03  0.7818608E-02  0.1117826E+00
          1   -1    0    0  502    0  0.00000000000E+00  0.00000000000E+00  0.22493900968E+03  0.22493900968E+03  0.00000000000E+00 0. -1.
         -1   -1    0    0    0  501 -0.00000000000E+00 -0.00000000000E+00 -0.55255755832E+03  0.55255755832E+03  0.00000000000E+00 0.  1.
          6    1    1    2  502    0 -0.16864876638E+03  0.31790622767E+02  0.11786892249E+03  0.27005579606E+03  0.17200000000E+03 0. -1.
         -6    1    1    2    0  501  0.16864876638E+03 -0.31790622767E+02 -0.44548747113E+03  0.50744077194E+03  0.17200000000E+03 0.  1.
</event>
<event>
 4    1  0.3190379E-002  0.1987025E+03  0.7818608E-02  0.1150838E+00
         -1   -1    0    0    0  501 -0.00000000000E+00  0.00000000000E+00  0.26326165850E+03  0.26326165850E+03  0.00000000000E+00 0.  1.
          1   -1    0    0  502    0  0.00000000000E+00 -0.00000000000E+00 -0.50947724996E+03  0.50947724996E+03  0.00000000000E+00 0. -1.
          6    1    1    2  502    0 -0.59226974731E+02 -0.79942685650E+02 -0.44766495404E+03  0.48978217464E+03  0.17200000000E+03 0. -1.
         -6    1    1    2    0  501  0.59226974731E+02  0.79942685650E+02  0.20144936258E+03  0.28295673381E+03  0.17200000000E+03 0.  1.
</event>
<event>
 4    1  0.3190379E-002  0.2094030E+03  0.7818608E-02  0.1142040E+00
          1   -1    0    0  502    0  0.00000000000E+00  0.00000000000E+00  0.19160002272E+04  0.19160002272E+04  0.00000000000E+00 0. -1.
         -1   -1    0    0    0  501 -0.00000000000E+00 -0.00000000000E+00 -0.26427747532E+02  0.26427747532E+02  0.00000000000E+00 0.  1.
          6    1    1    2  502    0  0.11884968939E+03 -0.11847669194E+02  0.58924290442E+03  0.62534535766E+03  0.17200000000E+03 0.  1.
         -6    1    1    2    0  501 -0.11884968939E+03  0.11847669194E+02  0.13003295753E+04  0.13170826171E+04  0.17200000000E+03 0. -1.
</event>
<event>
 4    1  0.3190379E-002  0.2194822E+03  0.7818608E-02  0.1134270E+00
         -1   -1    0    0    0  501 -0.00000000000E+00  0.00000000000E+00  0.15770890159E+03  0.15770890159E+03  0.00000000000E+00 0.  1.
          1   -1    0    0  502    0  0.00000000000E+00 -0.00000000000E+00 -0.30559480881E+03  0.30559480881E+03  0.00000000000E+00 0. -1.
          6    1    1    2  502    0 -0.13454094579E+03 -0.22072406657E+02 -0.68930543601E+02  0.23005190082E+03  0.17200000000E+03 0.  1.
         -6    1    1    2    0  501  0.13454094579E+03  0.22072406657E+02 -0.78955363614E+02  0.23325180958E+03  0.17200000000E+03 0. -1.
</event>
<event>
 4    1  0.3190379E-002  0.1757459E+03  0.7818608E-02  0.1171985E+00
         -1   -1    0    0    0  501 -0.00000000000E+00  0.00000000000E+00  0.48128812363E+02  0.48128812363E+02  0.00000000000E+00 0.  1.
          1   -1    0    0  502    0  0.00000000000E+00 -0.00000000000E+00 -0.65073943153E+03  0.65073943153E+03  0.00000000000E+00 0. -1.
          6    1    1    2  502    0 -0.33854749682E+02  0.12509678523E+02 -0.26023362470E+03  0.31401938723E+03  0.17200000000E+03 0. -1.
         -6    1    1    2    0  501  0.33854749682E+02 -0.12509678523E+02 -0.34237699448E+03  0.38484885667E+03  0.17200000000E+03 0.  1.
</event>
<event>
 4    1  0.3190379E-002  0.2698417E+03  0.7818608E-02  0.1101370E+00
          1   -1    0    0  502    0  0.00000000000E+00  0.00000000000E+00  0.59528189812E+03  0.59528189812E+03  0.00000000000E+00 0. -1.
         -1   -1    0    0    0  501 -0.00000000000E+00 -0.00000000000E+00 -0.52741449804E+03  0.52741449804E+03  0.00000000000E+00 0.  1.
          6    1    1    2  502    0 -0.19944133354E+03 -0.58768219770E+02  0.52589934127E+03  0.59108769766E+03  0.17200000000E+03 0. -1.
         -6    1    1    2    0  501  0.19944133354E+03  0.58768219770E+02 -0.45803194119E+03  0.53160869851E+03  0.17200000000E+03 0.  1.
</event>
<event>
 4    1  0.3190379E-002  0.1825974E+03  0.7818608E-02  0.1165313E+00
          1   -1    0    0  502    0  0.00000000000E+00  0.00000000000E+00  0.94122143533E+03  0.94122143533E+03  0.00000000000E+00 0. -1.
         -1   -1    0    0    0  501 -0.00000000000E+00 -0.00000000000E+00 -0.46681044190E+02  0.46681044190E+02  0.00000000000E+00 0.  1.
          6    1    1    2  502    0  0.53575338982E+02  0.29790688009E+02  0.68983429226E+03  0.71359172698E+03  0.17200000000E+03 0. -1.
         -6    1    1    2    0  501 -0.53575338982E+02 -0.29790688009E+02  0.20470609888E+03  0.27431075254E+03  0.17200000000E+03 0.  1.
</event>
<event>
 4    1  0.3190379E-002  0.4386154E+03  0.7818608E-02  0.1031172E+00
          2   -1    0    0  502    0  0.00000000000E+00  0.00000000000E+00  0.36620148585E+03  0.36620148585E+03  0.00000000000E+00 0. -1.
         -2   -1    0    0    0  501 -0.00000000000E+00 -0.00000000000E+00 -0.56538831156E+03  0.56538831156E+03  0.00000000000E+00 0.  1.
          6    1    1    2  502    0 -0.14707119258E+03  0.37572530444E+03 -0.22354918438E+03  0.49229836271E+03  0.17200000000E+03 0. -1.
         -6    1    1    2    0  501  0.14707119258E+03 -0.37572530444E+03  0.24362358676E+02  0.43929143471E+03  0.17200000000E+03 0.  1.
</event>
<event>
 4    1  0.3190379E-002  0.1807998E+03  0.7818608E-02  0.1167031E+00
         -2   -1    0    0    0  501 -0.00000000000E+00  0.00000000000E+00  0.42886904174E+02  0.42886904174E+02  0.00000000000E+00 0.  1.
          2   -1    0    0  502    0  0.00000000000E+00 -0.00000000000E+00 -0.25216001864E+04  0.25216001864E+04  0.00000000000E+00 0. -1.
          6    1    1    2  502    0 -0.41322044485E+02 -0.37377017756E+02 -0.16829545848E+03  0.24700589904E+03  0.17200000000E+03 0.  1.
         -6    1    1    2    0  501  0.41322044485E+02  0.37377017756E+02 -0.23104178237E+04  0.23174811915E+04  0.17200000000E+03 0. -1.
</event>
<event>
 4    1  0.3190379E-002  0.2044798E+03  0.7818608E-02  0.1146013E+00
         -2   -1    0    0    0  501 -0.00000000000E+00  0.00000000000E+00  0.57953298871E+02  0.57953298871E+02  0.00000000000E+00 0.  1.
          2   -1    0    0  502    0  0.00000000000E+00 -0.00000000000E+00 -0.73761251934E+03  0.73761251934E+03  0.00000000000E+00 0. -1.
          6    1    1    2  502    0  0.15650070816E+02 -0.10946723409E+03 -0.28099715305E+03  0.34752179799E+03  0.17200000000E+03 0. -1.
         -6    1    1    2    0  501 -0.15650070816E+02  0.10946723409E+03 -0.39866206741E+03  0.44804402022E+03  0.17200000000E+03 0. -1.
</event>
<event>
 4    1  0.3190379E-002  0.4745505E+03  0.7818608E-02  0.1020644E+00
         -1   -1    0    0    0  501 -0.00000000000E+00  0.00000000000E+00  0.27136129752E+03  0.27136129752E+03  0.00000000000E+00 0.  1.
          1   -1    0    0  502    0  0.00000000000E+00 -0.00000000000E+00 -0.84235094625E+03  0.84235094625E+03  0.00000000000E+00 0. -1.
          6    1    1    2  502    0  0.43694785104E+03 -0.68489072055E+02 -0.21774772183E+03  0.52212282835E+03  0.17200000000E+03 0. -1.
         -6    1    1    2    0  501 -0.43694785104E+03  0.68489072055E+02 -0.35324192690E+03  0.59158941542E+03  0.17200000000E+03 0.  1.
</event>
<event>
 4    1  0.3190379E-002  0.1858907E+03  0.7818608E-02  0.1162221E+00
         -2   -1    0    0    0  501 -0.00000000000E+00  0.00000000000E+00  0.25275765495E+03  0.25275765495E+03  0.00000000000E+00 0.  1.
          2   -1    0    0  502    0  0.00000000000E+00 -0.00000000000E+00 -0.19747313467E+03  0.19747313467E+03  0.00000000000E+00 0. -1.
          6    1    1    2  502    0  0.68652060263E+02  0.16070171126E+02 -0.97228040373E+02  0.20978238156E+03  0.17200000000E+03 0. -1.
         -6    1    1    2    0  501 -0.68652060263E+02 -0.16070171126E+02  0.15251256066E+03  0.24044840806E+03  0.17200000000E+03 0.  1.
</event>
<event>
 4    1  0.3190379E-002  0.3803437E+03  0.7818608E-02  0.1050807E+00
          2   -1    0    0  502    0  0.00000000000E+00  0.00000000000E+00  0.37480004727E+04  0.37480004727E+04  0.00000000000E+00 0. -1.
         -2   -1    0    0    0  501 -0.00000000000E+00 -0.00000000000E+00 -0.20916446686E+03  0.20916446686E+03  0.00000000000E+00 0.  1.
          6    1    1    2  502    0  0.31853819161E+03 -0.11666521485E+03  0.35561457354E+04  0.35764275253E+04  0.17200000000E+03 0. -1.
         -6    1    1    2    0  501 -0.31853819161E+03  0.11666521485E+03 -0.17309729628E+02  0.38073741425E+03  0.17200000000E+03 0.  1.
</event>
<event>
 4    1  0.3190379E-002  0.2675774E+03  0.7818608E-02  0.1102674E+00
         -2   -1    0    0    0  501 -0.00000000000E+00  0.00000000000E+00  0.49492607065E+02  0.49492607065E+02  0.00000000000E+00 0.  1.
          2   -1    0    0  502    0  0.00000000000E+00 -0.00000000000E+00 -0.16954876778E+04  0.16954876778E+04  0.00000000000E+00 0. -1.
          6    1    1    2  502    0  0.15019407730E+03  0.13948265991E+03 -0.48873669270E+03  0.55719047736E+03  0.17200000000E+03 0.  1.
         -6    1    1    2    0  501 -0.15019407730E+03 -0.13948265991E+03 -0.11572583780E+04  0.11877898075E+04  0.17200000000E+03 0.  1.
</event>
<event>
 4    1  0.3190379E-002  0.1825757E+03  0.7818608E-02  0.1165333E+00
          2   -1    0    0  502    0  0.00000000000E+00  0.00000000000E+00  0.24502673675E+03  0.24502673675E+03  0.00000000000E+00 0. -1.
         -2   -1    0    0    0  501 -0.00000000000E+00 -0.00000000000E+00 -0.13634551108E+03  0.13634551108E+03  0.00000000000E+00 0.  1.
          6    1    1    2  502    0 -0.53509078947E+02  0.29776728330E+02  0.63340528320E+02  0.19325086703E+03  0.17200000000E+03 0. -1.
         -6    1    1    2    0  501  0.53509078947E+02 -0.29776728330E+02  0.45340697344E+02  0.18812138080E+03  0.17200000000E+03 0.  1.
</event>
<event>
 4    1  0.3190379E-002  0.2403282E+03  0.7818608E-02  0.1119574E+00
         -2   -1    0    0    0  501 -0.00000000000E+00  0.00000000000E+00  0.55766929302E+02  0.55766929302E+02  0.00000000000E+00 0.  1.
          2   -1    0    0  502    0  0.00000000000E+00 -0.00000000000E+00 -0.10479480923E+04  0.10479480923E+04  0.00000000000E+00 0. -1.
          6    1    1    2  502    0 -0.53531338068E+02  0.15908497349E+03 -0.55575936126E+03  0.60549657355E+03  0.17200000000E+03 0. -1.
         -6    1    1    2    0  501  0.53531338068E+02 -0.15908497349E+03 -0.43642180169E+03  0.49821844801E+03  0.17200000000E+03 0.  1.
</event>
<event>
 4    1  0.3190379E-002  0.2215646E+03  0.7818608E-02  0.1132722E+00
          2   -1    0    0  502    0  0.00000000000E+00  0.00000000000E+00  0.51185116227E+03  0.51185116227E+03  0.00000000000E+00 0. -1.
         -2   -1    0    0    0  501 -0.00000000000E+00 -0.00000000000E+00 -0.10129704008E+03  0.10129704008E+03  0.00000000000E+00 0.  1.
          6    1    1    2  502    0  0.13963492017E+03 -0.29928238669E+01  0.27598584604E+03  0.35391956027E+03  0.17200000000E+03 0. -1.
         -6    1    1    2    0  501 -0.13963492017E+03  0.29928238669E+01  0.13456827616E+03  0.25922864208E+03  0.17200000000E+03 0. -1.
</event>
<event>
 4    1  0.3190379E-002  0.1802066E+03  0.7818608E-02  0.1167603E+00
          2   -1    0    0  502    0  0.00000000000E+00  0.00000000000E+00  0.16626726390E+03  0.16626726390E+03  0.00000000000E+00 0. -1.
         -2   -1    0    0    0  501 -0.00000000000E+00 -0.00000000000E+00 -0.39392898512E+03  0.39392898512E+03  0.00000000000E+00 0.  1.
          6    1    1    2  502    0 -0.46243992527E+02 -0.27420839317E+02  0.85056269068E+02  0.19927111728E+03  0.17200000000E+03 0. -1.
         -6    1    1    2    0  501  0.46243992527E+02  0.27420839317E+02 -0.31271799029E+03  0.36092513174E+03  0.17200000000E+03 0.  1.
</event>
<event>
 4    1  0.3190379E-002  0.2882602E+03  0.7818608E-02  0.1091261E+00
          2   -1    0    0  502    0  0.00000000000E+00  0.00000000000E+00  0.46677988607E+03  0.46677988607E+03  0.00000000000E+00 0. -1.
         -2   -1    0    0    0  501 -0.00000000000E+00 -0.00000000000E+00 -0.31109801265E+03  0.31109801265E+03  0.00000000000E+00 0.  1.
          6    1    1    2  502    0 -0.22290526019E+03 -0.61831906736E+02  0.33222723553E+03  0.43985096992E+03  0.17200000000E+03 0. -1.
         -6    1    1    2    0  501  0.22290526019E+03  0.61831906736E+02 -0.17654536211E+03  0.33802692880E+03  0.17200000000E+03 0.  1.
</event>
<event>
 4    1  0.3190379E-002  0.2539973E+03  0.7818608E-02  0.1110804E+00
          1   -1    0    0  502    0  0.00000000000E+00  0.00000000000E+00  0.69457228198E+03  0.69457228198E+03  0.00000000000E+00 0. -1.
         -1   -1    0    0    0  501 -0.00000000000E+00 -0.00000000000E+00 -0.10500848420E+03  0.10500848420E+03  0.00000000000E+00 0.  1.
          6    1    1    2  502    0 -0.13882907468E+03  0.12512845801E+03  0.15893428561E+03  0.29962434835E+03  0.17200000000E+03 0. -1.
         -6    1    1    2    0  501  0.13882907468E+03 -0.12512845801E+03  0.43062951216E+03  0.49995641783E+03  0.17200000000E+03 0.  1.
</event>
<event>
 4    1  0.3190379E-002  0.1864948E+03  0.7818608E-02  0.1161661E+00
          1   -1    0    0  502    0  0.00000000000E+00  0.00000000000E+00  0.17089611712E+04  0.17089611712E+04  0.00000000000E+00 0. -1.
         -1   -1    0    0    0  501 -0.00000000000E+00 -0.00000000000E+00 -0.31803989857E+02  0.31803989857E+02  0.00000000000E+00 0.  1.
          6    1    1    2  502    0 -0.48928949938E+02 -0.52936603204E+02  0.13608723974E+04  0.13735916453E+04  0.17200000000E+03 0. -1.
         -6    1    1    2    0  501  0.48928949938E+02  0.52936603204E+02  0.31628478394E+03  0.36717351573E+03  0.17200000000E+03 0.  1.
</event>
<event>
 4    1  0.3190379E-002  0.1763100E+03  0.7818608E-02  0.1171423E+00
         -1   -1    0    0    0  501 -0.00000000000E+00  0.00000000000E+00  0.79231079980E+02  0.79231079980E+02  0.00000000000E+00 0.  1.
          1   -1    0    0  502    0  0.00000000000E+00 -0.00000000000E+00 -0.55903181641E+03  0.55903181641E+03  0.00000000000E+00 0. -1.
          6    1    1    2  502    0 -0.31416487770E+02 -0.22676778940E+02 -0.65634134095E+02  0.18813046421E+03  0.17200000000E+03 0. -1.
         -6    1    1    2    0  501  0.31416487770E+02  0.22676778940E+02 -0.41416660233E+03  0.45013243217E+03  0.17200000000E+03 0. -1.
</event>
<event>
 4    1  0.3190379E-002  0.1884903E+03  0.7818608E-02  0.1159830E+00
          3   -1    0    0  502    0  0.00000000000E+00  0.00000000000E+00  0.14227836680E+03  0.14227836680E+03  0.00000000000E+00 0. -1.
         -3   -1    0    0    0  501 -0.00000000000E+00 -0.00000000000E+00 -0.90185523855E+03  0.90185523855E+03  0.00000000000E+00 0.  1.
          6    1    1    2  502    0  0.76731559858E+02  0.75398210180E+01  0.64156636899E+02  0.19910965631E+03  0.17200000000E+03 0. -1.
         -6    1    1    2    0  501 -0.76731559858E+02 -0.75398210180E+01 -0.82373350865E+03  0.84502394904E+03  0.17200000000E+03 0.  1.
</event>
<event>
 4    1  0.3190379E-002  0.1853195E+03  0.7818608E-02  0.1162752E+00
          1   -1    0    0  502    0  0.00000000000E+00  0.00000000000E+00  0.34274813100E+03  0.34274813100E+03  0.00000000000E+00 0. -1.
         -1   -1    0    0    0  501 -0.00000000000E+00 -0.00000000000E+00 -0.10356475038E+03  0.10356475038E+03  0.00000000000E+00 0.  1.
          6    1    1    2  502    0  0.76483317137E+00  0.68983489208E+02  0.15981616756E+03  0.24471312627E+03  0.17200000000E+03 0. -1.
         -6    1    1    2    0  501 -0.76483317137E+00 -0.68983489208E+02  0.79367213059E+02  0.20159975511E+03  0.17200000000E+03 0. -1.
</event>
<event>
 4    1  0.3190379E-002  0.1961369E+03  0.7818608E-02  0.1153040E+00
          1   -1    0    0  502    0  0.00000000000E+00  0.00000000000E+00  0.13936987691E+03  0.13936987691E+03  0.00000000000E+00 0. -1.
         -1   -1    0    0    0  501 -0.00000000000E+00 -0.00000000000E+00 -0.31591394716E+03  0.31591394716E+03  0.00000000000E+00 0.  1.
          6    1    1    2  502    0  0.65927990266E+02 -0.67373407076E+02 -0.16916113200E+03  0.25900803938E+03  0.17200000000E+03 0. -1.
         -6    1    1    2    0  501 -0.65927990266E+02  0.67373407076E+02 -0.73829382495E+01  0.19627578470E+03  0.17200000000E+03 0.  1.
</event>
<event>
 4    1  0.3190379E-002  0.1901541E+03  0.7818608E-02  0.1158322E+00
         -2   -1    0    0    0  501 -0.00000000000E+00  0.00000000000E+00  0.25545218784E+02  0.25545218784E+02  0.00000000000E+00 0.  1.
          2   -1    0    0  502    0  0.00000000000E+00 -0.00000000000E+00 -0.16812713628E+04  0.16812713628E+04  0.00000000000E+00 0. -1.
          6    1    1    2  502    0 -0.69172380318E+01 -0.80788096797E+02 -0.11671867666E+04  0.11825749502E+04  0.17200000000E+03 0. -1.
         -6    1    1    2    0  501  0.69172380318E+01  0.80788096797E+02 -0.48853937740E+03  0.52424163134E+03  0.17200000000E+03 0.  1.
</event>
<event>
 4    1  0.3190379E-002  0.1808573E+03  0.7818608E-02  0.1166976E+00
          2   -1    0    0  502    0  0.00000000000E+00  0.00000000000E+00  0.47595830097E+03  0.47595830097E+03  0.00000000000E+00 0. -1.
         -2   -1    0    0    0  501 -0.00000000000E+00 -0.00000000000E+00 -0.21872709809E+03  0.21872709809E+03  0.00000000000E+00 0.  1.
          6    1    1    2  502    0  0.66835592171E+01 -0.55504083837E+02  0.41626148619E+03  0.45385349857E+03  0.17200000000E+03 0. -1.
         -6    1    1    2    0  501 -0.66835592171E+01  0.55504083837E+02 -0.15903028331E+03  0.24083190049E+03  0.17200000000E+03 0.  1.
</event>
<event>
 4    1  0.3190379E-002  0.1791900E+03  0.7818608E-02  0.1168589E+00
         -2   -1    0    0    0  501 -0.00000000000E+00  0.00000000000E+00  0.61959872656E+02  0.61959872656E+02  0.00000000000E+00 0.  1.
          2   -1    0    0  502    0  0.00000000000E+00 -0.00000000000E+00 -0.90050953276E+03  0.90050953276E+03  0.00000000000E+00 0. -1.
          6    1    1    2  502    0 -0.47978731039E+02 -0.14936492296E+02 -0.73282499831E+03  0.75441469736E+03  0.17200000000E+03 0. -1.
         -6    1    1    2    0  501  0.47978731039E+02  0.14936492296E+02 -0.10572466179E+03  0.20805470806E+03  0.17200000000E+03 0.  1.
</event>
<event>
 4    1  0.3190379E-002  0.2327295E+03  0.7818608E-02  0.1124733E+00
          2   -1    0    0  502    0  0.00000000000E+00  0.00000000000E+00  0.12569276725E+03  0.12569276725E+03  0.00000000000E+00 0. -1.
         -2   -1    0    0    0  501 -0.00000000000E+00 -0.00000000000E+00 -0.56440074965E+03  0.56440074965E+03  0.00000000000E+00 0.  1.
          6    1    1    2  502    0 -0.75086170752E+02 -0.13762665977E+03 -0.51550918734E+02  0.23837056811E+03  0.17200000000E+03 0. -1.
         -6    1    1    2    0  501  0.75086170752E+02  0.13762665977E+03 -0.38715706367E+03  0.45172294879E+03  0.17200000000E+03 0.  1.
</event>
<event>
 4    1  0.3190379E-002  0.1867162E+03  0.7818608E-02  0.1161457E+00
          2   -1    0    0  502    0  0.00000000000E+00  0.00000000000E+00  0.18098855015E+04  0.18098855015E+04  0.00000000000E+00 0. -1.
         -2   -1    0    0    0  501 -0.00000000000E+00 -0.00000000000E+00 -0.21259102501E+02  0.21259102501E+02  0.00000000000E+00 0.  1.
          6    1    1    2  502    0 -0.65740118871E+02 -0.30937980901E+02  0.11748990995E+04  0.11896431464E+04  0.17200000000E+03 0. -1.
         -6    1    1    2    0  501  0.65740118871E+02  0.30937980901E+02  0.61372729957E+03  0.64150145762E+03  0.17200000000E+03 0.  1.
</event>
<event>
 4    1  0.3190379E-002  0.3301745E+03  0.7818608E-02  0.1071060E+00
         -1   -1    0    0    0  501 -0.00000000000E+00  0.00000000000E+00  0.93025873043E+02  0.93025873043E+02  0.00000000000E+00 0.  1.
          1   -1    0    0  502    0  0.00000000000E+00 -0.00000000000E+00 -0.16275251320E+04  0.16275251320E+04  0.00000000000E+00 0. -1.
          6    1    1    2  502    0  0.16809838826E+03  0.22621694548E+03 -0.31206561950E+03  0.45431280571E+03  0.17200000000E+03 0.  1.
         -6    1    1    2    0  501 -0.16809838826E+03 -0.22621694548E+03 -0.12224336394E+04  0.12662381993E+04  0.17200000000E+03 0.  1.
</event>
<event>
 4    1  0.3190379E-002  0.1850124E+03  0.7818608E-02  0.1163038E+00
         -2   -1    0    0    0  501 -0.00000000000E+00  0.00000000000E+00  0.27479789216E+03  0.27479789216E+03  0.00000000000E+00 0.  1.
          2   -1    0    0  502    0  0.00000000000E+00 -0.00000000000E+00 -0.12463632279E+03  0.12463632279E+03  0.00000000000E+00 0. -1.
          6    1    1    2  502    0 -0.92352685838E+01 -0.67529964289E+02  0.70229055485E+02  0.19789316940E+03  0.17200000000E+03 0.  1.
         -6    1    1    2    0  501  0.92352685838E+01  0.67529964289E+02  0.79932513885E+02  0.20154104554E+03  0.17200000000E+03 0. -1.
</event>
<event>
 4    1  0.3190379E-002  0.3444104E+03  0.7818608E-02  0.1064933E+00
          1   -1    0    0  502    0  0.00000000000E+00  0.00000000000E+00  0.16890213921E+04  0.16890213921E+04  0.00000000000E+00 0. -1.
         -1   -1    0    0    0  501 -0.00000000000E+00 -0.00000000000E+00 -0.99921292645E+02  0.99921292645E+02  0.00000000000E+00 0.  1.
          6    1    1    2  502    0  0.23220153409E+03 -0.18739519538E+03  0.30695612418E+03  0.46134647919E+03  0.17200000000E+03 0. -1.
         -6    1    1    2    0  501 -0.23220153409E+03  0.18739519538E+03  0.12821439752E+04  0.13275962055E+04  0.17200000000E+03 0.  1.
</event>
<event>
 4    1  0.3190379E-002  0.2279994E+03  0.7818608E-02  0.1128056E+00
         -1   -1    0    0    0  501 -0.00000000000E+00  0.00000000000E+00  0.13429724616E+04  0.13429724616E+04  0.00000000000E+00 0.  1.
          1   -1    0    0  502    0  0.00000000000E+00 -0.00000000000E+00 -0.38758277798E+02  0.38758277798E+02  0.00000000000E+00 0. -1.
          6    1    1    2  502    0 -0.11550989251E+03  0.95169197189E+02  0.67700217883E+03  0.71436381593E+03  0.17200000000E+03 0. -1.
         -6    1    1    2    0  501  0.11550989251E+03 -0.95169197189E+02  0.62721200492E+03  0.66736692343E+03  0.17200000000E+03 0.  1.
</event>
<event>
 4    1  0.3190379E-002  0.2719152E+03  0.7818608E-02  0.1100188E+00
          1   -1    0    0  502    0  0.00000000000E+00  0.00000000000E+00  0.12098158083E+04  0.12098158083E+04  0.00000000000E+00 0. -1.
         -1   -1    0    0    0  501 -0.00000000000E+00 -0.00000000000E+00 -0.29084000319E+03  0.29084000319E+03  0.00000000000E+00 0.  1.
          6    1    1    2  502    0  0.16805531763E+03  0.12693020945E+03  0.11263379421E+04  0.11586953990E+04  0.17200000000E+03 0. -1.
         -6    1    1    2    0  501 -0.16805531763E+03 -0.12693020945E+03 -0.20736213698E+03  0.34196041249E+03  0.17200000000E+03 0.  1.
</event>
<event>
 4    1  0.3190379E-002  0.2317835E+03  0.7818608E-02  0.1125391E+00
         -2   -1    0    0    0  501 -0.00000000000E+00  0.00000000000E+00  0.11493775105E+03  0.11493775105E+03  0.00000000000E+00 0.  1.
          2   -1    0    0  502    0  0.00000000000E+00 -0.00000000000E+00 -0.11955056737E+04  0.11955056737E+04  0.00000000000E+00 0. -1.
          6    1    1    2  502    0  0.54846494558E+02  0.14536657032E+03 -0.10516187329E+04  0.10768591074E+04  0.17200000000E+03 0. -1.
         -6    1    1    2    0  501 -0.54846494558E+02 -0.14536657032E+03 -0.28949189718E+02  0.23358431736E+03  0.17200000000E+03 0.  1.
</event>
<event>
 4    1  0.3190379E-002  0.2007985E+03  0.7818608E-02  0.1149067E+00
          2   -1    0    0  502    0  0.00000000000E+00  0.00000000000E+00  0.15903770409E+03  0.15903770409E+03  0.00000000000E+00 0. -1.
         -2   -1    0    0    0  501 -0.00000000000E+00 -0.00000000000E+00 -0.87909155595E+03  0.87909155595E+03  0.00000000000E+00 0.  1.
          6    1    1    2  502    0 -0.10329947021E+03  0.80778191977E+01  0.77838997725E+02  0.21535770540E+03  0.17200000000E+03 0. -1.
         -6    1    1    2    0  501  0.10329947021E+03 -0.80778191977E+01 -0.79789284959E+03  0.82277155465E+03  0.17200000000E+03 0.  1.
</event>
<event>
 4    1  0.3190379E-002  0.3323055E+03  0.7818608E-02  0.1070121E+00
          2   -1    0    0  502    0  0.00000000000E+00  0.00000000000E+00  0.36818139867E+03  0.36818139867E+03  0.00000000000E+00 0. -1.
         -2   -1    0    0    0  501 -0.00000000000E+00 -0.00000000000E+00 -0.42250931976E+03  0.42250931976E+03  0.00000000000E+00 0.  1.
          6    1    1    2  502    0 -0.19129443705E+03 -0.21035540405E+03  0.18578485541E+03  0.38071376408E+03  0.17200000000E+03 0. -1.
         -6    1    1    2    0  501  0.19129443705E+03  0.21035540405E+03 -0.24011277650E+03  0.40997695435E+03  0.17200000000E+03 0.  1.
</event>
<event>
 4    1  0.3190379E-002  0.2480716E+03  0.7818608E-02  0.1114530E+00
         -2   -1    0    0    0  501 -0.00000000000E+00  0.00000000000E+00  0.43714201473E+03  0.43714201473E+03  0.00000000000E+00 0.  1.
          2   -1    0    0  502    0  0.00000000000E+00 -0.00000000000E+00 -0.14343284149E+03  0.14343284149E+03  0.00000000000E+00 0. -1.
          6    1    1    2  502    0 -0.67335690393E+02  0.16559417456E+03  0.18635557042E+03  0.31027072771E+03  0.17200000000E+03 0.  1.
         -6    1    1    2    0  501  0.67335690393E+02 -0.16559417456E+03  0.10735360283E+03  0.27030412851E+03  0.17200000000E+03 0.  1.
</event>
<event>
 4    1  0.3190379E-002  0.1784648E+03  0.7818608E-02  0.1169297E+00
         -2   -1    0    0    0  501 -0.00000000000E+00  0.00000000000E+00  0.11450512008E+03  0.11450512008E+03  0.00000000000E+00 0.  1.
          2   -1    0    0  502    0  0.00000000000E+00 -0.00000000000E+00 -0.55305047630E+03  0.55305047630E+03  0.00000000000E+00 0. -1.
          6    1    1    2  502    0 -0.44637162429E+02 -0.16528874156E+02  0.16049169127E+02  0.17918497644E+03  0.17200000000E+03 0.  1.
         -6    1    1    2    0  501  0.44637162429E+02  0.16528874156E+02 -0.45459452534E+03  0.48837061994E+03  0.17200000000E+03 0. -1.
</event>
<event>
 4    1  0.3190379E-002  0.1740926E+03  0.7818608E-02  0.1173646E+00
         -1   -1    0    0    0  501 -0.00000000000E+00  0.00000000000E+00  0.46666980006E+03  0.46666980006E+03  0.00000000000E+00 0.  1.
          1   -1    0    0  502    0  0.00000000000E+00 -0.00000000000E+00 -0.71221877056E+02  0.71221877056E+02  0.00000000000E+00 0. -1.
          6    1    1    2  502    0  0.11155884354E+02  0.24490147469E+02  0.27756090777E+03  0.32764047155E+03  0.17200000000E+03 0.  1.
         -6    1    1    2    0  501 -0.11155884354E+02 -0.24490147469E+02  0.11788701524E+03  0.21025120556E+03  0.17200000000E+03 0. -1.
</event>
<event>
 4    1  0.3190379E-002  0.2138347E+03  0.7818608E-02  0.1138565E+00
          2   -1    0    0  502    0  0.00000000000E+00  0.00000000000E+00  0.26222699071E+04  0.26222699071E+04  0.00000000000E+00 0. -1.
         -2   -1    0    0    0  501 -0.00000000000E+00 -0.00000000000E+00 -0.36032367473E+02  0.36032367473E+02  0.00000000000E+00 0.  1.
          6    1    1    2  502    0  0.10846939298E+03 -0.66149000385E+02  0.22479505848E+04  0.22580981226E+04  0.17200000000E+03 0. -1.
         -6    1    1    2    0  501 -0.10846939298E+03  0.66149000385E+02  0.33828695478E+03  0.40020415195E+03  0.17200000000E+03 0.  1.
</event>
<event>
 4    1  0.3190379E-002  0.2288613E+03  0.7818608E-02  0.1127444E+00
          2   -1    0    0  502    0  0.00000000000E+00  0.00000000000E+00  0.39419320075E+03  0.39419320075E+03  0.00000000000E+00 0. -1.
         -2   -1    0    0    0  501 -0.00000000000E+00 -0.00000000000E+00 -0.13526619201E+03  0.13526619201E+03  0.00000000000E+00 0.  1.
          6    1    1    2  502    0  0.82679979418E+02 -0.12632305699E+03  0.16467860190E+03  0.28195130014E+03  0.17200000000E+03 0. -1.
         -6    1    1    2    0  501 -0.82679979418E+02  0.12632305699E+03  0.94248406835E+02  0.24750809262E+03  0.17200000000E+03 0.  1.
</event>
<event>
 4    1  0.3190379E-002  0.2727578E+03  0.7818608E-02  0.1099712E+00
          2   -1    0    0  502    0  0.00000000000E+00  0.00000000000E+00  0.55547061404E+03  0.55547061404E+03  0.00000000000E+00 0. -1.
         -2   -1    0    0    0  501 -0.00000000000E+00 -0.00000000000E+00 -0.14052758674E+03  0.14052758674E+03  0.00000000000E+00 0.  1.
          6    1    1    2  502    0 -0.11899215480E+03 -0.17508199117E+03  0.13209563665E+03  0.30306120464E+03  0.17200000000E+03 0. -1.
         -6    1    1    2    0  501  0.11899215480E+03  0.17508199117E+03  0.28284739065E+03  0.39293699613E+03  0.17200000000E+03 0.  1.
</event>
<event>
 4    1  0.3190379E-002  0.2653351E+03  0.7818608E-02  0.1103980E+00
         -2   -1    0    0    0  501 -0.00000000000E+00  0.00000000000E+00  0.15542921471E+03  0.15542921471E+03  0.00000000000E+00 0.  1.
          2   -1    0    0  502    0  0.00000000000E+00 -0.00000000000E+00 -0.47780652578E+03  0.47780652578E+03  0.00000000000E+00 0. -1.
          6    1    1    2  502    0 -0.81078272219E+02 -0.18505414009E+03 -0.23339412795E+03  0.35337733367E+03  0.17200000000E+03 0. -1.
         -6    1    1    2    0  501  0.81078272219E+02  0.18505414009E+03 -0.88983183116E+02  0.27985840682E+03  0.17200000000E+03 0.  1.
</event>
<event>
 4    1  0.3190379E-002  0.1821507E+03  0.7818608E-02  0.1165738E+00
         -2   -1    0    0    0  501 -0.00000000000E+00  0.00000000000E+00  0.12742733393E+02  0.12742733393E+02  0.00000000000E+00 0.  1.
          2   -1    0    0  502    0  0.00000000000E+00 -0.00000000000E+00 -0.26478246407E+04  0.26478246407E+04  0.00000000000E+00 0. -1.
          6    1    1    2  502    0  0.52641734892E+02  0.28700617534E+02 -0.14891734834E+04  0.15002721557E+04  0.17200000000E+03 0. -1.
         -6    1    1    2    0  501 -0.52641734892E+02 -0.28700617534E+02 -0.11459084240E+04  0.11602952184E+04  0.17200000000E+03 0.  1.
</event>
<event>
 4    1  0.3190379E-002  0.1786519E+03  0.7818608E-02  0.1169114E+00
          1   -1    0    0  502    0  0.00000000000E+00  0.00000000000E+00  0.30661417048E+04  0.30661417048E+04  0.00000000000E+00 0. -1.
         -1   -1    0    0    0  501 -0.00000000000E+00 -0.00000000000E+00 -0.10566632230E+02  0.10566632230E+02  0.00000000000E+00 0.  1.
          6    1    1    2  502    0  0.48076979315E+02 -0.45938688281E+01  0.17154800884E+04  0.17247574998E+04  0.17200000000E+03 0. -1.
         -6    1    1    2    0  501 -0.48076979315E+02  0.45938688281E+01  0.13400949841E+04  0.13519508372E+04  0.17200000000E+03 0.  1.
</event>
<event>
 4    1  0.3190379E-002  0.2467595E+03  0.7818608E-02  0.1115370E+00
         -1   -1    0    0    0  501 -0.00000000000E+00  0.00000000000E+00  0.20331365001E+03  0.20331365001E+03  0.00000000000E+00 0.  1.
          1   -1    0    0  502    0  0.00000000000E+00 -0.00000000000E+00 -0.31414914376E+03  0.31414914376E+03  0.00000000000E+00 0. -1.
          6    1    1    2  502    0 -0.17120972246E+03  0.44648686928E+02 -0.11130915096E+03  0.27070279163E+03  0.17200000000E+03 0.  1.
         -6    1    1    2    0  501  0.17120972246E+03 -0.44648686928E+02  0.47365720761E+00  0.24676000215E+03  0.17200000000E+03 0. -1.
</event>
<event>
 4    1  0.3190379E-002  0.1961388E+03  0.7818608E-02  0.1153038E+00
          2   -1    0    0  502    0  0.00000000000E+00  0.00000000000E+00  0.20073529939E+04  0.20073529939E+04  0.00000000000E+00 0. -1.
         -2   -1    0    0    0  501 -0.00000000000E+00 -0.00000000000E+00 -0.71727601497E+02  0.71727601497E+02  0.00000000000E+00 0.  1.
          6    1    1    2  502    0  0.20265333858E+02 -0.92063785326E+02  0.18577053494E+04  0.18680309391E+04  0.17200000000E+03 0. -1.
         -6    1    1    2    0  501 -0.20265333858E+02  0.92063785326E+02  0.77920043050E+02  0.21104965632E+03  0.17200000000E+03 0.  1.
</event>
<event>
 4    1  0.3190379E-002  0.6443996E+03  0.7818608E-02  0.9817345E-01
         -2   -1    0    0    0  501 -0.00000000000E+00  0.00000000000E+00  0.22847683555E+03  0.22847683555E+03  0.00000000000E+00 0.  1.
          2   -1    0    0  502    0  0.00000000000E+00 -0.00000000000E+00 -0.18334058271E+04  0.18334058271E+04  0.00000000000E+00 0. -1.
          6    1    1    2  502    0 -0.59635662001E+03 -0.17327886862E+03 -0.89856659772E+03  0.11057453211E+04  0.17200000000E+03 0. -1.
         -6    1    1    2    0  501  0.59635662001E+03  0.17327886862E+03 -0.70636239386E+03  0.95613734159E+03  0.17200000000E+03 0.  1.
</event>
<event>
 4    1  0.3190379E-002  0.2254919E+03  0.7818608E-02  0.1129854E+00
         -1   -1    0    0    0  501 -0.00000000000E+00  0.00000000000E+00  0.43771882776E+02  0.43771882776E+02  0.00000000000E+00 0.  1.
          1   -1    0    0  502    0  0.00000000000E+00 -0.00000000000E+00 -0.17568479161E+04  0.17568479161E+04  0.00000000000E+00 0. -1.
          6    1    1    2  502    0  0.13739384655E+03 -0.48841982104E+02 -0.33249857921E+03  0.40174856995E+03  0.17200000000E+03 0. -1.
         -6    1    1    2    0  501 -0.13739384655E+03  0.48841982104E+02 -0.13805774542E+04  0.13988712290E+04  0.17200000000E+03 0.  1.
</event>
<event>
 4    1  0.3190379E-002  0.1949913E+03  0.7818608E-02  0.1154035E+00
          2   -1    0    0  502    0  0.00000000000E+00  0.00000000000E+00  0.71182608241E+03  0.71182608241E+03  0.00000000000E+00 0. -1.
         -2   -1    0    0    0  501 -0.00000000000E+00 -0.00000000000E+00 -0.62260319774E+02  0.62260319774E+02  0.00000000000E+00 0.  1.
          6    1    1    2  502    0 -0.88549172079E+02 -0.24426172650E+02  0.47067475646E+03  0.50946670171E+03  0.17200000000E+03 0. -1.
         -6    1    1    2    0  501  0.88549172079E+02  0.24426172650E+02  0.17889100618E+03  0.26461970047E+03  0.17200000000E+03 0.  1.
</event>
<event>
 4    1  0.3190379E-002  0.4176440E+03  0.7818608E-02  0.1037836E+00
         -1   -1    0    0    0  501 -0.00000000000E+00  0.00000000000E+00  0.15761765479E+03  0.15761765479E+03  0.00000000000E+00 0.  1.
          1   -1    0    0  502    0  0.00000000000E+00 -0.00000000000E+00 -0.22210141011E+04  0.22210141011E+04  0.00000000000E+00 0. -1.
          6    1    1    2  502    0  0.28222157396E+03  0.25533023528E+03 -0.18741332024E+04  0.19201046342E+04  0.17200000000E+03 0. -1.
         -6    1    1    2    0  501 -0.28222157396E+03 -0.25533023528E+03 -0.18926324391E+03  0.45852712172E+03  0.17200000000E+03 0.  1.
</event>
<event>
 4    1  0.3190379E-002  0.2817931E+03  0.7818608E-02  0.1094714E+00
          2   -1    0    0  502    0  0.00000000000E+00  0.00000000000E+00  0.20815727115E+04  0.20815727115E+04  0.00000000000E+00 0. -1.
         -2   -1    0    0    0  501 -0.00000000000E+00 -0.00000000000E+00 -0.39289903954E+02  0.39289903954E+02  0.00000000000E+00 0.  1.
          6    1    1    2  502    0  0.76887584868E+02 -0.20955107661E+03  0.12019423996E+04  0.12345334691E+04  0.17200000000E+03 0. -1.
         -6    1    1    2    0  501 -0.76887584868E+02  0.20955107661E+03  0.84034040791E+03  0.88632914630E+03  0.17200000000E+03 0. -1.
</event>
<event>
 4    1  0.3190379E-002  0.3765085E+03  0.7818608E-02  0.1052232E+00
          1   -1    0    0  502    0  0.00000000000E+00  0.00000000000E+00  0.15786039934E+04  0.15786039934E+04  0.00000000000E+00 0. -1.
         -1   -1    0    0    0  501 -0.00000000000E+00 -0.00000000000E+00 -0.59261068373E+03  0.59261068373E+03  0.00000000000E+00 0.  1.
          6    1    1    2  502    0  0.26261614834E+03 -0.20786393558E+03  0.14929742636E+04  0.15397177692E+04  0.17200000000E+03 0. -1.
         -6    1    1    2    0  501 -0.26261614834E+03  0.20786393558E+03 -0.50698095392E+03  0.63149690793E+03  0.17200000000E+03 0.  1.
</event>
<event>
 4    1  0.3190379E-002  0.1861250E+03  0.7818608E-02  0.1162003E+00
          2   -1    0    0  502    0  0.00000000000E+00  0.00000000000E+00  0.33727335514E+03  0.33727335514E+03  0.00000000000E+00 0. -1.
         -2   -1    0    0    0  501 -0.00000000000E+00 -0.00000000000E+00 -0.14492778103E+03  0.14492778103E+03  0.00000000000E+00 0.  1.
          6    1    1    2  502    0 -0.69294100783E+02 -0.16026780981E+02  0.22629518549E+03  0.29300518953E+03  0.17200000000E+03 0. -1.
         -6    1    1    2    0  501  0.69294100783E+02  0.16026780981E+02 -0.33949611388E+02  0.18919594664E+03  0.17200000000E+03 0.  1.
</event>
<event>
 4    1  0.3190379E-002  0.3075793E+03  0.7818608E-02  0.1081512E+00
          2   -1    0    0  502    0  0.00000000000E+00  0.00000000000E+00  0.23206837853E+04  0.23206837853E+04  0.00000000000E+00 0. -1.
         -2   -1    0    0    0  501 -0.00000000000E+00 -0.00000000000E+00 -0.42916109122E+02  0.42916109122E+02  0.00000000000E+00 0.  1.
          6    1    1    2  502    0 -0.20065815050E+03 -0.15734461544E+03  0.14034065141E+04  0.14367166963E+04  0.17200000000E+03 0. -1.
         -6    1    1    2    0  501  0.20065815050E+03  0.15734461544E+03  0.87436116208E+03  0.92688319821E+03  0.17200000000E+03 0.  1.
</event>
<event>
 4    1  0.3190379E-002  0.2597448E+03  0.7818608E-02  0.1107297E+00
          1   -1    0    0  502    0  0.00000000000E+00  0.00000000000E+00  0.11682669227E+04  0.11682669227E+04  0.00000000000E+00 0. -1.
         -1   -1    0    0    0  501 -0.00000000000E+00 -0.00000000000E+00 -0.72446321904E+02  0.72446321904E+02  0.00000000000E+00 0.  1.
          6    1    1    2  502    0 -0.14538509553E+03 -0.12940848412E+03  0.26850284014E+03  0.37357884968E+03  0.17200000000E+03 0. -1.
         -6    1    1    2    0  501  0.14538509553E+03  0.12940848412E+03  0.82731776063E+03  0.86713439490E+03  0.17200000000E+03 0. -1.
</event>
<event>
 4    1  0.3190379E-002  0.1839899E+03  0.7818608E-02  0.1163997E+00
          2   -1    0    0  502    0  0.00000000000E+00  0.00000000000E+00  0.46685033063E+03  0.46685033063E+03  0.00000000000E+00 0. -1.
         -2   -1    0    0    0  501 -0.00000000000E+00 -0.00000000000E+00 -0.81493935378E+02  0.81493935378E+02  0.00000000000E+00 0.  1.
          6    1    1    2  502    0 -0.62072098036E+02 -0.20379814362E+02  0.10165669044E+03  0.21020553014E+03  0.17200000000E+03 0.  1.
         -6    1    1    2    0  501  0.62072098036E+02  0.20379814362E+02  0.28369970481E+03  0.33813873587E+03  0.17200000000E+03 0. -1.
</event>
<event>
 4    1  0.3190379E-002  0.2567167E+03  0.7818608E-02  0.1109132E+00
          1   -1    0    0  502    0  0.00000000000E+00  0.00000000000E+00  0.39833578160E+03  0.39833578160E+03  0.00000000000E+00 0. -1.
         -1   -1    0    0    0  501 -0.00000000000E+00 -0.00000000000E+00 -0.16621027174E+03  0.16621027174E+03  0.00000000000E+00 0.  1.
          6    1    1    2  502    0 -0.17980407783E+03  0.63166212523E+02  0.13519068949E+03  0.29013789710E+03  0.17200000000E+03 0. -1.
         -6    1    1    2    0  501  0.17980407783E+03 -0.63166212523E+02  0.96934820376E+02  0.27440815624E+03  0.17200000000E+03 0.  1.
</event>
<event>
 4    1  0.3190379E-002  0.2280292E+03  0.7818608E-02  0.1128035E+00
         -2   -1    0    0    0  501 -0.00000000000E+00  0.00000000000E+00  0.71129534030E+02  0.71129534030E+02  0.00000000000E+00 0.  1.
          2   -1    0    0  502    0  0.00000000000E+00 -0.00000000000E+00 -0.10908241904E+04  0.10908241904E+04  0.00000000000E+00 0. -1.
          6    1    1    2  502    0  0.14943198285E+03  0.91330356335E+01 -0.84351391307E+03  0.87379233882E+03  0.17200000000E+03 0. -1.
         -6    1    1    2    0  501 -0.14943198285E+03 -0.91330356335E+01 -0.17618074327E+03  0.28816138558E+03  0.17200000000E+03 0.  1.
</event>
<event>
 4    1  0.3190379E-002  0.1901747E+03  0.7818608E-02  0.1158304E+00
         -4   -1    0    0    0  501 -0.00000000000E+00  0.00000000000E+00  0.53765914227E+03  0.53765914227E+03  0.00000000000E+00 0.  1.
          4   -1    0    0  502    0  0.00000000000E+00 -0.00000000000E+00 -0.81010665972E+02  0.81010665972E+02  0.00000000000E+00 0. -1.
          6    1    1    2  502    0 -0.99410756165E+01 -0.80520718468E+02  0.10090995177E+03  0.21528871186E+03  0.17200000000E+03 0. -1.
         -6    1    1    2    0  501  0.99410756165E+01  0.80520718468E+02  0.35573852453E+03  0.40338109639E+03  0.17200000000E+03 0.  1.
</event>
<event>
 4    1  0.3190379E-002  0.1877755E+03  0.7818608E-02  0.1160483E+00
         -1   -1    0    0    0  501 -0.00000000000E+00  0.00000000000E+00  0.65289649915E+02  0.65289649915E+02  0.00000000000E+00 0.  1.
          1   -1    0    0  502    0  0.00000000000E+00 -0.00000000000E+00 -0.56956406664E+03  0.56956406664E+03  0.00000000000E+00 0. -1.
          6    1    1    2  502    0 -0.72131420671E+01 -0.74990838764E+02 -0.32439574692E+03  0.37482296613E+03  0.17200000000E+03 0.  1.
         -6    1    1    2    0  501  0.72131420671E+01  0.74990838764E+02 -0.17987866980E+03  0.26003075043E+03  0.17200000000E+03 0.  1.
</event>
<event>
 4    1  0.3190379E-002  0.1802133E+03  0.7818608E-02  0.1167597E+00
          1   -1    0    0  502    0  0.00000000000E+00  0.00000000000E+00  0.34519397161E+04  0.34519397161E+04  0.00000000000E+00 0. -1.
         -1   -1    0    0    0  501 -0.00000000000E+00 -0.00000000000E+00 -0.14723733825E+02  0.14723733825E+02  0.00000000000E+00 0.  1.
          6    1    1    2  502    0  0.53048899503E+02 -0.88678376983E+01  0.27600684285E+04  0.27659455082E+04  0.17200000000E+03 0. -1.
         -6    1    1    2    0  501 -0.53048899503E+02  0.88678376983E+01  0.67714755380E+03  0.70071794176E+03  0.17200000000E+03 0.  1.
</event>
<event>
 4    1  0.3190379E-002  0.4347754E+03  0.7818608E-02  0.1032362E+00
         -2   -1    0    0    0  501 -0.00000000000E+00  0.00000000000E+00  0.53507385327E+03  0.53507385327E+03  0.00000000000E+00 0.  1.
          2   -1    0    0  502    0  0.00000000000E+00 -0.00000000000E+00 -0.35371790455E+03  0.35371790455E+03  0.00000000000E+00 0. -1.
          6    1    1    2  502    0  0.22364298347E+03 -0.33080126654E+03  0.10635512449E+03  0.44759476595E+03  0.17200000000E+03 0. -1.
         -6    1    1    2    0  501 -0.22364298347E+03  0.33080126654E+03  0.75000824224E+02  0.44119699187E+03  0.17200000000E+03 0.  1.
</event>
<event>
 4    1  0.3190379E-002  0.2243461E+03  0.7818608E-02  0.1130684E+00
         -2   -1    0    0    0  501 -0.00000000000E+00  0.00000000000E+00  0.15995333816E+02  0.15995333816E+02  0.00000000000E+00 0.  1.
          2   -1    0    0  502    0  0.00000000000E+00 -0.00000000000E+00 -0.33532978241E+04  0.33532978241E+04  0.00000000000E+00 0. -1.
          6    1    1    2  502    0  0.13252127218E+02  0.14342786309E+03 -0.20868897848E+04  0.20989140393E+04  0.17200000000E+03 0. -1.
         -6    1    1    2    0  501 -0.13252127218E+02 -0.14342786309E+03 -0.12504127055E+04  0.12703791186E+04  0.17200000000E+03 0.  1.
</event>
<event>
 4    1  0.3190379E-002  0.3859497E+03  0.7818608E-02  0.1048756E+00
         -1   -1    0    0    0  501 -0.00000000000E+00  0.00000000000E+00  0.61388499396E+02  0.61388499396E+02  0.00000000000E+00 0.  1.
          1   -1    0    0  502    0  0.00000000000E+00 -0.00000000000E+00 -0.29846067216E+04  0.29846067216E+04  0.00000000000E+00 0. -1.
          6    1    1    2  502    0 -0.24991751902E+03  0.23856737709E+03 -0.21202173868E+04  0.21550589150E+04  0.17200000000E+03 0.  1.
         -6    1    1    2    0  501  0.24991751902E+03 -0.23856737709E+03 -0.80300083541E+03  0.89093630602E+03  0.17200000000E+03 0.  1.
</event>
<event>
 4    1  0.3190379E-002  0.6420896E+03  0.7818608E-02  0.9821737E-01
         -1   -1    0    0    0  501 -0.00000000000E+00  0.00000000000E+00  0.57635886268E+03  0.57635886268E+03  0.00000000000E+00 0.  1.
          1   -1    0    0  502    0  0.00000000000E+00 -0.00000000000E+00 -0.76770128936E+03  0.76770128936E+03  0.00000000000E+00 0. -1.
          6    1    1    2  502    0 -0.60510096126E+03 -0.12863848462E+03 -0.27121884305E+03  0.69702130087E+03  0.17200000000E+03 0. -1.
         -6    1    1    2    0  501  0.60510096126E+03  0.12863848462E+03  0.79876416373E+02  0.64703885117E+03  0.17200000000E+03 0.  1.
</event>
<event>
 4    1  0.3190379E-002  0.2327137E+03  0.7818608E-02  0.1124744E+00
         -2   -1    0    0    0  501 -0.00000000000E+00  0.00000000000E+00  0.14966673792E+03  0.14966673792E+03  0.00000000000E+00 0.  1.
          2   -1    0    0  502    0  0.00000000000E+00 -0.00000000000E+00 -0.52492798502E+03  0.52492798502E+03  0.00000000000E+00 0. -1.
          6    1    1    2  502    0 -0.13867661464E+03  0.73078322986E+02 -0.37563674827E+03  0.44188076603E+03  0.17200000000E+03 0. -1.
         -6    1    1    2    0  501  0.13867661464E+03 -0.73078322986E+02  0.37550116879E+00  0.23271395691E+03  0.17200000000E+03 0.  1.
</event>
<event>
 4    1  0.3190379E-002  0.2156615E+03  0.7818608E-02  0.1137160E+00
         -1   -1    0    0    0  501 -0.00000000000E+00  0.00000000000E+00  0.16112803388E+03  0.16112803388E+03  0.00000000000E+00 0.  1.
          1   -1    0    0  502    0  0.00000000000E+00 -0.00000000000E+00 -0.44921635846E+03  0.44921635846E+03  0.00000000000E+00 0. -1.
          6    1    1    2  502    0  0.12949680403E+03  0.12507778398E+02 -0.32649349532E+03  0.39129000660E+03  0.17200000000E+03 0. -1.
         -6    1    1    2    0  501 -0.12949680403E+03 -0.12507778398E+02  0.38405170738E+02  0.21905438575E+03  0.17200000000E+03 0.  1.
</event>
<event>
 4    1  0.3190379E-002  0.1990957E+03  0.7818608E-02  0.1150504E+00
          2   -1    0    0  502    0  0.00000000000E+00  0.00000000000E+00  0.23550329176E+04  0.23550329176E+04  0.00000000000E+00 0. -1.
         -2   -1    0    0    0  501 -0.00000000000E+00 -0.00000000000E+00 -0.20128316063E+02  0.20128316063E+02  0.00000000000E+00 0.  1.
          6    1    1    2  502    0  0.60586212227E+02  0.79902475647E+02  0.16480666357E+04  0.16600490145E+04  0.17200000000E+03 0. -1.
         -6    1    1    2    0  501 -0.60586212227E+02 -0.79902475647E+02  0.68683796583E+03  0.71511221919E+03  0.17200000000E+03 0.  1.
</event>
<event>
 4    1  0.3190379E-002  0.4882888E+03  0.7818608E-02  0.1016882E+00
          2   -1    0    0  502    0  0.00000000000E+00  0.00000000000E+00  0.79235420756E+03  0.79235420756E+03  0.00000000000E+00 0. -1.
         -2   -1    0    0    0  501 -0.00000000000E+00 -0.00000000000E+00 -0.33208191522E+03  0.33208191522E+03  0.00000000000E+00 0.  1.
          6    1    1    2  502    0  0.45528177272E+03  0.39502332773E+02  0.57879480598E+02  0.49170719045E+03  0.17200000000E+03 0. -1.
         -6    1    1    2    0  501 -0.45528177272E+03 -0.39502332773E+02  0.40239281175E+03  0.63272893233E+03  0.17200000000E+03 0.  1.
</event>
<event>
 4    1  0.3190379E-002  0.5636980E+03  0.7818608E-02  0.9983722E-01
         -2   -1    0    0    0  501 -0.00000000000E+00  0.00000000000E+00  0.14866135651E+03  0.14866135651E+03  0.00000000000E+00 0.  1.
          2   -1    0    0  502    0  0.00000000000E+00 -0.00000000000E+00 -0.21520607328E+04  0.21520607328E+04  0.00000000000E+00 0. -1.
          6    1    1    2  502    0 -0.12357707852E+03  0.52239848821E+03 -0.90689778876E+03  0.10678104111E+04  0.17200000000E+03 0. -1.
         -6    1    1    2    0  501  0.12357707852E+03 -0.52239848821E+03 -0.10965015876E+04  0.12329116783E+04  0.17200000000E+03 0.  1.
</event>
<event>
 4    1  0.3190379E-002  0.2325816E+03  0.7818608E-02  0.1124836E+00
         -2   -1    0    0    0  501 -0.00000000000E+00  0.00000000000E+00  0.14329806874E+03  0.14329806874E+03  0.00000000000E+00 0.  1.
          2   -1    0    0  502    0  0.00000000000E+00 -0.00000000000E+00 -0.50073555154E+03  0.50073555154E+03  0.00000000000E+00 0. -1.
          6    1    1    2  502    0 -0.15556093507E+03 -0.17634603767E+02 -0.18964414094E+02  0.23335345031E+03  0.17200000000E+03 0.  1.
         -6    1    1    2    0  501  0.15556093507E+03  0.17634603767E+02 -0.33847306871E+03  0.41068016998E+03  0.17200000000E+03 0. -1.
</event>
<event>
 4    1  0.3190379E-002  0.2080449E+03  0.7818608E-02  0.1143124E+00
          2   -1    0    0  502    0  0.00000000000E+00  0.00000000000E+00  0.15814055966E+04  0.15814055966E+04  0.00000000000E+00 0. -1.
         -2   -1    0    0    0  501 -0.00000000000E+00 -0.00000000000E+00 -0.10916410853E+03  0.10916410853E+03  0.00000000000E+00 0.  1.
          6    1    1    2  502    0  0.15223465013E+02 -0.11604701145E+03  0.14678069163E+04  0.14824775905E+04  0.17200000000E+03 0. -1.
         -6    1    1    2    0  501 -0.15223465013E+02  0.11604701145E+03  0.44345717867E+01  0.20809211465E+03  0.17200000000E+03 0.  1.
</event>
<event>
 4    1  0.3190379E-002  0.1925668E+03  0.7818608E-02  0.1156166E+00
          1   -1    0    0  502    0  0.00000000000E+00  0.00000000000E+00  0.11953862827E+03  0.11953862827E+03  0.00000000000E+00 0. -1.
         -1   -1    0    0    0  501 -0.00000000000E+00 -0.00000000000E+00 -0.31028360459E+03  0.31028360459E+03  0.00000000000E+00 0.  1.
          6    1    1    2  502    0 -0.71012404167E+02  0.49549960874E+02 -0.92040390794E+02  0.21343241016E+03  0.17200000000E+03 0. -1.
         -6    1    1    2    0  501  0.71012404167E+02 -0.49549960874E+02 -0.98704585522E+02  0.21638982271E+03  0.17200000000E+03 0. -1.
</event>
<event>
 4    1  0.3190379E-002  0.2125192E+03  0.7818608E-02  0.1139586E+00
         -1   -1    0    0    0  501 -0.00000000000E+00  0.00000000000E+00  0.93590300454E+02  0.93590300454E+02  0.00000000000E+00 0.  1.
          1   -1    0    0  502    0  0.00000000000E+00 -0.00000000000E+00 -0.48307749723E+03  0.48307749723E+03  0.00000000000E+00 0. -1.
          6    1    1    2  502    0  0.11301558227E+03  0.52989509309E+02 -0.20403598962E+03  0.29461007280E+03  0.17200000000E+03 0. -1.
         -6    1    1    2    0  501 -0.11301558227E+03 -0.52989509309E+02 -0.18545120715E+03  0.28205772488E+03  0.17200000000E+03 0.  1.
</event>
<event>
 4    1  0.3190379E-002  0.3856069E+03  0.7818608E-02  0.1048881E+00
          2   -1    0    0  502    0  0.00000000000E+00  0.00000000000E+00  0.19098404996E+04  0.19098404996E+04  0.00000000000E+00 0. -1.
         -2   -1    0    0    0  501 -0.00000000000E+00 -0.00000000000E+00 -0.79000905854E+02  0.79000905854E+02  0.00000000000E+00 0.  1.
          6    1    1    2  502    0  0.10269960384E+03  0.32948670122E+03  0.79571161986E+03  0.88422263989E+03  0.17200000000E+03 0. -1.
         -6    1    1    2    0  501 -0.10269960384E+03 -0.32948670122E+03  0.10351279739E+04  0.11046187656E+04  0.17200000000E+03 0.  1.
</event>
<event>
 4    1  0.3190379E-002  0.4487789E+03  0.7818608E-02  0.1028087E+00
          2   -1    0    0  502    0  0.00000000000E+00  0.00000000000E+00  0.18201593832E+03  0.18201593832E+03  0.00000000000E+00 0. -1.
         -2   -1    0    0    0  501 -0.00000000000E+00 -0.00000000000E+00 -0.11542598923E+04  0.11542598923E+04  0.00000000000E+00 0.  1.
          6    1    1    2  502    0  0.41216039362E+03  0.44071318312E+02 -0.35022802396E+03  0.56926456058E+03  0.17200000000E+03 0. -1.
         -6    1    1    2    0  501 -0.41216039362E+03 -0.44071318312E+02 -0.62201592997E+03  0.76701127000E+03  0.17200000000E+03 0.  1.
</event>
<event>
 4    1  0.3190379E-002  0.3962540E+03  0.7818608E-02  0.1045085E+00
          2   -1    0    0  502    0  0.00000000000E+00  0.00000000000E+00  0.17553102176E+04  0.17553102176E+04  0.00000000000E+00 0. -1.
         -2   -1    0    0    0  501 -0.00000000000E+00 -0.00000000000E+00 -0.27322948174E+03  0.27322948174E+03  0.00000000000E+00 0.  1.
          6    1    1    2  502    0  0.53584954506E+02  0.35293331454E+03 -0.90790505144E+02  0.40652206298E+03  0.17200000000E+03 0. -1.
         -6    1    1    2    0  501 -0.53584954506E+02 -0.35293331454E+03  0.15728712410E+04  0.16220176363E+04  0.17200000000E+03 0.  1.
</event>
<event>
 4    1  0.3190379E-002  0.2729307E+03  0.7818608E-02  0.1099614E+00
         -1   -1    0    0    0  501 -0.00000000000E+00  0.00000000000E+00  0.91753973615E+02  0.91753973615E+02  0.00000000000E+00 0.  1.
          1   -1    0    0  502    0  0.00000000000E+00 -0.00000000000E+00 -0.13227564730E+04  0.13227564730E+04  0.00000000000E+00 0. -1.
          6    1    1    2  502    0 -0.16367053073E+03  0.13460738132E+03 -0.10550464623E+04  0.10897771457E+04  0.17200000000E+03 0. -1.
         -6    1    1    2    0  501  0.16367053073E+03 -0.13460738132E+03 -0.17595603714E+03  0.32473330094E+03  0.17200000000E+03 0.  1.
</event>
<event>
 4    1  0.3190379E-002  0.1786929E+03  0.7818608E-02  0.1169074E+00
          2   -1    0    0  502    0  0.00000000000E+00  0.00000000000E+00  0.42516986029E+03  0.42516986029E+03  0.00000000000E+00 0. -1.
         -2   -1    0    0    0  501 -0.00000000000E+00 -0.00000000000E+00 -0.75145329701E+02  0.75145329701E+02  0.00000000000E+00 0.  1.
          6    1    1    2  502    0  0.23575592676E+02  0.42324354830E+02  0.18101063281E+03  0.25435410115E+03  0.17200000000E+03 0.  1.
         -6    1    1    2    0  501 -0.23575592676E+02 -0.42324354830E+02  0.16901389778E+03  0.24596108884E+03  0.17200000000E+03 0.  1.
</event>
<event>
 4    1  0.3190379E-002  0.1754650E+03  0.7818608E-02  0.1172266E+00
          2   -1    0    0  502    0  0.00000000000E+00  0.00000000000E+00  0.42316553809E+03  0.42316553809E+03  0.00000000000E+00 0. -1.
         -2   -1    0    0    0  501 -0.00000000000E+00 -0.00000000000E+00 -0.87539053121E+02  0.87539053121E+02  0.00000000000E+00 0.  1.
          6    1    1    2  502    0 -0.84435493480E+01  0.33655050279E+02  0.62879150951E+02  0.18639137201E+03  0.17200000000E+03 0.  1.
         -6    1    1    2    0  501  0.84435493480E+01 -0.33655050279E+02  0.27274733402E+03  0.32431321920E+03  0.17200000000E+03 0. -1.
</event>
<event>
 4    1  0.3190379E-002  0.2351146E+03  0.7818608E-02  0.1123091E+00
         -2   -1    0    0    0  501 -0.00000000000E+00  0.00000000000E+00  0.53449224857E+02  0.53449224857E+02  0.00000000000E+00 0.  1.
          2   -1    0    0  502    0  0.00000000000E+00 -0.00000000000E+00 -0.31633716212E+04  0.31633716212E+04  0.00000000000E+00 0. -1.
          6    1    1    2  502    0 -0.15262314381E+03 -0.49000376365E+02 -0.28745053151E+04  0.28841046561E+04  0.17200000000E+03 0. -1.
         -6    1    1    2    0  501  0.15262314381E+03  0.49000376365E+02 -0.23541708126E+03  0.33271618996E+03  0.17200000000E+03 0.  1.
</event>
<event>
 4    1  0.3190379E-002  0.2079608E+03  0.7818608E-02  0.1143191E+00
          1   -1    0    0  502    0  0.00000000000E+00  0.00000000000E+00  0.14326417419E+04  0.14326417419E+04  0.00000000000E+00 0. -1.
         -1   -1    0    0    0  501 -0.00000000000E+00 -0.00000000000E+00 -0.46384353853E+02  0.46384353853E+02  0.00000000000E+00 0.  1.
          6    1    1    2  502    0  0.97661878171E+02  0.64232820210E+02  0.11301242841E+04  0.11490990363E+04  0.17200000000E+03 0. -1.
         -6    1    1    2    0  501 -0.97661878171E+02 -0.64232820210E+02  0.25613310392E+03  0.32992705946E+03  0.17200000000E+03 0.  1.
</event>
<event>
 4    1  0.3190379E-002  0.1927189E+03  0.7818608E-02  0.1156032E+00
          2   -1    0    0  502    0  0.00000000000E+00  0.00000000000E+00  0.67603806137E+03  0.67603806137E+03  0.00000000000E+00 0. -1.
         -2   -1    0    0    0  501 -0.00000000000E+00 -0.00000000000E+00 -0.10168423941E+03  0.10168423941E+03  0.00000000000E+00 0.  1.
          6    1    1    2  502    0  0.12253856584E+02 -0.86060563373E+02  0.55083332156E+03  0.58357341073E+03  0.17200000000E+03 0. -1.
         -6    1    1    2    0  501 -0.12253856584E+02  0.86060563373E+02  0.23520500391E+02  0.19414889005E+03  0.17200000000E+03 0.  1.
</event>
<event>
 4    1  0.3190379E-002  0.3646982E+03  0.7818608E-02  0.1056739E+00
          2   -1    0    0  502    0  0.00000000000E+00  0.00000000000E+00  0.71600610495E+03  0.71600610495E+03  0.00000000000E+00 0. -1.
         -2   -1    0    0    0  501 -0.00000000000E+00 -0.00000000000E+00 -0.26910635741E+03  0.26910635741E+03  0.00000000000E+00 0.  1.
          6    1    1    2  502    0 -0.16719939112E+03 -0.27470915442E+03  0.49756885487E+03  0.61691127503E+03  0.17200000000E+03 0. -1.
         -6    1    1    2    0  501  0.16719939112E+03  0.27470915442E+03 -0.50669107339E+02  0.36820118733E+03  0.17200000000E+03 0.  1.
</event>
<event>
 4    1  0.3190379E-002  0.2310150E+03  0.7818608E-02  0.1125927E+00
          2   -1    0    0  502    0  0.00000000000E+00  0.00000000000E+00  0.41781970991E+03  0.41781970991E+03  0.00000000000E+00 0. -1.
         -2   -1    0    0    0  501 -0.00000000000E+00 -0.00000000000E+00 -0.21761839777E+03  0.21761839777E+03  0.00000000000E+00 0.  1.
          6    1    1    2  502    0 -0.96221003724E+02 -0.12052155163E+03  0.30429718200E+03  0.38205326977E+03  0.17200000000E+03 0. -1.
         -6    1    1    2    0  501  0.96221003724E+02  0.12052155163E+03 -0.10409586987E+03  0.25338483792E+03  0.17200000000E+03 0.  1.
</event>
<event>
 4    1  0.3190379E-002  0.3191966E+03  0.7818608E-02  0.1076020E+00
          1   -1    0    0  502    0  0.00000000000E+00  0.00000000000E+00  0.64821071332E+03  0.64821071332E+03  0.00000000000E+00 0. -1.
         -1   -1    0    0    0  501 -0.00000000000E+00 -0.00000000000E+00 -0.19934448634E+03  0.19934448634E+03  0.00000000000E+00 0.  1.
          6    1    1    2  502    0  0.26888606062E+03  0.16584271993E+01  0.41932945916E+03  0.52699493289E+03  0.17200000000E+03 0. -1.
         -6    1    1    2    0  501 -0.26888606062E+03 -0.16584271993E+01  0.29536767825E+02  0.32056026677E+03  0.17200000000E+03 0.  1.
</event>
<event>
 4    1  0.3190379E-002  0.2614496E+03  0.7818608E-02  0.1106275E+00
          2   -1    0    0  502    0  0.00000000000E+00  0.00000000000E+00  0.28134918885E+04  0.28134918885E+04  0.00000000000E+00 0. -1.
         -2   -1    0    0    0  501 -0.00000000000E+00 -0.00000000000E+00 -0.49407315623E+02  0.49407315623E+02  0.00000000000E+00 0.  1.
          6    1    1    2  502    0 -0.68194296324E+02 -0.18471986989E+03  0.24025524580E+04  0.24167362715E+04  0.17200000000E+03 0. -1.
         -6    1    1    2    0  501  0.68194296324E+02  0.18471986989E+03  0.36153211484E+03  0.44616293262E+03  0.17200000000E+03 0.  1.
</event>
<event>
 4    1  0.3190379E-002  0.2254754E+03  0.7818608E-02  0.1129866E+00
         -2   -1    0    0    0  501 -0.00000000000E+00  0.00000000000E+00  0.22776427886E+02  0.22776427886E+02  0.00000000000E+00 0.  1.
          2   -1    0    0  502    0  0.00000000000E+00 -0.00000000000E+00 -0.38031267182E+04  0.38031267182E+04  0.00000000000E+00 0. -1.
          6    1    1    2  502    0  0.13582421633E+03  0.52980456117E+02 -0.31196682025E+04  0.31278057549E+04  0.17200000000E+03 0. -1.
         -6    1    1    2    0  501 -0.13582421633E+03 -0.52980456117E+02 -0.66068208780E+03  0.69809739121E+03  0.17200000000E+03 0.  1.
</event>
<event>
 4    1  0.3190379E-002  0.3753538E+03  0.7818608E-02  0.1052665E+00
         -2   -1    0    0    0  501 -0.00000000000E+00  0.00000000000E+00  0.70317993658E+02  0.70317993658E+02  0.00000000000E+00 0.  1.
          2   -1    0    0  502    0  0.00000000000E+00 -0.00000000000E+00 -0.20630452823E+04  0.20630452823E+04  0.00000000000E+00 0. -1.
          6    1    1    2  502    0  0.48864739999E+02 -0.33002829820E+03 -0.11774022348E+04  0.12357857674E+04  0.17200000000E+03 0. -1.
         -6    1    1    2    0  501 -0.48864739999E+02  0.33002829820E+03 -0.81532505385E+03  0.89757750855E+03  0.17200000000E+03 0.  1.
</event>
<event>
 4    1  0.3190379E-002  0.1741479E+03  0.7818608E-02  0.1173590E+00
         -1   -1    0    0    0  501 -0.00000000000E+00  0.00000000000E+00  0.13619970140E+03  0.13619970140E+03  0.00000000000E+00 0.  1.
          1   -1    0    0  502    0  0.00000000000E+00 -0.00000000000E+00 -0.45822217302E+03  0.45822217302E+03  0.00000000000E+00 0. -1.
          6    1    1    2  502    0  0.54780802475E+01  0.26711182117E+02 -0.37410508275E+03  0.41265252884E+03  0.17200000000E+03 0. -1.
         -6    1    1    2    0  501 -0.54780802475E+01 -0.26711182117E+02  0.52082611126E+02  0.18176934559E+03  0.17200000000E+03 0.  1.
</event>
<event>
 4    1  0.3190379E-002  0.1960911E+03  0.7818608E-02  0.1153080E+00
         -1   -1    0    0    0  501 -0.00000000000E+00  0.00000000000E+00  0.10397017578E+03  0.10397017578E+03  0.00000000000E+00 0.  1.
          1   -1    0    0  502    0  0.00000000000E+00 -0.00000000000E+00 -0.86200657070E+03  0.86200657070E+03  0.00000000000E+00 0. -1.
          6    1    1    2  502    0 -0.85035781800E+02  0.40455208819E+02 -0.74397383978E+03  0.76938207828E+03  0.17200000000E+03 0. -1.
         -6    1    1    2    0  501  0.85035781800E+02 -0.40455208819E+02 -0.14062555145E+02  0.19659466820E+03  0.17200000000E+03 0.  1.
</event>
<event>
 4    1  0.3190379E-002  0.1744376E+03  0.7818608E-02  0.1173298E+00
          2   -1    0    0  502    0  0.00000000000E+00  0.00000000000E+00  0.20390890413E+03  0.20390890413E+03  0.00000000000E+00 0. -1.
         -2   -1    0    0    0  501 -0.00000000000E+00 -0.00000000000E+00 -0.16061705927E+03  0.16061705927E+03  0.00000000000E+00 0.  1.
          6    1    1    2  502    0  0.17668429187E+02 -0.23071588230E+02  0.70184639784E+02  0.18802753850E+03  0.17200000000E+03 0.  1.
         -6    1    1    2    0  501 -0.17668429187E+02  0.23071588230E+02 -0.26892794927E+02  0.17649842490E+03  0.17200000000E+03 0. -1.
</event>
<event>
 4    1  0.3190379E-002  0.3461126E+03  0.7818608E-02  0.1064222E+00
         -1   -1    0    0    0  501 -0.00000000000E+00  0.00000000000E+00  0.17031553054E+03  0.17031553054E+03  0.00000000000E+00 0.  1.
          1   -1    0    0  502    0  0.00000000000E+00 -0.00000000000E+00 -0.14545241497E+04  0.14545241497E+04  0.00000000000E+00 0. -1.
          6    1    1    2  502    0  0.23389675035E+03 -0.18842037878E+03 -0.12259339305E+04  0.12738555377E+04  0.17200000000E+03 0. -1.
         -6    1    1    2    0  501 -0.23389675035E+03  0.18842037878E+03 -0.58274688635E+02  0.35098414252E+03  0.17200000000E+03 0.  1.
</event>
<event>
 4    1  0.3190379E-002  0.3157180E+03  0.7818608E-02  0.1077637E+00
          2   -1    0    0  502    0  0.00000000000E+00  0.00000000000E+00  0.25545665091E+04  0.25545665091E+04  0.00000000000E+00 0. -1.
         -2   -1    0    0    0  501 -0.00000000000E+00 -0.00000000000E+00 -0.17200440003E+03  0.17200440003E+03  0.00000000000E+00 0.  1.
          6    1    1    2  502    0  0.19187753469E+03  0.18241952754E+03  0.23900023232E+04  0.24107652265E+04  0.17200000000E+03 0. -1.
         -6    1    1    2    0  501 -0.19187753469E+03 -0.18241952754E+03 -0.74402142186E+01  0.31580568256E+03  0.17200000000E+03 0.  1.
</event>
<event>
 4    1  0.3190379E-002  0.4071869E+03  0.7818608E-02  0.1041319E+00
          2   -1    0    0  502    0  0.00000000000E+00  0.00000000000E+00  0.61706040631E+03  0.61706040631E+03  0.00000000000E+00 0. -1.
         -2   -1    0    0    0  501 -0.00000000000E+00 -0.00000000000E+00 -0.76623226717E+03  0.76623226717E+03  0.00000000000E+00 0.  1.
          6    1    1    2  502    0  0.34513023361E+03  0.13077572943E+03  0.48274941126E+03  0.63154426894E+03  0.17200000000E+03 0. -1.
         -6    1    1    2    0  501 -0.34513023361E+03 -0.13077572943E+03 -0.63192127212E+03  0.75174840454E+03  0.17200000000E+03 0.  1.
</event>
<event>
 4    1  0.3190379E-002  0.2047520E+03  0.7818608E-02  0.1145791E+00
          2   -1    0    0  502    0  0.00000000000E+00  0.00000000000E+00  0.83436572771E+03  0.83436572771E+03  0.00000000000E+00 0. -1.
         -2   -1    0    0    0  501 -0.00000000000E+00 -0.00000000000E+00 -0.53286885527E+02  0.53286885527E+02  0.00000000000E+00 0.  1.
          6    1    1    2  502    0 -0.69915311401E+02 -0.86320445376E+02  0.28451217494E+03  0.35052895422E+03  0.17200000000E+03 0.  1.
         -6    1    1    2    0  501  0.69915311401E+02  0.86320445376E+02  0.49656666724E+03  0.53712365902E+03  0.17200000000E+03 0. -1.
</event>
<event>
 4    1  0.3190379E-002  0.2292436E+03  0.7818608E-02  0.1127173E+00
         -1   -1    0    0    0  501 -0.00000000000E+00  0.00000000000E+00  0.83263284881E+03  0.83263284881E+03  0.00000000000E+00 0.  1.
          1   -1    0    0  502    0  0.00000000000E+00 -0.00000000000E+00 -0.99035257701E+02  0.99035257701E+02  0.00000000000E+00 0. -1.
          6    1    1    2  502    0 -0.38919306813E+02  0.14647151041E+03  0.86256191958E+02  0.24493416759E+03  0.17200000000E+03 0. -1.
         -6    1    1    2    0  501  0.38919306813E+02 -0.14647151041E+03  0.64734139916E+03  0.68673393892E+03  0.17200000000E+03 0.  1.
</event>
<event>
 4    1  0.3190379E-002  0.2244334E+03  0.7818608E-02  0.1130620E+00
         -2   -1    0    0    0  501 -0.00000000000E+00  0.00000000000E+00  0.26459165166E+03  0.26459165166E+03  0.00000000000E+00 0.  1.
          2   -1    0    0  502    0  0.00000000000E+00 -0.00000000000E+00 -0.42072015100E+03  0.42072015100E+03  0.00000000000E+00 0. -1.
          6    1    1    2  502    0  0.12370290906E+03  0.74053511590E+02 -0.33160965212E+03  0.40041889774E+03  0.17200000000E+03 0. -1.
         -6    1    1    2    0  501 -0.12370290906E+03 -0.74053511590E+02  0.17548115279E+03  0.28489290492E+03  0.17200000000E+03 0.  1.
</event>
<event>
 4    1  0.3190379E-002  0.2108342E+03  0.7818608E-02  0.1140907E+00
          1   -1    0    0  502    0  0.00000000000E+00  0.00000000000E+00  0.75026398184E+02  0.75026398184E+02  0.00000000000E+00 0. -1.
         -1   -1    0    0    0  501 -0.00000000000E+00 -0.00000000000E+00 -0.64789611050E+03  0.64789611050E+03  0.00000000000E+00 0.  1.
          6    1    1    2  502    0  0.10385107887E+03  0.63890740775E+02 -0.39215474542E+03  0.44523748460E+03  0.17200000000E+03 0.  1.
         -6    1    1    2    0  501 -0.10385107887E+03 -0.63890740775E+02 -0.18071496690E+03  0.27768502408E+03  0.17200000000E+03 0. -1.
</event>
<event>
 4    1  0.3190379E-002  0.2116364E+03  0.7818608E-02  0.1140277E+00
         -2   -1    0    0    0  501 -0.00000000000E+00  0.00000000000E+00  0.26821378947E+02  0.26821378947E+02  0.00000000000E+00 0.  1.
          2   -1    0    0  502    0  0.00000000000E+00 -0.00000000000E+00 -0.16931642725E+04  0.16931642725E+04  0.00000000000E+00 0. -1.
          6    1    1    2  502    0 -0.13055936062E+02  0.12261939161E+03 -0.93390136452E+03  0.95758118785E+03  0.17200000000E+03 0. -1.
         -6    1    1    2    0  501  0.13055936062E+02 -0.12261939161E+03 -0.73244152900E+03  0.76240446357E+03  0.17200000000E+03 0.  1.
</event>
<event>
 4    1  0.3190379E-002  0.3205191E+03  0.7818608E-02  0.1075411E+00
          2   -1    0    0  502    0  0.00000000000E+00  0.00000000000E+00  0.27925242982E+04  0.27925242982E+04  0.00000000000E+00 0. -1.
         -2   -1    0    0    0  501 -0.00000000000E+00 -0.00000000000E+00 -0.50056377795E+03  0.50056377795E+03  0.00000000000E+00 0.  1.
          6    1    1    2  502    0 -0.24929135236E+02  0.26930846478E+03  0.27308642678E+04  0.27496094559E+04  0.17200000000E+03 0. -1.
         -6    1    1    2    0  501  0.24929135236E+02 -0.26930846478E+03 -0.43890374757E+03  0.54347862020E+03  0.17200000000E+03 0.  1.
</event>
<event>
 4    1  0.3190379E-002  0.2363817E+03  0.7818608E-02  0.1122227E+00
          2   -1    0    0  502    0  0.00000000000E+00  0.00000000000E+00  0.24084715224E+04  0.24084715224E+04  0.00000000000E+00 0. -1.
         -2   -1    0    0    0  501 -0.00000000000E+00 -0.00000000000E+00 -0.23367298839E+02  0.23367298839E+02  0.00000000000E+00 0.  1.
          6    1    1    2  502    0 -0.15578754582E+03  0.44972510920E+02  0.10896359974E+04  0.11149811178E+04  0.17200000000E+03 0. -1.
         -6    1    1    2    0  501  0.15578754582E+03 -0.44972510920E+02  0.12954682262E+04  0.13168577035E+04  0.17200000000E+03 0. -1.
</event>
<event>
 4    1  0.3190379E-002  0.3324480E+03  0.7818608E-02  0.1070059E+00
          2   -1    0    0  502    0  0.00000000000E+00  0.00000000000E+00  0.27560385846E+03  0.27560385846E+03  0.00000000000E+00 0. -1.
         -2   -1    0    0    0  501 -0.00000000000E+00 -0.00000000000E+00 -0.57999675572E+03  0.57999675572E+03  0.00000000000E+00 0.  1.
          6    1    1    2  502    0 -0.28442950095E+03 -0.61240293826E+01  0.85449870459E+02  0.34325402417E+03  0.17200000000E+03 0. -1.
         -6    1    1    2    0  501  0.28442950095E+03  0.61240293826E+01 -0.38984276772E+03  0.51234659001E+03  0.17200000000E+03 0.  1.
</event>
<event>
 4    1  0.3190379E-002  0.1777911E+03  0.7818608E-02  0.1169958E+00
          1   -1    0    0  502    0  0.00000000000E+00  0.00000000000E+00  0.50283077636E+03  0.50283077636E+03  0.00000000000E+00 0. -1.
         -1   -1    0    0    0  501 -0.00000000000E+00 -0.00000000000E+00 -0.11617888845E+03  0.11617888845E+03  0.00000000000E+00 0.  1.
          6    1    1    2  502    0 -0.50958847215E+01 -0.44717973910E+02  0.40299310584E+03  0.44046919142E+03  0.17200000000E+03 0. -1.
         -6    1    1    2    0  501  0.50958847215E+01  0.44717973910E+02 -0.16341217935E+02  0.17854047338E+03  0.17200000000E+03 0.  1.
</event>
<event>
 4    1  0.3190379E-002  0.2484640E+03  0.7818608E-02  0.1114279E+00
          1   -1    0    0  502    0  0.00000000000E+00  0.00000000000E+00  0.43751497300E+03  0.43751497300E+03  0.00000000000E+00 0. -1.
         -1   -1    0    0    0  501 -0.00000000000E+00 -0.00000000000E+00 -0.16803613316E+03  0.16803613316E+03  0.00000000000E+00 0.  1.
          6    1    1    2  502    0 -0.77049495106E+02  0.16190656084E+03  0.25595787109E+03  0.35671948490E+03  0.17200000000E+03 0. -1.
         -6    1    1    2    0  501  0.77049495106E+02 -0.16190656084E+03  0.13520968749E+02  0.24883162125E+03  0.17200000000E+03 0.  1.
</event>
<event>
 4    1  0.3190379E-002  0.3969472E+03  0.7818608E-02  0.1044842E+00
          1   -1    0    0  502    0  0.00000000000E+00  0.00000000000E+00  0.35076031089E+03  0.35076031089E+03  0.00000000000E+00 0. -1.
         -1   -1    0    0    0  501 -0.00000000000E+00 -0.00000000000E+00 -0.56548647441E+03  0.56548647441E+03  0.00000000000E+00 0.  1.
          6    1    1    2  502    0 -0.25821592500E+03  0.24760372916E+03  0.10037038524E+03  0.40944020913E+03  0.17200000000E+03 0.  1.
         -6    1    1    2    0  501  0.25821592500E+03 -0.24760372916E+03 -0.31509654876E+03  0.50680657618E+03  0.17200000000E+03 0.  1.
</event>
<event>
 4    1  0.3190379E-002  0.2319419E+03  0.7818608E-02  0.1125280E+00
         -1   -1    0    0    0  501 -0.00000000000E+00  0.00000000000E+00  0.57118412673E+03  0.57118412673E+03  0.00000000000E+00 0.  1.
          1   -1    0    0  502    0  0.00000000000E+00 -0.00000000000E+00 -0.11623442206E+03  0.11623442206E+03  0.00000000000E+00 0. -1.
          6    1    1    2  502    0 -0.14870703458E+03 -0.45817630488E+02  0.77774978532E+02  0.24463438982E+03  0.17200000000E+03 0.  1.
         -6    1    1    2    0  501  0.14870703458E+03  0.45817630488E+02  0.37717472614E+03  0.44278415897E+03  0.17200000000E+03 0.  1.
</event>
<event>
 4    1  0.3190379E-002  0.2158307E+03  0.7818608E-02  0.1137030E+00
          1   -1    0    0  502    0  0.00000000000E+00  0.00000000000E+00  0.11529228789E+04  0.11529228789E+04  0.00000000000E+00 0. -1.
         -1   -1    0    0    0  501 -0.00000000000E+00 -0.00000000000E+00 -0.42625381223E+02  0.42625381223E+02  0.00000000000E+00 0.  1.
          6    1    1    2  502    0  0.10997118047E+03 -0.70037487217E+02  0.41869157632E+03  0.47104728662E+03  0.17200000000E+03 0.  1.
         -6    1    1    2    0  501 -0.10997118047E+03  0.70037487217E+02  0.69160592135E+03  0.72450097350E+03  0.17200000000E+03 0.  1.
</event>
<event>
 4    1  0.3190379E-002  0.1724581E+03  0.7818608E-02  0.1175308E+00
         -1   -1    0    0    0  501 -0.00000000000E+00  0.00000000000E+00  0.25949223472E+02  0.25949223472E+02  0.00000000000E+00 0.  1.
          1   -1    0    0  502    0  0.00000000000E+00 -0.00000000000E+00 -0.11790085451E+04  0.11790085451E+04  0.00000000000E+00 0. -1.
          6    1    1    2  502    0 -0.37705879778E+01 -0.11981884133E+02 -0.67710396633E+03  0.69872137802E+03  0.17200000000E+03 0. -1.
         -6    1    1    2    0  501  0.37705879778E+01  0.11981884133E+02 -0.47595535526E+03  0.50623639052E+03  0.17200000000E+03 0.  1.
</event>
<event>
 4    1  0.3190379E-002  0.2642988E+03  0.7818608E-02  0.1104588E+00
         -2   -1    0    0    0  501 -0.00000000000E+00  0.00000000000E+00  0.38551683353E+02  0.38551683353E+02  0.00000000000E+00 0.  1.
          2   -1    0    0  502    0  0.00000000000E+00 -0.00000000000E+00 -0.23999469577E+04  0.23999469577E+04  0.00000000000E+00 0. -1.
          6    1    1    2  502    0  0.14335271459E+03  0.14042731901E+03 -0.57719637062E+03  0.63483027887E+03  0.17200000000E+03 0. -1.
         -6    1    1    2    0  501 -0.14335271459E+03 -0.14042731901E+03 -0.17841989037E+04  0.18036683622E+04  0.17200000000E+03 0.  1.
</event>
<event>
 4    1  0.3190379E-002  0.3467435E+03  0.7818608E-02  0.1063960E+00
          2   -1    0    0  502    0  0.00000000000E+00  0.00000000000E+00  0.10426616592E+04  0.10426616592E+04  0.00000000000E+00 0. -1.
         -2   -1    0    0    0  501 -0.00000000000E+00 -0.00000000000E+00 -0.16255793638E+03  0.16255793638E+03  0.00000000000E+00 0.  1.
          6    1    1    2  502    0  0.70830016503E+02  0.29262636717E+03  0.76492644626E+03  0.83984733743E+03  0.17200000000E+03 0. -1.
         -6    1    1    2    0  501 -0.70830016503E+02 -0.29262636717E+03  0.11517727658E+03  0.36537225817E+03  0.17200000000E+03 0.  1.
</event>
<event>
 4    1  0.3190379E-002  0.2114165E+03  0.7818608E-02  0.1140449E+00
          2   -1    0    0  502    0  0.00000000000E+00  0.00000000000E+00  0.95448227319E+03  0.95448227319E+03  0.00000000000E+00 0. -1.
         -2   -1    0    0    0  501 -0.00000000000E+00 -0.00000000000E+00 -0.82332720273E+02  0.82332720273E+02  0.00000000000E+00 0.  1.
          6    1    1    2  502    0  0.10052030792E+03 -0.70771523994E+02  0.77650274797E+03  0.80476919581E+03  0.17200000000E+03 0. -1.
         -6    1    1    2    0  501 -0.10052030792E+03  0.70771523994E+02  0.95646804945E+02  0.23204579765E+03  0.17200000000E+03 0.  1.
</event>
<event>
 4    1  0.3190379E-002  0.5459216E+03  0.7818608E-02  0.1002442E+00
          2   -1    0    0  502    0  0.00000000000E+00  0.00000000000E+00  0.17497588602E+04  0.17497588602E+04  0.00000000000E+00 0. -1.
         -2   -1    0    0    0  501 -0.00000000000E+00 -0.00000000000E+00 -0.23705012884E+03  0.23705012884E+03  0.00000000000E+00 0.  1.
          6    1    1    2  502    0  0.33486716489E+02 -0.51703488599E+03  0.12833968298E+04  0.13946819911E+04  0.17200000000E+03 0. -1.
         -6    1    1    2    0  501 -0.33486716489E+02  0.51703488599E+03  0.22931190156E+03  0.59212699795E+03  0.17200000000E+03 0.  1.
</event>
<event>
 4    1  0.3190379E-002  0.2615809E+03  0.7818608E-02  0.1106197E+00
         -1   -1    0    0    0  501 -0.00000000000E+00  0.00000000000E+00  0.55272740051E+02  0.55272740051E+02  0.00000000000E+00 0.  1.
          1   -1    0    0  502    0  0.00000000000E+00 -0.00000000000E+00 -0.18652870417E+04  0.18652870417E+04  0.00000000000E+00 0. -1.
          6    1    1    2  502    0 -0.10628994754E+03 -0.16596084414E+03 -0.14619075820E+04  0.14851256960E+04  0.17200000000E+03 0. -1.
         -6    1    1    2    0  501  0.10628994754E+03  0.16596084414E+03 -0.34810671968E+03  0.43543408574E+03  0.17200000000E+03 0.  1.
</event>
<event>
 4    1  0.3190379E-002  0.2264021E+03  0.7818608E-02  0.1129198E+00
          1   -1    0    0  502    0  0.00000000000E+00  0.00000000000E+00  0.87469120658E+03  0.87469120658E+03  0.00000000000E+00 0. -1.
         -1   -1    0    0    0  501 -0.00000000000E+00 -0.00000000000E+00 -0.60435290524E+02  0.60435290524E+02  0.00000000000E+00 0.  1.
          6    1    1    2  502    0  0.13897392419E+03 -0.48581257558E+02  0.32567363738E+03  0.39663737630E+03  0.17200000000E+03 0.  1.
         -6    1    1    2    0  501 -0.13897392419E+03  0.48581257558E+02  0.48858227867E+03  0.53848912080E+03  0.17200000000E+03 0. -1.
</event>
<event>
 4    1  0.3190379E-002  0.2068561E+03  0.7818608E-02  0.1144080E+00
         -2   -1    0    0    0  501 -0.00000000000E+00  0.00000000000E+00  0.10105889848E+03  0.10105889848E+03  0.00000000000E+00 0.  1.
          2   -1    0    0  502    0  0.00000000000E+00 -0.00000000000E+00 -0.45946504425E+03  0.45946504425E+03  0.00000000000E+00 0. -1.
          6    1    1    2  502    0  0.35500226482E+02  0.10929393196E+03 -0.10069467811E+03  0.23006270415E+03  0.17200000000E+03 0.  1.
         -6    1    1    2    0  501 -0.35500226482E+02 -0.10929393196E+03 -0.25771146766E+03  0.33046123858E+03  0.17200000000E+03 0. -1.
</event>
<event>
 4    1  0.3190379E-002  0.1832515E+03  0.7818608E-02  0.1164693E+00
         -2   -1    0    0    0  501 -0.00000000000E+00  0.00000000000E+00  0.30841015505E+03  0.30841015505E+03  0.00000000000E+00 0.  1.
          2   -1    0    0  502    0  0.00000000000E+00 -0.00000000000E+00 -0.21530617449E+03  0.21530617449E+03  0.00000000000E+00 0. -1.
          6    1    1    2  502    0 -0.11497610346E+02  0.62168340352E+02 -0.13754760839E+03  0.22912974962E+03  0.17200000000E+03 0. -1.
         -6    1    1    2    0  501  0.11497610346E+02 -0.62168340352E+02  0.23065158895E+03  0.29458657993E+03  0.17200000000E+03 0.  1.
</event>
<event>
 4    1  0.3190379E-002  0.4677418E+03  0.7818608E-02  0.1022560E+00
         -1   -1    0    0    0  501 -0.00000000000E+00  0.00000000000E+00  0.83497623558E+03  0.83497623558E+03  0.00000000000E+00 0.  1.
          1   -1    0    0  502    0  0.00000000000E+00 -0.00000000000E+00 -0.39091303231E+03  0.39091303231E+03  0.00000000000E+00 0. -1.
          6    1    1    2  502    0  0.18023059657E+03 -0.39587284037E+03  0.57399058835E+03  0.74043741748E+03  0.17200000000E+03 0. -1.
         -6    1    1    2    0  501 -0.18023059657E+03  0.39587284037E+03 -0.12992738507E+03  0.48545185042E+03  0.17200000000E+03 0.  1.
</event>
<event>
 4    1  0.3190379E-002  0.1964261E+03  0.7818608E-02  0.1152790E+00
          2   -1    0    0  502    0  0.00000000000E+00  0.00000000000E+00  0.32585486659E+03  0.32585486659E+03  0.00000000000E+00 0. -1.
         -2   -1    0    0    0  501 -0.00000000000E+00 -0.00000000000E+00 -0.33611175060E+03  0.33611175060E+03  0.00000000000E+00 0.  1.
          6    1    1    2  502    0  0.69022994769E+02  0.65077155149E+02 -0.27150688577E+03  0.33511072640E+03  0.17200000000E+03 0.  1.
         -6    1    1    2    0  501 -0.69022994769E+02 -0.65077155149E+02  0.26125000175E+03  0.32685589079E+03  0.17200000000E+03 0. -1.
</event>
<event>
 4    1  0.3190379E-002  0.2822702E+03  0.7818608E-02  0.1094455E+00
          1   -1    0    0  502    0  0.00000000000E+00  0.00000000000E+00  0.74637417618E+03  0.74637417618E+03  0.00000000000E+00 0. -1.
         -1   -1    0    0    0  501 -0.00000000000E+00 -0.00000000000E+00 -0.13069385430E+03  0.13069385430E+03  0.00000000000E+00 0.  1.
          6    1    1    2  502    0 -0.17703278652E+03  0.13693739693E+03  0.49553848772E+03  0.57029365330E+03  0.17200000000E+03 0. -1.
         -6    1    1    2    0  501  0.17703278652E+03 -0.13693739693E+03  0.12014183416E+03  0.30677437718E+03  0.17200000000E+03 0.  1.
</event>
<event>
 4    1  0.3190379E-002  0.2465014E+03  0.7818608E-02  0.1115536E+00
          2   -1    0    0  502    0  0.00000000000E+00  0.00000000000E+00  0.41165838313E+03  0.41165838313E+03  0.00000000000E+00 0. -1.
         -2   -1    0    0    0  501 -0.00000000000E+00 -0.00000000000E+00 -0.33625452555E+03  0.33625452555E+03  0.00000000000E+00 0.  1.
          6    1    1    2  502    0  0.60959037603E+02  0.16571946616E+03  0.31780283581E+03  0.40219595744E+03  0.17200000000E+03 0. -1.
         -6    1    1    2    0  501 -0.60959037603E+02 -0.16571946616E+03 -0.24239897823E+03  0.34571695124E+03  0.17200000000E+03 0.  1.
</event>
<event>
 4    1  0.3190379E-002  0.2172485E+03  0.7818608E-02  0.1135951E+00
         -2   -1    0    0    0  501 -0.00000000000E+00  0.00000000000E+00  0.12550745538E+03  0.12550745538E+03  0.00000000000E+00 0.  1.
          2   -1    0    0  502    0  0.00000000000E+00 -0.00000000000E+00 -0.41596113167E+03  0.41596113167E+03  0.00000000000E+00 0. -1.
          6    1    1    2  502    0 -0.62109328608E+02 -0.11728318145E+03 -0.22908997048E+03  0.31572001509E+03  0.17200000000E+03 0. -1.
         -6    1    1    2    0  501  0.62109328608E+02  0.11728318145E+03 -0.61363705806E+02  0.22574857196E+03  0.17200000000E+03 0.  1.
</event>
<event>
 4    1  0.3190379E-002  0.2289794E+03  0.7818608E-02  0.1127360E+00
         -2   -1    0    0    0  501 -0.00000000000E+00  0.00000000000E+00  0.40828983777E+02  0.40828983777E+02  0.00000000000E+00 0.  1.
          2   -1    0    0  502    0  0.00000000000E+00 -0.00000000000E+00 -0.12896932579E+04  0.12896932579E+04  0.00000000000E+00 0. -1.
          6    1    1    2  502    0 -0.10445564752E+03  0.10925473840E+03 -0.58091796478E+03  0.62441753816E+03  0.17200000000E+03 0. -1.
         -6    1    1    2    0  501  0.10445564752E+03 -0.10925473840E+03 -0.66794630936E+03  0.70610470353E+03  0.17200000000E+03 0.  1.
</event>
<event>
 4    1  0.3190379E-002  0.1991944E+03  0.7818608E-02  0.1150420E+00
          1   -1    0    0  502    0  0.00000000000E+00  0.00000000000E+00  0.11590100925E+04  0.11590100925E+04  0.00000000000E+00 0. -1.
         -1   -1    0    0    0  501 -0.00000000000E+00 -0.00000000000E+00 -0.65129358495E+02  0.65129358495E+02  0.00000000000E+00 0.  1.
          6    1    1    2  502    0 -0.39935332924E+02 -0.92193251827E+02  0.96849494671E+03  0.98876735803E+03  0.17200000000E+03 0. -1.
         -6    1    1    2    0  501  0.39935332924E+02  0.92193251827E+02  0.12538578732E+03  0.23537209299E+03  0.17200000000E+03 0.  1.
</event>
<event>
 4    1  0.3190379E-002  0.2209784E+03  0.7818608E-02  0.1133156E+00
          3   -1    0    0  502    0  0.00000000000E+00  0.00000000000E+00  0.74707289897E+03  0.74707289897E+03  0.00000000000E+00 0. -1.
         -3   -1    0    0    0  501 -0.00000000000E+00 -0.00000000000E+00 -0.87235193376E+02  0.87235193376E+02  0.00000000000E+00 0.  1.
          6    1    1    2  502    0  0.13813323973E+03  0.12909150022E+02  0.53879553389E+03  0.58235046614E+03  0.17200000000E+03 0. -1.
         -6    1    1    2    0  501 -0.13813323973E+03 -0.12909150022E+02  0.12104217170E+03  0.25195762621E+03  0.17200000000E+03 0.  1.
</event>
<event>
 4    1  0.3190379E-002  0.2862795E+03  0.7818608E-02  0.1092308E+00
          2   -1    0    0  502    0  0.00000000000E+00  0.00000000000E+00  0.77725446080E+03  0.77725446080E+03  0.00000000000E+00 0. -1.
         -2   -1    0    0    0  501 -0.00000000000E+00 -0.00000000000E+00 -0.15975394866E+03  0.15975394866E+03  0.00000000000E+00 0.  1.
          6    1    1    2  502    0 -0.22794816318E+03  0.20286916589E+02  0.58191962145E+03  0.64852630626E+03  0.17200000000E+03 0. -1.
         -6    1    1    2    0  501  0.22794816318E+03 -0.20286916589E+02  0.35580890684E+02  0.28848210320E+03  0.17200000000E+03 0.  1.
</event>
<event>
 4    1  0.3190379E-002  0.2879473E+03  0.7818608E-02  0.1091426E+00
         -1   -1    0    0    0  501 -0.00000000000E+00  0.00000000000E+00  0.21257407654E+03  0.21257407654E+03  0.00000000000E+00 0.  1.
          1   -1    0    0  502    0  0.00000000000E+00 -0.00000000000E+00 -0.10858322408E+04  0.10858322408E+04  0.00000000000E+00 0. -1.
          6    1    1    2  502    0 -0.16584511920E+03  0.16070175824E+03 -0.95631050239E+03  0.99872089977E+03  0.17200000000E+03 0. -1.
         -6    1    1    2    0  501  0.16584511920E+03 -0.16070175824E+03  0.83052338089E+02  0.29968541761E+03  0.17200000000E+03 0.  1.
</event>
<event>
 4    1  0.3190379E-002  0.2923063E+03  0.7818608E-02  0.1089151E+00
         -1   -1    0    0    0  501 -0.00000000000E+00  0.00000000000E+00  0.62051540854E+02  0.62051540854E+02  0.00000000000E+00 0.  1.
          1   -1    0    0  502    0  0.00000000000E+00 -0.00000000000E+00 -0.13772049310E+04  0.13772049310E+04  0.00000000000E+00 0. -1.
          6    1    1    2  502    0  0.10613090740E+03 -0.21117583322E+03 -0.64814294458E+03  0.71100793150E+03  0.17200000000E+03 0. -1.
         -6    1    1    2    0  501 -0.10613090740E+03  0.21117583322E+03 -0.66701044561E+03  0.72824854040E+03  0.17200000000E+03 0.  1.
</event>
<event>
 4    1  0.3190379E-002  0.2197535E+03  0.7818608E-02  0.1134067E+00
         -1   -1    0    0    0  501 -0.00000000000E+00  0.00000000000E+00  0.10602956211E+03  0.10602956211E+03  0.00000000000E+00 0.  1.
          1   -1    0    0  502    0  0.00000000000E+00 -0.00000000000E+00 -0.93237530957E+03  0.93237530957E+03  0.00000000000E+00 0. -1.
          6    1    1    2  502    0  0.13209075900E+03 -0.35491181566E+02 -0.78450684663E+03  0.81470398611E+03  0.17200000000E+03 0. -1.
         -6    1    1    2    0  501 -0.13209075900E+03  0.35491181566E+02 -0.41838900829E+02  0.22370088557E+03  0.17200000000E+03 0.  1.
</event>
<event>
 4    1  0.3190379E-002  0.5827180E+03  0.7818608E-02  0.9941924E-01
         -3   -1    0    0    0  501 -0.00000000000E+00  0.00000000000E+00  0.48791077240E+03  0.48791077240E+03  0.00000000000E+00 0.  1.
          3   -1    0    0  502    0  0.00000000000E+00 -0.00000000000E+00 -0.13195307862E+04  0.13195307862E+04  0.00000000000E+00 0. -1.
          6    1    1    2  502    0  0.43646655958E+03 -0.34564897319E+03 -0.10370676522E+04  0.11895669739E+04  0.17200000000E+03 0. -1.
         -6    1    1    2    0  501 -0.43646655958E+03  0.34564897319E+03  0.20544763834E+03  0.61787458469E+03  0.17200000000E+03 0.  1.
</event>
<event>
 4    1  0.3190379E-002  0.2307259E+03  0.7818608E-02  0.1126130E+00
          2   -1    0    0  502    0  0.00000000000E+00  0.00000000000E+00  0.72212297945E+03  0.72212297945E+03  0.00000000000E+00 0. -1.
         -2   -1    0    0    0  501 -0.00000000000E+00 -0.00000000000E+00 -0.35444995378E+03  0.35444995378E+03  0.00000000000E+00 0.  1.
          6    1    1    2  502    0  0.46534756629E+02  0.14657752476E+03  0.66288652993E+03  0.70189244611E+03  0.17200000000E+03 0. -1.
         -6    1    1    2    0  501 -0.46534756629E+02 -0.14657752476E+03 -0.29521350426E+03  0.37468048713E+03  0.17200000000E+03 0.  1.
</event>
<event>
 4    1  0.3190379E-002  0.2410739E+03  0.7818608E-02  0.1119079E+00
         -2   -1    0    0    0  501 -0.00000000000E+00  0.00000000000E+00  0.85336159098E+02  0.85336159098E+02  0.00000000000E+00 0.  1.
          2   -1    0    0  502    0  0.00000000000E+00 -0.00000000000E+00 -0.72018685478E+03  0.72018685478E+03  0.00000000000E+00 0. -1.
          6    1    1    2  502    0  0.57135482646E+01  0.16881938333E+03 -0.41133708604E+03  0.47677544732E+03  0.17200000000E+03 0. -1.
         -6    1    1    2    0  501 -0.57135482646E+01 -0.16881938333E+03 -0.22351360965E+03  0.32874756656E+03  0.17200000000E+03 0.  1.
</event>
<event>
 4    1  0.3190379E-002  0.2109961E+03  0.7818608E-02  0.1140780E+00
          2   -1    0    0  502    0  0.00000000000E+00  0.00000000000E+00  0.72850115925E+03  0.72850115925E+03  0.00000000000E+00 0. -1.
         -2   -1    0    0    0  501 -0.00000000000E+00 -0.00000000000E+00 -0.65245813989E+02  0.65245813989E+02  0.00000000000E+00 0.  1.
          6    1    1    2  502    0 -0.69519235319E+02  0.10051081451E+03  0.23171743803E+03  0.31338844746E+03  0.17200000000E+03 0.  1.
         -6    1    1    2    0  501  0.69519235319E+02 -0.10051081451E+03  0.43153790723E+03  0.48035852578E+03  0.17200000000E+03 0. -1.
</event>
<event>
 4    1  0.3190379E-002  0.1942573E+03  0.7818608E-02  0.1154677E+00
         -2   -1    0    0    0  501 -0.00000000000E+00  0.00000000000E+00  0.43164348334E+03  0.43164348334E+03  0.00000000000E+00 0.  1.
          2   -1    0    0  502    0  0.00000000000E+00 -0.00000000000E+00 -0.49932189636E+03  0.49932189636E+03  0.00000000000E+00 0. -1.
          6    1    1    2  502    0 -0.87462045692E+02 -0.22411974493E+02  0.38893465749E+03  0.43474828790E+03  0.17200000000E+03 0.  1.
         -6    1    1    2    0  501  0.87462045692E+02  0.22411974493E+02 -0.45661307051E+03  0.49621709180E+03  0.17200000000E+03 0. -1.
</event>
<event>
 4    1  0.3190379E-002  0.3434084E+03  0.7818608E-02  0.1065353E+00
          1   -1    0    0  502    0  0.00000000000E+00  0.00000000000E+00  0.10425014666E+03  0.10425014666E+03  0.00000000000E+00 0. -1.
         -1   -1    0    0    0  501 -0.00000000000E+00 -0.00000000000E+00 -0.14139245061E+04  0.14139245061E+04  0.00000000000E+00 0.  1.
          6    1    1    2  502    0  0.29722871045E+03  0.66179403046E+00 -0.31540834918E+03  0.46627435166E+03  0.17200000000E+03 0. -1.
         -6    1    1    2    0  501 -0.29722871045E+03 -0.66179403046E+00 -0.99426601030E+03  0.10519003011E+04  0.17200000000E+03 0.  1.
</event>
<event>
 4    1  0.3190379E-002  0.2116031E+03  0.7818608E-02  0.1140303E+00
          2   -1    0    0  502    0  0.00000000000E+00  0.00000000000E+00  0.13196489609E+04  0.13196489609E+04  0.00000000000E+00 0. -1.
         -2   -1    0    0    0  501 -0.00000000000E+00 -0.00000000000E+00 -0.48775764972E+02  0.48775764972E+02  0.00000000000E+00 0.  1.
          6    1    1    2  502    0 -0.79945818587E+02 -0.93811110614E+02  0.10129116800E+04  0.10347782032E+04  0.17200000000E+03 0. -1.
         -6    1    1    2    0  501  0.79945818587E+02  0.93811110614E+02  0.25796151598E+03  0.33364652270E+03  0.17200000000E+03 0.  1.
</event>
<event>
 4    1  0.3190379E-002  0.2675451E+03  0.7818608E-02  0.1102693E+00
         -2   -1    0    0    0  501 -0.00000000000E+00  0.00000000000E+00  0.39744388843E+02  0.39744388843E+02  0.00000000000E+00 0.  1.
          2   -1    0    0  502    0  0.00000000000E+00 -0.00000000000E+00 -0.23391419064E+04  0.23391419064E+04  0.00000000000E+00 0. -1.
          6    1    1    2  502    0  0.67016147020E+02  0.19366259400E+03 -0.17201998778E+04  0.17408813813E+04  0.17200000000E+03 0. -1.
         -6    1    1    2    0  501 -0.67016147020E+02 -0.19366259400E+03 -0.57919763975E+03  0.63800491391E+03  0.17200000000E+03 0.  1.
</event>
<event>
 4    1  0.3190379E-002  0.1797325E+03  0.7818608E-02  0.1168062E+00
         -2   -1    0    0    0  501 -0.00000000000E+00  0.00000000000E+00  0.11930389446E+02  0.11930389446E+02  0.00000000000E+00 0.  1.
          2   -1    0    0  502    0  0.00000000000E+00 -0.00000000000E+00 -0.27152249359E+04  0.27152249359E+04  0.00000000000E+00 0. -1.
          6    1    1    2  502    0  0.32156456085E+02  0.41057750572E+02 -0.14234869236E+04  0.14347887643E+04  0.17200000000E+03 0. -1.
         -6    1    1    2    0  501 -0.32156456085E+02 -0.41057750572E+02 -0.12798076228E+04  0.12923665610E+04  0.17200000000E+03 0.  1.
</event>
<event>
 4    1  0.3190379E-002  0.2192362E+03  0.7818608E-02  0.1134454E+00
          2   -1    0    0  502    0  0.00000000000E+00  0.00000000000E+00  0.12229411351E+03  0.12229411351E+03  0.00000000000E+00 0. -1.
         -2   -1    0    0    0  501 -0.00000000000E+00 -0.00000000000E+00 -0.42929806765E+03  0.42929806765E+03  0.00000000000E+00 0.  1.
          6    1    1    2  502    0  0.12620189503E+03 -0.50533286179E+02 -0.73333008583E+02  0.23117582371E+03  0.17200000000E+03 0. -1.
         -6    1    1    2    0  501 -0.12620189503E+03  0.50533286179E+02 -0.23367094555E+03  0.32041635745E+03  0.17200000000E+03 0.  1.
</event>
<event>
 4    1  0.3190379E-002  0.2556479E+03  0.7818608E-02  0.1109787E+00
         -2   -1    0    0    0  501 -0.00000000000E+00  0.00000000000E+00  0.82187228111E+02  0.82187228111E+02  0.00000000000E+00 0.  1.
          2   -1    0    0  502    0  0.00000000000E+00 -0.00000000000E+00 -0.24352716236E+04  0.24352716236E+04  0.00000000000E+00 0. -1.
          6    1    1    2  502    0  0.71279725082E+02  0.17518860890E+03 -0.22095156957E+04  0.22242561582E+04  0.17200000000E+03 0. -1.
         -6    1    1    2    0  501 -0.71279725082E+02 -0.17518860890E+03 -0.14356869976E+03  0.29320269345E+03  0.17200000000E+03 0.  1.
</event>
<event>
 4    1  0.3190379E-002  0.6068000E+03  0.7818608E-02  0.9891398E-01
          2   -1    0    0  502    0  0.00000000000E+00  0.00000000000E+00  0.14186712705E+04  0.14186712705E+04  0.00000000000E+00 0. -1.
         -2   -1    0    0    0  501 -0.00000000000E+00 -0.00000000000E+00 -0.29327241213E+03  0.29327241213E+03  0.00000000000E+00 0.  1.
          6    1    1    2  502    0  0.35963058963E+03 -0.45748020272E+03  0.85298657662E+03  0.10468010302E+04  0.17200000000E+03 0. -1.
         -6    1    1    2    0  501 -0.35963058963E+03  0.45748020272E+03  0.27241228173E+03  0.66514265245E+03  0.17200000000E+03 0.  1.
</event>
<event>
 4    1  0.3190379E-002  0.3233559E+03  0.7818608E-02  0.1074115E+00
          2   -1    0    0  502    0  0.00000000000E+00  0.00000000000E+00  0.71524736043E+03  0.71524736043E+03  0.00000000000E+00 0. -1.
         -2   -1    0    0    0  501 -0.00000000000E+00 -0.00000000000E+00 -0.18086547214E+03  0.18086547214E+03  0.00000000000E+00 0.  1.
          6    1    1    2  502    0  0.17072348548E+03  0.21407594138E+03  0.46338790476E+03  0.56505518974E+03  0.17200000000E+03 0. -1.
         -6    1    1    2    0  501 -0.17072348548E+03 -0.21407594138E+03  0.70993983532E+02  0.33105764282E+03  0.17200000000E+03 0. -1.
</event>
<event>
 4    1  0.3190379E-002  0.3865334E+03  0.7818608E-02  0.1048545E+00
         -2   -1    0    0    0  501 -0.00000000000E+00  0.00000000000E+00  0.80025416792E+02  0.80025416792E+02  0.00000000000E+00 0.  1.
          2   -1    0    0  502    0  0.00000000000E+00 -0.00000000000E+00 -0.18689288464E+04  0.18689288464E+04  0.00000000000E+00 0. -1.
          6    1    1    2  502    0  0.34164879613E+03 -0.55679325137E+02 -0.86321032362E+03  0.94580132689E+03  0.17200000000E+03 0. -1.
         -6    1    1    2    0  501 -0.34164879613E+03  0.55679325137E+02 -0.92569310601E+03  0.10031529363E+04  0.17200000000E+03 0.  1.
</event>
<event>
 4    1  0.3190379E-002  0.1721824E+03  0.7818608E-02  0.1175591E+00
         -2   -1    0    0    0  501 -0.00000000000E+00  0.00000000000E+00  0.25078124739E+02  0.25078124739E+02  0.00000000000E+00 0.  1.
          2   -1    0    0  502    0  0.00000000000E+00 -0.00000000000E+00 -0.18952568066E+04  0.18952568066E+04  0.00000000000E+00 0. -1.
          6    1    1    2  502    0 -0.33905514378E+01  0.71619147949E+01 -0.15240441098E+04  0.15337396251E+04  0.17200000000E+03 0. -1.
         -6    1    1    2    0  501  0.33905514378E+01 -0.71619147949E+01 -0.34613457207E+03  0.38659530629E+03  0.17200000000E+03 0.  1.
</event>
<event>
 4    1  0.3190379E-002  0.2254520E+03  0.7818608E-02  0.1129882E+00
         -2   -1    0    0    0  501 -0.00000000000E+00  0.00000000000E+00  0.11646875357E+03  0.11646875357E+03  0.00000000000E+00 0.  1.
          2   -1    0    0  502    0  0.00000000000E+00 -0.00000000000E+00 -0.11761406208E+04  0.11761406208E+04  0.00000000000E+00 0. -1.
          6    1    1    2  502    0 -0.93372418139E+02  0.11192052102E+03 -0.17277643396E+02  0.22611308776E+03  0.17200000000E+03 0.  1.
         -6    1    1    2    0  501  0.93372418139E+02 -0.11192052102E+03 -0.10423942238E+04  0.10664962866E+04  0.17200000000E+03 0. -1.
</event>
<event>
 4    1  0.3190379E-002  0.6168719E+03  0.7818608E-02  0.9871008E-01
         -1   -1    0    0    0  501 -0.00000000000E+00  0.00000000000E+00  0.56676122568E+03  0.56676122568E+03  0.00000000000E+00 0.  1.
          1   -1    0    0  502    0  0.00000000000E+00 -0.00000000000E+00 -0.10099164620E+04  0.10099164620E+04  0.00000000000E+00 0. -1.
          6    1    1    2  502    0  0.10758289249E+03 -0.58255719167E+03 -0.67798392635E+03  0.91662051292E+03  0.17200000000E+03 0. -1.
         -6    1    1    2    0  501 -0.10758289249E+03  0.58255719167E+03  0.23482869001E+03  0.66005717478E+03  0.17200000000E+03 0.  1.
</event>
<event>
 4    1  0.3190379E-002  0.2102876E+03  0.7818608E-02  0.1141338E+00
          2   -1    0    0  502    0  0.00000000000E+00  0.00000000000E+00  0.13224592894E+04  0.13224592894E+04  0.00000000000E+00 0. -1.
         -2   -1    0    0    0  501 -0.00000000000E+00 -0.00000000000E+00 -0.38270953315E+02  0.38270953315E+02  0.00000000000E+00 0.  1.
          6    1    1    2  502    0 -0.89936815089E+02  0.80921142734E+02  0.88386159548E+03  0.90853298345E+03  0.17200000000E+03 0. -1.
         -6    1    1    2    0  501  0.89936815089E+02 -0.80921142734E+02  0.40032674065E+03  0.45219725931E+03  0.17200000000E+03 0.  1.
</event>
<event>
 4    1  0.3190379E-002  0.2465372E+03  0.7818608E-02  0.1115513E+00
          1   -1    0    0  502    0  0.00000000000E+00  0.00000000000E+00  0.25071176128E+03  0.25071176128E+03  0.00000000000E+00 0. -1.
         -1   -1    0    0    0  501 -0.00000000000E+00 -0.00000000000E+00 -0.40104910785E+03  0.40104910785E+03  0.00000000000E+00 0.  1.
          6    1    1    2  502    0 -0.12926791019E+03  0.12035939528E+03  0.12977494422E+03  0.27860745285E+03  0.17200000000E+03 0. -1.
         -6    1    1    2    0  501  0.12926791019E+03 -0.12035939528E+03 -0.28011229078E+03  0.37315341628E+03  0.17200000000E+03 0.  1.
</event>
<event>
 4    1  0.3190379E-002  0.1861361E+03  0.7818608E-02  0.1161993E+00
          2   -1    0    0  502    0  0.00000000000E+00  0.00000000000E+00  0.16986441333E+04  0.16986441333E+04  0.00000000000E+00 0. -1.
         -2   -1    0    0    0  501 -0.00000000000E+00 -0.00000000000E+00 -0.22295171322E+02  0.22295171322E+02  0.00000000000E+00 0.  1.
          6    1    1    2  502    0  0.10163101412E+02  0.70422836214E+02  0.58708015131E+03  0.61588129421E+03  0.17200000000E+03 0.  1.
         -6    1    1    2    0  501 -0.10163101412E+02 -0.70422836214E+02  0.10892688107E+04  0.11050580104E+04  0.17200000000E+03 0. -1.
</event>
<event>
 4    1  0.3190379E-002  0.1721552E+03  0.7818608E-02  0.1175619E+00
          2   -1    0    0  502    0  0.00000000000E+00  0.00000000000E+00  0.52598278167E+03  0.52598278167E+03  0.00000000000E+00 0. -1.
         -2   -1    0    0    0  501 -0.00000000000E+00 -0.00000000000E+00 -0.56411734250E+02  0.56411734250E+02  0.00000000000E+00 0.  1.
          6    1    1    2  502    0 -0.58945749532E-01 -0.73076589483E+01  0.24467109024E+03  0.29916775855E+03  0.17200000000E+03 0.  1.
         -6    1    1    2    0  501  0.58945749532E-01  0.73076589483E+01  0.22489995718E+03  0.28322675738E+03  0.17200000000E+03 0.  1.
</event>
<event>
 4    1  0.3190379E-002  0.3175049E+03  0.7818608E-02  0.1076803E+00
          1   -1    0    0  502    0  0.00000000000E+00  0.00000000000E+00  0.14007469959E+04  0.14007469959E+04  0.00000000000E+00 0. -1.
         -1   -1    0    0    0  501 -0.00000000000E+00 -0.00000000000E+00 -0.30017631316E+03  0.30017631316E+03  0.00000000000E+00 0.  1.
          6    1    1    2  502    0 -0.17138397992E+03  0.20457985700E+03  0.12918208770E+04  0.13302671027E+04  0.17200000000E+03 0. -1.
         -6    1    1    2    0  501  0.17138397992E+03 -0.20457985700E+03 -0.19125019425E+03  0.37065620630E+03  0.17200000000E+03 0.  1.
</event>
<event>
 4    1  0.3190379E-002  0.1848257E+03  0.7818608E-02  0.1163213E+00
         -2   -1    0    0    0  501 -0.00000000000E+00  0.00000000000E+00  0.46985361004E+03  0.46985361004E+03  0.00000000000E+00 0.  1.
          2   -1    0    0  502    0  0.00000000000E+00 -0.00000000000E+00 -0.27091875857E+03  0.27091875857E+03  0.00000000000E+00 0. -1.
          6    1    1    2  502    0 -0.41050186279E+02  0.53771843673E+02 -0.21734525272E+03  0.28530595480E+03  0.17200000000E+03 0. -1.
         -6    1    1    2    0  501  0.41050186279E+02 -0.53771843673E+02  0.41628010419E+03  0.45546641381E+03  0.17200000000E+03 0.  1.
</event>
<event>
 4    1  0.3190379E-002  0.1794149E+03  0.7818608E-02  0.1168370E+00
         -2   -1    0    0    0  501 -0.00000000000E+00  0.00000000000E+00  0.21144466237E+03  0.21144466237E+03  0.00000000000E+00 0.  1.
          2   -1    0    0  502    0  0.00000000000E+00 -0.00000000000E+00 -0.21855163341E+03  0.21855163341E+03  0.00000000000E+00 0. -1.
          6    1    1    2  502    0 -0.26115810192E+02  0.43859788511E+02 -0.12198359657E+03  0.21695555864E+03  0.17200000000E+03 0. -1.
         -6    1    1    2    0  501  0.26115810192E+02 -0.43859788511E+02  0.11487662553E+03  0.21304073714E+03  0.17200000000E+03 0.  1.
</event>
<event>
 4    1  0.3190379E-002  0.2926757E+03  0.7818608E-02  0.1088960E+00
         -2   -1    0    0    0  501 -0.00000000000E+00  0.00000000000E+00  0.54657438975E+02  0.54657438975E+02  0.00000000000E+00 0.  1.
          2   -1    0    0  502    0  0.00000000000E+00 -0.00000000000E+00 -0.16027279490E+04  0.16027279490E+04  0.00000000000E+00 0. -1.
          6    1    1    2  502    0 -0.22708095869E+03  0.67151145121E+02 -0.65065095946E+03  0.71344636038E+03  0.17200000000E+03 0. -1.
         -6    1    1    2    0  501  0.22708095869E+03 -0.67151145121E+02 -0.89741955059E+03  0.94393902763E+03  0.17200000000E+03 0.  1.
</event>
<event>
 4    1  0.3190379E-002  0.2238250E+03  0.7818608E-02  0.1131063E+00
          1   -1    0    0  502    0  0.00000000000E+00  0.00000000000E+00  0.15236926131E+04  0.15236926131E+04  0.00000000000E+00 0. -1.
         -1   -1    0    0    0  501 -0.00000000000E+00 -0.00000000000E+00 -0.41978048252E+02  0.41978048252E+02  0.00000000000E+00 0.  1.
          6    1    1    2  502    0 -0.11735792136E+01  0.14322103643E+03  0.11053214880E+04  0.11277558399E+04  0.17200000000E+03 0. -1.
         -6    1    1    2    0  501  0.11735792136E+01 -0.14322103643E+03  0.37639307690E+03  0.43791482151E+03  0.17200000000E+03 0.  1.
</event>
<event>
 4    1  0.3190379E-002  0.5014121E+03  0.7818608E-02  0.1013411E+00
         -2   -1    0    0    0  501 -0.00000000000E+00  0.00000000000E+00  0.55814348845E+03  0.55814348845E+03  0.00000000000E+00 0.  1.
          2   -1    0    0  502    0  0.00000000000E+00 -0.00000000000E+00 -0.46693785757E+03  0.46693785757E+03  0.00000000000E+00 0. -1.
          6    1    1    2  502    0  0.41471885055E+03 -0.22324508032E+03  0.14192352694E+03  0.52111071605E+03  0.17200000000E+03 0. -1.
         -6    1    1    2    0  501 -0.41471885055E+03  0.22324508032E+03 -0.50717896064E+02  0.50397062997E+03  0.17200000000E+03 0. -1.
</event>
<event>
 4    1  0.3190379E-002  0.1741168E+03  0.7818608E-02  0.1173621E+00
          2   -1    0    0  502    0  0.00000000000E+00  0.00000000000E+00  0.26163585416E+03  0.26163585416E+03  0.00000000000E+00 0. -1.
         -2   -1    0    0    0  501 -0.00000000000E+00 -0.00000000000E+00 -0.22961628791E+03  0.22961628791E+03  0.00000000000E+00 0.  1.
          6    1    1    2  502    0  0.14880690345E+02  0.22610548723E+02  0.18888589215E+03  0.25689404842E+03  0.17200000000E+03 0. -1.
         -6    1    1    2    0  501 -0.14880690345E+02 -0.22610548723E+02 -0.15686632590E+03  0.23435809365E+03  0.17200000000E+03 0.  1.
</event>
<event>
 4    1  0.3190379E-002  0.1890897E+03  0.7818608E-02  0.1159285E+00
         -2   -1    0    0    0  501 -0.00000000000E+00  0.00000000000E+00  0.16288522191E+02  0.16288522191E+02  0.00000000000E+00 0.  1.
          2   -1    0    0  502    0  0.00000000000E+00 -0.00000000000E+00 -0.25883581142E+04  0.25883581142E+04  0.00000000000E+00 0. -1.
          6    1    1    2  502    0 -0.62211021249E+02 -0.47965794158E+02 -0.17936629503E+04  0.18036024251E+04  0.17200000000E+03 0. -1.
         -6    1    1    2    0  501  0.62211021249E+02  0.47965794158E+02 -0.77840664171E+03  0.80104421128E+03  0.17200000000E+03 0.  1.
</event>
<event>
 4    1  0.3190379E-002  0.1777963E+03  0.7818608E-02  0.1169953E+00
          2   -1    0    0  502    0  0.00000000000E+00  0.00000000000E+00  0.11601434548E+04  0.11601434548E+04  0.00000000000E+00 0. -1.
         -2   -1    0    0    0  501 -0.00000000000E+00 -0.00000000000E+00 -0.32556712305E+02  0.32556712305E+02  0.00000000000E+00 0.  1.
          6    1    1    2  502    0 -0.37227454616E+02 -0.25330439472E+02  0.32298131347E+03  0.36868474798E+03  0.17200000000E+03 0.  1.
         -6    1    1    2    0  501  0.37227454616E+02  0.25330439472E+02  0.80460542898E+03  0.82401541908E+03  0.17200000000E+03 0.  1.
</event>
<event>
 4    1  0.3190379E-002  0.2703733E+03  0.7818608E-02  0.1101066E+00
          2   -1    0    0  502    0  0.00000000000E+00  0.00000000000E+00  0.32664891185E+04  0.32664891185E+04  0.00000000000E+00 0. -1.
         -2   -1    0    0    0  501 -0.00000000000E+00 -0.00000000000E+00 -0.26422528150E+02  0.26422528150E+02  0.00000000000E+00 0.  1.
          6    1    1    2  502    0  0.20677445504E+03 -0.27604888713E+02  0.22640951732E+04  0.22801817161E+04  0.17200000000E+03 0. -1.
         -6    1    1    2    0  501 -0.20677445504E+03  0.27604888713E+02  0.97597141717E+03  0.10127299306E+04  0.17200000000E+03 0.  1.
</event>
<event>
 4    1  0.3190379E-002  0.4083498E+03  0.7818608E-02  0.1040926E+00
          2   -1    0    0  502    0  0.00000000000E+00  0.00000000000E+00  0.10277349053E+04  0.10277349053E+04  0.00000000000E+00 0. -1.
         -2   -1    0    0    0  501 -0.00000000000E+00 -0.00000000000E+00 -0.18467504158E+03  0.18467504158E+03  0.00000000000E+00 0.  1.
          6    1    1    2  502    0 -0.20226585641E+03 -0.31024843158E+03  0.63277471904E+03  0.75309588435E+03  0.17200000000E+03 0. -1.
         -6    1    1    2    0  501  0.20226585641E+03  0.31024843158E+03  0.21028514468E+03  0.45931406253E+03  0.17200000000E+03 0.  1.
</event>
<event>
 4    1  0.3190379E-002  0.6571000E+03  0.7818608E-02  0.9793547E-01
         -1   -1    0    0    0  501 -0.00000000000E+00  0.00000000000E+00  0.17384174167E+04  0.17384174167E+04  0.00000000000E+00 0.  1.
          1   -1    0    0  502    0  0.00000000000E+00 -0.00000000000E+00 -0.40183969767E+03  0.40183969767E+03  0.00000000000E+00 0. -1.
          6    1    1    2  502    0  0.55104058764E+03 -0.31392777049E+03  0.69668045371E+01  0.65713690406E+03  0.17200000000E+03 0. -1.
         -6    1    1    2    0  501 -0.55104058764E+03  0.31392777049E+03  0.13296109145E+04  0.14831202103E+04  0.17200000000E+03 0.  1.
</event>
<event>
 4    1  0.3190379E-002  0.1890773E+03  0.7818608E-02  0.1159296E+00
          1   -1    0    0  502    0  0.00000000000E+00  0.00000000000E+00  0.37181916691E+03  0.37181916691E+03  0.00000000000E+00 0. -1.
         -1   -1    0    0    0  501 -0.00000000000E+00 -0.00000000000E+00 -0.13582538104E+03  0.13582538104E+03  0.00000000000E+00 0.  1.
          6    1    1    2  502    0 -0.74288050882E+02  0.25446266923E+02 -0.19186820315E+02  0.19004831248E+03  0.17200000000E+03 0.  1.
         -6    1    1    2    0  501  0.74288050882E+02 -0.25446266923E+02  0.25518060619E+03  0.31759623547E+03  0.17200000000E+03 0. -1.
</event>
<event>
 4    1  0.3190379E-002  0.3047146E+03  0.7818608E-02  0.1082907E+00
          1   -1    0    0  502    0  0.00000000000E+00  0.00000000000E+00  0.14505957832E+03  0.14505957832E+03  0.00000000000E+00 0. -1.
         -1   -1    0    0    0  501 -0.00000000000E+00 -0.00000000000E+00 -0.65858920698E+03  0.65858920698E+03  0.00000000000E+00 0.  1.
          6    1    1    2  502    0  0.27430334873E+02  0.25002911116E+03 -0.18941720252E+03  0.35878943171E+03  0.17200000000E+03 0.  1.
         -6    1    1    2    0  501 -0.27430334873E+02 -0.25002911116E+03 -0.32411242614E+03  0.44485935359E+03  0.17200000000E+03 0.  1.
</event>
<event>
 4    1  0.3190379E-002  0.1760480E+03  0.7818608E-02  0.1171684E+00
          2   -1    0    0  502    0  0.00000000000E+00  0.00000000000E+00  0.96576802201E+03  0.96576802201E+03  0.00000000000E+00 0. -1.
         -2   -1    0    0    0  501 -0.00000000000E+00 -0.00000000000E+00 -0.32528802671E+02  0.32528802671E+02  0.00000000000E+00 0.  1.
          6    1    1    2  502    0  0.32202258365E+02  0.19285361186E+02  0.40874285936E+03  0.44504340876E+03  0.17200000000E+03 0. -1.
         -6    1    1    2    0  501 -0.32202258365E+02 -0.19285361186E+02  0.52449635998E+03  0.55325341592E+03  0.17200000000E+03 0. -1.
</event>
<event>
 4    1  0.3190379E-002  0.3390571E+03  0.7818608E-02  0.1067198E+00
          1   -1    0    0  502    0  0.00000000000E+00  0.00000000000E+00  0.13543876555E+04  0.13543876555E+04  0.00000000000E+00 0. -1.
         -1   -1    0    0    0  501 -0.00000000000E+00 -0.00000000000E+00 -0.13353658102E+03  0.13353658102E+03  0.00000000000E+00 0.  1.
          6    1    1    2  502    0  0.20818863003E+03 -0.20502005933E+03  0.10595056020E+04  0.11124350997E+04  0.17200000000E+03 0. -1.
         -6    1    1    2    0  501 -0.20818863003E+03  0.20502005933E+03  0.16134547257E+03  0.37548913688E+03  0.17200000000E+03 0.  1.
</event>
<event>
 4    1  0.3190379E-002  0.2542543E+03  0.7818608E-02  0.1110645E+00
         -2   -1    0    0    0  501 -0.00000000000E+00  0.00000000000E+00  0.10191849109E+03  0.10191849109E+03  0.00000000000E+00 0.  1.
          2   -1    0    0  502    0  0.00000000000E+00 -0.00000000000E+00 -0.94330938777E+03  0.94330938777E+03  0.00000000000E+00 0. -1.
          6    1    1    2  502    0 -0.16056808963E+03  0.96328159532E+02 -0.71981946496E+03  0.76340375154E+03  0.17200000000E+03 0. -1.
         -6    1    1    2    0  501  0.16056808963E+03 -0.96328159532E+02 -0.12157143172E+03  0.28182412732E+03  0.17200000000E+03 0. -1.
</event>
<event>
 4    1  0.3190379E-002  0.2316828E+03  0.7818608E-02  0.1125461E+00
          2   -1    0    0  502    0  0.00000000000E+00  0.00000000000E+00  0.48885292082E+03  0.48885292082E+03  0.00000000000E+00 0. -1.
         -2   -1    0    0    0  501 -0.00000000000E+00 -0.00000000000E+00 -0.11047954533E+03  0.11047954533E+03  0.00000000000E+00 0.  1.
          6    1    1    2  502    0 -0.15217713664E+03  0.30578213337E+02  0.16571496621E+03  0.28484795606E+03  0.17200000000E+03 0. -1.
         -6    1    1    2    0  501  0.15217713664E+03 -0.30578213337E+02  0.21265840928E+03  0.31448451009E+03  0.17200000000E+03 0. -1.
</event>
<event>
 4    1  0.3190379E-002  0.2146207E+03  0.7818608E-02  0.1137958E+00
          1   -1    0    0  502    0  0.00000000000E+00  0.00000000000E+00  0.96107743681E+02  0.96107743681E+02  0.00000000000E+00 0. -1.
         -1   -1    0    0    0  501 -0.00000000000E+00 -0.00000000000E+00 -0.51548943090E+03  0.51548943090E+03  0.00000000000E+00 0.  1.
          6    1    1    2  502    0  0.38243605822E+02  0.12253757678E+03 -0.29074343556E+03  0.36137760920E+03  0.17200000000E+03 0.  1.
         -6    1    1    2    0  501 -0.38243605822E+02 -0.12253757678E+03 -0.12863825165E+03  0.25021956538E+03  0.17200000000E+03 0. -1.
</event>
<event>
 4    1  0.3190379E-002  0.1821349E+03  0.7818608E-02  0.1165753E+00
         -2   -1    0    0    0  501 -0.00000000000E+00  0.00000000000E+00  0.28937187091E+02  0.28937187091E+02  0.00000000000E+00 0.  1.
          2   -1    0    0  502    0  0.00000000000E+00 -0.00000000000E+00 -0.11602013783E+04  0.11602013783E+04  0.00000000000E+00 0. -1.
          6    1    1    2  502    0  0.56652700731E+01 -0.59640844672E+02 -0.50074623906E+03  0.53284136624E+03  0.17200000000E+03 0. -1.
         -6    1    1    2    0  501 -0.56652700731E+01  0.59640844672E+02 -0.63051795214E+03  0.65629719915E+03  0.17200000000E+03 0.  1.
</event>
<event>
 4    1  0.3190379E-002  0.5363298E+03  0.7818608E-02  0.1004709E+00
          1   -1    0    0  502    0  0.00000000000E+00  0.00000000000E+00  0.24286020639E+04  0.24286020639E+04  0.00000000000E+00 0. -1.
         -1   -1    0    0    0  501 -0.00000000000E+00 -0.00000000000E+00 -0.12451686345E+03  0.12451686345E+03  0.00000000000E+00 0.  1.
          6    1    1    2  502    0  0.82586105643E+02 -0.50124360242E+03  0.14339968325E+04  0.15310116033E+04  0.17200000000E+03 0. -1.
         -6    1    1    2    0  501 -0.82586105643E+02  0.50124360242E+03  0.87008836792E+03  0.10221073240E+04  0.17200000000E+03 0.  1.
</event>
<event>
 4    1  0.3190379E-002  0.2134978E+03  0.7818608E-02  0.1138826E+00
         -2   -1    0    0    0  501 -0.00000000000E+00  0.00000000000E+00  0.60623531681E+02  0.60623531681E+02  0.00000000000E+00 0.  1.
          2   -1    0    0  502    0  0.00000000000E+00 -0.00000000000E+00 -0.17206402758E+04  0.17206402758E+04  0.00000000000E+00 0. -1.
          6    1    1    2  502    0 -0.74473026636E+02  0.10223055820E+03 -0.14982945591E+04  0.15134291872E+04  0.17200000000E+03 0. -1.
         -6    1    1    2    0  501  0.74473026636E+02 -0.10223055820E+03 -0.16172218507E+03  0.26783462037E+03  0.17200000000E+03 0.  1.
</event>
<event>
 4    1  0.3190379E-002  0.4271784E+03  0.7818608E-02  0.1034755E+00
          2   -1    0    0  502    0  0.00000000000E+00  0.00000000000E+00  0.79525872472E+03  0.79525872472E+03  0.00000000000E+00 0. -1.
         -2   -1    0    0    0  501 -0.00000000000E+00 -0.00000000000E+00 -0.24379931482E+03  0.24379931482E+03  0.00000000000E+00 0.  1.
          6    1    1    2  502    0 -0.30468458876E+03  0.24508103116E+03  0.40171857660E+03  0.58639511018E+03  0.17200000000E+03 0. -1.
         -6    1    1    2    0  501  0.30468458876E+03 -0.24508103116E+03  0.14974083330E+03  0.45266292936E+03  0.17200000000E+03 0.  1.
</event>
<event>
 4    1  0.3190379E-002  0.1721803E+03  0.7818608E-02  0.1175593E+00
         -1   -1    0    0    0  501 -0.00000000000E+00  0.00000000000E+00  0.53551541949E+02  0.53551541949E+02  0.00000000000E+00 0.  1.
          1   -1    0    0  502    0  0.00000000000E+00 -0.00000000000E+00 -0.71282419126E+03  0.71282419126E+03  0.00000000000E+00 0. -1.
          6    1    1    2  502    0  0.80791579680E+00  0.78354780816E+01 -0.51073999600E+03  0.53898180949E+03  0.17200000000E+03 0. -1.
         -6    1    1    2    0  501 -0.80791579680E+00 -0.78354780816E+01 -0.14853265331E+03  0.22739392372E+03  0.17200000000E+03 0.  1.
</event>
<event>
 4    1  0.3190379E-002  0.2374219E+03  0.7818608E-02  0.1121522E+00
         -2   -1    0    0    0  501 -0.00000000000E+00  0.00000000000E+00  0.81407056849E+02  0.81407056849E+02  0.00000000000E+00 0.  1.
          2   -1    0    0  502    0  0.00000000000E+00 -0.00000000000E+00 -0.76454211736E+03  0.76454211736E+03  0.00000000000E+00 0. -1.
          6    1    1    2  502    0  0.10915667696E+03  0.12194258633E+03 -0.47146470621E+03  0.52787133251E+03  0.17200000000E+03 0.  1.
         -6    1    1    2    0  501 -0.10915667696E+03 -0.12194258633E+03 -0.21167035430E+03  0.31807784169E+03  0.17200000000E+03 0. -1.
</event>
<event>
 4    1  0.3190379E-002  0.2966683E+03  0.7818608E-02  0.1086918E+00
          2   -1    0    0  502    0  0.00000000000E+00  0.00000000000E+00  0.34409729365E+04  0.34409729365E+04  0.00000000000E+00 0. -1.
         -2   -1    0    0    0  501 -0.00000000000E+00 -0.00000000000E+00 -0.26405084320E+02  0.26405084320E+02  0.00000000000E+00 0.  1.
          6    1    1    2  502    0 -0.14486840995E+03  0.19349736826E+03  0.20141773627E+04  0.20359082829E+04  0.17200000000E+03 0. -1.
         -6    1    1    2    0  501  0.14486840995E+03 -0.19349736826E+03  0.14003904894E+04  0.14314697379E+04  0.17200000000E+03 0. -1.
</event>
<event>
 4    1  0.3190379E-002  0.1721141E+03  0.7818608E-02  0.1175661E+00
          2   -1    0    0  502    0  0.00000000000E+00  0.00000000000E+00  0.30215292417E+03  0.30215292417E+03  0.00000000000E+00 0. -1.
         -2   -1    0    0    0  501 -0.00000000000E+00 -0.00000000000E+00 -0.13817798043E+03  0.13817798043E+03  0.00000000000E+00 0.  1.
          6    1    1    2  502    0  0.32810234772E+01  0.53371329416E+01  0.20064746890E+03  0.26435328044E+03  0.17200000000E+03 0. -1.
         -6    1    1    2    0  501 -0.32810234772E+01 -0.53371329416E+01 -0.36672525168E+02  0.17597762416E+03  0.17200000000E+03 0.  1.
</event>
<event>
 4    1  0.3190379E-002  0.1101759E+04  0.7818608E-02  0.9203479E-01
          2   -1    0    0  502    0  0.00000000000E+00  0.00000000000E+00  0.25201287504E+04  0.25201287504E+04  0.00000000000E+00 0. -1.
         -2   -1    0    0    0  501 -0.00000000000E+00 -0.00000000000E+00 -0.51775323851E+03  0.51775323851E+03  0.00000000000E+00 0.  1.
          6    1    1    2  502    0 -0.92733668383E+02  0.10842923482E+04  0.14021699129E+04  0.17832425225E+04  0.17200000000E+03 0. -1.
         -6    1    1    2    0  501  0.92733668383E+02 -0.10842923482E+04  0.60020559904E+03  0.12546394664E+04  0.17200000000E+03 0.  1.
</event>
<event>
 4    1  0.3190379E-002  0.2166629E+03  0.7818608E-02  0.1136396E+00
          2   -1    0    0  502    0  0.00000000000E+00  0.00000000000E+00  0.26464456947E+04  0.26464456947E+04  0.00000000000E+00 0. -1.
         -2   -1    0    0    0  501 -0.00000000000E+00 -0.00000000000E+00 -0.36483104095E+02  0.36483104095E+02  0.00000000000E+00 0.  1.
          6    1    1    2  502    0  0.12208407093E+03  0.49540983392E+02  0.22665413637E+04  0.22768734226E+04  0.17200000000E+03 0. -1.
         -6    1    1    2    0  501 -0.12208407093E+03 -0.49540983392E+02  0.34342122692E+03  0.40605537616E+03  0.17200000000E+03 0.  1.
</event>
<event>
 4    1  0.3190379E-002  0.5291395E+03  0.7818608E-02  0.1006441E+00
          1   -1    0    0  502    0  0.00000000000E+00  0.00000000000E+00  0.99415112287E+03  0.99415112287E+03  0.00000000000E+00 0. -1.
         -1   -1    0    0    0  501 -0.00000000000E+00 -0.00000000000E+00 -0.30272010342E+03  0.30272010342E+03  0.00000000000E+00 0.  1.
          6    1    1    2  502    0  0.49119984640E+03 -0.95537147468E+02  0.51684503114E+03  0.73967386182E+03  0.17200000000E+03 0. -1.
         -6    1    1    2    0  501 -0.49119984640E+03  0.95537147468E+02  0.17458598832E+03  0.55719736447E+03  0.17200000000E+03 0.  1.
</event>
<event>
 4    1  0.3190379E-002  0.2019942E+03  0.7818608E-02  0.1148067E+00
          2   -1    0    0  502    0  0.00000000000E+00  0.00000000000E+00  0.11480003953E+03  0.11480003953E+03  0.00000000000E+00 0. -1.
         -2   -1    0    0    0  501 -0.00000000000E+00 -0.00000000000E+00 -0.35761881647E+03  0.35761881647E+03  0.00000000000E+00 0.  1.
          6    1    1    2  502    0 -0.10238443264E+03 -0.27112103487E+02 -0.13995281875E+03  0.24574057394E+03  0.17200000000E+03 0.  1.
         -6    1    1    2    0  501  0.10238443264E+03  0.27112103487E+02 -0.10286595819E+03  0.22667828206E+03  0.17200000000E+03 0. -1.
</event>
<event>
 4    1  0.3190379E-002  0.2099014E+03  0.7818608E-02  0.1141644E+00
         -2   -1    0    0    0  501 -0.00000000000E+00  0.00000000000E+00  0.80220589296E+02  0.80220589296E+02  0.00000000000E+00 0.  1.
          2   -1    0    0  502    0  0.00000000000E+00 -0.00000000000E+00 -0.15396076911E+04  0.15396076911E+04  0.00000000000E+00 0. -1.
          6    1    1    2  502    0  0.63216577107E+02  0.10236343856E+03 -0.13792799946E+04  0.13951601745E+04  0.17200000000E+03 0. -1.
         -6    1    1    2    0  501 -0.63216577107E+02 -0.10236343856E+03 -0.80107107273E+02  0.22466810590E+03  0.17200000000E+03 0.  1.
</event>
<event>
 4    1  0.3190379E-002  0.1960365E+03  0.7818608E-02  0.1153127E+00
          2   -1    0    0  502    0  0.00000000000E+00  0.00000000000E+00  0.46515862860E+03  0.46515862860E+03  0.00000000000E+00 0. -1.
         -2   -1    0    0    0  501 -0.00000000000E+00 -0.00000000000E+00 -0.11677567694E+03  0.11677567694E+03  0.00000000000E+00 0.  1.
          6    1    1    2  502    0  0.92449759733E+02 -0.17301517870E+02  0.33155871378E+03  0.38517720763E+03  0.17200000000E+03 0. -1.
         -6    1    1    2    0  501 -0.92449759733E+02  0.17301517870E+02  0.16824237883E+02  0.19675709790E+03  0.17200000000E+03 0.  1.
</event>
<event>
 4    1  0.3190379E-002  0.1884581E+03  0.7818608E-02  0.1159859E+00
         -1   -1    0    0    0  501 -0.00000000000E+00  0.00000000000E+00  0.63247202232E+03  0.63247202232E+03  0.00000000000E+00 0.  1.
          1   -1    0    0  502    0  0.00000000000E+00 -0.00000000000E+00 -0.10116089163E+03  0.10116089163E+03  0.00000000000E+00 0. -1.
          6    1    1    2  502    0 -0.95322873444E+01  0.76430420527E+02  0.20987596244E+02  0.18962318656E+03  0.17200000000E+03 0. -1.
         -6    1    1    2    0  501  0.95322873444E+01 -0.76430420527E+02  0.51032353445E+03  0.54400972739E+03  0.17200000000E+03 0.  1.
</event>
<event>
 4    1  0.3190379E-002  0.3049011E+03  0.7818608E-02  0.1082816E+00
         -1   -1    0    0    0  501 -0.00000000000E+00  0.00000000000E+00  0.18184557367E+03  0.18184557367E+03  0.00000000000E+00 0.  1.
          1   -1    0    0  502    0  0.00000000000E+00 -0.00000000000E+00 -0.79007435001E+03  0.79007435001E+03  0.00000000000E+00 0. -1.
          6    1    1    2  502    0 -0.17449249996E+02  0.25114981985E+03 -0.59281540098E+03  0.66662943827E+03  0.17200000000E+03 0. -1.
         -6    1    1    2    0  501  0.17449249996E+02 -0.25114981985E+03 -0.15413375366E+02  0.30529048540E+03  0.17200000000E+03 0.  1.
</event>
<event>
 4    1  0.3190379E-002  0.3963710E+03  0.7818608E-02  0.1045044E+00
         -2   -1    0    0    0  501 -0.00000000000E+00  0.00000000000E+00  0.35483396300E+03  0.35483396300E+03  0.00000000000E+00 0.  1.
          2   -1    0    0  502    0  0.00000000000E+00 -0.00000000000E+00 -0.52382834625E+03  0.52382834625E+03  0.00000000000E+00 0. -1.
          6    1    1    2  502    0  0.23054903478E+03  0.27271429312E+03 -0.25731780733E+03  0.47256999172E+03  0.17200000000E+03 0. -1.
         -6    1    1    2    0  501 -0.23054903478E+03 -0.27271429312E+03  0.88323424076E+02  0.40609231752E+03  0.17200000000E+03 0.  1.
</event>
<event>
 4    1  0.3190379E-002  0.2598839E+03  0.7818608E-02  0.1107213E+00
          2   -1    0    0  502    0  0.00000000000E+00  0.00000000000E+00  0.15081826261E+03  0.15081826261E+03  0.00000000000E+00 0. -1.
         -2   -1    0    0    0  501 -0.00000000000E+00 -0.00000000000E+00 -0.11914440321E+04  0.11914440321E+04  0.00000000000E+00 0.  1.
          6    1    1    2  502    0 -0.15752088479E+03  0.11464220166E+03  0.98957991705E+01  0.26007227916E+03  0.17200000000E+03 0. -1.
         -6    1    1    2    0  501  0.15752088479E+03 -0.11464220166E+03 -0.10505215686E+04  0.10821900155E+04  0.17200000000E+03 0.  1.
</event>
<event>
 4    1  0.3190379E-002  0.2655737E+03  0.7818608E-02  0.1103840E+00
         -2   -1    0    0    0  501 -0.00000000000E+00  0.00000000000E+00  0.62123407092E+02  0.62123407092E+02  0.00000000000E+00 0.  1.
          2   -1    0    0  502    0  0.00000000000E+00 -0.00000000000E+00 -0.12799612549E+04  0.12799612549E+04  0.00000000000E+00 0. -1.
          6    1    1    2  502    0 -0.48388385047E+00 -0.20234904838E+03 -0.83450458532E+03  0.87574384065E+03  0.17200000000E+03 0. -1.
         -6    1    1    2    0  501  0.48388385047E+00  0.20234904838E+03 -0.38333326251E+03  0.46634082136E+03  0.17200000000E+03 0.  1.
</event>
<event>
 4    1  0.3190379E-002  0.1903488E+03  0.7818608E-02  0.1158147E+00
         -2   -1    0    0    0  501 -0.00000000000E+00  0.00000000000E+00  0.99791763795E+02  0.99791763795E+02  0.00000000000E+00 0.  1.
          2   -1    0    0  502    0  0.00000000000E+00 -0.00000000000E+00 -0.58179475998E+03  0.58179475998E+03  0.00000000000E+00 0. -1.
          6    1    1    2  502    0  0.19809793689E+02 -0.79096319222E+02 -0.44995157523E+03  0.48855815999E+03  0.17200000000E+03 0. -1.
         -6    1    1    2    0  501 -0.19809793689E+02  0.79096319222E+02 -0.32051420955E+02  0.19302836379E+03  0.17200000000E+03 0.  1.
</event>
<event>
 4    1  0.3190379E-002  0.1955031E+03  0.7818608E-02  0.1153589E+00
         -2   -1    0    0    0  501 -0.00000000000E+00  0.00000000000E+00  0.29758501321E+03  0.29758501321E+03  0.00000000000E+00 0.  1.
          2   -1    0    0  502    0  0.00000000000E+00 -0.00000000000E+00 -0.13297989431E+03  0.13297989431E+03  0.00000000000E+00 0. -1.
          6    1    1    2  502    0  0.86506790741E+02  0.33971373996E+02  0.42519960115E+02  0.20007355173E+03  0.17200000000E+03 0. -1.
         -6    1    1    2    0  501 -0.86506790741E+02 -0.33971373996E+02  0.12208515878E+03  0.23049135578E+03  0.17200000000E+03 0.  1.
</event>
<event>
 4    1  0.3190379E-002  0.2977025E+03  0.7818608E-02  0.1086395E+00
          2   -1    0    0  502    0  0.00000000000E+00  0.00000000000E+00  0.11322432565E+03  0.11322432565E+03  0.00000000000E+00 0. -1.
         -2   -1    0    0    0  501 -0.00000000000E+00 -0.00000000000E+00 -0.78769615620E+03  0.78769615620E+03  0.00000000000E+00 0.  1.
          6    1    1    2  502    0  0.14819247795E+02 -0.24253490839E+03 -0.37291683786E+03  0.47717267299E+03  0.17200000000E+03 0. -1.
         -6    1    1    2    0  501 -0.14819247795E+02  0.24253490839E+03 -0.30155499269E+03  0.42374780886E+03  0.17200000000E+03 0.  1.
</event>
<event>
 4    1  0.3190379E-002  0.4587993E+03  0.7818608E-02  0.1025130E+00
          2   -1    0    0  502    0  0.00000000000E+00  0.00000000000E+00  0.20919361862E+04  0.20919361862E+04  0.00000000000E+00 0. -1.
         -2   -1    0    0    0  501 -0.00000000000E+00 -0.00000000000E+00 -0.10089201891E+03  0.10089201891E+03  0.00000000000E+00 0.  1.
          6    1    1    2  502    0  0.13842969798E+03  0.40218158783E+03  0.10521421041E+04  0.11478239491E+04  0.17200000000E+03 0. -1.
         -6    1    1    2    0  501 -0.13842969798E+03 -0.40218158783E+03  0.93890206324E+03  0.10450042561E+04  0.17200000000E+03 0.  1.
</event>
<event>
 4    1  0.3190379E-002  0.1732326E+03  0.7818608E-02  0.1174518E+00
         -2   -1    0    0    0  501 -0.00000000000E+00  0.00000000000E+00  0.33811304983E+02  0.33811304983E+02  0.00000000000E+00 0.  1.
          2   -1    0    0  502    0  0.00000000000E+00 -0.00000000000E+00 -0.88978297731E+03  0.88978297731E+03  0.00000000000E+00 0. -1.
          6    1    1    2  502    0  0.20191084231E+02 -0.42254402030E+01 -0.40489942114E+03  0.44040103936E+03  0.17200000000E+03 0.  1.
         -6    1    1    2    0  501 -0.20191084231E+02  0.42254402030E+01 -0.45107225118E+03  0.48319324293E+03  0.17200000000E+03 0. -1.
</event>
<event>
 4    1  0.3190379E-002  0.2326673E+03  0.7818608E-02  0.1124776E+00
          2   -1    0    0  502    0  0.00000000000E+00  0.00000000000E+00  0.14303631102E+04  0.14303631102E+04  0.00000000000E+00 0. -1.
         -2   -1    0    0    0  501 -0.00000000000E+00 -0.00000000000E+00 -0.73777718659E+02  0.73777718659E+02  0.00000000000E+00 0.  1.
          6    1    1    2  502    0 -0.14314977276E+03  0.63704216830E+02  0.12031394460E+04  0.12254299699E+04  0.17200000000E+03 0. -1.
         -6    1    1    2    0  501  0.14314977276E+03 -0.63704216830E+02  0.15344594555E+03  0.27871085894E+03  0.17200000000E+03 0.  1.
</event>
<event>
 4    1  0.3190379E-002  0.7937335E+03  0.7818608E-02  0.9569132E-01
          1   -1    0    0  502    0  0.00000000000E+00  0.00000000000E+00  0.23532952233E+04  0.23532952233E+04  0.00000000000E+00 0. -1.
         -1   -1    0    0    0  501 -0.00000000000E+00 -0.00000000000E+00 -0.32258889410E+03  0.32258889410E+03  0.00000000000E+00 0.  1.
          6    1    1    2  502    0  0.11771906101E+03  0.76587932999E+03  0.15671696347E+04  0.17567110148E+04  0.17200000000E+03 0. -1.
         -6    1    1    2    0  501 -0.11771906101E+03 -0.76587932999E+03  0.46353669444E+03  0.91917310259E+03  0.17200000000E+03 0.  1.
</event>
<event>
 4    1  0.3190379E-002  0.4749957E+03  0.7818608E-02  0.1020520E+00
         -2   -1    0    0    0  501 -0.00000000000E+00  0.00000000000E+00  0.29410652583E+03  0.29410652583E+03  0.00000000000E+00 0.  1.
          2   -1    0    0  502    0  0.00000000000E+00 -0.00000000000E+00 -0.10463799716E+04  0.10463799716E+04  0.00000000000E+00 0. -1.
          6    1    1    2  502    0 -0.31847781602E+03 -0.30758544363E+03 -0.72237606552E+03  0.86455081081E+03  0.17200000000E+03 0. -1.
         -6    1    1    2    0  501  0.31847781602E+03  0.30758544363E+03 -0.29897380212E+02  0.47593568659E+03  0.17200000000E+03 0.  1.
</event>
<event>
 4    1  0.3190379E-002  0.3798304E+03  0.7818608E-02  0.1050996E+00
         -2   -1    0    0    0  501 -0.00000000000E+00  0.00000000000E+00  0.81653045966E+02  0.81653045966E+02  0.00000000000E+00 0.  1.
          2   -1    0    0  502    0  0.00000000000E+00 -0.00000000000E+00 -0.19046025922E+04  0.19046025922E+04  0.00000000000E+00 0. -1.
          6    1    1    2  502    0  0.22233534435E+03 -0.25544884144E+03 -0.64441658270E+03  0.74802663589E+03  0.17200000000E+03 0. -1.
         -6    1    1    2    0  501 -0.22233534435E+03  0.25544884144E+03 -0.11785329636E+04  0.12382290023E+04  0.17200000000E+03 0.  1.
</event>
<event>
 4    1  0.3190379E-002  0.2826870E+03  0.7818608E-02  0.1094230E+00
         -2   -1    0    0    0  501 -0.00000000000E+00  0.00000000000E+00  0.22670854300E+03  0.22670854300E+03  0.00000000000E+00 0.  1.
          2   -1    0    0  502    0  0.00000000000E+00 -0.00000000000E+00 -0.98898472496E+03  0.98898472496E+03  0.00000000000E+00 0. -1.
          6    1    1    2  502    0 -0.11724190298E+02  0.22403229842E+03 -0.86877602393E+03  0.91361025998E+03  0.17200000000E+03 0. -1.
         -6    1    1    2    0  501  0.11724190298E+02 -0.22403229842E+03  0.10649984198E+03  0.30208300799E+03  0.17200000000E+03 0.  1.
</event>
<event>
 4    1  0.3190379E-002  0.1848031E+03  0.7818608E-02  0.1163234E+00
          1   -1    0    0  502    0  0.00000000000E+00  0.00000000000E+00  0.11436149662E+04  0.11436149662E+04  0.00000000000E+00 0. -1.
         -1   -1    0    0    0  501 -0.00000000000E+00 -0.00000000000E+00 -0.34610757980E+02  0.34610757980E+02  0.00000000000E+00 0.  1.
          6    1    1    2  502    0 -0.59648360094E+02 -0.31784477569E+02  0.33631906226E+03  0.38374821370E+03  0.17200000000E+03 0.  1.
         -6    1    1    2    0  501  0.59648360094E+02  0.31784477569E+02  0.77268514593E+03  0.79447751045E+03  0.17200000000E+03 0. -1.
</event>
<event>
 4    1  0.3190379E-002  0.1995840E+03  0.7818608E-02  0.1150090E+00
          3   -1    0    0  502    0  0.00000000000E+00  0.00000000000E+00  0.12263332026E+03  0.12263332026E+03  0.00000000000E+00 0. -1.
         -3   -1    0    0    0  501 -0.00000000000E+00 -0.00000000000E+00 -0.44361666668E+03  0.44361666668E+03  0.00000000000E+00 0.  1.
          6    1    1    2  502    0  0.46539196616E+02  0.89910295211E+02 -0.13978604001E+02  0.20007288516E+03  0.17200000000E+03 0. -1.
         -6    1    1    2    0  501 -0.46539196616E+02 -0.89910295211E+02 -0.30700474241E+03  0.36617710178E+03  0.17200000000E+03 0.  1.
</event>
<event>
 4    1  0.3190379E-002  0.1964946E+03  0.7818608E-02  0.1152731E+00
         -2   -1    0    0    0  501 -0.00000000000E+00  0.00000000000E+00  0.14474844938E+03  0.14474844938E+03  0.00000000000E+00 0.  1.
          2   -1    0    0  502    0  0.00000000000E+00 -0.00000000000E+00 -0.30299874285E+03  0.30299874285E+03  0.00000000000E+00 0. -1.
          6    1    1    2  502    0 -0.94365570902E+02 -0.11011878158E+02 -0.16803757311E+01  0.19650177123E+03  0.17200000000E+03 0.  1.
         -6    1    1    2    0  501  0.94365570902E+02  0.11011878158E+02 -0.15656991774E+03  0.25124542100E+03  0.17200000000E+03 0. -1.
</event>
<event>
 4    1  0.3190379E-002  0.3138388E+03  0.7818608E-02  0.1078520E+00
         -1   -1    0    0    0  501 -0.00000000000E+00  0.00000000000E+00  0.44659645918E+03  0.44659645918E+03  0.00000000000E+00 0.  1.
          1   -1    0    0  502    0  0.00000000000E+00 -0.00000000000E+00 -0.22113220027E+03  0.22113220027E+03  0.00000000000E+00 0. -1.
          6    1    1    2  502    0  0.11027238013E+03  0.23822423269E+03  0.95533295148E+02  0.32805699710E+03  0.17200000000E+03 0. -1.
         -6    1    1    2    0  501 -0.11027238013E+03 -0.23822423269E+03  0.12993096377E+03  0.33967166236E+03  0.17200000000E+03 0.  1.
</event>
<event>
 4    1  0.3190379E-002  0.1735445E+03  0.7818608E-02  0.1174201E+00
         -2   -1    0    0    0  501 -0.00000000000E+00  0.00000000000E+00  0.19649536045E+02  0.19649536045E+02  0.00000000000E+00 0.  1.
          2   -1    0    0  502    0  0.00000000000E+00 -0.00000000000E+00 -0.20005231289E+04  0.20005231289E+04  0.00000000000E+00 0. -1.
          6    1    1    2  502    0 -0.24008335448E+00  0.23100641948E+02 -0.14788724869E+04  0.14890203255E+04  0.17200000000E+03 0. -1.
         -6    1    1    2    0  501  0.24008335448E+00 -0.23100641948E+02 -0.50200110595E+03  0.53115233942E+03  0.17200000000E+03 0. -1.
</event>
<event>
 4    1  0.3190379E-002  0.2241924E+03  0.7818608E-02  0.1130795E+00
         -1   -1    0    0    0  501 -0.00000000000E+00  0.00000000000E+00  0.63807679785E+02  0.63807679785E+02  0.00000000000E+00 0.  1.
          1   -1    0    0  502    0  0.00000000000E+00 -0.00000000000E+00 -0.79172584791E+03  0.79172584791E+03  0.00000000000E+00 0. -1.
          6    1    1    2  502    0 -0.11221061667E+03 -0.89927836860E+02 -0.33351088546E+03  0.40186036015E+03  0.17200000000E+03 0.  1.
         -6    1    1    2    0  501  0.11221061667E+03  0.89927836860E+02 -0.39440728267E+03  0.45367316755E+03  0.17200000000E+03 0.  1.
</event>
<event>
 4    1  0.3190379E-002  0.3282792E+03  0.7818608E-02  0.1071901E+00
          1   -1    0    0  502    0  0.00000000000E+00  0.00000000000E+00  0.36839622002E+03  0.36839622002E+03  0.00000000000E+00 0. -1.
         -1   -1    0    0    0  501 -0.00000000000E+00 -0.00000000000E+00 -0.33122848700E+03  0.33122848700E+03  0.00000000000E+00 0.  1.
          6    1    1    2  502    0 -0.27785735988E+03  0.31281163242E+02 -0.10098388709E+03  0.34346028747E+03  0.17200000000E+03 0. -1.
         -6    1    1    2    0  501  0.27785735988E+03 -0.31281163242E+02  0.13815162011E+03  0.35616441955E+03  0.17200000000E+03 0.  1.
</event>
<event>
 4    1  0.3190379E-002  0.1816042E+03  0.7818608E-02  0.1166260E+00
         -1   -1    0    0    0  501 -0.00000000000E+00  0.00000000000E+00  0.12888462747E+03  0.12888462747E+03  0.00000000000E+00 0.  1.
          1   -1    0    0  502    0  0.00000000000E+00 -0.00000000000E+00 -0.44829291653E+03  0.44829291653E+03  0.00000000000E+00 0. -1.
          6    1    1    2  502    0 -0.53792614053E+02 -0.22414884609E+02 -0.34876699419E+03  0.39321557524E+03  0.17200000000E+03 0. -1.
         -6    1    1    2    0  501  0.53792614053E+02  0.22414884609E+02  0.29358705129E+02  0.18396196875E+03  0.17200000000E+03 0.  1.
</event>
<event>
 4    1  0.3190379E-002  0.4145262E+03  0.7818608E-02  0.1038863E+00
         -2   -1    0    0    0  501 -0.00000000000E+00  0.00000000000E+00  0.10691548137E+03  0.10691548137E+03  0.00000000000E+00 0.  1.
          2   -1    0    0  502    0  0.00000000000E+00 -0.00000000000E+00 -0.22710303332E+04  0.22710303332E+04  0.00000000000E+00 0. -1.
          6    1    1    2  502    0 -0.26898732932E+03 -0.26437428686E+03 -0.43922609204E+03  0.60394660924E+03  0.17200000000E+03 0.  1.
         -6    1    1    2    0  501  0.26898732932E+03  0.26437428686E+03 -0.17248887597E+04  0.17739992053E+04  0.17200000000E+03 0. -1.
</event>
<event>
 4    1  0.3190379E-002  0.2985832E+03  0.7818608E-02  0.1085951E+00
          2   -1    0    0  502    0  0.00000000000E+00  0.00000000000E+00  0.94099816874E+03  0.94099816874E+03  0.00000000000E+00 0. -1.
         -2   -1    0    0    0  501 -0.00000000000E+00 -0.00000000000E+00 -0.23719456957E+03  0.23719456957E+03  0.00000000000E+00 0.  1.
          6    1    1    2  502    0  0.46599024859E+01 -0.24402089027E+03  0.80843182293E+03  0.86180851812E+03  0.17200000000E+03 0. -1.
         -6    1    1    2    0  501 -0.46599024859E+01  0.24402089027E+03 -0.10462822376E+03  0.31638422019E+03  0.17200000000E+03 0.  1.
</event>
<event>
 4    1  0.3190379E-002  0.1751510E+03  0.7818608E-02  0.1172580E+00
         -1   -1    0    0    0  501 -0.00000000000E+00  0.00000000000E+00  0.54506893561E+03  0.54506893561E+03  0.00000000000E+00 0.  1.
          1   -1    0    0  502    0  0.00000000000E+00 -0.00000000000E+00 -0.69646537058E+02  0.69646537058E+02  0.00000000000E+00 0. -1.
          6    1    1    2  502    0  0.19647129280E+02  0.26605612565E+02  0.10307481263E+03  0.20322963688E+03  0.17200000000E+03 0. -1.
         -6    1    1    2    0  501 -0.19647129280E+02 -0.26605612565E+02  0.37234758593E+03  0.41148583579E+03  0.17200000000E+03 0.  1.
</event>
<event>
 4    1  0.3190379E-002  0.6783862E+03  0.7818608E-02  0.9754926E-01
         -1   -1    0    0    0  501 -0.00000000000E+00  0.00000000000E+00  0.12652465293E+04  0.12652465293E+04  0.00000000000E+00 0.  1.
          1   -1    0    0  502    0  0.00000000000E+00 -0.00000000000E+00 -0.36377780656E+03  0.36377780656E+03  0.00000000000E+00 0. -1.
          6    1    1    2  502    0  0.63654970663E+03  0.15946260227E+03  0.44137623565E+03  0.80933357272E+03  0.17200000000E+03 0. -1.
         -6    1    1    2    0  501 -0.63654970663E+03 -0.15946260227E+03  0.46009248713E+03  0.81969076318E+03  0.17200000000E+03 0.  1.
</event>
<event>
 4    1  0.3190379E-002  0.1916179E+03  0.7818608E-02  0.1157010E+00
          1   -1    0    0  502    0  0.00000000000E+00  0.00000000000E+00  0.85952116584E+03  0.85952116584E+03  0.00000000000E+00 0. -1.
         -1   -1    0    0    0  501 -0.00000000000E+00 -0.00000000000E+00 -0.42884418471E+02  0.42884418471E+02  0.00000000000E+00 0.  1.
          6    1    1    2  502    0  0.31470950084E+01 -0.84400852829E+02  0.43638825451E+03  0.47660478054E+03  0.17200000000E+03 0. -1.
         -6    1    1    2    0  501 -0.31470950084E+01  0.84400852829E+02  0.38024849286E+03  0.42580080377E+03  0.17200000000E+03 0.  1.
</event>
<event>
 4    1  0.3190379E-002  0.1811867E+03  0.7818608E-02  0.1166660E+00
         -1   -1    0    0    0  501 -0.00000000000E+00  0.00000000000E+00  0.40062120268E+02  0.40062120268E+02  0.00000000000E+00 0.  1.
          1   -1    0    0  502    0  0.00000000000E+00 -0.00000000000E+00 -0.84585451866E+03  0.84585451866E+03  0.00000000000E+00 0. -1.
          6    1    1    2  502    0 -0.36042829194E+02  0.44108073596E+02 -0.48116975501E+03  0.51415264351E+03  0.17200000000E+03 0. -1.
         -6    1    1    2    0  501  0.36042829194E+02 -0.44108073596E+02 -0.32462264339E+03  0.37176399542E+03  0.17200000000E+03 0.  1.
</event>
<event>
 4    1  0.3190379E-002  0.1857117E+03  0.7818608E-02  0.1162387E+00
         -2   -1    0    0    0  501 -0.00000000000E+00  0.00000000000E+00  0.80147987988E+02  0.80147987988E+02  0.00000000000E+00 0.  1.
          2   -1    0    0  502    0  0.00000000000E+00 -0.00000000000E+00 -0.46437241457E+03  0.46437241457E+03  0.00000000000E+00 0. -1.
          6    1    1    2  502    0 -0.33389816664E+02  0.61562732879E+02 -0.26584477105E+03  0.32428736058E+03  0.17200000000E+03 0.  1.
         -6    1    1    2    0  501  0.33389816664E+02 -0.61562732879E+02 -0.11837965554E+03  0.22023304198E+03  0.17200000000E+03 0.  1.
</event>
<event>
 4    1  0.3190379E-002  0.1768770E+03  0.7818608E-02  0.1170860E+00
         -1   -1    0    0    0  501 -0.00000000000E+00  0.00000000000E+00  0.84581390372E+02  0.84581390372E+02  0.00000000000E+00 0.  1.
          1   -1    0    0  502    0  0.00000000000E+00 -0.00000000000E+00 -0.70142053133E+03  0.70142053133E+03  0.00000000000E+00 0. -1.
          6    1    1    2  502    0 -0.27693212055E+02 -0.30570338937E+02 -0.57860931276E+03  0.60504065684E+03  0.17200000000E+03 0. -1.
         -6    1    1    2    0  501  0.27693212055E+02  0.30570338937E+02 -0.38229828199E+02  0.18096126486E+03  0.17200000000E+03 0.  1.
</event>
<event>
 4    1  0.3190379E-002  0.9502977E+03  0.7818608E-02  0.9364803E-01
         -1   -1    0    0    0  501 -0.00000000000E+00  0.00000000000E+00  0.29277108500E+03  0.29277108500E+03  0.00000000000E+00 0.  1.
          1   -1    0    0  502    0  0.00000000000E+00 -0.00000000000E+00 -0.33756337249E+04  0.33756337249E+04  0.00000000000E+00 0. -1.
          6    1    1    2  502    0  0.50455999679E+03 -0.78670254512E+03 -0.20800507808E+04  0.22868486910E+04  0.17200000000E+03 0. -1.
         -6    1    1    2    0  501 -0.50455999679E+03  0.78670254512E+03 -0.10028118591E+04  0.13815561189E+04  0.17200000000E+03 0.  1.
</event>
<event>
 4    1  0.3190379E-002  0.3981116E+03  0.7818608E-02  0.1044436E+00
          4   -1    0    0  502    0  0.00000000000E+00  0.00000000000E+00  0.18484671392E+04  0.18484671392E+04  0.00000000000E+00 0. -1.
         -4   -1    0    0    0  501 -0.00000000000E+00 -0.00000000000E+00 -0.86374300310E+02  0.86374300310E+02  0.00000000000E+00 0.  1.
          6    1    1    2  502    0 -0.16663400050E+03 -0.31802828919E+03  0.79833130908E+03  0.89209066910E+03  0.17200000000E+03 0. -1.
         -6    1    1    2    0  501  0.16663400050E+03  0.31802828919E+03  0.96376152985E+03  0.10427507704E+04  0.17200000000E+03 0. -1.
</event>
<event>
 4    1  0.3190379E-002  0.1847672E+03  0.7818608E-02  0.1163267E+00
          1   -1    0    0  502    0  0.00000000000E+00  0.00000000000E+00  0.97779246628E+03  0.97779246628E+03  0.00000000000E+00 0. -1.
         -1   -1    0    0    0  501 -0.00000000000E+00 -0.00000000000E+00 -0.46941207316E+02  0.46941207316E+02  0.00000000000E+00 0.  1.
          6    1    1    2  502    0  0.12389828676E+01  0.67478773133E+02  0.72477262935E+03  0.74795339705E+03  0.17200000000E+03 0. -1.
         -6    1    1    2    0  501 -0.12389828676E+01 -0.67478773133E+02  0.20607862962E+03  0.27678027655E+03  0.17200000000E+03 0.  1.
</event>
<event>
 4    1  0.3190379E-002  0.1908763E+03  0.7818608E-02  0.1157673E+00
         -2   -1    0    0    0  501 -0.00000000000E+00  0.00000000000E+00  0.50244763442E+02  0.50244763442E+02  0.00000000000E+00 0.  1.
          2   -1    0    0  502    0  0.00000000000E+00 -0.00000000000E+00 -0.11369428275E+04  0.11369428275E+04  0.00000000000E+00 0. -1.
          6    1    1    2  502    0 -0.81706732327E+02 -0.13181750414E+02 -0.90059921384E+03  0.92060452563E+03  0.17200000000E+03 0. -1.
         -6    1    1    2    0  501  0.81706732327E+02  0.13181750414E+02 -0.18609885019E+03  0.26658306528E+03  0.17200000000E+03 0.  1.
</event>
<event>
 4    1  0.3190379E-002  0.3246341E+03  0.7818608E-02  0.1073536E+00
         -2   -1    0    0    0  501 -0.00000000000E+00  0.00000000000E+00  0.15757512443E+03  0.15757512443E+03  0.00000000000E+00 0.  1.
          2   -1    0    0  502    0  0.00000000000E+00 -0.00000000000E+00 -0.70742106773E+03  0.70742106773E+03  0.00000000000E+00 0. -1.
          6    1    1    2  502    0  0.12825208576E+03 -0.24362820677E+03 -0.17387685909E+03  0.36826683636E+03  0.17200000000E+03 0. -1.
         -6    1    1    2    0  501 -0.12825208576E+03  0.24362820677E+03 -0.37596908420E+03  0.49672935580E+03  0.17200000000E+03 0.  1.
</event>
<event>
 4    1  0.3190379E-002  0.1763637E+03  0.7818608E-02  0.1171369E+00
         -1   -1    0    0    0  501 -0.00000000000E+00  0.00000000000E+00  0.15368099747E+04  0.15368099747E+04  0.00000000000E+00 0.  1.
          1   -1    0    0  502    0  0.00000000000E+00 -0.00000000000E+00 -0.11240582001E+03  0.11240582001E+03  0.00000000000E+00 0. -1.
          6    1    1    2  502    0  0.31538838788E+02 -0.22922589775E+02 -0.34486317419E+02  0.17970378283E+03  0.17200000000E+03 0. -1.
         -6    1    1    2    0  501 -0.31538838788E+02  0.22922589775E+02  0.14588904721E+04  0.14695120119E+04  0.17200000000E+03 0.  1.
</event>
<event>
 4    1  0.3190379E-002  0.1754542E+03  0.7818608E-02  0.1172276E+00
          2   -1    0    0  502    0  0.00000000000E+00  0.00000000000E+00  0.27205539741E+04  0.27205539741E+04  0.00000000000E+00 0. -1.
         -2   -1    0    0    0  501 -0.00000000000E+00 -0.00000000000E+00 -0.39263392617E+02  0.39263392617E+02  0.00000000000E+00 0.  1.
          6    1    1    2  502    0 -0.32788443988E+02  0.11184842323E+02  0.25048562171E+04  0.25109935984E+04  0.17200000000E+03 0. -1.
         -6    1    1    2    0  501  0.32788443988E+02 -0.11184842323E+02  0.17643436440E+03  0.24882376835E+03  0.17200000000E+03 0.  1.
</event>
<event>
 4    1  0.3190379E-002  0.3498741E+03  0.7818608E-02  0.1062667E+00
          2   -1    0    0  502    0  0.00000000000E+00  0.00000000000E+00  0.11567960487E+04  0.11567960487E+04  0.00000000000E+00 0. -1.
         -2   -1    0    0    0  501 -0.00000000000E+00 -0.00000000000E+00 -0.12371370866E+03  0.12371370866E+03  0.00000000000E+00 0.  1.
          6    1    1    2  502    0 -0.11016578941E+03 -0.28406224041E+03  0.76004024436E+03  0.83670366954E+03  0.17200000000E+03 0. -1.
         -6    1    1    2    0  501  0.11016578941E+03  0.28406224041E+03  0.27304209571E+03  0.44380608785E+03  0.17200000000E+03 0.  1.
</event>
<event>
 4    1  0.3190379E-002  0.1948600E+03  0.7818608E-02  0.1154150E+00
          2   -1    0    0  502    0  0.00000000000E+00  0.00000000000E+00  0.32203386632E+04  0.32203386632E+04  0.00000000000E+00 0. -1.
         -2   -1    0    0    0  501 -0.00000000000E+00 -0.00000000000E+00 -0.15627056965E+02  0.15627056965E+02  0.00000000000E+00 0.  1.
          6    1    1    2  502    0 -0.11089163603E+02 -0.90903616689E+02  0.80069994720E+03  0.82406968305E+03  0.17200000000E+03 0.  1.
         -6    1    1    2    0  501  0.11089163603E+02  0.90903616689E+02  0.24040116590E+04  0.24118960371E+04  0.17200000000E+03 0. -1.
</event>
<event>
 4    1  0.3190379E-002  0.2491675E+03  0.7818608E-02  0.1113832E+00
         -2   -1    0    0    0  501 -0.00000000000E+00  0.00000000000E+00  0.15035615309E+03  0.15035615309E+03  0.00000000000E+00 0.  1.
          2   -1    0    0  502    0  0.00000000000E+00 -0.00000000000E+00 -0.28184776777E+04  0.28184776777E+04  0.00000000000E+00 0. -1.
          6    1    1    2  502    0  0.17770445058E+03 -0.30357792974E+02 -0.27054376930E+04  0.27168874798E+04  0.17200000000E+03 0. -1.
         -6    1    1    2    0  501 -0.17770445058E+03  0.30357792974E+02  0.37316168378E+02  0.25194635098E+03  0.17200000000E+03 0.  1.
</event>
<event>
 4    1  0.3190379E-002  0.3108806E+03  0.7818608E-02  0.1079925E+00
         -2   -1    0    0    0  501 -0.00000000000E+00  0.00000000000E+00  0.22925274503E+03  0.22925274503E+03  0.00000000000E+00 0.  1.
          2   -1    0    0  502    0  0.00000000000E+00 -0.00000000000E+00 -0.43380281161E+03  0.43380281161E+03  0.00000000000E+00 0. -1.
          6    1    1    2  502    0 -0.12193108742E+03  0.22846351400E+03 -0.15794021597E+03  0.34870027120E+03  0.17200000000E+03 0. -1.
         -6    1    1    2    0  501  0.12193108742E+03 -0.22846351400E+03 -0.46609850610E+02  0.31435528544E+03  0.17200000000E+03 0.  1.
</event>
<event>
 4    1  0.3190379E-002  0.2734600E+03  0.7818608E-02  0.1099316E+00
          2   -1    0    0  502    0  0.00000000000E+00  0.00000000000E+00  0.22675751809E+04  0.22675751809E+04  0.00000000000E+00 0. -1.
         -2   -1    0    0    0  501 -0.00000000000E+00 -0.00000000000E+00 -0.35620741486E+02  0.35620741486E+02  0.00000000000E+00 0.  1.
          6    1    1    2  502    0 -0.12622953187E+03 -0.17106280054E+03  0.80231188296E+03  0.84763478809E+03  0.17200000000E+03 0. -1.
         -6    1    1    2    0  501  0.12622953187E+03  0.17106280054E+03  0.14296425564E+04  0.14555611343E+04  0.17200000000E+03 0. -1.
</event>
<event>
 4    1  0.3190379E-002  0.1767019E+03  0.7818608E-02  0.1171034E+00
          2   -1    0    0  502    0  0.00000000000E+00  0.00000000000E+00  0.75717716981E+03  0.75717716981E+03  0.00000000000E+00 0. -1.
         -2   -1    0    0    0  501 -0.00000000000E+00 -0.00000000000E+00 -0.42977114180E+02  0.42977114180E+02  0.00000000000E+00 0.  1.
          6    1    1    2  502    0  0.29455989903E+02 -0.27783126468E+02  0.27659186027E+03  0.32821732834E+03  0.17200000000E+03 0.  1.
         -6    1    1    2    0  501 -0.29455989903E+02  0.27783126468E+02  0.43760819536E+03  0.47193695564E+03  0.17200000000E+03 0.  1.
</event>
<event>
 4    1  0.3190379E-002  0.2943144E+03  0.7818608E-02  0.1088118E+00
          2   -1    0    0  502    0  0.00000000000E+00  0.00000000000E+00  0.12811444367E+03  0.12811444367E+03  0.00000000000E+00 0. -1.
         -2   -1    0    0    0  501 -0.00000000000E+00 -0.00000000000E+00 -0.67985438735E+03  0.67985438735E+03  0.00000000000E+00 0.  1.
          6    1    1    2  502    0  0.16105987873E+01  0.23881865499E+03 -0.24593542649E+03  0.38354292850E+03  0.17200000000E+03 0. -1.
         -6    1    1    2    0  501 -0.16105987873E+01 -0.23881865499E+03 -0.30580451719E+03  0.42442590252E+03  0.17200000000E+03 0.  1.
</event>
<event>
 4    1  0.3190379E-002  0.1822821E+03  0.7818608E-02  0.1165612E+00
         -1   -1    0    0    0  501 -0.00000000000E+00  0.00000000000E+00  0.66598029884E+03  0.66598029884E+03  0.00000000000E+00 0.  1.
          1   -1    0    0  502    0  0.00000000000E+00 -0.00000000000E+00 -0.53920488915E+02  0.53920488915E+02  0.00000000000E+00 0. -1.
          6    1    1    2  502    0 -0.19796471502E+02  0.57016455824E+02  0.20763737570E+03  0.27629704361E+03  0.17200000000E+03 0. -1.
         -6    1    1    2    0  501  0.19796471502E+02 -0.57016455824E+02  0.40442243422E+03  0.44360374415E+03  0.17200000000E+03 0.  1.
</event>
<event>
 4    1  0.3190379E-002  0.2702896E+03  0.7818608E-02  0.1101114E+00
         -2   -1    0    0    0  501 -0.00000000000E+00  0.00000000000E+00  0.46889172005E+03  0.46889172005E+03  0.00000000000E+00 0.  1.
          2   -1    0    0  502    0  0.00000000000E+00 -0.00000000000E+00 -0.13218273147E+04  0.13218273147E+04  0.00000000000E+00 0. -1.
          6    1    1    2  502    0  0.19515103925E+03  0.73406807592E+02 -0.12674042941E+04  0.12959051401E+04  0.17200000000E+03 0. -1.
         -6    1    1    2    0  501 -0.19515103925E+03 -0.73406807592E+02  0.41446869943E+03  0.49481389463E+03  0.17200000000E+03 0.  1.
</event>
<event>
 4    1  0.3190379E-002  0.4927253E+03  0.7818608E-02  0.1015695E+00
          2   -1    0    0  502    0  0.00000000000E+00  0.00000000000E+00  0.12715461029E+04  0.12715461029E+04  0.00000000000E+00 0. -1.
         -2   -1    0    0    0  501 -0.00000000000E+00 -0.00000000000E+00 -0.21511098276E+03  0.21511098276E+03  0.00000000000E+00 0.  1.
          6    1    1    2  502    0  0.27707854329E+03  0.36935314766E+03  0.77743164380E+03  0.92042285262E+03  0.17200000000E+03 0. -1.
         -6    1    1    2    0  501 -0.27707854329E+03 -0.36935314766E+03  0.27900347630E+03  0.56623423301E+03  0.17200000000E+03 0.  1.
</event>
<event>
 4    1  0.3190379E-002  0.2623629E+03  0.7818608E-02  0.1105732E+00
         -1   -1    0    0    0  501 -0.00000000000E+00  0.00000000000E+00  0.94875324863E+03  0.94875324863E+03  0.00000000000E+00 0.  1.
          1   -1    0    0  502    0  0.00000000000E+00 -0.00000000000E+00 -0.21227858210E+03  0.21227858210E+03  0.00000000000E+00 0. -1.
          6    1    1    2  502    0  0.65394899598E+02  0.18701288219E+03 -0.10273995110E+03  0.28176197144E+03  0.17200000000E+03 0. -1.
         -6    1    1    2    0  501 -0.65394899598E+02 -0.18701288219E+03  0.83921461764E+03  0.87926985929E+03  0.17200000000E+03 0.  1.
</event>
<event>
 4    1  0.3190379E-002  0.5057885E+03  0.7818608E-02  0.1012279E+00
          2   -1    0    0  502    0  0.00000000000E+00  0.00000000000E+00  0.12730172950E+04  0.12730172950E+04  0.00000000000E+00 0. -1.
         -2   -1    0    0    0  501 -0.00000000000E+00 -0.00000000000E+00 -0.60959748833E+03  0.60959748833E+03  0.00000000000E+00 0.  1.
          6    1    1    2  502    0  0.47404882435E+03 -0.38932762564E+02  0.11024011952E+04  0.12128934179E+04  0.17200000000E+03 0. -1.
         -6    1    1    2    0  501 -0.47404882435E+03  0.38932762564E+02 -0.43898138855E+03  0.66972136546E+03  0.17200000000E+03 0.  1.
</event>
<event>
 4    1  0.3190379E-002  0.4556184E+03  0.7818608E-02  0.1026060E+00
          2   -1    0    0  502    0  0.00000000000E+00  0.00000000000E+00  0.34472628979E+04  0.34472628979E+04  0.00000000000E+00 0. -1.
         -2   -1    0    0    0  501 -0.00000000000E+00 -0.00000000000E+00 -0.71078904991E+02  0.71078904991E+02  0.00000000000E+00 0.  1.
          6    1    1    2  502    0 -0.73788167717E+02 -0.41540276511E+03  0.23757390841E+04  0.24190337630E+04  0.17200000000E+03 0. -1.
         -6    1    1    2    0  501  0.73788167717E+02  0.41540276511E+03  0.10004449089E+04  0.10993080399E+04  0.17200000000E+03 0.  1.
</event>
<event>
 4    1  0.3190379E-002  0.1940795E+03  0.7818608E-02  0.1154832E+00
         -1   -1    0    0    0  501 -0.00000000000E+00  0.00000000000E+00  0.59093498980E+03  0.59093498980E+03  0.00000000000E+00 0.  1.
          1   -1    0    0  502    0  0.00000000000E+00 -0.00000000000E+00 -0.77947702491E+02  0.77947702491E+02  0.00000000000E+00 0. -1.
          6    1    1    2  502    0 -0.77152952769E+02 -0.46155077441E+02  0.39927214610E+03  0.44394269444E+03  0.17200000000E+03 0.  1.
         -6    1    1    2    0  501  0.77152952769E+02  0.46155077441E+02  0.11371514121E+03  0.22493999786E+03  0.17200000000E+03 0. -1.
</event>
<event>
 4    1  0.3190379E-002  0.5640865E+03  0.7818608E-02  0.9982850E-01
         -2   -1    0    0    0  501 -0.00000000000E+00  0.00000000000E+00  0.95173891282E+03  0.95173891282E+03  0.00000000000E+00 0.  1.
          2   -1    0    0  502    0  0.00000000000E+00 -0.00000000000E+00 -0.35169700748E+03  0.35169700748E+03  0.00000000000E+00 0. -1.
          6    1    1    2  502    0  0.53458131192E+03 -0.53220767185E+02  0.44484949501E+03  0.71839035512E+03  0.17200000000E+03 0. -1.
         -6    1    1    2    0  501 -0.53458131192E+03  0.53220767185E+02  0.15519241032E+03  0.58504556518E+03  0.17200000000E+03 0.  1.
</event>
<event>
 4    1  0.3190379E-002  0.5620894E+03  0.7818608E-02  0.9987338E-01
         -2   -1    0    0    0  501 -0.00000000000E+00  0.00000000000E+00  0.16448013776E+03  0.16448013776E+03  0.00000000000E+00 0.  1.
          2   -1    0    0  502    0  0.00000000000E+00 -0.00000000000E+00 -0.23485045029E+04  0.23485045029E+04  0.00000000000E+00 0. -1.
          6    1    1    2  502    0 -0.53425287665E+03 -0.30567679438E+02 -0.16281814001E+04  0.17224747286E+04  0.17200000000E+03 0. -1.
         -6    1    1    2    0  501  0.53425287665E+03  0.30567679438E+02 -0.55584296510E+03  0.79050991207E+03  0.17200000000E+03 0.  1.
</event>
<event>
 4    1  0.3190379E-002  0.2123170E+03  0.7818608E-02  0.1139744E+00
          2   -1    0    0  502    0  0.00000000000E+00  0.00000000000E+00  0.91981827966E+03  0.91981827966E+03  0.00000000000E+00 0. -1.
         -2   -1    0    0    0  501 -0.00000000000E+00 -0.00000000000E+00 -0.49256007240E+02  0.49256007240E+02  0.00000000000E+00 0.  1.
          6    1    1    2  502    0  0.97934383605E+02 -0.76833241105E+02  0.46966029206E+03  0.51542145897E+03  0.17200000000E+03 0. -1.
         -6    1    1    2    0  501 -0.97934383605E+02  0.76833241105E+02  0.40090198036E+03  0.45365282793E+03  0.17200000000E+03 0.  1.
</event>
<event>
 4    1  0.3190379E-002  0.4262065E+03  0.7818608E-02  0.1035065E+00
          2   -1    0    0  502    0  0.00000000000E+00  0.00000000000E+00  0.43483858767E+04  0.43483858767E+04  0.00000000000E+00 0. -1.
         -2   -1    0    0    0  501 -0.00000000000E+00 -0.00000000000E+00 -0.26645840145E+03  0.26645840145E+03  0.00000000000E+00 0.  1.
          6    1    1    2  502    0 -0.90861641217E+02 -0.37922571941E+03  0.41598041579E+04  0.41815813536E+04  0.17200000000E+03 0. -1.
         -6    1    1    2    0  501  0.90861641217E+02  0.37922571941E+03 -0.77876682697E+02  0.43326292458E+03  0.17200000000E+03 0.  1.
</event>
<event>
 4    1  0.3190379E-002  0.3226889E+03  0.7818608E-02  0.1074418E+00
         -1   -1    0    0    0  501 -0.00000000000E+00  0.00000000000E+00  0.24265345538E+03  0.24265345538E+03  0.00000000000E+00 0.  1.
          1   -1    0    0  502    0  0.00000000000E+00 -0.00000000000E+00 -0.72782497901E+03  0.72782497901E+03  0.00000000000E+00 0. -1.
          6    1    1    2  502    0 -0.27294906005E+03 -0.65533777711E+01 -0.55344343560E+03  0.64064637090E+03  0.17200000000E+03 0. -1.
         -6    1    1    2    0  501  0.27294906005E+03  0.65533777711E+01  0.68271911963E+02  0.32983206349E+03  0.17200000000E+03 0.  1.
</event>
<event>
 4    1  0.3190379E-002  0.3024671E+03  0.7818608E-02  0.1084014E+00
         -2   -1    0    0    0  501 -0.00000000000E+00  0.00000000000E+00  0.60164890914E+02  0.60164890914E+02  0.00000000000E+00 0.  1.
          2   -1    0    0  502    0  0.00000000000E+00 -0.00000000000E+00 -0.20779639094E+04  0.20779639094E+04  0.00000000000E+00 0. -1.
          6    1    1    2  502    0  0.21775024315E+03  0.12036262473E+03 -0.15625770420E+04  0.15915820249E+04  0.17200000000E+03 0. -1.
         -6    1    1    2    0  501 -0.21775024315E+03 -0.12036262473E+03 -0.45522197644E+03  0.54654677536E+03  0.17200000000E+03 0.  1.
</event>
