<event>
 4    1  0.6129841E-001  0.2256707E+03  0.7818608E-02  0.1129725E+00
         21   -1    0    0  501  502  0.00000000000E+00  0.00000000000E+00  0.63542938050E+03  0.63542938050E+03  0.00000000000E+00 0.  1.
         21   -1    0    0  502  503 -0.00000000000E+00 -0.00000000000E+00 -0.82792968869E+02  0.82792968869E+02  0.00000000000E+00 0.  1.
          6    1    1    2  501    0  0.29472573891E+02 -0.14308954287E+03  0.34052636842E+03  0.40851616551E+03  0.17200000000E+03 0.  1.
         -6    1    1    2    0  503 -0.29472573891E+02  0.14308954287E+03  0.21211004321E+03  0.30970618386E+03  0.17200000000E+03 0.  1.
</event>
<event>
 4    1  0.6129841E-001  0.2919161E+03  0.7818608E-02  0.1089353E+00
         21   -1    0    0  501  502  0.00000000000E+00  0.00000000000E+00  0.32754504058E+03  0.32754504058E+03  0.00000000000E+00 0.  1.
         21   -1    0    0  502  503 -0.00000000000E+00 -0.00000000000E+00 -0.32855034478E+03  0.32855034478E+03  0.00000000000E+00 0.  1.
          6    1    1    2  501    0  0.11817400971E+02  0.23556602451E+03  0.14916392980E+03  0.32781836559E+03  0.17200000000E+03 0.  1.
         -6    1    1    2    0  503 -0.11817400971E+02 -0.23556602451E+03 -0.15016923400E+03  0.32827701977E+03  0.17200000000E+03 0.  1.
</event>
<event>
 4    1  0.6129841E-001  0.2007223E+03  0.7818608E-02  0.1149131E+00
         21   -1    0    0  501  502  0.00000000000E+00  0.00000000000E+00  0.11549541768E+03  0.11549541768E+03  0.00000000000E+00 0.  1.
         21   -1    0    0  502  503 -0.00000000000E+00 -0.00000000000E+00 -0.35200153817E+03  0.35200153817E+03  0.00000000000E+00 0.  1.
          6    1    1    2  501    0 -0.97047524813E+02 -0.35878016151E+02 -0.14040472305E+03  0.24495497621E+03  0.17200000000E+03 0. -1.
         -6    1    1    2    0  503  0.97047524813E+02  0.35878016151E+02 -0.96101397437E+02  0.22254197965E+03  0.17200000000E+03 0. -1.
</event>
<event>
 4    1  0.6129841E-001  0.2549544E+03  0.7818608E-02  0.1110213E+00
         21   -1    0    0  501  502  0.00000000000E+00  0.00000000000E+00  0.75280149512E+03  0.75280149512E+03  0.00000000000E+00 0. -1.
         21   -1    0    0  502  503 -0.00000000000E+00 -0.00000000000E+00 -0.99478177261E+02  0.99478177261E+02  0.00000000000E+00 0. -1.
          6    1    1    2  501    0  0.16443825270E+03 -0.91530251021E+02  0.48148961856E+03  0.54482472281E+03  0.17200000000E+03 0.  1.
         -6    1    1    2    0  503 -0.16443825270E+03  0.91530251021E+02  0.17183369930E+03  0.30745494958E+03  0.17200000000E+03 0.  1.
</event>
<event>
 4    1  0.6129841E-001  0.1726876E+03  0.7818608E-02  0.1175074E+00
         21   -1    0    0  503  502  0.00000000000E+00  0.00000000000E+00  0.27493188897E+02  0.27493188897E+02  0.00000000000E+00 0. -1.
         21   -1    0    0  501  503 -0.00000000000E+00 -0.00000000000E+00 -0.10847656283E+04  0.10847656283E+04  0.00000000000E+00 0. -1.
          6    1    1    2  501    0  0.11376477978E+02  0.10372804336E+02 -0.53387551482E+03  0.56110969039E+03  0.17200000000E+03 0. -1.
         -6    1    1    2    0  502 -0.11376477978E+02 -0.10372804336E+02 -0.52339692458E+03  0.55114912681E+03  0.17200000000E+03 0. -1.
</event>
<event>
 4    1  0.6129841E-001  0.2069464E+03  0.7818608E-02  0.1144007E+00
         21   -1    0    0  503  502  0.00000000000E+00  0.00000000000E+00  0.19891317144E+03  0.19891317144E+03  0.00000000000E+00 0. -1.
         21   -1    0    0  501  503 -0.00000000000E+00 -0.00000000000E+00 -0.21975954006E+03  0.21975954006E+03  0.00000000000E+00 0. -1.
          6    1    1    2  501    0 -0.86945459410E+02  0.75387669604E+02  0.19383796199E+02  0.20785221961E+03  0.17200000000E+03 0. -1.
         -6    1    1    2    0  502  0.86945459410E+02 -0.75387669604E+02 -0.40230164828E+02  0.21082049189E+03  0.17200000000E+03 0. -1.
</event>
<event>
 4    1  0.6129841E-001  0.2253504E+03  0.7818608E-02  0.1129956E+00
         21   -1    0    0  503  502  0.00000000000E+00  0.00000000000E+00  0.10135311356E+04  0.10135311356E+04  0.00000000000E+00 0.  1.
         21   -1    0    0  501  503 -0.00000000000E+00 -0.00000000000E+00 -0.55942171597E+02  0.55942171597E+02  0.00000000000E+00 0. -1.
          6    1    1    2  501    0  0.75026758991E+02  0.12477895133E+03  0.30606041676E+03  0.38007338761E+03  0.17200000000E+03 0.  1.
         -6    1    1    2    0  502 -0.75026758991E+02 -0.12477895133E+03  0.65152854722E+03  0.68939991957E+03  0.17200000000E+03 0.  1.
</event>
<event>
 4    1  0.6129841E-001  0.2859037E+03  0.7818608E-02  0.1092507E+00
         21   -1    0    0  503  502  0.00000000000E+00  0.00000000000E+00  0.15363852557E+04  0.15363852557E+04  0.00000000000E+00 0.  1.
         21   -1    0    0  501  503 -0.00000000000E+00 -0.00000000000E+00 -0.20782142415E+03  0.20782142415E+03  0.00000000000E+00 0.  1.
          6    1    1    2  501    0 -0.63098688012E+02  0.21948913881E+03 -0.87951885673E+02  0.29912616181E+03  0.17200000000E+03 0.  1.
         -6    1    1    2    0  502  0.63098688012E+02 -0.21948913881E+03  0.14165157172E+04  0.14450805180E+04  0.17200000000E+03 0.  1.
</event>
<event>
 4    1  0.6129841E-001  0.1761693E+03  0.7818608E-02  0.1171563E+00
         21   -1    0    0  501  502  0.00000000000E+00  0.00000000000E+00  0.48897676781E+03  0.48897676781E+03  0.00000000000E+00 0.  1.
         21   -1    0    0  502  503 -0.00000000000E+00 -0.00000000000E+00 -0.12439481205E+03  0.12439481205E+03  0.00000000000E+00 0.  1.
          6    1    1    2  501    0 -0.16858776066E+02  0.34167063399E+02  0.39691967456E+03  0.43425894879E+03  0.17200000000E+03 0.  1.
         -6    1    1    2    0  503  0.16858776066E+02 -0.34167063399E+02 -0.32337718802E+02  0.17911263107E+03  0.17200000000E+03 0.  1.
</event>
<event>
 4    1  0.6129841E-001  0.1742289E+03  0.7818608E-02  0.1173508E+00
         21   -1    0    0  501  502  0.00000000000E+00  0.00000000000E+00  0.10334627179E+04  0.10334627179E+04  0.00000000000E+00 0. -1.
         21   -1    0    0  502  503 -0.00000000000E+00 -0.00000000000E+00 -0.71335972994E+02  0.71335972994E+02  0.00000000000E+00 0. -1.
          6    1    1    2  501    0  0.79074923869E+01  0.26630229719E+02  0.90473853143E+03  0.92136176816E+03  0.17200000000E+03 0. -1.
         -6    1    1    2    0  503 -0.79074923869E+01 -0.26630229719E+02  0.57388213454E+02  0.18343692271E+03  0.17200000000E+03 0. -1.
</event>
<event>
 4    1  0.6129841E-001  0.1861064E+03  0.7818608E-02  0.1162021E+00
         21   -1    0    0  503  502  0.00000000000E+00  0.00000000000E+00  0.22080305356E+03  0.22080305356E+03  0.00000000000E+00 0.  1.
         21   -1    0    0  501  503 -0.00000000000E+00 -0.00000000000E+00 -0.18331990821E+03  0.18331990821E+03  0.00000000000E+00 0.  1.
          6    1    1    2  501    0  0.35003308401E+02 -0.61857728569E+02 -0.58022217465E+02  0.19494149867E+03  0.17200000000E+03 0. -1.
         -6    1    1    2    0  502 -0.35003308401E+02  0.61857728569E+02  0.95505362812E+02  0.20918146311E+03  0.17200000000E+03 0. -1.
</event>
<event>
 4    1  0.6129841E-001  0.2783921E+03  0.7818608E-02  0.1096570E+00
         21   -1    0    0  501  502  0.00000000000E+00  0.00000000000E+00  0.16559032708E+04  0.16559032708E+04  0.00000000000E+00 0. -1.
         21   -1    0    0  502  503 -0.00000000000E+00 -0.00000000000E+00 -0.57758342151E+02  0.57758342151E+02  0.00000000000E+00 0.  1.
          6    1    1    2  501    0  0.21856071883E+03 -0.12220777951E+02  0.11722280778E+04  0.12048322712E+04  0.17200000000E+03 0. -1.
         -6    1    1    2    0  503 -0.21856071883E+03  0.12220777951E+02  0.42591685082E+03  0.50882934177E+03  0.17200000000E+03 0.  1.
</event>
<event>
 4    1  0.6129841E-001  0.2014012E+03  0.7818608E-02  0.1148562E+00
         21   -1    0    0  503  502  0.00000000000E+00  0.00000000000E+00  0.34798973447E+03  0.34798973447E+03  0.00000000000E+00 0.  1.
         21   -1    0    0  501  503 -0.00000000000E+00 -0.00000000000E+00 -0.13448159602E+03  0.13448159602E+03  0.00000000000E+00 0. -1.
          6    1    1    2  501    0  0.10468922373E+03 -0.43146857055E+01  0.18695477474E+02  0.20226707828E+03  0.17200000000E+03 0. -1.
         -6    1    1    2    0  502 -0.10468922373E+03  0.43146857055E+01  0.19481266098E+03  0.28020425221E+03  0.17200000000E+03 0.  1.
</event>
<event>
 4    1  0.6129841E-001  0.1872147E+03  0.7818608E-02  0.1160998E+00
         21   -1    0    0  501  502  0.00000000000E+00  0.00000000000E+00  0.13888968505E+03  0.13888968505E+03  0.00000000000E+00 0.  1.
         21   -1    0    0  502  503 -0.00000000000E+00 -0.00000000000E+00 -0.25373784351E+03  0.25373784351E+03  0.00000000000E+00 0.  1.
          6    1    1    2  501    0 -0.56004826695E+02 -0.48257507330E+02 -0.71923369838E+02  0.20055497689E+03  0.17200000000E+03 0.  1.
         -6    1    1    2    0  503  0.56004826695E+02  0.48257507330E+02 -0.42924788619E+02  0.19207255167E+03  0.17200000000E+03 0.  1.
</event>
<event>
 4    1  0.6129841E-001  0.2032649E+03  0.7818608E-02  0.1147013E+00
         21   -1    0    0  501  502  0.00000000000E+00  0.00000000000E+00  0.25935944178E+03  0.25935944178E+03  0.00000000000E+00 0. -1.
         21   -1    0    0  502  503 -0.00000000000E+00 -0.00000000000E+00 -0.15959267628E+03  0.15959267628E+03  0.00000000000E+00 0. -1.
          6    1    1    2  501    0 -0.27280100860E+02 -0.10482561213E+03  0.58815271820E+02  0.21160304596E+03  0.17200000000E+03 0.  1.
         -6    1    1    2    0  503  0.27280100860E+02  0.10482561213E+03  0.40951493679E+02  0.20734907209E+03  0.17200000000E+03 0.  1.
</event>
<event>
 4    1  0.6129841E-001  0.2361163E+03  0.7818608E-02  0.1122407E+00
         21   -1    0    0  501  502  0.00000000000E+00  0.00000000000E+00  0.78034107326E+02  0.78034107326E+02  0.00000000000E+00 0. -1.
         21   -1    0    0  502  503 -0.00000000000E+00 -0.00000000000E+00 -0.84928678104E+03  0.84928678104E+03  0.00000000000E+00 0. -1.
          6    1    1    2  501    0 -0.12803651280E+03  0.98861294812E+02 -0.20087453313E+03  0.31000239077E+03  0.17200000000E+03 0.  1.
         -6    1    1    2    0  503  0.12803651280E+03 -0.98861294812E+02 -0.57037814058E+03  0.61731849759E+03  0.17200000000E+03 0.  1.
</event>
<event>
 4    1  0.6129841E-001  0.2575847E+03  0.7818608E-02  0.1108603E+00
         21   -1    0    0  503  502  0.00000000000E+00  0.00000000000E+00  0.37743138944E+03  0.37743138944E+03  0.00000000000E+00 0. -1.
         21   -1    0    0  501  503 -0.00000000000E+00 -0.00000000000E+00 -0.20499834855E+03  0.20499834855E+03  0.00000000000E+00 0. -1.
          6    1    1    2  501    0  0.19105537294E+03 -0.16239704236E+02 -0.23701232597E+02  0.25867282801E+03  0.17200000000E+03 0. -1.
         -6    1    1    2    0  502 -0.19105537294E+03  0.16239704236E+02  0.19613427349E+03  0.32375690998E+03  0.17200000000E+03 0. -1.
</event>
<event>
 4    1  0.6129841E-001  0.1900274E+03  0.7818608E-02  0.1158437E+00
         21   -1    0    0  501  502  0.00000000000E+00  0.00000000000E+00  0.63332639058E+03  0.63332639058E+03  0.00000000000E+00 0. -1.
         21   -1    0    0  502  503 -0.00000000000E+00 -0.00000000000E+00 -0.63735327292E+02  0.63735327292E+02  0.00000000000E+00 0. -1.
          6    1    1    2  501    0 -0.47593951287E+02 -0.65278076541E+02  0.39795206389E+03  0.44099462200E+03  0.17200000000E+03 0. -1.
         -6    1    1    2    0  503  0.47593951287E+02  0.65278076541E+02  0.17163899940E+03  0.25606709588E+03  0.17200000000E+03 0. -1.
</event>
<event>
 4    1  0.6129841E-001  0.3927872E+03  0.7818608E-02  0.1046306E+00
         21   -1    0    0  501  502  0.00000000000E+00  0.00000000000E+00  0.95072165647E+03  0.95072165647E+03  0.00000000000E+00 0.  1.
         21   -1    0    0  502  503 -0.00000000000E+00 -0.00000000000E+00 -0.19044906174E+03  0.19044906174E+03  0.00000000000E+00 0. -1.
          6    1    1    2  501    0 -0.21217446856E+03 -0.28227601757E+03  0.59958265863E+03  0.71678526752E+03  0.17200000000E+03 0. -1.
         -6    1    1    2    0  503  0.21217446856E+03  0.28227601757E+03  0.16068993610E+03  0.42438545070E+03  0.17200000000E+03 0. -1.
</event>
<event>
 4    1  0.6129841E-001  0.2527723E+03  0.7818608E-02  0.1111565E+00
         21   -1    0    0  501  502  0.00000000000E+00  0.00000000000E+00  0.31700205183E+03  0.31700205183E+03  0.00000000000E+00 0. -1.
         21   -1    0    0  502  503 -0.00000000000E+00 -0.00000000000E+00 -0.26977463497E+03  0.26977463497E+03  0.00000000000E+00 0.  1.
          6    1    1    2  501    0 -0.10367239492E+03  0.15349882092E+03  0.17114764262E+03  0.30526278690E+03  0.17200000000E+03 0. -1.
         -6    1    1    2    0  503  0.10367239492E+03 -0.15349882092E+03 -0.12392022575E+03  0.28151389991E+03  0.17200000000E+03 0. -1.
</event>
<event>
 4    1  0.6129841E-001  0.2285572E+03  0.7818608E-02  0.1127659E+00
         21   -1    0    0  503  502  0.00000000000E+00  0.00000000000E+00  0.38550092242E+03  0.38550092242E+03  0.00000000000E+00 0.  1.
         21   -1    0    0  501  503 -0.00000000000E+00 -0.00000000000E+00 -0.17436959899E+03  0.17436959899E+03  0.00000000000E+00 0. -1.
          6    1    1    2  501    0  0.14374479954E+03  0.44629831330E+02 -0.26589328068E+02  0.23009863451E+03  0.17200000000E+03 0. -1.
         -6    1    1    2    0  502 -0.14374479954E+03 -0.44629831330E+02  0.23772065150E+03  0.32977188690E+03  0.17200000000E+03 0.  1.
</event>
<event>
 4    1  0.6129841E-001  0.2210761E+03  0.7818608E-02  0.1133083E+00
         21   -1    0    0  501  502  0.00000000000E+00  0.00000000000E+00  0.70143165573E+02  0.70143165573E+02  0.00000000000E+00 0.  1.
         21   -1    0    0  502  503 -0.00000000000E+00 -0.00000000000E+00 -0.70948939200E+03  0.70948939200E+03  0.00000000000E+00 0.  1.
          6    1    1    2  501    0 -0.12270683667E+03 -0.65066539768E+02 -0.26750750820E+03  0.34703730247E+03  0.17200000000E+03 0.  1.
         -6    1    1    2    0  503  0.12270683667E+03  0.65066539768E+02 -0.37183871823E+03  0.43259525510E+03  0.17200000000E+03 0.  1.
</event>
<event>
 4    1  0.6129841E-001  0.2538841E+03  0.7818608E-02  0.1110874E+00
         21   -1    0    0  501  502  0.00000000000E+00  0.00000000000E+00  0.43681236491E+03  0.43681236491E+03  0.00000000000E+00 0. -1.
         21   -1    0    0  502  503 -0.00000000000E+00 -0.00000000000E+00 -0.15237019154E+03  0.15237019154E+03  0.00000000000E+00 0.  1.
          6    1    1    2  501    0 -0.22210518591E+02 -0.18541796352E+03  0.19454952696E+03  0.31985410232E+03  0.17200000000E+03 0.  1.
         -6    1    1    2    0  503  0.22210518591E+02  0.18541796352E+03  0.89892646414E+02  0.26932845414E+03  0.17200000000E+03 0. -1.
</event>
<event>
 4    1  0.6129841E-001  0.1976624E+03  0.7818608E-02  0.1151726E+00
         21   -1    0    0  503  502  0.00000000000E+00  0.00000000000E+00  0.18701629010E+03  0.18701629010E+03  0.00000000000E+00 0. -1.
         21   -1    0    0  501  503 -0.00000000000E+00 -0.00000000000E+00 -0.26019675913E+03  0.26019675913E+03  0.00000000000E+00 0. -1.
          6    1    1    2  501    0  0.95212376108E+02 -0.20518754477E+02 -0.13586001909E+03  0.23985070489E+03  0.17200000000E+03 0. -1.
         -6    1    1    2    0  502 -0.95212376108E+02  0.20518754477E+02  0.62679550064E+02  0.20736234433E+03  0.17200000000E+03 0. -1.
</event>
<event>
 4    1  0.6129841E-001  0.2502918E+03  0.7818608E-02  0.1113121E+00
         21   -1    0    0  503  502  0.00000000000E+00  0.00000000000E+00  0.56178052609E+02  0.56178052609E+02  0.00000000000E+00 0.  1.
         21   -1    0    0  501  503 -0.00000000000E+00 -0.00000000000E+00 -0.22146449842E+04  0.22146449842E+04  0.00000000000E+00 0.  1.
          6    1    1    2  501    0 -0.81397581670E+02 -0.16259283553E+03 -0.18792541846E+04  0.18958486983E+04  0.17200000000E+03 0.  1.
         -6    1    1    2    0  502  0.81397581670E+02  0.16259283553E+03 -0.27921274700E+03  0.37497433853E+03  0.17200000000E+03 0.  1.
</event>
<event>
 4    1  0.6129841E-001  0.2283180E+03  0.7818608E-02  0.1127829E+00
         21   -1    0    0  503  502  0.00000000000E+00  0.00000000000E+00  0.15309989250E+03  0.15309989250E+03  0.00000000000E+00 0. -1.
         21   -1    0    0  501  503 -0.00000000000E+00 -0.00000000000E+00 -0.34178251747E+03  0.34178251747E+03  0.00000000000E+00 0. -1.
          6    1    1    2  501    0  0.78824713279E+02 -0.12779582948E+03 -0.10955294555E+03  0.25324090770E+03  0.17200000000E+03 0.  1.
         -6    1    1    2    0  502 -0.78824713279E+02  0.12779582948E+03 -0.79129679421E+02  0.24164150227E+03  0.17200000000E+03 0.  1.
</event>
<event>
 4    1  0.6129841E-001  0.1766522E+03  0.7818608E-02  0.1171083E+00
         21   -1    0    0  501  502  0.00000000000E+00  0.00000000000E+00  0.32113490471E+03  0.32113490471E+03  0.00000000000E+00 0.  1.
         21   -1    0    0  502  503 -0.00000000000E+00 -0.00000000000E+00 -0.11461266774E+03  0.11461266774E+03  0.00000000000E+00 0.  1.
          6    1    1    2  501    0 -0.13156033199E+02  0.38064442372E+02  0.18275672930E+02  0.17759499769E+03  0.17200000000E+03 0.  1.
         -6    1    1    2    0  503  0.13156033199E+02 -0.38064442372E+02  0.18824656404E+03  0.25815257476E+03  0.17200000000E+03 0.  1.
</event>
<event>
 4    1  0.6129841E-001  0.2024945E+03  0.7818608E-02  0.1147651E+00
         21   -1    0    0  501  502  0.00000000000E+00  0.00000000000E+00  0.12576905290E+04  0.12576905290E+04  0.00000000000E+00 0. -1.
         21   -1    0    0  502  503 -0.00000000000E+00 -0.00000000000E+00 -0.22308475923E+03  0.22308475923E+03  0.00000000000E+00 0.  1.
          6    1    1    2  501    0 -0.80160423970E+02 -0.70670648282E+02  0.12014528620E+04  0.12183977239E+04  0.17200000000E+03 0. -1.
         -6    1    1    2    0  503  0.80160423970E+02  0.70670648282E+02 -0.16684709217E+03  0.26237756434E+03  0.17200000000E+03 0.  1.
</event>
<event>
 4    1  0.6129841E-001  0.2000012E+03  0.7818608E-02  0.1149738E+00
         21   -1    0    0  501  502  0.00000000000E+00  0.00000000000E+00  0.81388355902E+03  0.81388355902E+03  0.00000000000E+00 0. -1.
         21   -1    0    0  502  503 -0.00000000000E+00 -0.00000000000E+00 -0.15558462352E+03  0.15558462352E+03  0.00000000000E+00 0. -1.
          6    1    1    2  501    0 -0.98546285756E+02  0.26553636227E+02  0.73007755514E+03  0.75697668561E+03  0.17200000000E+03 0. -1.
         -6    1    1    2    0  503  0.98546285756E+02 -0.26553636227E+02 -0.71778619640E+02  0.21249149694E+03  0.17200000000E+03 0. -1.
</event>
<event>
 4    1  0.6129841E-001  0.1800885E+03  0.7818608E-02  0.1167717E+00
         21   -1    0    0  503  502  0.00000000000E+00  0.00000000000E+00  0.90144183372E+03  0.90144183372E+03  0.00000000000E+00 0.  1.
         21   -1    0    0  501  503 -0.00000000000E+00 -0.00000000000E+00 -0.21262529463E+03  0.21262529463E+03  0.00000000000E+00 0.  1.
          6    1    1    2  501    0  0.22407311883E+02 -0.48433190332E+02 -0.16331572199E+03  0.24311290916E+03  0.17200000000E+03 0.  1.
         -6    1    1    2    0  502 -0.22407311883E+02  0.48433190332E+02  0.85213226108E+03  0.87095421919E+03  0.17200000000E+03 0.  1.
</event>
<event>
 4    1  0.6129841E-001  0.1762581E+03  0.7818608E-02  0.1171474E+00
         21   -1    0    0  503  502  0.00000000000E+00  0.00000000000E+00  0.90921835402E+01  0.90921835402E+01  0.00000000000E+00 0. -1.
         21   -1    0    0  501  503 -0.00000000000E+00 -0.00000000000E+00 -0.34220646769E+04  0.34220646769E+04  0.00000000000E+00 0. -1.
          6    1    1    2  501    0  0.36370735349E+02 -0.12653175723E+02 -0.17732398259E+04  0.17819782304E+04  0.17200000000E+03 0.  1.
         -6    1    1    2    0  502 -0.36370735349E+02  0.12653175723E+02 -0.16397326674E+04  0.16491786300E+04  0.17200000000E+03 0.  1.
</event>
<event>
 4    1  0.6129841E-001  0.1804949E+03  0.7818608E-02  0.1167325E+00
         21   -1    0    0  503  502  0.00000000000E+00  0.00000000000E+00  0.43558272503E+03  0.43558272503E+03  0.00000000000E+00 0.  1.
         21   -1    0    0  501  503 -0.00000000000E+00 -0.00000000000E+00 -0.86798505921E+02  0.86798505921E+02  0.00000000000E+00 0.  1.
          6    1    1    2  501    0  0.24546633007E+02  0.48906803788E+02  0.77252374764E+02  0.19633222368E+03  0.17200000000E+03 0.  1.
         -6    1    1    2    0  502 -0.24546633007E+02 -0.48906803788E+02  0.27153184434E+03  0.32604900727E+03  0.17200000000E+03 0.  1.
</event>
<event>
 4    1  0.6129841E-001  0.2094751E+03  0.7818608E-02  0.1141982E+00
         21   -1    0    0  501  502  0.00000000000E+00  0.00000000000E+00  0.19660250524E+03  0.19660250524E+03  0.00000000000E+00 0. -1.
         21   -1    0    0  502  503 -0.00000000000E+00 -0.00000000000E+00 -0.23808726016E+03  0.23808726016E+03  0.00000000000E+00 0. -1.
          6    1    1    2  501    0  0.97902434817E+02  0.68636141641E+02  0.33623650830E+02  0.21215644364E+03  0.17200000000E+03 0. -1.
         -6    1    1    2    0  503 -0.97902434817E+02 -0.68636141641E+02 -0.75108405752E+02  0.22253332177E+03  0.17200000000E+03 0. -1.
</event>
<event>
 4    1  0.6129841E-001  0.1777297E+03  0.7818608E-02  0.1170019E+00
         21   -1    0    0  501  502  0.00000000000E+00  0.00000000000E+00  0.20981914342E+03  0.20981914342E+03  0.00000000000E+00 0.  1.
         21   -1    0    0  502  503 -0.00000000000E+00 -0.00000000000E+00 -0.27026059958E+03  0.27026059958E+03  0.00000000000E+00 0.  1.
          6    1    1    2  501    0 -0.43939144485E+02  0.85547256635E+01  0.12953709243E+03  0.21992655607E+03  0.17200000000E+03 0.  1.
         -6    1    1    2    0  503  0.43939144485E+02 -0.85547256635E+01 -0.18997854858E+03  0.26015318693E+03  0.17200000000E+03 0.  1.
</event>
<event>
 4    1  0.6129841E-001  0.1756039E+03  0.7818608E-02  0.1172127E+00
         21   -1    0    0  501  502  0.00000000000E+00  0.00000000000E+00  0.30529263501E+02  0.30529263501E+02  0.00000000000E+00 0.  1.
         21   -1    0    0  502  503 -0.00000000000E+00 -0.00000000000E+00 -0.10103022431E+04  0.10103022431E+04  0.00000000000E+00 0.  1.
          6    1    1    2  501    0 -0.34131957028E+01 -0.35229147552E+02 -0.49774921518E+03  0.52781722589E+03  0.17200000000E+03 0. -1.
         -6    1    1    2    0  503  0.34131957028E+01  0.35229147552E+02 -0.48202376445E+03  0.51301428073E+03  0.17200000000E+03 0. -1.
</event>
<event>
 4    1  0.6129841E-001  0.1782014E+03  0.7818608E-02  0.1169555E+00
         21   -1    0    0  503  502  0.00000000000E+00  0.00000000000E+00  0.23246261197E+03  0.23246261197E+03  0.00000000000E+00 0.  1.
         21   -1    0    0  501  503 -0.00000000000E+00 -0.00000000000E+00 -0.22536076582E+03  0.22536076582E+03  0.00000000000E+00 0.  1.
          6    1    1    2  501    0  0.35115416499E+02  0.30637123400E+02 -0.14010558511E+03  0.22668326093E+03  0.17200000000E+03 0.  1.
         -6    1    1    2    0  502 -0.35115416499E+02 -0.30637123400E+02  0.14720743126E+03  0.23114011687E+03  0.17200000000E+03 0.  1.
</event>
<event>
 4    1  0.6129841E-001  0.2931820E+03  0.7818608E-02  0.1088699E+00
         21   -1    0    0  501  502  0.00000000000E+00  0.00000000000E+00  0.18087736767E+03  0.18087736767E+03  0.00000000000E+00 0. -1.
         21   -1    0    0  502  503 -0.00000000000E+00 -0.00000000000E+00 -0.47544240100E+03  0.47544240100E+03  0.00000000000E+00 0.  1.
          6    1    1    2  501    0  0.19749078669E+03  0.13179189094E+03 -0.14011223759E+03  0.32494176781E+03  0.17200000000E+03 0. -1.
         -6    1    1    2    0  503 -0.19749078669E+03 -0.13179189094E+03 -0.15445279574E+03  0.33137800086E+03  0.17200000000E+03 0.  1.
</event>
<event>
 4    1  0.6129841E-001  0.2099038E+03  0.7818608E-02  0.1141642E+00
         21   -1    0    0  503  502  0.00000000000E+00  0.00000000000E+00  0.77542106537E+03  0.77542106537E+03  0.00000000000E+00 0. -1.
         21   -1    0    0  501  503 -0.00000000000E+00 -0.00000000000E+00 -0.79357566263E+02  0.79357566263E+02  0.00000000000E+00 0. -1.
          6    1    1    2  501    0 -0.66948394051E+02  0.99967642332E+02  0.12027009292E+03  0.24191839994E+03  0.17200000000E+03 0. -1.
         -6    1    1    2    0  502  0.66948394051E+02 -0.99967642332E+02  0.57579340619E+03  0.61286023170E+03  0.17200000000E+03 0. -1.
</event>
<event>
 4    1  0.6129841E-001  0.1725723E+03  0.7818608E-02  0.1175192E+00
         21   -1    0    0  503  502  0.00000000000E+00  0.00000000000E+00  0.28091343988E+03  0.28091343988E+03  0.00000000000E+00 0.  1.
         21   -1    0    0  501  503 -0.00000000000E+00 -0.00000000000E+00 -0.14922147854E+03  0.14922147854E+03  0.00000000000E+00 0.  1.
          6    1    1    2  501    0  0.13950584570E+02 -0.16056831761E+01 -0.49879936497E+02  0.17963631340E+03  0.17200000000E+03 0.  1.
         -6    1    1    2    0  502 -0.13950584570E+02  0.16056831761E+01  0.18157189784E+03  0.25049860501E+03  0.17200000000E+03 0.  1.
</event>
<event>
 4    1  0.6129841E-001  0.2390816E+03  0.7818608E-02  0.1120406E+00
         21   -1    0    0  501  502  0.00000000000E+00  0.00000000000E+00  0.31038203187E+03  0.31038203187E+03  0.00000000000E+00 0. -1.
         21   -1    0    0  502  503 -0.00000000000E+00 -0.00000000000E+00 -0.18700926583E+03  0.18700926583E+03  0.00000000000E+00 0. -1.
          6    1    1    2  501    0  0.30596675331E+00 -0.16606003413E+03  0.92382613448E+02  0.25630953127E+03  0.17200000000E+03 0. -1.
         -6    1    1    2    0  503 -0.30596675331E+00  0.16606003413E+03  0.30990152587E+02  0.24108176644E+03  0.17200000000E+03 0. -1.
</event>
<event>
 4    1  0.6129841E-001  0.2267468E+03  0.7818608E-02  0.1128951E+00
         21   -1    0    0  501  502  0.00000000000E+00  0.00000000000E+00  0.63375183070E+03  0.63375183070E+03  0.00000000000E+00 0.  1.
         21   -1    0    0  502  503 -0.00000000000E+00 -0.00000000000E+00 -0.20421263024E+03  0.20421263024E+03  0.00000000000E+00 0.  1.
          6    1    1    2  501    0 -0.57256199759E+02 -0.13620514218E+03  0.54005063124E+03  0.58572075042E+03  0.17200000000E+03 0.  1.
         -6    1    1    2    0  503  0.57256199759E+02  0.13620514218E+03 -0.11051143078E+03  0.25224371053E+03  0.17200000000E+03 0.  1.
</event>
<event>
 4    1  0.6129841E-001  0.2228624E+03  0.7818608E-02  0.1131767E+00
         21   -1    0    0  503  502  0.00000000000E+00  0.00000000000E+00  0.17832324794E+03  0.17832324794E+03  0.00000000000E+00 0. -1.
         21   -1    0    0  501  503 -0.00000000000E+00 -0.00000000000E+00 -0.55778815071E+03  0.55778815071E+03  0.00000000000E+00 0.  1.
          6    1    1    2  501    0  0.52608135623E+02  0.13159037798E+03 -0.45015885907E+03  0.50230532737E+03  0.17200000000E+03 0.  1.
         -6    1    1    2    0  502 -0.52608135623E+02 -0.13159037798E+03  0.70693956288E+02  0.23380607128E+03  0.17200000000E+03 0. -1.
</event>
<event>
 4    1  0.6129841E-001  0.2103050E+03  0.7818608E-02  0.1141325E+00
         21   -1    0    0  503  502  0.00000000000E+00  0.00000000000E+00  0.65271611955E+03  0.65271611955E+03  0.00000000000E+00 0. -1.
         21   -1    0    0  501  503 -0.00000000000E+00 -0.00000000000E+00 -0.74411131958E+02  0.74411131958E+02  0.00000000000E+00 0.  1.
          6    1    1    2  501    0  0.11990030561E+03 -0.16373619215E+02  0.39784573220E+03  0.45001045024E+03  0.17200000000E+03 0.  1.
         -6    1    1    2    0  502 -0.11990030561E+03  0.16373619215E+02  0.18045925539E+03  0.27711680127E+03  0.17200000000E+03 0. -1.
</event>
<event>
 4    1  0.6129841E-001  0.3651065E+03  0.7818608E-02  0.1056580E+00
         21   -1    0    0  503  502  0.00000000000E+00  0.00000000000E+00  0.32697796577E+03  0.32697796577E+03  0.00000000000E+00 0. -1.
         21   -1    0    0  501  503 -0.00000000000E+00 -0.00000000000E+00 -0.53164940025E+03  0.53164940025E+03  0.00000000000E+00 0. -1.
          6    1    1    2  501    0 -0.10333190572E+01  0.32205235300E+03  0.10497279111E+03  0.37989745024E+03  0.17200000000E+03 0. -1.
         -6    1    1    2    0  502  0.10333190572E+01 -0.32205235300E+03 -0.30964422559E+03  0.47872991578E+03  0.17200000000E+03 0. -1.
</event>
<event>
 4    1  0.6129841E-001  0.1737769E+03  0.7818608E-02  0.1173965E+00
         21   -1    0    0  503  502  0.00000000000E+00  0.00000000000E+00  0.11964422718E+03  0.11964422718E+03  0.00000000000E+00 0. -1.
         21   -1    0    0  501  503 -0.00000000000E+00 -0.00000000000E+00 -0.26963240194E+03  0.26963240194E+03  0.00000000000E+00 0. -1.
          6    1    1    2  501    0 -0.90522006990E+01  0.23075387492E+02 -0.25790951989E+02  0.17568036046E+03  0.17200000000E+03 0. -1.
         -6    1    1    2    0  502  0.90522006990E+01 -0.23075387492E+02 -0.12419722277E+03  0.21359626867E+03  0.17200000000E+03 0. -1.
</event>
<event>
 4    1  0.6129841E-001  0.3080147E+03  0.7818608E-02  0.1081301E+00
         21   -1    0    0  501  502  0.00000000000E+00  0.00000000000E+00  0.12016380238E+03  0.12016380238E+03  0.00000000000E+00 0.  1.
         21   -1    0    0  502  503 -0.00000000000E+00 -0.00000000000E+00 -0.79528977744E+03  0.79528977744E+03  0.00000000000E+00 0. -1.
          6    1    1    2  501    0  0.22814119678E+03  0.11506815521E+03 -0.37651200920E+03  0.48645079821E+03  0.17200000000E+03 0. -1.
         -6    1    1    2    0  503 -0.22814119678E+03 -0.11506815521E+03 -0.29861396586E+03  0.42900278160E+03  0.17200000000E+03 0. -1.
</event>
<event>
 4    1  0.6129841E-001  0.1822053E+03  0.7818608E-02  0.1165686E+00
         21   -1    0    0  503  502  0.00000000000E+00  0.00000000000E+00  0.38085530256E+03  0.38085530256E+03  0.00000000000E+00 0. -1.
         21   -1    0    0  501  503 -0.00000000000E+00 -0.00000000000E+00 -0.96482515451E+02  0.96482515451E+02  0.00000000000E+00 0. -1.
          6    1    1    2  501    0 -0.34989290595E+02  0.48893061447E+02  0.21633926767E+03  0.28284529455E+03  0.17200000000E+03 0.  1.
         -6    1    1    2    0  502  0.34989290595E+02 -0.48893061447E+02  0.68033519437E+02  0.19449252346E+03  0.17200000000E+03 0.  1.
</event>
<event>
 4    1  0.6129841E-001  0.2005670E+03  0.7818608E-02  0.1149262E+00
         21   -1    0    0  501  502  0.00000000000E+00  0.00000000000E+00  0.67893446328E+02  0.67893446328E+02  0.00000000000E+00 0. -1.
         21   -1    0    0  502  503 -0.00000000000E+00 -0.00000000000E+00 -0.64335540884E+03  0.64335540884E+03  0.00000000000E+00 0. -1.
          6    1    1    2  501    0 -0.10265487915E+03  0.10250803174E+02 -0.18774944070E+03  0.27473069661E+03  0.17200000000E+03 0. -1.
         -6    1    1    2    0  503  0.10265487915E+03 -0.10250803174E+02 -0.38771252182E+03  0.43651815856E+03  0.17200000000E+03 0. -1.
</event>
<event>
 4    1  0.6129841E-001  0.1973256E+03  0.7818608E-02  0.1152015E+00
         21   -1    0    0  503  502  0.00000000000E+00  0.00000000000E+00  0.86620571012E+03  0.86620571012E+03  0.00000000000E+00 0.  1.
         21   -1    0    0  501  503 -0.00000000000E+00 -0.00000000000E+00 -0.91635162109E+02  0.91635162109E+02  0.00000000000E+00 0. -1.
          6    1    1    2  501    0  0.22737874466E+02  0.94001995027E+02  0.45452263647E+02  0.20249270178E+03  0.17200000000E+03 0. -1.
         -6    1    1    2    0  502 -0.22737874466E+02 -0.94001995027E+02  0.72911828437E+03  0.75534817045E+03  0.17200000000E+03 0.  1.
</event>
<event>
 4    1  0.6129841E-001  0.2360498E+03  0.7818608E-02  0.1122453E+00
         21   -1    0    0  501  502  0.00000000000E+00  0.00000000000E+00  0.18511267131E+03  0.18511267131E+03  0.00000000000E+00 0. -1.
         21   -1    0    0  502  503 -0.00000000000E+00 -0.00000000000E+00 -0.31901998874E+03  0.31901998874E+03  0.00000000000E+00 0. -1.
          6    1    1    2  501    0  0.61706567327E+02  0.14942494692E+03 -0.70512878559E+01  0.23615510978E+03  0.17200000000E+03 0. -1.
         -6    1    1    2    0  503 -0.61706567327E+02 -0.14942494692E+03 -0.12685602957E+03  0.26797755028E+03  0.17200000000E+03 0. -1.
</event>
<event>
 4    1  0.6129841E-001  0.2020340E+03  0.7818608E-02  0.1148034E+00
         21   -1    0    0  501  502  0.00000000000E+00  0.00000000000E+00  0.16479269966E+03  0.16479269966E+03  0.00000000000E+00 0. -1.
         21   -1    0    0  502  503 -0.00000000000E+00 -0.00000000000E+00 -0.31678564220E+03  0.31678564220E+03  0.00000000000E+00 0. -1.
          6    1    1    2  501    0 -0.25225716284E+02  0.10294358521E+03  0.36457666639E+02  0.20529705296E+03  0.17200000000E+03 0.  1.
         -6    1    1    2    0  503  0.25225716284E+02 -0.10294358521E+03 -0.18845060917E+03  0.27628128890E+03  0.17200000000E+03 0.  1.
</event>
<event>
 4    1  0.6129841E-001  0.2369612E+03  0.7818608E-02  0.1121834E+00
         21   -1    0    0  503  502  0.00000000000E+00  0.00000000000E+00  0.12034151387E+03  0.12034151387E+03  0.00000000000E+00 0. -1.
         21   -1    0    0  501  503 -0.00000000000E+00 -0.00000000000E+00 -0.52601884846E+03  0.52601884846E+03  0.00000000000E+00 0. -1.
          6    1    1    2  501    0 -0.23753153048E+02  0.16125259684E+03 -0.94213965838E+02  0.25500369336E+03  0.17200000000E+03 0. -1.
         -6    1    1    2    0  502  0.23753153048E+02 -0.16125259684E+03 -0.31146336876E+03  0.39135666897E+03  0.17200000000E+03 0. -1.
</event>
<event>
 4    1  0.6129841E-001  0.1778618E+03  0.7818608E-02  0.1169889E+00
         21   -1    0    0  503  502  0.00000000000E+00  0.00000000000E+00  0.13092712191E+03  0.13092712191E+03  0.00000000000E+00 0.  1.
         21   -1    0    0  501  503 -0.00000000000E+00 -0.00000000000E+00 -0.29083699278E+03  0.29083699278E+03  0.00000000000E+00 0. -1.
          6    1    1    2  501    0 -0.18633189324E+02 -0.41274956325E+02  0.67942455293E+01  0.17799151535E+03  0.17200000000E+03 0.  1.
         -6    1    1    2    0  502  0.18633189324E+02  0.41274956325E+02 -0.16670411640E+03  0.24377259934E+03  0.17200000000E+03 0. -1.
</event>
<event>
 4    1  0.6129841E-001  0.1759105E+03  0.7818608E-02  0.1171821E+00
         21   -1    0    0  501  502  0.00000000000E+00  0.00000000000E+00  0.80386401156E+03  0.80386401156E+03  0.00000000000E+00 0.  1.
         21   -1    0    0  502  503 -0.00000000000E+00 -0.00000000000E+00 -0.42057563051E+02  0.42057563051E+02  0.00000000000E+00 0.  1.
          6    1    1    2  501    0 -0.36760644469E+02 -0.30251488898E+01  0.50400893038E+03  0.53382534449E+03  0.17200000000E+03 0.  1.
         -6    1    1    2    0  503  0.36760644469E+02  0.30251488898E+01  0.25779751812E+03  0.31209623012E+03  0.17200000000E+03 0.  1.
</event>
<event>
 4    1  0.6129841E-001  0.2207564E+03  0.7818608E-02  0.1133320E+00
         21   -1    0    0  501  502  0.00000000000E+00  0.00000000000E+00  0.56174231871E+03  0.56174231871E+03  0.00000000000E+00 0.  1.
         21   -1    0    0  502  503 -0.00000000000E+00 -0.00000000000E+00 -0.13031062083E+03  0.13031062083E+03  0.00000000000E+00 0. -1.
          6    1    1    2  501    0  0.93343801318E+02  0.10215832265E+03  0.41576953094E+03  0.47074163932E+03  0.17200000000E+03 0.  1.
         -6    1    1    2    0  503 -0.93343801318E+02 -0.10215832265E+03  0.15662166940E+02  0.22131130022E+03  0.17200000000E+03 0. -1.
</event>
<event>
 4    1  0.6129841E-001  0.2250247E+03  0.7818608E-02  0.1130191E+00
         21   -1    0    0  503  502  0.00000000000E+00  0.00000000000E+00  0.86774251166E+03  0.86774251166E+03  0.00000000000E+00 0. -1.
         21   -1    0    0  501  503 -0.00000000000E+00 -0.00000000000E+00 -0.18080905958E+03  0.18080905958E+03  0.00000000000E+00 0.  1.
          6    1    1    2  501    0 -0.13207841613E+03  0.60061810729E+02 -0.87991062298E+02  0.24161654778E+03  0.17200000000E+03 0.  1.
         -6    1    1    2    0  502  0.13207841613E+03 -0.60061810729E+02  0.77492451438E+03  0.80693502347E+03  0.17200000000E+03 0.  1.
</event>
<event>
 4    1  0.6129841E-001  0.1912577E+03  0.7818608E-02  0.1157332E+00
         21   -1    0    0  501  502  0.00000000000E+00  0.00000000000E+00  0.12367422356E+03  0.12367422356E+03  0.00000000000E+00 0.  1.
         21   -1    0    0  502  503 -0.00000000000E+00 -0.00000000000E+00 -0.56826290449E+03  0.56826290449E+03  0.00000000000E+00 0.  1.
          6    1    1    2  501    0 -0.55739910225E+02 -0.62358468871E+02 -0.46186689537E+03  0.49990053538E+03  0.17200000000E+03 0.  1.
         -6    1    1    2    0  503  0.55739910225E+02  0.62358468871E+02  0.17278214441E+02  0.19203659267E+03  0.17200000000E+03 0.  1.
</event>
<event>
 4    1  0.6129841E-001  0.1789822E+03  0.7818608E-02  0.1168792E+00
         21   -1    0    0  503  502  0.00000000000E+00  0.00000000000E+00  0.66388246837E+02  0.66388246837E+02  0.00000000000E+00 0. -1.
         21   -1    0    0  501  503 -0.00000000000E+00 -0.00000000000E+00 -0.72722588793E+03  0.72722588793E+03  0.00000000000E+00 0. -1.
          6    1    1    2  501    0 -0.44039722615E+02  0.22608492278E+02 -0.56059150709E+03  0.58847045713E+03  0.17200000000E+03 0. -1.
         -6    1    1    2    0  502  0.44039722615E+02 -0.22608492278E+02 -0.10024613399E+03  0.20514367763E+03  0.17200000000E+03 0. -1.
</event>
<event>
 4    1  0.6129841E-001  0.1943725E+03  0.7818608E-02  0.1154576E+00
         21   -1    0    0  501  502  0.00000000000E+00  0.00000000000E+00  0.10347730776E+04  0.10347730776E+04  0.00000000000E+00 0.  1.
         21   -1    0    0  502  503 -0.00000000000E+00 -0.00000000000E+00 -0.37300287559E+02  0.37300287559E+02  0.00000000000E+00 0. -1.
          6    1    1    2  501    0  0.87130123197E+02 -0.24596585702E+02  0.57670910093E+03  0.60858363229E+03  0.17200000000E+03 0.  1.
         -6    1    1    2    0  503 -0.87130123197E+02  0.24596585702E+02  0.42076368908E+03  0.46348973283E+03  0.17200000000E+03 0. -1.
</event>
<event>
 4    1  0.6129841E-001  0.2156939E+03  0.7818608E-02  0.1137135E+00
         21   -1    0    0  503  502  0.00000000000E+00  0.00000000000E+00  0.12309615617E+04  0.12309615617E+04  0.00000000000E+00 0.  1.
         21   -1    0    0  501  503 -0.00000000000E+00 -0.00000000000E+00 -0.62487991019E+02  0.62487991019E+02  0.00000000000E+00 0.  1.
          6    1    1    2  501    0 -0.10897360689E+03 -0.71166019819E+02  0.17769001379E+03  0.27945946106E+03  0.17200000000E+03 0.  1.
         -6    1    1    2    0  502  0.10897360689E+03  0.71166019819E+02  0.99078355692E+03  0.10139900917E+04  0.17200000000E+03 0.  1.
</event>
<event>
 4    1  0.6129841E-001  0.2148390E+03  0.7818608E-02  0.1137790E+00
         21   -1    0    0  503  502  0.00000000000E+00  0.00000000000E+00  0.14473738533E+03  0.14473738533E+03  0.00000000000E+00 0.  1.
         21   -1    0    0  501  503 -0.00000000000E+00 -0.00000000000E+00 -0.44742664384E+03  0.44742664384E+03  0.00000000000E+00 0. -1.
          6    1    1    2  501    0  0.11616522038E+03  0.55474754721E+02 -0.31003797779E+03  0.37719935646E+03  0.17200000000E+03 0. -1.
         -6    1    1    2    0  502 -0.11616522038E+03 -0.55474754721E+02  0.73487192817E+01  0.21496467271E+03  0.17200000000E+03 0.  1.
</event>
<event>
 4    1  0.6129841E-001  0.1995547E+03  0.7818608E-02  0.1150115E+00
         21   -1    0    0  503  502  0.00000000000E+00  0.00000000000E+00  0.46573706493E+03  0.46573706493E+03  0.00000000000E+00 0.  1.
         21   -1    0    0  501  503 -0.00000000000E+00 -0.00000000000E+00 -0.95576274989E+02  0.95576274989E+02  0.00000000000E+00 0.  1.
          6    1    1    2  501    0 -0.29899233038E+02  0.96664860806E+02  0.27619311986E+03  0.34074139594E+03  0.17200000000E+03 0.  1.
         -6    1    1    2    0  502  0.29899233038E+02 -0.96664860806E+02  0.93967670088E+02  0.22057194398E+03  0.17200000000E+03 0.  1.
</event>
<event>
 4    1  0.6129841E-001  0.2337333E+03  0.7818608E-02  0.1124039E+00
         21   -1    0    0  501  502  0.00000000000E+00  0.00000000000E+00  0.33965785273E+03  0.33965785273E+03  0.00000000000E+00 0.  1.
         21   -1    0    0  502  503 -0.00000000000E+00 -0.00000000000E+00 -0.16897622524E+03  0.16897622524E+03  0.00000000000E+00 0.  1.
          6    1    1    2  501    0 -0.14293890208E+03 -0.67939207805E+02  0.14113891118E+03  0.27304112865E+03  0.17200000000E+03 0.  1.
         -6    1    1    2    0  503  0.14293890208E+03  0.67939207805E+02  0.29542716317E+02  0.23559294933E+03  0.17200000000E+03 0.  1.
</event>
<event>
 4    1  0.6129841E-001  0.2448624E+03  0.7818608E-02  0.1116595E+00
         21   -1    0    0  503  502  0.00000000000E+00  0.00000000000E+00  0.90690873639E+03  0.90690873639E+03  0.00000000000E+00 0.  1.
         21   -1    0    0  501  503 -0.00000000000E+00 -0.00000000000E+00 -0.66180255572E+02  0.66180255572E+02  0.00000000000E+00 0. -1.
          6    1    1    2  501    0  0.90196050966E+02  0.14912502268E+03  0.40474523880E+03  0.47305000617E+03  0.17200000000E+03 0.  1.
         -6    1    1    2    0  502 -0.90196050966E+02 -0.14912502268E+03  0.43598324202E+03  0.50003898580E+03  0.17200000000E+03 0.  1.
</event>
<event>
 4    1  0.6129841E-001  0.1777083E+03  0.7818608E-02  0.1170040E+00
         21   -1    0    0  501  502  0.00000000000E+00  0.00000000000E+00  0.93356740066E+03  0.93356740066E+03  0.00000000000E+00 0. -1.
         21   -1    0    0  502  503 -0.00000000000E+00 -0.00000000000E+00 -0.47564101652E+02  0.47564101652E+02  0.00000000000E+00 0. -1.
          6    1    1    2  501    0 -0.33442768914E+02 -0.29628214198E+02  0.17937017976E+03  0.25249536878E+03  0.17200000000E+03 0.  1.
         -6    1    1    2    0  503  0.33442768914E+02  0.29628214198E+02  0.70663311924E+03  0.72863613352E+03  0.17200000000E+03 0.  1.
</event>
<event>
 4    1  0.6129841E-001  0.1829290E+03  0.7818608E-02  0.1164998E+00
         21   -1    0    0  501  502  0.00000000000E+00  0.00000000000E+00  0.29887848506E+03  0.29887848506E+03  0.00000000000E+00 0.  1.
         21   -1    0    0  502  503 -0.00000000000E+00 -0.00000000000E+00 -0.13537747034E+03  0.13537747034E+03  0.00000000000E+00 0.  1.
          6    1    1    2  501    0  0.25842931588E+02  0.56667061792E+02  0.17205194233E+03  0.25112722645E+03  0.17200000000E+03 0. -1.
         -6    1    1    2    0  503 -0.25842931588E+02 -0.56667061792E+02 -0.85509275992E+01  0.18312872895E+03  0.17200000000E+03 0. -1.
</event>
<event>
 4    1  0.6129841E-001  0.1766150E+03  0.7818608E-02  0.1171120E+00
         21   -1    0    0  501  502  0.00000000000E+00  0.00000000000E+00  0.29181150684E+02  0.29181150684E+02  0.00000000000E+00 0. -1.
         21   -1    0    0  502  503 -0.00000000000E+00 -0.00000000000E+00 -0.11575065432E+04  0.11575065432E+04  0.00000000000E+00 0. -1.
          6    1    1    2  501    0 -0.40050600131E+02 -0.21952543796E+01 -0.40003493662E+03  0.43728802891E+03  0.17200000000E+03 0. -1.
         -6    1    1    2    0  503  0.40050600131E+02  0.21952543796E+01 -0.72829045592E+03  0.74939966500E+03  0.17200000000E+03 0. -1.
</event>
<event>
 4    1  0.6129841E-001  0.1727306E+03  0.7818608E-02  0.1175030E+00
         21   -1    0    0  501  502  0.00000000000E+00  0.00000000000E+00  0.37323981884E+03  0.37323981884E+03  0.00000000000E+00 0. -1.
         21   -1    0    0  502  503 -0.00000000000E+00 -0.00000000000E+00 -0.81389983769E+02  0.81389983769E+02  0.00000000000E+00 0. -1.
          6    1    1    2  501    0  0.14406244579E+02 -0.66566403029E+01  0.17629185419E+03  0.24680897187E+03  0.17200000000E+03 0. -1.
         -6    1    1    2    0  503 -0.14406244579E+02  0.66566403029E+01  0.11555798088E+03  0.20782083074E+03  0.17200000000E+03 0. -1.
</event>
<event>
 4    1  0.6129841E-001  0.1842912E+03  0.7818608E-02  0.1163713E+00
         21   -1    0    0  501  502  0.00000000000E+00  0.00000000000E+00  0.48289209556E+03  0.48289209556E+03  0.00000000000E+00 0. -1.
         21   -1    0    0  502  503 -0.00000000000E+00 -0.00000000000E+00 -0.71726037445E+02  0.71726037445E+02  0.00000000000E+00 0. -1.
          6    1    1    2  501    0 -0.52416623758E+02 -0.40394661909E+02  0.24422978538E+03  0.30595983270E+03  0.17200000000E+03 0. -1.
         -6    1    1    2    0  503  0.52416623758E+02  0.40394661909E+02  0.16693627273E+03  0.24865830030E+03  0.17200000000E+03 0. -1.
</event>
<event>
 4    1  0.6129841E-001  0.1973020E+03  0.7818608E-02  0.1152036E+00
         21   -1    0    0  503  502  0.00000000000E+00  0.00000000000E+00  0.19676177883E+03  0.19676177883E+03  0.00000000000E+00 0.  1.
         21   -1    0    0  501  503 -0.00000000000E+00 -0.00000000000E+00 -0.22430061215E+03  0.22430061215E+03  0.00000000000E+00 0.  1.
          6    1    1    2  501    0  0.67558717705E+02 -0.69136718702E+02 -0.86074912874E+02  0.21526020728E+03  0.17200000000E+03 0. -1.
         -6    1    1    2    0  502 -0.67558717705E+02  0.69136718702E+02  0.58536079554E+02  0.20580218371E+03  0.17200000000E+03 0. -1.
</event>
<event>
 4    1  0.6129841E-001  0.1952689E+03  0.7818608E-02  0.1153793E+00
         21   -1    0    0  501  502  0.00000000000E+00  0.00000000000E+00  0.31124537244E+02  0.31124537244E+02  0.00000000000E+00 0.  1.
         21   -1    0    0  502  503 -0.00000000000E+00 -0.00000000000E+00 -0.12259980221E+04  0.12259980221E+04  0.00000000000E+00 0.  1.
          6    1    1    2  501    0  0.91885821329E+02  0.10145462040E+02 -0.61467091179E+03  0.64494206279E+03  0.17200000000E+03 0.  1.
         -6    1    1    2    0  503 -0.91885821329E+02 -0.10145462040E+02 -0.58020257305E+03  0.61218049654E+03  0.17200000000E+03 0.  1.
</event>
<event>
 4    1  0.6129841E-001  0.2938054E+03  0.7818608E-02  0.1088379E+00
         21   -1    0    0  501  502  0.00000000000E+00  0.00000000000E+00  0.44688256886E+03  0.44688256886E+03  0.00000000000E+00 0. -1.
         21   -1    0    0  502  503 -0.00000000000E+00 -0.00000000000E+00 -0.19415340754E+03  0.19415340754E+03  0.00000000000E+00 0.  1.
          6    1    1    2  501    0 -0.42833090579E+02 -0.23431371654E+03  0.14924604282E+03  0.32953903063E+03  0.17200000000E+03 0. -1.
         -6    1    1    2    0  503  0.42833090579E+02  0.23431371654E+03  0.10348311851E+03  0.31149694577E+03  0.17200000000E+03 0.  1.
</event>
<event>
 4    1  0.6129841E-001  0.1891017E+03  0.7818608E-02  0.1159274E+00
         21   -1    0    0  501  502  0.00000000000E+00  0.00000000000E+00  0.12408168573E+03  0.12408168573E+03  0.00000000000E+00 0.  1.
         21   -1    0    0  502  503 -0.00000000000E+00 -0.00000000000E+00 -0.30580898384E+03  0.30580898384E+03  0.00000000000E+00 0.  1.
          6    1    1    2  501    0  0.15833403432E+01  0.78568203657E+02 -0.39274695426E+02  0.19313718258E+03  0.17200000000E+03 0.  1.
         -6    1    1    2    0  503 -0.15833403432E+01 -0.78568203657E+02 -0.14245260268E+03  0.23675348699E+03  0.17200000000E+03 0.  1.
</event>
<event>
 4    1  0.6129841E-001  0.3051305E+03  0.7818608E-02  0.1082704E+00
         21   -1    0    0  503  502  0.00000000000E+00  0.00000000000E+00  0.79006747312E+03  0.79006747312E+03  0.00000000000E+00 0.  1.
         21   -1    0    0  501  503 -0.00000000000E+00 -0.00000000000E+00 -0.45669625238E+03  0.45669625238E+03  0.00000000000E+00 0. -1.
          6    1    1    2  501    0  0.37126711158E+02  0.24928346903E+03 -0.37027902533E+03  0.47980329013E+03  0.17200000000E+03 0. -1.
         -6    1    1    2    0  502 -0.37126711158E+02 -0.24928346903E+03  0.70365024607E+03  0.76696043537E+03  0.17200000000E+03 0. -1.
</event>
<event>
 4    1  0.6129841E-001  0.1799215E+03  0.7818608E-02  0.1167879E+00
         21   -1    0    0  503  502  0.00000000000E+00  0.00000000000E+00  0.10720751580E+03  0.10720751580E+03  0.00000000000E+00 0. -1.
         21   -1    0    0  501  503 -0.00000000000E+00 -0.00000000000E+00 -0.52819435810E+03  0.52819435810E+03  0.00000000000E+00 0. -1.
          6    1    1    2  501    0  0.73532152500E+01  0.52284598336E+02 -0.41841834925E+03  0.45546203353E+03  0.17200000000E+03 0. -1.
         -6    1    1    2    0  502 -0.73532152500E+01 -0.52284598336E+02 -0.25684930494E+01  0.17993984037E+03  0.17200000000E+03 0. -1.
</event>
<event>
 4    1  0.6129841E-001  0.2661848E+03  0.7818608E-02  0.1103483E+00
         21   -1    0    0  501  502  0.00000000000E+00  0.00000000000E+00  0.24093914961E+03  0.24093914961E+03  0.00000000000E+00 0. -1.
         21   -1    0    0  502  503 -0.00000000000E+00 -0.00000000000E+00 -0.39780820223E+03  0.39780820223E+03  0.00000000000E+00 0. -1.
          6    1    1    2  501    0  0.19539156668E+03 -0.55609898809E+02 -0.24152172948E+03  0.35942602993E+03  0.17200000000E+03 0. -1.
         -6    1    1    2    0  503 -0.19539156668E+03  0.55609898809E+02  0.84652676873E+02  0.27932132192E+03  0.17200000000E+03 0. -1.
</event>
<event>
 4    1  0.6129841E-001  0.1982000E+03  0.7818608E-02  0.1151267E+00
         21   -1    0    0  501  502  0.00000000000E+00  0.00000000000E+00  0.21624356773E+03  0.21624356773E+03  0.00000000000E+00 0.  1.
         21   -1    0    0  502  503 -0.00000000000E+00 -0.00000000000E+00 -0.50817802344E+03  0.50817802344E+03  0.00000000000E+00 0.  1.
          6    1    1    2  501    0 -0.58837031491E+02 -0.78977613730E+02  0.14437194544E+03  0.24520709283E+03  0.17200000000E+03 0.  1.
         -6    1    1    2    0  503  0.58837031491E+02  0.78977613730E+02 -0.43630640114E+03  0.47921449834E+03  0.17200000000E+03 0.  1.
</event>
<event>
 4    1  0.6129841E-001  0.1766152E+03  0.7818608E-02  0.1171120E+00
         21   -1    0    0  501  502  0.00000000000E+00  0.00000000000E+00  0.27034467600E+02  0.27034467600E+02  0.00000000000E+00 0.  1.
         21   -1    0    0  502  503 -0.00000000000E+00 -0.00000000000E+00 -0.11959256677E+04  0.11959256677E+04  0.00000000000E+00 0. -1.
          6    1    1    2  501    0  0.61180794909E+01  0.39642313105E+02 -0.69918007000E+03  0.72114195147E+03  0.17200000000E+03 0. -1.
         -6    1    1    2    0  503 -0.61180794909E+01 -0.39642313105E+02 -0.46971113014E+03  0.50181818387E+03  0.17200000000E+03 0.  1.
</event>
<event>
 4    1  0.6129841E-001  0.2357034E+03  0.7818608E-02  0.1122689E+00
         21   -1    0    0  503  502  0.00000000000E+00  0.00000000000E+00  0.19449154946E+03  0.19449154946E+03  0.00000000000E+00 0.  1.
         21   -1    0    0  501  503 -0.00000000000E+00 -0.00000000000E+00 -0.36046251161E+03  0.36046251161E+03  0.00000000000E+00 0.  1.
          6    1    1    2  501    0  0.98423371102E+02 -0.12761237770E+03 -0.20939813621E+03  0.31528345718E+03  0.17200000000E+03 0.  1.
         -6    1    1    2    0  502 -0.98423371102E+02  0.12761237770E+03  0.43427174067E+02  0.23967060389E+03  0.17200000000E+03 0.  1.
</event>
<event>
 4    1  0.6129841E-001  0.2102497E+03  0.7818608E-02  0.1141368E+00
         21   -1    0    0  501  502  0.00000000000E+00  0.00000000000E+00  0.75504006864E+02  0.75504006864E+02  0.00000000000E+00 0.  1.
         21   -1    0    0  502  503 -0.00000000000E+00 -0.00000000000E+00 -0.99648286641E+03  0.99648286641E+03  0.00000000000E+00 0.  1.
          6    1    1    2  501    0  0.11730335915E+03 -0.29340112115E+02 -0.11625434190E+03  0.24024985381E+03  0.17200000000E+03 0. -1.
         -6    1    1    2    0  503 -0.11730335915E+03  0.29340112115E+02 -0.80472451765E+03  0.83173701946E+03  0.17200000000E+03 0. -1.
</event>
<event>
 4    1  0.6129841E-001  0.2166846E+03  0.7818608E-02  0.1136379E+00
         21   -1    0    0  503  502  0.00000000000E+00  0.00000000000E+00  0.39602490451E+02  0.39602490451E+02  0.00000000000E+00 0. -1.
         21   -1    0    0  501  503 -0.00000000000E+00 -0.00000000000E+00 -0.13794798510E+04  0.13794798510E+04  0.00000000000E+00 0. -1.
          6    1    1    2  501    0  0.42287453144E+02 -0.12481983384E+03 -0.40392730883E+03  0.45837701778E+03  0.17200000000E+03 0. -1.
         -6    1    1    2    0  502 -0.42287453144E+02  0.12481983384E+03 -0.93595005173E+03  0.96070532368E+03  0.17200000000E+03 0. -1.
</event>
<event>
 4    1  0.6129841E-001  0.1833079E+03  0.7818608E-02  0.1164640E+00
         21   -1    0    0  503  502  0.00000000000E+00  0.00000000000E+00  0.36610297138E+02  0.36610297138E+02  0.00000000000E+00 0.  1.
         21   -1    0    0  501  503 -0.00000000000E+00 -0.00000000000E+00 -0.12751688950E+04  0.12751688950E+04  0.00000000000E+00 0.  1.
          6    1    1    2  501    0 -0.29601932883E+02 -0.56049193709E+02 -0.96648836492E+03  0.98371822494E+03  0.17200000000E+03 0.  1.
         -6    1    1    2    0  502  0.29601932883E+02  0.56049193709E+02 -0.27207023292E+03  0.32806096718E+03  0.17200000000E+03 0.  1.
</event>
<event>
 4    1  0.6129841E-001  0.2389636E+03  0.7818608E-02  0.1120485E+00
         21   -1    0    0  501  502  0.00000000000E+00  0.00000000000E+00  0.25246896703E+03  0.25246896703E+03  0.00000000000E+00 0.  1.
         21   -1    0    0  502  503 -0.00000000000E+00 -0.00000000000E+00 -0.42070273507E+03  0.42070273507E+03  0.00000000000E+00 0. -1.
          6    1    1    2  501    0  0.69682185855E+02  0.15054560293E+03  0.14475512823E+03  0.27938796098E+03  0.17200000000E+03 0.  1.
         -6    1    1    2    0  503 -0.69682185855E+02 -0.15054560293E+03 -0.31298889627E+03  0.39378374113E+03  0.17200000000E+03 0. -1.
</event>
<event>
 4    1  0.6129841E-001  0.1764627E+03  0.7818608E-02  0.1171271E+00
         21   -1    0    0  503  502  0.00000000000E+00  0.00000000000E+00  0.18086052522E+04  0.18086052522E+04  0.00000000000E+00 0. -1.
         21   -1    0    0  501  503 -0.00000000000E+00 -0.00000000000E+00 -0.22315519058E+02  0.22315519058E+02  0.00000000000E+00 0. -1.
          6    1    1    2  501    0 -0.24341182877E+02  0.31025836688E+02  0.45557228866E+03  0.48855419957E+03  0.17200000000E+03 0. -1.
         -6    1    1    2    0  502  0.24341182877E+02 -0.31025836688E+02  0.13307174445E+04  0.13423665717E+04  0.17200000000E+03 0. -1.
</event>
<event>
 4    1  0.6129841E-001  0.1986184E+03  0.7818608E-02  0.1150910E+00
         21   -1    0    0  503  502  0.00000000000E+00  0.00000000000E+00  0.16545874891E+03  0.16545874891E+03  0.00000000000E+00 0. -1.
         21   -1    0    0  501  503 -0.00000000000E+00 -0.00000000000E+00 -0.35435398358E+03  0.35435398358E+03  0.00000000000E+00 0.  1.
          6    1    1    2  501    0 -0.44732688362E+02  0.88680615130E+02 -0.24310858596E+03  0.31392841457E+03  0.17200000000E+03 0.  1.
         -6    1    1    2    0  502  0.44732688362E+02 -0.88680615130E+02  0.54213351294E+02  0.20588431792E+03  0.17200000000E+03 0. -1.
</event>
<event>
 4    1  0.6129841E-001  0.2335672E+03  0.7818608E-02  0.1124154E+00
         21   -1    0    0  503  502  0.00000000000E+00  0.00000000000E+00  0.11753783167E+03  0.11753783167E+03  0.00000000000E+00 0. -1.
         21   -1    0    0  501  503 -0.00000000000E+00 -0.00000000000E+00 -0.46523547310E+03  0.46523547310E+03  0.00000000000E+00 0. -1.
          6    1    1    2  501    0  0.78398146866E+02  0.13719821130E+03 -0.18800975143E+03  0.29983543028E+03  0.17200000000E+03 0. -1.
         -6    1    1    2    0  502 -0.78398146866E+02 -0.13719821130E+03 -0.15968788999E+03  0.28293787450E+03  0.17200000000E+03 0. -1.
</event>
<event>
 4    1  0.6129841E-001  0.1824384E+03  0.7818608E-02  0.1165464E+00
         21   -1    0    0  503  502  0.00000000000E+00  0.00000000000E+00  0.52626270180E+03  0.52626270180E+03  0.00000000000E+00 0.  1.
         21   -1    0    0  501  503 -0.00000000000E+00 -0.00000000000E+00 -0.79926979516E+02  0.79926979516E+02  0.00000000000E+00 0.  1.
          6    1    1    2  501    0 -0.29743407664E+02 -0.53057559062E+02  0.36163555351E+03  0.40504820508E+03  0.17200000000E+03 0.  1.
         -6    1    1    2    0  502  0.29743407664E+02  0.53057559062E+02  0.84700168773E+02  0.20114147624E+03  0.17200000000E+03 0.  1.
</event>
<event>
 4    1  0.6129841E-001  0.1866074E+03  0.7818608E-02  0.1161557E+00
         21   -1    0    0  501  502  0.00000000000E+00  0.00000000000E+00  0.29549774084E+03  0.29549774084E+03  0.00000000000E+00 0.  1.
         21   -1    0    0  502  503 -0.00000000000E+00 -0.00000000000E+00 -0.12838780806E+03  0.12838780806E+03  0.00000000000E+00 0.  1.
          6    1    1    2  501    0 -0.42400020191E+02  0.58656269474E+02  0.14429534561E+03  0.23588867380E+03  0.17200000000E+03 0.  1.
         -6    1    1    2    0  503  0.42400020191E+02 -0.58656269474E+02  0.22814587166E+02  0.18799687510E+03  0.17200000000E+03 0.  1.
</event>
<event>
 4    1  0.6129841E-001  0.3286927E+03  0.7818608E-02  0.1071717E+00
         21   -1    0    0  503  502  0.00000000000E+00  0.00000000000E+00  0.18748397507E+03  0.18748397507E+03  0.00000000000E+00 0. -1.
         21   -1    0    0  501  503 -0.00000000000E+00 -0.00000000000E+00 -0.10053450735E+04  0.10053450735E+04  0.00000000000E+00 0.  1.
          6    1    1    2  501    0 -0.21152482415E+03 -0.18360866248E+03 -0.19290113716E+02  0.32925825830E+03  0.17200000000E+03 0. -1.
         -6    1    1    2    0  502  0.21152482415E+03  0.18360866248E+03 -0.79857098473E+03  0.86357079028E+03  0.17200000000E+03 0.  1.
</event>
<event>
 4    1  0.6129841E-001  0.2165048E+03  0.7818608E-02  0.1136516E+00
         21   -1    0    0  501  502  0.00000000000E+00  0.00000000000E+00  0.22692848700E+03  0.22692848700E+03  0.00000000000E+00 0. -1.
         21   -1    0    0  502  503 -0.00000000000E+00 -0.00000000000E+00 -0.20772672141E+03  0.20772672141E+03  0.00000000000E+00 0. -1.
          6    1    1    2  501    0 -0.14573691073E+02 -0.13068255700E+03  0.25889074708E+02  0.21804716775E+03  0.17200000000E+03 0. -1.
         -6    1    1    2    0  503  0.14573691073E+02  0.13068255700E+03 -0.66873091152E+01  0.21660804066E+03  0.17200000000E+03 0. -1.
</event>
<event>
 4    1  0.6129841E-001  0.1746807E+03  0.7818608E-02  0.1173053E+00
         21   -1    0    0  503  502  0.00000000000E+00  0.00000000000E+00  0.15398605909E+03  0.15398605909E+03  0.00000000000E+00 0.  1.
         21   -1    0    0  501  503 -0.00000000000E+00 -0.00000000000E+00 -0.23728905352E+03  0.23728905352E+03  0.00000000000E+00 0.  1.
          6    1    1    2  501    0 -0.29669476761E+02  0.70059412199E+01 -0.12109925757E+03  0.21255209067E+03  0.17200000000E+03 0.  1.
         -6    1    1    2    0  502  0.29669476761E+02 -0.70059412199E+01  0.37796263151E+02  0.17872302194E+03  0.17200000000E+03 0.  1.
</event>
<event>
 4    1  0.6129841E-001  0.2027301E+03  0.7818608E-02  0.1147456E+00
         21   -1    0    0  503  502  0.00000000000E+00  0.00000000000E+00  0.10842705028E+03  0.10842705028E+03  0.00000000000E+00 0. -1.
         21   -1    0    0  501  503 -0.00000000000E+00 -0.00000000000E+00 -0.50499242768E+03  0.50499242768E+03  0.00000000000E+00 0.  1.
          6    1    1    2  501    0 -0.57365046554E+01 -0.10715691679E+03 -0.35145045002E+03  0.40573012104E+03  0.17200000000E+03 0.  1.
         -6    1    1    2    0  502  0.57365046554E+01  0.10715691679E+03 -0.45114927382E+02  0.20768935691E+03  0.17200000000E+03 0. -1.
</event>
<event>
 4    1  0.6129841E-001  0.1865609E+03  0.7818608E-02  0.1161600E+00
         21   -1    0    0  503  502  0.00000000000E+00  0.00000000000E+00  0.12527496228E+03  0.12527496228E+03  0.00000000000E+00 0. -1.
         21   -1    0    0  501  503 -0.00000000000E+00 -0.00000000000E+00 -0.39536300704E+03  0.39536300704E+03  0.00000000000E+00 0. -1.
          6    1    1    2  501    0  0.25991646984E+02  0.67419502978E+02 -0.27697935428E+03  0.33394987317E+03  0.17200000000E+03 0. -1.
         -6    1    1    2    0  502 -0.25991646984E+02 -0.67419502978E+02  0.68913095213E+01  0.18668809614E+03  0.17200000000E+03 0. -1.
</event>
<event>
 4    1  0.6129841E-001  0.1889075E+03  0.7818608E-02  0.1159450E+00
         21   -1    0    0  503  502  0.00000000000E+00  0.00000000000E+00  0.22565966111E+02  0.22565966111E+02  0.00000000000E+00 0. -1.
         21   -1    0    0  501  503 -0.00000000000E+00 -0.00000000000E+00 -0.15814766504E+04  0.15814766504E+04  0.00000000000E+00 0. -1.
          6    1    1    2  501    0  0.42614940049E+01  0.77999196786E+02 -0.78467826964E+03  0.80709728155E+03  0.17200000000E+03 0.  1.
         -6    1    1    2    0  502 -0.42614940049E+01 -0.77999196786E+02 -0.77423241461E+03  0.79694533493E+03  0.17200000000E+03 0.  1.
</event>
<event>
 4    1  0.6129841E-001  0.1823430E+03  0.7818608E-02  0.1165555E+00
         21   -1    0    0  501  502  0.00000000000E+00  0.00000000000E+00  0.15580742982E+04  0.15580742982E+04  0.00000000000E+00 0.  1.
         21   -1    0    0  502  503 -0.00000000000E+00 -0.00000000000E+00 -0.26730287785E+02  0.26730287785E+02  0.00000000000E+00 0. -1.
          6    1    1    2  501    0 -0.59974882623E+02  0.82440850023E+01  0.11215155045E+04  0.11362420421E+04  0.17200000000E+03 0.  1.
         -6    1    1    2    0  503  0.59974882623E+02 -0.82440850023E+01  0.40982850590E+03  0.44856254383E+03  0.17200000000E+03 0. -1.
</event>
<event>
 4    1  0.6129841E-001  0.1796027E+03  0.7818608E-02  0.1168188E+00
         21   -1    0    0  503  502  0.00000000000E+00  0.00000000000E+00  0.13041710545E+04  0.13041710545E+04  0.00000000000E+00 0. -1.
         21   -1    0    0  501  503 -0.00000000000E+00 -0.00000000000E+00 -0.25451934749E+02  0.25451934749E+02  0.00000000000E+00 0. -1.
          6    1    1    2  501    0 -0.47343738763E+02  0.20777491068E+02  0.75102908412E+03  0.77220581384E+03  0.17200000000E+03 0.  1.
         -6    1    1    2    0  502  0.47343738763E+02 -0.20777491068E+02  0.52769003563E+03  0.55741717540E+03  0.17200000000E+03 0.  1.
</event>
<event>
 4    1  0.6129841E-001  0.1961319E+03  0.7818608E-02  0.1153044E+00
         21   -1    0    0  503  502  0.00000000000E+00  0.00000000000E+00  0.24732635979E+03  0.24732635979E+03  0.00000000000E+00 0. -1.
         21   -1    0    0  501  503 -0.00000000000E+00 -0.00000000000E+00 -0.15910875806E+03  0.15910875806E+03  0.00000000000E+00 0. -1.
          6    1    1    2  501    0 -0.93260140308E+02  0.13647612639E+02  0.13649180754E+02  0.19660623397E+03  0.17200000000E+03 0. -1.
         -6    1    1    2    0  502  0.93260140308E+02 -0.13647612639E+02  0.74568420975E+02  0.20982888387E+03  0.17200000000E+03 0. -1.
</event>
<event>
 4    1  0.6129841E-001  0.2064398E+03  0.7818608E-02  0.1144417E+00
         21   -1    0    0  503  502  0.00000000000E+00  0.00000000000E+00  0.12741955305E+03  0.12741955305E+03  0.00000000000E+00 0.  1.
         21   -1    0    0  501  503 -0.00000000000E+00 -0.00000000000E+00 -0.65257298813E+03  0.65257298813E+03  0.00000000000E+00 0. -1.
          6    1    1    2  501    0  0.77937511192E+02 -0.83421427910E+02 -0.53486762807E+03  0.57332431471E+03  0.17200000000E+03 0. -1.
         -6    1    1    2    0  502 -0.77937511192E+02  0.83421427910E+02  0.97141929895E+01  0.20666822647E+03  0.17200000000E+03 0.  1.
</event>
<event>
 4    1  0.6129841E-001  0.3127204E+03  0.7818608E-02  0.1079049E+00
         21   -1    0    0  503  502  0.00000000000E+00  0.00000000000E+00  0.13041339341E+03  0.13041339341E+03  0.00000000000E+00 0. -1.
         21   -1    0    0  501  503 -0.00000000000E+00 -0.00000000000E+00 -0.75517431862E+03  0.75517431862E+03  0.00000000000E+00 0.  1.
          6    1    1    2  501    0 -0.25239765763E+03 -0.67122807152E+02 -0.34946492665E+03  0.46895605741E+03  0.17200000000E+03 0.  1.
         -6    1    1    2    0  502  0.25239765763E+03  0.67122807152E+02 -0.27529599855E+03  0.41663165463E+03  0.17200000000E+03 0. -1.
</event>
<event>
 4    1  0.6129841E-001  0.1829297E+03  0.7818608E-02  0.1164997E+00
         21   -1    0    0  501  502  0.00000000000E+00  0.00000000000E+00  0.15686241441E+03  0.15686241441E+03  0.00000000000E+00 0. -1.
         21   -1    0    0  502  503 -0.00000000000E+00 -0.00000000000E+00 -0.30981753871E+03  0.30981753871E+03  0.00000000000E+00 0. -1.
          6    1    1    2  501    0  0.37229972882E+02 -0.49932101520E+02  0.53741405938E+02  0.19066049500E+03  0.17200000000E+03 0. -1.
         -6    1    1    2    0  503 -0.37229972882E+02  0.49932101520E+02 -0.20669653024E+03  0.27601945811E+03  0.17200000000E+03 0. -1.
</event>
<event>
 4    1  0.6129841E-001  0.2037269E+03  0.7818608E-02  0.1146632E+00
         21   -1    0    0  501  502  0.00000000000E+00  0.00000000000E+00  0.46615847213E+02  0.46615847213E+02  0.00000000000E+00 0.  1.
         21   -1    0    0  502  503 -0.00000000000E+00 -0.00000000000E+00 -0.89053210515E+03  0.89053210515E+03  0.00000000000E+00 0.  1.
          6    1    1    2  501    0  0.27323613672E+02  0.10570744934E+03 -0.42856928792E+03  0.47452742730E+03  0.17200000000E+03 0.  1.
         -6    1    1    2    0  503 -0.27323613672E+02 -0.10570744934E+03 -0.41534697002E+03  0.46262052506E+03  0.17200000000E+03 0.  1.
</event>
<event>
 4    1  0.6129841E-001  0.2407016E+03  0.7818608E-02  0.1119326E+00
         21   -1    0    0  501  502  0.00000000000E+00  0.00000000000E+00  0.20211112764E+03  0.20211112764E+03  0.00000000000E+00 0. -1.
         21   -1    0    0  502  503 -0.00000000000E+00 -0.00000000000E+00 -0.32369512615E+03  0.32369512615E+03  0.00000000000E+00 0.  1.
          6    1    1    2  501    0  0.80524379436E+02  0.14788201794E+03 -0.14971865162E+03  0.28346594426E+03  0.17200000000E+03 0.  1.
         -6    1    1    2    0  503 -0.80524379436E+02 -0.14788201794E+03  0.28134653112E+02  0.24234030952E+03  0.17200000000E+03 0.  1.
</event>
<event>
 4    1  0.6129841E-001  0.5759670E+03  0.7818608E-02  0.9956561E-01
         21   -1    0    0  503  502  0.00000000000E+00  0.00000000000E+00  0.73123721914E+03  0.73123721914E+03  0.00000000000E+00 0.  1.
         21   -1    0    0  501  503 -0.00000000000E+00 -0.00000000000E+00 -0.52732508659E+03  0.52732508659E+03  0.00000000000E+00 0. -1.
          6    1    1    2  501    0  0.53324997436E+03  0.13341081103E+03  0.33714484401E+03  0.66738641392E+03  0.17200000000E+03 0.  1.
         -6    1    1    2    0  502 -0.53324997436E+03 -0.13341081103E+03 -0.13323271146E+03  0.59117589181E+03  0.17200000000E+03 0.  1.
</event>
<event>
 4    1  0.6129841E-001  0.1894129E+03  0.7818608E-02  0.1158992E+00
         21   -1    0    0  503  502  0.00000000000E+00  0.00000000000E+00  0.20980991220E+02  0.20980991220E+02  0.00000000000E+00 0.  1.
         21   -1    0    0  501  503 -0.00000000000E+00 -0.00000000000E+00 -0.17827301605E+04  0.17827301605E+04  0.00000000000E+00 0. -1.
          6    1    1    2  501    0  0.72494892178E+02  0.32213814959E+02 -0.10630491946E+04  0.10797920307E+04  0.17200000000E+03 0. -1.
         -6    1    1    2    0  502 -0.72494892178E+02 -0.32213814959E+02 -0.69869997466E+03  0.72391912107E+03  0.17200000000E+03 0.  1.
</event>
<event>
 4    1  0.6129841E-001  0.1921028E+03  0.7818608E-02  0.1156578E+00
         21   -1    0    0  503  502  0.00000000000E+00  0.00000000000E+00  0.75884904794E+02  0.75884904794E+02  0.00000000000E+00 0. -1.
         21   -1    0    0  501  503 -0.00000000000E+00 -0.00000000000E+00 -0.52183968289E+03  0.52183968289E+03  0.00000000000E+00 0. -1.
          6    1    1    2  501    0  0.83721509402E+02  0.17612751159E+02 -0.30096135545E+03  0.35704514787E+03  0.17200000000E+03 0.  1.
         -6    1    1    2    0  502 -0.83721509402E+02 -0.17612751159E+02 -0.14499342264E+03  0.24067943981E+03  0.17200000000E+03 0.  1.
</event>
<event>
 4    1  0.6129841E-001  0.2197929E+03  0.7818608E-02  0.1134038E+00
         21   -1    0    0  501  502  0.00000000000E+00  0.00000000000E+00  0.61930986968E+03  0.61930986968E+03  0.00000000000E+00 0. -1.
         21   -1    0    0  502  503 -0.00000000000E+00 -0.00000000000E+00 -0.78334720968E+02  0.78334720968E+02  0.00000000000E+00 0. -1.
          6    1    1    2  501    0 -0.90218030176E+02  0.10288652079E+03  0.29313707921E+03  0.36638542047E+03  0.17200000000E+03 0. -1.
         -6    1    1    2    0  503  0.90218030176E+02 -0.10288652079E+03  0.24783806951E+03  0.33125917018E+03  0.17200000000E+03 0. -1.
</event>
<event>
 4    1  0.6129841E-001  0.2343718E+03  0.7818608E-02  0.1123600E+00
         21   -1    0    0  501  502  0.00000000000E+00  0.00000000000E+00  0.18152505937E+03  0.18152505937E+03  0.00000000000E+00 0. -1.
         21   -1    0    0  502  503 -0.00000000000E+00 -0.00000000000E+00 -0.68219250380E+03  0.68219250380E+03  0.00000000000E+00 0. -1.
          6    1    1    2  501    0  0.15014822199E+03  0.52930472081E+02  0.71806592757E+02  0.24512509093E+03  0.17200000000E+03 0. -1.
         -6    1    1    2    0  503 -0.15014822199E+03 -0.52930472081E+02 -0.57247403719E+03  0.61859247223E+03  0.17200000000E+03 0. -1.
</event>
<event>
 4    1  0.6129841E-001  0.1888948E+03  0.7818608E-02  0.1159462E+00
         21   -1    0    0  503  502  0.00000000000E+00  0.00000000000E+00  0.23826535553E+03  0.23826535553E+03  0.00000000000E+00 0.  1.
         21   -1    0    0  501  503 -0.00000000000E+00 -0.00000000000E+00 -0.21306320116E+03  0.21306320116E+03  0.00000000000E+00 0.  1.
          6    1    1    2  501    0  0.47114672185E+02 -0.62269051551E+02 -0.11040922262E+03  0.21879539199E+03  0.17200000000E+03 0.  1.
         -6    1    1    2    0  502 -0.47114672185E+02  0.62269051551E+02  0.13561137699E+03  0.23253316470E+03  0.17200000000E+03 0.  1.
</event>
<event>
 4    1  0.6129841E-001  0.1895372E+03  0.7818608E-02  0.1158879E+00
         21   -1    0    0  503  502  0.00000000000E+00  0.00000000000E+00  0.11088916909E+03  0.11088916909E+03  0.00000000000E+00 0. -1.
         21   -1    0    0  501  503 -0.00000000000E+00 -0.00000000000E+00 -0.32396782101E+03  0.32396782101E+03  0.00000000000E+00 0. -1.
          6    1    1    2  501    0  0.64040253925E+02 -0.47320100887E+02 -0.10605750427E+03  0.21719240383E+03  0.17200000000E+03 0. -1.
         -6    1    1    2    0  502 -0.64040253925E+02  0.47320100887E+02 -0.10702114765E+03  0.21766458627E+03  0.17200000000E+03 0. -1.
</event>
<event>
 4    1  0.6129841E-001  0.1730998E+03  0.7818608E-02  0.1174653E+00
         21   -1    0    0  503  502  0.00000000000E+00  0.00000000000E+00  0.59705226064E+02  0.59705226064E+02  0.00000000000E+00 0. -1.
         21   -1    0    0  501  503 -0.00000000000E+00 -0.00000000000E+00 -0.98614530623E+03  0.98614530623E+03  0.00000000000E+00 0. -1.
          6    1    1    2  501    0 -0.17632017607E+01  0.19401815146E+02 -0.82967513007E+03  0.84754018240E+03  0.17200000000E+03 0. -1.
         -6    1    1    2    0  502  0.17632017607E+01 -0.19401815146E+02 -0.96764950096E+02  0.19831034990E+03  0.17200000000E+03 0. -1.
</event>
<event>
 4    1  0.6129841E-001  0.1868568E+03  0.7818608E-02  0.1161327E+00
         21   -1    0    0  503  502  0.00000000000E+00  0.00000000000E+00  0.13646232674E+03  0.13646232674E+03  0.00000000000E+00 0. -1.
         21   -1    0    0  501  503 -0.00000000000E+00 -0.00000000000E+00 -0.29994069989E+03  0.29994069989E+03  0.00000000000E+00 0. -1.
          6    1    1    2  501    0 -0.45649579090E+02  0.56987477958E+02 -0.16538743852E+03  0.24953649340E+03  0.17200000000E+03 0. -1.
         -6    1    1    2    0  502  0.45649579090E+02 -0.56987477958E+02  0.19090653745E+01  0.18686653324E+03  0.17200000000E+03 0. -1.
</event>
<event>
 4    1  0.6129841E-001  0.2115144E+03  0.7818608E-02  0.1140372E+00
         21   -1    0    0  501  502  0.00000000000E+00  0.00000000000E+00  0.62502007886E+03  0.62502007886E+03  0.00000000000E+00 0. -1.
         21   -1    0    0  502  503 -0.00000000000E+00 -0.00000000000E+00 -0.71792573916E+02  0.71792573916E+02  0.00000000000E+00 0. -1.
          6    1    1    2  501    0  0.11365407094E+03  0.47298060775E+02  0.25761383279E+03  0.33332152831E+03  0.17200000000E+03 0. -1.
         -6    1    1    2    0  503 -0.11365407094E+03 -0.47298060775E+02  0.29561367215E+03  0.36349112446E+03  0.17200000000E+03 0. -1.
</event>
<event>
 4    1  0.6129841E-001  0.2620289E+03  0.7818608E-02  0.1105930E+00
         21   -1    0    0  503  502  0.00000000000E+00  0.00000000000E+00  0.38347113000E+02  0.38347113000E+02  0.00000000000E+00 0. -1.
         21   -1    0    0  501  503 -0.00000000000E+00 -0.00000000000E+00 -0.17958255621E+04  0.17958255621E+04  0.00000000000E+00 0. -1.
          6    1    1    2  501    0 -0.18599629234E+03  0.66936743506E+02 -0.92884634641E+03  0.96509827668E+03  0.17200000000E+03 0. -1.
         -6    1    1    2    0  502  0.18599629234E+03 -0.66936743506E+02 -0.82863210269E+03  0.86907439843E+03  0.17200000000E+03 0. -1.
</event>
<event>
 4    1  0.6129841E-001  0.1986826E+03  0.7818608E-02  0.1150855E+00
         21   -1    0    0  503  502  0.00000000000E+00  0.00000000000E+00  0.10335969249E+03  0.10335969249E+03  0.00000000000E+00 0. -1.
         21   -1    0    0  501  503 -0.00000000000E+00 -0.00000000000E+00 -0.42305863576E+03  0.42305863576E+03  0.00000000000E+00 0. -1.
          6    1    1    2  501    0 -0.30525579978E+02 -0.94651751468E+02 -0.77768121219E+02  0.21336036597E+03  0.17200000000E+03 0.  1.
         -6    1    1    2    0  502  0.30525579978E+02  0.94651751468E+02 -0.24193082205E+03  0.31305796228E+03  0.17200000000E+03 0.  1.
</event>
<event>
 4    1  0.6129841E-001  0.1895942E+03  0.7818608E-02  0.1158828E+00
         21   -1    0    0  503  502  0.00000000000E+00  0.00000000000E+00  0.83698017949E+02  0.83698017949E+02  0.00000000000E+00 0.  1.
         21   -1    0    0  501  503 -0.00000000000E+00 -0.00000000000E+00 -0.42947841706E+03  0.42947841706E+03  0.00000000000E+00 0.  1.
          6    1    1    2  501    0  0.23246694992E+02 -0.76299133229E+02 -0.17190895424E+03  0.25592705036E+03  0.17200000000E+03 0.  1.
         -6    1    1    2    0  502 -0.23246694992E+02  0.76299133229E+02 -0.17387144488E+03  0.25724938465E+03  0.17200000000E+03 0.  1.
</event>
<event>
 4    1  0.6129841E-001  0.1802287E+03  0.7818608E-02  0.1167582E+00
         21   -1    0    0  501  502  0.00000000000E+00  0.00000000000E+00  0.31249389344E+03  0.31249389344E+03  0.00000000000E+00 0.  1.
         21   -1    0    0  502  503 -0.00000000000E+00 -0.00000000000E+00 -0.12577123794E+03  0.12577123794E+03  0.00000000000E+00 0.  1.
          6    1    1    2  501    0 -0.53516471277E+02  0.58619227917E+01  0.18464632859E+03  0.25802449787E+03  0.17200000000E+03 0.  1.
         -6    1    1    2    0  503  0.53516471277E+02 -0.58619227917E+01  0.20763269125E+01  0.18024063352E+03  0.17200000000E+03 0.  1.
</event>
<event>
 4    1  0.6129841E-001  0.1772177E+03  0.7818608E-02  0.1170523E+00
         21   -1    0    0  503  502  0.00000000000E+00  0.00000000000E+00  0.50392774918E+03  0.50392774918E+03  0.00000000000E+00 0.  1.
         21   -1    0    0  501  503 -0.00000000000E+00 -0.00000000000E+00 -0.24026001101E+03  0.24026001101E+03  0.00000000000E+00 0.  1.
          6    1    1    2  501    0  0.15240982585E+02  0.39872635631E+02 -0.18838384202E+03  0.25863987813E+03  0.17200000000E+03 0.  1.
         -6    1    1    2    0  502 -0.15240982585E+02 -0.39872635631E+02  0.45205158019E+03  0.48554788207E+03  0.17200000000E+03 0.  1.
</event>
<event>
 4    1  0.6129841E-001  0.1748495E+03  0.7818608E-02  0.1172883E+00
         21   -1    0    0  501  502  0.00000000000E+00  0.00000000000E+00  0.10678673128E+03  0.10678673128E+03  0.00000000000E+00 0. -1.
         21   -1    0    0  502  503 -0.00000000000E+00 -0.00000000000E+00 -0.30985765736E+03  0.30985765736E+03  0.00000000000E+00 0. -1.
          6    1    1    2  501    0 -0.26785890829E+02 -0.16458360520E+02 -0.44086905530E+02  0.18032198096E+03  0.17200000000E+03 0. -1.
         -6    1    1    2    0  503  0.26785890829E+02  0.16458360520E+02 -0.15898402055E+03  0.23632240767E+03  0.17200000000E+03 0. -1.
</event>
<event>
 4    1  0.6129841E-001  0.1777298E+03  0.7818608E-02  0.1170018E+00
         21   -1    0    0  503  502  0.00000000000E+00  0.00000000000E+00  0.58063030801E+03  0.58063030801E+03  0.00000000000E+00 0. -1.
         21   -1    0    0  501  503 -0.00000000000E+00 -0.00000000000E+00 -0.57025074770E+02  0.57025074770E+02  0.00000000000E+00 0. -1.
          6    1    1    2  501    0 -0.16574562650E+02  0.41583263601E+02  0.19343246193E+03  0.26268612690E+03  0.17200000000E+03 0. -1.
         -6    1    1    2    0  502  0.16574562650E+02 -0.41583263601E+02  0.33017277130E+03  0.37496925587E+03  0.17200000000E+03 0. -1.
</event>
<event>
 4    1  0.6129841E-001  0.4770109E+03  0.7818608E-02  0.1019960E+00
         21   -1    0    0  501  502  0.00000000000E+00  0.00000000000E+00  0.10184977263E+03  0.10184977263E+03  0.00000000000E+00 0.  1.
         21   -1    0    0  502  503 -0.00000000000E+00 -0.00000000000E+00 -0.30891021899E+04  0.30891021899E+04  0.00000000000E+00 0. -1.
          6    1    1    2  501    0 -0.25123011011E+03 -0.36720410837E+03 -0.23330197151E+04  0.23812854546E+04  0.17200000000E+03 0. -1.
         -6    1    1    2    0  503  0.25123011011E+03  0.36720410837E+03 -0.65423270222E+03  0.80966650794E+03  0.17200000000E+03 0. -1.
</event>
<event>
 4    1  0.6129841E-001  0.1743476E+03  0.7818608E-02  0.1173388E+00
         21   -1    0    0  503  502  0.00000000000E+00  0.00000000000E+00  0.10111410928E+04  0.10111410928E+04  0.00000000000E+00 0.  1.
         21   -1    0    0  501  503 -0.00000000000E+00 -0.00000000000E+00 -0.32702855817E+02  0.32702855817E+02  0.00000000000E+00 0.  1.
          6    1    1    2  501    0 -0.19875649484E+02 -0.20446255015E+02  0.34090875952E+03  0.38290452217E+03  0.17200000000E+03 0. -1.
         -6    1    1    2    0  502  0.19875649484E+02  0.20446255015E+02  0.63752947743E+03  0.66093942640E+03  0.17200000000E+03 0. -1.
</event>
<event>
 4    1  0.6129841E-001  0.2775691E+03  0.7818608E-02  0.1097024E+00
         21   -1    0    0  503  502  0.00000000000E+00  0.00000000000E+00  0.10763282292E+04  0.10763282292E+04  0.00000000000E+00 0. -1.
         21   -1    0    0  501  503 -0.00000000000E+00 -0.00000000000E+00 -0.10001242302E+03  0.10001242302E+03  0.00000000000E+00 0. -1.
          6    1    1    2  501    0 -0.17941104825E+03  0.12358102391E+03  0.17455805736E+03  0.32789496656E+03  0.17200000000E+03 0. -1.
         -6    1    1    2    0  502  0.17941104825E+03 -0.12358102391E+03  0.80175774880E+03  0.84844568564E+03  0.17200000000E+03 0. -1.
</event>
<event>
 4    1  0.6129841E-001  0.2072971E+03  0.7818608E-02  0.1143724E+00
         21   -1    0    0  501  502  0.00000000000E+00  0.00000000000E+00  0.10748083160E+03  0.10748083160E+03  0.00000000000E+00 0. -1.
         21   -1    0    0  502  503 -0.00000000000E+00 -0.00000000000E+00 -0.43132370184E+03  0.43132370184E+03  0.00000000000E+00 0. -1.
          6    1    1    2  501    0  0.91248721529E+02  0.71146092921E+02 -0.89103649172E+02  0.22563589257E+03  0.17200000000E+03 0. -1.
         -6    1    1    2    0  503 -0.91248721529E+02 -0.71146092921E+02 -0.23473922107E+03  0.31316864087E+03  0.17200000000E+03 0. -1.
</event>
<event>
 4    1  0.6129841E-001  0.1778537E+03  0.7818608E-02  0.1169897E+00
         21   -1    0    0  501  502  0.00000000000E+00  0.00000000000E+00  0.66197233049E+02  0.66197233049E+02  0.00000000000E+00 0. -1.
         21   -1    0    0  502  503 -0.00000000000E+00 -0.00000000000E+00 -0.48028100884E+03  0.48028100884E+03  0.00000000000E+00 0. -1.
          6    1    1    2  501    0  0.28865252580E+02 -0.34852906425E+02 -0.18757689157E+03  0.25848988015E+03  0.17200000000E+03 0. -1.
         -6    1    1    2    0  503 -0.28865252580E+02  0.34852906425E+02 -0.22650688423E+03  0.28798836173E+03  0.17200000000E+03 0. -1.
</event>
<event>
 4    1  0.6129841E-001  0.2368321E+03  0.7818608E-02  0.1121921E+00
         21   -1    0    0  503  502  0.00000000000E+00  0.00000000000E+00  0.73415803267E+02  0.73415803267E+02  0.00000000000E+00 0.  1.
         21   -1    0    0  501  503 -0.00000000000E+00 -0.00000000000E+00 -0.85064322950E+03  0.85064322950E+03  0.00000000000E+00 0. -1.
          6    1    1    2  501    0  0.58388602931E+02 -0.15197437869E+03 -0.24115471983E+03  0.33800153790E+03  0.17200000000E+03 0. -1.
         -6    1    1    2    0  502 -0.58388602931E+02  0.15197437869E+03 -0.53607270641E+03  0.58605749486E+03  0.17200000000E+03 0.  1.
</event>
<event>
 4    1  0.6129841E-001  0.1797054E+03  0.7818608E-02  0.1168088E+00
         21   -1    0    0  503  502  0.00000000000E+00  0.00000000000E+00  0.65738432379E+02  0.65738432379E+02  0.00000000000E+00 0. -1.
         21   -1    0    0  501  503 -0.00000000000E+00 -0.00000000000E+00 -0.54729920173E+03  0.54729920173E+03  0.00000000000E+00 0. -1.
          6    1    1    2  501    0 -0.32007772859E+01 -0.51959400501E+02 -0.33887119172E+03  0.38357229939E+03  0.17200000000E+03 0. -1.
         -6    1    1    2    0  502  0.32007772859E+01  0.51959400501E+02 -0.14268957762E+03  0.22946533472E+03  0.17200000000E+03 0. -1.
</event>
<event>
 4    1  0.6129841E-001  0.1747573E+03  0.7818608E-02  0.1172976E+00
         21   -1    0    0  501  502  0.00000000000E+00  0.00000000000E+00  0.44271207661E+02  0.44271207661E+02  0.00000000000E+00 0. -1.
         21   -1    0    0  502  503 -0.00000000000E+00 -0.00000000000E+00 -0.73528622770E+03  0.73528622770E+03  0.00000000000E+00 0. -1.
          6    1    1    2  501    0 -0.27680328328E+02 -0.13780734449E+02 -0.24860558073E+03  0.30388294455E+03  0.17200000000E+03 0.  1.
         -6    1    1    2    0  503  0.27680328328E+02  0.13780734449E+02 -0.44240943931E+03  0.47567449081E+03  0.17200000000E+03 0.  1.
</event>
<event>
 4    1  0.6129841E-001  0.1775146E+03  0.7818608E-02  0.1170230E+00
         21   -1    0    0  501  502  0.00000000000E+00  0.00000000000E+00  0.67707585237E+02  0.67707585237E+02  0.00000000000E+00 0. -1.
         21   -1    0    0  502  503 -0.00000000000E+00 -0.00000000000E+00 -0.85382269662E+03  0.85382269662E+03  0.00000000000E+00 0. -1.
          6    1    1    2  501    0  0.10581528162E+02  0.42608388690E+02 -0.82283099874E+02  0.19565774212E+03  0.17200000000E+03 0. -1.
         -6    1    1    2    0  503 -0.10581528162E+02 -0.42608388690E+02 -0.70383201151E+03  0.72587253974E+03  0.17200000000E+03 0. -1.
</event>
<event>
 4    1  0.6129841E-001  0.1994287E+03  0.7818608E-02  0.1150222E+00
         21   -1    0    0  503  502  0.00000000000E+00  0.00000000000E+00  0.45163941924E+02  0.45163941924E+02  0.00000000000E+00 0.  1.
         21   -1    0    0  501  503 -0.00000000000E+00 -0.00000000000E+00 -0.17659802609E+04  0.17659802609E+04  0.00000000000E+00 0.  1.
          6    1    1    2  501    0 -0.19253585959E+02 -0.99081301355E+02 -0.15016068893E+04  0.15147920830E+04  0.17200000000E+03 0.  1.
         -6    1    1    2    0  502  0.19253585959E+02  0.99081301355E+02 -0.21920942974E+03  0.29635211984E+03  0.17200000000E+03 0.  1.
</event>
<event>
 4    1  0.6129841E-001  0.2432778E+03  0.7818608E-02  0.1117628E+00
         21   -1    0    0  503  502  0.00000000000E+00  0.00000000000E+00  0.50020811344E+02  0.50020811344E+02  0.00000000000E+00 0. -1.
         21   -1    0    0  501  503 -0.00000000000E+00 -0.00000000000E+00 -0.12750546513E+04  0.12750546513E+04  0.00000000000E+00 0.  1.
          6    1    1    2  501    0 -0.17172767484E+03  0.10472996853E+02 -0.79035411360E+03  0.82694842817E+03  0.17200000000E+03 0.  1.
         -6    1    1    2    0  502  0.17172767484E+03 -0.10472996853E+02 -0.43467972637E+03  0.49812703449E+03  0.17200000000E+03 0.  1.
</event>
<event>
 4    1  0.6129841E-001  0.1914895E+03  0.7818608E-02  0.1157125E+00
         21   -1    0    0  503  502  0.00000000000E+00  0.00000000000E+00  0.35462941412E+03  0.35462941412E+03  0.00000000000E+00 0.  1.
         21   -1    0    0  501  503 -0.00000000000E+00 -0.00000000000E+00 -0.31195132964E+03  0.31195132964E+03  0.00000000000E+00 0.  1.
          6    1    1    2  501    0 -0.27577289300E+02 -0.79521770866E+02 -0.25117393396E+03  0.31584262541E+03  0.17200000000E+03 0.  1.
         -6    1    1    2    0  502  0.27577289300E+02  0.79521770866E+02  0.29385201844E+03  0.35073811835E+03  0.17200000000E+03 0.  1.
</event>
<event>
 4    1  0.6129841E-001  0.1807806E+03  0.7818608E-02  0.1167050E+00
         21   -1    0    0  501  502  0.00000000000E+00  0.00000000000E+00  0.34192557121E+02  0.34192557121E+02  0.00000000000E+00 0. -1.
         21   -1    0    0  502  503 -0.00000000000E+00 -0.00000000000E+00 -0.10082411501E+04  0.10082411501E+04  0.00000000000E+00 0.  1.
          6    1    1    2  501    0  0.17178263591E+02 -0.52938925383E+02 -0.60588183979E+03  0.63227717526E+03  0.17200000000E+03 0.  1.
         -6    1    1    2    0  503 -0.17178263591E+02  0.52938925383E+02 -0.36816675318E+03  0.41015653196E+03  0.17200000000E+03 0. -1.
</event>
<event>
 4    1  0.6129841E-001  0.2384336E+03  0.7818608E-02  0.1120841E+00
         21   -1    0    0  501  502  0.00000000000E+00  0.00000000000E+00  0.10774909535E+04  0.10774909535E+04  0.00000000000E+00 0.  1.
         21   -1    0    0  502  503 -0.00000000000E+00 -0.00000000000E+00 -0.97158269116E+02  0.97158269116E+02  0.00000000000E+00 0. -1.
          6    1    1    2  501    0  0.15034975065E+03 -0.68275333097E+02  0.93147065236E+02  0.25598231266E+03  0.17200000000E+03 0. -1.
         -6    1    1    2    0  503 -0.15034975065E+03  0.68275333097E+02  0.88718561912E+03  0.91866690993E+03  0.17200000000E+03 0.  1.
</event>
<event>
 4    1  0.6129841E-001  0.1958379E+03  0.7818608E-02  0.1153299E+00
         21   -1    0    0  503  502  0.00000000000E+00  0.00000000000E+00  0.44245428059E+03  0.44245428059E+03  0.00000000000E+00 0.  1.
         21   -1    0    0  501  503 -0.00000000000E+00 -0.00000000000E+00 -0.87424243651E+02  0.87424243651E+02  0.00000000000E+00 0.  1.
          6    1    1    2  501    0 -0.27672606651E+02 -0.89457882459E+02  0.20193952045E+03  0.28130420511E+03  0.17200000000E+03 0.  1.
         -6    1    1    2    0  502  0.27672606651E+02  0.89457882459E+02  0.15309051649E+03  0.24857431913E+03  0.17200000000E+03 0.  1.
</event>
<event>
 4    1  0.6129841E-001  0.1844722E+03  0.7818608E-02  0.1163544E+00
         21   -1    0    0  501  502  0.00000000000E+00  0.00000000000E+00  0.10346497736E+03  0.10346497736E+03  0.00000000000E+00 0. -1.
         21   -1    0    0  502  503 -0.00000000000E+00 -0.00000000000E+00 -0.58597761783E+03  0.58597761783E+03  0.00000000000E+00 0.  1.
          6    1    1    2  501    0  0.14489511424E+02  0.65085012420E+02 -0.12929628437E+02  0.18492479573E+03  0.17200000000E+03 0. -1.
         -6    1    1    2    0  503 -0.14489511424E+02 -0.65085012420E+02 -0.46958301203E+03  0.50451779946E+03  0.17200000000E+03 0.  1.
</event>
<event>
 4    1  0.6129841E-001  0.2348602E+03  0.7818608E-02  0.1123265E+00
         21   -1    0    0  503  502  0.00000000000E+00  0.00000000000E+00  0.19066682330E+04  0.19066682330E+04  0.00000000000E+00 0.  1.
         21   -1    0    0  501  503 -0.00000000000E+00 -0.00000000000E+00 -0.30468073563E+02  0.30468073563E+02  0.00000000000E+00 0. -1.
          6    1    1    2  501    0  0.19508260198E+02 -0.15872847757E+03  0.11557414330E+04  0.11793632018E+04  0.17200000000E+03 0.  1.
         -6    1    1    2    0  502 -0.19508260198E+02  0.15872847757E+03  0.72045872647E+03  0.75777310479E+03  0.17200000000E+03 0. -1.
</event>
<event>
 4    1  0.6129841E-001  0.1766755E+03  0.7818608E-02  0.1171060E+00
         21   -1    0    0  503  502  0.00000000000E+00  0.00000000000E+00  0.59058211377E+02  0.59058211377E+02  0.00000000000E+00 0.  1.
         21   -1    0    0  501  503 -0.00000000000E+00 -0.00000000000E+00 -0.56895298564E+03  0.56895298564E+03  0.00000000000E+00 0.  1.
          6    1    1    2  501    0  0.40223291499E+02 -0.35076204570E+01 -0.17125286956E+03  0.24605235604E+03  0.17200000000E+03 0.  1.
         -6    1    1    2    0  502 -0.40223291499E+02  0.35076204570E+01 -0.33864190471E+03  0.38195884098E+03  0.17200000000E+03 0.  1.
</event>
<event>
 4    1  0.6129841E-001  0.1907383E+03  0.7818608E-02  0.1157797E+00
         21   -1    0    0  501  502  0.00000000000E+00  0.00000000000E+00  0.14651781596E+03  0.14651781596E+03  0.00000000000E+00 0.  1.
         21   -1    0    0  502  503 -0.00000000000E+00 -0.00000000000E+00 -0.37038313502E+03  0.37038313502E+03  0.00000000000E+00 0.  1.
          6    1    1    2  501    0 -0.78113933188E+02 -0.26368549303E+02  0.36445818348E+02  0.19418904353E+03  0.17200000000E+03 0.  1.
         -6    1    1    2    0  503  0.78113933188E+02  0.26368549303E+02 -0.26031113741E+03  0.32271190745E+03  0.17200000000E+03 0.  1.
</event>
<event>
 4    1  0.6129841E-001  0.2330735E+03  0.7818608E-02  0.1124495E+00
         21   -1    0    0  501  502  0.00000000000E+00  0.00000000000E+00  0.26200681579E+03  0.26200681579E+03  0.00000000000E+00 0.  1.
         21   -1    0    0  502  503 -0.00000000000E+00 -0.00000000000E+00 -0.21256708697E+03  0.21256708697E+03  0.00000000000E+00 0.  1.
          6    1    1    2  501    0  0.78704021658E+02  0.13617983565E+03  0.61946129098E+02  0.24116507536E+03  0.17200000000E+03 0.  1.
         -6    1    1    2    0  503 -0.78704021658E+02 -0.13617983565E+03 -0.12506400282E+02  0.23340882741E+03  0.17200000000E+03 0.  1.
</event>
<event>
 4    1  0.6129841E-001  0.2002515E+03  0.7818608E-02  0.1149527E+00
         21   -1    0    0  501  502  0.00000000000E+00  0.00000000000E+00  0.60890393332E+03  0.60890393332E+03  0.00000000000E+00 0.  1.
         21   -1    0    0  502  503 -0.00000000000E+00 -0.00000000000E+00 -0.68961016609E+02  0.68961016609E+02  0.00000000000E+00 0.  1.
          6    1    1    2  501    0 -0.72233021785E+02 -0.72794544107E+02  0.19806540136E+03  0.28165680944E+03  0.17200000000E+03 0. -1.
         -6    1    1    2    0  503  0.72233021785E+02  0.72794544107E+02  0.34187751535E+03  0.39620814049E+03  0.17200000000E+03 0. -1.
</event>
<event>
 4    1  0.6129841E-001  0.1843166E+03  0.7818608E-02  0.1163690E+00
         21   -1    0    0  501  502  0.00000000000E+00  0.00000000000E+00  0.62385272030E+02  0.62385272030E+02  0.00000000000E+00 0.  1.
         21   -1    0    0  502  503 -0.00000000000E+00 -0.00000000000E+00 -0.66721198956E+03  0.66721198956E+03  0.00000000000E+00 0.  1.
          6    1    1    2  501    0  0.92603676303E+01 -0.65596145206E+02 -0.45882035189E+03  0.49445801033E+03  0.17200000000E+03 0. -1.
         -6    1    1    2    0  503 -0.92603676303E+01  0.65596145206E+02 -0.14600636564E+03  0.23513925126E+03  0.17200000000E+03 0. -1.
</event>
<event>
 4    1  0.6129841E-001  0.1894522E+03  0.7818608E-02  0.1158956E+00
         21   -1    0    0  503  502  0.00000000000E+00  0.00000000000E+00  0.87140681967E+03  0.87140681967E+03  0.00000000000E+00 0. -1.
         21   -1    0    0  501  503 -0.00000000000E+00 -0.00000000000E+00 -0.41623228417E+02  0.41623228417E+02  0.00000000000E+00 0. -1.
          6    1    1    2  501    0 -0.21628481830E+02  0.76422149100E+02  0.46153449252E+03  0.49890502491E+03  0.17200000000E+03 0.  1.
         -6    1    1    2    0  502  0.21628481830E+02 -0.76422149100E+02  0.36824909873E+03  0.41412502317E+03  0.17200000000E+03 0.  1.
</event>
<event>
 4    1  0.6129841E-001  0.2281632E+03  0.7818608E-02  0.1127939E+00
         21   -1    0    0  501  502  0.00000000000E+00  0.00000000000E+00  0.44766574812E+03  0.44766574812E+03  0.00000000000E+00 0. -1.
         21   -1    0    0  502  503 -0.00000000000E+00 -0.00000000000E+00 -0.12183891507E+03  0.12183891507E+03  0.00000000000E+00 0. -1.
          6    1    1    2  501    0 -0.57453729448E+02 -0.13846853401E+03  0.22368903025E+03  0.31952347049E+03  0.17200000000E+03 0. -1.
         -6    1    1    2    0  503  0.57453729448E+02  0.13846853401E+03  0.10213780280E+03  0.24998119269E+03  0.17200000000E+03 0. -1.
</event>
<event>
 4    1  0.6129841E-001  0.1817607E+03  0.7818608E-02  0.1166110E+00
         21   -1    0    0  503  502  0.00000000000E+00  0.00000000000E+00  0.67170441877E+02  0.67170441877E+02  0.00000000000E+00 0.  1.
         21   -1    0    0  501  503 -0.00000000000E+00 -0.00000000000E+00 -0.10003957927E+04  0.10003957927E+04  0.00000000000E+00 0. -1.
          6    1    1    2  501    0  0.40164575787E+02 -0.42892312862E+02 -0.84719557126E+03  0.86647405016E+03  0.17200000000E+03 0. -1.
         -6    1    1    2    0  502 -0.40164575787E+02  0.42892312862E+02 -0.86029779527E+02  0.20109218437E+03  0.17200000000E+03 0.  1.
</event>
<event>
 4    1  0.6129841E-001  0.1747941E+03  0.7818608E-02  0.1172939E+00
         21   -1    0    0  503  502  0.00000000000E+00  0.00000000000E+00  0.12593916242E+03  0.12593916242E+03  0.00000000000E+00 0. -1.
         21   -1    0    0  501  503 -0.00000000000E+00 -0.00000000000E+00 -0.24918879155E+03  0.24918879155E+03  0.00000000000E+00 0. -1.
          6    1    1    2  501    0 -0.18835149834E+02  0.24783116659E+02 -0.31127937646E+02  0.17754411914E+03  0.17200000000E+03 0.  1.
         -6    1    1    2    0  502  0.18835149834E+02 -0.24783116659E+02 -0.92121691488E+02  0.19758383482E+03  0.17200000000E+03 0.  1.
</event>
<event>
 4    1  0.6129841E-001  0.2087074E+03  0.7818608E-02  0.1142594E+00
         21   -1    0    0  501  502  0.00000000000E+00  0.00000000000E+00  0.58153860540E+02  0.58153860540E+02  0.00000000000E+00 0. -1.
         21   -1    0    0  502  503 -0.00000000000E+00 -0.00000000000E+00 -0.87141729387E+03  0.87141729387E+03  0.00000000000E+00 0. -1.
          6    1    1    2  501    0 -0.10768251655E+03  0.48777535159E+02 -0.23244531555E+03  0.31239333704E+03  0.17200000000E+03 0.  1.
         -6    1    1    2    0  503  0.10768251655E+03 -0.48777535159E+02 -0.58081811779E+03  0.61717781737E+03  0.17200000000E+03 0.  1.
</event>
<event>
 4    1  0.6129841E-001  0.1757260E+03  0.7818608E-02  0.1172005E+00
         21   -1    0    0  503  502  0.00000000000E+00  0.00000000000E+00  0.95691981076E+02  0.95691981076E+02  0.00000000000E+00 0.  1.
         21   -1    0    0  501  503 -0.00000000000E+00 -0.00000000000E+00 -0.50431516475E+03  0.50431516475E+03  0.00000000000E+00 0.  1.
          6    1    1    2  501    0  0.16925348968E+02 -0.31767020194E+02 -0.38434531285E+03  0.42261203309E+03  0.17200000000E+03 0.  1.
         -6    1    1    2    0  502 -0.16925348968E+02  0.31767020194E+02 -0.24277870830E+02  0.17739511273E+03  0.17200000000E+03 0.  1.
</event>
<event>
 4    1  0.6129841E-001  0.2162340E+03  0.7818608E-02  0.1136722E+00
         21   -1    0    0  501  502  0.00000000000E+00  0.00000000000E+00  0.38051785178E+03  0.38051785178E+03  0.00000000000E+00 0.  1.
         21   -1    0    0  502  503 -0.00000000000E+00 -0.00000000000E+00 -0.16806973862E+03  0.16806973862E+03  0.00000000000E+00 0. -1.
          6    1    1    2  501    0  0.24058385767E+02  0.12881896101E+03  0.24845776669E+03  0.32937576181E+03  0.17200000000E+03 0.  1.
         -6    1    1    2    0  503 -0.24058385767E+02 -0.12881896101E+03 -0.36009653534E+02  0.21921182858E+03  0.17200000000E+03 0. -1.
</event>
<event>
 4    1  0.6129841E-001  0.1790322E+03  0.7818608E-02  0.1168743E+00
         21   -1    0    0  503  502  0.00000000000E+00  0.00000000000E+00  0.15912144985E+03  0.15912144985E+03  0.00000000000E+00 0. -1.
         21   -1    0    0  501  503 -0.00000000000E+00 -0.00000000000E+00 -0.41612980541E+03  0.41612980541E+03  0.00000000000E+00 0. -1.
          6    1    1    2  501    0 -0.47343466844E+02  0.15071200978E+02 -0.33510139709E+03  0.37992827124E+03  0.17200000000E+03 0. -1.
         -6    1    1    2    0  502  0.47343466844E+02 -0.15071200978E+02  0.78093041529E+02  0.19532298402E+03  0.17200000000E+03 0. -1.
</event>
<event>
 4    1  0.6129841E-001  0.1882214E+03  0.7818608E-02  0.1160075E+00
         21   -1    0    0  501  502  0.00000000000E+00  0.00000000000E+00  0.21131693257E+03  0.21131693257E+03  0.00000000000E+00 0. -1.
         21   -1    0    0  502  503 -0.00000000000E+00 -0.00000000000E+00 -0.41312258271E+03  0.41312258271E+03  0.00000000000E+00 0. -1.
          6    1    1    2  501    0 -0.28306963323E+02  0.71007120655E+02  0.13976739874E+03  0.23444022929E+03  0.17200000000E+03 0. -1.
         -6    1    1    2    0  503  0.28306963323E+02 -0.71007120655E+02 -0.34157304888E+03  0.38999928599E+03  0.17200000000E+03 0. -1.
</event>
<event>
 4    1  0.6129841E-001  0.2307252E+03  0.7818608E-02  0.1126130E+00
         21   -1    0    0  503  502  0.00000000000E+00  0.00000000000E+00  0.69657254622E+03  0.69657254622E+03  0.00000000000E+00 0. -1.
         21   -1    0    0  501  503 -0.00000000000E+00 -0.00000000000E+00 -0.76425034601E+02  0.76425034601E+02  0.00000000000E+00 0.  1.
          6    1    1    2  501    0  0.82595296857E+01  0.15356402266E+03  0.31209230669E+03  0.38811819950E+03  0.17200000000E+03 0.  1.
         -6    1    1    2    0  502 -0.82595296857E+01 -0.15356402266E+03  0.30805520492E+03  0.38487938132E+03  0.17200000000E+03 0. -1.
</event>
<event>
 4    1  0.6129841E-001  0.2054531E+03  0.7818608E-02  0.1145218E+00
         21   -1    0    0  501  502  0.00000000000E+00  0.00000000000E+00  0.21771342288E+03  0.21771342288E+03  0.00000000000E+00 0. -1.
         21   -1    0    0  502  503 -0.00000000000E+00 -0.00000000000E+00 -0.19836230588E+03  0.19836230588E+03  0.00000000000E+00 0.  1.
          6    1    1    2  501    0  0.10951095502E+03  0.25185853804E+02 -0.21585823065E+02  0.20658393998E+03  0.17200000000E+03 0.  1.
         -6    1    1    2    0  503 -0.10951095502E+03 -0.25185853804E+02  0.40936940060E+02  0.20949178877E+03  0.17200000000E+03 0.  1.
</event>
<event>
 4    1  0.6129841E-001  0.1864455E+03  0.7818608E-02  0.1161707E+00
         21   -1    0    0  503  502  0.00000000000E+00  0.00000000000E+00  0.43808332967E+03  0.43808332967E+03  0.00000000000E+00 0. -1.
         21   -1    0    0  501  503 -0.00000000000E+00 -0.00000000000E+00 -0.88145506102E+02  0.88145506102E+02  0.00000000000E+00 0. -1.
          6    1    1    2  501    0  0.33978792271E+02 -0.63429915804E+02  0.91854763794E+02  0.20784419688E+03  0.17200000000E+03 0. -1.
         -6    1    1    2    0  502 -0.33978792271E+02  0.63429915804E+02  0.25808305977E+03  0.31838463889E+03  0.17200000000E+03 0. -1.
</event>
<event>
 4    1  0.6129841E-001  0.2963736E+03  0.7818608E-02  0.1087068E+00
         21   -1    0    0  501  502  0.00000000000E+00  0.00000000000E+00  0.96250525493E+02  0.96250525493E+02  0.00000000000E+00 0.  1.
         21   -1    0    0  502  503 -0.00000000000E+00 -0.00000000000E+00 -0.14904655586E+04  0.14904655586E+04  0.00000000000E+00 0. -1.
          6    1    1    2  501    0 -0.99494050393E+02  0.21989593233E+03 -0.20310934577E+03  0.35929193347E+03  0.17200000000E+03 0.  1.
         -6    1    1    2    0  503  0.99494050393E+02 -0.21989593233E+03 -0.11911056874E+04  0.12274241507E+04  0.17200000000E+03 0. -1.
</event>
<event>
 4    1  0.6129841E-001  0.2245713E+03  0.7818608E-02  0.1130520E+00
         21   -1    0    0  503  502  0.00000000000E+00  0.00000000000E+00  0.93592808354E+03  0.93592808354E+03  0.00000000000E+00 0.  1.
         21   -1    0    0  501  503 -0.00000000000E+00 -0.00000000000E+00 -0.71264540066E+02  0.71264540066E+02  0.00000000000E+00 0. -1.
          6    1    1    2  501    0  0.13191844558E+03 -0.58700687645E+02  0.68102737717E+03  0.71709869298E+03  0.17200000000E+03 0.  1.
         -6    1    1    2    0  502 -0.13191844558E+03  0.58700687645E+02  0.18363616630E+03  0.29009393063E+03  0.17200000000E+03 0. -1.
</event>
<event>
 4    1  0.6129841E-001  0.2061579E+03  0.7818608E-02  0.1144645E+00
         21   -1    0    0  501  502  0.00000000000E+00  0.00000000000E+00  0.35327245202E+02  0.35327245202E+02  0.00000000000E+00 0. -1.
         21   -1    0    0  502  503 -0.00000000000E+00 -0.00000000000E+00 -0.13209313944E+04  0.13209313944E+04  0.00000000000E+00 0.  1.
          6    1    1    2  501    0  0.59899911673E+02 -0.96587158851E+02 -0.44023827249E+03  0.48611810832E+03  0.17200000000E+03 0. -1.
         -6    1    1    2    0  503 -0.59899911673E+02  0.96587158851E+02 -0.84536587670E+03  0.87014053127E+03  0.17200000000E+03 0.  1.
</event>
<event>
 4    1  0.6129841E-001  0.3239015E+03  0.7818608E-02  0.1073868E+00
         21   -1    0    0  501  502  0.00000000000E+00  0.00000000000E+00  0.32049313547E+03  0.32049313547E+03  0.00000000000E+00 0.  1.
         21   -1    0    0  502  503 -0.00000000000E+00 -0.00000000000E+00 -0.32777128001E+03  0.32777128001E+03  0.00000000000E+00 0.  1.
          6    1    1    2  501    0  0.24483624391E+03 -0.12402985250E+03  0.80344782366E+01  0.32400114735E+03  0.17200000000E+03 0.  1.
         -6    1    1    2    0  503 -0.24483624391E+03  0.12402985250E+03 -0.15312622774E+02  0.32426326813E+03  0.17200000000E+03 0.  1.
</event>
<event>
 4    1  0.6129841E-001  0.1968970E+03  0.7818608E-02  0.1152384E+00
         21   -1    0    0  501  502  0.00000000000E+00  0.00000000000E+00  0.19819708141E+04  0.19819708141E+04  0.00000000000E+00 0. -1.
         21   -1    0    0  502  503 -0.00000000000E+00 -0.00000000000E+00 -0.19617544468E+02  0.19617544468E+02  0.00000000000E+00 0. -1.
          6    1    1    2  501    0 -0.81875510595E+02  0.49807728856E+02  0.92722598353E+03  0.94790106742E+03  0.17200000000E+03 0. -1.
         -6    1    1    2    0  503  0.81875510595E+02 -0.49807728856E+02  0.10351272861E+04  0.10536872912E+04  0.17200000000E+03 0. -1.
</event>
<event>
 4    1  0.6129841E-001  0.1954118E+03  0.7818608E-02  0.1153669E+00
         21   -1    0    0  503  502  0.00000000000E+00  0.00000000000E+00  0.68584728197E+03  0.68584728197E+03  0.00000000000E+00 0.  1.
         21   -1    0    0  501  503 -0.00000000000E+00 -0.00000000000E+00 -0.73061730633E+02  0.73061730633E+02  0.00000000000E+00 0.  1.
          6    1    1    2  501    0  0.84153883756E+02 -0.38985739730E+02  0.12129485326E+03  0.22999609884E+03  0.17200000000E+03 0.  1.
         -6    1    1    2    0  502 -0.84153883756E+02  0.38985739730E+02  0.49149069807E+03  0.52891291376E+03  0.17200000000E+03 0.  1.
</event>
<event>
 4    1  0.6129841E-001  0.1754305E+03  0.7818608E-02  0.1172300E+00
         21   -1    0    0  503  502  0.00000000000E+00  0.00000000000E+00  0.12104991882E+03  0.12104991882E+03  0.00000000000E+00 0.  1.
         21   -1    0    0  501  503 -0.00000000000E+00 -0.00000000000E+00 -0.25762687527E+03  0.25762687527E+03  0.00000000000E+00 0.  1.
          6    1    1    2  501    0  0.34507612499E+02  0.10421965480E+01 -0.46582779111E+02  0.18150982564E+03  0.17200000000E+03 0.  1.
         -6    1    1    2    0  502 -0.34507612499E+02 -0.10421965480E+01 -0.89994177343E+02  0.19716696846E+03  0.17200000000E+03 0.  1.
</event>
<event>
 4    1  0.6129841E-001  0.1745136E+03  0.7818608E-02  0.1173221E+00
         21   -1    0    0  503  502  0.00000000000E+00  0.00000000000E+00  0.18721489777E+02  0.18721489777E+02  0.00000000000E+00 0.  1.
         21   -1    0    0  501  503 -0.00000000000E+00 -0.00000000000E+00 -0.23462393082E+04  0.23462393082E+04  0.00000000000E+00 0.  1.
          6    1    1    2  501    0  0.80523705453E+01 -0.28392763100E+02 -0.18185806562E+04  0.18269347533E+04  0.17200000000E+03 0.  1.
         -6    1    1    2    0  502 -0.80523705453E+01  0.28392763100E+02 -0.50893716217E+03  0.53802604464E+03  0.17200000000E+03 0.  1.
</event>
<event>
 4    1  0.6129841E-001  0.1962785E+03  0.7818608E-02  0.1152917E+00
         21   -1    0    0  503  502  0.00000000000E+00  0.00000000000E+00  0.51002353430E+03  0.51002353430E+03  0.00000000000E+00 0. -1.
         21   -1    0    0  501  503 -0.00000000000E+00 -0.00000000000E+00 -0.76292612491E+02  0.76292612491E+02  0.00000000000E+00 0. -1.
          6    1    1    2  501    0  0.64581289277E+02  0.69068896486E+02  0.24605526143E+03  0.31475140518E+03  0.17200000000E+03 0. -1.
         -6    1    1    2    0  502 -0.64581289277E+02 -0.69068896486E+02  0.18767566038E+03  0.27156474161E+03  0.17200000000E+03 0. -1.
</event>
<event>
 4    1  0.6129841E-001  0.1908775E+03  0.7818608E-02  0.1157672E+00
         21   -1    0    0  501  502  0.00000000000E+00  0.00000000000E+00  0.50512936720E+03  0.50512936720E+03  0.00000000000E+00 0. -1.
         21   -1    0    0  502  503 -0.00000000000E+00 -0.00000000000E+00 -0.88358225566E+02  0.88358225566E+02  0.00000000000E+00 0. -1.
          6    1    1    2  501    0 -0.83244021055E+01 -0.82346367322E+02  0.33556411266E+03  0.38605374443E+03  0.17200000000E+03 0. -1.
         -6    1    1    2    0  503  0.83244021055E+01  0.82346367322E+02  0.81207028972E+02  0.20743384834E+03  0.17200000000E+03 0. -1.
</event>
<event>
 4    1  0.6129841E-001  0.1735097E+03  0.7818608E-02  0.1174236E+00
         21   -1    0    0  501  502  0.00000000000E+00  0.00000000000E+00  0.44615322873E+03  0.44615322873E+03  0.00000000000E+00 0.  1.
         21   -1    0    0  502  503 -0.00000000000E+00 -0.00000000000E+00 -0.67514252156E+02  0.67514252156E+02  0.00000000000E+00 0.  1.
          6    1    1    2  501    0  0.21969278165E+02 -0.62419043936E+01  0.19525563004E+03  0.26120944013E+03  0.17200000000E+03 0.  1.
         -6    1    1    2    0  503 -0.21969278165E+02  0.62419043936E+01  0.18338334653E+03  0.25245804075E+03  0.17200000000E+03 0.  1.
</event>
<event>
 4    1  0.6129841E-001  0.1776857E+03  0.7818608E-02  0.1170062E+00
         21   -1    0    0  503  502  0.00000000000E+00  0.00000000000E+00  0.11810607465E+03  0.11810607465E+03  0.00000000000E+00 0.  1.
         21   -1    0    0  501  503 -0.00000000000E+00 -0.00000000000E+00 -0.35513037145E+03  0.35513037145E+03  0.00000000000E+00 0.  1.
          6    1    1    2  501    0  0.21808742798E+02  0.38891834938E+02 -0.23617124471E+03  0.29554873188E+03  0.17200000000E+03 0.  1.
         -6    1    1    2    0  502 -0.21808742798E+02 -0.38891834938E+02 -0.85305209023E+00  0.17768771422E+03  0.17200000000E+03 0.  1.
</event>
<event>
 4    1  0.6129841E-001  0.1886774E+03  0.7818608E-02  0.1159660E+00
         21   -1    0    0  501  502  0.00000000000E+00  0.00000000000E+00  0.17201968983E+03  0.17201968983E+03  0.00000000000E+00 0.  1.
         21   -1    0    0  502  503 -0.00000000000E+00 -0.00000000000E+00 -0.22679491376E+03  0.22679491376E+03  0.00000000000E+00 0.  1.
          6    1    1    2  501    0  0.76448748159E+02 -0.13067262534E+02 -0.86376301899E+02  0.20750910817E+03  0.17200000000E+03 0.  1.
         -6    1    1    2    0  503 -0.76448748159E+02  0.13067262534E+02  0.31601077972E+02  0.19130549541E+03  0.17200000000E+03 0.  1.
</event>
<event>
 4    1  0.6129841E-001  0.2252314E+03  0.7818608E-02  0.1130042E+00
         21   -1    0    0  501  502  0.00000000000E+00  0.00000000000E+00  0.12213247661E+03  0.12213247661E+03  0.00000000000E+00 0. -1.
         21   -1    0    0  502  503 -0.00000000000E+00 -0.00000000000E+00 -0.41664083730E+03  0.41664083730E+03  0.00000000000E+00 0.  1.
          6    1    1    2  501    0 -0.12610430749E+03  0.72407815412E+02 -0.13232949771E+03  0.26122841359E+03  0.17200000000E+03 0. -1.
         -6    1    1    2    0  503  0.12610430749E+03 -0.72407815412E+02 -0.16217886298E+03  0.27754490033E+03  0.17200000000E+03 0.  1.
</event>
<event>
 4    1  0.6129841E-001  0.1811231E+03  0.7818608E-02  0.1166721E+00
         21   -1    0    0  501  502  0.00000000000E+00  0.00000000000E+00  0.92774653220E+03  0.92774653220E+03  0.00000000000E+00 0.  1.
         21   -1    0    0  502  503 -0.00000000000E+00 -0.00000000000E+00 -0.16412909861E+03  0.16412909861E+03  0.00000000000E+00 0.  1.
          6    1    1    2  501    0  0.53260486861E+02  0.19618657519E+02  0.86537430563E+03  0.88412570375E+03  0.17200000000E+03 0.  1.
         -6    1    1    2    0  503 -0.53260486861E+02 -0.19618657519E+02 -0.10175687205E+03  0.20774992706E+03  0.17200000000E+03 0.  1.
</event>
<event>
 4    1  0.6129841E-001  0.2935583E+03  0.7818608E-02  0.1088506E+00
         21   -1    0    0  501  502  0.00000000000E+00  0.00000000000E+00  0.36303045475E+03  0.36303045475E+03  0.00000000000E+00 0. -1.
         21   -1    0    0  502  503 -0.00000000000E+00 -0.00000000000E+00 -0.55343924050E+03  0.55343924050E+03  0.00000000000E+00 0.  1.
          6    1    1    2  501    0  0.23318904297E+03 -0.47067424373E+02  0.25108310448E+03  0.38628900780E+03  0.17200000000E+03 0. -1.
         -6    1    1    2    0  503 -0.23318904297E+03  0.47067424373E+02 -0.44149189024E+03  0.53018068745E+03  0.17200000000E+03 0.  1.
</event>
<event>
 4    1  0.6129841E-001  0.2055226E+03  0.7818608E-02  0.1145161E+00
         21   -1    0    0  501  502  0.00000000000E+00  0.00000000000E+00  0.36969666468E+03  0.36969666468E+03  0.00000000000E+00 0.  1.
         21   -1    0    0  502  503 -0.00000000000E+00 -0.00000000000E+00 -0.12205309722E+03  0.12205309722E+03  0.00000000000E+00 0. -1.
          6    1    1    2  501    0  0.10234400981E+03  0.46703897333E+02  0.18597230599E+03  0.27717368015E+03  0.17200000000E+03 0.  1.
         -6    1    1    2    0  503 -0.10234400981E+03 -0.46703897333E+02  0.61671261462E+02  0.21457608175E+03  0.17200000000E+03 0. -1.
</event>
<event>
 4    1  0.6129841E-001  0.1871382E+03  0.7818608E-02  0.1161068E+00
         21   -1    0    0  501  502  0.00000000000E+00  0.00000000000E+00  0.82162711179E+03  0.82162711179E+03  0.00000000000E+00 0. -1.
         21   -1    0    0  502  503 -0.00000000000E+00 -0.00000000000E+00 -0.10969725619E+03  0.10969725619E+03  0.00000000000E+00 0. -1.
          6    1    1    2  501    0  0.73731202252E+02 -0.63140679449E+00  0.72008879244E+03  0.74400843937E+03  0.17200000000E+03 0. -1.
         -6    1    1    2    0  503 -0.73731202252E+02  0.63140679449E+00 -0.81589368322E+01  0.18731592861E+03  0.17200000000E+03 0. -1.
</event>
<event>
 4    1  0.6129841E-001  0.1750266E+03  0.7818608E-02  0.1172705E+00
         21   -1    0    0  501  502  0.00000000000E+00  0.00000000000E+00  0.91392575341E+03  0.91392575341E+03  0.00000000000E+00 0.  1.
         21   -1    0    0  502  503 -0.00000000000E+00 -0.00000000000E+00 -0.73353040444E+02  0.73353040444E+02  0.00000000000E+00 0.  1.
          6    1    1    2  501    0 -0.32406775688E+02  0.34924726277E+00  0.78405502149E+03  0.80335334555E+03  0.17200000000E+03 0.  1.
         -6    1    1    2    0  503  0.32406775688E+02 -0.34924726277E+00  0.56517691478E+02  0.18392544830E+03  0.17200000000E+03 0.  1.
</event>
<event>
 4    1  0.6129841E-001  0.2150030E+03  0.7818608E-02  0.1137664E+00
         21   -1    0    0  501  502  0.00000000000E+00  0.00000000000E+00  0.19317962266E+03  0.19317962266E+03  0.00000000000E+00 0. -1.
         21   -1    0    0  502  503 -0.00000000000E+00 -0.00000000000E+00 -0.38100723456E+03  0.38100723456E+03  0.00000000000E+00 0. -1.
          6    1    1    2  501    0 -0.19192588073E+02  0.12756926650E+03  0.81177840652E+02  0.22981756897E+03  0.17200000000E+03 0. -1.
         -6    1    1    2    0  503  0.19192588073E+02 -0.12756926650E+03 -0.26900545255E+03  0.34436928825E+03  0.17200000000E+03 0. -1.
</event>
<event>
 4    1  0.6129841E-001  0.1914140E+03  0.7818608E-02  0.1157192E+00
         21   -1    0    0  503  502  0.00000000000E+00  0.00000000000E+00  0.59366552894E+03  0.59366552894E+03  0.00000000000E+00 0.  1.
         21   -1    0    0  501  503 -0.00000000000E+00 -0.00000000000E+00 -0.41330819374E+03  0.41330819374E+03  0.00000000000E+00 0.  1.
          6    1    1    2  501    0  0.58967219103E+02 -0.59817937943E+02 -0.37419764971E+03  0.42031321616E+03  0.17200000000E+03 0.  1.
         -6    1    1    2    0  502 -0.58967219103E+02  0.59817937943E+02  0.55455498491E+03  0.58666050653E+03  0.17200000000E+03 0.  1.
</event>
<event>
 4    1  0.6129841E-001  0.2074488E+03  0.7818608E-02  0.1143602E+00
         21   -1    0    0  503  502  0.00000000000E+00  0.00000000000E+00  0.20229015917E+04  0.20229015917E+04  0.00000000000E+00 0.  1.
         21   -1    0    0  501  503 -0.00000000000E+00 -0.00000000000E+00 -0.43695033022E+02  0.43695033022E+02  0.00000000000E+00 0.  1.
          6    1    1    2  501    0 -0.85723112775E+02  0.78118922949E+02  0.24942147586E+03  0.32441653905E+03  0.17200000000E+03 0.  1.
         -6    1    1    2    0  502  0.85723112775E+02 -0.78118922949E+02  0.17297850828E+04  0.17421800857E+04  0.17200000000E+03 0.  1.
</event>
<event>
 4    1  0.6129841E-001  0.2207506E+03  0.7818608E-02  0.1133325E+00
         21   -1    0    0  501  502  0.00000000000E+00  0.00000000000E+00  0.82350627118E+02  0.82350627118E+02  0.00000000000E+00 0. -1.
         21   -1    0    0  502  503 -0.00000000000E+00 -0.00000000000E+00 -0.64515207989E+03  0.64515207989E+03  0.00000000000E+00 0. -1.
          6    1    1    2  501    0 -0.11568547046E+03  0.75918959142E+02 -0.17674550344E+03  0.28278930217E+03  0.17200000000E+03 0. -1.
         -6    1    1    2    0  503  0.11568547046E+03 -0.75918959142E+02 -0.38605594933E+03  0.44471340484E+03  0.17200000000E+03 0. -1.
</event>
<event>
 4    1  0.6129841E-001  0.2006071E+03  0.7818608E-02  0.1149228E+00
         21   -1    0    0  501  502  0.00000000000E+00  0.00000000000E+00  0.16663445528E+03  0.16663445528E+03  0.00000000000E+00 0. -1.
         21   -1    0    0  502  503 -0.00000000000E+00 -0.00000000000E+00 -0.45623507109E+03  0.45623507109E+03  0.00000000000E+00 0.  1.
          6    1    1    2  501    0 -0.70043750418E+02 -0.75849013729E+02  0.68857271696E+02  0.21209555328E+03  0.17200000000E+03 0. -1.
         -6    1    1    2    0  503  0.70043750418E+02  0.75849013729E+02 -0.35845788750E+03  0.41077397309E+03  0.17200000000E+03 0.  1.
</event>
<event>
 4    1  0.6129841E-001  0.1823250E+03  0.7818608E-02  0.1165572E+00
         21   -1    0    0  501  502  0.00000000000E+00  0.00000000000E+00  0.27893814292E+03  0.27893814292E+03  0.00000000000E+00 0.  1.
         21   -1    0    0  502  503 -0.00000000000E+00 -0.00000000000E+00 -0.12973683938E+03  0.12973683938E+03  0.00000000000E+00 0. -1.
          6    1    1    2  501    0  0.55119208430E+02 -0.24905052008E+02  0.13290365527E+03  0.22562307137E+03  0.17200000000E+03 0. -1.
         -6    1    1    2    0  503 -0.55119208430E+02  0.24905052008E+02  0.16297648279E+02  0.18305191092E+03  0.17200000000E+03 0. -1.
</event>
<event>
 4    1  0.6129841E-001  0.1967818E+03  0.7818608E-02  0.1152483E+00
         21   -1    0    0  503  502  0.00000000000E+00  0.00000000000E+00  0.84131287674E+03  0.84131287674E+03  0.00000000000E+00 0. -1.
         21   -1    0    0  501  503 -0.00000000000E+00 -0.00000000000E+00 -0.54911954447E+02  0.54911954447E+02  0.00000000000E+00 0. -1.
          6    1    1    2  501    0  0.70963707614E+02 -0.64056486583E+02  0.21294771131E+03  0.28994794192E+03  0.17200000000E+03 0.  1.
         -6    1    1    2    0  502 -0.70963707614E+02  0.64056486583E+02  0.57345321098E+03  0.60627688927E+03  0.17200000000E+03 0.  1.
</event>
<event>
 4    1  0.6129841E-001  0.1946990E+03  0.7818608E-02  0.1154290E+00
         21   -1    0    0  503  502  0.00000000000E+00  0.00000000000E+00  0.11099066357E+03  0.11099066357E+03  0.00000000000E+00 0. -1.
         21   -1    0    0  501  503 -0.00000000000E+00 -0.00000000000E+00 -0.94692493673E+03  0.94692493673E+03  0.00000000000E+00 0.  1.
          6    1    1    2  501    0  0.19432636896E+02  0.89140652634E+02 -0.84090763590E+03  0.86315313557E+03  0.17200000000E+03 0.  1.
         -6    1    1    2    0  502 -0.19432636896E+02 -0.89140652634E+02  0.49733627429E+01  0.19476246472E+03  0.17200000000E+03 0. -1.
</event>
<event>
 4    1  0.6129841E-001  0.1944640E+03  0.7818608E-02  0.1154496E+00
         21   -1    0    0  501  502  0.00000000000E+00  0.00000000000E+00  0.70676063472E+02  0.70676063472E+02  0.00000000000E+00 0.  1.
         21   -1    0    0  502  503 -0.00000000000E+00 -0.00000000000E+00 -0.56856030364E+03  0.56856030364E+03  0.00000000000E+00 0.  1.
          6    1    1    2  501    0 -0.78095889991E+02 -0.46187285398E+02 -0.17136383523E+03  0.25919451651E+03  0.17200000000E+03 0.  1.
         -6    1    1    2    0  503  0.78095889991E+02  0.46187285398E+02 -0.32652040494E+03  0.38004185060E+03  0.17200000000E+03 0.  1.
</event>
<event>
 4    1  0.6129841E-001  0.2016246E+03  0.7818608E-02  0.1148376E+00
         21   -1    0    0  503  502  0.00000000000E+00  0.00000000000E+00  0.74267575983E+02  0.74267575983E+02  0.00000000000E+00 0.  1.
         21   -1    0    0  501  503 -0.00000000000E+00 -0.00000000000E+00 -0.16706788166E+04  0.16706788166E+04  0.00000000000E+00 0.  1.
          6    1    1    2  501    0 -0.10394980189E+03  0.16214305153E+02 -0.15136132633E+04  0.15269831616E+04  0.17200000000E+03 0.  1.
         -6    1    1    2    0  502  0.10394980189E+03 -0.16214305153E+02 -0.82797977302E+02  0.21796323096E+03  0.17200000000E+03 0.  1.
</event>
<event>
 4    1  0.6129841E-001  0.2164675E+03  0.7818608E-02  0.1136544E+00
         21   -1    0    0  501  502  0.00000000000E+00  0.00000000000E+00  0.61953470940E+03  0.61953470940E+03  0.00000000000E+00 0. -1.
         21   -1    0    0  502  503 -0.00000000000E+00 -0.00000000000E+00 -0.11212047374E+03  0.11212047374E+03  0.00000000000E+00 0.  1.
          6    1    1    2  501    0 -0.63399837762E+02  0.11512870169E+03  0.46239505993E+03  0.51055592135E+03  0.17200000000E+03 0. -1.
         -6    1    1    2    0  503  0.63399837762E+02 -0.11512870169E+03  0.45019175734E+02  0.22109926179E+03  0.17200000000E+03 0.  1.
</event>
<event>
 4    1  0.6129841E-001  0.2700397E+03  0.7818608E-02  0.1101257E+00
         21   -1    0    0  501  502  0.00000000000E+00  0.00000000000E+00  0.25868196333E+03  0.25868196333E+03  0.00000000000E+00 0. -1.
         21   -1    0    0  502  503 -0.00000000000E+00 -0.00000000000E+00 -0.39608861200E+03  0.39608861200E+03  0.00000000000E+00 0.  1.
          6    1    1    2  501    0  0.57472277077E+02 -0.20008590784E+03  0.10708167815E+03  0.29049598783E+03  0.17200000000E+03 0.  1.
         -6    1    1    2    0  503 -0.57472277077E+02  0.20008590784E+03 -0.24448832682E+03  0.36427458751E+03  0.17200000000E+03 0.  1.
</event>
<event>
 4    1  0.6129841E-001  0.1882333E+03  0.7818608E-02  0.1160064E+00
         21   -1    0    0  501  502  0.00000000000E+00  0.00000000000E+00  0.10567838856E+03  0.10567838856E+03  0.00000000000E+00 0.  1.
         21   -1    0    0  502  503 -0.00000000000E+00 -0.00000000000E+00 -0.35744082601E+03  0.35744082601E+03  0.00000000000E+00 0.  1.
          6    1    1    2  501    0 -0.76449348305E+02  0.18094878262E+01 -0.68223099928E+02  0.20021530527E+03  0.17200000000E+03 0. -1.
         -6    1    1    2    0  503  0.76449348305E+02 -0.18094878262E+01 -0.18353933753E+03  0.26290390929E+03  0.17200000000E+03 0. -1.
</event>
<event>
 4    1  0.6129841E-001  0.1892957E+03  0.7818608E-02  0.1159098E+00
         21   -1    0    0  501  502  0.00000000000E+00  0.00000000000E+00  0.12658118293E+04  0.12658118293E+04  0.00000000000E+00 0. -1.
         21   -1    0    0  502  503 -0.00000000000E+00 -0.00000000000E+00 -0.31725064283E+02  0.31725064283E+02  0.00000000000E+00 0. -1.
          6    1    1    2  501    0 -0.50582916197E+02  0.60747327178E+02  0.82995609281E+03  0.85126963129E+03  0.17200000000E+03 0. -1.
         -6    1    1    2    0  503  0.50582916197E+02 -0.60747327178E+02  0.40413067217E+03  0.44626726225E+03  0.17200000000E+03 0. -1.
</event>
<event>
 4    1  0.6129841E-001  0.1731630E+03  0.7818608E-02  0.1174589E+00
         21   -1    0    0  503  502  0.00000000000E+00  0.00000000000E+00  0.49270349348E+03  0.49270349348E+03  0.00000000000E+00 0.  1.
         21   -1    0    0  501  503 -0.00000000000E+00 -0.00000000000E+00 -0.60872858728E+02  0.60872858728E+02  0.00000000000E+00 0.  1.
          6    1    1    2  501    0  0.17517568503E+02  0.97248653063E+01  0.22009280280E+03  0.28004692474E+03  0.17200000000E+03 0.  1.
         -6    1    1    2    0  502 -0.17517568503E+02 -0.97248653063E+01  0.21173783195E+03  0.27352942747E+03  0.17200000000E+03 0.  1.
</event>
<event>
 4    1  0.6129841E-001  0.1826753E+03  0.7818608E-02  0.1165239E+00
         21   -1    0    0  501  502  0.00000000000E+00  0.00000000000E+00  0.72903604745E+03  0.72903604745E+03  0.00000000000E+00 0.  1.
         21   -1    0    0  502  503 -0.00000000000E+00 -0.00000000000E+00 -0.57481722767E+02  0.57481722767E+02  0.00000000000E+00 0.  1.
          6    1    1    2  501    0  0.60132819048E+02 -0.13050647808E+02  0.51326379971E+03  0.54480271973E+03  0.17200000000E+03 0. -1.
         -6    1    1    2    0  503 -0.60132819048E+02  0.13050647808E+02  0.15829052497E+03  0.24171505048E+03  0.17200000000E+03 0. -1.
</event>
<event>
 4    1  0.6129841E-001  0.1757613E+03  0.7818608E-02  0.1171969E+00
         21   -1    0    0  501  502  0.00000000000E+00  0.00000000000E+00  0.48876033414E+02  0.48876033414E+02  0.00000000000E+00 0. -1.
         21   -1    0    0  502  503 -0.00000000000E+00 -0.00000000000E+00 -0.63795190558E+03  0.63795190558E+03  0.00000000000E+00 0. -1.
          6    1    1    2  501    0  0.34527849820E+02 -0.10763860210E+02 -0.26150340451E+03  0.31508104302E+03  0.17200000000E+03 0. -1.
         -6    1    1    2    0  503 -0.34527849820E+02  0.10763860210E+02 -0.32757246765E+03  0.37174689597E+03  0.17200000000E+03 0. -1.
</event>
<event>
 4    1  0.6129841E-001  0.1942352E+03  0.7818608E-02  0.1154696E+00
         21   -1    0    0  501  502  0.00000000000E+00  0.00000000000E+00  0.83666752484E+02  0.83666752484E+02  0.00000000000E+00 0.  1.
         21   -1    0    0  502  503 -0.00000000000E+00 -0.00000000000E+00 -0.58995271846E+03  0.58995271846E+03  0.00000000000E+00 0. -1.
          6    1    1    2  501    0 -0.11671012791E+02  0.89482445546E+02 -0.41664713286E+03  0.45969789419E+03  0.17200000000E+03 0. -1.
         -6    1    1    2    0  503  0.11671012791E+02 -0.89482445546E+02 -0.89638833121E+02  0.21392157676E+03  0.17200000000E+03 0.  1.
</event>
<event>
 4    1  0.6129841E-001  0.2587207E+03  0.7818608E-02  0.1107914E+00
         21   -1    0    0  501  502  0.00000000000E+00  0.00000000000E+00  0.11162369236E+03  0.11162369236E+03  0.00000000000E+00 0. -1.
         21   -1    0    0  502  503 -0.00000000000E+00 -0.00000000000E+00 -0.84945258146E+03  0.84945258146E+03  0.00000000000E+00 0. -1.
          6    1    1    2  501    0  0.13865020023E+03 -0.13464225597E+03 -0.10833096657E+03  0.28048531768E+03  0.17200000000E+03 0. -1.
         -6    1    1    2    0  503 -0.13865020023E+03  0.13464225597E+03 -0.62949792253E+03  0.68059095615E+03  0.17200000000E+03 0. -1.
</event>
<event>
 4    1  0.6129841E-001  0.1885703E+03  0.7818608E-02  0.1159757E+00
         21   -1    0    0  501  502  0.00000000000E+00  0.00000000000E+00  0.22743907368E+04  0.22743907368E+04  0.00000000000E+00 0.  1.
         21   -1    0    0  502  503 -0.00000000000E+00 -0.00000000000E+00 -0.21854613972E+02  0.21854613972E+02  0.00000000000E+00 0.  1.
          6    1    1    2  501    0  0.70690599854E+02  0.31266278623E+02  0.17387866683E+04  0.17489819379E+04  0.17200000000E+03 0.  1.
         -6    1    1    2    0  503 -0.70690599854E+02 -0.31266278623E+02  0.51374945448E+03  0.54726341287E+03  0.17200000000E+03 0.  1.
</event>
<event>
 4    1  0.6129841E-001  0.2672785E+03  0.7818608E-02  0.1102847E+00
         21   -1    0    0  503  502  0.00000000000E+00  0.00000000000E+00  0.55872009656E+03  0.55872009656E+03  0.00000000000E+00 0. -1.
         21   -1    0    0  501  503 -0.00000000000E+00 -0.00000000000E+00 -0.13494794327E+03  0.13494794327E+03  0.00000000000E+00 0.  1.
          6    1    1    2  501    0  0.20290837642E+03 -0.26115216535E+02  0.13239722437E+03  0.29827309429E+03  0.17200000000E+03 0.  1.
         -6    1    1    2    0  502 -0.20290837642E+03  0.26115216535E+02  0.29137492893E+03  0.39539494555E+03  0.17200000000E+03 0.  1.
</event>
<event>
 4    1  0.6129841E-001  0.1977535E+03  0.7818608E-02  0.1151648E+00
         21   -1    0    0  503  502  0.00000000000E+00  0.00000000000E+00  0.27026946716E+03  0.27026946716E+03  0.00000000000E+00 0.  1.
         21   -1    0    0  501  503 -0.00000000000E+00 -0.00000000000E+00 -0.25116723103E+03  0.25116723103E+03  0.00000000000E+00 0.  1.
          6    1    1    2  501    0  0.95214494868E+02  0.21369733099E+02 -0.16019881298E+03  0.25449975482E+03  0.17200000000E+03 0.  1.
         -6    1    1    2    0  502 -0.95214494868E+02 -0.21369733099E+02  0.17930104911E+03  0.26693694337E+03  0.17200000000E+03 0.  1.
</event>
<event>
 4    1  0.6129841E-001  0.1821432E+03  0.7818608E-02  0.1165745E+00
         21   -1    0    0  501  502  0.00000000000E+00  0.00000000000E+00  0.10938502180E+03  0.10938502180E+03  0.00000000000E+00 0.  1.
         21   -1    0    0  502  503 -0.00000000000E+00 -0.00000000000E+00 -0.41272761795E+03  0.41272761795E+03  0.00000000000E+00 0.  1.
          6    1    1    2  501    0 -0.59805635177E+02 -0.39284999450E+01 -0.17248817534E+02  0.18295810673E+03  0.17200000000E+03 0.  1.
         -6    1    1    2    0  503  0.59805635177E+02  0.39284999450E+01 -0.28609377861E+03  0.33915453302E+03  0.17200000000E+03 0.  1.
</event>
<event>
 4    1  0.6129841E-001  0.1779600E+03  0.7818608E-02  0.1169792E+00
         21   -1    0    0  503  502  0.00000000000E+00  0.00000000000E+00  0.75380849912E+02  0.75380849912E+02  0.00000000000E+00 0. -1.
         21   -1    0    0  501  503 -0.00000000000E+00 -0.00000000000E+00 -0.64997001311E+03  0.64997001311E+03  0.00000000000E+00 0. -1.
          6    1    1    2  501    0  0.37540455270E+02 -0.26009435032E+02 -0.50296175388E+03  0.53351691853E+03  0.17200000000E+03 0. -1.
         -6    1    1    2    0  502 -0.37540455270E+02  0.26009435032E+02 -0.71627409315E+02  0.19183394449E+03  0.17200000000E+03 0. -1.
</event>
<event>
 4    1  0.6129841E-001  0.1773636E+03  0.7818608E-02  0.1170379E+00
         21   -1    0    0  501  502  0.00000000000E+00  0.00000000000E+00  0.72986697111E+02  0.72986697111E+02  0.00000000000E+00 0.  1.
         21   -1    0    0  502  503 -0.00000000000E+00 -0.00000000000E+00 -0.43185509244E+03  0.43185509244E+03  0.00000000000E+00 0.  1.
          6    1    1    2  501    0  0.27443386714E+02  0.33476871784E+02 -0.16825381795E+03  0.24447328621E+03  0.17200000000E+03 0.  1.
         -6    1    1    2    0  503 -0.27443386714E+02 -0.33476871784E+02 -0.19061457738E+03  0.26036850334E+03  0.17200000000E+03 0.  1.
</event>
<event>
 4    1  0.6129841E-001  0.1793656E+03  0.7818608E-02  0.1168418E+00
         21   -1    0    0  501  502  0.00000000000E+00  0.00000000000E+00  0.61180615556E+03  0.61180615556E+03  0.00000000000E+00 0.  1.
         21   -1    0    0  502  503 -0.00000000000E+00 -0.00000000000E+00 -0.71850546333E+02  0.71850546333E+02  0.00000000000E+00 0.  1.
          6    1    1    2  501    0  0.50871918741E+02 -0.24725290803E+00  0.44698065907E+03  0.48162612350E+03  0.17200000000E+03 0.  1.
         -6    1    1    2    0  503 -0.50871918741E+02  0.24725290803E+00  0.92974950155E+02  0.20203057840E+03  0.17200000000E+03 0.  1.
</event>
<event>
 4    1  0.6129841E-001  0.1736718E+03  0.7818608E-02  0.1174072E+00
         21   -1    0    0  503  502  0.00000000000E+00  0.00000000000E+00  0.58813234310E+03  0.58813234310E+03  0.00000000000E+00 0. -1.
         21   -1    0    0  501  503 -0.00000000000E+00 -0.00000000000E+00 -0.76834183392E+02  0.76834183392E+02  0.00000000000E+00 0. -1.
          6    1    1    2  501    0 -0.23438806627E+02 -0.53396249693E+01  0.63920009127E+02  0.18506122451E+03  0.17200000000E+03 0. -1.
         -6    1    1    2    0  502  0.23438806627E+02  0.53396249693E+01  0.44737815058E+03  0.47990530198E+03  0.17200000000E+03 0. -1.
</event>
<event>
 4    1  0.6129841E-001  0.3864861E+03  0.7818608E-02  0.1048562E+00
         21   -1    0    0  503  502  0.00000000000E+00  0.00000000000E+00  0.23929917862E+03  0.23929917862E+03  0.00000000000E+00 0. -1.
         21   -1    0    0  501  503 -0.00000000000E+00 -0.00000000000E+00 -0.12570669835E+04  0.12570669835E+04  0.00000000000E+00 0.  1.
          6    1    1    2  501    0 -0.23205926674E+03  0.25678001327E+03  0.21980442848E+02  0.38711060223E+03  0.17200000000E+03 0. -1.
         -6    1    1    2    0  502  0.23205926674E+03 -0.25678001327E+03 -0.10397482477E+04  0.11092555599E+04  0.17200000000E+03 0.  1.
</event>
<event>
 4    1  0.6129841E-001  0.1791253E+03  0.7818608E-02  0.1168652E+00
         21   -1    0    0  503  502  0.00000000000E+00  0.00000000000E+00  0.57043849366E+02  0.57043849366E+02  0.00000000000E+00 0.  1.
         21   -1    0    0  501  503 -0.00000000000E+00 -0.00000000000E+00 -0.13341318923E+04  0.13341318923E+04  0.00000000000E+00 0.  1.
          6    1    1    2  501    0 -0.37506339951E+02 -0.33093259531E+02 -0.11675541611E+04  0.11812148867E+04  0.17200000000E+03 0.  1.
         -6    1    1    2    0  502  0.37506339951E+02  0.33093259531E+02 -0.10953388182E+03  0.20996085499E+03  0.17200000000E+03 0.  1.
</event>
<event>
 4    1  0.6129841E-001  0.2191517E+03  0.7818608E-02  0.1134517E+00
         21   -1    0    0  501  502  0.00000000000E+00  0.00000000000E+00  0.27980717986E+03  0.27980717986E+03  0.00000000000E+00 0.  1.
         21   -1    0    0  502  503 -0.00000000000E+00 -0.00000000000E+00 -0.25901328191E+03  0.25901328191E+03  0.00000000000E+00 0.  1.
          6    1    1    2  501    0  0.13355510090E+03 -0.24627481344E+02  0.16686662796E+03  0.27544863285E+03  0.17200000000E+03 0.  1.
         -6    1    1    2    0  503 -0.13355510090E+03  0.24627481344E+02 -0.14607273001E+03  0.26337182892E+03  0.17200000000E+03 0.  1.
</event>
<event>
 4    1  0.6129841E-001  0.2612605E+03  0.7818608E-02  0.1106388E+00
         21   -1    0    0  503  502  0.00000000000E+00  0.00000000000E+00  0.11246713316E+03  0.11246713316E+03  0.00000000000E+00 0.  1.
         21   -1    0    0  501  503 -0.00000000000E+00 -0.00000000000E+00 -0.68549347444E+03  0.68549347444E+03  0.00000000000E+00 0. -1.
          6    1    1    2  501    0  0.18215537035E+03 -0.74111306076E+02 -0.42160352155E+03  0.49599051807E+03  0.17200000000E+03 0. -1.
         -6    1    1    2    0  502 -0.18215537035E+03  0.74111306076E+02 -0.15142281973E+03  0.30197008953E+03  0.17200000000E+03 0. -1.
</event>
<event>
 4    1  0.6129841E-001  0.3855559E+03  0.7818608E-02  0.1048899E+00
         21   -1    0    0  501  502  0.00000000000E+00  0.00000000000E+00  0.74983163727E+03  0.74983163727E+03  0.00000000000E+00 0.  1.
         21   -1    0    0  502  503 -0.00000000000E+00 -0.00000000000E+00 -0.31011671868E+03  0.31011671868E+03  0.00000000000E+00 0. -1.
          6    1    1    2  501    0  0.23073155851E+03  0.25657799300E+03 -0.98448412113E+02  0.39792638570E+03  0.17200000000E+03 0. -1.
         -6    1    1    2    0  503 -0.23073155851E+03 -0.25657799300E+03  0.53816333070E+03  0.66202197025E+03  0.17200000000E+03 0. -1.
</event>
<event>
 4    1  0.6129841E-001  0.3397317E+03  0.7818608E-02  0.1066910E+00
         21   -1    0    0  501  502  0.00000000000E+00  0.00000000000E+00  0.78313024939E+03  0.78313024939E+03  0.00000000000E+00 0.  1.
         21   -1    0    0  502  503 -0.00000000000E+00 -0.00000000000E+00 -0.14739254540E+03  0.14739254540E+03  0.00000000000E+00 0. -1.
          6    1    1    2  501    0 -0.28872766618E+03  0.49698893157E+02  0.31355661522E+03  0.46231525624E+03  0.17200000000E+03 0. -1.
         -6    1    1    2    0  503  0.28872766618E+03 -0.49698893157E+02  0.32218108877E+03  0.46820753855E+03  0.17200000000E+03 0.  1.
</event>
<event>
 4    1  0.6129841E-001  0.2148873E+03  0.7818608E-02  0.1137753E+00
         21   -1    0    0  501  502  0.00000000000E+00  0.00000000000E+00  0.16823409863E+03  0.16823409863E+03  0.00000000000E+00 0.  1.
         21   -1    0    0  502  503 -0.00000000000E+00 -0.00000000000E+00 -0.33578737174E+03  0.33578737174E+03  0.00000000000E+00 0. -1.
          6    1    1    2  501    0  0.34301353449E+01  0.12876646552E+03  0.23907094226E+02  0.21621313009E+03  0.17200000000E+03 0.  1.
         -6    1    1    2    0  503 -0.34301353449E+01 -0.12876646552E+03 -0.19146036733E+03  0.28780834027E+03  0.17200000000E+03 0. -1.
</event>
<event>
 4    1  0.6129841E-001  0.2154782E+03  0.7818608E-02  0.1137300E+00
         21   -1    0    0  501  502  0.00000000000E+00  0.00000000000E+00  0.14258437752E+03  0.14258437752E+03  0.00000000000E+00 0. -1.
         21   -1    0    0  502  503 -0.00000000000E+00 -0.00000000000E+00 -0.57243527977E+03  0.57243527977E+03  0.00000000000E+00 0. -1.
          6    1    1    2  501    0  0.43592122172E+02 -0.12225622831E+03  0.19818915109E+02  0.21638772579E+03  0.17200000000E+03 0. -1.
         -6    1    1    2    0  503 -0.43592122172E+02  0.12225622831E+03 -0.44966981736E+03  0.49863193151E+03  0.17200000000E+03 0. -1.
</event>
<event>
 4    1  0.6129841E-001  0.2156786E+03  0.7818608E-02  0.1137146E+00
         21   -1    0    0  501  502  0.00000000000E+00  0.00000000000E+00  0.65710236050E+02  0.65710236050E+02  0.00000000000E+00 0. -1.
         21   -1    0    0  502  503 -0.00000000000E+00 -0.00000000000E+00 -0.72179961148E+03  0.72179961148E+03  0.00000000000E+00 0.  1.
          6    1    1    2  501    0 -0.11179291463E+03 -0.66600161794E+02 -0.27343240138E+03  0.34825639324E+03  0.17200000000E+03 0. -1.
         -6    1    1    2    0  503  0.11179291463E+03  0.66600161794E+02 -0.38265697405E+03  0.43925345429E+03  0.17200000000E+03 0. -1.
</event>
<event>
 4    1  0.6129841E-001  0.1879161E+03  0.7818608E-02  0.1160354E+00
         21   -1    0    0  503  502  0.00000000000E+00  0.00000000000E+00  0.11813563090E+03  0.11813563090E+03  0.00000000000E+00 0.  1.
         21   -1    0    0  501  503 -0.00000000000E+00 -0.00000000000E+00 -0.32147408356E+03  0.32147408356E+03  0.00000000000E+00 0.  1.
          6    1    1    2  501    0 -0.46904950507E+02  0.59400337336E+02 -0.15989671991E+03  0.24673758428E+03  0.17200000000E+03 0. -1.
         -6    1    1    2    0  502  0.46904950507E+02 -0.59400337336E+02 -0.43441732753E+02  0.19287213019E+03  0.17200000000E+03 0. -1.
</event>
<event>
 4    1  0.6129841E-001  0.1765410E+03  0.7818608E-02  0.1171193E+00
         21   -1    0    0  503  502  0.00000000000E+00  0.00000000000E+00  0.12762849765E+03  0.12762849765E+03  0.00000000000E+00 0.  1.
         21   -1    0    0  501  503 -0.00000000000E+00 -0.00000000000E+00 -0.24583838984E+03  0.24583838984E+03  0.00000000000E+00 0.  1.
          6    1    1    2  501    0 -0.38046765127E+02  0.11626580756E+02 -0.74354489032E+02  0.19156023532E+03  0.17200000000E+03 0.  1.
         -6    1    1    2    0  502  0.38046765127E+02 -0.11626580756E+02 -0.43855403164E+02  0.18190665217E+03  0.17200000000E+03 0.  1.
</event>
<event>
 4    1  0.6129841E-001  0.3045973E+03  0.7818608E-02  0.1082965E+00
         21   -1    0    0  503  502  0.00000000000E+00  0.00000000000E+00  0.34947410197E+04  0.34947410197E+04  0.00000000000E+00 0.  1.
         21   -1    0    0  501  503 -0.00000000000E+00 -0.00000000000E+00 -0.44758797772E+02  0.44758797772E+02  0.00000000000E+00 0. -1.
          6    1    1    2  501    0  0.21815541912E+03 -0.12491482513E+03  0.59614856195E+03  0.66945695033E+03  0.17200000000E+03 0. -1.
         -6    1    1    2    0  502 -0.21815541912E+03  0.12491482513E+03  0.28538336600E+04  0.28700428671E+04  0.17200000000E+03 0.  1.
</event>
<event>
 4    1  0.6129841E-001  0.1883265E+03  0.7818608E-02  0.1159979E+00
         21   -1    0    0  501  502  0.00000000000E+00  0.00000000000E+00  0.64336321569E+03  0.64336321569E+03  0.00000000000E+00 0.  1.
         21   -1    0    0  502  503 -0.00000000000E+00 -0.00000000000E+00 -0.56806853872E+02  0.56806853872E+02  0.00000000000E+00 0.  1.
          6    1    1    2  501    0  0.39079941077E+02 -0.65997181646E+02  0.23308163144E+03  0.29965633097E+03  0.17200000000E+03 0.  1.
         -6    1    1    2    0  503 -0.39079941077E+02  0.65997181646E+02  0.35347473039E+03  0.40051373859E+03  0.17200000000E+03 0.  1.
</event>
<event>
 4    1  0.6129841E-001  0.1775550E+03  0.7818608E-02  0.1170190E+00
         21   -1    0    0  503  502  0.00000000000E+00  0.00000000000E+00  0.14200583691E+03  0.14200583691E+03  0.00000000000E+00 0.  1.
         21   -1    0    0  501  503 -0.00000000000E+00 -0.00000000000E+00 -0.22318449414E+03  0.22318449414E+03  0.00000000000E+00 0.  1.
          6    1    1    2  501    0  0.16089819163E+02 -0.41023186059E+02 -0.27306442398E+02  0.17964249462E+03  0.17200000000E+03 0.  1.
         -6    1    1    2    0  502 -0.16089819163E+02  0.41023186059E+02 -0.53872214833E+02  0.18554783644E+03  0.17200000000E+03 0.  1.
</event>
<event>
 4    1  0.6129841E-001  0.2458578E+03  0.7818608E-02  0.1115951E+00
         21   -1    0    0  503  502  0.00000000000E+00  0.00000000000E+00  0.95914958416E+03  0.95914958416E+03  0.00000000000E+00 0. -1.
         21   -1    0    0  501  503 -0.00000000000E+00 -0.00000000000E+00 -0.26230857313E+03  0.26230857313E+03  0.00000000000E+00 0. -1.
          6    1    1    2  501    0  0.60710176577E+02  0.16485245703E+03 -0.18391206877E+03  0.30703372317E+03  0.17200000000E+03 0. -1.
         -6    1    1    2    0  502 -0.60710176577E+02 -0.16485245703E+03  0.88075307980E+03  0.91442443412E+03  0.17200000000E+03 0. -1.
</event>
<event>
 4    1  0.6129841E-001  0.4353236E+03  0.7818608E-02  0.1032191E+00
         21   -1    0    0  501  502  0.00000000000E+00  0.00000000000E+00  0.88599947007E+03  0.88599947007E+03  0.00000000000E+00 0.  1.
         21   -1    0    0  502  503 -0.00000000000E+00 -0.00000000000E+00 -0.21390022012E+03  0.21390022012E+03  0.00000000000E+00 0. -1.
          6    1    1    2  501    0 -0.39491388129E+03  0.62973797618E+02  0.33230023699E+03  0.54765876267E+03  0.17200000000E+03 0. -1.
         -6    1    1    2    0  503  0.39491388129E+03 -0.62973797618E+02  0.33979901296E+03  0.55224092753E+03  0.17200000000E+03 0.  1.
</event>
<event>
 4    1  0.6129841E-001  0.2359669E+03  0.7818608E-02  0.1122509E+00
         21   -1    0    0  503  502  0.00000000000E+00  0.00000000000E+00  0.10807616046E+04  0.10807616046E+04  0.00000000000E+00 0. -1.
         21   -1    0    0  501  503 -0.00000000000E+00 -0.00000000000E+00 -0.69073305437E+02  0.69073305437E+02  0.00000000000E+00 0. -1.
          6    1    1    2  501    0  0.14717354153E+03  0.66605827963E+02  0.21601972449E+03  0.31991390875E+03  0.17200000000E+03 0. -1.
         -6    1    1    2    0  502 -0.14717354153E+03 -0.66605827963E+02  0.79566857470E+03  0.82992100131E+03  0.17200000000E+03 0. -1.
</event>
<event>
 4    1  0.6129841E-001  0.1940548E+03  0.7818608E-02  0.1154854E+00
         21   -1    0    0  501  502  0.00000000000E+00  0.00000000000E+00  0.13254388501E+03  0.13254388501E+03  0.00000000000E+00 0. -1.
         21   -1    0    0  502  503 -0.00000000000E+00 -0.00000000000E+00 -0.31668838833E+03  0.31668838833E+03  0.00000000000E+00 0. -1.
          6    1    1    2  501    0  0.28732885409E+02 -0.85133289291E+02 -0.20031373892E+02  0.19508590823E+03  0.17200000000E+03 0. -1.
         -6    1    1    2    0  503 -0.28732885409E+02  0.85133289291E+02 -0.16411312942E+03  0.25414636511E+03  0.17200000000E+03 0. -1.
</event>
<event>
 4    1  0.6129841E-001  0.2029012E+03  0.7818608E-02  0.1147314E+00
         21   -1    0    0  501  502  0.00000000000E+00  0.00000000000E+00  0.25912302886E+03  0.25912302886E+03  0.00000000000E+00 0. -1.
         21   -1    0    0  502  503 -0.00000000000E+00 -0.00000000000E+00 -0.18877415258E+03  0.18877415258E+03  0.00000000000E+00 0. -1.
          6    1    1    2  501    0 -0.99675034108E+02  0.40617716904E+02  0.12429661037E+03  0.23794654589E+03  0.17200000000E+03 0. -1.
         -6    1    1    2    0  503  0.99675034108E+02 -0.40617716904E+02 -0.53947734092E+02  0.20995063554E+03  0.17200000000E+03 0. -1.
</event>
<event>
 4    1  0.6129841E-001  0.1740095E+03  0.7818608E-02  0.1173730E+00
         21   -1    0    0  501  502  0.00000000000E+00  0.00000000000E+00  0.44300660290E+03  0.44300660290E+03  0.00000000000E+00 0. -1.
         21   -1    0    0  502  503 -0.00000000000E+00 -0.00000000000E+00 -0.23219445269E+03  0.23219445269E+03  0.00000000000E+00 0. -1.
          6    1    1    2  501    0 -0.22919292132E+02 -0.13038773055E+02  0.38899786885E+03  0.42614392583E+03  0.17200000000E+03 0. -1.
         -6    1    1    2    0  503  0.22919292132E+02  0.13038773055E+02 -0.17818571864E+03  0.24905712976E+03  0.17200000000E+03 0. -1.
</event>
<event>
 4    1  0.6129841E-001  0.1754035E+03  0.7818608E-02  0.1172327E+00
         21   -1    0    0  503  502  0.00000000000E+00  0.00000000000E+00  0.28948632086E+02  0.28948632086E+02  0.00000000000E+00 0. -1.
         21   -1    0    0  501  503 -0.00000000000E+00 -0.00000000000E+00 -0.13234604893E+04  0.13234604893E+04  0.00000000000E+00 0. -1.
          6    1    1    2  501    0 -0.60202221561E+00 -0.34380817482E+02 -0.94735596919E+03  0.96345717881E+03  0.17200000000E+03 0. -1.
         -6    1    1    2    0  502  0.60202221561E+00  0.34380817482E+02 -0.34715588800E+03  0.38895194255E+03  0.17200000000E+03 0. -1.
</event>
<event>
 4    1  0.6129841E-001  0.1844290E+03  0.7818608E-02  0.1163584E+00
         21   -1    0    0  501  502  0.00000000000E+00  0.00000000000E+00  0.15860381304E+03  0.15860381304E+03  0.00000000000E+00 0. -1.
         21   -1    0    0  502  503 -0.00000000000E+00 -0.00000000000E+00 -0.32933014110E+03  0.32933014110E+03  0.00000000000E+00 0. -1.
          6    1    1    2  501    0  0.12224187564E+02 -0.65426487138E+02  0.58722338566E+02  0.19355198017E+03  0.17200000000E+03 0. -1.
         -6    1    1    2    0  503 -0.12224187564E+02  0.65426487138E+02 -0.22944866663E+03  0.29438197397E+03  0.17200000000E+03 0. -1.
</event>
<event>
 4    1  0.6129841E-001  0.1722833E+03  0.7818608E-02  0.1175487E+00
         21   -1    0    0  501  502  0.00000000000E+00  0.00000000000E+00  0.13884072285E+03  0.13884072285E+03  0.00000000000E+00 0. -1.
         21   -1    0    0  502  503 -0.00000000000E+00 -0.00000000000E+00 -0.24653019816E+03  0.24653019816E+03  0.00000000000E+00 0. -1.
          6    1    1    2  501    0  0.89499341332E+01 -0.41754759258E+01  0.16383684707E+02  0.17306057045E+03  0.17200000000E+03 0. -1.
         -6    1    1    2    0  503 -0.89499341332E+01  0.41754759258E+01 -0.12407316002E+03  0.21231035057E+03  0.17200000000E+03 0. -1.
</event>
<event>
 4    1  0.6129841E-001  0.2081696E+03  0.7818608E-02  0.1143024E+00
         21   -1    0    0  503  502  0.00000000000E+00  0.00000000000E+00  0.70353249861E+03  0.70353249861E+03  0.00000000000E+00 0. -1.
         21   -1    0    0  501  503 -0.00000000000E+00 -0.00000000000E+00 -0.97982609898E+02  0.97982609898E+02  0.00000000000E+00 0.  1.
          6    1    1    2  501    0 -0.10642907667E+03 -0.49228300319E+02  0.54699415738E+03  0.58526676150E+03  0.17200000000E+03 0. -1.
         -6    1    1    2    0  502  0.10642907667E+03  0.49228300319E+02  0.58555731338E+02  0.21624834701E+03  0.17200000000E+03 0.  1.
</event>
<event>
 4    1  0.6129841E-001  0.2061297E+03  0.7818608E-02  0.1144668E+00
         21   -1    0    0  503  502  0.00000000000E+00  0.00000000000E+00  0.47808457170E+03  0.47808457170E+03  0.00000000000E+00 0. -1.
         21   -1    0    0  501  503 -0.00000000000E+00 -0.00000000000E+00 -0.12044656181E+03  0.12044656181E+03  0.00000000000E+00 0. -1.
          6    1    1    2  501    0 -0.76827328351E+02 -0.83683969306E+02  0.25600154126E+02  0.20771329517E+03  0.17200000000E+03 0. -1.
         -6    1    1    2    0  502  0.76827328351E+02  0.83683969306E+02  0.33203785576E+03  0.39081783833E+03  0.17200000000E+03 0. -1.
</event>
<event>
 4    1  0.6129841E-001  0.1834746E+03  0.7818608E-02  0.1164482E+00
         21   -1    0    0  501  502  0.00000000000E+00  0.00000000000E+00  0.11739666056E+04  0.11739666056E+04  0.00000000000E+00 0. -1.
         21   -1    0    0  502  503 -0.00000000000E+00 -0.00000000000E+00 -0.29623320925E+02  0.29623320925E+02  0.00000000000E+00 0.  1.
          6    1    1    2  501    0 -0.63521592510E+02 -0.66294476706E+01  0.67987186917E+03  0.70419365290E+03  0.17200000000E+03 0.  1.
         -6    1    1    2    0  503  0.63521592510E+02  0.66294476706E+01  0.46447141549E+03  0.49939627361E+03  0.17200000000E+03 0.  1.
</event>
<event>
 4    1  0.6129841E-001  0.1884027E+03  0.7818608E-02  0.1159910E+00
         21   -1    0    0  503  502  0.00000000000E+00  0.00000000000E+00  0.34176408774E+03  0.34176408774E+03  0.00000000000E+00 0. -1.
         21   -1    0    0  501  503 -0.00000000000E+00 -0.00000000000E+00 -0.11062353236E+03  0.11062353236E+03  0.00000000000E+00 0.  1.
          6    1    1    2  501    0  0.59775276626E+02 -0.48357873957E+02  0.59639805813E+02  0.19761698841E+03  0.17200000000E+03 0.  1.
         -6    1    1    2    0  502 -0.59775276626E+02  0.48357873957E+02  0.17150074957E+03  0.25477063169E+03  0.17200000000E+03 0. -1.
</event>
<event>
 4    1  0.6129841E-001  0.2807454E+03  0.7818608E-02  0.1095283E+00
         21   -1    0    0  501  502  0.00000000000E+00  0.00000000000E+00  0.12806530981E+04  0.12806530981E+04  0.00000000000E+00 0. -1.
         21   -1    0    0  502  503 -0.00000000000E+00 -0.00000000000E+00 -0.75197013812E+02  0.75197013812E+02  0.00000000000E+00 0.  1.
          6    1    1    2  501    0  0.22187207857E+03 -0.25984271283E+01  0.89158149280E+03  0.93473821435E+03  0.17200000000E+03 0. -1.
         -6    1    1    2    0  503 -0.22187207857E+03  0.25984271283E+01  0.31387459145E+03  0.42111189752E+03  0.17200000000E+03 0.  1.
</event>
<event>
 4    1  0.6129841E-001  0.1796232E+03  0.7818608E-02  0.1168168E+00
         21   -1    0    0  501  502  0.00000000000E+00  0.00000000000E+00  0.49683475208E+02  0.49683475208E+02  0.00000000000E+00 0. -1.
         21   -1    0    0  502  503 -0.00000000000E+00 -0.00000000000E+00 -0.76425627524E+03  0.76425627524E+03  0.00000000000E+00 0. -1.
          6    1    1    2  501    0 -0.51766310450E+02 -0.85208747331E+00 -0.19951835312E+03  0.26846238132E+03  0.17200000000E+03 0.  1.
         -6    1    1    2    0  503  0.51766310450E+02  0.85208747331E+00 -0.51505444691E+03  0.54547736913E+03  0.17200000000E+03 0.  1.
</event>
<event>
 4    1  0.6129841E-001  0.3555640E+03  0.7818608E-02  0.1060354E+00
         21   -1    0    0  501  502  0.00000000000E+00  0.00000000000E+00  0.33779782456E+03  0.33779782456E+03  0.00000000000E+00 0.  1.
         21   -1    0    0  502  503 -0.00000000000E+00 -0.00000000000E+00 -0.57777002534E+03  0.57777002534E+03  0.00000000000E+00 0. -1.
          6    1    1    2  501    0 -0.13019953479E+03 -0.28264795263E+03  0.15170222651E+03  0.38657386036E+03  0.17200000000E+03 0.  1.
         -6    1    1    2    0  503  0.13019953479E+03  0.28264795263E+03 -0.39167442728E+03  0.52899398954E+03  0.17200000000E+03 0.  1.
</event>
<event>
 4    1  0.6129841E-001  0.1796014E+03  0.7818608E-02  0.1168189E+00
         21   -1    0    0  501  502  0.00000000000E+00  0.00000000000E+00  0.39685737294E+03  0.39685737294E+03  0.00000000000E+00 0.  1.
         21   -1    0    0  502  503 -0.00000000000E+00 -0.00000000000E+00 -0.84365551707E+02  0.84365551707E+02  0.00000000000E+00 0.  1.
          6    1    1    2  501    0 -0.51000327575E+02 -0.84639017622E+01  0.20225903760E+03  0.27049101526E+03  0.17200000000E+03 0. -1.
         -6    1    1    2    0  503  0.51000327575E+02  0.84639017622E+01  0.11023278363E+03  0.21073190938E+03  0.17200000000E+03 0. -1.
</event>
<event>
 4    1  0.6129841E-001  0.1860847E+03  0.7818608E-02  0.1162041E+00
         21   -1    0    0  503  502  0.00000000000E+00  0.00000000000E+00  0.79811322109E+03  0.79811322109E+03  0.00000000000E+00 0.  1.
         21   -1    0    0  501  503 -0.00000000000E+00 -0.00000000000E+00 -0.59933875638E+03  0.59933875638E+03  0.00000000000E+00 0.  1.
          6    1    1    2  501    0  0.70955741969E+02  0.29692954124E+01 -0.57357295049E+03  0.60300370112E+03  0.17200000000E+03 0.  1.
         -6    1    1    2    0  502 -0.70955741969E+02 -0.29692954124E+01  0.77234741519E+03  0.79444827635E+03  0.17200000000E+03 0.  1.
</event>
<event>
 4    1  0.6129841E-001  0.2118260E+03  0.7818608E-02  0.1140128E+00
         21   -1    0    0  501  502  0.00000000000E+00  0.00000000000E+00  0.10323068762E+03  0.10323068762E+03  0.00000000000E+00 0.  1.
         21   -1    0    0  502  503 -0.00000000000E+00 -0.00000000000E+00 -0.45641178239E+03  0.45641178239E+03  0.00000000000E+00 0.  1.
          6    1    1    2  501    0 -0.11762193848E+03  0.38096438670E+02 -0.11550353844E+03  0.24127023531E+03  0.17200000000E+03 0.  1.
         -6    1    1    2    0  503  0.11762193848E+03 -0.38096438670E+02 -0.23767755632E+03  0.31837223471E+03  0.17200000000E+03 0.  1.
</event>
<event>
 4    1  0.6129841E-001  0.3656476E+03  0.7818608E-02  0.1056370E+00
         21   -1    0    0  503  502  0.00000000000E+00  0.00000000000E+00  0.30060848244E+03  0.30060848244E+03  0.00000000000E+00 0. -1.
         21   -1    0    0  501  503 -0.00000000000E+00 -0.00000000000E+00 -0.55742544677E+03  0.55742544677E+03  0.00000000000E+00 0.  1.
          6    1    1    2  501    0  0.25841396518E+03  0.19322629226E+03  0.64468026083E+02  0.37128736015E+03  0.17200000000E+03 0. -1.
         -6    1    1    2    0  502 -0.25841396518E+03 -0.19322629226E+03 -0.32128499041E+03  0.48674656905E+03  0.17200000000E+03 0.  1.
</event>
<event>
 4    1  0.6129841E-001  0.1977283E+03  0.7818608E-02  0.1151670E+00
         21   -1    0    0  501  502  0.00000000000E+00  0.00000000000E+00  0.35704236423E+03  0.35704236423E+03  0.00000000000E+00 0.  1.
         21   -1    0    0  502  503 -0.00000000000E+00 -0.00000000000E+00 -0.13879109896E+03  0.13879109896E+03  0.00000000000E+00 0.  1.
          6    1    1    2  501    0 -0.93893309909E+02  0.26391798624E+02 -0.47644128884E+01  0.19778569289E+03  0.17200000000E+03 0.  1.
         -6    1    1    2    0  503  0.93893309909E+02 -0.26391798624E+02  0.22301567815E+03  0.29804777030E+03  0.17200000000E+03 0.  1.
</event>
<event>
 4    1  0.6129841E-001  0.1775351E+03  0.7818608E-02  0.1170210E+00
         21   -1    0    0  503  502  0.00000000000E+00  0.00000000000E+00  0.52707139597E+02  0.52707139597E+02  0.00000000000E+00 0.  1.
         21   -1    0    0  501  503 -0.00000000000E+00 -0.00000000000E+00 -0.59924257203E+03  0.59924257203E+03  0.00000000000E+00 0.  1.
          6    1    1    2  501    0 -0.18595837175E+02 -0.39861234954E+02 -0.25840740237E+03  0.31351731820E+03  0.17200000000E+03 0. -1.
         -6    1    1    2    0  502  0.18595837175E+02  0.39861234954E+02 -0.28812803006E+03  0.33843239343E+03  0.17200000000E+03 0. -1.
</event>
<event>
 4    1  0.6129841E-001  0.2612125E+03  0.7818608E-02  0.1106417E+00
         21   -1    0    0  501  502  0.00000000000E+00  0.00000000000E+00  0.11955594852E+03  0.11955594852E+03  0.00000000000E+00 0. -1.
         21   -1    0    0  502  503 -0.00000000000E+00 -0.00000000000E+00 -0.66569980590E+03  0.66569980590E+03  0.00000000000E+00 0. -1.
          6    1    1    2  501    0 -0.89710457386E+02  0.17492851503E+03 -0.12475967010E+03  0.28947698841E+03  0.17200000000E+03 0. -1.
         -6    1    1    2    0  503  0.89710457386E+02 -0.17492851503E+03 -0.42138418728E+03  0.49577876601E+03  0.17200000000E+03 0. -1.
</event>
<event>
 4    1  0.6129841E-001  0.1869495E+03  0.7818608E-02  0.1161242E+00
         21   -1    0    0  501  502  0.00000000000E+00  0.00000000000E+00  0.19631722361E+03  0.19631722361E+03  0.00000000000E+00 0.  1.
         21   -1    0    0  502  503 -0.00000000000E+00 -0.00000000000E+00 -0.21542509129E+03  0.21542509129E+03  0.00000000000E+00 0.  1.
          6    1    1    2  501    0  0.70066616834E+02  0.21372374641E+02  0.76221306249E+02  0.20189055629E+03  0.17200000000E+03 0.  1.
         -6    1    1    2    0  503 -0.70066616834E+02 -0.21372374641E+02 -0.95329173921E+02  0.20985175861E+03  0.17200000000E+03 0.  1.
</event>
<event>
 4    1  0.6129841E-001  0.2803480E+03  0.7818608E-02  0.1095499E+00
         21   -1    0    0  501  502  0.00000000000E+00  0.00000000000E+00  0.63184333349E+03  0.63184333349E+03  0.00000000000E+00 0.  1.
         21   -1    0    0  502  503 -0.00000000000E+00 -0.00000000000E+00 -0.12679551523E+03  0.12679551523E+03  0.00000000000E+00 0.  1.
          6    1    1    2  501    0  0.13396767641E+03 -0.17624887558E+03  0.30477019800E+03  0.41410128961E+03  0.17200000000E+03 0.  1.
         -6    1    1    2    0  503 -0.13396767641E+03  0.17624887558E+03  0.20027762026E+03  0.34453755912E+03  0.17200000000E+03 0.  1.
</event>
<event>
 4    1  0.6129841E-001  0.2452488E+03  0.7818608E-02  0.1116345E+00
         21   -1    0    0  501  502  0.00000000000E+00  0.00000000000E+00  0.10242913693E+03  0.10242913693E+03  0.00000000000E+00 0. -1.
         21   -1    0    0  502  503 -0.00000000000E+00 -0.00000000000E+00 -0.62735444908E+03  0.62735444908E+03  0.00000000000E+00 0.  1.
          6    1    1    2  501    0 -0.86670622155E+02  0.15182606179E+03 -0.17015348687E+03  0.29849482220E+03  0.17200000000E+03 0. -1.
         -6    1    1    2    0  503  0.86670622155E+02 -0.15182606179E+03 -0.35477182527E+03  0.43128876381E+03  0.17200000000E+03 0.  1.
</event>
<event>
 4    1  0.6129841E-001  0.2029145E+03  0.7818608E-02  0.1147303E+00
         21   -1    0    0  503  502  0.00000000000E+00  0.00000000000E+00  0.68027374096E+02  0.68027374096E+02  0.00000000000E+00 0.  1.
         21   -1    0    0  501  503 -0.00000000000E+00 -0.00000000000E+00 -0.22178897976E+04  0.22178897976E+04  0.00000000000E+00 0.  1.
          6    1    1    2  501    0  0.74274329839E+02  0.77933508693E+02 -0.20495341927E+04  0.20595544942E+04  0.17200000000E+03 0.  1.
         -6    1    1    2    0  502 -0.74274329839E+02 -0.77933508693E+02 -0.10032823088E+03  0.22636267749E+03  0.17200000000E+03 0.  1.
</event>
<event>
 4    1  0.6129841E-001  0.2432072E+03  0.7818608E-02  0.1117675E+00
         21   -1    0    0  503  502  0.00000000000E+00  0.00000000000E+00  0.23736922407E+04  0.23736922407E+04  0.00000000000E+00 0.  1.
         21   -1    0    0  501  503 -0.00000000000E+00 -0.00000000000E+00 -0.26775735305E+02  0.26775735305E+02  0.00000000000E+00 0. -1.
          6    1    1    2  501    0 -0.14016215668E+03 -0.99600731383E+02  0.85738696228E+03  0.89121385702E+03  0.17200000000E+03 0. -1.
         -6    1    1    2    0  502  0.14016215668E+03  0.99600731383E+02  0.14895295431E+04  0.15092541190E+04  0.17200000000E+03 0. -1.
</event>
<event>
 4    1  0.6129841E-001  0.1776909E+03  0.7818608E-02  0.1170057E+00
         21   -1    0    0  503  502  0.00000000000E+00  0.00000000000E+00  0.26970268842E+03  0.26970268842E+03  0.00000000000E+00 0.  1.
         21   -1    0    0  501  503 -0.00000000000E+00 -0.00000000000E+00 -0.18837697621E+03  0.18837697621E+03  0.00000000000E+00 0.  1.
          6    1    1    2  501    0  0.14617154299E+02  0.42147289148E+02 -0.10025419679E+03  0.20402195754E+03  0.17200000000E+03 0. -1.
         -6    1    1    2    0  502 -0.14617154299E+02 -0.42147289148E+02  0.18157990900E+03  0.25405770709E+03  0.17200000000E+03 0. -1.
</event>
<event>
 4    1  0.6129841E-001  0.2172111E+03  0.7818608E-02  0.1135980E+00
         21   -1    0    0  501  502  0.00000000000E+00  0.00000000000E+00  0.45138143768E+02  0.45138143768E+02  0.00000000000E+00 0. -1.
         21   -1    0    0  502  503 -0.00000000000E+00 -0.00000000000E+00 -0.11147111955E+04  0.11147111955E+04  0.00000000000E+00 0.  1.
          6    1    1    2  501    0 -0.50413429106E+02 -0.12269934259E+03 -0.67955089628E+03  0.71342137838E+03  0.17200000000E+03 0.  1.
         -6    1    1    2    0  503  0.50413429106E+02  0.12269934259E+03 -0.39002215541E+03  0.44642796084E+03  0.17200000000E+03 0. -1.
</event>
<event>
 4    1  0.6129841E-001  0.1732270E+03  0.7818608E-02  0.1174524E+00
         21   -1    0    0  503  502  0.00000000000E+00  0.00000000000E+00  0.20503517166E+03  0.20503517166E+03  0.00000000000E+00 0. -1.
         21   -1    0    0  501  503 -0.00000000000E+00 -0.00000000000E+00 -0.19506279917E+03  0.19506279917E+03  0.00000000000E+00 0. -1.
          6    1    1    2  501    0  0.14947695076E+02 -0.14148088570E+02 -0.94980512441E+02  0.19755733280E+03  0.17200000000E+03 0. -1.
         -6    1    1    2    0  502 -0.14947695076E+02  0.14148088570E+02  0.10495288494E+03  0.20254063803E+03  0.17200000000E+03 0. -1.
</event>
<event>
 4    1  0.6129841E-001  0.2197660E+03  0.7818608E-02  0.1134058E+00
         21   -1    0    0  503  502  0.00000000000E+00  0.00000000000E+00  0.17775560539E+04  0.17775560539E+04  0.00000000000E+00 0.  1.
         21   -1    0    0  501  503 -0.00000000000E+00 -0.00000000000E+00 -0.36189954356E+02  0.36189954356E+02  0.00000000000E+00 0.  1.
          6    1    1    2  501    0 -0.13648652632E+03  0.91943536451E+01  0.41794989396E+03  0.47220675754E+03  0.17200000000E+03 0.  1.
         -6    1    1    2    0  502  0.13648652632E+03 -0.91943536451E+01  0.13234162056E+04  0.13415392507E+04  0.17200000000E+03 0.  1.
</event>
<event>
 4    1  0.6129841E-001  0.1758313E+03  0.7818608E-02  0.1171900E+00
         21   -1    0    0  501  502  0.00000000000E+00  0.00000000000E+00  0.19024461262E+04  0.19024461262E+04  0.00000000000E+00 0. -1.
         21   -1    0    0  502  503 -0.00000000000E+00 -0.00000000000E+00 -0.16305617151E+02  0.16305617151E+02  0.00000000000E+00 0. -1.
          6    1    1    2  501    0 -0.14970245063E+02 -0.33294929503E+02  0.88754804003E+03  0.90479731650E+03  0.17200000000E+03 0. -1.
         -6    1    1    2    0  503  0.14970245063E+02  0.33294929503E+02  0.99859246903E+03  0.10139544269E+04  0.17200000000E+03 0. -1.
</event>
<event>
 4    1  0.6129841E-001  0.1803810E+03  0.7818608E-02  0.1167435E+00
         21   -1    0    0  503  502  0.00000000000E+00  0.00000000000E+00  0.11426238330E+03  0.11426238330E+03  0.00000000000E+00 0.  1.
         21   -1    0    0  501  503 -0.00000000000E+00 -0.00000000000E+00 -0.33176172478E+03  0.33176172478E+03  0.00000000000E+00 0.  1.
          6    1    1    2  501    0  0.45718301891E+02 -0.29379147107E+02 -0.24808605757E+02  0.18207900574E+03  0.17200000000E+03 0. -1.
         -6    1    1    2    0  502 -0.45718301891E+02  0.29379147107E+02 -0.19269073572E+03  0.26394510233E+03  0.17200000000E+03 0. -1.
</event>
<event>
 4    1  0.6129841E-001  0.1753219E+03  0.7818608E-02  0.1172409E+00
         21   -1    0    0  501  502  0.00000000000E+00  0.00000000000E+00  0.11351823953E+02  0.11351823953E+02  0.00000000000E+00 0. -1.
         21   -1    0    0  502  503 -0.00000000000E+00 -0.00000000000E+00 -0.29651364174E+04  0.29651364174E+04  0.00000000000E+00 0. -1.
          6    1    1    2  501    0  0.29553661505E+02  0.16743482504E+02 -0.10384071174E+04  0.10531035584E+04  0.17200000000E+03 0. -1.
         -6    1    1    2    0  503 -0.29553661505E+02 -0.16743482504E+02 -0.19153774760E+04  0.19233846830E+04  0.17200000000E+03 0. -1.
</event>
<event>
 4    1  0.6129841E-001  0.1941517E+03  0.7818608E-02  0.1154769E+00
         21   -1    0    0  503  502  0.00000000000E+00  0.00000000000E+00  0.15197696551E+03  0.15197696551E+03  0.00000000000E+00 0. -1.
         21   -1    0    0  501  503 -0.00000000000E+00 -0.00000000000E+00 -0.27322390910E+03  0.27322390910E+03  0.00000000000E+00 0. -1.
          6    1    1    2  501    0  0.81902508484E+02  0.37454920167E+02  0.39345210945E+01  0.19419158683E+03  0.17200000000E+03 0. -1.
         -6    1    1    2    0  502 -0.81902508484E+02 -0.37454920167E+02 -0.12518146469E+03  0.23100928778E+03  0.17200000000E+03 0. -1.
</event>
<event>
 4    1  0.6129841E-001  0.1833598E+03  0.7818608E-02  0.1164590E+00
         21   -1    0    0  503  502  0.00000000000E+00  0.00000000000E+00  0.31742311201E+03  0.31742311201E+03  0.00000000000E+00 0.  1.
         21   -1    0    0  501  503 -0.00000000000E+00 -0.00000000000E+00 -0.11540370398E+03  0.11540370398E+03  0.00000000000E+00 0.  1.
          6    1    1    2  501    0  0.30500911426E+02  0.55736016258E+02  0.38964253199E+02  0.18745405339E+03  0.17200000000E+03 0.  1.
         -6    1    1    2    0  502 -0.30500911426E+02 -0.55736016258E+02  0.16305515484E+03  0.24537276260E+03  0.17200000000E+03 0.  1.
</event>
<event>
 4    1  0.6129841E-001  0.1844263E+03  0.7818608E-02  0.1163587E+00
         21   -1    0    0  501  502  0.00000000000E+00  0.00000000000E+00  0.99773946019E+02  0.99773946019E+02  0.00000000000E+00 0.  1.
         21   -1    0    0  502  503 -0.00000000000E+00 -0.00000000000E+00 -0.39870763660E+03  0.39870763660E+03  0.00000000000E+00 0.  1.
          6    1    1    2  501    0 -0.64854199397E+02 -0.14933191538E+02 -0.54563922580E+02  0.19232859651E+03  0.17200000000E+03 0. -1.
         -6    1    1    2    0  503  0.64854199397E+02  0.14933191538E+02 -0.24436976800E+03  0.30615298611E+03  0.17200000000E+03 0. -1.
</event>
<event>
 4    1  0.6129841E-001  0.2642915E+03  0.7818608E-02  0.1104592E+00
         21   -1    0    0  503  502  0.00000000000E+00  0.00000000000E+00  0.12721398027E+04  0.12721398027E+04  0.00000000000E+00 0. -1.
         21   -1    0    0  501  503 -0.00000000000E+00 -0.00000000000E+00 -0.81011645629E+02  0.81011645629E+02  0.00000000000E+00 0. -1.
          6    1    1    2  501    0  0.38720047965E+02 -0.19689272883E+03  0.21150538067E+03  0.33850334538E+03  0.17200000000E+03 0. -1.
         -6    1    1    2    0  502 -0.38720047965E+02  0.19689272883E+03  0.97962277638E+03  0.10146481029E+04  0.17200000000E+03 0. -1.
</event>
<event>
 4    1  0.6129841E-001  0.2057150E+03  0.7818608E-02  0.1145005E+00
         21   -1    0    0  503  502  0.00000000000E+00  0.00000000000E+00  0.29418185193E+02  0.29418185193E+02  0.00000000000E+00 0. -1.
         21   -1    0    0  501  503 -0.00000000000E+00 -0.00000000000E+00 -0.14459385449E+04  0.14459385449E+04  0.00000000000E+00 0. -1.
          6    1    1    2  501    0 -0.72961921094E+02 -0.86088345235E+02 -0.65542123572E+03  0.68694660735E+03  0.17200000000E+03 0.  1.
         -6    1    1    2    0  502  0.72961921094E+02  0.86088345235E+02 -0.76109912402E+03  0.78841012278E+03  0.17200000000E+03 0.  1.
</event>
<event>
 4    1  0.6129841E-001  0.2718213E+03  0.7818608E-02  0.1100242E+00
         21   -1    0    0  501  502  0.00000000000E+00  0.00000000000E+00  0.43305716218E+03  0.43305716218E+03  0.00000000000E+00 0. -1.
         21   -1    0    0  502  503 -0.00000000000E+00 -0.00000000000E+00 -0.20839233492E+03  0.20839233492E+03  0.00000000000E+00 0. -1.
          6    1    1    2  501    0  0.54855728285E+02 -0.20320841619E+03  0.24888411807E+03  0.36855137438E+03  0.17200000000E+03 0. -1.
         -6    1    1    2    0  503 -0.54855728285E+02  0.20320841619E+03 -0.24219290805E+02  0.27289812272E+03  0.17200000000E+03 0. -1.
</event>
<event>
 4    1  0.6129841E-001  0.2180170E+03  0.7818608E-02  0.1135370E+00
         21   -1    0    0  503  502  0.00000000000E+00  0.00000000000E+00  0.43632726950E+02  0.43632726950E+02  0.00000000000E+00 0. -1.
         21   -1    0    0  501  503 -0.00000000000E+00 -0.00000000000E+00 -0.11131477526E+04  0.11131477526E+04  0.00000000000E+00 0. -1.
          6    1    1    2  501    0 -0.12264273309E+03 -0.53908885148E+02 -0.61932283004E+03  0.65657610045E+03  0.17200000000E+03 0. -1.
         -6    1    1    2    0  502  0.12264273309E+03  0.53908885148E+02 -0.45019219560E+03  0.50020437909E+03  0.17200000000E+03 0. -1.
</event>
<event>
 4    1  0.6129841E-001  0.1759878E+03  0.7818608E-02  0.1171744E+00
         21   -1    0    0  503  502  0.00000000000E+00  0.00000000000E+00  0.65432164930E+03  0.65432164930E+03  0.00000000000E+00 0. -1.
         21   -1    0    0  501  503 -0.00000000000E+00 -0.00000000000E+00 -0.52855227819E+02  0.52855227819E+02  0.00000000000E+00 0. -1.
          6    1    1    2  501    0 -0.30041899509E+02  0.22027227009E+02  0.41501280749E+03  0.45078525357E+03  0.17200000000E+03 0. -1.
         -6    1    1    2    0  502  0.30041899509E+02 -0.22027227009E+02  0.18645361399E+03  0.25639162355E+03  0.17200000000E+03 0. -1.
</event>
<event>
 4    1  0.6129841E-001  0.1736468E+03  0.7818608E-02  0.1174097E+00
         21   -1    0    0  501  502  0.00000000000E+00  0.00000000000E+00  0.76132994339E+02  0.76132994339E+02  0.00000000000E+00 0.  1.
         21   -1    0    0  502  503 -0.00000000000E+00 -0.00000000000E+00 -0.41188464904E+03  0.41188464904E+03  0.00000000000E+00 0.  1.
          6    1    1    2  501    0  0.23679020382E+02  0.29175842367E+01 -0.21570461276E+03  0.27691458660E+03  0.17200000000E+03 0.  1.
         -6    1    1    2    0  503 -0.23679020382E+02 -0.29175842367E+01 -0.12004704194E+03  0.21110305678E+03  0.17200000000E+03 0.  1.
</event>
<event>
 4    1  0.6129841E-001  0.2290204E+03  0.7818608E-02  0.1127331E+00
         21   -1    0    0  501  502  0.00000000000E+00  0.00000000000E+00  0.63270238818E+03  0.63270238818E+03  0.00000000000E+00 0. -1.
         21   -1    0    0  502  503 -0.00000000000E+00 -0.00000000000E+00 -0.91288482861E+02  0.91288482861E+02  0.00000000000E+00 0. -1.
          6    1    1    2  501    0  0.19819245968E+02  0.14991171718E+03  0.38044710318E+03  0.44406117121E+03  0.17200000000E+03 0. -1.
         -6    1    1    2    0  503 -0.19819245968E+02 -0.14991171718E+03  0.16096680214E+03  0.27992969983E+03  0.17200000000E+03 0. -1.
</event>
<event>
 4    1  0.6129841E-001  0.2297296E+03  0.7818608E-02  0.1126830E+00
         21   -1    0    0  501  502  0.00000000000E+00  0.00000000000E+00  0.23267752034E+03  0.23267752034E+03  0.00000000000E+00 0. -1.
         21   -1    0    0  502  503 -0.00000000000E+00 -0.00000000000E+00 -0.24318448626E+03  0.24318448626E+03  0.00000000000E+00 0.  1.
          6    1    1    2  501    0 -0.15202266789E+03 -0.89899972352E+01  0.56469356866E+02  0.23656817171E+03  0.17200000000E+03 0. -1.
         -6    1    1    2    0  503  0.15202266789E+03  0.89899972352E+01 -0.66976322787E+02  0.23929383489E+03  0.17200000000E+03 0. -1.
</event>
<event>
 4    1  0.6129841E-001  0.1860575E+03  0.7818608E-02  0.1162066E+00
         21   -1    0    0  503  502  0.00000000000E+00  0.00000000000E+00  0.99103146025E+02  0.99103146025E+02  0.00000000000E+00 0. -1.
         21   -1    0    0  501  503 -0.00000000000E+00 -0.00000000000E+00 -0.35070870271E+03  0.35070870271E+03  0.00000000000E+00 0. -1.
          6    1    1    2  501    0  0.29340969759E+02 -0.64594968199E+02 -0.14002237124E+03  0.23285975795E+03  0.17200000000E+03 0. -1.
         -6    1    1    2    0  502 -0.29340969759E+02  0.64594968199E+02 -0.11158318544E+03  0.21695209078E+03  0.17200000000E+03 0. -1.
</event>
<event>
 4    1  0.6129841E-001  0.1971780E+03  0.7818608E-02  0.1152142E+00
         21   -1    0    0  501  502  0.00000000000E+00  0.00000000000E+00  0.38960419213E+03  0.38960419213E+03  0.00000000000E+00 0.  1.
         21   -1    0    0  502  503 -0.00000000000E+00 -0.00000000000E+00 -0.10077838051E+03  0.10077838051E+03  0.00000000000E+00 0.  1.
          6    1    1    2  501    0 -0.80958242551E+02 -0.52353898291E+02  0.16867701669E+03  0.25948237640E+03  0.17200000000E+03 0.  1.
         -6    1    1    2    0  503  0.80958242551E+02  0.52353898291E+02  0.12014879493E+03  0.23090019625E+03  0.17200000000E+03 0.  1.
</event>
<event>
 4    1  0.6129841E-001  0.2030539E+03  0.7818608E-02  0.1147188E+00
         21   -1    0    0  503  502  0.00000000000E+00  0.00000000000E+00  0.84409748384E+03  0.84409748384E+03  0.00000000000E+00 0. -1.
         21   -1    0    0  501  503 -0.00000000000E+00 -0.00000000000E+00 -0.12726987194E+03  0.12726987194E+03  0.00000000000E+00 0. -1.
          6    1    1    2  501    0 -0.47750306380E+02 -0.96782121613E+02 -0.22840332026E+02  0.20433441118E+03  0.17200000000E+03 0. -1.
         -6    1    1    2    0  502  0.47750306380E+02  0.96782121613E+02  0.73966794393E+03  0.76703294460E+03  0.17200000000E+03 0. -1.
</event>
<event>
 4    1  0.6129841E-001  0.2062256E+03  0.7818608E-02  0.1144590E+00
         21   -1    0    0  501  502  0.00000000000E+00  0.00000000000E+00  0.12269998568E+03  0.12269998568E+03  0.00000000000E+00 0.  1.
         21   -1    0    0  502  503 -0.00000000000E+00 -0.00000000000E+00 -0.52988978115E+03  0.52988978115E+03  0.00000000000E+00 0.  1.
          6    1    1    2  501    0  0.28387473153E+02 -0.11017780112E+03 -0.11694793715E+02  0.20655692845E+03  0.17200000000E+03 0. -1.
         -6    1    1    2    0  503 -0.28387473153E+02  0.11017780112E+03 -0.39549500175E+03  0.44603283837E+03  0.17200000000E+03 0. -1.
</event>
<event>
 4    1  0.6129841E-001  0.4720011E+03  0.7818608E-02  0.1021357E+00
         21   -1    0    0  503  502  0.00000000000E+00  0.00000000000E+00  0.14491877546E+04  0.14491877546E+04  0.00000000000E+00 0.  1.
         21   -1    0    0  501  503 -0.00000000000E+00 -0.00000000000E+00 -0.16245804693E+03  0.16245804693E+03  0.00000000000E+00 0. -1.
          6    1    1    2  501    0  0.42196978300E+03  0.12305514986E+03  0.83013304193E+03  0.95493766026E+03  0.17200000000E+03 0.  1.
         -6    1    1    2    0  502 -0.42196978300E+03 -0.12305514986E+03  0.45659666578E+03  0.65670814132E+03  0.17200000000E+03 0. -1.
</event>
<event>
 4    1  0.6129841E-001  0.2082428E+03  0.7818608E-02  0.1142965E+00
         21   -1    0    0  503  502  0.00000000000E+00  0.00000000000E+00  0.12897500234E+03  0.12897500234E+03  0.00000000000E+00 0.  1.
         21   -1    0    0  501  503 -0.00000000000E+00 -0.00000000000E+00 -0.37321849121E+03  0.37321849121E+03  0.00000000000E+00 0. -1.
          6    1    1    2  501    0  0.84834095332E+02  0.81143369511E+02 -0.20117171065E+03  0.28954296281E+03  0.17200000000E+03 0.  1.
         -6    1    1    2    0  502 -0.84834095332E+02 -0.81143369511E+02 -0.43071778210E+02  0.21265053074E+03  0.17200000000E+03 0.  1.
</event>
<event>
 4    1  0.6129841E-001  0.3268026E+03  0.7818608E-02  0.1072560E+00
         21   -1    0    0  503  502  0.00000000000E+00  0.00000000000E+00  0.46450325981E+03  0.46450325981E+03  0.00000000000E+00 0. -1.
         21   -1    0    0  501  503 -0.00000000000E+00 -0.00000000000E+00 -0.28700616545E+03  0.28700616545E+03  0.00000000000E+00 0.  1.
          6    1    1    2  501    0  0.24809272296E+03 -0.12516363492E+03 -0.78828001900E+02  0.33617523492E+03  0.17200000000E+03 0. -1.
         -6    1    1    2    0  502 -0.24809272296E+03  0.12516363492E+03  0.25632509626E+03  0.41533419034E+03  0.17200000000E+03 0. -1.
</event>
<event>
 4    1  0.6129841E-001  0.2554517E+03  0.7818608E-02  0.1109907E+00
         21   -1    0    0  501  502  0.00000000000E+00  0.00000000000E+00  0.29386935475E+03  0.29386935475E+03  0.00000000000E+00 0. -1.
         21   -1    0    0  502  503 -0.00000000000E+00 -0.00000000000E+00 -0.23087831294E+03  0.23087831294E+03  0.00000000000E+00 0.  1.
          6    1    1    2  501    0  0.18790872124E+03  0.19022602656E+02  0.82783117712E+02  0.26853042939E+03  0.17200000000E+03 0.  1.
         -6    1    1    2    0  503 -0.18790872124E+03 -0.19022602656E+02 -0.19792075905E+02  0.25621723829E+03  0.17200000000E+03 0. -1.
</event>
<event>
 4    1  0.6129841E-001  0.2581164E+03  0.7818608E-02  0.1108280E+00
         21   -1    0    0  501  502  0.00000000000E+00  0.00000000000E+00  0.31174164095E+03  0.31174164095E+03  0.00000000000E+00 0. -1.
         21   -1    0    0  502  503 -0.00000000000E+00 -0.00000000000E+00 -0.24073050840E+03  0.24073050840E+03  0.00000000000E+00 0.  1.
          6    1    1    2  501    0  0.16944058277E+03  0.91268545336E+02  0.12804277739E+03  0.28813019852E+03  0.17200000000E+03 0.  1.
         -6    1    1    2    0  503 -0.16944058277E+03 -0.91268545336E+02 -0.57031644834E+02  0.26434195083E+03  0.17200000000E+03 0.  1.
</event>
<event>
 4    1  0.6129841E-001  0.2516816E+03  0.7818608E-02  0.1112247E+00
         21   -1    0    0  501  502  0.00000000000E+00  0.00000000000E+00  0.98924704273E+02  0.98924704273E+02  0.00000000000E+00 0.  1.
         21   -1    0    0  502  503 -0.00000000000E+00 -0.00000000000E+00 -0.71418677817E+03  0.71418677817E+03  0.00000000000E+00 0.  1.
          6    1    1    2  501    0 -0.18353414044E+03  0.86523079224E+01 -0.17688349620E+03  0.30762219420E+03  0.17200000000E+03 0. -1.
         -6    1    1    2    0  503  0.18353414044E+03 -0.86523079224E+01 -0.43837857769E+03  0.50548928823E+03  0.17200000000E+03 0. -1.
</event>
<event>
 4    1  0.6129841E-001  0.1788291E+03  0.7818608E-02  0.1168941E+00
         21   -1    0    0  503  502  0.00000000000E+00  0.00000000000E+00  0.11009722114E+03  0.11009722114E+03  0.00000000000E+00 0. -1.
         21   -1    0    0  501  503 -0.00000000000E+00 -0.00000000000E+00 -0.33781039910E+03  0.33781039910E+03  0.00000000000E+00 0. -1.
          6    1    1    2  501    0 -0.18251778543E+02 -0.45417315321E+02 -0.19769465150E+03  0.26657650906E+03  0.17200000000E+03 0. -1.
         -6    1    1    2    0  502  0.18251778543E+02  0.45417315321E+02 -0.30018526455E+02  0.18133111118E+03  0.17200000000E+03 0. -1.
</event>
<event>
 4    1  0.6129841E-001  0.2587837E+03  0.7818608E-02  0.1107876E+00
         21   -1    0    0  501  502  0.00000000000E+00  0.00000000000E+00  0.15320088269E+03  0.15320088269E+03  0.00000000000E+00 0. -1.
         21   -1    0    0  502  503 -0.00000000000E+00 -0.00000000000E+00 -0.52203041756E+03  0.52203041756E+03  0.00000000000E+00 0. -1.
          6    1    1    2  501    0 -0.15609316934E+03 -0.11410487523E+03 -0.48262587276E+02  0.26324565979E+03  0.17200000000E+03 0.  1.
         -6    1    1    2    0  503  0.15609316934E+03  0.11410487523E+03 -0.32056694759E+03  0.41198564047E+03  0.17200000000E+03 0.  1.
</event>
<event>
 4    1  0.6129841E-001  0.2068231E+03  0.7818608E-02  0.1144107E+00
         21   -1    0    0  503  502  0.00000000000E+00  0.00000000000E+00  0.14804363216E+03  0.14804363216E+03  0.00000000000E+00 0.  1.
         21   -1    0    0  501  503 -0.00000000000E+00 -0.00000000000E+00 -0.30468346364E+03  0.30468346364E+03  0.00000000000E+00 0.  1.
          6    1    1    2  501    0  0.11384019528E+03 -0.15238718492E+02 -0.12977456204E+03  0.24416643003E+03  0.17200000000E+03 0. -1.
         -6    1    1    2    0  502 -0.11384019528E+03  0.15238718492E+02 -0.26865269436E+02  0.20856066577E+03  0.17200000000E+03 0. -1.
</event>
<event>
 4    1  0.6129841E-001  0.1769837E+03  0.7818608E-02  0.1170755E+00
         21   -1    0    0  501  502  0.00000000000E+00  0.00000000000E+00  0.21944116294E+02  0.21944116294E+02  0.00000000000E+00 0.  1.
         21   -1    0    0  502  503 -0.00000000000E+00 -0.00000000000E+00 -0.15069777749E+04  0.15069777749E+04  0.00000000000E+00 0.  1.
          6    1    1    2  501    0 -0.39309879795E+02  0.13926862887E+02 -0.56685644473E+03  0.59384295323E+03  0.17200000000E+03 0.  1.
         -6    1    1    2    0  503  0.39309879795E+02 -0.13926862887E+02 -0.91817721390E+03  0.93507893800E+03  0.17200000000E+03 0.  1.
</event>
<event>
 4    1  0.6129841E-001  0.1741653E+03  0.7818608E-02  0.1173572E+00
         21   -1    0    0  503  502  0.00000000000E+00  0.00000000000E+00  0.18966590334E+03  0.18966590334E+03  0.00000000000E+00 0.  1.
         21   -1    0    0  501  503 -0.00000000000E+00 -0.00000000000E+00 -0.15993370268E+03  0.15993370268E+03  0.00000000000E+00 0.  1.
          6    1    1    2  501    0 -0.20930582889E+02 -0.17648227634E+02  0.14214931690E+02  0.17474442344E+03  0.17200000000E+03 0. -1.
         -6    1    1    2    0  502  0.20930582889E+02  0.17648227634E+02  0.15517268969E+02  0.17485518258E+03  0.17200000000E+03 0. -1.
</event>
<event>
 4    1  0.6129841E-001  0.1796170E+03  0.7818608E-02  0.1168174E+00
         21   -1    0    0  503  502  0.00000000000E+00  0.00000000000E+00  0.74857555829E+03  0.74857555829E+03  0.00000000000E+00 0.  1.
         21   -1    0    0  501  503 -0.00000000000E+00 -0.00000000000E+00 -0.43238030217E+02  0.43238030217E+02  0.00000000000E+00 0.  1.
          6    1    1    2  501    0 -0.16380287419E+01  0.51726053783E+02  0.37518224099E+03  0.41596151473E+03  0.17200000000E+03 0.  1.
         -6    1    1    2    0  502  0.16380287419E+01 -0.51726053783E+02  0.33015528708E+03  0.37585207378E+03  0.17200000000E+03 0.  1.
</event>
<event>
 4    1  0.6129841E-001  0.1900759E+03  0.7818608E-02  0.1158393E+00
         21   -1    0    0  501  502  0.00000000000E+00  0.00000000000E+00  0.77468911659E+03  0.77468911659E+03  0.00000000000E+00 0. -1.
         21   -1    0    0  502  503 -0.00000000000E+00 -0.00000000000E+00 -0.82713428167E+02  0.82713428167E+02  0.00000000000E+00 0. -1.
          6    1    1    2  501    0 -0.80814159376E+02 -0.37316306817E+01  0.62911468118E+03  0.65720174642E+03  0.17200000000E+03 0. -1.
         -6    1    1    2    0  503  0.80814159376E+02  0.37316306817E+01  0.62861007246E+02  0.20020079834E+03  0.17200000000E+03 0. -1.
</event>
<event>
 4    1  0.6129841E-001  0.2230658E+03  0.7818608E-02  0.1131618E+00
         21   -1    0    0  501  502  0.00000000000E+00  0.00000000000E+00  0.37932642640E+03  0.37932642640E+03  0.00000000000E+00 0.  1.
         21   -1    0    0  502  503 -0.00000000000E+00 -0.00000000000E+00 -0.54814188625E+03  0.54814188625E+03  0.00000000000E+00 0.  1.
          6    1    1    2  501    0 -0.10741801397E+03  0.92928492449E+02  0.32004997377E+03  0.39011577787E+03  0.17200000000E+03 0.  1.
         -6    1    1    2    0  503  0.10741801397E+03 -0.92928492449E+02 -0.48886543363E+03  0.53735253478E+03  0.17200000000E+03 0.  1.
</event>
<event>
 4    1  0.6129841E-001  0.2613641E+03  0.7818608E-02  0.1106326E+00
         21   -1    0    0  501  502  0.00000000000E+00  0.00000000000E+00  0.89614038152E+02  0.89614038152E+02  0.00000000000E+00 0. -1.
         21   -1    0    0  502  503 -0.00000000000E+00 -0.00000000000E+00 -0.76356625880E+03  0.76356625880E+03  0.00000000000E+00 0.  1.
          6    1    1    2  501    0  0.15980574793E+03  0.11484466755E+03 -0.35447060738E+03  0.44040956646E+03  0.17200000000E+03 0.  1.
         -6    1    1    2    0  503 -0.15980574793E+03 -0.11484466755E+03 -0.31948161328E+03  0.41277073050E+03  0.17200000000E+03 0.  1.
</event>
<event>
 4    1  0.6129841E-001  0.1750302E+03  0.7818608E-02  0.1172701E+00
         21   -1    0    0  503  502  0.00000000000E+00  0.00000000000E+00  0.20141694886E+03  0.20141694886E+03  0.00000000000E+00 0. -1.
         21   -1    0    0  501  503 -0.00000000000E+00 -0.00000000000E+00 -0.34461944765E+03  0.34461944765E+03  0.00000000000E+00 0. -1.
          6    1    1    2  501    0  0.28335099977E+02  0.15770407094E+02 -0.27566160578E+03  0.32653469116E+03  0.17200000000E+03 0. -1.
         -6    1    1    2    0  502 -0.28335099977E+02 -0.15770407094E+02  0.13245910699E+03  0.21950170536E+03  0.17200000000E+03 0. -1.
</event>
<event>
 4    1  0.6129841E-001  0.3102071E+03  0.7818608E-02  0.1080247E+00
         21   -1    0    0  503  502  0.00000000000E+00  0.00000000000E+00  0.12929256350E+03  0.12929256350E+03  0.00000000000E+00 0.  1.
         21   -1    0    0  501  503 -0.00000000000E+00 -0.00000000000E+00 -0.75993799580E+03  0.75993799580E+03  0.00000000000E+00 0. -1.
          6    1    1    2  501    0 -0.23872211324E+03 -0.98265920506E+02 -0.37916623155E+03  0.48989332475E+03  0.17200000000E+03 0. -1.
         -6    1    1    2    0  502  0.23872211324E+03  0.98265920506E+02 -0.25147920075E+03  0.39933723454E+03  0.17200000000E+03 0.  1.
</event>
<event>
 4    1  0.6129841E-001  0.2025201E+03  0.7818608E-02  0.1147630E+00
         21   -1    0    0  501  502  0.00000000000E+00  0.00000000000E+00  0.22554140138E+03  0.22554140138E+03  0.00000000000E+00 0.  1.
         21   -1    0    0  502  503 -0.00000000000E+00 -0.00000000000E+00 -0.18517219577E+03  0.18517219577E+03  0.00000000000E+00 0.  1.
          6    1    1    2  501    0 -0.86481468047E+01 -0.10656273173E+03 -0.73272625510E+01  0.20265264620E+03  0.17200000000E+03 0.  1.
         -6    1    1    2    0  503  0.86481468047E+01  0.10656273173E+03  0.47696468166E+02  0.20806095095E+03  0.17200000000E+03 0.  1.
</event>
<event>
 4    1  0.6129841E-001  0.1830054E+03  0.7818608E-02  0.1164926E+00
         21   -1    0    0  503  502  0.00000000000E+00  0.00000000000E+00  0.23706345925E+03  0.23706345925E+03  0.00000000000E+00 0. -1.
         21   -1    0    0  501  503 -0.00000000000E+00 -0.00000000000E+00 -0.16285023402E+03  0.16285023402E+03  0.00000000000E+00 0. -1.
          6    1    1    2  501    0  0.91537286803E+01 -0.61832020848E+02 -0.35675765084E+02  0.18645039492E+03  0.17200000000E+03 0.  1.
         -6    1    1    2    0  502 -0.91537286803E+01  0.61832020848E+02  0.10988899031E+03  0.21346329835E+03  0.17200000000E+03 0.  1.
</event>
<event>
 4    1  0.6129841E-001  0.1722954E+03  0.7818608E-02  0.1175475E+00
         21   -1    0    0  503  502  0.00000000000E+00  0.00000000000E+00  0.27055923426E+03  0.27055923426E+03  0.00000000000E+00 0. -1.
         21   -1    0    0  501  503 -0.00000000000E+00 -0.00000000000E+00 -0.13142151959E+03  0.13142151959E+03  0.00000000000E+00 0. -1.
          6    1    1    2  501    0 -0.58958287207E+01 -0.81822737529E+01 -0.12106096770E+02  0.17272020142E+03  0.17200000000E+03 0. -1.
         -6    1    1    2    0  502  0.58958287207E+01  0.81822737529E+01  0.15124381144E+03  0.22926055243E+03  0.17200000000E+03 0. -1.
</event>
<event>
 4    1  0.6129841E-001  0.2053806E+03  0.7818608E-02  0.1145277E+00
         21   -1    0    0  501  502  0.00000000000E+00  0.00000000000E+00  0.81254487464E+03  0.81254487464E+03  0.00000000000E+00 0. -1.
         21   -1    0    0  502  503 -0.00000000000E+00 -0.00000000000E+00 -0.52124566272E+02  0.52124566272E+02  0.00000000000E+00 0. -1.
          6    1    1    2  501    0  0.96135425350E+02 -0.57923725455E+02  0.35262931035E+03  0.40807916940E+03  0.17200000000E+03 0. -1.
         -6    1    1    2    0  503 -0.96135425350E+02  0.57923725455E+02  0.40779099802E+03  0.45659027152E+03  0.17200000000E+03 0. -1.
</event>
<event>
 4    1  0.6129841E-001  0.2227556E+03  0.7818608E-02  0.1131845E+00
         21   -1    0    0  501  502  0.00000000000E+00  0.00000000000E+00  0.63632447874E+02  0.63632447874E+02  0.00000000000E+00 0.  1.
         21   -1    0    0  502  503 -0.00000000000E+00 -0.00000000000E+00 -0.83503774893E+03  0.83503774893E+03  0.00000000000E+00 0.  1.
          6    1    1    2  501    0  0.11350637002E+03  0.84571507848E+02 -0.27012627849E+03  0.35012603775E+03  0.17200000000E+03 0. -1.
         -6    1    1    2    0  503 -0.11350637002E+03 -0.84571507848E+02 -0.50127902256E+03  0.54854415906E+03  0.17200000000E+03 0. -1.
</event>
<event>
 4    1  0.6129841E-001  0.2801481E+03  0.7818608E-02  0.1095608E+00
         21   -1    0    0  501  502  0.00000000000E+00  0.00000000000E+00  0.71476876090E+03  0.71476876090E+03  0.00000000000E+00 0. -1.
         21   -1    0    0  502  503 -0.00000000000E+00 -0.00000000000E+00 -0.10987989357E+03  0.10987989357E+03  0.00000000000E+00 0.  1.
          6    1    1    2  501    0  0.22001291179E+03  0.22209380057E+02  0.31343263018E+03  0.42038429035E+03  0.17200000000E+03 0.  1.
         -6    1    1    2    0  503 -0.22001291179E+03 -0.22209380057E+02  0.29145623715E+03  0.40426436411E+03  0.17200000000E+03 0.  1.
</event>
<event>
 4    1  0.6129841E-001  0.3203625E+03  0.7818608E-02  0.1075483E+00
         21   -1    0    0  503  502  0.00000000000E+00  0.00000000000E+00  0.67149192944E+03  0.67149192944E+03  0.00000000000E+00 0. -1.
         21   -1    0    0  501  503 -0.00000000000E+00 -0.00000000000E+00 -0.25877586156E+03  0.25877586156E+03  0.00000000000E+00 0.  1.
          6    1    1    2  501    0  0.71061325962E+02 -0.26076505600E+03 -0.91242454967E+02  0.33310255488E+03  0.17200000000E+03 0.  1.
         -6    1    1    2    0  502 -0.71061325962E+02  0.26076505600E+03  0.50395852286E+03  0.59716523612E+03  0.17200000000E+03 0. -1.
</event>
<event>
 4    1  0.6129841E-001  0.2324254E+03  0.7818608E-02  0.1124944E+00
         21   -1    0    0  501  502  0.00000000000E+00  0.00000000000E+00  0.37787329186E+03  0.37787329186E+03  0.00000000000E+00 0. -1.
         21   -1    0    0  502  503 -0.00000000000E+00 -0.00000000000E+00 -0.19406816751E+03  0.19406816751E+03  0.00000000000E+00 0. -1.
          6    1    1    2  501    0 -0.15536245434E+03 -0.17322785708E+02  0.23865338015E+03  0.33313211641E+03  0.17200000000E+03 0. -1.
         -6    1    1    2    0  503  0.15536245434E+03  0.17322785708E+02 -0.54848255792E+02  0.23880934297E+03  0.17200000000E+03 0. -1.
</event>
<event>
 4    1  0.6129841E-001  0.1816663E+03  0.7818608E-02  0.1166200E+00
         21   -1    0    0  503  502  0.00000000000E+00  0.00000000000E+00  0.38460953115E+02  0.38460953115E+02  0.00000000000E+00 0.  1.
         21   -1    0    0  501  503 -0.00000000000E+00 -0.00000000000E+00 -0.88259299637E+03  0.88259299637E+03  0.00000000000E+00 0.  1.
          6    1    1    2  501    0 -0.54912232183E+02  0.20082110912E+02 -0.49881223638E+03  0.53086372223E+03  0.17200000000E+03 0. -1.
         -6    1    1    2    0  502  0.54912232183E+02 -0.20082110912E+02 -0.34531980688E+03  0.39019022726E+03  0.17200000000E+03 0. -1.
</event>
<event>
 4    1  0.6129841E-001  0.2156684E+03  0.7818608E-02  0.1137154E+00
         21   -1    0    0  501  502  0.00000000000E+00  0.00000000000E+00  0.34585798815E+03  0.34585798815E+03  0.00000000000E+00 0. -1.
         21   -1    0    0  502  503 -0.00000000000E+00 -0.00000000000E+00 -0.28083256030E+03  0.28083256030E+03  0.00000000000E+00 0.  1.
          6    1    1    2  501    0  0.24700885143E+02 -0.12774469025E+03  0.25871219980E+03  0.33681573885E+03  0.17200000000E+03 0.  1.
         -6    1    1    2    0  503 -0.24700885143E+02  0.12774469025E+03 -0.19368677194E+03  0.28987480960E+03  0.17200000000E+03 0.  1.
</event>
<event>
 4    1  0.6129841E-001  0.1977603E+03  0.7818608E-02  0.1151643E+00
         21   -1    0    0  503  502  0.00000000000E+00  0.00000000000E+00  0.24822214439E+03  0.24822214439E+03  0.00000000000E+00 0.  1.
         21   -1    0    0  501  503 -0.00000000000E+00 -0.00000000000E+00 -0.30760679732E+03  0.30760679732E+03  0.00000000000E+00 0.  1.
          6    1    1    2  501    0 -0.72545454956E+02  0.65286181089E+02 -0.22379474627E+03  0.29865233455E+03  0.17200000000E+03 0.  1.
         -6    1    1    2    0  502  0.72545454956E+02 -0.65286181089E+02  0.16441009334E+03  0.25717660716E+03  0.17200000000E+03 0.  1.
</event>
<event>
 4    1  0.6129841E-001  0.2130890E+03  0.7818608E-02  0.1139143E+00
         21   -1    0    0  503  502  0.00000000000E+00  0.00000000000E+00  0.26302373762E+04  0.26302373762E+04  0.00000000000E+00 0.  1.
         21   -1    0    0  501  503 -0.00000000000E+00 -0.00000000000E+00 -0.25704254320E+02  0.25704254320E+02  0.00000000000E+00 0.  1.
          6    1    1    2  501    0 -0.88666400283E+02  0.89225526765E+02  0.54127753387E+03  0.58171152115E+03  0.17200000000E+03 0.  1.
         -6    1    1    2    0  502  0.88666400283E+02 -0.89225526765E+02  0.20632555880E+04  0.20742301094E+04  0.17200000000E+03 0.  1.
</event>
<event>
 4    1  0.6129841E-001  0.2266478E+03  0.7818608E-02  0.1129022E+00
         21   -1    0    0  503  502  0.00000000000E+00  0.00000000000E+00  0.97439611369E+03  0.97439611369E+03  0.00000000000E+00 0.  1.
         21   -1    0    0  501  503 -0.00000000000E+00 -0.00000000000E+00 -0.54971099044E+02  0.54971099044E+02  0.00000000000E+00 0.  1.
          6    1    1    2  501    0 -0.98989767320E+02  0.10948171234E+03  0.56388758556E+03  0.60773220131E+03  0.17200000000E+03 0.  1.
         -6    1    1    2    0  502  0.98989767320E+02 -0.10948171234E+03  0.35553742909E+03  0.42163501142E+03  0.17200000000E+03 0.  1.
</event>
<event>
 4    1  0.6129841E-001  0.1786591E+03  0.7818608E-02  0.1169107E+00
         21   -1    0    0  501  502  0.00000000000E+00  0.00000000000E+00  0.25179905106E+02  0.25179905106E+02  0.00000000000E+00 0.  1.
         21   -1    0    0  502  503 -0.00000000000E+00 -0.00000000000E+00 -0.12796295014E+04  0.12796295014E+04  0.00000000000E+00 0.  1.
          6    1    1    2  501    0 -0.36990071949E+02  0.31093749367E+02 -0.56407780530E+03  0.59169490204E+03  0.17200000000E+03 0.  1.
         -6    1    1    2    0  503  0.36990071949E+02 -0.31093749367E+02 -0.69037179096E+03  0.71311450443E+03  0.17200000000E+03 0.  1.
</event>
<event>
 4    1  0.6129841E-001  0.3451553E+03  0.7818608E-02  0.1064621E+00
         21   -1    0    0  503  502  0.00000000000E+00  0.00000000000E+00  0.11591574181E+04  0.11591574181E+04  0.00000000000E+00 0. -1.
         21   -1    0    0  501  503 -0.00000000000E+00 -0.00000000000E+00 -0.10695241047E+03  0.10695241047E+03  0.00000000000E+00 0. -1.
          6    1    1    2  501    0 -0.15737282391E+03  0.25452303320E+03  0.65121759426E+03  0.73703224842E+03  0.17200000000E+03 0.  1.
         -6    1    1    2    0  502  0.15737282391E+03 -0.25452303320E+03  0.40098741331E+03  0.52907758011E+03  0.17200000000E+03 0.  1.
</event>
<event>
 4    1  0.6129841E-001  0.1732210E+03  0.7818608E-02  0.1174530E+00
         21   -1    0    0  503  502  0.00000000000E+00  0.00000000000E+00  0.49538152630E+02  0.49538152630E+02  0.00000000000E+00 0.  1.
         21   -1    0    0  501  503 -0.00000000000E+00 -0.00000000000E+00 -0.71892368934E+03  0.71892368934E+03  0.00000000000E+00 0.  1.
          6    1    1    2  501    0  0.13891379350E+02 -0.15117475074E+02 -0.48717172408E+03  0.51705105862E+03  0.17200000000E+03 0. -1.
         -6    1    1    2    0  502 -0.13891379350E+02  0.15117475074E+02 -0.18221381262E+03  0.25141078335E+03  0.17200000000E+03 0. -1.
</event>
<event>
 4    1  0.6129841E-001  0.1869130E+03  0.7818608E-02  0.1161275E+00
         21   -1    0    0  501  502  0.00000000000E+00  0.00000000000E+00  0.51952445634E+03  0.51952445634E+03  0.00000000000E+00 0.  1.
         21   -1    0    0  502  503 -0.00000000000E+00 -0.00000000000E+00 -0.16184654158E+03  0.16184654158E+03  0.00000000000E+00 0. -1.
          6    1    1    2  501    0  0.64354991266E+02  0.34797932376E+02  0.43930220611E+03  0.47741270332E+03  0.17200000000E+03 0.  1.
         -6    1    1    2    0  503 -0.64354991266E+02 -0.34797932376E+02 -0.81624291342E+02  0.20395829460E+03  0.17200000000E+03 0. -1.
</event>
<event>
 4    1  0.6129841E-001  0.1846353E+03  0.7818608E-02  0.1163391E+00
         21   -1    0    0  501  502  0.00000000000E+00  0.00000000000E+00  0.28925679645E+03  0.28925679645E+03  0.00000000000E+00 0. -1.
         21   -1    0    0  502  503 -0.00000000000E+00 -0.00000000000E+00 -0.12327535371E+03  0.12327535371E+03  0.00000000000E+00 0. -1.
          6    1    1    2  501    0  0.35030655394E+02 -0.57262983282E+02  0.12624470953E+03  0.22366922622E+03  0.17200000000E+03 0.  1.
         -6    1    1    2    0  503 -0.35030655394E+02  0.57262983282E+02  0.39736733204E+02  0.18886292394E+03  0.17200000000E+03 0.  1.
</event>
<event>
 4    1  0.6129841E-001  0.2069453E+03  0.7818608E-02  0.1144008E+00
         21   -1    0    0  501  502  0.00000000000E+00  0.00000000000E+00  0.36290844565E+03  0.36290844565E+03  0.00000000000E+00 0. -1.
         21   -1    0    0  502  503 -0.00000000000E+00 -0.00000000000E+00 -0.23896932779E+03  0.23896932779E+03  0.00000000000E+00 0. -1.
          6    1    1    2  501    0  0.89973361301E+02  0.71743596143E+02  0.27607577081E+03  0.34502779679E+03  0.17200000000E+03 0. -1.
         -6    1    1    2    0  503 -0.89973361301E+02 -0.71743596143E+02 -0.15213665295E+03  0.25684997664E+03  0.17200000000E+03 0. -1.
</event>
<event>
 4    1  0.6129841E-001  0.2635060E+03  0.7818608E-02  0.1105055E+00
         21   -1    0    0  501  502  0.00000000000E+00  0.00000000000E+00  0.24885012078E+03  0.24885012078E+03  0.00000000000E+00 0.  1.
         21   -1    0    0  502  503 -0.00000000000E+00 -0.00000000000E+00 -0.43993635989E+03  0.43993635989E+03  0.00000000000E+00 0. -1.
          6    1    1    2  501    0  0.48640887452E+02  0.19361163745E+03  0.11273951298E+03  0.28661053692E+03  0.17200000000E+03 0.  1.
         -6    1    1    2    0  503 -0.48640887452E+02 -0.19361163745E+03 -0.30382575209E+03  0.40217594374E+03  0.17200000000E+03 0.  1.
</event>
<event>
 4    1  0.6129841E-001  0.2060477E+03  0.7818608E-02  0.1144735E+00
         21   -1    0    0  501  502  0.00000000000E+00  0.00000000000E+00  0.32081654746E+03  0.32081654746E+03  0.00000000000E+00 0.  1.
         21   -1    0    0  502  503 -0.00000000000E+00 -0.00000000000E+00 -0.40555556140E+03  0.40555556140E+03  0.00000000000E+00 0.  1.
          6    1    1    2  501    0 -0.39490706821E+02  0.10635855597E+03 -0.34046793162E+03  0.39796239875E+03  0.17200000000E+03 0.  1.
         -6    1    1    2    0  503  0.39490706821E+02 -0.10635855597E+03  0.25572891769E+03  0.32840971011E+03  0.17200000000E+03 0.  1.
</event>
<event>
 4    1  0.6129841E-001  0.3960020E+03  0.7818608E-02  0.1045173E+00
         21   -1    0    0  503  502  0.00000000000E+00  0.00000000000E+00  0.16505182712E+03  0.16505182712E+03  0.00000000000E+00 0. -1.
         21   -1    0    0  501  503 -0.00000000000E+00 -0.00000000000E+00 -0.10586946697E+04  0.10586946697E+04  0.00000000000E+00 0.  1.
          6    1    1    2  501    0 -0.98483650746E+02 -0.34283317601E+03 -0.25086583945E+03  0.46877637040E+03  0.17200000000E+03 0. -1.
         -6    1    1    2    0  502  0.98483650746E+02  0.34283317601E+03 -0.64277700311E+03  0.75497012641E+03  0.17200000000E+03 0.  1.
</event>
<event>
 4    1  0.6129841E-001  0.2834685E+03  0.7818608E-02  0.1093809E+00
         21   -1    0    0  501  502  0.00000000000E+00  0.00000000000E+00  0.36940940666E+03  0.36940940666E+03  0.00000000000E+00 0. -1.
         21   -1    0    0  502  503 -0.00000000000E+00 -0.00000000000E+00 -0.23889637550E+03  0.23889637550E+03  0.00000000000E+00 0.  1.
          6    1    1    2  501    0  0.94566893808E+02  0.20451766941E+03  0.15623571136E+03  0.32367263092E+03  0.17200000000E+03 0. -1.
         -6    1    1    2    0  503 -0.94566893808E+02 -0.20451766941E+03 -0.25722680199E+02  0.28463315123E+03  0.17200000000E+03 0.  1.
</event>
<event>
 4    1  0.6129841E-001  0.2131311E+03  0.7818608E-02  0.1139110E+00
         21   -1    0    0  501  502  0.00000000000E+00  0.00000000000E+00  0.49885490879E+03  0.49885490879E+03  0.00000000000E+00 0.  1.
         21   -1    0    0  502  503 -0.00000000000E+00 -0.00000000000E+00 -0.19009808915E+03  0.19009808915E+03  0.00000000000E+00 0.  1.
          6    1    1    2  501    0  0.88860945079E+02  0.89132391326E+02  0.40302110504E+03  0.45590663721E+03  0.17200000000E+03 0.  1.
         -6    1    1    2    0  503 -0.88860945079E+02 -0.89132391326E+02 -0.94264285408E+02  0.23304636073E+03  0.17200000000E+03 0.  1.
</event>
<event>
 4    1  0.6129841E-001  0.1914017E+03  0.7818608E-02  0.1157203E+00
         21   -1    0    0  501  502  0.00000000000E+00  0.00000000000E+00  0.26725139250E+03  0.26725139250E+03  0.00000000000E+00 0. -1.
         21   -1    0    0  502  503 -0.00000000000E+00 -0.00000000000E+00 -0.21763815159E+03  0.21763815159E+03  0.00000000000E+00 0. -1.
          6    1    1    2  501    0  0.56945283550E+02  0.61707684609E+02  0.17231009366E+03  0.25753712749E+03  0.17200000000E+03 0. -1.
         -6    1    1    2    0  503 -0.56945283550E+02 -0.61707684609E+02 -0.12269685275E+03  0.22735241660E+03  0.17200000000E+03 0. -1.
</event>
<event>
 4    1  0.6129841E-001  0.1905973E+03  0.7818608E-02  0.1157924E+00
         21   -1    0    0  501  502  0.00000000000E+00  0.00000000000E+00  0.22813934430E+03  0.22813934430E+03  0.00000000000E+00 0. -1.
         21   -1    0    0  502  503 -0.00000000000E+00 -0.00000000000E+00 -0.23696017590E+03  0.23696017590E+03  0.00000000000E+00 0. -1.
          6    1    1    2  501    0 -0.29371071266E+02  0.76685612419E+02  0.12877733398E+03  0.23002379165E+03  0.17200000000E+03 0. -1.
         -6    1    1    2    0  503  0.29371071266E+02 -0.76685612419E+02 -0.13759816558E+03  0.23507572854E+03  0.17200000000E+03 0. -1.
</event>
<event>
 4    1  0.6129841E-001  0.1917389E+03  0.7818608E-02  0.1156902E+00
         21   -1    0    0  503  502  0.00000000000E+00  0.00000000000E+00  0.76530115488E+03  0.76530115488E+03  0.00000000000E+00 0. -1.
         21   -1    0    0  501  503 -0.00000000000E+00 -0.00000000000E+00 -0.55188205686E+02  0.55188205686E+02  0.00000000000E+00 0. -1.
          6    1    1    2  501    0 -0.30443882640E+02 -0.79075867935E+02  0.20739481714E+03  0.28244722172E+03  0.17200000000E+03 0. -1.
         -6    1    1    2    0  502  0.30443882640E+02  0.79075867935E+02  0.50271813205E+03  0.53804213884E+03  0.17200000000E+03 0. -1.
</event>
<event>
 4    1  0.6129841E-001  0.1810761E+03  0.7818608E-02  0.1166766E+00
         21   -1    0    0  503  502  0.00000000000E+00  0.00000000000E+00  0.71674111071E+02  0.71674111071E+02  0.00000000000E+00 0.  1.
         21   -1    0    0  501  503 -0.00000000000E+00 -0.00000000000E+00 -0.48566149857E+03  0.48566149857E+03  0.00000000000E+00 0.  1.
          6    1    1    2  501    0  0.66184238689E+01  0.56220657399E+02 -0.27413649083E+03  0.32854129338E+03  0.17200000000E+03 0. -1.
         -6    1    1    2    0  502 -0.66184238689E+01 -0.56220657399E+02 -0.13985089667E+03  0.22879431626E+03  0.17200000000E+03 0. -1.
</event>
<event>
 4    1  0.6129841E-001  0.1872375E+03  0.7818608E-02  0.1160977E+00
         21   -1    0    0  501  502  0.00000000000E+00  0.00000000000E+00  0.16909018405E+03  0.16909018405E+03  0.00000000000E+00 0. -1.
         21   -1    0    0  502  503 -0.00000000000E+00 -0.00000000000E+00 -0.24102493348E+03  0.24102493348E+03  0.00000000000E+00 0. -1.
          6    1    1    2  501    0 -0.65616268190E+02  0.34181684417E+02 -0.11263487548E+03  0.21850514268E+03  0.17200000000E+03 0. -1.
         -6    1    1    2    0  503  0.65616268190E+02 -0.34181684417E+02  0.40700126052E+02  0.19160997485E+03  0.17200000000E+03 0. -1.
</event>
<event>
 4    1  0.6129841E-001  0.1990919E+03  0.7818608E-02  0.1150507E+00
         21   -1    0    0  501  502  0.00000000000E+00  0.00000000000E+00  0.33811102017E+02  0.33811102017E+02  0.00000000000E+00 0. -1.
         21   -1    0    0  502  503 -0.00000000000E+00 -0.00000000000E+00 -0.12333439344E+04  0.12333439344E+04  0.00000000000E+00 0. -1.
          6    1    1    2  501    0  0.69090614684E+02  0.72664115262E+02 -0.45884033140E+03  0.50017200682E+03  0.17200000000E+03 0.  1.
         -6    1    1    2    0  503 -0.69090614684E+02 -0.72664115262E+02 -0.74069250100E+03  0.76698302962E+03  0.17200000000E+03 0.  1.
</event>
<event>
 4    1  0.6129841E-001  0.2583837E+03  0.7818608E-02  0.1108118E+00
         21   -1    0    0  501  502  0.00000000000E+00  0.00000000000E+00  0.58021657702E+03  0.58021657702E+03  0.00000000000E+00 0. -1.
         21   -1    0    0  502  503 -0.00000000000E+00 -0.00000000000E+00 -0.12996090854E+03  0.12996090854E+03  0.00000000000E+00 0.  1.
          6    1    1    2  501    0  0.64513174784E+02  0.18170361952E+03  0.34534755786E+03  0.43130857954E+03  0.17200000000E+03 0. -1.
         -6    1    1    2    0  503 -0.64513174784E+02 -0.18170361952E+03  0.10490811062E+03  0.27886890601E+03  0.17200000000E+03 0.  1.
</event>
<event>
 4    1  0.6129841E-001  0.3354886E+03  0.7818608E-02  0.1068734E+00
         21   -1    0    0  503  502  0.00000000000E+00  0.00000000000E+00  0.14331909476E+04  0.14331909476E+04  0.00000000000E+00 0.  1.
         21   -1    0    0  501  503 -0.00000000000E+00 -0.00000000000E+00 -0.91758227161E+02  0.91758227161E+02  0.00000000000E+00 0. -1.
          6    1    1    2  501    0  0.19847391998E+03  0.20875038493E+03  0.38124451997E+03  0.50783856109E+03  0.17200000000E+03 0. -1.
         -6    1    1    2    0  502 -0.19847391998E+03 -0.20875038493E+03  0.96018820043E+03  0.10171106136E+04  0.17200000000E+03 0.  1.
</event>
<event>
 4    1  0.6129841E-001  0.1732152E+03  0.7818608E-02  0.1174536E+00
         21   -1    0    0  501  502  0.00000000000E+00  0.00000000000E+00  0.73932141184E+02  0.73932141184E+02  0.00000000000E+00 0.  1.
         21   -1    0    0  502  503 -0.00000000000E+00 -0.00000000000E+00 -0.40733443601E+03  0.40733443601E+03  0.00000000000E+00 0.  1.
          6    1    1    2  501    0 -0.28920471589E+01 -0.20276780993E+02 -0.18134941792E+03  0.25078102633E+03  0.17200000000E+03 0. -1.
         -6    1    1    2    0  503  0.28920471589E+01  0.20276780993E+02 -0.15205287690E+03  0.23048555087E+03  0.17200000000E+03 0. -1.
</event>
<event>
 4    1  0.6129841E-001  0.2600483E+03  0.7818608E-02  0.1107114E+00
         21   -1    0    0  503  502  0.00000000000E+00  0.00000000000E+00  0.45636601987E+03  0.45636601987E+03  0.00000000000E+00 0.  1.
         21   -1    0    0  501  503 -0.00000000000E+00 -0.00000000000E+00 -0.23879586068E+03  0.23879586068E+03  0.00000000000E+00 0.  1.
          6    1    1    2  501    0 -0.16906931324E+03 -0.97245395423E+02 -0.10532669748E+03  0.28056873099E+03  0.17200000000E+03 0.  1.
         -6    1    1    2    0  502  0.16906931324E+03  0.97245395423E+02  0.32289685667E+03  0.41459314955E+03  0.17200000000E+03 0.  1.
</event>
<event>
 4    1  0.6129841E-001  0.1992133E+03  0.7818608E-02  0.1150404E+00
         21   -1    0    0  501  502  0.00000000000E+00  0.00000000000E+00  0.15111024427E+04  0.15111024427E+04  0.00000000000E+00 0. -1.
         21   -1    0    0  502  503 -0.00000000000E+00 -0.00000000000E+00 -0.49064002087E+02  0.49064002087E+02  0.00000000000E+00 0. -1.
          6    1    1    2  501    0 -0.49315765454E+02 -0.87577930994E+02  0.12628057492E+04  0.12784225823E+04  0.17200000000E+03 0. -1.
         -6    1    1    2    0  503  0.49315765454E+02  0.87577930994E+02  0.19923269140E+03  0.28174386247E+03  0.17200000000E+03 0. -1.
</event>
<event>
 4    1  0.6129841E-001  0.1925025E+03  0.7818608E-02  0.1156223E+00
         21   -1    0    0  501  502  0.00000000000E+00  0.00000000000E+00  0.18494571662E+03  0.18494571662E+03  0.00000000000E+00 0. -1.
         21   -1    0    0  502  503 -0.00000000000E+00 -0.00000000000E+00 -0.57659897393E+03  0.57659897393E+03  0.00000000000E+00 0. -1.
          6    1    1    2  501    0 -0.86251136792E+02  0.58276943899E+01  0.11175166680E+03  0.22258853442E+03  0.17200000000E+03 0. -1.
         -6    1    1    2    0  503  0.86251136792E+02 -0.58276943899E+01 -0.50340492411E+03  0.53895615614E+03  0.17200000000E+03 0. -1.
</event>
<event>
 4    1  0.6129841E-001  0.1917386E+03  0.7818608E-02  0.1156903E+00
         21   -1    0    0  503  502  0.00000000000E+00  0.00000000000E+00  0.25591378189E+03  0.25591378189E+03  0.00000000000E+00 0. -1.
         21   -1    0    0  501  503 -0.00000000000E+00 -0.00000000000E+00 -0.14485463871E+03  0.14485463871E+03  0.00000000000E+00 0. -1.
          6    1    1    2  501    0  0.83448609167E+02  0.14697703287E+02  0.73753435839E+02  0.20543432564E+03  0.17200000000E+03 0. -1.
         -6    1    1    2    0  502 -0.83448609167E+02 -0.14697703287E+02  0.37305707337E+02  0.19533409496E+03  0.17200000000E+03 0. -1.
</event>
<event>
 4    1  0.6129841E-001  0.2054650E+03  0.7818608E-02  0.1145208E+00
         21   -1    0    0  503  502  0.00000000000E+00  0.00000000000E+00  0.29967277698E+03  0.29967277698E+03  0.00000000000E+00 0.  1.
         21   -1    0    0  501  503 -0.00000000000E+00 -0.00000000000E+00 -0.17098410972E+03  0.17098410972E+03  0.00000000000E+00 0. -1.
          6    1    1    2  501    0  0.88856423274E+02 -0.68821387260E+02 -0.34410614127E+02  0.20832651695E+03  0.17200000000E+03 0. -1.
         -6    1    1    2    0  502 -0.88856423274E+02  0.68821387260E+02  0.16309928139E+03  0.26233036974E+03  0.17200000000E+03 0.  1.
</event>
<event>
 4    1  0.6129841E-001  0.2966621E+03  0.7818608E-02  0.1086921E+00
         21   -1    0    0  503  502  0.00000000000E+00  0.00000000000E+00  0.35856865814E+02  0.35856865814E+02  0.00000000000E+00 0.  1.
         21   -1    0    0  501  503 -0.00000000000E+00 -0.00000000000E+00 -0.27196616339E+04  0.27196616339E+04  0.00000000000E+00 0.  1.
          6    1    1    2  501    0  0.18053856642E+03 -0.16071792681E+03 -0.17721541377E+04  0.17968134888E+04  0.17200000000E+03 0.  1.
         -6    1    1    2    0  502 -0.18053856642E+03  0.16071792681E+03 -0.91165063042E+03  0.95870501089E+03  0.17200000000E+03 0.  1.
</event>
<event>
 4    1  0.6129841E-001  0.2399216E+03  0.7818608E-02  0.1119845E+00
         21   -1    0    0  503  502  0.00000000000E+00  0.00000000000E+00  0.23275308810E+03  0.23275308810E+03  0.00000000000E+00 0.  1.
         21   -1    0    0  501  503 -0.00000000000E+00 -0.00000000000E+00 -0.46220846179E+03  0.46220846179E+03  0.00000000000E+00 0. -1.
          6    1    1    2  501    0  0.12955160922E+03 -0.10580520516E+03 -0.35166182722E+03  0.42570929237E+03  0.17200000000E+03 0. -1.
         -6    1    1    2    0  502 -0.12955160922E+03  0.10580520516E+03  0.12220645353E+03  0.26925225751E+03  0.17200000000E+03 0.  1.
</event>
<event>
 4    1  0.6129841E-001  0.1976741E+03  0.7818608E-02  0.1151716E+00
         21   -1    0    0  503  502  0.00000000000E+00  0.00000000000E+00  0.11134111837E+03  0.11134111837E+03  0.00000000000E+00 0. -1.
         21   -1    0    0  501  503 -0.00000000000E+00 -0.00000000000E+00 -0.39224692529E+03  0.39224692529E+03  0.00000000000E+00 0. -1.
          6    1    1    2  501    0  0.35749712473E+02 -0.90625703299E+02 -0.22215429996E+03  0.29736777403E+03  0.17200000000E+03 0. -1.
         -6    1    1    2    0  502 -0.35749712473E+02  0.90625703299E+02 -0.58751506962E+02  0.20622026964E+03  0.17200000000E+03 0. -1.
</event>
<event>
 4    1  0.6129841E-001  0.1832541E+03  0.7818608E-02  0.1164690E+00
         21   -1    0    0  503  502  0.00000000000E+00  0.00000000000E+00  0.11078601886E+03  0.11078601886E+03  0.00000000000E+00 0.  1.
         21   -1    0    0  501  503 -0.00000000000E+00 -0.00000000000E+00 -0.30429140300E+03  0.30429140300E+03  0.00000000000E+00 0.  1.
          6    1    1    2  501    0  0.56979598530E+02  0.27411513515E+02 -0.83906090954E+02  0.20154974031E+03  0.17200000000E+03 0.  1.
         -6    1    1    2    0  502 -0.56979598530E+02 -0.27411513515E+02 -0.10959929319E+03  0.21352768155E+03  0.17200000000E+03 0.  1.
</event>
<event>
 4    1  0.6129841E-001  0.2003423E+03  0.7818608E-02  0.1149451E+00
         21   -1    0    0  501  502  0.00000000000E+00  0.00000000000E+00  0.57751296981E+02  0.57751296981E+02  0.00000000000E+00 0.  1.
         21   -1    0    0  502  503 -0.00000000000E+00 -0.00000000000E+00 -0.69528852404E+03  0.69528852404E+03  0.00000000000E+00 0.  1.
          6    1    1    2  501    0  0.49315454561E+02 -0.90116710437E+02 -0.32646524809E+03  0.38303602150E+03  0.17200000000E+03 0.  1.
         -6    1    1    2    0  503 -0.49315454561E+02  0.90116710437E+02 -0.31107197897E+03  0.37000379952E+03  0.17200000000E+03 0.  1.
</event>
<event>
 4    1  0.6129841E-001  0.1984963E+03  0.7818608E-02  0.1151014E+00
         21   -1    0    0  503  502  0.00000000000E+00  0.00000000000E+00  0.12806051048E+03  0.12806051048E+03  0.00000000000E+00 0. -1.
         21   -1    0    0  501  503 -0.00000000000E+00 -0.00000000000E+00 -0.31764878117E+03  0.31764878117E+03  0.00000000000E+00 0. -1.
          6    1    1    2  501    0 -0.61834559223E+02  0.77416151126E+02 -0.13428708385E+03  0.23965348748E+03  0.17200000000E+03 0. -1.
         -6    1    1    2    0  502  0.61834559223E+02 -0.77416151126E+02 -0.55301186830E+02  0.20605580418E+03  0.17200000000E+03 0. -1.
</event>
<event>
 4    1  0.6129841E-001  0.1739713E+03  0.7818608E-02  0.1173769E+00
         21   -1    0    0  503  502  0.00000000000E+00  0.00000000000E+00  0.19949039814E+03  0.19949039814E+03  0.00000000000E+00 0. -1.
         21   -1    0    0  501  503 -0.00000000000E+00 -0.00000000000E+00 -0.15172216331E+03  0.15172216331E+03  0.00000000000E+00 0. -1.
          6    1    1    2  501    0 -0.25931746629E+02 -0.30912089914E+01  0.22823687668E+02  0.17546205224E+03  0.17200000000E+03 0.  1.
         -6    1    1    2    0  502  0.25931746629E+02  0.30912089914E+01  0.24944547167E+02  0.17575050922E+03  0.17200000000E+03 0.  1.
</event>
<event>
 4    1  0.6129841E-001  0.1887076E+03  0.7818608E-02  0.1159632E+00
         21   -1    0    0  501  502  0.00000000000E+00  0.00000000000E+00  0.63667994851E+03  0.63667994851E+03  0.00000000000E+00 0.  1.
         21   -1    0    0  502  503 -0.00000000000E+00 -0.00000000000E+00 -0.82893234037E+02  0.82893234037E+02  0.00000000000E+00 0.  1.
          6    1    1    2  501    0 -0.18278430506E+02  0.75448326555E+02  0.48208432904E+03  0.51770247373E+03  0.17200000000E+03 0.  1.
         -6    1    1    2    0  503  0.18278430506E+02 -0.75448326555E+02  0.71702385437E+02  0.20187070882E+03  0.17200000000E+03 0.  1.
</event>
<event>
 4    1  0.6129841E-001  0.2436507E+03  0.7818608E-02  0.1117384E+00
         21   -1    0    0  501  502  0.00000000000E+00  0.00000000000E+00  0.15906755088E+03  0.15906755088E+03  0.00000000000E+00 0. -1.
         21   -1    0    0  502  503 -0.00000000000E+00 -0.00000000000E+00 -0.63548462566E+03  0.63548462566E+03  0.00000000000E+00 0. -1.
          6    1    1    2  501    0 -0.11962501005E+02  0.17215857329E+03 -0.49343026780E+03  0.55030819090E+03  0.17200000000E+03 0. -1.
         -6    1    1    2    0  503  0.11962501005E+02 -0.17215857329E+03  0.17013193015E+02  0.24424398565E+03  0.17200000000E+03 0. -1.
</event>
<event>
 4    1  0.6129841E-001  0.1871730E+03  0.7818608E-02  0.1161036E+00
         21   -1    0    0  501  502  0.00000000000E+00  0.00000000000E+00  0.37569669944E+03  0.37569669944E+03  0.00000000000E+00 0. -1.
         21   -1    0    0  502  503 -0.00000000000E+00 -0.00000000000E+00 -0.94561457649E+02  0.94561457649E+02  0.00000000000E+00 0. -1.
          6    1    1    2  501    0 -0.71513270964E+02 -0.18318849879E+02  0.16825753233E+03  0.25168298586E+03  0.17200000000E+03 0. -1.
         -6    1    1    2    0  503  0.71513270964E+02  0.18318849879E+02  0.11287770946E+03  0.21857517123E+03  0.17200000000E+03 0. -1.
</event>
<event>
 4    1  0.6129841E-001  0.1818362E+03  0.7818608E-02  0.1166038E+00
         21   -1    0    0  501  502  0.00000000000E+00  0.00000000000E+00  0.85226377440E+02  0.85226377440E+02  0.00000000000E+00 0.  1.
         21   -1    0    0  502  503 -0.00000000000E+00 -0.00000000000E+00 -0.54733160743E+03  0.54733160743E+03  0.00000000000E+00 0.  1.
          6    1    1    2  501    0 -0.44622483099E+02  0.38590422775E+02 -0.60384977423E+02  0.19160044944E+03  0.17200000000E+03 0.  1.
         -6    1    1    2    0  503  0.44622483099E+02 -0.38590422775E+02 -0.40172025256E+03  0.44095753542E+03  0.17200000000E+03 0.  1.
</event>
<event>
 4    1  0.6129841E-001  0.1728116E+03  0.7818608E-02  0.1174947E+00
         21   -1    0    0  501  502  0.00000000000E+00  0.00000000000E+00  0.18667717959E+03  0.18667717959E+03  0.00000000000E+00 0. -1.
         21   -1    0    0  502  503 -0.00000000000E+00 -0.00000000000E+00 -0.24285998461E+03  0.24285998461E+03  0.00000000000E+00 0. -1.
          6    1    1    2  501    0  0.11881988641E+02 -0.11776017144E+02  0.97375232648E+02  0.19835773786E+03  0.17200000000E+03 0. -1.
         -6    1    1    2    0  503 -0.11881988641E+02  0.11776017144E+02 -0.15355803767E+03  0.23117942635E+03  0.17200000000E+03 0. -1.
</event>
<event>
 4    1  0.6129841E-001  0.1725916E+03  0.7818608E-02  0.1175172E+00
         21   -1    0    0  503  502  0.00000000000E+00  0.00000000000E+00  0.23568678866E+04  0.23568678866E+04  0.00000000000E+00 0.  1.
         21   -1    0    0  501  503 -0.00000000000E+00 -0.00000000000E+00 -0.35579005010E+02  0.35579005010E+02  0.00000000000E+00 0.  1.
          6    1    1    2  501    0  0.16662592287E+01 -0.14180484763E+02  0.20010647029E+03  0.26425454021E+03  0.17200000000E+03 0.  1.
         -6    1    1    2    0  502 -0.16662592287E+01  0.14180484763E+02  0.21211824113E+04  0.21281923514E+04  0.17200000000E+03 0.  1.
</event>
<event>
 4    1  0.6129841E-001  0.1759505E+03  0.7818608E-02  0.1171781E+00
         21   -1    0    0  501  502  0.00000000000E+00  0.00000000000E+00  0.79100316376E+02  0.79100316376E+02  0.00000000000E+00 0.  1.
         21   -1    0    0  502  503 -0.00000000000E+00 -0.00000000000E+00 -0.39392419684E+03  0.39392419684E+03  0.00000000000E+00 0.  1.
          6    1    1    2  501    0  0.29272600317E+02  0.22753073745E+02 -0.17640489810E+03  0.24915311672E+03  0.17200000000E+03 0.  1.
         -6    1    1    2    0  503 -0.29272600317E+02 -0.22753073745E+02 -0.13841898236E+03  0.22387139650E+03  0.17200000000E+03 0.  1.
</event>
<event>
 4    1  0.6129841E-001  0.1943777E+03  0.7818608E-02  0.1154571E+00
         21   -1    0    0  501  502  0.00000000000E+00  0.00000000000E+00  0.15154602750E+03  0.15154602750E+03  0.00000000000E+00 0. -1.
         21   -1    0    0  502  503 -0.00000000000E+00 -0.00000000000E+00 -0.31045090562E+03  0.31045090562E+03  0.00000000000E+00 0. -1.
          6    1    1    2  501    0  0.38213115148E+02 -0.82088063312E+02  0.23056310571E+02  0.19574035293E+03  0.17200000000E+03 0. -1.
         -6    1    1    2    0  503 -0.38213115148E+02  0.82088063312E+02 -0.18196118869E+03  0.26625658020E+03  0.17200000000E+03 0. -1.
</event>
<event>
 4    1  0.6129841E-001  0.1759657E+03  0.7818608E-02  0.1171766E+00
         21   -1    0    0  501  502  0.00000000000E+00  0.00000000000E+00  0.14742506735E+03  0.14742506735E+03  0.00000000000E+00 0.  1.
         21   -1    0    0  502  503 -0.00000000000E+00 -0.00000000000E+00 -0.33273641876E+03  0.33273641876E+03  0.00000000000E+00 0. -1.
          6    1    1    2  501    0  0.23446009157E+02  0.28813565918E+02  0.53137701726E+02  0.18381390663E+03  0.17200000000E+03 0.  1.
         -6    1    1    2    0  503 -0.23446009157E+02 -0.28813565918E+02 -0.23844905313E+03  0.29634757948E+03  0.17200000000E+03 0. -1.
</event>
<event>
 4    1  0.6129841E-001  0.2044319E+03  0.7818608E-02  0.1146053E+00
         21   -1    0    0  501  502  0.00000000000E+00  0.00000000000E+00  0.44008556459E+03  0.44008556459E+03  0.00000000000E+00 0. -1.
         21   -1    0    0  502  503 -0.00000000000E+00 -0.00000000000E+00 -0.37541042997E+03  0.37541042997E+03  0.00000000000E+00 0. -1.
          6    1    1    2  501    0 -0.23582116107E+02 -0.10794571513E+03 -0.32008477818E+03  0.37979818172E+03  0.17200000000E+03 0. -1.
         -6    1    1    2    0  503  0.23582116107E+02  0.10794571513E+03  0.38475991280E+03  0.43569781284E+03  0.17200000000E+03 0. -1.
</event>
<event>
 4    1  0.6129841E-001  0.1853392E+03  0.7818608E-02  0.1162734E+00
         21   -1    0    0  503  502  0.00000000000E+00  0.00000000000E+00  0.98617969873E+03  0.98617969873E+03  0.00000000000E+00 0.  1.
         21   -1    0    0  501  503 -0.00000000000E+00 -0.00000000000E+00 -0.44834398955E+02  0.44834398955E+02  0.00000000000E+00 0.  1.
          6    1    1    2  501    0 -0.56273079297E+02  0.39999457164E+02  0.22718277103E+03  0.29319383943E+03  0.17200000000E+03 0.  1.
         -6    1    1    2    0  502  0.56273079297E+02 -0.39999457164E+02  0.71416252875E+03  0.73782025826E+03  0.17200000000E+03 0.  1.
</event>
<event>
 4    1  0.6129841E-001  0.1966511E+03  0.7818608E-02  0.1152596E+00
         21   -1    0    0  503  502  0.00000000000E+00  0.00000000000E+00  0.26636502858E+03  0.26636502858E+03  0.00000000000E+00 0.  1.
         21   -1    0    0  501  503 -0.00000000000E+00 -0.00000000000E+00 -0.14745680095E+03  0.14745680095E+03  0.00000000000E+00 0.  1.
          6    1    1    2  501    0 -0.78344985966E+02  0.54311411718E+02  0.33760217281E+02  0.19952798936E+03  0.17200000000E+03 0. -1.
         -6    1    1    2    0  502  0.78344985966E+02 -0.54311411718E+02  0.85148010350E+02  0.21429384017E+03  0.17200000000E+03 0. -1.
</event>
<event>
 4    1  0.6129841E-001  0.1984457E+03  0.7818608E-02  0.1151057E+00
         21   -1    0    0  501  502  0.00000000000E+00  0.00000000000E+00  0.59337858911E+02  0.59337858911E+02  0.00000000000E+00 0. -1.
         21   -1    0    0  502  503 -0.00000000000E+00 -0.00000000000E+00 -0.69232094082E+03  0.69232094082E+03  0.00000000000E+00 0. -1.
          6    1    1    2  501    0 -0.55792633840E+02  0.81754879489E+02 -0.24003467564E+03  0.31144393367E+03  0.17200000000E+03 0. -1.
         -6    1    1    2    0  503  0.55792633840E+02 -0.81754879489E+02 -0.39294840627E+03  0.44021486606E+03  0.17200000000E+03 0. -1.
</event>
<event>
 4    1  0.6129841E-001  0.1773636E+03  0.7818608E-02  0.1170379E+00
         21   -1    0    0  501  502  0.00000000000E+00  0.00000000000E+00  0.21190313668E+03  0.21190313668E+03  0.00000000000E+00 0. -1.
         21   -1    0    0  502  503 -0.00000000000E+00 -0.00000000000E+00 -0.34874119320E+03  0.34874119320E+03  0.00000000000E+00 0. -1.
          6    1    1    2  501    0 -0.22642692442E+02  0.36893966572E+02  0.14401909958E+03  0.22847178674E+03  0.17200000000E+03 0. -1.
         -6    1    1    2    0  503  0.22642692442E+02 -0.36893966572E+02 -0.28085715609E+03  0.33217254315E+03  0.17200000000E+03 0. -1.
</event>
<event>
 4    1  0.6129841E-001  0.1721101E+03  0.7818608E-02  0.1175665E+00
         21   -1    0    0  501  502  0.00000000000E+00  0.00000000000E+00  0.12549374771E+04  0.12549374771E+04  0.00000000000E+00 0.  1.
         21   -1    0    0  502  503 -0.00000000000E+00 -0.00000000000E+00 -0.31239609338E+02  0.31239609338E+02  0.00000000000E+00 0.  1.
          6    1    1    2  501    0 -0.16303317762E+01  0.59352035343E+01  0.92977937397E+03  0.94557472940E+03  0.17200000000E+03 0.  1.
         -6    1    1    2    0  503  0.16303317762E+01 -0.59352035343E+01  0.29391849376E+03  0.34060235700E+03  0.17200000000E+03 0.  1.
</event>
<event>
 4    1  0.6129841E-001  0.1730009E+03  0.7818608E-02  0.1174754E+00
         21   -1    0    0  501  502  0.00000000000E+00  0.00000000000E+00  0.24443093844E+03  0.24443093844E+03  0.00000000000E+00 0. -1.
         21   -1    0    0  502  503 -0.00000000000E+00 -0.00000000000E+00 -0.21377010171E+03  0.21377010171E+03  0.00000000000E+00 0. -1.
          6    1    1    2  501    0  0.41701869199E+01  0.18108177491E+02  0.16507398013E+03  0.23912071317E+03  0.17200000000E+03 0. -1.
         -6    1    1    2    0  503 -0.41701869199E+01 -0.18108177491E+02 -0.13441314340E+03  0.21908032698E+03  0.17200000000E+03 0. -1.
</event>
<event>
 4    1  0.6129841E-001  0.1907533E+03  0.7818608E-02  0.1157784E+00
         21   -1    0    0  501  502  0.00000000000E+00  0.00000000000E+00  0.43266708628E+03  0.43266708628E+03  0.00000000000E+00 0. -1.
         21   -1    0    0  502  503 -0.00000000000E+00 -0.00000000000E+00 -0.18031704749E+03  0.18031704749E+03  0.00000000000E+00 0.  1.
          6    1    1    2  501    0  0.79213388879E+02  0.22979362318E+02  0.35006229541E+03  0.39866078656E+03  0.17200000000E+03 0. -1.
         -6    1    1    2    0  503 -0.79213388879E+02 -0.22979362318E+02 -0.97712256612E+02  0.21432334722E+03  0.17200000000E+03 0.  1.
</event>
<event>
 4    1  0.6129841E-001  0.3999459E+03  0.7818608E-02  0.1043798E+00
         21   -1    0    0  503  502  0.00000000000E+00  0.00000000000E+00  0.94913207670E+03  0.94913207670E+03  0.00000000000E+00 0.  1.
         21   -1    0    0  501  503 -0.00000000000E+00 -0.00000000000E+00 -0.17010813493E+03  0.17010813493E+03  0.00000000000E+00 0. -1.
          6    1    1    2  501    0 -0.17619062968E+03 -0.31516596503E+03  0.44342280960E+03  0.59714362726E+03  0.17200000000E+03 0. -1.
         -6    1    1    2    0  502  0.17619062968E+03  0.31516596503E+03  0.33560113216E+03  0.52209658437E+03  0.17200000000E+03 0. -1.
</event>
<event>
 4    1  0.6129841E-001  0.1781580E+03  0.7818608E-02  0.1169598E+00
         21   -1    0    0  501  502  0.00000000000E+00  0.00000000000E+00  0.65594240641E+03  0.65594240641E+03  0.00000000000E+00 0. -1.
         21   -1    0    0  502  503 -0.00000000000E+00 -0.00000000000E+00 -0.90918010860E+02  0.90918010860E+02  0.00000000000E+00 0. -1.
          6    1    1    2  501    0 -0.29602926203E+02 -0.35776022127E+02  0.53791650443E+03  0.56665194144E+03  0.17200000000E+03 0. -1.
         -6    1    1    2    0  503  0.29602926203E+02  0.35776022127E+02  0.27107891116E+02  0.18020847583E+03  0.17200000000E+03 0. -1.
</event>
<event>
 4    1  0.6129841E-001  0.3553541E+03  0.7818608E-02  0.1060439E+00
         21   -1    0    0  503  502  0.00000000000E+00  0.00000000000E+00  0.25175942603E+04  0.25175942603E+04  0.00000000000E+00 0. -1.
         21   -1    0    0  501  503 -0.00000000000E+00 -0.00000000000E+00 -0.55669489908E+02  0.55669489908E+02  0.00000000000E+00 0.  1.
          6    1    1    2  501    0  0.17591968541E+03  0.25640754123E+03  0.82611182257E+03  0.89929822990E+03  0.17200000000E+03 0. -1.
         -6    1    1    2    0  502 -0.17591968541E+03 -0.25640754123E+03  0.16358129479E+04  0.16739655203E+04  0.17200000000E+03 0.  1.
</event>
<event>
 4    1  0.6129841E-001  0.2163701E+03  0.7818608E-02  0.1136619E+00
         21   -1    0    0  503  502  0.00000000000E+00  0.00000000000E+00  0.53305073032E+02  0.53305073032E+02  0.00000000000E+00 0.  1.
         21   -1    0    0  501  503 -0.00000000000E+00 -0.00000000000E+00 -0.97609718912E+03  0.97609718912E+03  0.00000000000E+00 0.  1.
          6    1    1    2  501    0 -0.11095208902E+03  0.70154523210E+02 -0.29844856705E+03  0.36862931294E+03  0.17200000000E+03 0.  1.
         -6    1    1    2    0  502  0.11095208902E+03 -0.70154523210E+02 -0.62434354904E+03  0.66077294921E+03  0.17200000000E+03 0.  1.
</event>
<event>
 4    1  0.6129841E-001  0.2230866E+03  0.7818608E-02  0.1131603E+00
         21   -1    0    0  501  502  0.00000000000E+00  0.00000000000E+00  0.85820735894E+02  0.85820735894E+02  0.00000000000E+00 0.  1.
         21   -1    0    0  502  503 -0.00000000000E+00 -0.00000000000E+00 -0.58031621906E+03  0.58031621906E+03  0.00000000000E+00 0.  1.
          6    1    1    2  501    0  0.13764556984E+03 -0.35175404014E+02 -0.23834869765E+03  0.32646242297E+03  0.17200000000E+03 0. -1.
         -6    1    1    2    0  503 -0.13764556984E+03  0.35175404014E+02 -0.25614678552E+03  0.33967453198E+03  0.17200000000E+03 0. -1.
</event>
<event>
 4    1  0.6129841E-001  0.2204964E+03  0.7818608E-02  0.1133513E+00
         21   -1    0    0  503  502  0.00000000000E+00  0.00000000000E+00  0.55815452952E+02  0.55815452952E+02  0.00000000000E+00 0.  1.
         21   -1    0    0  501  503 -0.00000000000E+00 -0.00000000000E+00 -0.12126176994E+04  0.12126176994E+04  0.00000000000E+00 0. -1.
          6    1    1    2  501    0  0.11351694438E+03  0.78412894818E+02 -0.91499551571E+03  0.94118832999E+03  0.17200000000E+03 0. -1.
         -6    1    1    2    0  502 -0.11351694438E+03 -0.78412894818E+02 -0.24180673074E+03  0.32724482236E+03  0.17200000000E+03 0.  1.
</event>
<event>
 4    1  0.6129841E-001  0.1729421E+03  0.7818608E-02  0.1174814E+00
         21   -1    0    0  501  502  0.00000000000E+00  0.00000000000E+00  0.59963659042E+02  0.59963659042E+02  0.00000000000E+00 0. -1.
         21   -1    0    0  502  503 -0.00000000000E+00 -0.00000000000E+00 -0.55384066251E+03  0.55384066251E+03  0.00000000000E+00 0. -1.
          6    1    1    2  501    0  0.58068677220E-01 -0.18026376124E+02 -0.15017538611E+03  0.22904497419E+03  0.17200000000E+03 0.  1.
         -6    1    1    2    0  503 -0.58068677220E-01  0.18026376124E+02 -0.34370161737E+03  0.38475934737E+03  0.17200000000E+03 0.  1.
</event>
<event>
 4    1  0.6129841E-001  0.2485174E+03  0.7818608E-02  0.1114245E+00
         21   -1    0    0  501  502  0.00000000000E+00  0.00000000000E+00  0.31267440451E+03  0.31267440451E+03  0.00000000000E+00 0. -1.
         21   -1    0    0  502  503 -0.00000000000E+00 -0.00000000000E+00 -0.23050633852E+03  0.23050633852E+03  0.00000000000E+00 0.  1.
          6    1    1    2  501    0  0.14733151526E+03 -0.10232453561E+03  0.14381697373E+03  0.28713099434E+03  0.17200000000E+03 0.  1.
         -6    1    1    2    0  503 -0.14733151526E+03  0.10232453561E+03 -0.61648907739E+02  0.25604974869E+03  0.17200000000E+03 0.  1.
</event>
<event>
 4    1  0.6129841E-001  0.1833151E+03  0.7818608E-02  0.1164633E+00
         21   -1    0    0  501  502  0.00000000000E+00  0.00000000000E+00  0.15201712690E+03  0.15201712690E+03  0.00000000000E+00 0. -1.
         21   -1    0    0  502  503 -0.00000000000E+00 -0.00000000000E+00 -0.23379652738E+03  0.23379652738E+03  0.00000000000E+00 0. -1.
          6    1    1    2  501    0  0.44484404877E+02 -0.45183558238E+02  0.41410330301E+01  0.18336184000E+03  0.17200000000E+03 0. -1.
         -6    1    1    2    0  503 -0.44484404877E+02  0.45183558238E+02 -0.85920433503E+02  0.20245181428E+03  0.17200000000E+03 0. -1.
</event>
<event>
 4    1  0.6129841E-001  0.2198879E+03  0.7818608E-02  0.1133967E+00
         21   -1    0    0  503  502  0.00000000000E+00  0.00000000000E+00  0.45358223528E+03  0.45358223528E+03  0.00000000000E+00 0. -1.
         21   -1    0    0  501  503 -0.00000000000E+00 -0.00000000000E+00 -0.10665114165E+03  0.10665114165E+03  0.00000000000E+00 0.  1.
          6    1    1    2  501    0 -0.84640298881E+02  0.10771587078E+03  0.17975327156E+03  0.28401043581E+03  0.17200000000E+03 0.  1.
         -6    1    1    2    0  502  0.84640298881E+02 -0.10771587078E+03  0.16717782206E+03  0.27622294112E+03  0.17200000000E+03 0.  1.
</event>
<event>
 4    1  0.6129841E-001  0.1855458E+03  0.7818608E-02  0.1162541E+00
         21   -1    0    0  503  502  0.00000000000E+00  0.00000000000E+00  0.23439098432E+03  0.23439098432E+03  0.00000000000E+00 0.  1.
         21   -1    0    0  501  503 -0.00000000000E+00 -0.00000000000E+00 -0.18973499508E+03  0.18973499508E+03  0.00000000000E+00 0.  1.
          6    1    1    2  501    0 -0.33786050337E+02 -0.60841867634E+02 -0.78456664060E+02  0.20145142886E+03  0.17200000000E+03 0.  1.
         -6    1    1    2    0  502  0.33786050337E+02  0.60841867634E+02  0.12311265330E+03  0.22267455054E+03  0.17200000000E+03 0.  1.
</event>
<event>
 4    1  0.6129841E-001  0.1920387E+03  0.7818608E-02  0.1156635E+00
         21   -1    0    0  501  502  0.00000000000E+00  0.00000000000E+00  0.19838806721E+03  0.19838806721E+03  0.00000000000E+00 0.  1.
         21   -1    0    0  502  503 -0.00000000000E+00 -0.00000000000E+00 -0.29049265584E+03  0.29049265584E+03  0.00000000000E+00 0.  1.
          6    1    1    2  501    0 -0.70327534478E+02  0.48465512645E+02  0.10062785912E+03  0.21680598251E+03  0.17200000000E+03 0.  1.
         -6    1    1    2    0  503  0.70327534478E+02 -0.48465512645E+02 -0.19273244775E+03  0.27207474054E+03  0.17200000000E+03 0.  1.
</event>
<event>
 4    1  0.6129841E-001  0.2700238E+03  0.7818608E-02  0.1101266E+00
         21   -1    0    0  501  502  0.00000000000E+00  0.00000000000E+00  0.16598245556E+03  0.16598245556E+03  0.00000000000E+00 0.  1.
         21   -1    0    0  502  503 -0.00000000000E+00 -0.00000000000E+00 -0.54510695222E+03  0.54510695222E+03  0.00000000000E+00 0.  1.
          6    1    1    2  501    0  0.20633262282E+03  0.27490435527E+02 -0.32905093648E+02  0.27202136032E+03  0.17200000000E+03 0.  1.
         -6    1    1    2    0  503 -0.20633262282E+03 -0.27490435527E+02 -0.34621940300E+03  0.43906804746E+03  0.17200000000E+03 0.  1.
</event>
<event>
 4    1  0.6129841E-001  0.1830186E+03  0.7818608E-02  0.1164913E+00
         21   -1    0    0  503  502  0.00000000000E+00  0.00000000000E+00  0.67383403435E+02  0.67383403435E+02  0.00000000000E+00 0. -1.
         21   -1    0    0  501  503 -0.00000000000E+00 -0.00000000000E+00 -0.15455161441E+04  0.15455161441E+04  0.00000000000E+00 0. -1.
          6    1    1    2  501    0  0.62532353987E+02 -0.12241530467E+01 -0.14032817479E+04  0.14151662298E+04  0.17200000000E+03 0. -1.
         -6    1    1    2    0  502 -0.62532353987E+02  0.12241530467E+01 -0.74850992778E+02  0.19773331779E+03  0.17200000000E+03 0. -1.
</event>
<event>
 4    1  0.6129841E-001  0.2082703E+03  0.7818608E-02  0.1142943E+00
         21   -1    0    0  501  502  0.00000000000E+00  0.00000000000E+00  0.93656605803E+02  0.93656605803E+02  0.00000000000E+00 0.  1.
         21   -1    0    0  502  503 -0.00000000000E+00 -0.00000000000E+00 -0.55016744083E+03  0.55016744083E+03  0.00000000000E+00 0. -1.
          6    1    1    2  501    0 -0.10329909497E+03 -0.55873135460E+02 -0.10022667664E+03  0.23113177410E+03  0.17200000000E+03 0.  1.
         -6    1    1    2    0  503  0.10329909497E+03  0.55873135460E+02 -0.35628415839E+03  0.41269227253E+03  0.17200000000E+03 0. -1.
</event>
<event>
 4    1  0.6129841E-001  0.1935280E+03  0.7818608E-02  0.1155317E+00
         21   -1    0    0  503  502  0.00000000000E+00  0.00000000000E+00  0.14329193434E+04  0.14329193434E+04  0.00000000000E+00 0.  1.
         21   -1    0    0  501  503 -0.00000000000E+00 -0.00000000000E+00 -0.28120098611E+02  0.28120098611E+02  0.00000000000E+00 0. -1.
          6    1    1    2  501    0  0.76830550938E+02 -0.44341320595E+02  0.89636710439E+03  0.91702075881E+03  0.17200000000E+03 0.  1.
         -6    1    1    2    0  502 -0.76830550938E+02  0.44341320595E+02  0.50843214035E+03  0.54401868315E+03  0.17200000000E+03 0. -1.
</event>
<event>
 4    1  0.6129841E-001  0.1841341E+03  0.7818608E-02  0.1163861E+00
         21   -1    0    0  501  502  0.00000000000E+00  0.00000000000E+00  0.20153459110E+02  0.20153459110E+02  0.00000000000E+00 0.  1.
         21   -1    0    0  502  503 -0.00000000000E+00 -0.00000000000E+00 -0.20269259645E+04  0.20269259645E+04  0.00000000000E+00 0.  1.
          6    1    1    2  501    0  0.18725995847E+02 -0.63013519367E+02 -0.58137681925E+03  0.60983962851E+03  0.17200000000E+03 0.  1.
         -6    1    1    2    0  503 -0.18725995847E+02  0.63013519367E+02 -0.14253956862E+04  0.14372397951E+04  0.17200000000E+03 0.  1.
</event>
<event>
 4    1  0.6129841E-001  0.1731611E+03  0.7818608E-02  0.1174591E+00
         21   -1    0    0  501  502  0.00000000000E+00  0.00000000000E+00  0.20323904712E+03  0.20323904712E+03  0.00000000000E+00 0.  1.
         21   -1    0    0  502  503 -0.00000000000E+00 -0.00000000000E+00 -0.17193898994E+03  0.17193898994E+03  0.00000000000E+00 0.  1.
          6    1    1    2  501    0  0.20005404987E+02  0.73384365503E+00 -0.55023343398E+02  0.18169293622E+03  0.17200000000E+03 0.  1.
         -6    1    1    2    0  503 -0.20005404987E+02 -0.73384365503E+00  0.86323400578E+02  0.19348510083E+03  0.17200000000E+03 0.  1.
</event>
<event>
 4    1  0.6129841E-001  0.1927934E+03  0.7818608E-02  0.1155966E+00
         21   -1    0    0  503  502  0.00000000000E+00  0.00000000000E+00  0.81221196406E+03  0.81221196406E+03  0.00000000000E+00 0.  1.
         21   -1    0    0  501  503 -0.00000000000E+00 -0.00000000000E+00 -0.46038851119E+02  0.46038851119E+02  0.00000000000E+00 0.  1.
          6    1    1    2  501    0  0.71943014014E+02  0.49086826664E+02  0.34987391403E+03  0.39947599369E+03  0.17200000000E+03 0.  1.
         -6    1    1    2    0  502 -0.71943014014E+02 -0.49086826664E+02  0.41629919891E+03  0.45877482148E+03  0.17200000000E+03 0.  1.
</event>
<event>
 4    1  0.6129841E-001  0.2177106E+03  0.7818608E-02  0.1135601E+00
         21   -1    0    0  503  502  0.00000000000E+00  0.00000000000E+00  0.57412673758E+02  0.57412673758E+02  0.00000000000E+00 0.  1.
         21   -1    0    0  501  503 -0.00000000000E+00 -0.00000000000E+00 -0.88080532604E+03  0.88080532604E+03  0.00000000000E+00 0. -1.
          6    1    1    2  501    0 -0.13229919199E+03  0.17630138622E+02 -0.52917570544E+03  0.57221047283E+03  0.17200000000E+03 0. -1.
         -6    1    1    2    0  502  0.13229919199E+03 -0.17630138622E+02 -0.29421694684E+03  0.36600752697E+03  0.17200000000E+03 0. -1.
</event>
<event>
 4    1  0.6129841E-001  0.1753370E+03  0.7818608E-02  0.1172394E+00
         21   -1    0    0  503  502  0.00000000000E+00  0.00000000000E+00  0.27420667199E+03  0.27420667199E+03  0.00000000000E+00 0. -1.
         21   -1    0    0  501  503 -0.00000000000E+00 -0.00000000000E+00 -0.11250504000E+03  0.11250504000E+03  0.00000000000E+00 0. -1.
          6    1    1    2  501    0  0.34044635052E+02 -0.20468665430E+00  0.69487207946E+02  0.18860421825E+03  0.17200000000E+03 0.  1.
         -6    1    1    2    0  502 -0.34044635052E+02  0.20468665430E+00  0.92214424047E+02  0.19810749374E+03  0.17200000000E+03 0.  1.
</event>
<event>
 4    1  0.6129841E-001  0.2612689E+03  0.7818608E-02  0.1106383E+00
         21   -1    0    0  503  502  0.00000000000E+00  0.00000000000E+00  0.89044983761E+03  0.89044983761E+03  0.00000000000E+00 0.  1.
         21   -1    0    0  501  503 -0.00000000000E+00 -0.00000000000E+00 -0.79062315474E+02  0.79062315474E+02  0.00000000000E+00 0. -1.
          6    1    1    2  501    0 -0.16850279244E+03 -0.10141119661E+03  0.32118524414E+03  0.41403065455E+03  0.17200000000E+03 0.  1.
         -6    1    1    2    0  502  0.16850279244E+03  0.10141119661E+03  0.49020227800E+03  0.55548149853E+03  0.17200000000E+03 0. -1.
</event>
<event>
 4    1  0.6129841E-001  0.2015145E+03  0.7818608E-02  0.1148467E+00
         21   -1    0    0  503  502  0.00000000000E+00  0.00000000000E+00  0.63317059208E+03  0.63317059208E+03  0.00000000000E+00 0. -1.
         21   -1    0    0  501  503 -0.00000000000E+00 -0.00000000000E+00 -0.12490932400E+03  0.12490932400E+03  0.00000000000E+00 0. -1.
          6    1    1    2  501    0 -0.89257680947E+02 -0.55291592635E+02 -0.10261992645E+02  0.20177562369E+03  0.17200000000E+03 0. -1.
         -6    1    1    2    0  502  0.89257680947E+02  0.55291592635E+02  0.51852326072E+03  0.55630429239E+03  0.17200000000E+03 0. -1.
</event>
<event>
 4    1  0.6129841E-001  0.1806322E+03  0.7818608E-02  0.1167193E+00
         21   -1    0    0  503  502  0.00000000000E+00  0.00000000000E+00  0.23214772761E+03  0.23214772761E+03  0.00000000000E+00 0. -1.
         21   -1    0    0  501  503 -0.00000000000E+00 -0.00000000000E+00 -0.18619084298E+03  0.18619084298E+03  0.00000000000E+00 0. -1.
          6    1    1    2  501    0  0.44849177064E+02 -0.32133443742E+02 -0.80584142747E+02  0.19779234301E+03  0.17200000000E+03 0. -1.
         -6    1    1    2    0  502 -0.44849177064E+02  0.32133443742E+02  0.12654102738E+03  0.22054622758E+03  0.17200000000E+03 0. -1.
</event>
<event>
 4    1  0.6129841E-001  0.1935159E+03  0.7818608E-02  0.1155328E+00
         21   -1    0    0  503  502  0.00000000000E+00  0.00000000000E+00  0.42615274001E+02  0.42615274001E+02  0.00000000000E+00 0. -1.
         21   -1    0    0  501  503 -0.00000000000E+00 -0.00000000000E+00 -0.92510578875E+03  0.92510578875E+03  0.00000000000E+00 0. -1.
          6    1    1    2  501    0 -0.87255140473E+02  0.15840895156E+02 -0.33293935116E+03  0.38509350170E+03  0.17200000000E+03 0. -1.
         -6    1    1    2    0  502  0.87255140473E+02 -0.15840895156E+02 -0.54955116359E+03  0.58262756106E+03  0.17200000000E+03 0. -1.
</event>
<event>
 4    1  0.6129841E-001  0.1746842E+03  0.7818608E-02  0.1173049E+00
         21   -1    0    0  501  502  0.00000000000E+00  0.00000000000E+00  0.13882134525E+04  0.13882134525E+04  0.00000000000E+00 0. -1.
         21   -1    0    0  502  503 -0.00000000000E+00 -0.00000000000E+00 -0.38489295088E+02  0.38489295088E+02  0.00000000000E+00 0. -1.
          6    1    1    2  501    0 -0.30210238084E+02  0.42342243437E+01  0.11420397771E+04  0.11553222233E+04  0.17200000000E+03 0. -1.
         -6    1    1    2    0  503  0.30210238084E+02 -0.42342243437E+01  0.20768438028E+03  0.27138052427E+03  0.17200000000E+03 0. -1.
</event>
<event>
 4    1  0.6129841E-001  0.2748261E+03  0.7818608E-02  0.1098549E+00
         21   -1    0    0  503  502  0.00000000000E+00  0.00000000000E+00  0.63975566266E+02  0.63975566266E+02  0.00000000000E+00 0.  1.
         21   -1    0    0  501  503 -0.00000000000E+00 -0.00000000000E+00 -0.11818329874E+04  0.11818329874E+04  0.00000000000E+00 0.  1.
          6    1    1    2  501    0  0.21246549717E+03 -0.28351683246E+02 -0.57906733904E+03  0.64097456157E+03  0.17200000000E+03 0.  1.
         -6    1    1    2    0  502 -0.21246549717E+03  0.28351683246E+02 -0.53879008204E+03  0.60483399205E+03  0.17200000000E+03 0.  1.
</event>
<event>
 4    1  0.6129841E-001  0.2993001E+03  0.7818608E-02  0.1085591E+00
         21   -1    0    0  503  502  0.00000000000E+00  0.00000000000E+00  0.19054423919E+04  0.19054423919E+04  0.00000000000E+00 0. -1.
         21   -1    0    0  501  503 -0.00000000000E+00 -0.00000000000E+00 -0.54998265985E+02  0.54998265985E+02  0.00000000000E+00 0.  1.
          6    1    1    2  501    0  0.23520247031E+03 -0.68383843978E+02  0.55171909496E+03  0.62767388977E+03  0.17200000000E+03 0.  1.
         -6    1    1    2    0  502 -0.23520247031E+03  0.68383843978E+02  0.12987250310E+04  0.13327667681E+04  0.17200000000E+03 0. -1.
</event>
<event>
 4    1  0.6129841E-001  0.2376348E+03  0.7818608E-02  0.1121379E+00
         21   -1    0    0  503  502  0.00000000000E+00  0.00000000000E+00  0.55816050686E+03  0.55816050686E+03  0.00000000000E+00 0. -1.
         21   -1    0    0  501  503 -0.00000000000E+00 -0.00000000000E+00 -0.10164537041E+03  0.10164537041E+03  0.00000000000E+00 0. -1.
          6    1    1    2  501    0  0.11485631055E+03 -0.11702267346E+03  0.20574677254E+03  0.31432787434E+03  0.17200000000E+03 0. -1.
         -6    1    1    2    0  502 -0.11485631055E+03  0.11702267346E+03  0.25076836391E+03  0.34547800294E+03  0.17200000000E+03 0. -1.
</event>
<event>
 4    1  0.6129841E-001  0.2002366E+03  0.7818608E-02  0.1149540E+00
         21   -1    0    0  503  502  0.00000000000E+00  0.00000000000E+00  0.42174324984E+03  0.42174324984E+03  0.00000000000E+00 0. -1.
         21   -1    0    0  501  503 -0.00000000000E+00 -0.00000000000E+00 -0.12205708732E+03  0.12205708732E+03  0.00000000000E+00 0. -1.
          6    1    1    2  501    0  0.94626402610E+02  0.39452990243E+02  0.21989085342E+02  0.20144034944E+03  0.17200000000E+03 0. -1.
         -6    1    1    2    0  502 -0.94626402610E+02 -0.39452990243E+02  0.27769707718E+03  0.34235998771E+03  0.17200000000E+03 0. -1.
</event>
<event>
 4    1  0.6129841E-001  0.2327068E+03  0.7818608E-02  0.1124749E+00
         21   -1    0    0  501  502  0.00000000000E+00  0.00000000000E+00  0.37832485857E+02  0.37832485857E+02  0.00000000000E+00 0.  1.
         21   -1    0    0  502  503 -0.00000000000E+00 -0.00000000000E+00 -0.14565730727E+04  0.14565730727E+04  0.00000000000E+00 0.  1.
          6    1    1    2  501    0 -0.42882544289E+02  0.15076318844E+03 -0.61109118518E+03  0.65389975394E+03  0.17200000000E+03 0.  1.
         -6    1    1    2    0  503  0.42882544289E+02 -0.15076318844E+03 -0.80764940171E+03  0.84050580466E+03  0.17200000000E+03 0.  1.
</event>
<event>
 4    1  0.6129841E-001  0.1974631E+03  0.7818608E-02  0.1151897E+00
         21   -1    0    0  501  502  0.00000000000E+00  0.00000000000E+00  0.57355109609E+02  0.57355109609E+02  0.00000000000E+00 0.  1.
         21   -1    0    0  502  503 -0.00000000000E+00 -0.00000000000E+00 -0.69664871637E+03  0.69664871637E+03  0.00000000000E+00 0.  1.
          6    1    1    2  501    0  0.20827319873E+02 -0.94730613134E+02 -0.26106724705E+03  0.32733434559E+03  0.17200000000E+03 0.  1.
         -6    1    1    2    0  503 -0.20827319873E+02  0.94730613134E+02 -0.37822635971E+03  0.42666948039E+03  0.17200000000E+03 0.  1.
</event>
<event>
 4    1  0.6129841E-001  0.4054403E+03  0.7818608E-02  0.1041912E+00
         21   -1    0    0  501  502  0.00000000000E+00  0.00000000000E+00  0.63639149606E+03  0.63639149606E+03  0.00000000000E+00 0.  1.
         21   -1    0    0  502  503 -0.00000000000E+00 -0.00000000000E+00 -0.47472753722E+03  0.47472753722E+03  0.00000000000E+00 0. -1.
          6    1    1    2  501    0  0.12864657033E+03 -0.34387192305E+03  0.45594454902E+03  0.61013709222E+03  0.17200000000E+03 0.  1.
         -6    1    1    2    0  503 -0.12864657033E+03  0.34387192305E+03 -0.29428059017E+03  0.50098194106E+03  0.17200000000E+03 0. -1.
</event>
<event>
 4    1  0.6129841E-001  0.3463843E+03  0.7818608E-02  0.1064109E+00
         21   -1    0    0  503  502  0.00000000000E+00  0.00000000000E+00  0.81346274166E+02  0.81346274166E+02  0.00000000000E+00 0.  1.
         21   -1    0    0  501  503 -0.00000000000E+00 -0.00000000000E+00 -0.15985955027E+04  0.15985955027E+04  0.00000000000E+00 0.  1.
          6    1    1    2  501    0 -0.27773136039E+03 -0.11516661073E+03 -0.99222638043E+03  0.10509496880E+04  0.17200000000E+03 0. -1.
         -6    1    1    2    0  502  0.27773136039E+03  0.11516661073E+03 -0.52502284808E+03  0.62899208880E+03  0.17200000000E+03 0. -1.
</event>
<event>
 4    1  0.6129841E-001  0.1893401E+03  0.7818608E-02  0.1159058E+00
         21   -1    0    0  501  502  0.00000000000E+00  0.00000000000E+00  0.23681169624E+02  0.23681169624E+02  0.00000000000E+00 0. -1.
         21   -1    0    0  502  503 -0.00000000000E+00 -0.00000000000E+00 -0.22498769610E+04  0.22498769610E+04  0.00000000000E+00 0. -1.
          6    1    1    2  501    0 -0.78245177678E+02  0.11974152763E+02 -0.46290207570E+03  0.50012800347E+03  0.17200000000E+03 0. -1.
         -6    1    1    2    0  503  0.78245177678E+02 -0.11974152763E+02 -0.17632937157E+04  0.17734301272E+04  0.17200000000E+03 0. -1.
</event>
<event>
 4    1  0.6129841E-001  0.1778130E+03  0.7818608E-02  0.1169937E+00
         21   -1    0    0  501  502  0.00000000000E+00  0.00000000000E+00  0.27999936473E+03  0.27999936473E+03  0.00000000000E+00 0.  1.
         21   -1    0    0  502  503 -0.00000000000E+00 -0.00000000000E+00 -0.11483350145E+03  0.11483350145E+03  0.00000000000E+00 0.  1.
          6    1    1    2  501    0  0.35727665944E+02 -0.27513539486E+02  0.57097577811E+02  0.18675543998E+03  0.17200000000E+03 0. -1.
         -6    1    1    2    0  503 -0.35727665944E+02  0.27513539486E+02  0.10806828547E+03  0.20807742620E+03  0.17200000000E+03 0. -1.
</event>
<event>
 4    1  0.6129841E-001  0.1986742E+03  0.7818608E-02  0.1150862E+00
         21   -1    0    0  503  502  0.00000000000E+00  0.00000000000E+00  0.72305935144E+02  0.72305935144E+02  0.00000000000E+00 0.  1.
         21   -1    0    0  501  503 -0.00000000000E+00 -0.00000000000E+00 -0.76505703862E+03  0.76505703862E+03  0.00000000000E+00 0.  1.
          6    1    1    2  501    0 -0.44915735576E+02 -0.88713135258E+02 -0.57046405806E+03  0.60407009958E+03  0.17200000000E+03 0. -1.
         -6    1    1    2    0  502  0.44915735576E+02  0.88713135258E+02 -0.12228704542E+03  0.23329287419E+03  0.17200000000E+03 0. -1.
</event>
<event>
 4    1  0.6129841E-001  0.1878519E+03  0.7818608E-02  0.1160413E+00
         21   -1    0    0  501  502  0.00000000000E+00  0.00000000000E+00  0.35795624632E+03  0.35795624632E+03  0.00000000000E+00 0.  1.
         21   -1    0    0  502  503 -0.00000000000E+00 -0.00000000000E+00 -0.10178081343E+03  0.10178081343E+03  0.00000000000E+00 0.  1.
          6    1    1    2  501    0  0.23917956291E+02 -0.71639933342E+02  0.16883352828E+03  0.25257297748E+03  0.17200000000E+03 0. -1.
         -6    1    1    2    0  503 -0.23917956291E+02  0.71639933342E+02  0.87341904605E+02  0.20716408227E+03  0.17200000000E+03 0. -1.
</event>
<event>
 4    1  0.6129841E-001  0.1871809E+03  0.7818608E-02  0.1161029E+00
         21   -1    0    0  501  502  0.00000000000E+00  0.00000000000E+00  0.72131810280E+03  0.72131810280E+03  0.00000000000E+00 0.  1.
         21   -1    0    0  502  503 -0.00000000000E+00 -0.00000000000E+00 -0.71393852310E+02  0.71393852310E+02  0.00000000000E+00 0.  1.
          6    1    1    2  501    0 -0.55400077136E+02 -0.48821223746E+02  0.54905067441E+03  0.58008044572E+03  0.17200000000E+03 0.  1.
         -6    1    1    2    0  503  0.55400077136E+02  0.48821223746E+02  0.10087357608E+03  0.21263150939E+03  0.17200000000E+03 0.  1.
</event>
<event>
 4    1  0.6129841E-001  0.1982114E+03  0.7818608E-02  0.1151257E+00
         21   -1    0    0  503  502  0.00000000000E+00  0.00000000000E+00  0.28780498560E+03  0.28780498560E+03  0.00000000000E+00 0. -1.
         21   -1    0    0  501  503 -0.00000000000E+00 -0.00000000000E+00 -0.18710776724E+03  0.18710776724E+03  0.00000000000E+00 0. -1.
          6    1    1    2  501    0 -0.72142780341E+02  0.67075797432E+02 -0.73135560877E+02  0.21127364630E+03  0.17200000000E+03 0. -1.
         -6    1    1    2    0  502  0.72142780341E+02 -0.67075797432E+02  0.17383277924E+03  0.26363910654E+03  0.17200000000E+03 0. -1.
</event>
<event>
 4    1  0.6129841E-001  0.3834760E+03  0.7818608E-02  0.1049656E+00
         21   -1    0    0  503  502  0.00000000000E+00  0.00000000000E+00  0.11552101166E+04  0.11552101166E+04  0.00000000000E+00 0. -1.
         21   -1    0    0  501  503 -0.00000000000E+00 -0.00000000000E+00 -0.26498781537E+03  0.26498781537E+03  0.00000000000E+00 0.  1.
          6    1    1    2  501    0  0.33931965990E+03 -0.48291009312E+02 -0.66758855455E+02  0.38924362289E+03  0.17200000000E+03 0. -1.
         -6    1    1    2    0  502 -0.33931965990E+03  0.48291009312E+02  0.95698115664E+03  0.10309543090E+04  0.17200000000E+03 0. -1.
</event>
<event>
 4    1  0.6129841E-001  0.2084580E+03  0.7818608E-02  0.1142793E+00
         21   -1    0    0  501  502  0.00000000000E+00  0.00000000000E+00  0.12300952070E+03  0.12300952070E+03  0.00000000000E+00 0.  1.
         21   -1    0    0  502  503 -0.00000000000E+00 -0.00000000000E+00 -0.97226210334E+03  0.97226210334E+03  0.00000000000E+00 0. -1.
          6    1    1    2  501    0  0.45718808612E+02  0.10853812502E+03  0.12337156384E+02  0.20882274654E+03  0.17200000000E+03 0.  1.
         -6    1    1    2    0  503 -0.45718808612E+02 -0.10853812502E+03 -0.86158973902E+03  0.88644887750E+03  0.17200000000E+03 0.  1.
</event>
<event>
 4    1  0.6129841E-001  0.1737640E+03  0.7818608E-02  0.1173979E+00
         21   -1    0    0  501  502  0.00000000000E+00  0.00000000000E+00  0.15733952328E+04  0.15733952328E+04  0.00000000000E+00 0. -1.
         21   -1    0    0  502  503 -0.00000000000E+00 -0.00000000000E+00 -0.22971832890E+02  0.22971832890E+02  0.00000000000E+00 0. -1.
          6    1    1    2  501    0  0.24680835576E+02  0.87610642054E+00  0.10990583732E+04  0.11127098538E+04  0.17200000000E+03 0. -1.
         -6    1    1    2    0  503 -0.24680835576E+02 -0.87610642054E+00  0.45136502676E+03  0.48365721186E+03  0.17200000000E+03 0. -1.
</event>
<event>
 4    1  0.6129841E-001  0.1968250E+03  0.7818608E-02  0.1152446E+00
         21   -1    0    0  503  502  0.00000000000E+00  0.00000000000E+00  0.16002581825E+04  0.16002581825E+04  0.00000000000E+00 0.  1.
         21   -1    0    0  501  503 -0.00000000000E+00 -0.00000000000E+00 -0.38712504314E+02  0.38712504314E+02  0.00000000000E+00 0.  1.
          6    1    1    2  501    0 -0.49367715549E+02 -0.81968949662E+02  0.27917302481E+03  0.34158111456E+03  0.17200000000E+03 0.  1.
         -6    1    1    2    0  502  0.49367715549E+02  0.81968949662E+02  0.12823726533E+04  0.12973895722E+04  0.17200000000E+03 0.  1.
</event>
<event>
 4    1  0.6129841E-001  0.1928544E+03  0.7818608E-02  0.1155912E+00
         21   -1    0    0  503  502  0.00000000000E+00  0.00000000000E+00  0.11711602993E+03  0.11711602993E+03  0.00000000000E+00 0.  1.
         21   -1    0    0  501  503 -0.00000000000E+00 -0.00000000000E+00 -0.48524202954E+03  0.48524202954E+03  0.00000000000E+00 0.  1.
          6    1    1    2  501    0  0.74959099591E+01  0.86905893768E+02 -0.36110352083E+03  0.40937583685E+03  0.17200000000E+03 0.  1.
         -6    1    1    2    0  502 -0.74959099591E+01 -0.86905893768E+02 -0.70224787754E+01  0.19298222262E+03  0.17200000000E+03 0.  1.
</event>
<event>
 4    1  0.6129841E-001  0.1776195E+03  0.7818608E-02  0.1170127E+00
         21   -1    0    0  503  502  0.00000000000E+00  0.00000000000E+00  0.41493191206E+02  0.41493191206E+02  0.00000000000E+00 0. -1.
         21   -1    0    0  501  503 -0.00000000000E+00 -0.00000000000E+00 -0.99969284236E+03  0.99969284236E+03  0.00000000000E+00 0. -1.
          6    1    1    2  501    0 -0.26887380258E+02 -0.35238395627E+02 -0.73383561513E+03  0.75502542062E+03  0.17200000000E+03 0. -1.
         -6    1    1    2    0  502  0.26887380258E+02  0.35238395627E+02 -0.22436403603E+03  0.28616061295E+03  0.17200000000E+03 0. -1.
</event>
<event>
 4    1  0.6129841E-001  0.2629731E+03  0.7818608E-02  0.1105370E+00
         21   -1    0    0  501  502  0.00000000000E+00  0.00000000000E+00  0.25140945982E+03  0.25140945982E+03  0.00000000000E+00 0. -1.
         21   -1    0    0  502  503 -0.00000000000E+00 -0.00000000000E+00 -0.29655974623E+03  0.29655974623E+03  0.00000000000E+00 0. -1.
          6    1    1    2  501    0  0.16608378443E+03 -0.10948524757E+03  0.51181315677E+02  0.26790739065E+03  0.17200000000E+03 0. -1.
         -6    1    1    2    0  503 -0.16608378443E+03  0.10948524757E+03 -0.96331602080E+02  0.28006181540E+03  0.17200000000E+03 0. -1.
</event>
<event>
 4    1  0.6129841E-001  0.2076045E+03  0.7818608E-02  0.1143477E+00
         21   -1    0    0  503  502  0.00000000000E+00  0.00000000000E+00  0.11324828149E+04  0.11324828149E+04  0.00000000000E+00 0. -1.
         21   -1    0    0  501  503 -0.00000000000E+00 -0.00000000000E+00 -0.38062129468E+02  0.38062129468E+02  0.00000000000E+00 0.  1.
          6    1    1    2  501    0 -0.27865522737E+02 -0.11286787151E+03  0.54086680418E+03  0.57934147413E+03  0.17200000000E+03 0. -1.
         -6    1    1    2    0  502  0.27865522737E+02  0.11286787151E+03  0.55355388124E+03  0.59120347023E+03  0.17200000000E+03 0.  1.
</event>
<event>
 4    1  0.6129841E-001  0.1730403E+03  0.7818608E-02  0.1174714E+00
         21   -1    0    0  503  502  0.00000000000E+00  0.00000000000E+00  0.68423866470E+03  0.68423866470E+03  0.00000000000E+00 0. -1.
         21   -1    0    0  501  503 -0.00000000000E+00 -0.00000000000E+00 -0.16653008460E+03  0.16653008460E+03  0.00000000000E+00 0. -1.
          6    1    1    2  501    0  0.17636224256E+02 -0.69204217093E+01 -0.10638693685E+03  0.20312830668E+03  0.17200000000E+03 0. -1.
         -6    1    1    2    0  502 -0.17636224256E+02  0.69204217093E+01  0.62409551695E+03  0.64764044262E+03  0.17200000000E+03 0. -1.
</event>
<event>
 4    1  0.6129841E-001  0.1870334E+03  0.7818608E-02  0.1161165E+00
         21   -1    0    0  503  502  0.00000000000E+00  0.00000000000E+00  0.90498546756E+03  0.90498546756E+03  0.00000000000E+00 0.  1.
         21   -1    0    0  501  503 -0.00000000000E+00 -0.00000000000E+00 -0.38886375576E+02  0.38886375576E+02  0.00000000000E+00 0.  1.
          6    1    1    2  501    0 -0.73380448344E+02  0.35765061074E+01  0.39658250804E+03  0.43847367911E+03  0.17200000000E+03 0.  1.
         -6    1    1    2    0  502  0.73380448344E+02 -0.35765061074E+01  0.46951658395E+03  0.50539816402E+03  0.17200000000E+03 0.  1.
</event>
<event>
 4    1  0.6129841E-001  0.1721625E+03  0.7818608E-02  0.1175611E+00
         21   -1    0    0  501  502  0.00000000000E+00  0.00000000000E+00  0.54786063030E+03  0.54786063030E+03  0.00000000000E+00 0.  1.
         21   -1    0    0  502  503 -0.00000000000E+00 -0.00000000000E+00 -0.76387998238E+02  0.76387998238E+02  0.00000000000E+00 0.  1.
          6    1    1    2  501    0  0.12139411714E+01 -0.73798192682E+01  0.40432893599E+03  0.43945628209E+03  0.17200000000E+03 0.  1.
         -6    1    1    2    0  503 -0.12139411714E+01  0.73798192682E+01  0.67143696073E+02  0.18479234645E+03  0.17200000000E+03 0.  1.
</event>
<event>
 4    1  0.6129841E-001  0.2420598E+03  0.7818608E-02  0.1118428E+00
         21   -1    0    0  503  502  0.00000000000E+00  0.00000000000E+00  0.41422913909E+03  0.41422913909E+03  0.00000000000E+00 0. -1.
         21   -1    0    0  501  503 -0.00000000000E+00 -0.00000000000E+00 -0.35449796924E+03  0.35449796924E+03  0.00000000000E+00 0. -1.
          6    1    1    2  501    0 -0.16167508338E+03 -0.53573309380E+02 -0.26810506076E+03  0.36121081887E+03  0.17200000000E+03 0. -1.
         -6    1    1    2    0  502  0.16167508338E+03  0.53573309380E+02  0.32783623062E+03  0.40751628946E+03  0.17200000000E+03 0. -1.
</event>
<event>
 4    1  0.6129841E-001  0.2644808E+03  0.7818608E-02  0.1104481E+00
         21   -1    0    0  503  502  0.00000000000E+00  0.00000000000E+00  0.53955228234E+03  0.53955228234E+03  0.00000000000E+00 0.  1.
         21   -1    0    0  501  503 -0.00000000000E+00 -0.00000000000E+00 -0.18932496351E+03  0.18932496351E+03  0.00000000000E+00 0. -1.
          6    1    1    2  501    0 -0.55689449919E+02 -0.19304086629E+03 -0.29500574289E+02  0.26612097770E+03  0.17200000000E+03 0. -1.
         -6    1    1    2    0  502  0.55689449919E+02  0.19304086629E+03  0.37972789312E+03  0.46275626814E+03  0.17200000000E+03 0.  1.
</event>
<event>
 4    1  0.6129841E-001  0.2345647E+03  0.7818608E-02  0.1123468E+00
         21   -1    0    0  503  502  0.00000000000E+00  0.00000000000E+00  0.34942961289E+02  0.34942961289E+02  0.00000000000E+00 0. -1.
         21   -1    0    0  501  503 -0.00000000000E+00 -0.00000000000E+00 -0.16394218384E+04  0.16394218384E+04  0.00000000000E+00 0. -1.
          6    1    1    2  501    0 -0.80346680921E+02 -0.13777151605E+03 -0.96873152468E+03  0.99672531155E+03  0.17200000000E+03 0. -1.
         -6    1    1    2    0  502  0.80346680921E+02  0.13777151605E+03 -0.63574735246E+03  0.67763948818E+03  0.17200000000E+03 0. -1.
</event>
<event>
 4    1  0.6129841E-001  0.1745653E+03  0.7818608E-02  0.1173169E+00
         21   -1    0    0  503  502  0.00000000000E+00  0.00000000000E+00  0.15269530464E+03  0.15269530464E+03  0.00000000000E+00 0. -1.
         21   -1    0    0  501  503 -0.00000000000E+00 -0.00000000000E+00 -0.33618648731E+03  0.33618648731E+03  0.00000000000E+00 0. -1.
          6    1    1    2  501    0  0.29423563148E+02 -0.48259552613E+01 -0.24757129892E+03  0.30292669734E+03  0.17200000000E+03 0. -1.
         -6    1    1    2    0  502 -0.29423563148E+02  0.48259552613E+01  0.64080116248E+02  0.18595509461E+03  0.17200000000E+03 0. -1.
</event>
<event>
 4    1  0.6129841E-001  0.1970011E+03  0.7818608E-02  0.1152294E+00
         21   -1    0    0  503  502  0.00000000000E+00  0.00000000000E+00  0.26162709568E+03  0.26162709568E+03  0.00000000000E+00 0. -1.
         21   -1    0    0  501  503 -0.00000000000E+00 -0.00000000000E+00 -0.16930085966E+03  0.16930085966E+03  0.00000000000E+00 0. -1.
          6    1    1    2  501    0 -0.71318669670E+02  0.64335583183E+02  0.12197953152E+03  0.23170763047E+03  0.17200000000E+03 0.  1.
         -6    1    1    2    0  502  0.71318669670E+02 -0.64335583183E+02 -0.29653295499E+02  0.19922032487E+03  0.17200000000E+03 0.  1.
</event>
<event>
 4    1  0.6129841E-001  0.2116475E+03  0.7818608E-02  0.1140268E+00
         21   -1    0    0  503  502  0.00000000000E+00  0.00000000000E+00  0.17951909178E+03  0.17951909178E+03  0.00000000000E+00 0.  1.
         21   -1    0    0  501  503 -0.00000000000E+00 -0.00000000000E+00 -0.49507889410E+03  0.49507889410E+03  0.00000000000E+00 0. -1.
          6    1    1    2  501    0 -0.12012726211E+03 -0.27930036285E+02 -0.39532744197E+03  0.44841769858E+03  0.17200000000E+03 0. -1.
         -6    1    1    2    0  502  0.12012726211E+03  0.27930036285E+02  0.79767639644E+02  0.22618028730E+03  0.17200000000E+03 0.  1.
</event>
<event>
 4    1  0.6129841E-001  0.1761719E+03  0.7818608E-02  0.1171560E+00
         21   -1    0    0  503  502  0.00000000000E+00  0.00000000000E+00  0.62672555460E+03  0.62672555460E+03  0.00000000000E+00 0. -1.
         21   -1    0    0  501  503 -0.00000000000E+00 -0.00000000000E+00 -0.50262360741E+02  0.50262360741E+02  0.00000000000E+00 0. -1.
          6    1    1    2  501    0 -0.37481661169E+02  0.69037811175E+01  0.24714229651E+03  0.30350593379E+03  0.17200000000E+03 0. -1.
         -6    1    1    2    0  502  0.37481661169E+02 -0.69037811175E+01  0.32932089735E+03  0.37348198155E+03  0.17200000000E+03 0. -1.
</event>
<event>
 4    1  0.6129841E-001  0.1732837E+03  0.7818608E-02  0.1174466E+00
         21   -1    0    0  501  502  0.00000000000E+00  0.00000000000E+00  0.18111559513E+03  0.18111559513E+03  0.00000000000E+00 0.  1.
         21   -1    0    0  502  503 -0.00000000000E+00 -0.00000000000E+00 -0.55179706462E+03  0.55179706462E+03  0.00000000000E+00 0.  1.
          6    1    1    2  501    0  0.20907189624E+02 -0.24743046211E+01  0.12115886968E+03  0.21143960004E+03  0.17200000000E+03 0.  1.
         -6    1    1    2    0  503 -0.20907189624E+02  0.24743046211E+01 -0.49184033918E+03  0.52147305971E+03  0.17200000000E+03 0.  1.
</event>
<event>
 4    1  0.6129841E-001  0.1799672E+03  0.7818608E-02  0.1167835E+00
         21   -1    0    0  503  502  0.00000000000E+00  0.00000000000E+00  0.38605119281E+02  0.38605119281E+02  0.00000000000E+00 0.  1.
         21   -1    0    0  501  503 -0.00000000000E+00 -0.00000000000E+00 -0.15131031853E+04  0.15131031853E+04  0.00000000000E+00 0.  1.
          6    1    1    2  501    0 -0.78601996096E+01 -0.52368181804E+02 -0.12551198086E+04  0.12679566014E+04  0.17200000000E+03 0.  1.
         -6    1    1    2    0  502  0.78601996096E+01  0.52368181804E+02 -0.21937825741E+03  0.28375170313E+03  0.17200000000E+03 0.  1.
</event>
<event>
 4    1  0.6129841E-001  0.4013290E+03  0.7818608E-02  0.1043320E+00
         21   -1    0    0  501  502  0.00000000000E+00  0.00000000000E+00  0.76774469479E+03  0.76774469479E+03  0.00000000000E+00 0.  1.
         21   -1    0    0  502  503 -0.00000000000E+00 -0.00000000000E+00 -0.22151824776E+03  0.22151824776E+03  0.00000000000E+00 0. -1.
          6    1    1    2  501    0  0.44131924517E+02 -0.35990737530E+03  0.38692801764E+03  0.55747487513E+03  0.17200000000E+03 0.  1.
         -6    1    1    2    0  503 -0.44131924517E+02  0.35990737530E+03  0.15929842939E+03  0.43178806742E+03  0.17200000000E+03 0.  1.
</event>
<event>
 4    1  0.6129841E-001  0.2036867E+03  0.7818608E-02  0.1146665E+00
         21   -1    0    0  501  502  0.00000000000E+00  0.00000000000E+00  0.75677812283E+03  0.75677812283E+03  0.00000000000E+00 0. -1.
         21   -1    0    0  502  503 -0.00000000000E+00 -0.00000000000E+00 -0.65805822356E+02  0.65805822356E+02  0.00000000000E+00 0. -1.
          6    1    1    2  501    0 -0.10485435324E+03 -0.30163298626E+02  0.51351752828E+03  0.55243869509E+03  0.17200000000E+03 0.  1.
         -6    1    1    2    0  503  0.10485435324E+03  0.30163298626E+02  0.17745477220E+03  0.27014525010E+03  0.17200000000E+03 0.  1.
</event>
<event>
 4    1  0.6129841E-001  0.2383431E+03  0.7818608E-02  0.1120902E+00
         21   -1    0    0  503  502  0.00000000000E+00  0.00000000000E+00  0.25507508398E+03  0.25507508398E+03  0.00000000000E+00 0. -1.
         21   -1    0    0  501  503 -0.00000000000E+00 -0.00000000000E+00 -0.29250806478E+03  0.29250806478E+03  0.00000000000E+00 0.  1.
          6    1    1    2  501    0  0.68991469156E+02 -0.14987868264E+03 -0.15246127878E+03  0.28293441617E+03  0.17200000000E+03 0.  1.
         -6    1    1    2    0  502 -0.68991469156E+02  0.14987868264E+03  0.11502829798E+03  0.26464873259E+03  0.17200000000E+03 0. -1.
</event>
<event>
 4    1  0.6129841E-001  0.1885477E+03  0.7818608E-02  0.1159778E+00
         21   -1    0    0  503  502  0.00000000000E+00  0.00000000000E+00  0.14110869709E+03  0.14110869709E+03  0.00000000000E+00 0.  1.
         21   -1    0    0  501  503 -0.00000000000E+00 -0.00000000000E+00 -0.33141269219E+03  0.33141269219E+03  0.00000000000E+00 0.  1.
          6    1    1    2  501    0 -0.40991542251E+02 -0.65467001333E+02 -0.21085089966E+03  0.28285744941E+03  0.17200000000E+03 0.  1.
         -6    1    1    2    0  502  0.40991542251E+02  0.65467001333E+02  0.20546904568E+02  0.18966393987E+03  0.17200000000E+03 0.  1.
</event>
<event>
 4    1  0.6129841E-001  0.1782444E+03  0.7818608E-02  0.1169513E+00
         21   -1    0    0  503  502  0.00000000000E+00  0.00000000000E+00  0.27196167999E+03  0.27196167999E+03  0.00000000000E+00 0. -1.
         21   -1    0    0  501  503 -0.00000000000E+00 -0.00000000000E+00 -0.14657855503E+03  0.14657855503E+03  0.00000000000E+00 0. -1.
          6    1    1    2  501    0  0.96346002809E+01  0.45762924854E+02  0.15698127392E+03  0.23751671768E+03  0.17200000000E+03 0. -1.
         -6    1    1    2    0  502 -0.96346002809E+01 -0.45762924854E+02 -0.31598148959E+02  0.18102351734E+03  0.17200000000E+03 0. -1.
</event>
<event>
 4    1  0.6129841E-001  0.1749112E+03  0.7818608E-02  0.1172821E+00
         21   -1    0    0  503  502  0.00000000000E+00  0.00000000000E+00  0.34068058752E+03  0.34068058752E+03  0.00000000000E+00 0.  1.
         21   -1    0    0  501  503 -0.00000000000E+00 -0.00000000000E+00 -0.26272489739E+03  0.26272489739E+03  0.00000000000E+00 0.  1.
          6    1    1    2  501    0  0.16705132173E+02 -0.27034316357E+02 -0.20579005437E+03  0.27008047352E+03  0.17200000000E+03 0.  1.
         -6    1    1    2    0  502 -0.16705132173E+02  0.27034316357E+02  0.28374574450E+03  0.33332501140E+03  0.17200000000E+03 0.  1.
</event>
<event>
 4    1  0.6129841E-001  0.1929207E+03  0.7818608E-02  0.1155853E+00
         21   -1    0    0  503  502  0.00000000000E+00  0.00000000000E+00  0.10778220073E+03  0.10778220073E+03  0.00000000000E+00 0. -1.
         21   -1    0    0  501  503 -0.00000000000E+00 -0.00000000000E+00 -0.46976841734E+03  0.46976841734E+03  0.00000000000E+00 0. -1.
          6    1    1    2  501    0 -0.87153398619E+02  0.62209467466E+01 -0.32963046253E+03  0.38193540933E+03  0.17200000000E+03 0. -1.
         -6    1    1    2    0  502  0.87153398619E+02 -0.62209467466E+01 -0.32355754083E+02  0.19561520874E+03  0.17200000000E+03 0. -1.
</event>
<event>
 4    1  0.6129841E-001  0.2042102E+03  0.7818608E-02  0.1146235E+00
         21   -1    0    0  503  502  0.00000000000E+00  0.00000000000E+00  0.96851512865E+02  0.96851512865E+02  0.00000000000E+00 0. -1.
         21   -1    0    0  501  503 -0.00000000000E+00 -0.00000000000E+00 -0.57947736724E+03  0.57947736724E+03  0.00000000000E+00 0.  1.
          6    1    1    2  501    0  0.45410033043E+02  0.10027820051E+03 -0.41273284213E+03  0.46048907433E+03  0.17200000000E+03 0.  1.
         -6    1    1    2    0  502 -0.45410033043E+02 -0.10027820051E+03 -0.69893012245E+02  0.21583980578E+03  0.17200000000E+03 0. -1.
</event>
<event>
 4    1  0.6129841E-001  0.1796946E+03  0.7818608E-02  0.1168099E+00
         21   -1    0    0  503  502  0.00000000000E+00  0.00000000000E+00  0.46631816111E+02  0.46631816111E+02  0.00000000000E+00 0. -1.
         21   -1    0    0  501  503 -0.00000000000E+00 -0.00000000000E+00 -0.91261729031E+03  0.91261729031E+03  0.00000000000E+00 0. -1.
          6    1    1    2  501    0 -0.22527673075E+02  0.46889676129E+02 -0.66857077406E+03  0.69229835888E+03  0.17200000000E+03 0. -1.
         -6    1    1    2    0  502  0.22527673075E+02 -0.46889676129E+02 -0.19741470014E+03  0.26695074754E+03  0.17200000000E+03 0. -1.
</event>
<event>
 4    1  0.6129841E-001  0.1858453E+03  0.7818608E-02  0.1162263E+00
         21   -1    0    0  501  502  0.00000000000E+00  0.00000000000E+00  0.67511469740E+03  0.67511469740E+03  0.00000000000E+00 0. -1.
         21   -1    0    0  502  503 -0.00000000000E+00 -0.00000000000E+00 -0.51161576620E+02  0.51161576620E+02  0.00000000000E+00 0. -1.
          6    1    1    2  501    0 -0.14886872603E+02  0.68795778020E+02  0.30962024480E+03  0.36111379652E+03  0.17200000000E+03 0.  1.
         -6    1    1    2    0  503  0.14886872603E+02 -0.68795778020E+02  0.31433287598E+03  0.36516247750E+03  0.17200000000E+03 0.  1.
</event>
<event>
 4    1  0.6129841E-001  0.2424269E+03  0.7818608E-02  0.1118187E+00
         21   -1    0    0  503  502  0.00000000000E+00  0.00000000000E+00  0.38130519547E+02  0.38130519547E+02  0.00000000000E+00 0.  1.
         21   -1    0    0  501  503 -0.00000000000E+00 -0.00000000000E+00 -0.16097132354E+04  0.16097132354E+04  0.00000000000E+00 0. -1.
          6    1    1    2  501    0 -0.12261432003E+03  0.11896450752E+03 -0.95563940276E+03  0.98590947537E+03  0.17200000000E+03 0.  1.
         -6    1    1    2    0  502  0.12261432003E+03 -0.11896450752E+03 -0.61594331306E+03  0.66193427954E+03  0.17200000000E+03 0.  1.
</event>
<event>
 4    1  0.6129841E-001  0.2089288E+03  0.7818608E-02  0.1142417E+00
         21   -1    0    0  503  502  0.00000000000E+00  0.00000000000E+00  0.36752128585E+03  0.36752128585E+03  0.00000000000E+00 0.  1.
         21   -1    0    0  501  503 -0.00000000000E+00 -0.00000000000E+00 -0.22066374724E+03  0.22066374724E+03  0.00000000000E+00 0.  1.
          6    1    1    2  501    0 -0.99079429400E+01  0.11819092652E+03 -0.12641372568E+03  0.24419601243E+03  0.17200000000E+03 0.  1.
         -6    1    1    2    0  502  0.99079429400E+01 -0.11819092652E+03  0.27327126429E+03  0.34398902066E+03  0.17200000000E+03 0.  1.
</event>
<event>
 4    1  0.6129841E-001  0.2064218E+03  0.7818608E-02  0.1144431E+00
         21   -1    0    0  503  502  0.00000000000E+00  0.00000000000E+00  0.19423717258E+03  0.19423717258E+03  0.00000000000E+00 0.  1.
         21   -1    0    0  501  503 -0.00000000000E+00 -0.00000000000E+00 -0.24709047949E+03  0.24709047949E+03  0.00000000000E+00 0. -1.
          6    1    1    2  501    0 -0.10179753884E+03  0.51606279270E+02 -0.10033575524E+03  0.22951516454E+03  0.17200000000E+03 0.  1.
         -6    1    1    2    0  502  0.10179753884E+03 -0.51606279270E+02  0.47482448324E+02  0.21181248753E+03  0.17200000000E+03 0. -1.
</event>
<event>
 4    1  0.6129841E-001  0.1990870E+03  0.7818608E-02  0.1150512E+00
         21   -1    0    0  503  502  0.00000000000E+00  0.00000000000E+00  0.33264872472E+02  0.33264872472E+02  0.00000000000E+00 0. -1.
         21   -1    0    0  501  503 -0.00000000000E+00 -0.00000000000E+00 -0.15242670667E+04  0.15242670667E+04  0.00000000000E+00 0.  1.
          6    1    1    2  501    0  0.31831497687E+02  0.95070384318E+02 -0.11093627347E+04  0.11270853114E+04  0.17200000000E+03 0.  1.
         -6    1    1    2    0  502 -0.31831497687E+02 -0.95070384318E+02 -0.38163945953E+03  0.43044662769E+03  0.17200000000E+03 0. -1.
</event>
<event>
 4    1  0.6129841E-001  0.2850923E+03  0.7818608E-02  0.1092940E+00
         21   -1    0    0  503  502  0.00000000000E+00  0.00000000000E+00  0.13621162423E+03  0.13621162423E+03  0.00000000000E+00 0. -1.
         21   -1    0    0  501  503 -0.00000000000E+00 -0.00000000000E+00 -0.71098195845E+03  0.71098195845E+03  0.00000000000E+00 0.  1.
          6    1    1    2  501    0 -0.21686846288E+03  0.68276615865E+02 -0.45721348665E+03  0.53881518059E+03  0.17200000000E+03 0. -1.
         -6    1    1    2    0  502  0.21686846288E+03 -0.68276615865E+02 -0.11755684757E+03  0.30837840209E+03  0.17200000000E+03 0.  1.
</event>
<event>
 4    1  0.6129841E-001  0.2160261E+03  0.7818608E-02  0.1136881E+00
         21   -1    0    0  503  502  0.00000000000E+00  0.00000000000E+00  0.31641175320E+02  0.31641175320E+02  0.00000000000E+00 0.  1.
         21   -1    0    0  501  503 -0.00000000000E+00 -0.00000000000E+00 -0.15410678706E+04  0.15410678706E+04  0.00000000000E+00 0. -1.
          6    1    1    2  501    0  0.11885647906E+03  0.54372953137E+02 -0.91766585241E+03  0.94275017758E+03  0.17200000000E+03 0. -1.
         -6    1    1    2    0  502 -0.11885647906E+03 -0.54372953137E+02 -0.59176084289E+03  0.62995886836E+03  0.17200000000E+03 0. -1.
</event>
<event>
 4    1  0.6129841E-001  0.2365759E+03  0.7818608E-02  0.1122095E+00
         21   -1    0    0  501  502  0.00000000000E+00  0.00000000000E+00  0.16313015802E+03  0.16313015802E+03  0.00000000000E+00 0.  1.
         21   -1    0    0  502  503 -0.00000000000E+00 -0.00000000000E+00 -0.37895495602E+03  0.37895495602E+03  0.00000000000E+00 0.  1.
          6    1    1    2  501    0  0.28384317845E+02 -0.15993275036E+03 -0.24527920485E+02  0.23784400985E+03  0.17200000000E+03 0.  1.
         -6    1    1    2    0  503 -0.28384317845E+02  0.15993275036E+03 -0.19129687752E+03  0.30424110420E+03  0.17200000000E+03 0.  1.
</event>
<event>
 4    1  0.6129841E-001  0.2121494E+03  0.7818608E-02  0.1139875E+00
         21   -1    0    0  503  502  0.00000000000E+00  0.00000000000E+00  0.22442850254E+03  0.22442850254E+03  0.00000000000E+00 0.  1.
         21   -1    0    0  501  503 -0.00000000000E+00 -0.00000000000E+00 -0.22038300593E+03  0.22038300593E+03  0.00000000000E+00 0.  1.
          6    1    1    2  501    0  0.11608786570E+03  0.44124417462E+02 -0.64709849300E+02  0.22179883087E+03  0.17200000000E+03 0. -1.
         -6    1    1    2    0  502 -0.11608786570E+03 -0.44124417462E+02  0.68755345905E+02  0.22301267760E+03  0.17200000000E+03 0. -1.
</event>
<event>
 4    1  0.6129841E-001  0.3752407E+03  0.7818608E-02  0.1052707E+00
         21   -1    0    0  503  502  0.00000000000E+00  0.00000000000E+00  0.14161809554E+03  0.14161809554E+03  0.00000000000E+00 0.  1.
         21   -1    0    0  501  503 -0.00000000000E+00 -0.00000000000E+00 -0.10131319950E+04  0.10131319950E+04  0.00000000000E+00 0. -1.
          6    1    1    2  501    0 -0.28940846679E+03 -0.16572371790E+03 -0.35696150673E+03  0.51790648636E+03  0.17200000000E+03 0.  1.
         -6    1    1    2    0  502  0.28940846679E+03  0.16572371790E+03 -0.51455239271E+03  0.63684360416E+03  0.17200000000E+03 0.  1.
</event>
<event>
 4    1  0.6129841E-001  0.1957161E+03  0.7818608E-02  0.1153404E+00
         21   -1    0    0  501  502  0.00000000000E+00  0.00000000000E+00  0.14063051265E+03  0.14063051265E+03  0.00000000000E+00 0.  1.
         21   -1    0    0  502  503 -0.00000000000E+00 -0.00000000000E+00 -0.28548515618E+03  0.28548515618E+03  0.00000000000E+00 0.  1.
          6    1    1    2  501    0 -0.79738640825E+02  0.48606117623E+02 -0.26777133322E+02  0.19753941475E+03  0.17200000000E+03 0.  1.
         -6    1    1    2    0  503  0.79738640825E+02 -0.48606117623E+02 -0.11807751021E+03  0.22857625408E+03  0.17200000000E+03 0.  1.
</event>
<event>
 4    1  0.6129841E-001  0.2208815E+03  0.7818608E-02  0.1133228E+00
         21   -1    0    0  501  502  0.00000000000E+00  0.00000000000E+00  0.39025765240E+03  0.39025765240E+03  0.00000000000E+00 0. -1.
         21   -1    0    0  502  503 -0.00000000000E+00 -0.00000000000E+00 -0.13884682699E+03  0.13884682699E+03  0.00000000000E+00 0.  1.
          6    1    1    2  501    0  0.99195998214E+02 -0.96771950263E+02  0.42210645181E+02  0.22487862279E+03  0.17200000000E+03 0.  1.
         -6    1    1    2    0  503 -0.99195998214E+02  0.96771950263E+02  0.20920018023E+03  0.30422585661E+03  0.17200000000E+03 0. -1.
</event>
<event>
 4    1  0.6129841E-001  0.2125285E+03  0.7818608E-02  0.1139579E+00
         21   -1    0    0  503  502  0.00000000000E+00  0.00000000000E+00  0.71975031823E+03  0.71975031823E+03  0.00000000000E+00 0.  1.
         21   -1    0    0  501  503 -0.00000000000E+00 -0.00000000000E+00 -0.74278406877E+02  0.74278406877E+02  0.00000000000E+00 0. -1.
          6    1    1    2  501    0  0.12431828245E+03  0.11372822558E+02  0.16636585367E+03  0.26989993277E+03  0.17200000000E+03 0. -1.
         -6    1    1    2    0  502 -0.12431828245E+03 -0.11372822558E+02  0.47910605769E+03  0.52412879234E+03  0.17200000000E+03 0.  1.
</event>
<event>
 4    1  0.6129841E-001  0.1954343E+03  0.7818608E-02  0.1153649E+00
         21   -1    0    0  503  502  0.00000000000E+00  0.00000000000E+00  0.16043130001E+03  0.16043130001E+03  0.00000000000E+00 0.  1.
         21   -1    0    0  501  503 -0.00000000000E+00 -0.00000000000E+00 -0.13014263171E+04  0.13014263171E+04  0.00000000000E+00 0.  1.
          6    1    1    2  501    0 -0.64766518785E+02  0.66451912432E+02 -0.12311967838E+04  0.12466114386E+04  0.17200000000E+03 0.  1.
         -6    1    1    2    0  502  0.64766518785E+02 -0.66451912432E+02  0.90201766684E+02  0.21524617844E+03  0.17200000000E+03 0.  1.
</event>
<event>
 4    1  0.6129841E-001  0.1735364E+03  0.7818608E-02  0.1174209E+00
         21   -1    0    0  501  502  0.00000000000E+00  0.00000000000E+00  0.56059411657E+03  0.56059411657E+03  0.00000000000E+00 0. -1.
         21   -1    0    0  502  503 -0.00000000000E+00 -0.00000000000E+00 -0.19185056671E+03  0.19185056671E+03  0.00000000000E+00 0. -1.
          6    1    1    2  501    0 -0.22841409005E+02 -0.30248910250E+01  0.50360537650E+03  0.53266617611E+03  0.17200000000E+03 0. -1.
         -6    1    1    2    0  503  0.22841409005E+02  0.30248910250E+01 -0.13486182663E+03  0.21977850717E+03  0.17200000000E+03 0. -1.
</event>
<event>
 4    1  0.6129841E-001  0.1921929E+03  0.7818608E-02  0.1156498E+00
         21   -1    0    0  503  502  0.00000000000E+00  0.00000000000E+00  0.41023483832E+03  0.41023483832E+03  0.00000000000E+00 0. -1.
         21   -1    0    0  501  503 -0.00000000000E+00 -0.00000000000E+00 -0.92066339608E+02  0.92066339608E+02  0.00000000000E+00 0. -1.
          6    1    1    2  501    0 -0.21592205221E+02 -0.82993228659E+02  0.19633156563E+03  0.27474384978E+03  0.17200000000E+03 0. -1.
         -6    1    1    2    0  502  0.21592205221E+02  0.82993228659E+02  0.12183693308E+03  0.22755732814E+03  0.17200000000E+03 0. -1.
</event>
<event>
 4    1  0.6129841E-001  0.1755327E+03  0.7818608E-02  0.1172198E+00
         21   -1    0    0  501  502  0.00000000000E+00  0.00000000000E+00  0.41307685759E+02  0.41307685759E+02  0.00000000000E+00 0. -1.
         21   -1    0    0  502  503 -0.00000000000E+00 -0.00000000000E+00 -0.77457278191E+03  0.77457278191E+03  0.00000000000E+00 0. -1.
          6    1    1    2  501    0 -0.16459746075E+01 -0.35000343758E+02 -0.44510906886E+03  0.47847028798E+03  0.17200000000E+03 0. -1.
         -6    1    1    2    0  503  0.16459746075E+01  0.35000343758E+02 -0.28815602729E+03  0.33741017969E+03  0.17200000000E+03 0. -1.
</event>
<event>
 4    1  0.6129841E-001  0.2226195E+03  0.7818608E-02  0.1131945E+00
         21   -1    0    0  501  502  0.00000000000E+00  0.00000000000E+00  0.44880137526E+03  0.44880137526E+03  0.00000000000E+00 0. -1.
         21   -1    0    0  502  503 -0.00000000000E+00 -0.00000000000E+00 -0.24681801881E+03  0.24681801881E+03  0.00000000000E+00 0.  1.
          6    1    1    2  501    0  0.11591770472E+03 -0.80861226703E+02  0.35954334278E+03  0.42288398833E+03  0.17200000000E+03 0. -1.
         -6    1    1    2    0  503 -0.11591770472E+03  0.80861226703E+02 -0.15755998633E+03  0.27273540574E+03  0.17200000000E+03 0. -1.
</event>
<event>
 4    1  0.6129841E-001  0.1881992E+03  0.7818608E-02  0.1160096E+00
         21   -1    0    0  503  502  0.00000000000E+00  0.00000000000E+00  0.36860534016E+03  0.36860534016E+03  0.00000000000E+00 0.  1.
         21   -1    0    0  501  503 -0.00000000000E+00 -0.00000000000E+00 -0.12478860600E+03  0.12478860600E+03  0.00000000000E+00 0.  1.
          6    1    1    2  501    0  0.50470643550E-01  0.76386858465E+02  0.36005124062E+01  0.18823368026E+03  0.17200000000E+03 0.  1.
         -6    1    1    2    0  502 -0.50470643550E-01 -0.76386858465E+02  0.24021622175E+03  0.30516026590E+03  0.17200000000E+03 0.  1.
</event>
<event>
 4    1  0.6129841E-001  0.1736149E+03  0.7818608E-02  0.1174130E+00
         21   -1    0    0  503  502  0.00000000000E+00  0.00000000000E+00  0.18572011423E+03  0.18572011423E+03  0.00000000000E+00 0.  1.
         21   -1    0    0  501  503 -0.00000000000E+00 -0.00000000000E+00 -0.16234761189E+03  0.16234761189E+03  0.00000000000E+00 0.  1.
          6    1    1    2  501    0 -0.19837234389E+02  0.12830382654E+02  0.86657252840E+01  0.17383103688E+03  0.17200000000E+03 0.  1.
         -6    1    1    2    0  502  0.19837234389E+02 -0.12830382654E+02  0.14706777051E+02  0.17423668924E+03  0.17200000000E+03 0.  1.
</event>
<event>
 4    1  0.6129841E-001  0.2338948E+03  0.7818608E-02  0.1123928E+00
         21   -1    0    0  503  502  0.00000000000E+00  0.00000000000E+00  0.37012113093E+03  0.37012113093E+03  0.00000000000E+00 0. -1.
         21   -1    0    0  501  503 -0.00000000000E+00 -0.00000000000E+00 -0.21353356727E+03  0.21353356727E+03  0.00000000000E+00 0.  1.
          6    1    1    2  501    0 -0.84083038486E+02  0.13436085785E+03 -0.83611373934E+02  0.24839013534E+03  0.17200000000E+03 0.  1.
         -6    1    1    2    0  502  0.84083038486E+02 -0.13436085785E+03  0.24019893760E+03  0.33526456286E+03  0.17200000000E+03 0. -1.
</event>
<event>
 4    1  0.6129841E-001  0.2044689E+03  0.7818608E-02  0.1146022E+00
         21   -1    0    0  503  502  0.00000000000E+00  0.00000000000E+00  0.79328330311E+02  0.79328330311E+02  0.00000000000E+00 0. -1.
         21   -1    0    0  501  503 -0.00000000000E+00 -0.00000000000E+00 -0.11523236967E+04  0.11523236967E+04  0.00000000000E+00 0. -1.
          6    1    1    2  501    0  0.49060684530E+02 -0.99078590515E+02 -0.99014329504E+03  0.10110347485E+04  0.17200000000E+03 0. -1.
         -6    1    1    2    0  502 -0.49060684530E+02  0.99078590515E+02 -0.82852071326E+02  0.22061727853E+03  0.17200000000E+03 0. -1.
</event>
<event>
 4    1  0.6129841E-001  0.2182419E+03  0.7818608E-02  0.1135201E+00
         21   -1    0    0  501  502  0.00000000000E+00  0.00000000000E+00  0.53534822517E+03  0.53534822517E+03  0.00000000000E+00 0. -1.
         21   -1    0    0  502  503 -0.00000000000E+00 -0.00000000000E+00 -0.89889660338E+02  0.89889660338E+02  0.00000000000E+00 0.  1.
          6    1    1    2  501    0 -0.10018290423E+03  0.89492571323E+02  0.25436292209E+03  0.33515672566E+03  0.17200000000E+03 0.  1.
         -6    1    1    2    0  503  0.10018290423E+03 -0.89492571323E+02  0.19109564274E+03  0.29008115985E+03  0.17200000000E+03 0.  1.
</event>
<event>
 4    1  0.6129841E-001  0.1857627E+03  0.7818608E-02  0.1162340E+00
         21   -1    0    0  501  502  0.00000000000E+00  0.00000000000E+00  0.15746798830E+03  0.15746798830E+03  0.00000000000E+00 0. -1.
         21   -1    0    0  502  503 -0.00000000000E+00 -0.00000000000E+00 -0.23973901212E+03  0.23973901212E+03  0.00000000000E+00 0. -1.
          6    1    1    2  501    0  0.43286259579E+02  0.55227466579E+02  0.17078131398E+02  0.18654606912E+03  0.17200000000E+03 0. -1.
         -6    1    1    2    0  503 -0.43286259579E+02 -0.55227466579E+02 -0.99349155220E+02  0.21066093130E+03  0.17200000000E+03 0. -1.
</event>
<event>
 4    1  0.6129841E-001  0.1745547E+03  0.7818608E-02  0.1173180E+00
         21   -1    0    0  503  502  0.00000000000E+00  0.00000000000E+00  0.88889490756E+02  0.88889490756E+02  0.00000000000E+00 0.  1.
         21   -1    0    0  501  503 -0.00000000000E+00 -0.00000000000E+00 -0.42697090634E+03  0.42697090634E+03  0.00000000000E+00 0.  1.
          6    1    1    2  501    0  0.28681255353E+02  0.79194762162E+01 -0.54504802407E+02  0.18286636103E+03  0.17200000000E+03 0.  1.
         -6    1    1    2    0  502 -0.28681255353E+02 -0.79194762162E+01 -0.28357661317E+03  0.33299403606E+03  0.17200000000E+03 0.  1.
</event>
<event>
 4    1  0.6129841E-001  0.2473764E+03  0.7818608E-02  0.1114974E+00
         21   -1    0    0  503  502  0.00000000000E+00  0.00000000000E+00  0.72128633036E+02  0.72128633036E+02  0.00000000000E+00 0.  1.
         21   -1    0    0  501  503 -0.00000000000E+00 -0.00000000000E+00 -0.12644513157E+04  0.12644513157E+04  0.00000000000E+00 0.  1.
          6    1    1    2  501    0  0.35417343667E+02  0.17423168816E+03 -0.97949690370E+03  0.10102520744E+04  0.17200000000E+03 0.  1.
         -6    1    1    2    0  502 -0.35417343667E+02 -0.17423168816E+03 -0.21282577892E+03  0.32632787433E+03  0.17200000000E+03 0.  1.
</event>
<event>
 4    1  0.6129841E-001  0.1963568E+03  0.7818608E-02  0.1152850E+00
         21   -1    0    0  503  502  0.00000000000E+00  0.00000000000E+00  0.66673616042E+02  0.66673616042E+02  0.00000000000E+00 0.  1.
         21   -1    0    0  501  503 -0.00000000000E+00 -0.00000000000E+00 -0.63841157045E+03  0.63841157045E+03  0.00000000000E+00 0.  1.
          6    1    1    2  501    0  0.55714408455E+02  0.76602108593E+02 -0.39406584234E+03  0.44027703375E+03  0.17200000000E+03 0. -1.
         -6    1    1    2    0  502 -0.55714408455E+02 -0.76602108593E+02 -0.17767211207E+03  0.26480815274E+03  0.17200000000E+03 0. -1.
</event>
<event>
 4    1  0.6129841E-001  0.1903283E+03  0.7818608E-02  0.1158166E+00
         21   -1    0    0  501  502  0.00000000000E+00  0.00000000000E+00  0.20565248835E+03  0.20565248835E+03  0.00000000000E+00 0.  1.
         21   -1    0    0  502  503 -0.00000000000E+00 -0.00000000000E+00 -0.19114640587E+03  0.19114640587E+03  0.00000000000E+00 0.  1.
          6    1    1    2  501    0 -0.27890347055E+02 -0.76570085233E+02  0.62831930832E+02  0.20043128734E+03  0.17200000000E+03 0.  1.
         -6    1    1    2    0  503  0.27890347055E+02  0.76570085233E+02 -0.48325848351E+02  0.19636760688E+03  0.17200000000E+03 0.  1.
</event>
<event>
 4    1  0.6129841E-001  0.2653554E+03  0.7818608E-02  0.1103968E+00
         21   -1    0    0  503  502  0.00000000000E+00  0.00000000000E+00  0.33350948890E+03  0.33350948890E+03  0.00000000000E+00 0.  1.
         21   -1    0    0  501  503 -0.00000000000E+00 -0.00000000000E+00 -0.93016786072E+03  0.93016786072E+03  0.00000000000E+00 0.  1.
          6    1    1    2  501    0  0.10008954913E+03 -0.17553228148E+03 -0.85385180260E+03  0.89413444206E+03  0.17200000000E+03 0.  1.
         -6    1    1    2    0  502 -0.10008954913E+03  0.17553228148E+03  0.25719343078E+03  0.36954290755E+03  0.17200000000E+03 0.  1.
</event>
<event>
 4    1  0.6129841E-001  0.1749056E+03  0.7818608E-02  0.1172827E+00
         21   -1    0    0  501  502  0.00000000000E+00  0.00000000000E+00  0.11417113396E+03  0.11417113396E+03  0.00000000000E+00 0. -1.
         21   -1    0    0  502  503 -0.00000000000E+00 -0.00000000000E+00 -0.28201967280E+03  0.28201967280E+03  0.00000000000E+00 0. -1.
          6    1    1    2  501    0 -0.30309495438E+02 -0.94494945009E+01 -0.12817325393E+03  0.21684174294E+03  0.17200000000E+03 0.  1.
         -6    1    1    2    0  503  0.30309495438E+02  0.94494945009E+01 -0.39675284914E+02  0.17934906382E+03  0.17200000000E+03 0.  1.
</event>
<event>
 4    1  0.6129841E-001  0.3249599E+03  0.7818608E-02  0.1073389E+00
         21   -1    0    0  503  502  0.00000000000E+00  0.00000000000E+00  0.97871214719E+03  0.97871214719E+03  0.00000000000E+00 0.  1.
         21   -1    0    0  501  503 -0.00000000000E+00 -0.00000000000E+00 -0.13322292284E+03  0.13322292284E+03  0.00000000000E+00 0. -1.
          6    1    1    2  501    0  0.19321560113E+03  0.19667917576E+03  0.66515574505E+03  0.74029124800E+03  0.17200000000E+03 0.  1.
         -6    1    1    2    0  502 -0.19321560113E+03 -0.19667917576E+03  0.18033347930E+03  0.37164382203E+03  0.17200000000E+03 0. -1.
</event>
<event>
 4    1  0.6129841E-001  0.7344234E+03  0.7818608E-02  0.9660110E-01
         21   -1    0    0  501  502  0.00000000000E+00  0.00000000000E+00  0.41840624497E+03  0.41840624497E+03  0.00000000000E+00 0. -1.
         21   -1    0    0  502  503 -0.00000000000E+00 -0.00000000000E+00 -0.15224292766E+04  0.15224292766E+04  0.00000000000E+00 0.  1.
          6    1    1    2  501    0  0.43957860107E+03 -0.56264051561E+03 -0.17212656577E+03  0.75432436722E+03  0.17200000000E+03 0. -1.
         -6    1    1    2    0  503 -0.43957860107E+03  0.56264051561E+03 -0.93189646583E+03  0.11865111543E+04  0.17200000000E+03 0.  1.
</event>
<event>
 4    1  0.6129841E-001  0.1866800E+03  0.7818608E-02  0.1161490E+00
         21   -1    0    0  501  502  0.00000000000E+00  0.00000000000E+00  0.48487416581E+03  0.48487416581E+03  0.00000000000E+00 0.  1.
         21   -1    0    0  502  503 -0.00000000000E+00 -0.00000000000E+00 -0.24271556742E+03  0.24271556742E+03  0.00000000000E+00 0.  1.
          6    1    1    2  501    0 -0.72553306815E+02  0.12043248106E+01  0.42629411184E+03  0.46537737646E+03  0.17200000000E+03 0.  1.
         -6    1    1    2    0  503  0.72553306815E+02 -0.12043248106E+01 -0.18413551346E+03  0.26221235677E+03  0.17200000000E+03 0.  1.
</event>
<event>
 4    1  0.6129841E-001  0.1726776E+03  0.7818608E-02  0.1175084E+00
         21   -1    0    0  501  502  0.00000000000E+00  0.00000000000E+00  0.20995275643E+03  0.20995275643E+03  0.00000000000E+00 0.  1.
         21   -1    0    0  502  503 -0.00000000000E+00 -0.00000000000E+00 -0.35537825751E+03  0.35537825751E+03  0.00000000000E+00 0.  1.
          6    1    1    2  501    0 -0.54570663510E+01 -0.14274567259E+02  0.14630628540E+03  0.22632514662E+03  0.17200000000E+03 0.  1.
         -6    1    1    2    0  503  0.54570663510E+01  0.14274567259E+02 -0.29173178647E+03  0.33900586733E+03  0.17200000000E+03 0.  1.
</event>
<event>
 4    1  0.6129841E-001  0.1863531E+03  0.7818608E-02  0.1161792E+00
         21   -1    0    0  501  502  0.00000000000E+00  0.00000000000E+00  0.97478223113E+02  0.97478223113E+02  0.00000000000E+00 0.  1.
         21   -1    0    0  502  503 -0.00000000000E+00 -0.00000000000E+00 -0.41041107364E+03  0.41041107364E+03  0.00000000000E+00 0.  1.
          6    1    1    2  501    0  0.23979022923E+02 -0.67590698861E+02 -0.64222664544E+02  0.19710922544E+03  0.17200000000E+03 0. -1.
         -6    1    1    2    0  503 -0.23979022923E+02  0.67590698861E+02 -0.24871018598E+03  0.31078007131E+03  0.17200000000E+03 0. -1.
</event>
<event>
 4    1  0.6129841E-001  0.1755773E+03  0.7818608E-02  0.1172153E+00
         21   -1    0    0  501  502  0.00000000000E+00  0.00000000000E+00  0.86755068549E+02  0.86755068549E+02  0.00000000000E+00 0. -1.
         21   -1    0    0  502  503 -0.00000000000E+00 -0.00000000000E+00 -0.42352119500E+03  0.42352119500E+03  0.00000000000E+00 0. -1.
          6    1    1    2  501    0 -0.25035522297E+02 -0.24831694116E+02 -0.27075379666E+03  0.32269956432E+03  0.17200000000E+03 0. -1.
         -6    1    1    2    0  503  0.25035522297E+02  0.24831694116E+02 -0.66012329798E+02  0.18757669923E+03  0.17200000000E+03 0. -1.
</event>
<event>
 4    1  0.6129841E-001  0.2005597E+03  0.7818608E-02  0.1149268E+00
         21   -1    0    0  501  502  0.00000000000E+00  0.00000000000E+00  0.51902704907E+03  0.51902704907E+03  0.00000000000E+00 0.  1.
         21   -1    0    0  502  503 -0.00000000000E+00 -0.00000000000E+00 -0.89351313868E+02  0.89351313868E+02  0.00000000000E+00 0.  1.
          6    1    1    2  501    0 -0.77145502407E+02 -0.68474450427E+02  0.32562549898E+03  0.38243449699E+03  0.17200000000E+03 0.  1.
         -6    1    1    2    0  503  0.77145502407E+02  0.68474450427E+02  0.10405023623E+03  0.22594386595E+03  0.17200000000E+03 0.  1.
</event>
<event>
 4    1  0.6129841E-001  0.1884406E+03  0.7818608E-02  0.1159875E+00
         21   -1    0    0  503  502  0.00000000000E+00  0.00000000000E+00  0.56740163517E+02  0.56740163517E+02  0.00000000000E+00 0.  1.
         21   -1    0    0  501  503 -0.00000000000E+00 -0.00000000000E+00 -0.66413043204E+03  0.66413043204E+03  0.00000000000E+00 0.  1.
          6    1    1    2  501    0 -0.22113521846E+02 -0.73735118995E+02 -0.39024862059E+03  0.43336342889E+03  0.17200000000E+03 0.  1.
         -6    1    1    2    0  502  0.22113521846E+02  0.73735118995E+02 -0.21714164793E+03  0.28750716667E+03  0.17200000000E+03 0.  1.
</event>
<event>
 4    1  0.6129841E-001  0.1773260E+03  0.7818608E-02  0.1170416E+00
         21   -1    0    0  503  502  0.00000000000E+00  0.00000000000E+00  0.18127167585E+03  0.18127167585E+03  0.00000000000E+00 0. -1.
         21   -1    0    0  501  503 -0.00000000000E+00 -0.00000000000E+00 -0.18927313415E+03  0.18927313415E+03  0.00000000000E+00 0. -1.
          6    1    1    2  501    0 -0.25882745749E+02 -0.34504762938E+02 -0.57542299393E+02  0.18642856920E+03  0.17200000000E+03 0.  1.
         -6    1    1    2    0  502  0.25882745749E+02  0.34504762938E+02  0.49540841094E+02  0.18411624081E+03  0.17200000000E+03 0.  1.
</event>
<event>
 4    1  0.6129841E-001  0.2692583E+03  0.7818608E-02  0.1101705E+00
         21   -1    0    0  501  502  0.00000000000E+00  0.00000000000E+00  0.12059715960E+04  0.12059715960E+04  0.00000000000E+00 0. -1.
         21   -1    0    0  502  503 -0.00000000000E+00 -0.00000000000E+00 -0.13817558409E+03  0.13817558409E+03  0.00000000000E+00 0. -1.
          6    1    1    2  501    0  0.13898276154E+02 -0.20669507563E+03  0.10390360462E+04  0.10733573132E+04  0.17200000000E+03 0. -1.
         -6    1    1    2    0  503 -0.13898276154E+02  0.20669507563E+03  0.28759965618E+02  0.27078986686E+03  0.17200000000E+03 0. -1.
</event>
<event>
 4    1  0.6129841E-001  0.2294441E+03  0.7818608E-02  0.1127032E+00
         21   -1    0    0  501  502  0.00000000000E+00  0.00000000000E+00  0.58217263855E+03  0.58217263855E+03  0.00000000000E+00 0.  1.
         21   -1    0    0  502  503 -0.00000000000E+00 -0.00000000000E+00 -0.11510222682E+03  0.11510222682E+03  0.00000000000E+00 0.  1.
          6    1    1    2  501    0  0.64077347436E+02  0.13767598303E+03  0.39495463677E+03  0.45676443366E+03  0.17200000000E+03 0.  1.
         -6    1    1    2    0  503 -0.64077347436E+02 -0.13767598303E+03  0.72115774970E+02  0.24051043170E+03  0.17200000000E+03 0.  1.
</event>
<event>
 4    1  0.6129841E-001  0.1822035E+03  0.7818608E-02  0.1165687E+00
         21   -1    0    0  501  502  0.00000000000E+00  0.00000000000E+00  0.88905145125E+03  0.88905145125E+03  0.00000000000E+00 0.  1.
         21   -1    0    0  502  503 -0.00000000000E+00 -0.00000000000E+00 -0.40686853420E+02  0.40686853420E+02  0.00000000000E+00 0.  1.
          6    1    1    2  501    0 -0.15416529989E+02  0.58107325115E+02  0.55748922779E+03  0.58650862716E+03  0.17200000000E+03 0. -1.
         -6    1    1    2    0  503  0.15416529989E+02 -0.58107325115E+02  0.29087537004E+03  0.34322967751E+03  0.17200000000E+03 0. -1.
</event>
<event>
 4    1  0.6129841E-001  0.1844769E+03  0.7818608E-02  0.1163539E+00
         21   -1    0    0  503  502  0.00000000000E+00  0.00000000000E+00  0.79411006567E+02  0.79411006567E+02  0.00000000000E+00 0.  1.
         21   -1    0    0  501  503 -0.00000000000E+00 -0.00000000000E+00 -0.43714126393E+03  0.43714126393E+03  0.00000000000E+00 0. -1.
          6    1    1    2  501    0  0.63979264860E+02  0.18824789074E+02 -0.14266085476E+03  0.23320342728E+03  0.17200000000E+03 0.  1.
         -6    1    1    2    0  502 -0.63979264860E+02 -0.18824789074E+02 -0.21506940261E+03  0.28334884322E+03  0.17200000000E+03 0. -1.
</event>
<event>
 4    1  0.6129841E-001  0.1976457E+03  0.7818608E-02  0.1151741E+00
         21   -1    0    0  503  502  0.00000000000E+00  0.00000000000E+00  0.11537215416E+04  0.11537215416E+04  0.00000000000E+00 0. -1.
         21   -1    0    0  501  503 -0.00000000000E+00 -0.00000000000E+00 -0.33943379129E+02  0.33943379129E+02  0.00000000000E+00 0. -1.
          6    1    1    2  501    0  0.57851033524E+02 -0.78313906267E+02  0.53027418262E+03  0.56591034515E+03  0.17200000000E+03 0.  1.
         -6    1    1    2    0  502 -0.57851033524E+02  0.78313906267E+02  0.58950397987E+03  0.62175457559E+03  0.17200000000E+03 0.  1.
</event>
<event>
 4    1  0.6129841E-001  0.1771744E+03  0.7818608E-02  0.1170566E+00
         21   -1    0    0  503  502  0.00000000000E+00  0.00000000000E+00  0.23102648538E+03  0.23102648538E+03  0.00000000000E+00 0.  1.
         21   -1    0    0  501  503 -0.00000000000E+00 -0.00000000000E+00 -0.16750026171E+03  0.16750026171E+03  0.00000000000E+00 0.  1.
          6    1    1    2  501    0  0.28056156425E+02  0.31931315027E+02 -0.54820523083E+02  0.18546171180E+03  0.17200000000E+03 0.  1.
         -6    1    1    2    0  502 -0.28056156425E+02 -0.31931315027E+02  0.11834674675E+03  0.21306503528E+03  0.17200000000E+03 0.  1.
</event>
<event>
 4    1  0.6129841E-001  0.1813384E+03  0.7818608E-02  0.1166514E+00
         21   -1    0    0  503  502  0.00000000000E+00  0.00000000000E+00  0.42509173616E+02  0.42509173616E+02  0.00000000000E+00 0.  1.
         21   -1    0    0  501  503 -0.00000000000E+00 -0.00000000000E+00 -0.81078503372E+03  0.81078503372E+03  0.00000000000E+00 0.  1.
          6    1    1    2  501    0 -0.40714866959E+00  0.57440939178E+02 -0.47554963290E+03  0.50895096091E+03  0.17200000000E+03 0.  1.
         -6    1    1    2    0  502  0.40714866959E+00 -0.57440939178E+02 -0.29272622720E+03  0.34434324642E+03  0.17200000000E+03 0.  1.
</event>
<event>
 4    1  0.6129841E-001  0.1869690E+03  0.7818608E-02  0.1161224E+00
         21   -1    0    0  501  502  0.00000000000E+00  0.00000000000E+00  0.45521008303E+02  0.45521008303E+02  0.00000000000E+00 0.  1.
         21   -1    0    0  502  503 -0.00000000000E+00 -0.00000000000E+00 -0.12363821397E+04  0.12363821397E+04  0.00000000000E+00 0.  1.
          6    1    1    2  501    0  0.58728270579E+02 -0.43868002610E+02 -0.98995758415E+03  0.10074588973E+04  0.17200000000E+03 0. -1.
         -6    1    1    2    0  503 -0.58728270579E+02  0.43868002610E+02 -0.20090354721E+03  0.27444425062E+03  0.17200000000E+03 0. -1.
</event>
<event>
 4    1  0.6129841E-001  0.2156784E+03  0.7818608E-02  0.1137147E+00
         21   -1    0    0  503  502  0.00000000000E+00  0.00000000000E+00  0.41212071173E+02  0.41212071173E+02  0.00000000000E+00 0.  1.
         21   -1    0    0  501  503 -0.00000000000E+00 -0.00000000000E+00 -0.14421415136E+04  0.14421415136E+04  0.00000000000E+00 0.  1.
          6    1    1    2  501    0 -0.11383302213E+03 -0.63049474885E+02 -0.10462209699E+04  0.10682207221E+04  0.17200000000E+03 0.  1.
         -6    1    1    2    0  502  0.11383302213E+03  0.63049474885E+02 -0.35470847253E+03  0.41513286270E+03  0.17200000000E+03 0.  1.
</event>
<event>
 4    1  0.6129841E-001  0.2371798E+03  0.7818608E-02  0.1121686E+00
         21   -1    0    0  503  502  0.00000000000E+00  0.00000000000E+00  0.61181980091E+02  0.61181980091E+02  0.00000000000E+00 0. -1.
         21   -1    0    0  501  503 -0.00000000000E+00 -0.00000000000E+00 -0.10345275977E+04  0.10345275977E+04  0.00000000000E+00 0.  1.
          6    1    1    2  501    0 -0.15076124797E+03  0.62779865720E+02 -0.30395764810E+03  0.38554444267E+03  0.17200000000E+03 0. -1.
         -6    1    1    2    0  502  0.15076124797E+03 -0.62779865720E+02 -0.66938796953E+03  0.71016513515E+03  0.17200000000E+03 0.  1.
</event>
<event>
 4    1  0.6129841E-001  0.2002635E+03  0.7818608E-02  0.1149517E+00
         21   -1    0    0  501  502  0.00000000000E+00  0.00000000000E+00  0.10675436776E+03  0.10675436776E+03  0.00000000000E+00 0. -1.
         21   -1    0    0  502  503 -0.00000000000E+00 -0.00000000000E+00 -0.38217640153E+03  0.38217640153E+03  0.00000000000E+00 0. -1.
          6    1    1    2  501    0 -0.86785500154E+02 -0.54678735449E+02 -0.16958379417E+03  0.26241979802E+03  0.17200000000E+03 0.  1.
         -6    1    1    2    0  503  0.86785500154E+02  0.54678735449E+02 -0.10583823960E+03  0.22651097128E+03  0.17200000000E+03 0.  1.
</event>
<event>
 4    1  0.6129841E-001  0.2313391E+03  0.7818608E-02  0.1125701E+00
         21   -1    0    0  503  502  0.00000000000E+00  0.00000000000E+00  0.22276122902E+03  0.22276122902E+03  0.00000000000E+00 0. -1.
         21   -1    0    0  501  503 -0.00000000000E+00 -0.00000000000E+00 -0.24029760483E+03  0.24029760483E+03  0.00000000000E+00 0. -1.
          6    1    1    2  501    0  0.46573022135E+02  0.14752879673E+03 -0.12116860478E+02  0.23165623359E+03  0.17200000000E+03 0. -1.
         -6    1    1    2    0  502 -0.46573022135E+02 -0.14752879673E+03 -0.54195153291E+01  0.23140260025E+03  0.17200000000E+03 0. -1.
</event>
<event>
 4    1  0.6129841E-001  0.1810388E+03  0.7818608E-02  0.1166801E+00
         21   -1    0    0  503  502  0.00000000000E+00  0.00000000000E+00  0.10848118136E+03  0.10848118136E+03  0.00000000000E+00 0.  1.
         21   -1    0    0  501  503 -0.00000000000E+00 -0.00000000000E+00 -0.82213287851E+03  0.82213287851E+03  0.00000000000E+00 0.  1.
          6    1    1    2  501    0  0.25632929188E+02  0.50339031979E+02 -0.72688644346E+03  0.74909209506E+03  0.17200000000E+03 0.  1.
         -6    1    1    2    0  502 -0.25632929188E+02 -0.50339031979E+02  0.13234746304E+02  0.18152196481E+03  0.17200000000E+03 0.  1.
</event>
<event>
 4    1  0.6129841E-001  0.1925942E+03  0.7818608E-02  0.1156142E+00
         21   -1    0    0  501  502  0.00000000000E+00  0.00000000000E+00  0.11286624473E+03  0.11286624473E+03  0.00000000000E+00 0. -1.
         21   -1    0    0  502  503 -0.00000000000E+00 -0.00000000000E+00 -0.50308526443E+03  0.50308526443E+03  0.00000000000E+00 0. -1.
          6    1    1    2  501    0  0.54231339113E+02 -0.67583255854E+02 -0.13757060567E+02  0.19308493294E+03  0.17200000000E+03 0. -1.
         -6    1    1    2    0  503 -0.54231339113E+02  0.67583255854E+02 -0.37646195913E+03  0.42286657622E+03  0.17200000000E+03 0. -1.
</event>
<event>
 4    1  0.6129841E-001  0.2254478E+03  0.7818608E-02  0.1129885E+00
         21   -1    0    0  503  502  0.00000000000E+00  0.00000000000E+00  0.52805113444E+03  0.52805113444E+03  0.00000000000E+00 0.  1.
         21   -1    0    0  501  503 -0.00000000000E+00 -0.00000000000E+00 -0.16359833292E+03  0.16359833292E+03  0.00000000000E+00 0.  1.
          6    1    1    2  501    0 -0.24603549288E+02  0.14365710875E+03 -0.39654123630E+02  0.22890860415E+03  0.17200000000E+03 0.  1.
         -6    1    1    2    0  502  0.24603549288E+02 -0.14365710875E+03  0.40410692515E+03  0.46274086321E+03  0.17200000000E+03 0.  1.
</event>
<event>
 4    1  0.6129841E-001  0.1968350E+03  0.7818608E-02  0.1152437E+00
         21   -1    0    0  503  502  0.00000000000E+00  0.00000000000E+00  0.13765758701E+03  0.13765758701E+03  0.00000000000E+00 0.  1.
         21   -1    0    0  501  503 -0.00000000000E+00 -0.00000000000E+00 -0.28527192204E+03  0.28527192204E+03  0.00000000000E+00 0.  1.
          6    1    1    2  501    0 -0.52146829183E+02 -0.80254148830E+02 -0.49337464420E+02  0.20292413753E+03  0.17200000000E+03 0.  1.
         -6    1    1    2    0  502  0.52146829183E+02  0.80254148830E+02 -0.98276870617E+02  0.22000537152E+03  0.17200000000E+03 0.  1.
</event>
<event>
 4    1  0.6129841E-001  0.1747890E+03  0.7818608E-02  0.1172944E+00
         21   -1    0    0  501  502  0.00000000000E+00  0.00000000000E+00  0.42080953667E+02  0.42080953667E+02  0.00000000000E+00 0.  1.
         21   -1    0    0  502  503 -0.00000000000E+00 -0.00000000000E+00 -0.11410456511E+04  0.11410456511E+04  0.00000000000E+00 0.  1.
          6    1    1    2  501    0  0.29828566768E+02 -0.88014006808E+01 -0.19270914227E+03  0.26016921717E+03  0.17200000000E+03 0. -1.
         -6    1    1    2    0  503 -0.29828566768E+02  0.88014006808E+01 -0.90625555514E+03  0.92295738757E+03  0.17200000000E+03 0. -1.
</event>
<event>
 4    1  0.6129841E-001  0.1943071E+03  0.7818608E-02  0.1154633E+00
         21   -1    0    0  503  502  0.00000000000E+00  0.00000000000E+00  0.69212643188E+02  0.69212643188E+02  0.00000000000E+00 0.  1.
         21   -1    0    0  501  503 -0.00000000000E+00 -0.00000000000E+00 -0.56772857811E+03  0.56772857811E+03  0.00000000000E+00 0.  1.
          6    1    1    2  501    0 -0.86637790041E+02  0.25790112823E+02 -0.31227987688E+03  0.36779608220E+03  0.17200000000E+03 0.  1.
         -6    1    1    2    0  502  0.86637790041E+02 -0.25790112823E+02 -0.18623605805E+03  0.26914513910E+03  0.17200000000E+03 0.  1.
</event>
<event>
 4    1  0.6129841E-001  0.2069174E+03  0.7818608E-02  0.1144031E+00
         21   -1    0    0  503  502  0.00000000000E+00  0.00000000000E+00  0.96447573222E+03  0.96447573222E+03  0.00000000000E+00 0.  1.
         21   -1    0    0  501  503 -0.00000000000E+00 -0.00000000000E+00 -0.48008094689E+02  0.48008094689E+02  0.00000000000E+00 0.  1.
          6    1    1    2  501    0 -0.95793195795E+02 -0.63674802234E+02  0.31929212640E+03  0.38047638400E+03  0.17200000000E+03 0. -1.
         -6    1    1    2    0  502  0.95793195795E+02  0.63674802234E+02  0.59717551113E+03  0.63200744291E+03  0.17200000000E+03 0. -1.
</event>
<event>
 4    1  0.6129841E-001  0.2008743E+03  0.7818608E-02  0.1149003E+00
         21   -1    0    0  501  502  0.00000000000E+00  0.00000000000E+00  0.18591871957E+03  0.18591871957E+03  0.00000000000E+00 0. -1.
         21   -1    0    0  502  503 -0.00000000000E+00 -0.00000000000E+00 -0.21803774833E+03  0.21803774833E+03  0.00000000000E+00 0. -1.
          6    1    1    2  501    0  0.10224587683E+02 -0.10325665923E+03 -0.29771104670E+02  0.20306845777E+03  0.17200000000E+03 0. -1.
         -6    1    1    2    0  503 -0.10224587683E+02  0.10325665923E+03 -0.23479240864E+01  0.20088801013E+03  0.17200000000E+03 0. -1.
</event>
<event>
 4    1  0.6129841E-001  0.1910743E+03  0.7818608E-02  0.1157496E+00
         21   -1    0    0  503  502  0.00000000000E+00  0.00000000000E+00  0.64210906440E+02  0.64210906440E+02  0.00000000000E+00 0. -1.
         21   -1    0    0  501  503 -0.00000000000E+00 -0.00000000000E+00 -0.11633130775E+04  0.11633130775E+04  0.00000000000E+00 0. -1.
          6    1    1    2  501    0 -0.82870911590E+02  0.76033750517E+01 -0.98839559914E+03  0.10066952169E+04  0.17200000000E+03 0. -1.
         -6    1    1    2    0  502  0.82870911590E+02 -0.76033750517E+01 -0.11070657195E+03  0.22082876709E+03  0.17200000000E+03 0. -1.
</event>
<event>
 4    1  0.6129841E-001  0.1989793E+03  0.7818608E-02  0.1150603E+00
         21   -1    0    0  503  502  0.00000000000E+00  0.00000000000E+00  0.99169159947E+02  0.99169159947E+02  0.00000000000E+00 0. -1.
         21   -1    0    0  501  503 -0.00000000000E+00 -0.00000000000E+00 -0.11170075330E+04  0.11170075330E+04  0.00000000000E+00 0. -1.
          6    1    1    2  501    0  0.78369336319E+02  0.62185274946E+02 -0.99636810738E+03  0.10160424040E+04  0.17200000000E+03 0. -1.
         -6    1    1    2    0  502 -0.78369336319E+02 -0.62185274946E+02 -0.21470265632E+02  0.20013428892E+03  0.17200000000E+03 0. -1.
</event>
<event>
 4    1  0.6129841E-001  0.1740230E+03  0.7818608E-02  0.1173716E+00
         21   -1    0    0  503  502  0.00000000000E+00  0.00000000000E+00  0.17233112560E+03  0.17233112560E+03  0.00000000000E+00 0.  1.
         21   -1    0    0  501  503 -0.00000000000E+00 -0.00000000000E+00 -0.18380308181E+03  0.18380308181E+03  0.00000000000E+00 0.  1.
          6    1    1    2  501    0 -0.24923494187E+02  0.88777239750E+01 -0.43051421133E+02  0.17926912564E+03  0.17200000000E+03 0.  1.
         -6    1    1    2    0  502  0.24923494187E+02 -0.88777239750E+01  0.31579464928E+02  0.17686508177E+03  0.17200000000E+03 0.  1.
</event>
<event>
 4    1  0.6129841E-001  0.1923358E+03  0.7818608E-02  0.1156371E+00
         21   -1    0    0  503  502  0.00000000000E+00  0.00000000000E+00  0.28936865100E+03  0.28936865100E+03  0.00000000000E+00 0.  1.
         21   -1    0    0  501  503 -0.00000000000E+00 -0.00000000000E+00 -0.16309706498E+03  0.16309706498E+03  0.00000000000E+00 0.  1.
          6    1    1    2  501    0  0.58193368712E+02  0.63423863977E+02 -0.42048803826E+02  0.19687853257E+03  0.17200000000E+03 0.  1.
         -6    1    1    2    0  502 -0.58193368712E+02 -0.63423863977E+02  0.16832038985E+03  0.25558718341E+03  0.17200000000E+03 0.  1.
</event>
<event>
 4    1  0.6129841E-001  0.2117137E+03  0.7818608E-02  0.1140216E+00
         21   -1    0    0  503  502  0.00000000000E+00  0.00000000000E+00  0.18939277220E+03  0.18939277220E+03  0.00000000000E+00 0. -1.
         21   -1    0    0  501  503 -0.00000000000E+00 -0.00000000000E+00 -0.24767737686E+03  0.24767737686E+03  0.00000000000E+00 0. -1.
          6    1    1    2  501    0  0.38666838387E+01 -0.12338456674E+03 -0.75222257263E+02  0.22467997361E+03  0.17200000000E+03 0.  1.
         -6    1    1    2    0  502 -0.38666838387E+01  0.12338456674E+03  0.16937652603E+02  0.21239017546E+03  0.17200000000E+03 0.  1.
</event>
<event>
 4    1  0.6129841E-001  0.2178415E+03  0.7818608E-02  0.1135503E+00
         21   -1    0    0  501  502  0.00000000000E+00  0.00000000000E+00  0.10086299554E+04  0.10086299554E+04  0.00000000000E+00 0.  1.
         21   -1    0    0  502  503 -0.00000000000E+00 -0.00000000000E+00 -0.59569230209E+02  0.59569230209E+02  0.00000000000E+00 0.  1.
          6    1    1    2  501    0 -0.10230981483E+02 -0.13329012122E+03  0.71939110014E+03  0.75165050679E+03  0.17200000000E+03 0.  1.
         -6    1    1    2    0  503  0.10230981483E+02  0.13329012122E+03  0.22966962509E+03  0.31654867886E+03  0.17200000000E+03 0.  1.
</event>
<event>
 4    1  0.6129841E-001  0.1792906E+03  0.7818608E-02  0.1168491E+00
         21   -1    0    0  503  502  0.00000000000E+00  0.00000000000E+00  0.11567571471E+04  0.11567571471E+04  0.00000000000E+00 0.  1.
         21   -1    0    0  501  503 -0.00000000000E+00 -0.00000000000E+00 -0.35598892833E+02  0.35598892833E+02  0.00000000000E+00 0.  1.
          6    1    1    2  501    0  0.28204857404E+02  0.42019116513E+02  0.28133737547E+03  0.33361031005E+03  0.17200000000E+03 0.  1.
         -6    1    1    2    0  502 -0.28204857404E+02 -0.42019116513E+02  0.83982087877E+03  0.85874572986E+03  0.17200000000E+03 0.  1.
</event>
<event>
 4    1  0.6129841E-001  0.2016082E+03  0.7818608E-02  0.1148389E+00
         21   -1    0    0  501  502  0.00000000000E+00  0.00000000000E+00  0.11982219400E+03  0.11982219400E+03  0.00000000000E+00 0. -1.
         21   -1    0    0  502  503 -0.00000000000E+00 -0.00000000000E+00 -0.10352877867E+04  0.10352877867E+04  0.00000000000E+00 0. -1.
          6    1    1    2  501    0 -0.98074021748E+02  0.37991567705E+02  0.15842581340E+02  0.20222972171E+03  0.17200000000E+03 0. -1.
         -6    1    1    2    0  503  0.98074021748E+02 -0.37991567705E+02 -0.93130817407E+03  0.95288025903E+03  0.17200000000E+03 0. -1.
</event>
<event>
 4    1  0.6129841E-001  0.1903606E+03  0.7818608E-02  0.1158136E+00
         21   -1    0    0  503  502  0.00000000000E+00  0.00000000000E+00  0.89410629736E+03  0.89410629736E+03  0.00000000000E+00 0.  1.
         21   -1    0    0  501  503 -0.00000000000E+00 -0.00000000000E+00 -0.40778944686E+02  0.40778944686E+02  0.00000000000E+00 0. -1.
          6    1    1    2  501    0  0.81539922978E+02 -0.20993351060E+01  0.39006223255E+03  0.43403422850E+03  0.17200000000E+03 0.  1.
         -6    1    1    2    0  502 -0.81539922978E+02  0.20993351060E+01  0.46326512013E+03  0.50085101355E+03  0.17200000000E+03 0. -1.
</event>
<event>
 4    1  0.6129841E-001  0.1954492E+03  0.7818608E-02  0.1153636E+00
         21   -1    0    0  501  502  0.00000000000E+00  0.00000000000E+00  0.77553743147E+03  0.77553743147E+03  0.00000000000E+00 0.  1.
         21   -1    0    0  502  503 -0.00000000000E+00 -0.00000000000E+00 -0.76547323843E+02  0.76547323843E+02  0.00000000000E+00 0. -1.
          6    1    1    2  501    0 -0.68529131150E+01 -0.92571170533E+02  0.60388201010E+03  0.63472345644E+03  0.17200000000E+03 0.  1.
         -6    1    1    2    0  503  0.68529131150E+01  0.92571170533E+02  0.95108097523E+02  0.21736129887E+03  0.17200000000E+03 0. -1.
</event>
<event>
 4    1  0.6129841E-001  0.2307329E+03  0.7818608E-02  0.1126125E+00
         21   -1    0    0  501  502  0.00000000000E+00  0.00000000000E+00  0.85973066953E+02  0.85973066953E+02  0.00000000000E+00 0.  1.
         21   -1    0    0  502  503 -0.00000000000E+00 -0.00000000000E+00 -0.64216847887E+03  0.64216847887E+03  0.00000000000E+00 0.  1.
          6    1    1    2  501    0 -0.15289733122E+03 -0.16615649248E+02 -0.20929893182E+03  0.31151840485E+03  0.17200000000E+03 0.  1.
         -6    1    1    2    0  503  0.15289733122E+03  0.16615649248E+02 -0.34689648009E+03  0.41662314097E+03  0.17200000000E+03 0.  1.
</event>
<event>
 4    1  0.6129841E-001  0.1951637E+03  0.7818608E-02  0.1153885E+00
         21   -1    0    0  503  502  0.00000000000E+00  0.00000000000E+00  0.80381608387E+02  0.80381608387E+02  0.00000000000E+00 0.  1.
         21   -1    0    0  501  503 -0.00000000000E+00 -0.00000000000E+00 -0.71604334428E+03  0.71604334428E+03  0.00000000000E+00 0.  1.
          6    1    1    2  501    0 -0.91092406104E+02  0.14389651075E+02 -0.54942396034E+03  0.58305709557E+03  0.17200000000E+03 0.  1.
         -6    1    1    2    0  502  0.91092406104E+02 -0.14389651075E+02 -0.86237775557E+02  0.21336785709E+03  0.17200000000E+03 0.  1.
</event>
<event>
 4    1  0.6129841E-001  0.2345434E+03  0.7818608E-02  0.1123482E+00
         21   -1    0    0  503  502  0.00000000000E+00  0.00000000000E+00  0.12872382940E+04  0.12872382940E+04  0.00000000000E+00 0. -1.
         21   -1    0    0  501  503 -0.00000000000E+00 -0.00000000000E+00 -0.95587198624E+02  0.95587198624E+02  0.00000000000E+00 0. -1.
          6    1    1    2  501    0 -0.60885880349E+02 -0.14737534635E+03  0.81701885171E+02  0.24836622391E+03  0.17200000000E+03 0. -1.
         -6    1    1    2    0  502  0.60885880349E+02  0.14737534635E+03  0.11099492102E+04  0.11344592687E+04  0.17200000000E+03 0. -1.
</event>
<event>
 4    1  0.6129841E-001  0.2178582E+03  0.7818608E-02  0.1135490E+00
         21   -1    0    0  501  502  0.00000000000E+00  0.00000000000E+00  0.33870399750E+02  0.33870399750E+02  0.00000000000E+00 0.  1.
         21   -1    0    0  502  503 -0.00000000000E+00 -0.00000000000E+00 -0.14579059953E+04  0.14579059953E+04  0.00000000000E+00 0.  1.
          6    1    1    2  501    0 -0.86234408989E+02 -0.10218521444E+03 -0.56502858344E+03  0.60557368788E+03  0.17200000000E+03 0.  1.
         -6    1    1    2    0  503  0.86234408989E+02  0.10218521444E+03 -0.85900701208E+03  0.88620270714E+03  0.17200000000E+03 0.  1.
</event>
<event>
 4    1  0.6129841E-001  0.2015469E+03  0.7818608E-02  0.1148440E+00
         21   -1    0    0  501  502  0.00000000000E+00  0.00000000000E+00  0.60234583266E+03  0.60234583266E+03  0.00000000000E+00 0.  1.
         21   -1    0    0  502  503 -0.00000000000E+00 -0.00000000000E+00 -0.67439714568E+02  0.67439714568E+02  0.00000000000E+00 0.  1.
          6    1    1    2  501    0 -0.10476908721E+03 -0.77852132590E+01  0.26899381998E+03  0.33612326067E+03  0.17200000000E+03 0. -1.
         -6    1    1    2    0  503  0.10476908721E+03  0.77852132590E+01  0.26591229812E+03  0.33366228656E+03  0.17200000000E+03 0. -1.
</event>
<event>
 4    1  0.6129841E-001  0.2261411E+03  0.7818608E-02  0.1129386E+00
         21   -1    0    0  503  502  0.00000000000E+00  0.00000000000E+00  0.69791928759E+03  0.69791928759E+03  0.00000000000E+00 0.  1.
         21   -1    0    0  501  503 -0.00000000000E+00 -0.00000000000E+00 -0.10064864868E+03  0.10064864868E+03  0.00000000000E+00 0. -1.
          6    1    1    2  501    0  0.86736610092E+02  0.11845902886E+03  0.90403478442E+02  0.24354172120E+03  0.17200000000E+03 0. -1.
         -6    1    1    2    0  502 -0.86736610092E+02 -0.11845902886E+03  0.50686716047E+03  0.55502621507E+03  0.17200000000E+03 0.  1.
</event>
<event>
 4    1  0.6129841E-001  0.2032928E+03  0.7818608E-02  0.1146990E+00
         21   -1    0    0  503  502  0.00000000000E+00  0.00000000000E+00  0.53534409079E+03  0.53534409079E+03  0.00000000000E+00 0.  1.
         21   -1    0    0  501  503 -0.00000000000E+00 -0.00000000000E+00 -0.10555561773E+03  0.10555561773E+03  0.00000000000E+00 0.  1.
          6    1    1    2  501    0  0.65215108759E+01 -0.10817319183E+03  0.48802716448E+02  0.20906858843E+03  0.17200000000E+03 0. -1.
         -6    1    1    2    0  502 -0.65215108759E+01  0.10817319183E+03  0.38098575662E+03  0.43183112009E+03  0.17200000000E+03 0. -1.
</event>
<event>
 4    1  0.6129841E-001  0.2549862E+03  0.7818608E-02  0.1110194E+00
         21   -1    0    0  503  502  0.00000000000E+00  0.00000000000E+00  0.26562042259E+03  0.26562042259E+03  0.00000000000E+00 0. -1.
         21   -1    0    0  501  503 -0.00000000000E+00 -0.00000000000E+00 -0.24919106023E+03  0.24919106023E+03  0.00000000000E+00 0.  1.
          6    1    1    2  501    0 -0.29502207619E+02  0.18591278636E+03 -0.26041493293E+02  0.25631251190E+03  0.17200000000E+03 0.  1.
         -6    1    1    2    0  502  0.29502207619E+02 -0.18591278636E+03  0.42470855651E+02  0.25849897092E+03  0.17200000000E+03 0.  1.
</event>
<event>
 4    1  0.6129841E-001  0.1981388E+03  0.7818608E-02  0.1151319E+00
         21   -1    0    0  503  502  0.00000000000E+00  0.00000000000E+00  0.10429743452E+03  0.10429743452E+03  0.00000000000E+00 0. -1.
         21   -1    0    0  501  503 -0.00000000000E+00 -0.00000000000E+00 -0.38968951287E+03  0.38968951287E+03  0.00000000000E+00 0.  1.
          6    1    1    2  501    0 -0.98328474969E+02  0.25517391675E+01 -0.97107676672E+02  0.22065561681E+03  0.17200000000E+03 0. -1.
         -6    1    1    2    0  502  0.98328474969E+02 -0.25517391675E+01 -0.18828440167E+03  0.27333133058E+03  0.17200000000E+03 0. -1.
</event>
<event>
 4    1  0.6129841E-001  0.1736059E+03  0.7818608E-02  0.1174139E+00
         21   -1    0    0  501  502  0.00000000000E+00  0.00000000000E+00  0.22243423808E+04  0.22243423808E+04  0.00000000000E+00 0. -1.
         21   -1    0    0  502  503 -0.00000000000E+00 -0.00000000000E+00 -0.79723814397E+02  0.79723814397E+02  0.00000000000E+00 0. -1.
          6    1    1    2  501    0 -0.16925907723E+02  0.16387084079E+02  0.21218884713E+04  0.21289785597E+04  0.17200000000E+03 0. -1.
         -6    1    1    2    0  503  0.16925907723E+02 -0.16387084079E+02  0.22730095050E+02  0.17508763548E+03  0.17200000000E+03 0. -1.
</event>
<event>
 4    1  0.6129841E-001  0.2092029E+03  0.7818608E-02  0.1142199E+00
         21   -1    0    0  503  502  0.00000000000E+00  0.00000000000E+00  0.59371710988E+03  0.59371710988E+03  0.00000000000E+00 0.  1.
         21   -1    0    0  501  503 -0.00000000000E+00 -0.00000000000E+00 -0.90917922001E+02  0.90917922001E+02  0.00000000000E+00 0. -1.
          6    1    1    2  501    0 -0.10015727284E+03  0.64423283960E+02  0.10249576586E+03  0.23296184417E+03  0.17200000000E+03 0. -1.
         -6    1    1    2    0  502  0.10015727284E+03 -0.64423283960E+02  0.40030342202E+03  0.45167318771E+03  0.17200000000E+03 0.  1.
</event>
<event>
 4    1  0.6129841E-001  0.1967716E+03  0.7818608E-02  0.1152492E+00
         21   -1    0    0  503  502  0.00000000000E+00  0.00000000000E+00  0.77186458068E+02  0.77186458068E+02  0.00000000000E+00 0.  1.
         21   -1    0    0  501  503 -0.00000000000E+00 -0.00000000000E+00 -0.90073613339E+03  0.90073613339E+03  0.00000000000E+00 0.  1.
          6    1    1    2  501    0  0.95440189626E+02 -0.51227309800E+01 -0.73725137428E+03  0.76305875334E+03  0.17200000000E+03 0. -1.
         -6    1    1    2    0  502 -0.95440189626E+02  0.51227309800E+01 -0.86298301040E+02  0.21486383812E+03  0.17200000000E+03 0. -1.
</event>
<event>
 4    1  0.6129841E-001  0.1978527E+03  0.7818608E-02  0.1151563E+00
         21   -1    0    0  503  502  0.00000000000E+00  0.00000000000E+00  0.47129258414E+03  0.47129258414E+03  0.00000000000E+00 0. -1.
         21   -1    0    0  501  503 -0.00000000000E+00 -0.00000000000E+00 -0.86807104671E+02  0.86807104671E+02  0.00000000000E+00 0. -1.
          6    1    1    2  501    0 -0.85236631609E+02 -0.47920831230E+02  0.13426832190E+03  0.23911016645E+03  0.17200000000E+03 0. -1.
         -6    1    1    2    0  502  0.85236631609E+02  0.47920831230E+02  0.25021715757E+03  0.31898952236E+03  0.17200000000E+03 0. -1.
</event>
<event>
 4    1  0.6129841E-001  0.1784848E+03  0.7818608E-02  0.1169278E+00
         21   -1    0    0  503  502  0.00000000000E+00  0.00000000000E+00  0.41835939150E+03  0.41835939150E+03  0.00000000000E+00 0.  1.
         21   -1    0    0  501  503 -0.00000000000E+00 -0.00000000000E+00 -0.11173803195E+03  0.11173803195E+03  0.00000000000E+00 0.  1.
          6    1    1    2  501    0 -0.29387365727E+02 -0.37539529558E+02  0.37232247985E+01  0.17852365655E+03  0.17200000000E+03 0.  1.
         -6    1    1    2    0  502  0.29387365727E+02  0.37539529558E+02  0.30289813474E+03  0.35157376690E+03  0.17200000000E+03 0.  1.
</event>
<event>
 4    1  0.6129841E-001  0.1737934E+03  0.7818608E-02  0.1173949E+00
         21   -1    0    0  501  502  0.00000000000E+00  0.00000000000E+00  0.28981448481E+03  0.28981448481E+03  0.00000000000E+00 0.  1.
         21   -1    0    0  502  503 -0.00000000000E+00 -0.00000000000E+00 -0.17151343815E+03  0.17151343815E+03  0.00000000000E+00 0.  1.
          6    1    1    2  501    0  0.24199689191E+01  0.24785210995E+02  0.20363473707E+03  0.26771490260E+03  0.17200000000E+03 0.  1.
         -6    1    1    2    0  503 -0.24199689191E+01 -0.24785210995E+02 -0.85333690410E+02  0.19361302036E+03  0.17200000000E+03 0.  1.
</event>
<event>
 4    1  0.6129841E-001  0.1761920E+03  0.7818608E-02  0.1171540E+00
         21   -1    0    0  501  502  0.00000000000E+00  0.00000000000E+00  0.37919033778E+03  0.37919033778E+03  0.00000000000E+00 0.  1.
         21   -1    0    0  502  503 -0.00000000000E+00 -0.00000000000E+00 -0.86408014382E+02  0.86408014382E+02  0.00000000000E+00 0.  1.
          6    1    1    2  501    0 -0.16376600385E+02  0.34517318386E+02  0.93030343733E+02  0.19924428013E+03  0.17200000000E+03 0.  1.
         -6    1    1    2    0  503  0.16376600385E+02 -0.34517318386E+02  0.19975197967E+03  0.26635407203E+03  0.17200000000E+03 0.  1.
</event>
<event>
 4    1  0.6129841E-001  0.1855576E+03  0.7818608E-02  0.1162530E+00
         21   -1    0    0  503  502  0.00000000000E+00  0.00000000000E+00  0.23451010616E+03  0.23451010616E+03  0.00000000000E+00 0.  1.
         21   -1    0    0  501  503 -0.00000000000E+00 -0.00000000000E+00 -0.18575789554E+03  0.18575789554E+03  0.00000000000E+00 0. -1.
          6    1    1    2  501    0 -0.52576220656E+02  0.45643690794E+02 -0.71827012456E+02  0.19897418226E+03  0.17200000000E+03 0.  1.
         -6    1    1    2    0  502  0.52576220656E+02 -0.45643690794E+02  0.12057922308E+03  0.22129381945E+03  0.17200000000E+03 0.  1.
</event>
<event>
 4    1  0.6129841E-001  0.1769779E+03  0.7818608E-02  0.1170760E+00
         21   -1    0    0  503  502  0.00000000000E+00  0.00000000000E+00  0.74088108152E+02  0.74088108152E+02  0.00000000000E+00 0.  1.
         21   -1    0    0  501  503 -0.00000000000E+00 -0.00000000000E+00 -0.52585743364E+03  0.52585743364E+03  0.00000000000E+00 0.  1.
          6    1    1    2  501    0  0.41428234965E+02 -0.45709318217E+01 -0.35870977243E+03  0.39999236606E+03  0.17200000000E+03 0.  1.
         -6    1    1    2    0  502 -0.41428234965E+02  0.45709318217E+01 -0.93059553061E+02  0.19995317573E+03  0.17200000000E+03 0.  1.
</event>
<event>
 4    1  0.6129841E-001  0.1830893E+03  0.7818608E-02  0.1164846E+00
         21   -1    0    0  501  502  0.00000000000E+00  0.00000000000E+00  0.12863843360E+03  0.12863843360E+03  0.00000000000E+00 0. -1.
         21   -1    0    0  502  503 -0.00000000000E+00 -0.00000000000E+00 -0.39638999748E+03  0.39638999748E+03  0.00000000000E+00 0. -1.
          6    1    1    2  501    0 -0.51919255254E+02  0.35243422324E+02  0.19778129423E+02  0.18415450656E+03  0.17200000000E+03 0. -1.
         -6    1    1    2    0  503  0.51919255254E+02 -0.35243422324E+02 -0.28752969330E+03  0.34087392451E+03  0.17200000000E+03 0. -1.
</event>
<event>
 4    1  0.6129841E-001  0.2352906E+03  0.7818608E-02  0.1122970E+00
         21   -1    0    0  501  502  0.00000000000E+00  0.00000000000E+00  0.16842242727E+03  0.16842242727E+03  0.00000000000E+00 0. -1.
         21   -1    0    0  502  503 -0.00000000000E+00 -0.00000000000E+00 -0.48419200179E+03  0.48419200179E+03  0.00000000000E+00 0. -1.
          6    1    1    2  501    0  0.18079605690E+02 -0.15953300478E+03  0.27025872480E+02  0.23683760162E+03  0.17200000000E+03 0.  1.
         -6    1    1    2    0  503 -0.18079605690E+02  0.15953300478E+03 -0.34279544700E+03  0.41577682744E+03  0.17200000000E+03 0.  1.
</event>
<event>
 4    1  0.6129841E-001  0.2343805E+03  0.7818608E-02  0.1123594E+00
         21   -1    0    0  501  502  0.00000000000E+00  0.00000000000E+00  0.33255426241E+03  0.33255426241E+03  0.00000000000E+00 0.  1.
         21   -1    0    0  502  503 -0.00000000000E+00 -0.00000000000E+00 -0.16518876639E+03  0.16518876639E+03  0.00000000000E+00 0.  1.
          6    1    1    2  501    0 -0.11092402979E+03  0.11421946895E+03  0.83651018059E+02  0.24886084524E+03  0.17200000000E+03 0.  1.
         -6    1    1    2    0  503  0.11092402979E+03 -0.11421946895E+03  0.83714477960E+02  0.24888218356E+03  0.17200000000E+03 0.  1.
</event>
<event>
 4    1  0.6129841E-001  0.2067455E+03  0.7818608E-02  0.1144169E+00
         21   -1    0    0  503  502  0.00000000000E+00  0.00000000000E+00  0.14406296233E+04  0.14406296233E+04  0.00000000000E+00 0.  1.
         21   -1    0    0  501  503 -0.00000000000E+00 -0.00000000000E+00 -0.31221952282E+02  0.31221952282E+02  0.00000000000E+00 0. -1.
          6    1    1    2  501    0  0.11115707046E+03 -0.28351456790E+02  0.54063656473E+03  0.57881913802E+03  0.17200000000E+03 0. -1.
         -6    1    1    2    0  502 -0.11115707046E+03  0.28351456790E+02  0.86877110626E+03  0.89303243753E+03  0.17200000000E+03 0.  1.
</event>
<event>
 4    1  0.6129841E-001  0.1983139E+03  0.7818608E-02  0.1151169E+00
         21   -1    0    0  501  502  0.00000000000E+00  0.00000000000E+00  0.10110525434E+03  0.10110525434E+03  0.00000000000E+00 0. -1.
         21   -1    0    0  502  503 -0.00000000000E+00 -0.00000000000E+00 -0.39127945392E+03  0.39127945392E+03  0.00000000000E+00 0. -1.
          6    1    1    2  501    0 -0.96489079561E+02 -0.20839060505E+02 -0.12623377407E+03  0.23508163398E+03  0.17200000000E+03 0.  1.
         -6    1    1    2    0  503  0.96489079561E+02  0.20839060505E+02 -0.16394042551E+03  0.25730307428E+03  0.17200000000E+03 0.  1.
</event>
<event>
 4    1  0.6129841E-001  0.5216954E+03  0.7818608E-02  0.1008266E+00
         21   -1    0    0  503  502  0.00000000000E+00  0.00000000000E+00  0.36301113520E+03  0.36301113520E+03  0.00000000000E+00 0.  1.
         21   -1    0    0  501  503 -0.00000000000E+00 -0.00000000000E+00 -0.10136732546E+04  0.10136732546E+04  0.00000000000E+00 0. -1.
          6    1    1    2  501    0  0.48414105698E+03 -0.90496150912E+02 -0.67656589859E+03  0.85434625973E+03  0.17200000000E+03 0. -1.
         -6    1    1    2    0  502 -0.48414105698E+03  0.90496150912E+02  0.25903779161E+02  0.52233813010E+03  0.17200000000E+03 0.  1.
</event>
<event>
 4    1  0.6129841E-001  0.1856116E+03  0.7818608E-02  0.1162480E+00
         21   -1    0    0  503  502  0.00000000000E+00  0.00000000000E+00  0.83042790064E+02  0.83042790064E+02  0.00000000000E+00 0. -1.
         21   -1    0    0  501  503 -0.00000000000E+00 -0.00000000000E+00 -0.41834370811E+03  0.41834370811E+03  0.00000000000E+00 0. -1.
          6    1    1    2  501    0  0.17787760554E+02 -0.67462987517E+02 -0.19050648919E+03  0.26597815988E+03  0.17200000000E+03 0. -1.
         -6    1    1    2    0  502 -0.17787760554E+02  0.67462987517E+02 -0.14479442886E+03  0.23540833829E+03  0.17200000000E+03 0. -1.
</event>
<event>
 4    1  0.6129841E-001  0.2203391E+03  0.7818608E-02  0.1133631E+00
         21   -1    0    0  501  502  0.00000000000E+00  0.00000000000E+00  0.94687365783E+03  0.94687365783E+03  0.00000000000E+00 0.  1.
         21   -1    0    0  502  503 -0.00000000000E+00 -0.00000000000E+00 -0.16944725858E+03  0.16944725858E+03  0.00000000000E+00 0. -1.
          6    1    1    2  501    0 -0.11552945372E+03 -0.74954937738E+02  0.85483859208E+03  0.88277874684E+03  0.17200000000E+03 0.  1.
         -6    1    1    2    0  503  0.11552945372E+03  0.74954937738E+02 -0.77412192829E+02  0.23354216957E+03  0.17200000000E+03 0. -1.
</event>
<event>
 4    1  0.6129841E-001  0.2602333E+03  0.7818608E-02  0.1107003E+00
         21   -1    0    0  501  502  0.00000000000E+00  0.00000000000E+00  0.13692497247E+03  0.13692497247E+03  0.00000000000E+00 0.  1.
         21   -1    0    0  502  503 -0.00000000000E+00 -0.00000000000E+00 -0.10975503366E+04  0.10975503366E+04  0.00000000000E+00 0.  1.
          6    1    1    2  501    0 -0.15548829758E+03  0.11815559645E+03 -0.22818553330E+02  0.26123177837E+03  0.17200000000E+03 0.  1.
         -6    1    1    2    0  503  0.15548829758E+03 -0.11815559645E+03 -0.93780681076E+03  0.97324353065E+03  0.17200000000E+03 0.  1.
</event>
<event>
 4    1  0.6129841E-001  0.1796939E+03  0.7818608E-02  0.1168100E+00
         21   -1    0    0  503  502  0.00000000000E+00  0.00000000000E+00  0.34868524841E+02  0.34868524841E+02  0.00000000000E+00 0.  1.
         21   -1    0    0  501  503 -0.00000000000E+00 -0.00000000000E+00 -0.97998648491E+03  0.97998648491E+03  0.00000000000E+00 0. -1.
          6    1    1    2  501    0  0.30622499712E+01 -0.51927898365E+02 -0.35351200163E+03  0.39656099064E+03  0.17200000000E+03 0.  1.
         -6    1    1    2    0  502 -0.30622499712E+01  0.51927898365E+02 -0.59160595844E+03  0.61829401911E+03  0.17200000000E+03 0. -1.
</event>
<event>
 4    1  0.6129841E-001  0.2211676E+03  0.7818608E-02  0.1133016E+00
         21   -1    0    0  501  502  0.00000000000E+00  0.00000000000E+00  0.32121377213E+03  0.32121377213E+03  0.00000000000E+00 0. -1.
         21   -1    0    0  502  503 -0.00000000000E+00 -0.00000000000E+00 -0.16153927359E+03  0.16153927359E+03  0.00000000000E+00 0.  1.
          6    1    1    2  501    0 -0.13626214426E+03  0.27635770921E+02  0.13761959469E+03  0.26048850384E+03  0.17200000000E+03 0. -1.
         -6    1    1    2    0  503  0.13626214426E+03 -0.27635770921E+02  0.22054903850E+02  0.22226454188E+03  0.17200000000E+03 0.  1.
</event>
<event>
 4    1  0.6129841E-001  0.1729615E+03  0.7818608E-02  0.1174794E+00
         21   -1    0    0  503  502  0.00000000000E+00  0.00000000000E+00  0.10790141181E+03  0.10790141181E+03  0.00000000000E+00 0.  1.
         21   -1    0    0  501  503 -0.00000000000E+00 -0.00000000000E+00 -0.32220477863E+03  0.32220477863E+03  0.00000000000E+00 0.  1.
          6    1    1    2  501    0  0.18150468573E+02 -0.14914159492E+01 -0.18747983190E+03  0.25507714754E+03  0.17200000000E+03 0.  1.
         -6    1    1    2    0  502 -0.18150468573E+02  0.14914159492E+01 -0.26823534918E+02  0.17502904289E+03  0.17200000000E+03 0.  1.
</event>
<event>
 4    1  0.6129841E-001  0.2556338E+03  0.7818608E-02  0.1109795E+00
         21   -1    0    0  501  502  0.00000000000E+00  0.00000000000E+00  0.16834272156E+03  0.16834272156E+03  0.00000000000E+00 0.  1.
         21   -1    0    0  502  503 -0.00000000000E+00 -0.00000000000E+00 -0.44849974871E+03  0.44849974871E+03  0.00000000000E+00 0.  1.
          6    1    1    2  501    0  0.80783865573E+02 -0.17099298456E+03 -0.26978168150E+02  0.25705340936E+03  0.17200000000E+03 0. -1.
         -6    1    1    2    0  503 -0.80783865573E+02  0.17099298456E+03 -0.25317885901E+03  0.35978906091E+03  0.17200000000E+03 0. -1.
</event>
<event>
 4    1  0.6129841E-001  0.2573027E+03  0.7818608E-02  0.1108775E+00
         21   -1    0    0  501  502  0.00000000000E+00  0.00000000000E+00  0.59614512558E+03  0.59614512558E+03  0.00000000000E+00 0.  1.
         21   -1    0    0  502  503 -0.00000000000E+00 -0.00000000000E+00 -0.12147770282E+03  0.12147770282E+03  0.00000000000E+00 0. -1.
          6    1    1    2  501    0 -0.14414974836E+03  0.12586320650E+03  0.34243671788E+03  0.42833118314E+03  0.17200000000E+03 0.  1.
         -6    1    1    2    0  503  0.14414974836E+03 -0.12586320650E+03  0.13223070488E+03  0.28929164526E+03  0.17200000000E+03 0. -1.
</event>
<event>
 4    1  0.6129841E-001  0.1731803E+03  0.7818608E-02  0.1174571E+00
         21   -1    0    0  503  502  0.00000000000E+00  0.00000000000E+00  0.12619802945E+04  0.12619802945E+04  0.00000000000E+00 0. -1.
         21   -1    0    0  501  503 -0.00000000000E+00 -0.00000000000E+00 -0.31135060434E+02  0.31135060434E+02  0.00000000000E+00 0. -1.
          6    1    1    2  501    0 -0.14416073015E+02  0.14128341890E+02  0.30086012807E+03  0.34714298188E+03  0.17200000000E+03 0. -1.
         -6    1    1    2    0  502  0.14416073015E+02 -0.14128341890E+02  0.92998510599E+03  0.94597237304E+03  0.17200000000E+03 0. -1.
</event>
<event>
 4    1  0.6129841E-001  0.2264738E+03  0.7818608E-02  0.1129147E+00
         21   -1    0    0  501  502  0.00000000000E+00  0.00000000000E+00  0.10650604670E+03  0.10650604670E+03  0.00000000000E+00 0.  1.
         21   -1    0    0  502  503 -0.00000000000E+00 -0.00000000000E+00 -0.49524498270E+03  0.49524498270E+03  0.00000000000E+00 0. -1.
          6    1    1    2  501    0 -0.27542197240E+01  0.14730516174E+03 -0.14437769693E+03  0.26858018500E+03  0.17200000000E+03 0.  1.
         -6    1    1    2    0  503  0.27542197240E+01 -0.14730516174E+03 -0.24436123907E+03  0.33317084440E+03  0.17200000000E+03 0.  1.
</event>
<event>
 4    1  0.6129841E-001  0.2252714E+03  0.7818608E-02  0.1130013E+00
         21   -1    0    0  503  502  0.00000000000E+00  0.00000000000E+00  0.38863342166E+03  0.38863342166E+03  0.00000000000E+00 0.  1.
         21   -1    0    0  501  503 -0.00000000000E+00 -0.00000000000E+00 -0.13116333317E+03  0.13116333317E+03  0.00000000000E+00 0. -1.
          6    1    1    2  501    0  0.72756309850E+02  0.12597503710E+03  0.14608877885E+03  0.26849417480E+03  0.17200000000E+03 0. -1.
         -6    1    1    2    0  502 -0.72756309850E+02 -0.12597503710E+03  0.11138130964E+03  0.25130258003E+03  0.17200000000E+03 0. -1.
</event>
<event>
 4    1  0.6129841E-001  0.1757231E+03  0.7818608E-02  0.1172008E+00
         21   -1    0    0  503  502  0.00000000000E+00  0.00000000000E+00  0.15614814069E+03  0.15614814069E+03  0.00000000000E+00 0.  1.
         21   -1    0    0  501  503 -0.00000000000E+00 -0.00000000000E+00 -0.32923553142E+03  0.32923553142E+03  0.00000000000E+00 0.  1.
          6    1    1    2  501    0  0.33801016972E+02  0.12333191898E+02 -0.23991262977E+03  0.29738306323E+03  0.17200000000E+03 0.  1.
         -6    1    1    2    0  502 -0.33801016972E+02 -0.12333191898E+02  0.66825239037E+02  0.18800060889E+03  0.17200000000E+03 0.  1.
</event>
<event>
 4    1  0.6129841E-001  0.2357558E+03  0.7818608E-02  0.1122653E+00
         21   -1    0    0  501  502  0.00000000000E+00  0.00000000000E+00  0.90601356713E+03  0.90601356713E+03  0.00000000000E+00 0. -1.
         21   -1    0    0  502  503 -0.00000000000E+00 -0.00000000000E+00 -0.15296962476E+03  0.15296962476E+03  0.00000000000E+00 0. -1.
          6    1    1    2  501    0  0.71371291949E+02 -0.14457852637E+03  0.78630964288E+03  0.82089199417E+03  0.17200000000E+03 0. -1.
         -6    1    1    2    0  503 -0.71371291949E+02  0.14457852637E+03 -0.33265700512E+02  0.23809119772E+03  0.17200000000E+03 0. -1.
</event>
<event>
 4    1  0.6129841E-001  0.3277048E+03  0.7818608E-02  0.1072157E+00
         21   -1    0    0  501  502  0.00000000000E+00  0.00000000000E+00  0.18739384725E+03  0.18739384725E+03  0.00000000000E+00 0. -1.
         21   -1    0    0  502  503 -0.00000000000E+00 -0.00000000000E+00 -0.58379518772E+03  0.58379518772E+03  0.00000000000E+00 0.  1.
          6    1    1    2  501    0  0.24053047310E+03 -0.14124998287E+03 -0.25045595293E+03  0.41245442235E+03  0.17200000000E+03 0.  1.
         -6    1    1    2    0  503 -0.24053047310E+03  0.14124998287E+03 -0.14594538753E+03  0.35873461262E+03  0.17200000000E+03 0.  1.
</event>
<event>
 4    1  0.6129841E-001  0.2708970E+03  0.7818608E-02  0.1100767E+00
         21   -1    0    0  501  502  0.00000000000E+00  0.00000000000E+00  0.13585503172E+03  0.13585503172E+03  0.00000000000E+00 0.  1.
         21   -1    0    0  502  503 -0.00000000000E+00 -0.00000000000E+00 -0.74156435550E+03  0.74156435550E+03  0.00000000000E+00 0. -1.
          6    1    1    2  501    0  0.76995772852E+02  0.19460942747E+03 -0.74229749996E+02  0.28088295442E+03  0.17200000000E+03 0.  1.
         -6    1    1    2    0  503 -0.76995772852E+02 -0.19460942747E+03 -0.53147957379E+03  0.59653643279E+03  0.17200000000E+03 0. -1.
</event>
<event>
 4    1  0.6129841E-001  0.2290826E+03  0.7818608E-02  0.1127287E+00
         21   -1    0    0  501  502  0.00000000000E+00  0.00000000000E+00  0.22518453988E+04  0.22518453988E+04  0.00000000000E+00 0. -1.
         21   -1    0    0  502  503 -0.00000000000E+00 -0.00000000000E+00 -0.44090011063E+02  0.44090011063E+02  0.00000000000E+00 0.  1.
          6    1    1    2  501    0 -0.12111664500E+03 -0.90695134005E+02  0.18920779822E+04  0.19058955742E+04  0.17200000000E+03 0. -1.
         -6    1    1    2    0  503  0.12111664500E+03  0.90695134005E+02  0.31567740548E+03  0.39003983561E+03  0.17200000000E+03 0.  1.
</event>
<event>
 4    1  0.6129841E-001  0.1853288E+03  0.7818608E-02  0.1162743E+00
         21   -1    0    0  501  502  0.00000000000E+00  0.00000000000E+00  0.57060992974E+02  0.57060992974E+02  0.00000000000E+00 0. -1.
         21   -1    0    0  502  503 -0.00000000000E+00 -0.00000000000E+00 -0.88407626836E+03  0.88407626836E+03  0.00000000000E+00 0.  1.
          6    1    1    2  501    0 -0.31116520504E+02 -0.61599716253E+02 -0.67934421109E+03  0.70416995110E+03  0.17200000000E+03 0.  1.
         -6    1    1    2    0  503  0.31116520504E+02  0.61599716253E+02 -0.14767106430E+03  0.23696731024E+03  0.17200000000E+03 0. -1.
</event>
<event>
 4    1  0.6129841E-001  0.2040298E+03  0.7818608E-02  0.1146383E+00
         21   -1    0    0  503  502  0.00000000000E+00  0.00000000000E+00  0.51600251008E+02  0.51600251008E+02  0.00000000000E+00 0. -1.
         21   -1    0    0  501  503 -0.00000000000E+00 -0.00000000000E+00 -0.15652385016E+04  0.15652385016E+04  0.00000000000E+00 0. -1.
          6    1    1    2  501    0 -0.29012963143E+02  0.10584138160E+03 -0.13195787212E+04  0.13352588331E+04  0.17200000000E+03 0. -1.
         -6    1    1    2    0  502  0.29012963143E+02 -0.10584138160E+03 -0.19405952940E+03  0.28157991945E+03  0.17200000000E+03 0. -1.
</event>
<event>
 4    1  0.6129841E-001  0.2767570E+03  0.7818608E-02  0.1097473E+00
         21   -1    0    0  503  502  0.00000000000E+00  0.00000000000E+00  0.50447175080E+03  0.50447175080E+03  0.00000000000E+00 0. -1.
         21   -1    0    0  501  503 -0.00000000000E+00 -0.00000000000E+00 -0.31190430703E+03  0.31190430703E+03  0.00000000000E+00 0.  1.
          6    1    1    2  501    0  0.19945086072E+03 -0.85028302102E+02 -0.19613758662E+03  0.33921145453E+03  0.17200000000E+03 0.  1.
         -6    1    1    2    0  502 -0.19945086072E+03  0.85028302102E+02  0.38870503039E+03  0.47716460331E+03  0.17200000000E+03 0.  1.
</event>
<event>
 4    1  0.6129841E-001  0.1800708E+03  0.7818608E-02  0.1167735E+00
         21   -1    0    0  503  502  0.00000000000E+00  0.00000000000E+00  0.63765382724E+03  0.63765382724E+03  0.00000000000E+00 0.  1.
         21   -1    0    0  501  503 -0.00000000000E+00 -0.00000000000E+00 -0.54523725858E+02  0.54523725858E+02  0.00000000000E+00 0.  1.
          6    1    1    2  501    0 -0.39312966883E+02  0.35999892271E+02  0.20174494970E+03  0.27041916785E+03  0.17200000000E+03 0. -1.
         -6    1    1    2    0  502  0.39312966883E+02 -0.35999892271E+02  0.38138515168E+03  0.42175838525E+03  0.17200000000E+03 0. -1.
</event>
<event>
 4    1  0.6129841E-001  0.2131996E+03  0.7818608E-02  0.1139057E+00
         21   -1    0    0  503  502  0.00000000000E+00  0.00000000000E+00  0.33888891435E+03  0.33888891435E+03  0.00000000000E+00 0.  1.
         21   -1    0    0  501  503 -0.00000000000E+00 -0.00000000000E+00 -0.32959703773E+03  0.32959703773E+03  0.00000000000E+00 0.  1.
          6    1    1    2  501    0 -0.90899112494E+02 -0.87220532148E+02  0.26204740183E+03  0.33782082631E+03  0.17200000000E+03 0.  1.
         -6    1    1    2    0  502  0.90899112494E+02  0.87220532148E+02 -0.25275552521E+03  0.33066512578E+03  0.17200000000E+03 0.  1.
</event>
<event>
 4    1  0.6129841E-001  0.1790378E+03  0.7818608E-02  0.1168738E+00
         21   -1    0    0  501  502  0.00000000000E+00  0.00000000000E+00  0.14930646078E+04  0.14930646078E+04  0.00000000000E+00 0. -1.
         21   -1    0    0  502  503 -0.00000000000E+00 -0.00000000000E+00 -0.44994048782E+02  0.44994048782E+02  0.00000000000E+00 0. -1.
          6    1    1    2  501    0  0.61877207481E+01 -0.49317798233E+02  0.12801073343E+04  0.12925669500E+04  0.17200000000E+03 0.  1.
         -6    1    1    2    0  503 -0.61877207481E+01  0.49317798233E+02  0.16796322477E+03  0.24549170655E+03  0.17200000000E+03 0.  1.
</event>
<event>
 4    1  0.6129841E-001  0.4335789E+03  0.7818608E-02  0.1032735E+00
         21   -1    0    0  503  502  0.00000000000E+00  0.00000000000E+00  0.32395819874E+03  0.32395819874E+03  0.00000000000E+00 0.  1.
         21   -1    0    0  501  503 -0.00000000000E+00 -0.00000000000E+00 -0.75621174948E+03  0.75621174948E+03  0.00000000000E+00 0.  1.
          6    1    1    2  501    0  0.33348593153E+03  0.21724137451E+03 -0.47661999585E+03  0.64432701462E+03  0.17200000000E+03 0.  1.
         -6    1    1    2    0  502 -0.33348593153E+03 -0.21724137451E+03  0.44366445103E+02  0.43584293361E+03  0.17200000000E+03 0.  1.
</event>
<event>
 4    1  0.6129841E-001  0.1797428E+03  0.7818608E-02  0.1168052E+00
         21   -1    0    0  503  502  0.00000000000E+00  0.00000000000E+00  0.19835001227E+03  0.19835001227E+03  0.00000000000E+00 0. -1.
         21   -1    0    0  501  503 -0.00000000000E+00 -0.00000000000E+00 -0.16288415688E+03  0.16288415688E+03  0.00000000000E+00 0. -1.
          6    1    1    2  501    0  0.51329057524E+02  0.94242654248E+01  0.18501880706E+02  0.18069258013E+03  0.17200000000E+03 0. -1.
         -6    1    1    2    0  502 -0.51329057524E+02 -0.94242654248E+01  0.16963974685E+02  0.18054158901E+03  0.17200000000E+03 0. -1.
</event>
<event>
 4    1  0.6129841E-001  0.1853077E+03  0.7818608E-02  0.1162763E+00
         21   -1    0    0  503  502  0.00000000000E+00  0.00000000000E+00  0.48574361431E+02  0.48574361431E+02  0.00000000000E+00 0.  1.
         21   -1    0    0  501  503 -0.00000000000E+00 -0.00000000000E+00 -0.87470248299E+03  0.87470248299E+03  0.00000000000E+00 0.  1.
          6    1    1    2  501    0 -0.22110050671E+02  0.65315276275E+02 -0.61523793698E+03  0.64253922741E+03  0.17200000000E+03 0.  1.
         -6    1    1    2    0  502  0.22110050671E+02 -0.65315276275E+02 -0.21089018458E+03  0.28073761701E+03  0.17200000000E+03 0.  1.
</event>
<event>
 4    1  0.6129841E-001  0.1780367E+03  0.7818608E-02  0.1169717E+00
         21   -1    0    0  501  502  0.00000000000E+00  0.00000000000E+00  0.31212228204E+03  0.31212228204E+03  0.00000000000E+00 0.  1.
         21   -1    0    0  502  503 -0.00000000000E+00 -0.00000000000E+00 -0.10797540686E+03  0.10797540686E+03  0.00000000000E+00 0.  1.
          6    1    1    2  501    0 -0.34964068246E+02 -0.29842769077E+02  0.15329979482E+03  0.23494234192E+03  0.17200000000E+03 0. -1.
         -6    1    1    2    0  503  0.34964068246E+02  0.29842769077E+02  0.50847080358E+02  0.18515534698E+03  0.17200000000E+03 0. -1.
</event>
<event>
 4    1  0.6129841E-001  0.1937334E+03  0.7818608E-02  0.1155136E+00
         21   -1    0    0  501  502  0.00000000000E+00  0.00000000000E+00  0.11452046747E+03  0.11452046747E+03  0.00000000000E+00 0.  1.
         21   -1    0    0  502  503 -0.00000000000E+00 -0.00000000000E+00 -0.55790277423E+03  0.55790277423E+03  0.00000000000E+00 0. -1.
          6    1    1    2  501    0 -0.78207137064E+02  0.42805140734E+02 -0.57410149759E+01  0.19381846046E+03  0.17200000000E+03 0.  1.
         -6    1    1    2    0  503  0.78207137064E+02 -0.42805140734E+02 -0.43764129178E+03  0.47860478125E+03  0.17200000000E+03 0. -1.
</event>
<event>
 4    1  0.6129841E-001  0.1784219E+03  0.7818608E-02  0.1169339E+00
         21   -1    0    0  503  502  0.00000000000E+00  0.00000000000E+00  0.11951904165E+03  0.11951904165E+03  0.00000000000E+00 0.  1.
         21   -1    0    0  501  503 -0.00000000000E+00 -0.00000000000E+00 -0.31474686599E+03  0.31474686599E+03  0.00000000000E+00 0.  1.
          6    1    1    2  501    0  0.72405066803E+01 -0.46882252107E+02 -0.18275434763E+03  0.25540853955E+03  0.17200000000E+03 0.  1.
         -6    1    1    2    0  502 -0.72405066803E+01  0.46882252107E+02 -0.12473476717E+02  0.17885736809E+03  0.17200000000E+03 0.  1.
</event>
<event>
 4    1  0.6129841E-001  0.2017172E+03  0.7818608E-02  0.1148298E+00
         21   -1    0    0  501  502  0.00000000000E+00  0.00000000000E+00  0.38581343910E+02  0.38581343910E+02  0.00000000000E+00 0. -1.
         21   -1    0    0  502  503 -0.00000000000E+00 -0.00000000000E+00 -0.10833566713E+04  0.10833566713E+04  0.00000000000E+00 0. -1.
          6    1    1    2  501    0  0.72160878893E+02  0.76802664599E+02 -0.43107328098E+03  0.47593488557E+03  0.17200000000E+03 0. -1.
         -6    1    1    2    0  503 -0.72160878893E+02 -0.76802664599E+02 -0.61370204642E+03  0.64600312965E+03  0.17200000000E+03 0. -1.
</event>
<event>
 4    1  0.6129841E-001  0.1923424E+03  0.7818608E-02  0.1156365E+00
         21   -1    0    0  503  502  0.00000000000E+00  0.00000000000E+00  0.35427066965E+03  0.35427066965E+03  0.00000000000E+00 0.  1.
         21   -1    0    0  501  503 -0.00000000000E+00 -0.00000000000E+00 -0.11232792258E+03  0.11232792258E+03  0.00000000000E+00 0. -1.
          6    1    1    2  501    0  0.77934782842E+02 -0.36575772178E+02  0.18284326553E+03  0.26538138073E+03  0.17200000000E+03 0.  1.
         -6    1    1    2    0  502 -0.77934782842E+02  0.36575772178E+02  0.59099481542E+02  0.20121721150E+03  0.17200000000E+03 0. -1.
</event>
<event>
 4    1  0.6129841E-001  0.3415065E+03  0.7818608E-02  0.1066156E+00
         21   -1    0    0  501  502  0.00000000000E+00  0.00000000000E+00  0.28752037611E+03  0.28752037611E+03  0.00000000000E+00 0.  1.
         21   -1    0    0  502  503 -0.00000000000E+00 -0.00000000000E+00 -0.47471272629E+03  0.47471272629E+03  0.00000000000E+00 0.  1.
          6    1    1    2  501    0  0.29421122382E+03  0.21965366109E+02 -0.23898430494E+03  0.41682156798E+03  0.17200000000E+03 0. -1.
         -6    1    1    2    0  503 -0.29421122382E+03 -0.21965366109E+02  0.51791954752E+02  0.34541153441E+03  0.17200000000E+03 0. -1.
</event>
<event>
 4    1  0.6129841E-001  0.1822621E+03  0.7818608E-02  0.1165632E+00
         21   -1    0    0  503  502  0.00000000000E+00  0.00000000000E+00  0.32271045448E+03  0.32271045448E+03  0.00000000000E+00 0.  1.
         21   -1    0    0  501  503 -0.00000000000E+00 -0.00000000000E+00 -0.11483271997E+03  0.11483271997E+03  0.00000000000E+00 0.  1.
          6    1    1    2  501    0  0.60258645533E+02  0.20935102463E+01  0.33531648159E+02  0.18532096097E+03  0.17200000000E+03 0. -1.
         -6    1    1    2    0  502 -0.60258645533E+02 -0.20935102463E+01  0.17434608635E+03  0.25222221348E+03  0.17200000000E+03 0. -1.
</event>
<event>
 4    1  0.6129841E-001  0.2532736E+03  0.7818608E-02  0.1111253E+00
         21   -1    0    0  503  502  0.00000000000E+00  0.00000000000E+00  0.23940815169E+03  0.23940815169E+03  0.00000000000E+00 0.  1.
         21   -1    0    0  501  503 -0.00000000000E+00 -0.00000000000E+00 -0.37513595402E+03  0.37513595402E+03  0.00000000000E+00 0.  1.
          6    1    1    2  501    0  0.11836851927E+03  0.14336117620E+03 -0.23211700037E+03  0.34354888306E+03  0.17200000000E+03 0.  1.
         -6    1    1    2    0  502 -0.11836851927E+03 -0.14336117620E+03  0.96389198039E+02  0.27099522264E+03  0.17200000000E+03 0.  1.
</event>
<event>
 4    1  0.6129841E-001  0.1775083E+03  0.7818608E-02  0.1170237E+00
         21   -1    0    0  503  502  0.00000000000E+00  0.00000000000E+00  0.26454829917E+03  0.26454829917E+03  0.00000000000E+00 0. -1.
         21   -1    0    0  501  503 -0.00000000000E+00 -0.00000000000E+00 -0.13051455785E+03  0.13051455785E+03  0.00000000000E+00 0. -1.
          6    1    1    2  501    0  0.25063588199E+02 -0.36013973100E+02  0.12541908260E+03  0.21734566016E+03  0.17200000000E+03 0.  1.
         -6    1    1    2    0  502 -0.25063588199E+02  0.36013973100E+02  0.86146587186E+01  0.17771719685E+03  0.17200000000E+03 0.  1.
</event>
<event>
 4    1  0.6129841E-001  0.1772856E+03  0.7818608E-02  0.1170456E+00
         21   -1    0    0  501  502  0.00000000000E+00  0.00000000000E+00  0.10448484118E+03  0.10448484118E+03  0.00000000000E+00 0. -1.
         21   -1    0    0  502  503 -0.00000000000E+00 -0.00000000000E+00 -0.41071944985E+03  0.41071944985E+03  0.00000000000E+00 0. -1.
          6    1    1    2  501    0 -0.19818600927E+02  0.38123602473E+02 -0.19859562498E+02  0.17839447366E+03  0.17200000000E+03 0.  1.
         -6    1    1    2    0  503  0.19818600927E+02 -0.38123602473E+02 -0.28637504617E+03  0.33680981737E+03  0.17200000000E+03 0.  1.
</event>
<event>
 4    1  0.6129841E-001  0.2208603E+03  0.7818608E-02  0.1133243E+00
         21   -1    0    0  503  502  0.00000000000E+00  0.00000000000E+00  0.28164270977E+03  0.28164270977E+03  0.00000000000E+00 0.  1.
         21   -1    0    0  501  503 -0.00000000000E+00 -0.00000000000E+00 -0.44727376650E+03  0.44727376650E+03  0.00000000000E+00 0. -1.
          6    1    1    2  501    0 -0.99953882502E+02  0.95940087823E+02 -0.36811323163E+03  0.42928618703E+03  0.17200000000E+03 0. -1.
         -6    1    1    2    0  502  0.99953882502E+02 -0.95940087823E+02  0.20248217490E+03  0.29963028924E+03  0.17200000000E+03 0.  1.
</event>
<event>
 4    1  0.6129841E-001  0.1728153E+03  0.7818608E-02  0.1174943E+00
         21   -1    0    0  503  502  0.00000000000E+00  0.00000000000E+00  0.43814471627E+02  0.43814471627E+02  0.00000000000E+00 0.  1.
         21   -1    0    0  501  503 -0.00000000000E+00 -0.00000000000E+00 -0.84050482949E+03  0.84050482949E+03  0.00000000000E+00 0.  1.
          6    1    1    2  501    0  0.10357437286E+02 -0.13185119849E+02 -0.59058384447E+03  0.61534900767E+03  0.17200000000E+03 0.  1.
         -6    1    1    2    0  502 -0.10357437286E+02  0.13185119849E+02 -0.20610651339E+03  0.26897029344E+03  0.17200000000E+03 0.  1.
</event>
<event>
 4    1  0.6129841E-001  0.1723320E+03  0.7818608E-02  0.1175438E+00
         21   -1    0    0  503  502  0.00000000000E+00  0.00000000000E+00  0.34198835168E+03  0.34198835168E+03  0.00000000000E+00 0. -1.
         21   -1    0    0  501  503 -0.00000000000E+00 -0.00000000000E+00 -0.13860216651E+03  0.13860216651E+03  0.00000000000E+00 0. -1.
          6    1    1    2  501    0 -0.63544395915E+01 -0.85984873805E+01 -0.45154175301E+02  0.17814941043E+03  0.17200000000E+03 0. -1.
         -6    1    1    2    0  502  0.63544395915E+01  0.85984873805E+01  0.24854036047E+03  0.30244110777E+03  0.17200000000E+03 0. -1.
</event>
<event>
 4    1  0.6129841E-001  0.2136959E+03  0.7818608E-02  0.1138672E+00
         21   -1    0    0  503  502  0.00000000000E+00  0.00000000000E+00  0.11561689000E+03  0.11561689000E+03  0.00000000000E+00 0. -1.
         21   -1    0    0  501  503 -0.00000000000E+00 -0.00000000000E+00 -0.40125261347E+03  0.40125261347E+03  0.00000000000E+00 0. -1.
          6    1    1    2  501    0  0.12301725179E+03 -0.30800765333E+02 -0.11049615371E+03  0.24057292318E+03  0.17200000000E+03 0.  1.
         -6    1    1    2    0  502 -0.12301725179E+03  0.30800765333E+02 -0.17513956976E+03  0.27629658029E+03  0.17200000000E+03 0.  1.
</event>
<event>
 4    1  0.6129841E-001  0.2115644E+03  0.7818608E-02  0.1140333E+00
         21   -1    0    0  501  502  0.00000000000E+00  0.00000000000E+00  0.53522568251E+03  0.53522568251E+03  0.00000000000E+00 0. -1.
         21   -1    0    0  502  503 -0.00000000000E+00 -0.00000000000E+00 -0.27526402132E+03  0.27526402132E+03  0.00000000000E+00 0. -1.
          6    1    1    2  501    0  0.91975704116E+01 -0.12284508997E+03  0.46810956431E+03  0.51369842868E+03  0.17200000000E+03 0. -1.
         -6    1    1    2    0  503 -0.91975704116E+01  0.12284508997E+03 -0.20814790312E+03  0.29679127515E+03  0.17200000000E+03 0. -1.
</event>
<event>
 4    1  0.6129841E-001  0.1923734E+03  0.7818608E-02  0.1156338E+00
         21   -1    0    0  503  502  0.00000000000E+00  0.00000000000E+00  0.14578389666E+03  0.14578389666E+03  0.00000000000E+00 0.  1.
         21   -1    0    0  501  503 -0.00000000000E+00 -0.00000000000E+00 -0.25389657272E+03  0.25389657272E+03  0.00000000000E+00 0. -1.
          6    1    1    2  501    0  0.18521450456E+02  0.84145575225E+02 -0.51406115856E+02  0.19912335550E+03  0.17200000000E+03 0.  1.
         -6    1    1    2    0  502 -0.18521450456E+02 -0.84145575225E+02 -0.56706560205E+02  0.20055711388E+03  0.17200000000E+03 0. -1.
</event>
<event>
 4    1  0.6129841E-001  0.1955350E+03  0.7818608E-02  0.1153562E+00
         21   -1    0    0  503  502  0.00000000000E+00  0.00000000000E+00  0.47078475385E+03  0.47078475385E+03  0.00000000000E+00 0. -1.
         21   -1    0    0  501  503 -0.00000000000E+00 -0.00000000000E+00 -0.88755241698E+02  0.88755241698E+02  0.00000000000E+00 0. -1.
          6    1    1    2  501    0 -0.76779938774E+02 -0.52486105531E+02  0.10946029009E+03  0.22408816430E+03  0.17200000000E+03 0. -1.
         -6    1    1    2    0  502  0.76779938774E+02  0.52486105531E+02  0.27256922206E+03  0.33545183125E+03  0.17200000000E+03 0. -1.
</event>
<event>
 4    1  0.6129841E-001  0.1787842E+03  0.7818608E-02  0.1168985E+00
         21   -1    0    0  503  502  0.00000000000E+00  0.00000000000E+00  0.16799329817E+03  0.16799329817E+03  0.00000000000E+00 0.  1.
         21   -1    0    0  501  503 -0.00000000000E+00 -0.00000000000E+00 -0.24695156391E+03  0.24695156391E+03  0.00000000000E+00 0.  1.
          6    1    1    2  501    0 -0.42744361731E+01  0.48595321796E+02 -0.13887823423E+03  0.22638670466E+03  0.17200000000E+03 0.  1.
         -6    1    1    2    0  502  0.42744361731E+01 -0.48595321796E+02  0.59919968488E+02  0.18855815742E+03  0.17200000000E+03 0.  1.
</event>
<event>
 4    1  0.6129841E-001  0.1911061E+03  0.7818608E-02  0.1157467E+00
         21   -1    0    0  501  502  0.00000000000E+00  0.00000000000E+00  0.23645896258E+02  0.23645896258E+02  0.00000000000E+00 0.  1.
         21   -1    0    0  502  503 -0.00000000000E+00 -0.00000000000E+00 -0.16916357536E+04  0.16916357536E+04  0.00000000000E+00 0.  1.
          6    1    1    2  501    0  0.83291796923E+02 -0.11688354695E+00 -0.58107501857E+03  0.61169413460E+03  0.17200000000E+03 0.  1.
         -6    1    1    2    0  503 -0.83291796923E+02  0.11688354695E+00 -0.10869148388E+04  0.11035875153E+04  0.17200000000E+03 0.  1.
</event>
<event>
 4    1  0.6129841E-001  0.1978886E+03  0.7818608E-02  0.1151533E+00
         21   -1    0    0  501  502  0.00000000000E+00  0.00000000000E+00  0.31363479907E+03  0.31363479907E+03  0.00000000000E+00 0.  1.
         21   -1    0    0  502  503 -0.00000000000E+00 -0.00000000000E+00 -0.12506826527E+03  0.12506826527E+03  0.00000000000E+00 0.  1.
          6    1    1    2  501    0  0.86891320436E+02  0.45008710832E+02  0.10327232277E+03  0.22321527337E+03  0.17200000000E+03 0.  1.
         -6    1    1    2    0  503 -0.86891320436E+02 -0.45008710832E+02  0.85294211042E+02  0.21548779097E+03  0.17200000000E+03 0.  1.
</event>
<event>
 4    1  0.6129841E-001  0.2038167E+03  0.7818608E-02  0.1146558E+00
         21   -1    0    0  503  502  0.00000000000E+00  0.00000000000E+00  0.65681225755E+02  0.65681225755E+02  0.00000000000E+00 0. -1.
         21   -1    0    0  501  503 -0.00000000000E+00 -0.00000000000E+00 -0.10103607231E+04  0.10103607231E+04  0.00000000000E+00 0. -1.
          6    1    1    2  501    0  0.10322226775E+03 -0.36089151657E+02 -0.14330229796E+03  0.24915218648E+03  0.17200000000E+03 0. -1.
         -6    1    1    2    0  502 -0.10322226775E+03  0.36089151657E+02 -0.80137719937E+03  0.82688976236E+03  0.17200000000E+03 0. -1.
</event>
<event>
 4    1  0.6129841E-001  0.1812679E+03  0.7818608E-02  0.1166582E+00
         21   -1    0    0  503  502  0.00000000000E+00  0.00000000000E+00  0.85781003913E+03  0.85781003913E+03  0.00000000000E+00 0. -1.
         21   -1    0    0  501  503 -0.00000000000E+00 -0.00000000000E+00 -0.59548436674E+02  0.59548436674E+02  0.00000000000E+00 0. -1.
          6    1    1    2  501    0  0.41966545461E+02 -0.38895467278E+02  0.12516860414E+03  0.22028442472E+03  0.17200000000E+03 0. -1.
         -6    1    1    2    0  502 -0.41966545461E+02  0.38895467278E+02  0.67309299831E+03  0.69707405108E+03  0.17200000000E+03 0. -1.
</event>
<event>
 4    1  0.6129841E-001  0.2058034E+03  0.7818608E-02  0.1144933E+00
         21   -1    0    0  501  502  0.00000000000E+00  0.00000000000E+00  0.12371132005E+03  0.12371132005E+03  0.00000000000E+00 0.  1.
         21   -1    0    0  502  503 -0.00000000000E+00 -0.00000000000E+00 -0.34998848016E+03  0.34998848016E+03  0.00000000000E+00 0.  1.
          6    1    1    2  501    0 -0.62995096980E+02  0.93822576362E+02 -0.14808296544E+03  0.25354215179E+03  0.17200000000E+03 0. -1.
         -6    1    1    2    0  503  0.62995096980E+02 -0.93822576362E+02 -0.78194194672E+02  0.22015764842E+03  0.17200000000E+03 0. -1.
</event>
<event>
 4    1  0.6129841E-001  0.1766317E+03  0.7818608E-02  0.1171103E+00
         21   -1    0    0  501  502  0.00000000000E+00  0.00000000000E+00  0.82046503857E+02  0.82046503857E+02  0.00000000000E+00 0.  1.
         21   -1    0    0  502  503 -0.00000000000E+00 -0.00000000000E+00 -0.38312270640E+03  0.38312270640E+03  0.00000000000E+00 0.  1.
          6    1    1    2  501    0 -0.37677157737E+02  0.13971316412E+02 -0.13042310140E+03  0.21956536903E+03  0.17200000000E+03 0.  1.
         -6    1    1    2    0  503  0.37677157737E+02 -0.13971316412E+02 -0.17065310115E+03  0.24560384124E+03  0.17200000000E+03 0.  1.
</event>
<event>
 4    1  0.6129841E-001  0.1986924E+03  0.7818608E-02  0.1150847E+00
         21   -1    0    0  503  502  0.00000000000E+00  0.00000000000E+00  0.17976244663E+03  0.17976244663E+03  0.00000000000E+00 0. -1.
         21   -1    0    0  501  503 -0.00000000000E+00 -0.00000000000E+00 -0.22999411927E+03  0.22999411927E+03  0.00000000000E+00 0.  1.
          6    1    1    2  501    0 -0.54145812679E+02  0.83443883094E+02 -0.68637324296E+02  0.21021354129E+03  0.17200000000E+03 0.  1.
         -6    1    1    2    0  502  0.54145812679E+02 -0.83443883094E+02  0.18405651658E+02  0.19954302461E+03  0.17200000000E+03 0. -1.
</event>
<event>
 4    1  0.6129841E-001  0.2086888E+03  0.7818608E-02  0.1142609E+00
         21   -1    0    0  501  502  0.00000000000E+00  0.00000000000E+00  0.75918435619E+02  0.75918435619E+02  0.00000000000E+00 0.  1.
         21   -1    0    0  502  503 -0.00000000000E+00 -0.00000000000E+00 -0.60638464171E+03  0.60638464171E+03  0.00000000000E+00 0. -1.
          6    1    1    2  501    0 -0.11817710766E+03 -0.10956025849E+01 -0.34449061972E+03  0.40277141929E+03  0.17200000000E+03 0. -1.
         -6    1    1    2    0  503  0.11817710766E+03  0.10956025849E+01 -0.18597558637E+03  0.27953165804E+03  0.17200000000E+03 0.  1.
</event>
<event>
 4    1  0.6129841E-001  0.2185228E+03  0.7818608E-02  0.1134989E+00
         21   -1    0    0  501  502  0.00000000000E+00  0.00000000000E+00  0.32827980450E+03  0.32827980450E+03  0.00000000000E+00 0. -1.
         21   -1    0    0  502  503 -0.00000000000E+00 -0.00000000000E+00 -0.20936339495E+03  0.20936339495E+03  0.00000000000E+00 0. -1.
          6    1    1    2  501    0  0.13222373439E+03  0.26174570000E+02  0.20797278355E+03  0.30167018870E+03  0.17200000000E+03 0. -1.
         -6    1    1    2    0  503 -0.13222373439E+03 -0.26174570000E+02 -0.89056374003E+02  0.23597301075E+03  0.17200000000E+03 0. -1.
</event>
<event>
 4    1  0.6129841E-001  0.2339933E+03  0.7818608E-02  0.1123860E+00
         21   -1    0    0  501  502  0.00000000000E+00  0.00000000000E+00  0.42436742713E+02  0.42436742713E+02  0.00000000000E+00 0.  1.
         21   -1    0    0  502  503 -0.00000000000E+00 -0.00000000000E+00 -0.16018057856E+04  0.16018057856E+04  0.00000000000E+00 0. -1.
          6    1    1    2  501    0  0.13992377941E+03  0.74767790428E+02 -0.41709331360E+03  0.47824650420E+03  0.17200000000E+03 0.  1.
         -6    1    1    2    0  503 -0.13992377941E+03 -0.74767790428E+02 -0.11422757293E+04  0.11659960241E+04  0.17200000000E+03 0. -1.
</event>
<event>
 4    1  0.6129841E-001  0.1986217E+03  0.7818608E-02  0.1150907E+00
         21   -1    0    0  503  502  0.00000000000E+00  0.00000000000E+00  0.72174333090E+02  0.72174333090E+02  0.00000000000E+00 0. -1.
         21   -1    0    0  501  503 -0.00000000000E+00 -0.00000000000E+00 -0.63343355575E+03  0.63343355575E+03  0.00000000000E+00 0. -1.
          6    1    1    2  501    0 -0.96369403436E+02 -0.24073477919E+02 -0.41125364642E+03  0.45670576518E+03  0.17200000000E+03 0. -1.
         -6    1    1    2    0  502  0.96369403436E+02  0.24073477919E+02 -0.15000557624E+03  0.24890212365E+03  0.17200000000E+03 0. -1.
</event>
<event>
 4    1  0.6129841E-001  0.1729099E+03  0.7818608E-02  0.1174847E+00
         21   -1    0    0  503  502  0.00000000000E+00  0.00000000000E+00  0.25427698174E+03  0.25427698174E+03  0.00000000000E+00 0. -1.
         21   -1    0    0  501  503 -0.00000000000E+00 -0.00000000000E+00 -0.13246069532E+03  0.13246069532E+03  0.00000000000E+00 0. -1.
          6    1    1    2  501    0 -0.56997626879E+01 -0.16773724016E+02 -0.39040949373E+01  0.17295400276E+03  0.17200000000E+03 0. -1.
         -6    1    1    2    0  502  0.56997626879E+01  0.16773724016E+02  0.12572038135E+03  0.21378367431E+03  0.17200000000E+03 0. -1.
</event>
<event>
 4    1  0.6129841E-001  0.2053959E+03  0.7818608E-02  0.1145265E+00
         21   -1    0    0  503  502  0.00000000000E+00  0.00000000000E+00  0.24972999890E+03  0.24972999890E+03  0.00000000000E+00 0. -1.
         21   -1    0    0  501  503 -0.00000000000E+00 -0.00000000000E+00 -0.29225840869E+03  0.29225840869E+03  0.00000000000E+00 0. -1.
          6    1    1    2  501    0  0.76878250405E+02  0.81812035845E+02 -0.19730119222E+03  0.28480736480E+03  0.17200000000E+03 0. -1.
         -6    1    1    2    0  502 -0.76878250405E+02 -0.81812035845E+02  0.15477278242E+03  0.25718104280E+03  0.17200000000E+03 0. -1.
</event>
<event>
 4    1  0.6129841E-001  0.1834820E+03  0.7818608E-02  0.1164475E+00
         21   -1    0    0  503  502  0.00000000000E+00  0.00000000000E+00  0.11587790295E+03  0.11587790295E+03  0.00000000000E+00 0.  1.
         21   -1    0    0  501  503 -0.00000000000E+00 -0.00000000000E+00 -0.77770570187E+03  0.77770570187E+03  0.00000000000E+00 0.  1.
          6    1    1    2  501    0  0.33133504840E+02  0.54624442229E+02 -0.68453787658E+03  0.70870146275E+03  0.17200000000E+03 0.  1.
         -6    1    1    2    0  502 -0.33133504840E+02 -0.54624442229E+02  0.22710077662E+02  0.18488214208E+03  0.17200000000E+03 0.  1.
</event>
<event>
 4    1  0.6129841E-001  0.2356722E+03  0.7818608E-02  0.1122710E+00
         21   -1    0    0  503  502  0.00000000000E+00  0.00000000000E+00  0.48439210920E+03  0.48439210920E+03  0.00000000000E+00 0.  1.
         21   -1    0    0  501  503 -0.00000000000E+00 -0.00000000000E+00 -0.11544497433E+03  0.11544497433E+03  0.00000000000E+00 0.  1.
          6    1    1    2  501    0 -0.16106788673E+03 -0.38087408615E+01  0.15977407303E+03  0.28472640386E+03  0.17200000000E+03 0.  1.
         -6    1    1    2    0  502  0.16106788673E+03  0.38087408615E+01  0.20917306183E+03  0.31511067967E+03  0.17200000000E+03 0.  1.
</event>
<event>
 4    1  0.6129841E-001  0.2005258E+03  0.7818608E-02  0.1149296E+00
         21   -1    0    0  501  502  0.00000000000E+00  0.00000000000E+00  0.90417449511E+02  0.90417449511E+02  0.00000000000E+00 0. -1.
         21   -1    0    0  502  503 -0.00000000000E+00 -0.00000000000E+00 -0.69797744783E+03  0.69797744783E+03  0.00000000000E+00 0. -1.
          6    1    1    2  501    0  0.82976003182E+02 -0.61168487779E+02 -0.66329669224E+02  0.21121133024E+03  0.17200000000E+03 0. -1.
         -6    1    1    2    0  503 -0.82976003182E+02  0.61168487779E+02 -0.54123032909E+03  0.57718356710E+03  0.17200000000E+03 0. -1.
</event>
<event>
 4    1  0.6129841E-001  0.2075821E+03  0.7818608E-02  0.1143495E+00
         21   -1    0    0  501  502  0.00000000000E+00  0.00000000000E+00  0.28220632490E+03  0.28220632490E+03  0.00000000000E+00 0. -1.
         21   -1    0    0  502  503 -0.00000000000E+00 -0.00000000000E+00 -0.43866662190E+03  0.43866662190E+03  0.00000000000E+00 0. -1.
          6    1    1    2  501    0 -0.11260836340E+03  0.28735049371E+02  0.21279196836E+03  0.29727221257E+03  0.17200000000E+03 0. -1.
         -6    1    1    2    0  503  0.11260836340E+03 -0.28735049371E+02 -0.36925226536E+03  0.42360073423E+03  0.17200000000E+03 0. -1.
</event>
<event>
 4    1  0.6129841E-001  0.1957685E+03  0.7818608E-02  0.1153359E+00
         21   -1    0    0  503  502  0.00000000000E+00  0.00000000000E+00  0.11772216469E+03  0.11772216469E+03  0.00000000000E+00 0. -1.
         21   -1    0    0  501  503 -0.00000000000E+00 -0.00000000000E+00 -0.33238302886E+03  0.33238302886E+03  0.00000000000E+00 0.  1.
          6    1    1    2  501    0  0.29659288754E+02 -0.88665864753E+02 -0.75079711459E+02  0.20967181989E+03  0.17200000000E+03 0.  1.
         -6    1    1    2    0  502 -0.29659288754E+02  0.88665864753E+02 -0.13958115271E+03  0.24043337367E+03  0.17200000000E+03 0.  1.
</event>
<event>
 4    1  0.6129841E-001  0.1809206E+03  0.7818608E-02  0.1166915E+00
         21   -1    0    0  503  502  0.00000000000E+00  0.00000000000E+00  0.17436546482E+03  0.17436546482E+03  0.00000000000E+00 0.  1.
         21   -1    0    0  501  503 -0.00000000000E+00 -0.00000000000E+00 -0.18777562457E+03  0.18777562457E+03  0.00000000000E+00 0.  1.
          6    1    1    2  501    0  0.15703439417E+02 -0.53866995577E+02 -0.36480139048E+01  0.18095734091E+03  0.17200000000E+03 0.  1.
         -6    1    1    2    0  502 -0.15703439417E+02  0.53866995577E+02 -0.97621458439E+01  0.18118374848E+03  0.17200000000E+03 0.  1.
</event>
<event>
 4    1  0.6129841E-001  0.1906593E+03  0.7818608E-02  0.1157868E+00
         21   -1    0    0  501  502  0.00000000000E+00  0.00000000000E+00  0.37161340680E+02  0.37161340680E+02  0.00000000000E+00 0. -1.
         21   -1    0    0  502  503 -0.00000000000E+00 -0.00000000000E+00 -0.10893546019E+04  0.10893546019E+04  0.00000000000E+00 0. -1.
          6    1    1    2  501    0  0.25002641504E+02  0.78369750142E+02 -0.34616777467E+03  0.39520004813E+03  0.17200000000E+03 0.  1.
         -6    1    1    2    0  503 -0.25002641504E+02 -0.78369750142E+02 -0.70602548653E+03  0.73131589443E+03  0.17200000000E+03 0.  1.
</event>
<event>
 4    1  0.6129841E-001  0.2019625E+03  0.7818608E-02  0.1148094E+00
         21   -1    0    0  503  502  0.00000000000E+00  0.00000000000E+00  0.13410391772E+03  0.13410391772E+03  0.00000000000E+00 0.  1.
         21   -1    0    0  501  503 -0.00000000000E+00 -0.00000000000E+00 -0.34841166733E+03  0.34841166733E+03  0.00000000000E+00 0. -1.
          6    1    1    2  501    0  0.95134423872E+02  0.46414190268E+02 -0.19313588209E+03  0.27944642530E+03  0.17200000000E+03 0. -1.
         -6    1    1    2    0  502 -0.95134423872E+02 -0.46414190268E+02 -0.21171867524E+02  0.20306915974E+03  0.17200000000E+03 0.  1.
</event>
<event>
 4    1  0.6129841E-001  0.3151243E+03  0.7818608E-02  0.1077915E+00
         21   -1    0    0  503  502  0.00000000000E+00  0.00000000000E+00  0.67519821918E+03  0.67519821918E+03  0.00000000000E+00 0.  1.
         21   -1    0    0  501  503 -0.00000000000E+00 -0.00000000000E+00 -0.15377287208E+03  0.15377287208E+03  0.00000000000E+00 0. -1.
          6    1    1    2  501    0 -0.81372870301E+02  0.25119265502E+03  0.17419412967E+03  0.36006511740E+03  0.17200000000E+03 0. -1.
         -6    1    1    2    0  502  0.81372870301E+02 -0.25119265502E+03  0.34723121743E+03  0.46890597385E+03  0.17200000000E+03 0. -1.
</event>
<event>
 4    1  0.6129841E-001  0.1813316E+03  0.7818608E-02  0.1166521E+00
         21   -1    0    0  501  502  0.00000000000E+00  0.00000000000E+00  0.61265203342E+02  0.61265203342E+02  0.00000000000E+00 0.  1.
         21   -1    0    0  502  503 -0.00000000000E+00 -0.00000000000E+00 -0.61757333410E+03  0.61757333410E+03  0.00000000000E+00 0.  1.
          6    1    1    2  501    0 -0.53986452532E+02  0.19560032582E+02 -0.15532797300E+03  0.23876329518E+03  0.17200000000E+03 0.  1.
         -6    1    1    2    0  503  0.53986452532E+02 -0.19560032582E+02 -0.40098015776E+03  0.44007524226E+03  0.17200000000E+03 0.  1.
</event>
<event>
 4    1  0.6129841E-001  0.2135158E+03  0.7818608E-02  0.1138812E+00
         21   -1    0    0  503  502  0.00000000000E+00  0.00000000000E+00  0.31873094590E+03  0.31873094590E+03  0.00000000000E+00 0.  1.
         21   -1    0    0  501  503 -0.00000000000E+00 -0.00000000000E+00 -0.21325202716E+03  0.21325202716E+03  0.00000000000E+00 0.  1.
          6    1    1    2  501    0 -0.16401981142E+01  0.12650016587E+03 -0.99893790070E+02  0.23572813050E+03  0.17200000000E+03 0.  1.
         -6    1    1    2    0  502  0.16401981142E+01 -0.12650016587E+03  0.20537270881E+03  0.29625484256E+03  0.17200000000E+03 0.  1.
</event>
<event>
 4    1  0.6129841E-001  0.1880304E+03  0.7818608E-02  0.1160250E+00
         21   -1    0    0  501  502  0.00000000000E+00  0.00000000000E+00  0.17267777574E+04  0.17267777574E+04  0.00000000000E+00 0. -1.
         21   -1    0    0  502  503 -0.00000000000E+00 -0.00000000000E+00 -0.42965674254E+02  0.42965674254E+02  0.00000000000E+00 0. -1.
          6    1    1    2  501    0 -0.28029228656E+02  0.70610247080E+02  0.14821162284E+04  0.14939959703E+04  0.17200000000E+03 0. -1.
         -6    1    1    2    0  503  0.28029228656E+02 -0.70610247080E+02  0.20169585479E+03  0.27574746144E+03  0.17200000000E+03 0. -1.
</event>
<event>
 4    1  0.6129841E-001  0.2143358E+03  0.7818608E-02  0.1138178E+00
         21   -1    0    0  501  502  0.00000000000E+00  0.00000000000E+00  0.27542328565E+04  0.27542328565E+04  0.00000000000E+00 0.  1.
         21   -1    0    0  502  503 -0.00000000000E+00 -0.00000000000E+00 -0.21108824905E+02  0.21108824905E+02  0.00000000000E+00 0.  1.
          6    1    1    2  501    0 -0.48653052829E+02 -0.11827392456E+03  0.20022035632E+04  0.20136432031E+04  0.17200000000E+03 0.  1.
         -6    1    1    2    0  503  0.48653052829E+02  0.11827392456E+03  0.73092046842E+03  0.76169847836E+03  0.17200000000E+03 0.  1.
</event>
<event>
 4    1  0.6129841E-001  0.1971722E+03  0.7818608E-02  0.1152147E+00
         21   -1    0    0  503  502  0.00000000000E+00  0.00000000000E+00  0.75238674227E+02  0.75238674227E+02  0.00000000000E+00 0. -1.
         21   -1    0    0  501  503 -0.00000000000E+00 -0.00000000000E+00 -0.51796790095E+03  0.51796790095E+03  0.00000000000E+00 0. -1.
          6    1    1    2  501    0 -0.28880807685E+02  0.91971628336E+02 -0.23595760329E+03  0.30749450731E+03  0.17200000000E+03 0. -1.
         -6    1    1    2    0  502  0.28880807685E+02 -0.91971628336E+02 -0.20677162343E+03  0.28571206787E+03  0.17200000000E+03 0. -1.
</event>
<event>
 4    1  0.6129841E-001  0.1735354E+03  0.7818608E-02  0.1174210E+00
         21   -1    0    0  501  502  0.00000000000E+00  0.00000000000E+00  0.33060449152E+03  0.33060449152E+03  0.00000000000E+00 0.  1.
         21   -1    0    0  502  503 -0.00000000000E+00 -0.00000000000E+00 -0.91553756607E+02  0.91553756607E+02  0.00000000000E+00 0.  1.
          6    1    1    2  501    0  0.15605424122E+02 -0.16941344486E+02  0.13455922007E+03  0.21959217227E+03  0.17200000000E+03 0. -1.
         -6    1    1    2    0  503 -0.15605424122E+02  0.16941344486E+02  0.10449151484E+03  0.20256607586E+03  0.17200000000E+03 0. -1.
</event>
<event>
 4    1  0.6129841E-001  0.3483143E+03  0.7818608E-02  0.1063309E+00
         21   -1    0    0  501  502  0.00000000000E+00  0.00000000000E+00  0.43459278665E+03  0.43459278665E+03  0.00000000000E+00 0.  1.
         21   -1    0    0  502  503 -0.00000000000E+00 -0.00000000000E+00 -0.40393205215E+03  0.40393205215E+03  0.00000000000E+00 0. -1.
          6    1    1    2  501    0 -0.44218408749E+02 -0.29963909017E+03 -0.21768400524E+03  0.41074222837E+03  0.17200000000E+03 0. -1.
         -6    1    1    2    0  503  0.44218408749E+02  0.29963909017E+03  0.24834473973E+03  0.42778261043E+03  0.17200000000E+03 0.  1.
</event>
<event>
 4    1  0.6129841E-001  0.2224788E+03  0.7818608E-02  0.1132048E+00
         21   -1    0    0  503  502  0.00000000000E+00  0.00000000000E+00  0.66466783297E+03  0.66466783297E+03  0.00000000000E+00 0.  1.
         21   -1    0    0  501  503 -0.00000000000E+00 -0.00000000000E+00 -0.74505501915E+02  0.74505501915E+02  0.00000000000E+00 0.  1.
          6    1    1    2  501    0  0.65130546209E+02  0.12518323169E+03  0.30331532303E+03  0.37616088942E+03  0.17200000000E+03 0.  1.
         -6    1    1    2    0  502 -0.65130546209E+02 -0.12518323169E+03  0.28684700802E+03  0.36301244546E+03  0.17200000000E+03 0.  1.
</event>
<event>
 4    1  0.6129841E-001  0.1902082E+03  0.7818608E-02  0.1158274E+00
         21   -1    0    0  503  502  0.00000000000E+00  0.00000000000E+00  0.80813772971E+03  0.80813772971E+03  0.00000000000E+00 0.  1.
         21   -1    0    0  501  503 -0.00000000000E+00 -0.00000000000E+00 -0.11584055659E+03  0.11584055659E+03  0.00000000000E+00 0. -1.
          6    1    1    2  501    0 -0.42895931904E+02 -0.68957203759E+02 -0.15719872229E+02  0.19085667740E+03  0.17200000000E+03 0. -1.
         -6    1    1    2    0  502  0.42895931904E+02  0.68957203759E+02  0.70801704535E+03  0.73312160889E+03  0.17200000000E+03 0.  1.
</event>
<event>
 4    1  0.6129841E-001  0.1877329E+03  0.7818608E-02  0.1160522E+00
         21   -1    0    0  501  502  0.00000000000E+00  0.00000000000E+00  0.79009653480E+02  0.79009653480E+02  0.00000000000E+00 0.  1.
         21   -1    0    0  502  503 -0.00000000000E+00 -0.00000000000E+00 -0.44658521605E+03  0.44658521605E+03  0.00000000000E+00 0.  1.
          6    1    1    2  501    0  0.64009043198E+02 -0.39528376167E+02 -0.19273428919E+03  0.26905418853E+03  0.17200000000E+03 0. -1.
         -6    1    1    2    0  503 -0.64009043198E+02  0.39528376167E+02 -0.17484127338E+03  0.25654068100E+03  0.17200000000E+03 0. -1.
</event>
<event>
 4    1  0.6129841E-001  0.2306710E+03  0.7818608E-02  0.1126168E+00
         21   -1    0    0  501  502  0.00000000000E+00  0.00000000000E+00  0.12941772440E+03  0.12941772440E+03  0.00000000000E+00 0.  1.
         21   -1    0    0  502  503 -0.00000000000E+00 -0.00000000000E+00 -0.41281335541E+03  0.41281335541E+03  0.00000000000E+00 0. -1.
          6    1    1    2  501    0  0.15208234855E+03 -0.22272549882E+02 -0.12444870943E+03  0.26210034051E+03  0.17200000000E+03 0.  1.
         -6    1    1    2    0  503 -0.15208234855E+03  0.22272549882E+02 -0.15894692158E+03  0.28013073930E+03  0.17200000000E+03 0. -1.
</event>
<event>
 4    1  0.6129841E-001  0.1734964E+03  0.7818608E-02  0.1174250E+00
         21   -1    0    0  501  502  0.00000000000E+00  0.00000000000E+00  0.15016024190E+03  0.15016024190E+03  0.00000000000E+00 0. -1.
         21   -1    0    0  502  503 -0.00000000000E+00 -0.00000000000E+00 -0.36114083210E+03  0.36114083210E+03  0.00000000000E+00 0. -1.
          6    1    1    2  501    0  0.18246648477E+02  0.13567095628E+02  0.65036052637E+02  0.18528544035E+03  0.17200000000E+03 0. -1.
         -6    1    1    2    0  503 -0.18246648477E+02 -0.13567095628E+02 -0.27601664283E+03  0.32601563365E+03  0.17200000000E+03 0. -1.
</event>
<event>
 4    1  0.6129841E-001  0.2295891E+03  0.7818608E-02  0.1126929E+00
         21   -1    0    0  503  502  0.00000000000E+00  0.00000000000E+00  0.60481228405E+03  0.60481228405E+03  0.00000000000E+00 0. -1.
         21   -1    0    0  501  503 -0.00000000000E+00 -0.00000000000E+00 -0.10283714620E+03  0.10283714620E+03  0.00000000000E+00 0.  1.
          6    1    1    2  501    0  0.15083766378E+03  0.19368656107E+02  0.11280764256E+03  0.25580600046E+03  0.17200000000E+03 0.  1.
         -6    1    1    2    0  502 -0.15083766378E+03 -0.19368656107E+02  0.38916749529E+03  0.45184342979E+03  0.17200000000E+03 0.  1.
</event>
<event>
 4    1  0.6129841E-001  0.1849945E+03  0.7818608E-02  0.1163055E+00
         21   -1    0    0  501  502  0.00000000000E+00  0.00000000000E+00  0.29457806976E+03  0.29457806976E+03  0.00000000000E+00 0.  1.
         21   -1    0    0  502  503 -0.00000000000E+00 -0.00000000000E+00 -0.38106928256E+03  0.38106928256E+03  0.00000000000E+00 0.  1.
          6    1    1    2  501    0 -0.61095749142E+02 -0.30104399776E+02  0.23841324761E+03  0.30176786125E+03  0.17200000000E+03 0.  1.
         -6    1    1    2    0  503  0.61095749142E+02  0.30104399776E+02 -0.32490446040E+03  0.37387949107E+03  0.17200000000E+03 0.  1.
</event>
<event>
 4    1  0.6129841E-001  0.2241990E+03  0.7818608E-02  0.1130791E+00
         21   -1    0    0  503  502  0.00000000000E+00  0.00000000000E+00  0.29203274573E+03  0.29203274573E+03  0.00000000000E+00 0.  1.
         21   -1    0    0  501  503 -0.00000000000E+00 -0.00000000000E+00 -0.17369295988E+03  0.17369295988E+03  0.00000000000E+00 0. -1.
          6    1    1    2  501    0  0.97743883815E+02 -0.10548606268E+03  0.81317734934E+02  0.23849056639E+03  0.17200000000E+03 0. -1.
         -6    1    1    2    0  502 -0.97743883815E+02  0.10548606268E+03  0.37022050909E+02  0.22723513922E+03  0.17200000000E+03 0. -1.
</event>
<event>
 4    1  0.6129841E-001  0.2701664E+03  0.7818608E-02  0.1101184E+00
         21   -1    0    0  501  502  0.00000000000E+00  0.00000000000E+00  0.58588544865E+03  0.58588544865E+03  0.00000000000E+00 0. -1.
         21   -1    0    0  502  503 -0.00000000000E+00 -0.00000000000E+00 -0.18606045011E+03  0.18606045011E+03  0.00000000000E+00 0.  1.
          6    1    1    2  501    0 -0.39519625882E+02 -0.20455820241E+03  0.42178161279E+03  0.50088879793E+03  0.17200000000E+03 0. -1.
         -6    1    1    2    0  503  0.39519625882E+02  0.20455820241E+03 -0.21956614246E+02  0.27105710084E+03  0.17200000000E+03 0.  1.
</event>
<event>
 4    1  0.6129841E-001  0.1763384E+03  0.7818608E-02  0.1171395E+00
         21   -1    0    0  501  502  0.00000000000E+00  0.00000000000E+00  0.11750604484E+03  0.11750604484E+03  0.00000000000E+00 0.  1.
         21   -1    0    0  502  503 -0.00000000000E+00 -0.00000000000E+00 -0.27509525126E+03  0.27509525126E+03  0.00000000000E+00 0.  1.
          6    1    1    2  501    0  0.38295938278E+02 -0.66824804475E+01 -0.40501204855E+02  0.18092977098E+03  0.17200000000E+03 0. -1.
         -6    1    1    2    0  503 -0.38295938278E+02  0.66824804475E+01 -0.11708800157E+03  0.21167152512E+03  0.17200000000E+03 0. -1.
</event>
<event>
 4    1  0.6129841E-001  0.2067616E+03  0.7818608E-02  0.1144156E+00
         21   -1    0    0  501  502  0.00000000000E+00  0.00000000000E+00  0.67285862862E+02  0.67285862862E+02  0.00000000000E+00 0.  1.
         21   -1    0    0  502  503 -0.00000000000E+00 -0.00000000000E+00 -0.63552361118E+03  0.63552361118E+03  0.00000000000E+00 0. -1.
          6    1    1    2  501    0  0.20721306785E+02  0.11285821915E+03 -0.27838014989E+03  0.34676484545E+03  0.17200000000E+03 0. -1.
         -6    1    1    2    0  503 -0.20721306785E+02 -0.11285821915E+03 -0.28985759842E+03  0.35604462859E+03  0.17200000000E+03 0. -1.
</event>
<event>
 4    1  0.6129841E-001  0.1889532E+03  0.7818608E-02  0.1159409E+00
         21   -1    0    0  501  502  0.00000000000E+00  0.00000000000E+00  0.88622952587E+02  0.88622952587E+02  0.00000000000E+00 0.  1.
         21   -1    0    0  502  503 -0.00000000000E+00 -0.00000000000E+00 -0.40340189771E+03  0.40340189771E+03  0.00000000000E+00 0.  1.
          6    1    1    2  501    0 -0.35543091127E+02  0.69685128687E+02 -0.16634154192E+03  0.25173962155E+03  0.17200000000E+03 0.  1.
         -6    1    1    2    0  503  0.35543091127E+02 -0.69685128687E+02 -0.14843740320E+03  0.24028522875E+03  0.17200000000E+03 0.  1.
</event>
<event>
 4    1  0.6129841E-001  0.2461259E+03  0.7818608E-02  0.1115778E+00
         21   -1    0    0  501  502  0.00000000000E+00  0.00000000000E+00  0.10812171253E+04  0.10812171253E+04  0.00000000000E+00 0.  1.
         21   -1    0    0  502  503 -0.00000000000E+00 -0.00000000000E+00 -0.62646191538E+02  0.62646191538E+02  0.00000000000E+00 0.  1.
          6    1    1    2  501    0 -0.10173702223E+03  0.14367861418E+03  0.69518600381E+03  0.73746969142E+03  0.17200000000E+03 0. -1.
         -6    1    1    2    0  503  0.10173702223E+03 -0.14367861418E+03  0.32338492996E+03  0.40639362542E+03  0.17200000000E+03 0. -1.
</event>
<event>
 4    1  0.6129841E-001  0.2373544E+03  0.7818608E-02  0.1121568E+00
         21   -1    0    0  501  502  0.00000000000E+00  0.00000000000E+00  0.38999418530E+03  0.38999418530E+03  0.00000000000E+00 0. -1.
         21   -1    0    0  502  503 -0.00000000000E+00 -0.00000000000E+00 -0.16101442810E+03  0.16101442810E+03  0.00000000000E+00 0. -1.
          6    1    1    2  501    0  0.90963391178E+01 -0.16331070346E+03  0.20283879014E+03  0.31221900012E+03  0.17200000000E+03 0. -1.
         -6    1    1    2    0  503 -0.90963391178E+01  0.16331070346E+03  0.26140967055E+02  0.23878961328E+03  0.17200000000E+03 0. -1.
</event>
<event>
 4    1  0.6129841E-001  0.1795015E+03  0.7818608E-02  0.1168286E+00
         21   -1    0    0  503  502  0.00000000000E+00  0.00000000000E+00  0.75179120085E+02  0.75179120085E+02  0.00000000000E+00 0. -1.
         21   -1    0    0  501  503 -0.00000000000E+00 -0.00000000000E+00 -0.69018616100E+03  0.69018616100E+03  0.00000000000E+00 0. -1.
          6    1    1    2  501    0 -0.49745310558E+02 -0.12735408327E+02 -0.54310276258E+03  0.57199772489E+03  0.17200000000E+03 0. -1.
         -6    1    1    2    0  502  0.49745310558E+02  0.12735408327E+02 -0.71904278329E+02  0.19336755620E+03  0.17200000000E+03 0. -1.
</event>
<event>
 4    1  0.6129841E-001  0.1821435E+03  0.7818608E-02  0.1165745E+00
         21   -1    0    0  503  502  0.00000000000E+00  0.00000000000E+00  0.32870723050E+03  0.32870723050E+03  0.00000000000E+00 0. -1.
         21   -1    0    0  501  503 -0.00000000000E+00 -0.00000000000E+00 -0.19536737008E+03  0.19536737008E+03  0.00000000000E+00 0. -1.
          6    1    1    2  501    0  0.36185581402E+02  0.47779308543E+02 -0.11551404647E+03  0.21568438413E+03  0.17200000000E+03 0. -1.
         -6    1    1    2    0  502 -0.36185581402E+02 -0.47779308543E+02  0.24885390689E+03  0.30839021645E+03  0.17200000000E+03 0. -1.
</event>
<event>
 4    1  0.6129841E-001  0.3871293E+03  0.7818608E-02  0.1048330E+00
         21   -1    0    0  503  502  0.00000000000E+00  0.00000000000E+00  0.22097707170E+03  0.22097707170E+03  0.00000000000E+00 0. -1.
         21   -1    0    0  501  503 -0.00000000000E+00 -0.00000000000E+00 -0.68265451321E+03  0.68265451321E+03  0.00000000000E+00 0.  1.
          6    1    1    2  501    0  0.30550512660E+03  0.16416984714E+03 -0.19438723401E+03  0.43319224120E+03  0.17200000000E+03 0.  1.
         -6    1    1    2    0  502 -0.30550512660E+03 -0.16416984714E+03 -0.26729020749E+03  0.47043934371E+03  0.17200000000E+03 0.  1.
</event>
<event>
 4    1  0.6129841E-001  0.2405666E+03  0.7818608E-02  0.1119416E+00
         21   -1    0    0  501  502  0.00000000000E+00  0.00000000000E+00  0.10954227889E+03  0.10954227889E+03  0.00000000000E+00 0. -1.
         21   -1    0    0  502  503 -0.00000000000E+00 -0.00000000000E+00 -0.53219560057E+03  0.53219560057E+03  0.00000000000E+00 0.  1.
          6    1    1    2  501    0  0.53623129085E+02 -0.15941406154E+03 -0.23874368314E+03  0.33892599374E+03  0.17200000000E+03 0. -1.
         -6    1    1    2    0  503 -0.53623129085E+02  0.15941406154E+03 -0.18390963853E+03  0.30281188572E+03  0.17200000000E+03 0. -1.
</event>
<event>
 4    1  0.6129841E-001  0.2034498E+03  0.7818608E-02  0.1146861E+00
         21   -1    0    0  503  502  0.00000000000E+00  0.00000000000E+00  0.28145692134E+02  0.28145692134E+02  0.00000000000E+00 0. -1.
         21   -1    0    0  501  503 -0.00000000000E+00 -0.00000000000E+00 -0.19950899990E+04  0.19950899990E+04  0.00000000000E+00 0.  1.
          6    1    1    2  501    0  0.74005457778E+02 -0.79567789091E+02 -0.15021435279E+04  0.15158585090E+04  0.17200000000E+03 0. -1.
         -6    1    1    2    0  502 -0.74005457778E+02  0.79567789091E+02 -0.46480077896E+03  0.50737718215E+03  0.17200000000E+03 0. -1.
</event>
<event>
 4    1  0.6129841E-001  0.1806693E+03  0.7818608E-02  0.1167157E+00
         21   -1    0    0  501  502  0.00000000000E+00  0.00000000000E+00  0.33856181194E+03  0.33856181194E+03  0.00000000000E+00 0.  1.
         21   -1    0    0  502  503 -0.00000000000E+00 -0.00000000000E+00 -0.11682672436E+03  0.11682672436E+03  0.00000000000E+00 0.  1.
          6    1    1    2  501    0  0.54368945240E+02  0.10071043050E+02  0.20604918217E+03  0.27403954749E+03  0.17200000000E+03 0.  1.
         -6    1    1    2    0  503 -0.54368945240E+02 -0.10071043050E+02  0.15685905422E+02  0.18134898881E+03  0.17200000000E+03 0.  1.
</event>
<event>
 4    1  0.6129841E-001  0.1829682E+03  0.7818608E-02  0.1164961E+00
         21   -1    0    0  501  502  0.00000000000E+00  0.00000000000E+00  0.63164016447E+03  0.63164016447E+03  0.00000000000E+00 0.  1.
         21   -1    0    0  502  503 -0.00000000000E+00 -0.00000000000E+00 -0.84601795395E+02  0.84601795395E+02  0.00000000000E+00 0.  1.
          6    1    1    2  501    0  0.60423563872E+02  0.15567586360E+02  0.49239168310E+03  0.52528747025E+03  0.17200000000E+03 0.  1.
         -6    1    1    2    0  503 -0.60423563872E+02 -0.15567586360E+02  0.54646685975E+02  0.19095448962E+03  0.17200000000E+03 0.  1.
</event>
<event>
 4    1  0.6129841E-001  0.1869545E+03  0.7818608E-02  0.1161237E+00
         21   -1    0    0  501  502  0.00000000000E+00  0.00000000000E+00  0.55499384900E+03  0.55499384900E+03  0.00000000000E+00 0.  1.
         21   -1    0    0  502  503 -0.00000000000E+00 -0.00000000000E+00 -0.75712492373E+02  0.75712492373E+02  0.00000000000E+00 0.  1.
          6    1    1    2  501    0 -0.65839275257E+01 -0.72970050877E+02  0.11030529829E+03  0.21706965531E+03  0.17200000000E+03 0.  1.
         -6    1    1    2    0  503  0.65839275257E+01  0.72970050877E+02  0.36897605834E+03  0.41363668606E+03  0.17200000000E+03 0.  1.
</event>
<event>
 4    1  0.6129841E-001  0.1914746E+03  0.7818608E-02  0.1157138E+00
         21   -1    0    0  503  502  0.00000000000E+00  0.00000000000E+00  0.17985238950E+03  0.17985238950E+03  0.00000000000E+00 0. -1.
         21   -1    0    0  501  503 -0.00000000000E+00 -0.00000000000E+00 -0.20630100826E+03  0.20630100826E+03  0.00000000000E+00 0. -1.
          6    1    1    2  501    0 -0.30678181148E+02  0.78341363157E+02 -0.34278735987E+02  0.19451876958E+03  0.17200000000E+03 0. -1.
         -6    1    1    2    0  502  0.30678181148E+02 -0.78341363157E+02  0.78301172181E+01  0.19163462817E+03  0.17200000000E+03 0. -1.
</event>
<event>
 4    1  0.6129841E-001  0.2108361E+03  0.7818608E-02  0.1140906E+00
         21   -1    0    0  503  502  0.00000000000E+00  0.00000000000E+00  0.11040638072E+03  0.11040638072E+03  0.00000000000E+00 0.  1.
         21   -1    0    0  501  503 -0.00000000000E+00 -0.00000000000E+00 -0.41669767139E+03  0.41669767139E+03  0.00000000000E+00 0. -1.
          6    1    1    2  501    0 -0.11758806700E+03  0.32262792957E+02 -0.10470411684E+03  0.23540346937E+03  0.17200000000E+03 0.  1.
         -6    1    1    2    0  502  0.11758806700E+03 -0.32262792957E+02 -0.20158717384E+03  0.29170058273E+03  0.17200000000E+03 0. -1.
</event>
<event>
 4    1  0.6129841E-001  0.2124915E+03  0.7818608E-02  0.1139608E+00
         21   -1    0    0  501  502  0.00000000000E+00  0.00000000000E+00  0.44880463964E+02  0.44880463964E+02  0.00000000000E+00 0. -1.
         21   -1    0    0  502  503 -0.00000000000E+00 -0.00000000000E+00 -0.11619602403E+04  0.11619602403E+04  0.00000000000E+00 0.  1.
          6    1    1    2  501    0  0.53103433553E+02 -0.11290998116E+03 -0.33751481720E+03  0.39883441468E+03  0.17200000000E+03 0. -1.
         -6    1    1    2    0  503 -0.53103433553E+02  0.11290998116E+03 -0.77956495916E+03  0.80800628961E+03  0.17200000000E+03 0.  1.
</event>
<event>
 4    1  0.6129841E-001  0.1856118E+03  0.7818608E-02  0.1162480E+00
         21   -1    0    0  501  502  0.00000000000E+00  0.00000000000E+00  0.59732114310E+02  0.59732114310E+02  0.00000000000E+00 0.  1.
         21   -1    0    0  502  503 -0.00000000000E+00 -0.00000000000E+00 -0.62859067636E+03  0.62859067636E+03  0.00000000000E+00 0.  1.
          6    1    1    2  501    0 -0.35310598303E+02  0.60174055026E+02 -0.38324482311E+03  0.42582666625E+03  0.17200000000E+03 0.  1.
         -6    1    1    2    0  503  0.35310598303E+02 -0.60174055026E+02 -0.18561373894E+03  0.26249612442E+03  0.17200000000E+03 0.  1.
</event>
<event>
 4    1  0.6129841E-001  0.1742790E+03  0.7818608E-02  0.1173458E+00
         21   -1    0    0  501  502  0.00000000000E+00  0.00000000000E+00  0.11394410958E+04  0.11394410958E+04  0.00000000000E+00 0. -1.
         21   -1    0    0  502  503 -0.00000000000E+00 -0.00000000000E+00 -0.31500439194E+02  0.31500439194E+02  0.00000000000E+00 0. -1.
          6    1    1    2  501    0  0.81046717296E+01 -0.26897791145E+02  0.78356373919E+03  0.80271122469E+03  0.17200000000E+03 0. -1.
         -6    1    1    2    0  503 -0.81046717296E+01  0.26897791145E+02  0.32437691740E+03  0.36823031029E+03  0.17200000000E+03 0. -1.
</event>
<event>
 4    1  0.6129841E-001  0.2088266E+03  0.7818608E-02  0.1142499E+00
         21   -1    0    0  501  502  0.00000000000E+00  0.00000000000E+00  0.59033717831E+03  0.59033717831E+03  0.00000000000E+00 0.  1.
         21   -1    0    0  502  503 -0.00000000000E+00 -0.00000000000E+00 -0.21456074351E+03  0.21456074351E+03  0.00000000000E+00 0.  1.
          6    1    1    2  501    0 -0.96964150440E+02 -0.67988850604E+02  0.51377563723E+03  0.55459348688E+03  0.17200000000E+03 0. -1.
         -6    1    1    2    0  503  0.96964150440E+02  0.67988850604E+02 -0.13799920243E+03  0.25030443494E+03  0.17200000000E+03 0. -1.
</event>
<event>
 4    1  0.6129841E-001  0.1905197E+03  0.7818608E-02  0.1157993E+00
         21   -1    0    0  503  502  0.00000000000E+00  0.00000000000E+00  0.38619419118E+03  0.38619419118E+03  0.00000000000E+00 0.  1.
         21   -1    0    0  501  503 -0.00000000000E+00 -0.00000000000E+00 -0.11961825797E+03  0.11961825797E+03  0.00000000000E+00 0.  1.
          6    1    1    2  501    0 -0.78044515299E+02 -0.24956484595E+02  0.16221120778E+02  0.19120904071E+03  0.17200000000E+03 0.  1.
         -6    1    1    2    0  502  0.78044515299E+02  0.24956484595E+02  0.25035481243E+03  0.31460340843E+03  0.17200000000E+03 0.  1.
</event>
<event>
 4    1  0.6129841E-001  0.3803040E+03  0.7818608E-02  0.1050821E+00
         21   -1    0    0  501  502  0.00000000000E+00  0.00000000000E+00  0.91244752778E+03  0.91244752778E+03  0.00000000000E+00 0. -1.
         21   -1    0    0  502  503 -0.00000000000E+00 -0.00000000000E+00 -0.42998300196E+03  0.42998300196E+03  0.00000000000E+00 0.  1.
          6    1    1    2  501    0 -0.10019631887E+03 -0.32404906218E+03  0.77456758307E+03  0.86289398987E+03  0.17200000000E+03 0.  1.
         -6    1    1    2    0  503  0.10019631887E+03  0.32404906218E+03 -0.29210305725E+03  0.47953653987E+03  0.17200000000E+03 0.  1.
</event>
<event>
 4    1  0.6129841E-001  0.1728621E+03  0.7818608E-02  0.1174896E+00
         21   -1    0    0  503  502  0.00000000000E+00  0.00000000000E+00  0.86879906598E+02  0.86879906598E+02  0.00000000000E+00 0. -1.
         21   -1    0    0  501  503 -0.00000000000E+00 -0.00000000000E+00 -0.34603117329E+03  0.34603117329E+03  0.00000000000E+00 0. -1.
          6    1    1    2  501    0 -0.17126384609E+02 -0.19965253042E+01 -0.14641075486E+03  0.22653345956E+03  0.17200000000E+03 0. -1.
         -6    1    1    2    0  502  0.17126384609E+02  0.19965253042E+01 -0.11274051184E+03  0.20637762033E+03  0.17200000000E+03 0. -1.
</event>
<event>
 4    1  0.6129841E-001  0.1797338E+03  0.7818608E-02  0.1168061E+00
         21   -1    0    0  503  502  0.00000000000E+00  0.00000000000E+00  0.13425867486E+04  0.13425867486E+04  0.00000000000E+00 0.  1.
         21   -1    0    0  501  503 -0.00000000000E+00 -0.00000000000E+00 -0.71485744729E+02  0.71485744729E+02  0.00000000000E+00 0.  1.
          6    1    1    2  501    0  0.12163114438E+02  0.50717767175E+02  0.59668385350E+02  0.18937937974E+03  0.17200000000E+03 0.  1.
         -6    1    1    2    0  502 -0.12163114438E+02 -0.50717767175E+02  0.12114326185E+04  0.12246931136E+04  0.17200000000E+03 0.  1.
</event>
<event>
 4    1  0.6129841E-001  0.1849909E+03  0.7818608E-02  0.1163058E+00
         21   -1    0    0  501  502  0.00000000000E+00  0.00000000000E+00  0.54144533997E+02  0.54144533997E+02  0.00000000000E+00 0. -1.
         21   -1    0    0  502  503 -0.00000000000E+00 -0.00000000000E+00 -0.76377313602E+03  0.76377313602E+03  0.00000000000E+00 0. -1.
          6    1    1    2  501    0  0.55449740716E+02 -0.39534231803E+02 -0.18497377370E+03  0.26160452249E+03  0.17200000000E+03 0. -1.
         -6    1    1    2    0  503 -0.55449740716E+02  0.39534231803E+02 -0.52465482832E+03  0.55631314753E+03  0.17200000000E+03 0. -1.
</event>
<event>
 4    1  0.6129841E-001  0.1746097E+03  0.7818608E-02  0.1173124E+00
         21   -1    0    0  503  502  0.00000000000E+00  0.00000000000E+00  0.74091881535E+03  0.74091881535E+03  0.00000000000E+00 0.  1.
         21   -1    0    0  501  503 -0.00000000000E+00 -0.00000000000E+00 -0.63333032566E+02  0.63333032566E+02  0.00000000000E+00 0.  1.
          6    1    1    2  501    0  0.11324185916E+01  0.30054164351E+02  0.10080163079E+03  0.20161722133E+03  0.17200000000E+03 0.  1.
         -6    1    1    2    0  502 -0.11324185916E+01 -0.30054164351E+02  0.57678415200E+03  0.60263462659E+03  0.17200000000E+03 0.  1.
</event>
<event>
 4    1  0.6129841E-001  0.2503668E+03  0.7818608E-02  0.1113073E+00
         21   -1    0    0  503  502  0.00000000000E+00  0.00000000000E+00  0.38742494812E+03  0.38742494812E+03  0.00000000000E+00 0.  1.
         21   -1    0    0  501  503 -0.00000000000E+00 -0.00000000000E+00 -0.16847668509E+03  0.16847668509E+03  0.00000000000E+00 0.  1.
          6    1    1    2  501    0 -0.26118456680E+02 -0.18004818522E+03  0.54122250219E+02  0.25614984042E+03  0.17200000000E+03 0. -1.
         -6    1    1    2    0  502  0.26118456680E+02  0.18004818522E+03  0.16482601281E+03  0.29975179278E+03  0.17200000000E+03 0. -1.
</event>
<event>
 4    1  0.6129841E-001  0.2006968E+03  0.7818608E-02  0.1149152E+00
         21   -1    0    0  501  502  0.00000000000E+00  0.00000000000E+00  0.88079736271E+02  0.88079736271E+02  0.00000000000E+00 0. -1.
         21   -1    0    0  502  503 -0.00000000000E+00 -0.00000000000E+00 -0.46459179054E+03  0.46459179054E+03  0.00000000000E+00 0. -1.
          6    1    1    2  501    0 -0.93928183134E+02 -0.43274884526E+02 -0.22286574713E+03  0.29991392175E+03  0.17200000000E+03 0.  1.
         -6    1    1    2    0  503  0.93928183134E+02  0.43274884526E+02 -0.15364630714E+03  0.25275760506E+03  0.17200000000E+03 0.  1.
</event>
<event>
 4    1  0.6129841E-001  0.2479668E+03  0.7818608E-02  0.1114597E+00
         21   -1    0    0  501  502  0.00000000000E+00  0.00000000000E+00  0.13060512143E+04  0.13060512143E+04  0.00000000000E+00 0.  1.
         21   -1    0    0  502  503 -0.00000000000E+00 -0.00000000000E+00 -0.51488263848E+02  0.51488263848E+02  0.00000000000E+00 0.  1.
          6    1    1    2  501    0  0.14882936590E+03  0.98758990360E+02  0.82591562257E+03  0.86233643895E+03  0.17200000000E+03 0.  1.
         -6    1    1    2    0  503 -0.14882936590E+03 -0.98758990360E+02  0.42864732787E+03  0.49520303919E+03  0.17200000000E+03 0.  1.
</event>
<event>
 4    1  0.6129841E-001  0.1829497E+03  0.7818608E-02  0.1164978E+00
         21   -1    0    0  503  502  0.00000000000E+00  0.00000000000E+00  0.41384788095E+03  0.41384788095E+03  0.00000000000E+00 0.  1.
         21   -1    0    0  501  503 -0.00000000000E+00 -0.00000000000E+00 -0.10960489344E+03  0.10960489344E+03  0.00000000000E+00 0.  1.
          6    1    1    2  501    0 -0.60340487617E+02  0.15672505221E+02  0.18126802521E+02  0.18384554070E+03  0.17200000000E+03 0.  1.
         -6    1    1    2    0  502  0.60340487617E+02 -0.15672505221E+02  0.28611618499E+03  0.33960723369E+03  0.17200000000E+03 0.  1.
</event>
<event>
 4    1  0.6129841E-001  0.1815542E+03  0.7818608E-02  0.1166307E+00
         21   -1    0    0  503  502  0.00000000000E+00  0.00000000000E+00  0.31711396802E+03  0.31711396802E+03  0.00000000000E+00 0. -1.
         21   -1    0    0  501  503 -0.00000000000E+00 -0.00000000000E+00 -0.19336612459E+03  0.19336612459E+03  0.00000000000E+00 0. -1.
          6    1    1    2  501    0 -0.30393699296E+02  0.49539564174E+02 -0.11169911054E+03  0.21316340368E+03  0.17200000000E+03 0. -1.
         -6    1    1    2    0  502  0.30393699296E+02 -0.49539564174E+02  0.23544695397E+03  0.29731668892E+03  0.17200000000E+03 0. -1.
</event>
<event>
 4    1  0.6129841E-001  0.1881216E+03  0.7818608E-02  0.1160166E+00
         21   -1    0    0  501  502  0.00000000000E+00  0.00000000000E+00  0.95440691101E+02  0.95440691101E+02  0.00000000000E+00 0.  1.
         21   -1    0    0  502  503 -0.00000000000E+00 -0.00000000000E+00 -0.47373654651E+03  0.47373654651E+03  0.00000000000E+00 0. -1.
          6    1    1    2  501    0  0.17304135015E+02 -0.74204515057E+02 -0.56492055986E+02  0.19642071055E+03  0.17200000000E+03 0.  1.
         -6    1    1    2    0  503 -0.17304135015E+02  0.74204515057E+02 -0.32180379942E+03  0.37275652706E+03  0.17200000000E+03 0. -1.
</event>
<event>
 4    1  0.6129841E-001  0.2219730E+03  0.7818608E-02  0.1132421E+00
         21   -1    0    0  503  502  0.00000000000E+00  0.00000000000E+00  0.75348895349E+02  0.75348895349E+02  0.00000000000E+00 0.  1.
         21   -1    0    0  501  503 -0.00000000000E+00 -0.00000000000E+00 -0.69681544063E+03  0.69681544063E+03  0.00000000000E+00 0. -1.
          6    1    1    2  501    0 -0.13017212106E+03  0.52375794652E+02 -0.40652679598E+03  0.46318035453E+03  0.17200000000E+03 0. -1.
         -6    1    1    2    0  502  0.13017212106E+03 -0.52375794652E+02 -0.21493974930E+03  0.30898398146E+03  0.17200000000E+03 0.  1.
</event>
<event>
 4    1  0.6129841E-001  0.1757313E+03  0.7818608E-02  0.1171999E+00
         21   -1    0    0  501  502  0.00000000000E+00  0.00000000000E+00  0.44781179219E+03  0.44781179219E+03  0.00000000000E+00 0. -1.
         21   -1    0    0  502  503 -0.00000000000E+00 -0.00000000000E+00 -0.78214024133E+02  0.78214024133E+02  0.00000000000E+00 0. -1.
          6    1    1    2  501    0 -0.28238956559E+02  0.22361970449E+02  0.27526362673E+03  0.32657550519E+03  0.17200000000E+03 0. -1.
         -6    1    1    2    0  503  0.28238956559E+02 -0.22361970449E+02  0.94334141322E+02  0.19945031113E+03  0.17200000000E+03 0. -1.
</event>
<event>
 4    1  0.6129841E-001  0.1787852E+03  0.7818608E-02  0.1168984E+00
         21   -1    0    0  503  502  0.00000000000E+00  0.00000000000E+00  0.10735157742E+04  0.10735157742E+04  0.00000000000E+00 0. -1.
         21   -1    0    0  501  503 -0.00000000000E+00 -0.00000000000E+00 -0.20758860445E+03  0.20758860445E+03  0.00000000000E+00 0. -1.
          6    1    1    2  501    0  0.45698475520E+02  0.17081936824E+02 -0.15987302890E+03  0.23984063167E+03  0.17200000000E+03 0. -1.
         -6    1    1    2    0  502 -0.45698475520E+02 -0.17081936824E+02  0.10258001986E+04  0.10412637469E+04  0.17200000000E+03 0. -1.
</event>
<event>
 4    1  0.6129841E-001  0.1994666E+03  0.7818608E-02  0.1150190E+00
         21   -1    0    0  503  502  0.00000000000E+00  0.00000000000E+00  0.55927425987E+03  0.55927425987E+03  0.00000000000E+00 0. -1.
         21   -1    0    0  501  503 -0.00000000000E+00 -0.00000000000E+00 -0.80400835633E+02  0.80400835633E+02  0.00000000000E+00 0. -1.
          6    1    1    2  501    0  0.31075178838E+02  0.96110652017E+02  0.13088971200E+03  0.23857711726E+03  0.17200000000E+03 0.  1.
         -6    1    1    2    0  502 -0.31075178838E+02 -0.96110652017E+02  0.34798371224E+03  0.40109797825E+03  0.17200000000E+03 0.  1.
</event>
<event>
 4    1  0.6129841E-001  0.1734055E+03  0.7818608E-02  0.1174342E+00
         21   -1    0    0  501  502  0.00000000000E+00  0.00000000000E+00  0.47886637730E+02  0.47886637730E+02  0.00000000000E+00 0. -1.
         21   -1    0    0  502  503 -0.00000000000E+00 -0.00000000000E+00 -0.62794397153E+03  0.62794397153E+03  0.00000000000E+00 0. -1.
          6    1    1    2  501    0  0.14190401839E+02  0.16854973127E+02 -0.29162117505E+03  0.33928213534E+03  0.17200000000E+03 0.  1.
         -6    1    1    2    0  503 -0.14190401839E+02 -0.16854973127E+02 -0.28843615876E+03  0.33654847393E+03  0.17200000000E+03 0.  1.
</event>
<event>
 4    1  0.6129841E-001  0.1787246E+03  0.7818608E-02  0.1169043E+00
         21   -1    0    0  503  502  0.00000000000E+00  0.00000000000E+00  0.94135848087E+02  0.94135848087E+02  0.00000000000E+00 0.  1.
         21   -1    0    0  501  503 -0.00000000000E+00 -0.00000000000E+00 -0.13332351561E+04  0.13332351561E+04  0.00000000000E+00 0.  1.
          6    1    1    2  501    0 -0.44856962962E+02  0.18610138092E+02 -0.12357578023E+04  0.12486151650E+04  0.17200000000E+03 0.  1.
         -6    1    1    2    0  502  0.44856962962E+02 -0.18610138092E+02 -0.33415056823E+01  0.17875583914E+03  0.17200000000E+03 0.  1.
</event>
<event>
 4    1  0.6129841E-001  0.1889167E+03  0.7818608E-02  0.1159442E+00
         21   -1    0    0  501  502  0.00000000000E+00  0.00000000000E+00  0.45910076545E+03  0.45910076545E+03  0.00000000000E+00 0. -1.
         21   -1    0    0  502  503 -0.00000000000E+00 -0.00000000000E+00 -0.79201595942E+02  0.79201595942E+02  0.00000000000E+00 0.  1.
          6    1    1    2  501    0 -0.59193398233E+02 -0.51006418950E+02  0.22653938178E+03  0.29497390506E+03  0.17200000000E+03 0.  1.
         -6    1    1    2    0  503  0.59193398233E+02  0.51006418950E+02  0.15335978772E+03  0.24332845633E+03  0.17200000000E+03 0.  1.
</event>
<event>
 4    1  0.6129841E-001  0.2972899E+03  0.7818608E-02  0.1086603E+00
         21   -1    0    0  503  502  0.00000000000E+00  0.00000000000E+00  0.36708191819E+03  0.36708191819E+03  0.00000000000E+00 0.  1.
         21   -1    0    0  501  503 -0.00000000000E+00 -0.00000000000E+00 -0.37899975753E+03  0.37899975753E+03  0.00000000000E+00 0.  1.
          6    1    1    2  501    0 -0.24206777672E+03  0.14159887119E+02 -0.23124895084E+03  0.37663959987E+03  0.17200000000E+03 0.  1.
         -6    1    1    2    0  502  0.24206777672E+03 -0.14159887119E+02  0.21933111151E+03  0.36944207584E+03  0.17200000000E+03 0.  1.
</event>
<event>
 4    1  0.6129841E-001  0.2931818E+03  0.7818608E-02  0.1088699E+00
         21   -1    0    0  501  502  0.00000000000E+00  0.00000000000E+00  0.57079236240E+02  0.57079236240E+02  0.00000000000E+00 0.  1.
         21   -1    0    0  502  503 -0.00000000000E+00 -0.00000000000E+00 -0.15086359938E+04  0.15086359938E+04  0.00000000000E+00 0.  1.
          6    1    1    2  501    0  0.12875563651E+03 -0.19948325952E+03 -0.69243576250E+03  0.75194605522E+03  0.17200000000E+03 0.  1.
         -6    1    1    2    0  503 -0.12875563651E+03  0.19948325952E+03 -0.75912099507E+03  0.81376917484E+03  0.17200000000E+03 0.  1.
</event>
<event>
 4    1  0.6129841E-001  0.2598085E+03  0.7818608E-02  0.1107258E+00
         21   -1    0    0  501  502  0.00000000000E+00  0.00000000000E+00  0.11889302498E+04  0.11889302498E+04  0.00000000000E+00 0.  1.
         21   -1    0    0  502  503 -0.00000000000E+00 -0.00000000000E+00 -0.66723587416E+02  0.66723587416E+02  0.00000000000E+00 0. -1.
          6    1    1    2  501    0 -0.89920041699E+02 -0.17271614912E+03  0.80354089407E+03  0.84449893458E+03  0.17200000000E+03 0.  1.
         -6    1    1    2    0  503  0.89920041699E+02  0.17271614912E+03  0.31866576831E+03  0.41115490263E+03  0.17200000000E+03 0.  1.
</event>
<event>
 4    1  0.6129841E-001  0.2090638E+03  0.7818608E-02  0.1142310E+00
         21   -1    0    0  501  502  0.00000000000E+00  0.00000000000E+00  0.85155491692E+02  0.85155491692E+02  0.00000000000E+00 0. -1.
         21   -1    0    0  502  503 -0.00000000000E+00 -0.00000000000E+00 -0.51495116293E+03  0.51495116293E+03  0.00000000000E+00 0. -1.
          6    1    1    2  501    0  0.39413563686E+02  0.11211707235E+03 -0.19774798694E+03  0.28777062612E+03  0.17200000000E+03 0. -1.
         -6    1    1    2    0  503 -0.39413563686E+02 -0.11211707235E+03 -0.23204768430E+03  0.31233602851E+03  0.17200000000E+03 0. -1.
</event>
<event>
 4    1  0.6129841E-001  0.1736371E+03  0.7818608E-02  0.1174107E+00
         21   -1    0    0  501  502  0.00000000000E+00  0.00000000000E+00  0.51985127251E+02  0.51985127251E+02  0.00000000000E+00 0. -1.
         21   -1    0    0  502  503 -0.00000000000E+00 -0.00000000000E+00 -0.66802195612E+03  0.66802195612E+03  0.00000000000E+00 0. -1.
          6    1    1    2  501    0  0.76586743790E+01 -0.22520902173E+02 -0.17731727085E+03  0.24817586682E+03  0.17200000000E+03 0. -1.
         -6    1    1    2    0  503 -0.76586743790E+01  0.22520902173E+02 -0.43871955802E+03  0.47183121655E+03  0.17200000000E+03 0. -1.
</event>
<event>
 4    1  0.6129841E-001  0.1907344E+03  0.7818608E-02  0.1157801E+00
         21   -1    0    0  503  502  0.00000000000E+00  0.00000000000E+00  0.60122064138E+03  0.60122064138E+03  0.00000000000E+00 0. -1.
         21   -1    0    0  501  503 -0.00000000000E+00 -0.00000000000E+00 -0.60523477282E+02  0.60523477282E+02  0.00000000000E+00 0.  1.
          6    1    1    2  501    0  0.31070348843E+01 -0.82376863379E+02  0.26533266407E+03  0.32677365853E+03  0.17200000000E+03 0.  1.
         -6    1    1    2    0  502 -0.31070348843E+01  0.82376863379E+02  0.27536450003E+03  0.33497046013E+03  0.17200000000E+03 0. -1.
</event>
<event>
 4    1  0.6129841E-001  0.1945792E+03  0.7818608E-02  0.1154395E+00
         21   -1    0    0  503  502  0.00000000000E+00  0.00000000000E+00  0.15954550473E+03  0.15954550473E+03  0.00000000000E+00 0. -1.
         21   -1    0    0  501  503 -0.00000000000E+00 -0.00000000000E+00 -0.37814704717E+03  0.37814704717E+03  0.00000000000E+00 0. -1.
          6    1    1    2  501    0  0.90572060997E+02 -0.85877593658E+01  0.54772882192E+02  0.20214132796E+03  0.17200000000E+03 0.  1.
         -6    1    1    2    0  502 -0.90572060997E+02  0.85877593658E+01 -0.27337442464E+03  0.33555122395E+03  0.17200000000E+03 0.  1.
</event>
<event>
 4    1  0.6129841E-001  0.1921314E+03  0.7818608E-02  0.1156553E+00
         21   -1    0    0  503  502  0.00000000000E+00  0.00000000000E+00  0.50413551078E+03  0.50413551078E+03  0.00000000000E+00 0.  1.
         21   -1    0    0  501  503 -0.00000000000E+00 -0.00000000000E+00 -0.73308046280E+02  0.73308046280E+02  0.00000000000E+00 0.  1.
          6    1    1    2  501    0 -0.29553504730E+02  0.80355826388E+02  0.22523008533E+03  0.29604570562E+03  0.17200000000E+03 0. -1.
         -6    1    1    2    0  502  0.29553504730E+02 -0.80355826388E+02  0.20559737917E+03  0.28139785144E+03  0.17200000000E+03 0. -1.
</event>
<event>
 4    1  0.6129841E-001  0.1780193E+03  0.7818608E-02  0.1169734E+00
         21   -1    0    0  503  502  0.00000000000E+00  0.00000000000E+00  0.73126658485E+02  0.73126658485E+02  0.00000000000E+00 0.  1.
         21   -1    0    0  501  503 -0.00000000000E+00 -0.00000000000E+00 -0.50303165509E+03  0.50303165509E+03  0.00000000000E+00 0.  1.
          6    1    1    2  501    0 -0.35365629053E+02 -0.29259713501E+02 -0.32215695495E+03  0.36807059401E+03  0.17200000000E+03 0.  1.
         -6    1    1    2    0  502  0.35365629053E+02  0.29259713501E+02 -0.10774804165E+03  0.20808771956E+03  0.17200000000E+03 0.  1.
</event>
<event>
 4    1  0.6129841E-001  0.2094617E+03  0.7818608E-02  0.1141993E+00
         21   -1    0    0  501  502  0.00000000000E+00  0.00000000000E+00  0.23401008948E+03  0.23401008948E+03  0.00000000000E+00 0.  1.
         21   -1    0    0  502  503 -0.00000000000E+00 -0.00000000000E+00 -0.22099856638E+03  0.22099856638E+03  0.00000000000E+00 0.  1.
          6    1    1    2  501    0 -0.11665553943E+03  0.26109482610E+02 -0.82083696384E+02  0.22497100518E+03  0.17200000000E+03 0.  1.
         -6    1    1    2    0  503  0.11665553943E+03 -0.26109482610E+02  0.95095219476E+02  0.23003765068E+03  0.17200000000E+03 0.  1.
</event>
<event>
 4    1  0.6129841E-001  0.1948385E+03  0.7818608E-02  0.1154168E+00
         21   -1    0    0  501  502  0.00000000000E+00  0.00000000000E+00  0.20874885621E+03  0.20874885621E+03  0.00000000000E+00 0.  1.
         21   -1    0    0  502  503 -0.00000000000E+00 -0.00000000000E+00 -0.18816078658E+03  0.18816078658E+03  0.00000000000E+00 0.  1.
          6    1    1    2  501    0 -0.74206704157E+02  0.53585404607E+02  0.46624045609E+02  0.20033929260E+03  0.17200000000E+03 0.  1.
         -6    1    1    2    0  503  0.74206704157E+02 -0.53585404607E+02 -0.26035975982E+02  0.19657035019E+03  0.17200000000E+03 0.  1.
</event>
<event>
 4    1  0.6129841E-001  0.1726539E+03  0.7818608E-02  0.1175108E+00
         21   -1    0    0  503  502  0.00000000000E+00  0.00000000000E+00  0.56578115774E+03  0.56578115774E+03  0.00000000000E+00 0. -1.
         21   -1    0    0  501  503 -0.00000000000E+00 -0.00000000000E+00 -0.58078243425E+02  0.58078243425E+02  0.00000000000E+00 0. -1.
          6    1    1    2  501    0  0.94934222917E+00  0.14982609275E+02  0.15881513442E+03  0.23458820676E+03  0.17200000000E+03 0. -1.
         -6    1    1    2    0  502 -0.94934222917E+00 -0.14982609275E+02  0.34888777990E+03  0.38927119441E+03  0.17200000000E+03 0. -1.
</event>
<event>
 4    1  0.6129841E-001  0.2160411E+03  0.7818608E-02  0.1136869E+00
         21   -1    0    0  503  502  0.00000000000E+00  0.00000000000E+00  0.79859587199E+03  0.79859587199E+03  0.00000000000E+00 0.  1.
         21   -1    0    0  501  503 -0.00000000000E+00 -0.00000000000E+00 -0.12727133205E+03  0.12727133205E+03  0.00000000000E+00 0.  1.
          6    1    1    2  501    0  0.24864232383E+02 -0.12834144774E+03 -0.47705546312E+01  0.21609376542E+03  0.17200000000E+03 0.  1.
         -6    1    1    2    0  502 -0.24864232383E+02  0.12834144774E+03  0.67609509457E+03  0.70977343861E+03  0.17200000000E+03 0.  1.
</event>
<event>
 4    1  0.6129841E-001  0.1827482E+03  0.7818608E-02  0.1165169E+00
         21   -1    0    0  501  502  0.00000000000E+00  0.00000000000E+00  0.75015143021E+02  0.75015143021E+02  0.00000000000E+00 0. -1.
         21   -1    0    0  502  503 -0.00000000000E+00 -0.00000000000E+00 -0.44764593907E+03  0.44764593907E+03  0.00000000000E+00 0. -1.
          6    1    1    2  501    0 -0.61734358019E+02 -0.13375525862E+01 -0.16700752193E+03  0.24756500639E+03  0.17200000000E+03 0. -1.
         -6    1    1    2    0  503  0.61734358019E+02  0.13375525862E+01 -0.20562327412E+03  0.27509607570E+03  0.17200000000E+03 0. -1.
</event>
<event>
 4    1  0.6129841E-001  0.1937213E+03  0.7818608E-02  0.1155147E+00
         21   -1    0    0  501  502  0.00000000000E+00  0.00000000000E+00  0.51230468801E+03  0.51230468801E+03  0.00000000000E+00 0. -1.
         21   -1    0    0  502  503 -0.00000000000E+00 -0.00000000000E+00 -0.10855550308E+03  0.10855550308E+03  0.00000000000E+00 0. -1.
          6    1    1    2  501    0  0.11846142789E+02  0.88337947698E+02  0.37890171907E+03  0.42555192024E+03  0.17200000000E+03 0. -1.
         -6    1    1    2    0  503 -0.11846142789E+02 -0.88337947698E+02  0.24847465863E+02  0.19530827085E+03  0.17200000000E+03 0. -1.
</event>
<event>
 4    1  0.6129841E-001  0.1856648E+03  0.7818608E-02  0.1162431E+00
         21   -1    0    0  501  502  0.00000000000E+00  0.00000000000E+00  0.68339486685E+03  0.68339486685E+03  0.00000000000E+00 0.  1.
         21   -1    0    0  502  503 -0.00000000000E+00 -0.00000000000E+00 -0.11768021887E+03  0.11768021887E+03  0.00000000000E+00 0.  1.
          6    1    1    2  501    0  0.69746908254E+02  0.47730056677E+01  0.58561937869E+03  0.61434637583E+03  0.17200000000E+03 0.  1.
         -6    1    1    2    0  503 -0.69746908254E+02 -0.47730056677E+01 -0.19904730718E+02  0.18672870989E+03  0.17200000000E+03 0.  1.
</event>
<event>
 4    1  0.6129841E-001  0.2086512E+03  0.7818608E-02  0.1142639E+00
         21   -1    0    0  501  502  0.00000000000E+00  0.00000000000E+00  0.16270789004E+03  0.16270789004E+03  0.00000000000E+00 0.  1.
         21   -1    0    0  502  503 -0.00000000000E+00 -0.00000000000E+00 -0.27726935773E+03  0.27726935773E+03  0.00000000000E+00 0.  1.
          6    1    1    2  501    0  0.11506460647E+03  0.26673566188E+02 -0.16130072951E+02  0.20927379685E+03  0.17200000000E+03 0. -1.
         -6    1    1    2    0  503 -0.11506460647E+03 -0.26673566188E+02 -0.98431394743E+02  0.23070345092E+03  0.17200000000E+03 0. -1.
</event>
<event>
 4    1  0.6129841E-001  0.2221621E+03  0.7818608E-02  0.1132281E+00
         21   -1    0    0  503  502  0.00000000000E+00  0.00000000000E+00  0.41674967548E+03  0.41674967548E+03  0.00000000000E+00 0. -1.
         21   -1    0    0  501  503 -0.00000000000E+00 -0.00000000000E+00 -0.16084519639E+03  0.16084519639E+03  0.00000000000E+00 0. -1.
          6    1    1    2  501    0 -0.95036788546E+02  0.10363391789E+03  0.27625394452E+03  0.35450278134E+03  0.17200000000E+03 0. -1.
         -6    1    1    2    0  502  0.95036788546E+02 -0.10363391789E+03 -0.20349465435E+02  0.22309209053E+03  0.17200000000E+03 0. -1.
</event>
<event>
 4    1  0.6129841E-001  0.1870732E+03  0.7818608E-02  0.1161128E+00
         21   -1    0    0  503  502  0.00000000000E+00  0.00000000000E+00  0.23267314078E+03  0.23267314078E+03  0.00000000000E+00 0. -1.
         21   -1    0    0  501  503 -0.00000000000E+00 -0.00000000000E+00 -0.36079623858E+03  0.36079623858E+03  0.00000000000E+00 0. -1.
          6    1    1    2  501    0 -0.32181926763E+02 -0.66156627744E+02 -0.29065426525E+03  0.34565340692E+03  0.17200000000E+03 0. -1.
         -6    1    1    2    0  502  0.32181926763E+02  0.66156627744E+02  0.16253116745E+03  0.24781597244E+03  0.17200000000E+03 0. -1.
</event>
<event>
 4    1  0.6129841E-001  0.1748259E+03  0.7818608E-02  0.1172907E+00
         21   -1    0    0  503  502  0.00000000000E+00  0.00000000000E+00  0.16485209019E+04  0.16485209019E+04  0.00000000000E+00 0. -1.
         21   -1    0    0  501  503 -0.00000000000E+00 -0.00000000000E+00 -0.18545133950E+02  0.18545133950E+02  0.00000000000E+00 0. -1.
          6    1    1    2  501    0  0.98086274505E+01 -0.29730060990E+02  0.82843370784E+03  0.84667968795E+03  0.17200000000E+03 0.  1.
         -6    1    1    2    0  502 -0.98086274505E+01  0.29730060990E+02  0.80154206012E+03  0.82038634791E+03  0.17200000000E+03 0.  1.
</event>
<event>
 4    1  0.6129841E-001  0.1982610E+03  0.7818608E-02  0.1151215E+00
         21   -1    0    0  501  502  0.00000000000E+00  0.00000000000E+00  0.88183262349E+02  0.88183262349E+02  0.00000000000E+00 0. -1.
         21   -1    0    0  502  503 -0.00000000000E+00 -0.00000000000E+00 -0.52616396460E+03  0.52616396460E+03  0.00000000000E+00 0. -1.
          6    1    1    2  501    0 -0.50532363527E+02 -0.84675312159E+02 -0.98903050242E+02  0.22156092074E+03  0.17200000000E+03 0. -1.
         -6    1    1    2    0  503  0.50532363527E+02  0.84675312159E+02 -0.33907765201E+03  0.39278630621E+03  0.17200000000E+03 0. -1.
</event>
<event>
 4    1  0.6129841E-001  0.1901705E+03  0.7818608E-02  0.1158308E+00
         21   -1    0    0  503  502  0.00000000000E+00  0.00000000000E+00  0.90155222592E+02  0.90155222592E+02  0.00000000000E+00 0. -1.
         21   -1    0    0  501  503 -0.00000000000E+00 -0.00000000000E+00 -0.41314019799E+03  0.41314019799E+03  0.00000000000E+00 0. -1.
          6    1    1    2  501    0  0.30522565246E+02  0.75161199537E+02 -0.11860356844E+03  0.22412416057E+03  0.17200000000E+03 0. -1.
         -6    1    1    2    0  502 -0.30522565246E+02 -0.75161199537E+02 -0.20438140696E+03  0.27917126001E+03  0.17200000000E+03 0. -1.
</event>
<event>
 4    1  0.6129841E-001  0.1797413E+03  0.7818608E-02  0.1168054E+00
         21   -1    0    0  503  502  0.00000000000E+00  0.00000000000E+00  0.22152595328E+03  0.22152595328E+03  0.00000000000E+00 0.  1.
         21   -1    0    0  501  503 -0.00000000000E+00 -0.00000000000E+00 -0.14763945673E+03  0.14763945673E+03  0.00000000000E+00 0. -1.
          6    1    1    2  501    0 -0.51173583087E+02 -0.10207445262E+02  0.57331866332E+02  0.18866337865E+03  0.17200000000E+03 0.  1.
         -6    1    1    2    0  502  0.51173583087E+02  0.10207445262E+02  0.16554630210E+02  0.18050203136E+03  0.17200000000E+03 0.  1.
</event>
<event>
 4    1  0.6129841E-001  0.1880772E+03  0.7818608E-02  0.1160207E+00
         21   -1    0    0  501  502  0.00000000000E+00  0.00000000000E+00  0.85583854026E+03  0.85583854026E+03  0.00000000000E+00 0. -1.
         21   -1    0    0  502  503 -0.00000000000E+00 -0.00000000000E+00 -0.51269503794E+02  0.51269503794E+02  0.00000000000E+00 0. -1.
          6    1    1    2  501    0  0.24932404026E+01 -0.76044952871E+02  0.60197163831E+03  0.63066861698E+03  0.17200000000E+03 0. -1.
         -6    1    1    2    0  503 -0.24932404026E+01  0.76044952871E+02  0.20259739815E+03  0.27643942707E+03  0.17200000000E+03 0. -1.
</event>
<event>
 4    1  0.6129841E-001  0.2132206E+03  0.7818608E-02  0.1139041E+00
         21   -1    0    0  501  502  0.00000000000E+00  0.00000000000E+00  0.38709451563E+03  0.38709451563E+03  0.00000000000E+00 0.  1.
         21   -1    0    0  502  503 -0.00000000000E+00 -0.00000000000E+00 -0.12174520506E+03  0.12174520506E+03  0.00000000000E+00 0.  1.
          6    1    1    2  501    0  0.11703609348E+03  0.46707551839E+02  0.18047981534E+03  0.27934925510E+03  0.17200000000E+03 0.  1.
         -6    1    1    2    0  503 -0.11703609348E+03 -0.46707551839E+02  0.84869495232E+02  0.22949046559E+03  0.17200000000E+03 0.  1.
</event>
<event>
 4    1  0.6129841E-001  0.2383649E+03  0.7818608E-02  0.1120887E+00
         21   -1    0    0  503  502  0.00000000000E+00  0.00000000000E+00  0.83567707598E+03  0.83567707598E+03  0.00000000000E+00 0.  1.
         21   -1    0    0  501  503 -0.00000000000E+00 -0.00000000000E+00 -0.69295713856E+02  0.69295713856E+02  0.00000000000E+00 0. -1.
          6    1    1    2  501    0 -0.10736722137E+03  0.12532391632E+03  0.32108197278E+03  0.39988928151E+03  0.17200000000E+03 0.  1.
         -6    1    1    2    0  502  0.10736722137E+03 -0.12532391632E+03  0.44529938934E+03  0.50508350832E+03  0.17200000000E+03 0. -1.
</event>
<event>
 4    1  0.6129841E-001  0.1984102E+03  0.7818608E-02  0.1151087E+00
         21   -1    0    0  501  502  0.00000000000E+00  0.00000000000E+00  0.15263014986E+03  0.15263014986E+03  0.00000000000E+00 0.  1.
         21   -1    0    0  502  503 -0.00000000000E+00 -0.00000000000E+00 -0.32712864114E+03  0.32712864114E+03  0.00000000000E+00 0.  1.
          6    1    1    2  501    0  0.98829561845E+02 -0.39127905925E+01  0.23084717446E+02  0.19974858298E+03  0.17200000000E+03 0.  1.
         -6    1    1    2    0  503 -0.98829561845E+02  0.39127905925E+01 -0.19758320872E+03  0.28001020802E+03  0.17200000000E+03 0.  1.
</event>
<event>
 4    1  0.6129841E-001  0.1864613E+03  0.7818608E-02  0.1161692E+00
         21   -1    0    0  501  502  0.00000000000E+00  0.00000000000E+00  0.56795721442E+02  0.56795721442E+02  0.00000000000E+00 0. -1.
         21   -1    0    0  502  503 -0.00000000000E+00 -0.00000000000E+00 -0.69829713974E+03  0.69829713974E+03  0.00000000000E+00 0. -1.
          6    1    1    2  501    0 -0.63900845470E+02 -0.33173533035E+02 -0.18814649288E+03  0.26489036247E+03  0.17200000000E+03 0. -1.
         -6    1    1    2    0  503  0.63900845470E+02  0.33173533035E+02 -0.45335492542E+03  0.49020249871E+03  0.17200000000E+03 0. -1.
</event>
<event>
 4    1  0.6129841E-001  0.1813910E+03  0.7818608E-02  0.1166464E+00
         21   -1    0    0  503  502  0.00000000000E+00  0.00000000000E+00  0.10147612465E+04  0.10147612465E+04  0.00000000000E+00 0.  1.
         21   -1    0    0  501  503 -0.00000000000E+00 -0.00000000000E+00 -0.44755328936E+02  0.44755328936E+02  0.00000000000E+00 0. -1.
          6    1    1    2  501    0 -0.44698842655E+02 -0.36341737646E+02  0.20692999455E+03  0.27517763549E+03  0.17200000000E+03 0. -1.
         -6    1    1    2    0  502  0.44698842655E+02  0.36341737646E+02  0.76307592299E+03  0.78433893993E+03  0.17200000000E+03 0.  1.
</event>
<event>
 4    1  0.6129841E-001  0.1933061E+03  0.7818608E-02  0.1155513E+00
         21   -1    0    0  503  502  0.00000000000E+00  0.00000000000E+00  0.27258707191E+03  0.27258707191E+03  0.00000000000E+00 0. -1.
         21   -1    0    0  501  503 -0.00000000000E+00 -0.00000000000E+00 -0.15782383567E+03  0.15782383567E+03  0.00000000000E+00 0. -1.
          6    1    1    2  501    0 -0.86965546760E+02  0.14840225113E+02 -0.20632462505E+02  0.19440405632E+03  0.17200000000E+03 0. -1.
         -6    1    1    2    0  502  0.86965546760E+02 -0.14840225113E+02  0.13539569874E+03  0.23600685126E+03  0.17200000000E+03 0. -1.
</event>
<event>
 4    1  0.6129841E-001  0.1792629E+03  0.7818608E-02  0.1168518E+00
         21   -1    0    0  501  502  0.00000000000E+00  0.00000000000E+00  0.37230994061E+03  0.37230994061E+03  0.00000000000E+00 0.  1.
         21   -1    0    0  502  503 -0.00000000000E+00 -0.00000000000E+00 -0.14043579964E+03  0.14043579964E+03  0.00000000000E+00 0.  1.
          6    1    1    2  501    0 -0.19211011204E+01  0.50472636158E+02  0.27509320662E+03  0.32834653943E+03  0.17200000000E+03 0.  1.
         -6    1    1    2    0  503  0.19211011204E+01 -0.50472636158E+02 -0.43219065647E+02  0.18439920083E+03  0.17200000000E+03 0.  1.
</event>
<event>
 4    1  0.6129841E-001  0.2393435E+03  0.7818608E-02  0.1120231E+00
         21   -1    0    0  503  502  0.00000000000E+00  0.00000000000E+00  0.13203223211E+04  0.13203223211E+04  0.00000000000E+00 0.  1.
         21   -1    0    0  501  503 -0.00000000000E+00 -0.00000000000E+00 -0.44087617459E+02  0.44087617459E+02  0.00000000000E+00 0.  1.
          6    1    1    2  501    0  0.16558072063E+03 -0.16862159600E+02  0.72409462121E+03  0.76262594235E+03  0.17200000000E+03 0. -1.
         -6    1    1    2    0  502 -0.16558072063E+03  0.16862159600E+02  0.55214008241E+03  0.60178399619E+03  0.17200000000E+03 0. -1.
</event>
<event>
 4    1  0.6129841E-001  0.2076500E+03  0.7818608E-02  0.1143441E+00
         21   -1    0    0  503  502  0.00000000000E+00  0.00000000000E+00  0.50293903006E+03  0.50293903006E+03  0.00000000000E+00 0.  1.
         21   -1    0    0  501  503 -0.00000000000E+00 -0.00000000000E+00 -0.93509546797E+02  0.93509546797E+02  0.00000000000E+00 0.  1.
          6    1    1    2  501    0  0.24718119259E+01 -0.11631162062E+03  0.11871310733E+03  0.23918884756E+03  0.17200000000E+03 0.  1.
         -6    1    1    2    0  502 -0.24718119259E+01  0.11631162062E+03  0.29071637593E+03  0.35725972930E+03  0.17200000000E+03 0.  1.
</event>
<event>
 4    1  0.6129841E-001  0.1819374E+03  0.7818608E-02  0.1165941E+00
         21   -1    0    0  503  502  0.00000000000E+00  0.00000000000E+00  0.17107863784E+03  0.17107863784E+03  0.00000000000E+00 0.  1.
         21   -1    0    0  501  503 -0.00000000000E+00 -0.00000000000E+00 -0.32287637992E+03  0.32287637992E+03  0.00000000000E+00 0.  1.
          6    1    1    2  501    0  0.43220974225E+02 -0.40610104698E+02 -0.23224643773E+03  0.29502481431E+03  0.17200000000E+03 0.  1.
         -6    1    1    2    0  502 -0.43220974225E+02  0.40610104698E+02  0.80448695650E+02  0.19893020346E+03  0.17200000000E+03 0.  1.
</event>
<event>
 4    1  0.6129841E-001  0.1732644E+03  0.7818608E-02  0.1174486E+00
         21   -1    0    0  501  502  0.00000000000E+00  0.00000000000E+00  0.43388533034E+03  0.43388533034E+03  0.00000000000E+00 0. -1.
         21   -1    0    0  502  503 -0.00000000000E+00 -0.00000000000E+00 -0.11289347545E+03  0.11289347545E+03  0.00000000000E+00 0. -1.
          6    1    1    2  501    0  0.20660282424E+02 -0.31176356020E+01  0.33059610769E+03  0.37324838023E+03  0.17200000000E+03 0. -1.
         -6    1    1    2    0  503 -0.20660282424E+02  0.31176356020E+01 -0.96042528000E+01  0.17353042556E+03  0.17200000000E+03 0. -1.
</event>
<event>
 4    1  0.6129841E-001  0.1774254E+03  0.7818608E-02  0.1170318E+00
         21   -1    0    0  503  502  0.00000000000E+00  0.00000000000E+00  0.97556081171E+02  0.97556081171E+02  0.00000000000E+00 0.  1.
         21   -1    0    0  501  503 -0.00000000000E+00 -0.00000000000E+00 -0.37354502015E+03  0.37354502015E+03  0.00000000000E+00 0.  1.
          6    1    1    2  501    0 -0.42911358723E+02 -0.73744925397E+01 -0.22491172365E+03  0.28646998321E+03  0.17200000000E+03 0.  1.
         -6    1    1    2    0  502  0.42911358723E+02  0.73744925397E+01 -0.51077215330E+02  0.18463111811E+03  0.17200000000E+03 0.  1.
</event>
<event>
 4    1  0.6129841E-001  0.2246105E+03  0.7818608E-02  0.1130492E+00
         21   -1    0    0  501  502  0.00000000000E+00  0.00000000000E+00  0.97477778352E+02  0.97477778352E+02  0.00000000000E+00 0. -1.
         21   -1    0    0  502  503 -0.00000000000E+00 -0.00000000000E+00 -0.53906636254E+03  0.53906636254E+03  0.00000000000E+00 0. -1.
          6    1    1    2  501    0  0.11175656076E+03 -0.91522346213E+02 -0.28437663393E+03  0.36238093031E+03  0.17200000000E+03 0. -1.
         -6    1    1    2    0  503 -0.11175656076E+03  0.91522346213E+02 -0.15721195025E+03  0.27416321057E+03  0.17200000000E+03 0. -1.
</event>
<event>
 4    1  0.6129841E-001  0.3186614E+03  0.7818608E-02  0.1076267E+00
         21   -1    0    0  503  502  0.00000000000E+00  0.00000000000E+00  0.24066880238E+03  0.24066880238E+03  0.00000000000E+00 0. -1.
         21   -1    0    0  501  503 -0.00000000000E+00 -0.00000000000E+00 -0.52644987025E+03  0.52644987025E+03  0.00000000000E+00 0. -1.
          6    1    1    2  501    0 -0.10671138398E+03 -0.24611735942E+03 -0.31379609172E+03  0.44722819819E+03  0.17200000000E+03 0.  1.
         -6    1    1    2    0  502  0.10671138398E+03  0.24611735942E+03  0.28015023849E+02  0.31989047445E+03  0.17200000000E+03 0.  1.
</event>
<event>
 4    1  0.6129841E-001  0.2009217E+03  0.7818608E-02  0.1148964E+00
         21   -1    0    0  503  502  0.00000000000E+00  0.00000000000E+00  0.35622321759E+03  0.35622321759E+03  0.00000000000E+00 0. -1.
         21   -1    0    0  501  503 -0.00000000000E+00 -0.00000000000E+00 -0.11345423273E+03  0.11345423273E+03  0.00000000000E+00 0. -1.
          6    1    1    2  501    0  0.94667558210E+02 -0.42703395646E+02  0.12926454339E+03  0.23891180120E+03  0.17200000000E+03 0. -1.
         -6    1    1    2    0  502 -0.94667558210E+02  0.42703395646E+02  0.11350444148E+03  0.23076564912E+03  0.17200000000E+03 0. -1.
</event>
<event>
 4    1  0.6129841E-001  0.1863094E+03  0.7818608E-02  0.1161833E+00
         21   -1    0    0  501  502  0.00000000000E+00  0.00000000000E+00  0.36449069275E+03  0.36449069275E+03  0.00000000000E+00 0.  1.
         21   -1    0    0  502  503 -0.00000000000E+00 -0.00000000000E+00 -0.96974278714E+02  0.96974278714E+02  0.00000000000E+00 0.  1.
          6    1    1    2  501    0  0.69923746224E+02  0.15423247030E+02  0.16468460229E+03  0.24866086356E+03  0.17200000000E+03 0. -1.
         -6    1    1    2    0  503 -0.69923746224E+02 -0.15423247030E+02  0.10283181175E+03  0.21280410791E+03  0.17200000000E+03 0. -1.
</event>
<event>
 4    1  0.6129841E-001  0.2239034E+03  0.7818608E-02  0.1131006E+00
         21   -1    0    0  503  502  0.00000000000E+00  0.00000000000E+00  0.19112847024E+03  0.19112847024E+03  0.00000000000E+00 0. -1.
         21   -1    0    0  501  503 -0.00000000000E+00 -0.00000000000E+00 -0.26267777105E+03  0.26267777105E+03  0.00000000000E+00 0. -1.
          6    1    1    2  501    0  0.18649909017E+02 -0.14212992625E+03 -0.27154163957E+02  0.22554397279E+03  0.17200000000E+03 0.  1.
         -6    1    1    2    0  502 -0.18649909017E+02  0.14212992625E+03 -0.44395136858E+02  0.22826226850E+03  0.17200000000E+03 0.  1.
</event>
<event>
 4    1  0.6129841E-001  0.1815404E+03  0.7818608E-02  0.1166320E+00
         21   -1    0    0  503  502  0.00000000000E+00  0.00000000000E+00  0.58843630469E+02  0.58843630469E+02  0.00000000000E+00 0. -1.
         21   -1    0    0  501  503 -0.00000000000E+00 -0.00000000000E+00 -0.68980088037E+03  0.68980088037E+03  0.00000000000E+00 0. -1.
          6    1    1    2  501    0  0.33315337457E+02  0.47571117901E+02 -0.47780717527E+03  0.51113268308E+03  0.17200000000E+03 0. -1.
         -6    1    1    2    0  502 -0.33315337457E+02 -0.47571117901E+02 -0.15315007463E+03  0.23751182776E+03  0.17200000000E+03 0. -1.
</event>
<event>
 4    1  0.6129841E-001  0.1951326E+03  0.7818608E-02  0.1153912E+00
         21   -1    0    0  503  502  0.00000000000E+00  0.00000000000E+00  0.85753419858E+02  0.85753419858E+02  0.00000000000E+00 0. -1.
         21   -1    0    0  501  503 -0.00000000000E+00 -0.00000000000E+00 -0.56301333220E+03  0.56301333220E+03  0.00000000000E+00 0. -1.
          6    1    1    2  501    0 -0.86040152240E+02 -0.33012360813E+02 -0.38775484381E+03  0.43408587015E+03  0.17200000000E+03 0. -1.
         -6    1    1    2    0  502  0.86040152240E+02  0.33012360813E+02 -0.89505068529E+02  0.21468088191E+03  0.17200000000E+03 0. -1.
</event>
<event>
 4    1  0.6129841E-001  0.1755006E+03  0.7818608E-02  0.1172230E+00
         21   -1    0    0  503  502  0.00000000000E+00  0.00000000000E+00  0.12481195205E+03  0.12481195205E+03  0.00000000000E+00 0. -1.
         21   -1    0    0  501  503 -0.00000000000E+00 -0.00000000000E+00 -0.28368206227E+03  0.28368206227E+03  0.00000000000E+00 0. -1.
          6    1    1    2  501    0  0.40924616173E+01 -0.34636995301E+02 -0.15310570352E+03  0.23289874653E+03  0.17200000000E+03 0.  1.
         -6    1    1    2    0  502 -0.40924616173E+01  0.34636995301E+02 -0.57644066965E+01  0.17559526779E+03  0.17200000000E+03 0.  1.
</event>
<event>
 4    1  0.6129841E-001  0.1760244E+03  0.7818608E-02  0.1171707E+00
         21   -1    0    0  501  502  0.00000000000E+00  0.00000000000E+00  0.15224409243E+03  0.15224409243E+03  0.00000000000E+00 0. -1.
         21   -1    0    0  502  503 -0.00000000000E+00 -0.00000000000E+00 -0.28378048548E+03  0.28378048548E+03  0.00000000000E+00 0. -1.
          6    1    1    2  501    0 -0.83515380798E+01 -0.36480489928E+02  0.50174434076E+02  0.18303564726E+03  0.17200000000E+03 0. -1.
         -6    1    1    2    0  503  0.83515380798E+01  0.36480489928E+02 -0.18171082713E+03  0.25298893065E+03  0.17200000000E+03 0. -1.
</event>
<event>
 4    1  0.6129841E-001  0.1762036E+03  0.7818608E-02  0.1171529E+00
         21   -1    0    0  501  502  0.00000000000E+00  0.00000000000E+00  0.11980819576E+03  0.11980819576E+03  0.00000000000E+00 0.  1.
         21   -1    0    0  502  503 -0.00000000000E+00 -0.00000000000E+00 -0.26755946234E+03  0.26755946234E+03  0.00000000000E+00 0.  1.
          6    1    1    2  501    0  0.26968155522E+01 -0.38163418897E+02 -0.39528450532E+02  0.18058299410E+03  0.17200000000E+03 0.  1.
         -6    1    1    2    0  503 -0.26968155522E+01  0.38163418897E+02 -0.10822281604E+03  0.20678466401E+03  0.17200000000E+03 0.  1.
</event>
<event>
 4    1  0.6129841E-001  0.2277880E+03  0.7818608E-02  0.1128206E+00
         21   -1    0    0  503  502  0.00000000000E+00  0.00000000000E+00  0.23920363839E+03  0.23920363839E+03  0.00000000000E+00 0. -1.
         21   -1    0    0  501  503 -0.00000000000E+00 -0.00000000000E+00 -0.25101530685E+03  0.25101530685E+03  0.00000000000E+00 0. -1.
          6    1    1    2  501    0 -0.40885837671E+02  0.14363738551E+03  0.84433318113E+02  0.24293277968E+03  0.17200000000E+03 0. -1.
         -6    1    1    2    0  502  0.40885837671E+02 -0.14363738551E+03 -0.96244986567E+02  0.24728616556E+03  0.17200000000E+03 0. -1.
</event>
<event>
 4    1  0.6129841E-001  0.2159894E+03  0.7818608E-02  0.1136909E+00
         21   -1    0    0  503  502  0.00000000000E+00  0.00000000000E+00  0.66189778632E+03  0.66189778632E+03  0.00000000000E+00 0.  1.
         21   -1    0    0  501  503 -0.00000000000E+00 -0.00000000000E+00 -0.71453773724E+02  0.71453773724E+02  0.00000000000E+00 0. -1.
          6    1    1    2  501    0  0.39928238294E+02 -0.12439122672E+03  0.33799800188E+03  0.40111605649E+03  0.17200000000E+03 0.  1.
         -6    1    1    2    0  502 -0.39928238294E+02  0.12439122672E+03  0.25244601071E+03  0.33223550355E+03  0.17200000000E+03 0. -1.
</event>
<event>
 4    1  0.6129841E-001  0.2118978E+03  0.7818608E-02  0.1140072E+00
         21   -1    0    0  503  502  0.00000000000E+00  0.00000000000E+00  0.16526072609E+03  0.16526072609E+03  0.00000000000E+00 0.  1.
         21   -1    0    0  501  503 -0.00000000000E+00 -0.00000000000E+00 -0.27604683198E+03  0.27604683198E+03  0.00000000000E+00 0.  1.
          6    1    1    2  501    0  0.11881755219E+03 -0.34627367964E+02 -0.27691122006E+02  0.21369947019E+03  0.17200000000E+03 0.  1.
         -6    1    1    2    0  502 -0.11881755219E+03  0.34627367964E+02 -0.83094983891E+02  0.22760808788E+03  0.17200000000E+03 0.  1.
</event>
<event>
 4    1  0.6129841E-001  0.1797129E+03  0.7818608E-02  0.1168081E+00
         21   -1    0    0  503  502  0.00000000000E+00  0.00000000000E+00  0.12200696302E+04  0.12200696302E+04  0.00000000000E+00 0.  1.
         21   -1    0    0  501  503 -0.00000000000E+00 -0.00000000000E+00 -0.10160603123E+03  0.10160603123E+03  0.00000000000E+00 0.  1.
          6    1    1    2  501    0 -0.14075573286E+02 -0.50145981468E+02 -0.90395096107E+01  0.17994013992E+03  0.17200000000E+03 0.  1.
         -6    1    1    2    0  502  0.14075573286E+02  0.50145981468E+02  0.11275031086E+04  0.11417355215E+04  0.17200000000E+03 0.  1.
</event>
<event>
 4    1  0.6129841E-001  0.2234386E+03  0.7818608E-02  0.1131345E+00
         21   -1    0    0  503  502  0.00000000000E+00  0.00000000000E+00  0.33842689144E+03  0.33842689144E+03  0.00000000000E+00 0. -1.
         21   -1    0    0  501  503 -0.00000000000E+00 -0.00000000000E+00 -0.19745688151E+03  0.19745688151E+03  0.00000000000E+00 0.  1.
          6    1    1    2  501    0 -0.37782382342E+02  0.13752558596E+03 -0.64260538210E+02  0.23249561712E+03  0.17200000000E+03 0.  1.
         -6    1    1    2    0  502  0.37782382342E+02 -0.13752558596E+03  0.20523054814E+03  0.30338815583E+03  0.17200000000E+03 0. -1.
</event>
<event>
 4    1  0.6129841E-001  0.3062831E+03  0.7818608E-02  0.1082141E+00
         21   -1    0    0  503  502  0.00000000000E+00  0.00000000000E+00  0.26135474530E+03  0.26135474530E+03  0.00000000000E+00 0.  1.
         21   -1    0    0  501  503 -0.00000000000E+00 -0.00000000000E+00 -0.36045543865E+03  0.36045543865E+03  0.00000000000E+00 0. -1.
          6    1    1    2  501    0  0.19161584458E+03  0.16585748885E+03 -0.69743365335E+02  0.31412334443E+03  0.17200000000E+03 0.  1.
         -6    1    1    2    0  502 -0.19161584458E+03 -0.16585748885E+03 -0.29357328018E+02  0.30768683952E+03  0.17200000000E+03 0. -1.
</event>
<event>
 4    1  0.6129841E-001  0.1746083E+03  0.7818608E-02  0.1173126E+00
         21   -1    0    0  503  502  0.00000000000E+00  0.00000000000E+00  0.32417347019E+02  0.32417347019E+02  0.00000000000E+00 0.  1.
         21   -1    0    0  501  503 -0.00000000000E+00 -0.00000000000E+00 -0.14383216367E+04  0.14383216367E+04  0.00000000000E+00 0.  1.
          6    1    1    2  501    0  0.23290632927E+02  0.19016093568E+02 -0.11355860320E+04  0.11489315478E+04  0.17200000000E+03 0.  1.
         -6    1    1    2    0  502 -0.23290632927E+02 -0.19016093568E+02 -0.27031825771E+03  0.32180743598E+03  0.17200000000E+03 0.  1.
</event>
<event>
 4    1  0.6129841E-001  0.1725596E+03  0.7818608E-02  0.1175205E+00
         21   -1    0    0  501  502  0.00000000000E+00  0.00000000000E+00  0.17168381708E+02  0.17168381708E+02  0.00000000000E+00 0.  1.
         21   -1    0    0  502  503 -0.00000000000E+00 -0.00000000000E+00 -0.19140054918E+04  0.19140054918E+04  0.00000000000E+00 0.  1.
          6    1    1    2  501    0  0.22967921745E+01  0.13694652440E+02 -0.12442069839E+04  0.12561161720E+04  0.17200000000E+03 0.  1.
         -6    1    1    2    0  503 -0.22967921745E+01 -0.13694652440E+02 -0.65263012622E+03  0.67505770154E+03  0.17200000000E+03 0.  1.
</event>
<event>
 4    1  0.6129841E-001  0.2030493E+03  0.7818608E-02  0.1147192E+00
         21   -1    0    0  503  502  0.00000000000E+00  0.00000000000E+00  0.14102345782E+04  0.14102345782E+04  0.00000000000E+00 0.  1.
         21   -1    0    0  501  503 -0.00000000000E+00 -0.00000000000E+00 -0.55973305675E+02  0.55973305675E+02  0.00000000000E+00 0. -1.
          6    1    1    2  501    0 -0.47869756035E+02  0.96713460906E+02  0.17044637276E+03  0.26510558849E+03  0.17200000000E+03 0. -1.
         -6    1    1    2    0  502  0.47869756035E+02 -0.96713460906E+02  0.11838148998E+04  0.12011022954E+04  0.17200000000E+03 0.  1.
</event>
<event>
 4    1  0.6129841E-001  0.1781032E+03  0.7818608E-02  0.1169652E+00
         21   -1    0    0  503  502  0.00000000000E+00  0.00000000000E+00  0.64791567935E+02  0.64791567935E+02  0.00000000000E+00 0. -1.
         21   -1    0    0  501  503 -0.00000000000E+00 -0.00000000000E+00 -0.50500327436E+03  0.50500327436E+03  0.00000000000E+00 0. -1.
          6    1    1    2  501    0  0.22949547675E+02 -0.40125588152E+02 -0.26989221957E+03  0.32336133774E+03  0.17200000000E+03 0. -1.
         -6    1    1    2    0  502 -0.22949547675E+02  0.40125588152E+02 -0.17031948686E+03  0.24643350455E+03  0.17200000000E+03 0. -1.
</event>
<event>
 4    1  0.6129841E-001  0.4374577E+03  0.7818608E-02  0.1031530E+00
         21   -1    0    0  501  502  0.00000000000E+00  0.00000000000E+00  0.45519410636E+03  0.45519410636E+03  0.00000000000E+00 0.  1.
         21   -1    0    0  502  503 -0.00000000000E+00 -0.00000000000E+00 -0.63527014668E+03  0.63527014668E+03  0.00000000000E+00 0. -1.
          6    1    1    2  501    0  0.16477931243E+03  0.36692369084E+03  0.22704850683E+03  0.49286939564E+03  0.17200000000E+03 0.  1.
         -6    1    1    2    0  503 -0.16477931243E+03 -0.36692369084E+03 -0.40712454716E+03  0.59759485741E+03  0.17200000000E+03 0. -1.
</event>
<event>
 4    1  0.6129841E-001  0.3837859E+03  0.7818608E-02  0.1049543E+00
         21   -1    0    0  503  502  0.00000000000E+00  0.00000000000E+00  0.12775226308E+04  0.12775226308E+04  0.00000000000E+00 0.  1.
         21   -1    0    0  501  503 -0.00000000000E+00 -0.00000000000E+00 -0.18787920817E+03  0.18787920817E+03  0.00000000000E+00 0. -1.
          6    1    1    2  501    0  0.33604162552E+03 -0.69163976325E+02  0.89404700307E+02  0.39406196231E+03  0.17200000000E+03 0. -1.
         -6    1    1    2    0  502 -0.33604162552E+03  0.69163976325E+02  0.10002387224E+04  0.10713398767E+04  0.17200000000E+03 0.  1.
</event>
<event>
 4    1  0.6129841E-001  0.2085229E+03  0.7818608E-02  0.1142741E+00
         21   -1    0    0  503  502  0.00000000000E+00  0.00000000000E+00  0.59574890915E+03  0.59574890915E+03  0.00000000000E+00 0.  1.
         21   -1    0    0  501  503 -0.00000000000E+00 -0.00000000000E+00 -0.15963053733E+03  0.15963053733E+03  0.00000000000E+00 0.  1.
          6    1    1    2  501    0  0.68772862852E+02  0.95750249049E+02 -0.60197574882E+02  0.21703816457E+03  0.17200000000E+03 0.  1.
         -6    1    1    2    0  502 -0.68772862852E+02 -0.95750249049E+02  0.49631594670E+03  0.53834128191E+03  0.17200000000E+03 0.  1.
</event>
<event>
 4    1  0.6129841E-001  0.1858492E+03  0.7818608E-02  0.1162259E+00
         21   -1    0    0  501  502  0.00000000000E+00  0.00000000000E+00  0.22184419116E+03  0.22184419116E+03  0.00000000000E+00 0. -1.
         21   -1    0    0  502  503 -0.00000000000E+00 -0.00000000000E+00 -0.18711105851E+03  0.18711105851E+03  0.00000000000E+00 0. -1.
          6    1    1    2  501    0  0.69630200046E+02  0.10370738434E+02  0.10115334159E+03  0.21159375106E+03  0.17200000000E+03 0. -1.
         -6    1    1    2    0  503 -0.69630200046E+02 -0.10370738434E+02 -0.66420208942E+02  0.19736149860E+03  0.17200000000E+03 0. -1.
</event>
<event>
 4    1  0.6129841E-001  0.2026144E+03  0.7818608E-02  0.1147552E+00
         21   -1    0    0  503  502  0.00000000000E+00  0.00000000000E+00  0.20222676871E+03  0.20222676871E+03  0.00000000000E+00 0. -1.
         21   -1    0    0  501  503 -0.00000000000E+00 -0.00000000000E+00 -0.20426181486E+03  0.20426181486E+03  0.00000000000E+00 0. -1.
          6    1    1    2  501    0 -0.10343433112E+03 -0.27747970215E+02 -0.16973790356E+02  0.20332417531E+03  0.17200000000E+03 0.  1.
         -6    1    1    2    0  502  0.10343433112E+03  0.27747970215E+02  0.14938744206E+02  0.20316440826E+03  0.17200000000E+03 0.  1.
</event>
<event>
 4    1  0.6129841E-001  0.2135333E+03  0.7818608E-02  0.1138798E+00
         21   -1    0    0  501  502  0.00000000000E+00  0.00000000000E+00  0.75489163470E+02  0.75489163470E+02  0.00000000000E+00 0. -1.
         21   -1    0    0  502  503 -0.00000000000E+00 -0.00000000000E+00 -0.63908440958E+03  0.63908440958E+03  0.00000000000E+00 0. -1.
          6    1    1    2  501    0  0.10118482755E+03 -0.75987604980E+02 -0.36549472239E+03  0.42329998528E+03  0.17200000000E+03 0. -1.
         -6    1    1    2    0  503 -0.10118482755E+03  0.75987604980E+02 -0.19810052371E+03  0.29127358777E+03  0.17200000000E+03 0. -1.
</event>
<event>
 4    1  0.6129841E-001  0.1832675E+03  0.7818608E-02  0.1164678E+00
         21   -1    0    0  501  502  0.00000000000E+00  0.00000000000E+00  0.31487686728E+02  0.31487686728E+02  0.00000000000E+00 0. -1.
         21   -1    0    0  502  503 -0.00000000000E+00 -0.00000000000E+00 -0.16317934302E+04  0.16317934302E+04  0.00000000000E+00 0. -1.
          6    1    1    2  501    0  0.45375324750E+02  0.44091254774E+02 -0.31074057840E+03  0.36075845923E+03  0.17200000000E+03 0. -1.
         -6    1    1    2    0  503 -0.45375324750E+02 -0.44091254774E+02 -0.12895651651E+04  0.13025226577E+04  0.17200000000E+03 0. -1.
</event>
<event>
 4    1  0.6129841E-001  0.1849640E+03  0.7818608E-02  0.1163083E+00
         21   -1    0    0  501  502  0.00000000000E+00  0.00000000000E+00  0.14592023908E+03  0.14592023908E+03  0.00000000000E+00 0.  1.
         21   -1    0    0  502  503 -0.00000000000E+00 -0.00000000000E+00 -0.25838719820E+03  0.25838719820E+03  0.00000000000E+00 0. -1.
          6    1    1    2  501    0 -0.14514053217E+02  0.66460817978E+02  0.52898028238E+01  0.18503967164E+03  0.17200000000E+03 0. -1.
         -6    1    1    2    0  503  0.14514053217E+02 -0.66460817978E+02 -0.11775676194E+03  0.21926776564E+03  0.17200000000E+03 0. -1.
</event>
<event>
 4    1  0.6129841E-001  0.1869388E+03  0.7818608E-02  0.1161252E+00
         21   -1    0    0  503  502  0.00000000000E+00  0.00000000000E+00  0.14982616574E+03  0.14982616574E+03  0.00000000000E+00 0. -1.
         21   -1    0    0  501  503 -0.00000000000E+00 -0.00000000000E+00 -0.47068996439E+03  0.47068996439E+03  0.00000000000E+00 0.  1.
          6    1    1    2  501    0  0.15475552246E+02 -0.71572378858E+02 -0.38079442354E+03  0.42420571794E+03  0.17200000000E+03 0.  1.
         -6    1    1    2    0  502 -0.15475552246E+02  0.71572378858E+02  0.59930624889E+02  0.19631041219E+03  0.17200000000E+03 0.  1.
</event>
<event>
 4    1  0.6129841E-001  0.3140601E+03  0.7818608E-02  0.1078416E+00
         21   -1    0    0  501  502  0.00000000000E+00  0.00000000000E+00  0.79481736370E+03  0.79481736370E+03  0.00000000000E+00 0.  1.
         21   -1    0    0  502  503 -0.00000000000E+00 -0.00000000000E+00 -0.17399726267E+03  0.17399726267E+03  0.00000000000E+00 0. -1.
          6    1    1    2  501    0 -0.23876873541E+03  0.10972345501E+03  0.56982485537E+03  0.65064130777E+03  0.17200000000E+03 0. -1.
         -6    1    1    2    0  503  0.23876873541E+03 -0.10972345501E+03  0.50995245671E+02  0.31817331860E+03  0.17200000000E+03 0. -1.
</event>
<event>
 4    1  0.6129841E-001  0.1793782E+03  0.7818608E-02  0.1168406E+00
         21   -1    0    0  503  502  0.00000000000E+00  0.00000000000E+00  0.23241757601E+03  0.23241757601E+03  0.00000000000E+00 0.  1.
         21   -1    0    0  501  503 -0.00000000000E+00 -0.00000000000E+00 -0.14619557669E+03  0.14619557669E+03  0.00000000000E+00 0.  1.
          6    1    1    2  501    0 -0.41725604977E+02  0.29180454903E+02 -0.48323139352E+00  0.17937881305E+03  0.17200000000E+03 0.  1.
         -6    1    1    2    0  502  0.41725604977E+02 -0.29180454903E+02  0.86705230717E+02  0.19923433964E+03  0.17200000000E+03 0.  1.
</event>
<event>
 4    1  0.6129841E-001  0.2359022E+03  0.7818608E-02  0.1122553E+00
         21   -1    0    0  503  502  0.00000000000E+00  0.00000000000E+00  0.96988417707E+03  0.96988417707E+03  0.00000000000E+00 0.  1.
         21   -1    0    0  501  503 -0.00000000000E+00 -0.00000000000E+00 -0.63553746000E+02  0.63553746000E+02  0.00000000000E+00 0. -1.
          6    1    1    2  501    0 -0.55206213042E+02  0.15171731818E+03  0.29208813677E+03  0.37545352607E+03  0.17200000000E+03 0. -1.
         -6    1    1    2    0  502  0.55206213042E+02 -0.15171731818E+03  0.61424229429E+03  0.65798439700E+03  0.17200000000E+03 0.  1.
</event>
<event>
 4    1  0.6129841E-001  0.2709860E+03  0.7818608E-02  0.1100717E+00
         21   -1    0    0  503  502  0.00000000000E+00  0.00000000000E+00  0.10559486385E+03  0.10559486385E+03  0.00000000000E+00 0. -1.
         21   -1    0    0  501  503 -0.00000000000E+00 -0.00000000000E+00 -0.88533330729E+03  0.88533330729E+03  0.00000000000E+00 0.  1.
          6    1    1    2  501    0  0.18716399593E+03 -0.93909813678E+02 -0.61934117289E+03  0.67603025296E+03  0.17200000000E+03 0.  1.
         -6    1    1    2    0  502 -0.18716399593E+03  0.93909813678E+02 -0.16039727055E+03  0.31489791818E+03  0.17200000000E+03 0. -1.
</event>
<event>
 4    1  0.6129841E-001  0.2041119E+03  0.7818608E-02  0.1146315E+00
         21   -1    0    0  503  502  0.00000000000E+00  0.00000000000E+00  0.27522024425E+03  0.27522024425E+03  0.00000000000E+00 0. -1.
         21   -1    0    0  501  503 -0.00000000000E+00 -0.00000000000E+00 -0.18671087575E+03  0.18671087575E+03  0.00000000000E+00 0.  1.
          6    1    1    2  501    0  0.10465092499E+03  0.33553812741E+02 -0.56222084199E+02  0.21171347903E+03  0.17200000000E+03 0.  1.
         -6    1    1    2    0  502 -0.10465092499E+03 -0.33553812741E+02  0.14473145270E+03  0.25021764097E+03  0.17200000000E+03 0. -1.
</event>
<event>
 4    1  0.6129841E-001  0.1765491E+03  0.7818608E-02  0.1171185E+00
         21   -1    0    0  503  502  0.00000000000E+00  0.00000000000E+00  0.58414009323E+02  0.58414009323E+02  0.00000000000E+00 0. -1.
         21   -1    0    0  501  503 -0.00000000000E+00 -0.00000000000E+00 -0.81103219188E+03  0.81103219188E+03  0.00000000000E+00 0. -1.
          6    1    1    2  501    0 -0.30302630961E+02 -0.25832923627E+02 -0.63056659976E+03  0.65481587192E+03  0.17200000000E+03 0. -1.
         -6    1    1    2    0  502  0.30302630961E+02  0.25832923627E+02 -0.12205158281E+03  0.21463032929E+03  0.17200000000E+03 0. -1.
</event>
<event>
 4    1  0.6129841E-001  0.2301416E+03  0.7818608E-02  0.1126540E+00
         21   -1    0    0  501  502  0.00000000000E+00  0.00000000000E+00  0.41586434143E+02  0.41586434143E+02  0.00000000000E+00 0.  1.
         21   -1    0    0  502  503 -0.00000000000E+00 -0.00000000000E+00 -0.12794834111E+04  0.12794834111E+04  0.00000000000E+00 0.  1.
          6    1    1    2  501    0 -0.14855302038E+03 -0.36237539235E+02 -0.57421922568E+03  0.61862175702E+03  0.17200000000E+03 0. -1.
         -6    1    1    2    0  503  0.14855302038E+03  0.36237539235E+02 -0.66367775125E+03  0.70244808820E+03  0.17200000000E+03 0. -1.
</event>
<event>
 4    1  0.6129841E-001  0.1759069E+03  0.7818608E-02  0.1171824E+00
         21   -1    0    0  503  502  0.00000000000E+00  0.00000000000E+00  0.29310229048E+04  0.29310229048E+04  0.00000000000E+00 0.  1.
         21   -1    0    0  501  503 -0.00000000000E+00 -0.00000000000E+00 -0.12433936747E+02  0.12433936747E+02  0.00000000000E+00 0.  1.
          6    1    1    2  501    0  0.26956245562E+02  0.25151172099E+02  0.20310783705E+04  0.20386815758E+04  0.17200000000E+03 0.  1.
         -6    1    1    2    0  502 -0.26956245562E+02 -0.25151172099E+02  0.88751059756E+03  0.90477526570E+03  0.17200000000E+03 0.  1.
</event>
<event>
 4    1  0.6129841E-001  0.1777132E+03  0.7818608E-02  0.1170035E+00
         21   -1    0    0  501  502  0.00000000000E+00  0.00000000000E+00  0.21388491446E+03  0.21388491446E+03  0.00000000000E+00 0.  1.
         21   -1    0    0  502  503 -0.00000000000E+00 -0.00000000000E+00 -0.16644619359E+03  0.16644619359E+03  0.00000000000E+00 0.  1.
          6    1    1    2  501    0 -0.33741540387E+02  0.29317018247E+02 -0.40170032903E+02  0.18219662634E+03  0.17200000000E+03 0.  1.
         -6    1    1    2    0  503  0.33741540387E+02 -0.29317018247E+02  0.87608753768E+02  0.19813448171E+03  0.17200000000E+03 0.  1.
</event>
<event>
 4    1  0.6129841E-001  0.2216865E+03  0.7818608E-02  0.1132632E+00
         21   -1    0    0  503  502  0.00000000000E+00  0.00000000000E+00  0.48932293079E+03  0.48932293079E+03  0.00000000000E+00 0. -1.
         21   -1    0    0  501  503 -0.00000000000E+00 -0.00000000000E+00 -0.10343393036E+03  0.10343393036E+03  0.00000000000E+00 0. -1.
          6    1    1    2  501    0  0.13416667180E+03  0.39499245715E+02  0.24341493941E+03  0.32923505124E+03  0.17200000000E+03 0. -1.
         -6    1    1    2    0  502 -0.13416667180E+03 -0.39499245715E+02  0.14247406102E+03  0.26352180991E+03  0.17200000000E+03 0. -1.
</event>
<event>
 4    1  0.6129841E-001  0.2136171E+03  0.7818608E-02  0.1138733E+00
         21   -1    0    0  501  502  0.00000000000E+00  0.00000000000E+00  0.73696479200E+03  0.73696479200E+03  0.00000000000E+00 0. -1.
         21   -1    0    0  502  503 -0.00000000000E+00 -0.00000000000E+00 -0.63639871106E+02  0.63639871106E+02  0.00000000000E+00 0. -1.
          6    1    1    2  501    0 -0.10989971829E+03  0.63010440000E+02  0.40248483686E+03  0.45566029839E+03  0.17200000000E+03 0.  1.
         -6    1    1    2    0  503  0.10989971829E+03 -0.63010440000E+02  0.27084008403E+03  0.34494436471E+03  0.17200000000E+03 0.  1.
</event>
<event>
 4    1  0.6129841E-001  0.1864233E+03  0.7818608E-02  0.1161727E+00
         21   -1    0    0  501  502  0.00000000000E+00  0.00000000000E+00  0.28955648839E+03  0.28955648839E+03  0.00000000000E+00 0. -1.
         21   -1    0    0  502  503 -0.00000000000E+00 -0.00000000000E+00 -0.13652753002E+03  0.13652753002E+03  0.00000000000E+00 0. -1.
          6    1    1    2  501    0  0.71875105838E+02  0.19027301540E+01  0.24436777665E+01  0.18643932735E+03  0.17200000000E+03 0. -1.
         -6    1    1    2    0  503 -0.71875105838E+02 -0.19027301540E+01  0.15058528060E+03  0.23964469106E+03  0.17200000000E+03 0. -1.
</event>
<event>
 4    1  0.6129841E-001  0.1948043E+03  0.7818608E-02  0.1154198E+00
         21   -1    0    0  501  502  0.00000000000E+00  0.00000000000E+00  0.36034188897E+03  0.36034188897E+03  0.00000000000E+00 0.  1.
         21   -1    0    0  502  503 -0.00000000000E+00 -0.00000000000E+00 -0.17524414127E+03  0.17524414127E+03  0.00000000000E+00 0.  1.
          6    1    1    2  501    0 -0.10231325468E+02 -0.90884728493E+02  0.26171466854E+03  0.32625646603E+03  0.17200000000E+03 0.  1.
         -6    1    1    2    0  503  0.10231325468E+02  0.90884728493E+02 -0.76616920845E+02  0.20932956421E+03  0.17200000000E+03 0.  1.
</event>
<event>
 4    1  0.6129841E-001  0.2253916E+03  0.7818608E-02  0.1129926E+00
         21   -1    0    0  501  502  0.00000000000E+00  0.00000000000E+00  0.10000761744E+03  0.10000761744E+03  0.00000000000E+00 0.  1.
         21   -1    0    0  502  503 -0.00000000000E+00 -0.00000000000E+00 -0.51384756369E+03  0.51384756369E+03  0.00000000000E+00 0. -1.
          6    1    1    2  501    0 -0.11622644154E+02  0.14519736890E+03 -0.23973218335E+03  0.32904844860E+03  0.17200000000E+03 0. -1.
         -6    1    1    2    0  503  0.11622644154E+02 -0.14519736890E+03 -0.17410776291E+03  0.28480673253E+03  0.17200000000E+03 0.  1.
</event>
<event>
 4    1  0.6129841E-001  0.2436816E+03  0.7818608E-02  0.1117364E+00
         21   -1    0    0  503  502  0.00000000000E+00  0.00000000000E+00  0.53051688114E+02  0.53051688114E+02  0.00000000000E+00 0. -1.
         21   -1    0    0  501  503 -0.00000000000E+00 -0.00000000000E+00 -0.12086026776E+04  0.12086026776E+04  0.00000000000E+00 0. -1.
          6    1    1    2  501    0 -0.55698912037E+01 -0.17252736068E+03 -0.74925125060E+03  0.78788206630E+03  0.17200000000E+03 0. -1.
         -6    1    1    2    0  502  0.55698912037E+01  0.17252736068E+03 -0.40629973888E+03  0.47377229940E+03  0.17200000000E+03 0. -1.
</event>
<event>
 4    1  0.6129841E-001  0.1909145E+03  0.7818608E-02  0.1157639E+00
         21   -1    0    0  503  502  0.00000000000E+00  0.00000000000E+00  0.51246692229E+02  0.51246692229E+02  0.00000000000E+00 0. -1.
         21   -1    0    0  501  503 -0.00000000000E+00 -0.00000000000E+00 -0.81524360419E+03  0.81524360419E+03  0.00000000000E+00 0. -1.
          6    1    1    2  501    0  0.31530873502E+02 -0.76616921623E+02 -0.22724925705E+03  0.29680056181E+03  0.17200000000E+03 0. -1.
         -6    1    1    2    0  502 -0.31530873502E+02  0.76616921623E+02 -0.53674765491E+03  0.56968973460E+03  0.17200000000E+03 0. -1.
</event>
<event>
 4    1  0.6129841E-001  0.2091013E+03  0.7818608E-02  0.1142280E+00
         21   -1    0    0  503  502  0.00000000000E+00  0.00000000000E+00  0.53668228349E+03  0.53668228349E+03  0.00000000000E+00 0. -1.
         21   -1    0    0  501  503 -0.00000000000E+00 -0.00000000000E+00 -0.98044613699E+02  0.98044613699E+02  0.00000000000E+00 0. -1.
          6    1    1    2  501    0  0.28814379474E+02 -0.11536502276E+03  0.88830895119E+02  0.22718777447E+03  0.17200000000E+03 0. -1.
         -6    1    1    2    0  502 -0.28814379474E+02  0.11536502276E+03  0.34980677467E+03  0.40753912272E+03  0.17200000000E+03 0. -1.
</event>
<event>
 4    1  0.6129841E-001  0.2275089E+03  0.7818608E-02  0.1128406E+00
         21   -1    0    0  503  502  0.00000000000E+00  0.00000000000E+00  0.17425946682E+03  0.17425946682E+03  0.00000000000E+00 0.  1.
         21   -1    0    0  501  503 -0.00000000000E+00 -0.00000000000E+00 -0.29741611656E+03  0.29741611656E+03  0.00000000000E+00 0. -1.
          6    1    1    2  501    0 -0.91644436166E+02  0.11737794489E+03 -0.53080537515E+02  0.23361898059E+03  0.17200000000E+03 0. -1.
         -6    1    1    2    0  502  0.91644436166E+02 -0.11737794489E+03 -0.70076112230E+02  0.23805660279E+03  0.17200000000E+03 0.  1.
</event>
<event>
 4    1  0.6129841E-001  0.1849557E+03  0.7818608E-02  0.1163091E+00
         21   -1    0    0  503  502  0.00000000000E+00  0.00000000000E+00  0.12688949196E+03  0.12688949196E+03  0.00000000000E+00 0. -1.
         21   -1    0    0  501  503 -0.00000000000E+00 -0.00000000000E+00 -0.54960664524E+03  0.54960664524E+03  0.00000000000E+00 0. -1.
          6    1    1    2  501    0  0.47857489690E+02 -0.48314185013E+02 -0.45279258270E+03  0.48911115581E+03  0.17200000000E+03 0. -1.
         -6    1    1    2    0  502 -0.47857489690E+02  0.48314185013E+02  0.30075429416E+02  0.18738498138E+03  0.17200000000E+03 0. -1.
</event>
<event>
 4    1  0.6129841E-001  0.3217837E+03  0.7818608E-02  0.1074831E+00
         21   -1    0    0  503  502  0.00000000000E+00  0.00000000000E+00  0.51031634856E+03  0.51031634856E+03  0.00000000000E+00 0. -1.
         21   -1    0    0  501  503 -0.00000000000E+00 -0.00000000000E+00 -0.52551536292E+03  0.52551536292E+03  0.00000000000E+00 0.  1.
          6    1    1    2  501    0  0.46740426630E+02 -0.26791062797E+03 -0.41339473034E+03  0.52387018920E+03  0.17200000000E+03 0.  1.
         -6    1    1    2    0  502 -0.46740426630E+02  0.26791062797E+03  0.39819571598E+03  0.51196152227E+03  0.17200000000E+03 0. -1.
</event>
<event>
 4    1  0.6129841E-001  0.2053288E+03  0.7818608E-02  0.1145319E+00
         21   -1    0    0  501  502  0.00000000000E+00  0.00000000000E+00  0.11028109378E+03  0.11028109378E+03  0.00000000000E+00 0. -1.
         21   -1    0    0  502  503 -0.00000000000E+00 -0.00000000000E+00 -0.16475811067E+04  0.16475811067E+04  0.00000000000E+00 0. -1.
          6    1    1    2  501    0 -0.33657280571E+02 -0.10697249148E+03  0.15894737810E+01  0.20533497728E+03  0.17200000000E+03 0. -1.
         -6    1    1    2    0  503  0.33657280571E+02  0.10697249148E+03 -0.15388894867E+04  0.15525272232E+04  0.17200000000E+03 0. -1.
</event>
<event>
 4    1  0.6129841E-001  0.2561146E+03  0.7818608E-02  0.1109500E+00
         21   -1    0    0  501  502  0.00000000000E+00  0.00000000000E+00  0.39533764255E+03  0.39533764255E+03  0.00000000000E+00 0. -1.
         21   -1    0    0  502  503 -0.00000000000E+00 -0.00000000000E+00 -0.19064197117E+03  0.19064197117E+03  0.00000000000E+00 0.  1.
          6    1    1    2  501    0  0.16545210556E+03 -0.92931540878E+02  0.20785434870E+03  0.32984557114E+03  0.17200000000E+03 0. -1.
         -6    1    1    2    0  503 -0.16545210556E+03  0.92931540878E+02 -0.31586773181E+01  0.25613404258E+03  0.17200000000E+03 0.  1.
</event>
<event>
 4    1  0.6129841E-001  0.1889303E+03  0.7818608E-02  0.1159430E+00
         21   -1    0    0  503  502  0.00000000000E+00  0.00000000000E+00  0.25529913678E+03  0.25529913678E+03  0.00000000000E+00 0.  1.
         21   -1    0    0  501  503 -0.00000000000E+00 -0.00000000000E+00 -0.14210193060E+03  0.14210193060E+03  0.00000000000E+00 0.  1.
          6    1    1    2  501    0  0.35997534277E+02 -0.69388959101E+02  0.81805828761E+02  0.20588065411E+03  0.17200000000E+03 0. -1.
         -6    1    1    2    0  502 -0.35997534277E+02  0.69388959101E+02  0.31391377417E+02  0.19152041326E+03  0.17200000000E+03 0. -1.
</event>
<event>
 4    1  0.6129841E-001  0.2922074E+03  0.7818608E-02  0.1089202E+00
         21   -1    0    0  501  502  0.00000000000E+00  0.00000000000E+00  0.75879150235E+03  0.75879150235E+03  0.00000000000E+00 0.  1.
         21   -1    0    0  502  503 -0.00000000000E+00 -0.00000000000E+00 -0.56191489099E+03  0.56191489099E+03  0.00000000000E+00 0. -1.
          6    1    1    2  501    0 -0.23362874530E+03  0.34910847955E+02  0.68898099554E+03  0.74838490776E+03  0.17200000000E+03 0.  1.
         -6    1    1    2    0  503  0.23362874530E+03 -0.34910847955E+02 -0.49210438418E+03  0.57232148559E+03  0.17200000000E+03 0. -1.
</event>
<event>
 4    1  0.6129841E-001  0.2297708E+03  0.7818608E-02  0.1126801E+00
         21   -1    0    0  503  502  0.00000000000E+00  0.00000000000E+00  0.55925283730E+02  0.55925283730E+02  0.00000000000E+00 0. -1.
         21   -1    0    0  501  503 -0.00000000000E+00 -0.00000000000E+00 -0.16774118989E+04  0.16774118989E+04  0.00000000000E+00 0. -1.
          6    1    1    2  501    0 -0.13689427544E+03  0.66862357032E+02 -0.13838046168E+04  0.14027508100E+04  0.17200000000E+03 0.  1.
         -6    1    1    2    0  502  0.13689427544E+03 -0.66862357032E+02 -0.23768199840E+03  0.33058637267E+03  0.17200000000E+03 0.  1.
</event>
<event>
 4    1  0.6129841E-001  0.1781380E+03  0.7818608E-02  0.1169617E+00
         21   -1    0    0  501  502  0.00000000000E+00  0.00000000000E+00  0.52278505176E+03  0.52278505176E+03  0.00000000000E+00 0.  1.
         21   -1    0    0  502  503 -0.00000000000E+00 -0.00000000000E+00 -0.67136593034E+02  0.67136593034E+02  0.00000000000E+00 0.  1.
          6    1    1    2  501    0 -0.45513803207E+02  0.88117591078E+01  0.31915270538E+03  0.36550185052E+03  0.17200000000E+03 0.  1.
         -6    1    1    2    0  503  0.45513803207E+02 -0.88117591078E+01  0.13649575334E+03  0.22441979427E+03  0.17200000000E+03 0.  1.
</event>
<event>
 4    1  0.6129841E-001  0.2430514E+03  0.7818608E-02  0.1117777E+00
         21   -1    0    0  501  502  0.00000000000E+00  0.00000000000E+00  0.31371647638E+03  0.31371647638E+03  0.00000000000E+00 0. -1.
         21   -1    0    0  502  503 -0.00000000000E+00 -0.00000000000E+00 -0.53041827342E+03  0.53041827342E+03  0.00000000000E+00 0. -1.
          6    1    1    2  501    0 -0.13731754817E+03 -0.10312065750E+03  0.23061680424E+03  0.33504938358E+03  0.17200000000E+03 0. -1.
         -6    1    1    2    0  503  0.13731754817E+03  0.10312065750E+03 -0.44731860129E+03  0.50908536622E+03  0.17200000000E+03 0. -1.
</event>
<event>
 4    1  0.6129841E-001  0.2459497E+03  0.7818608E-02  0.1115892E+00
         21   -1    0    0  503  502  0.00000000000E+00  0.00000000000E+00  0.31976236189E+03  0.31976236189E+03  0.00000000000E+00 0.  1.
         21   -1    0    0  501  503 -0.00000000000E+00 -0.00000000000E+00 -0.18988473804E+03  0.18988473804E+03  0.00000000000E+00 0. -1.
          6    1    1    2  501    0  0.17508994828E+03  0.15835804228E+02  0.49367148537E+02  0.25085529302E+03  0.17200000000E+03 0.  1.
         -6    1    1    2    0  502 -0.17508994828E+03 -0.15835804228E+02  0.80510475311E+02  0.25879180690E+03  0.17200000000E+03 0. -1.
</event>
<event>
 4    1  0.6129841E-001  0.2066513E+03  0.7818608E-02  0.1144246E+00
         21   -1    0    0  503  502  0.00000000000E+00  0.00000000000E+00  0.35671139342E+03  0.35671139342E+03  0.00000000000E+00 0. -1.
         21   -1    0    0  501  503 -0.00000000000E+00 -0.00000000000E+00 -0.15606490507E+03  0.15606490507E+03  0.00000000000E+00 0. -1.
          6    1    1    2  501    0  0.10760147891E+03 -0.39277064690E+02 -0.23407943656E+02  0.20797282972E+03  0.17200000000E+03 0. -1.
         -6    1    1    2    0  502 -0.10760147891E+03  0.39277064690E+02  0.22405443200E+03  0.30480346877E+03  0.17200000000E+03 0. -1.
</event>
<event>
 4    1  0.6129841E-001  0.1834866E+03  0.7818608E-02  0.1164471E+00
         21   -1    0    0  501  502  0.00000000000E+00  0.00000000000E+00  0.80354984412E+03  0.80354984412E+03  0.00000000000E+00 0.  1.
         21   -1    0    0  502  503 -0.00000000000E+00 -0.00000000000E+00 -0.50105089699E+02  0.50105089699E+02  0.00000000000E+00 0.  1.
          6    1    1    2  501    0 -0.21472980728E+02  0.60185198652E+02  0.54946476785E+03  0.57929170385E+03  0.17200000000E+03 0. -1.
         -6    1    1    2    0  503  0.21472980728E+02 -0.60185198652E+02  0.20397998656E+03  0.27436322996E+03  0.17200000000E+03 0. -1.
</event>
<event>
 4    1  0.6129841E-001  0.2612506E+03  0.7818608E-02  0.1106394E+00
         21   -1    0    0  501  502  0.00000000000E+00  0.00000000000E+00  0.12543959126E+03  0.12543959126E+03  0.00000000000E+00 0. -1.
         21   -1    0    0  502  503 -0.00000000000E+00 -0.00000000000E+00 -0.65342109012E+03  0.65342109012E+03  0.00000000000E+00 0. -1.
          6    1    1    2  501    0  0.17824863985E+03  0.83037968633E+02 -0.10470313183E+03  0.28145093295E+03  0.17200000000E+03 0.  1.
         -6    1    1    2    0  503 -0.17824863985E+03 -0.83037968633E+02 -0.42327836702E+03  0.49740974843E+03  0.17200000000E+03 0.  1.
</event>
<event>
 4    1  0.6129841E-001  0.1741633E+03  0.7818608E-02  0.1173574E+00
         21   -1    0    0  503  502  0.00000000000E+00  0.00000000000E+00  0.46777596965E+03  0.46777596965E+03  0.00000000000E+00 0. -1.
         21   -1    0    0  501  503 -0.00000000000E+00 -0.00000000000E+00 -0.70405980112E+02  0.70405980112E+02  0.00000000000E+00 0. -1.
          6    1    1    2  501    0 -0.21559053368E+02  0.16853643598E+02  0.12305781052E+03  0.21325117306E+03  0.17200000000E+03 0.  1.
         -6    1    1    2    0  502  0.21559053368E+02 -0.16853643598E+02  0.27431217902E+03  0.32493077669E+03  0.17200000000E+03 0.  1.
</event>
<event>
 4    1  0.6129841E-001  0.2013732E+03  0.7818608E-02  0.1148586E+00
         21   -1    0    0  501  502  0.00000000000E+00  0.00000000000E+00  0.22993056338E+04  0.22993056338E+04  0.00000000000E+00 0. -1.
         21   -1    0    0  502  503 -0.00000000000E+00 -0.00000000000E+00 -0.22395691057E+02  0.22395691057E+02  0.00000000000E+00 0. -1.
          6    1    1    2  501    0 -0.81807141276E+02 -0.65381501854E+02  0.16736002471E+04  0.16856716573E+04  0.17200000000E+03 0. -1.
         -6    1    1    2    0  503  0.81807141276E+02  0.65381501854E+02  0.60330969563E+03  0.63602966754E+03  0.17200000000E+03 0. -1.
</event>
<event>
 4    1  0.6129841E-001  0.2011980E+03  0.7818608E-02  0.1148732E+00
         21   -1    0    0  501  502  0.00000000000E+00  0.00000000000E+00  0.32502139404E+02  0.32502139404E+02  0.00000000000E+00 0.  1.
         21   -1    0    0  502  503 -0.00000000000E+00 -0.00000000000E+00 -0.21738951474E+04  0.21738951474E+04  0.00000000000E+00 0.  1.
          6    1    1    2  501    0 -0.10437658011E+03 -0.14748119590E+01 -0.34974444260E+03  0.40348707622E+03  0.17200000000E+03 0.  1.
         -6    1    1    2    0  503  0.10437658011E+03  0.14748119590E+01 -0.17916485654E+04  0.18029102106E+04  0.17200000000E+03 0.  1.
</event>
<event>
 4    1  0.6129841E-001  0.1728203E+03  0.7818608E-02  0.1174938E+00
         21   -1    0    0  501  502  0.00000000000E+00  0.00000000000E+00  0.14442336507E+03  0.14442336507E+03  0.00000000000E+00 0. -1.
         21   -1    0    0  502  503 -0.00000000000E+00 -0.00000000000E+00 -0.21070562094E+03  0.21070562094E+03  0.00000000000E+00 0. -1.
          6    1    1    2  501    0 -0.91327426572E+01  0.14123131081E+02 -0.57313413105E+02  0.18207607515E+03  0.17200000000E+03 0.  1.
         -6    1    1    2    0  503  0.91327426572E+01 -0.14123131081E+02 -0.89688427650E+01  0.17305291087E+03  0.17200000000E+03 0.  1.
</event>
<event>
 4    1  0.6129841E-001  0.2734381E+03  0.7818608E-02  0.1099328E+00
         21   -1    0    0  503  502  0.00000000000E+00  0.00000000000E+00  0.16097373360E+04  0.16097373360E+04  0.00000000000E+00 0. -1.
         21   -1    0    0  501  503 -0.00000000000E+00 -0.00000000000E+00 -0.53188771884E+02  0.53188771884E+02  0.00000000000E+00 0. -1.
          6    1    1    2  501    0  0.18693709650E+03  0.10118766080E+03  0.48226796586E+03  0.55439229038E+03  0.17200000000E+03 0.  1.
         -6    1    1    2    0  502 -0.18693709650E+03 -0.10118766080E+03  0.10742805983E+04  0.11085338175E+04  0.17200000000E+03 0.  1.
</event>
<event>
 4    1  0.6129841E-001  0.1740509E+03  0.7818608E-02  0.1173688E+00
         21   -1    0    0  503  502  0.00000000000E+00  0.00000000000E+00  0.89324166796E+03  0.89324166796E+03  0.00000000000E+00 0. -1.
         21   -1    0    0  501  503 -0.00000000000E+00 -0.00000000000E+00 -0.38132201322E+02  0.38132201322E+02  0.00000000000E+00 0. -1.
          6    1    1    2  501    0 -0.26075200399E+02 -0.54576041323E+01  0.27267511506E+03  0.32348944325E+03  0.17200000000E+03 0. -1.
         -6    1    1    2    0  502  0.26075200399E+02  0.54576041323E+01  0.58243435158E+03  0.60788442604E+03  0.17200000000E+03 0. -1.
</event>
<event>
 4    1  0.6129841E-001  0.1924938E+03  0.7818608E-02  0.1156231E+00
         21   -1    0    0  503  502  0.00000000000E+00  0.00000000000E+00  0.14625136866E+04  0.14625136866E+04  0.00000000000E+00 0. -1.
         21   -1    0    0  501  503 -0.00000000000E+00 -0.00000000000E+00 -0.25414465939E+02  0.25414465939E+02  0.00000000000E+00 0. -1.
          6    1    1    2  501    0  0.84062869368E+02  0.20082565780E+02  0.67714454006E+03  0.70397343955E+03  0.17200000000E+03 0. -1.
         -6    1    1    2    0  502 -0.84062869368E+02 -0.20082565780E+02  0.75995468060E+03  0.78395471299E+03  0.17200000000E+03 0. -1.
</event>
<event>
 4    1  0.6129841E-001  0.3545562E+03  0.7818608E-02  0.1060760E+00
         21   -1    0    0  501  502  0.00000000000E+00  0.00000000000E+00  0.31042955967E+03  0.31042955967E+03  0.00000000000E+00 0.  1.
         21   -1    0    0  502  503 -0.00000000000E+00 -0.00000000000E+00 -0.99262693753E+03  0.99262693753E+03  0.00000000000E+00 0. -1.
          6    1    1    2  501    0 -0.44621355181E+02  0.30681436098E+03  0.16021268873E+03  0.38907354455E+03  0.17200000000E+03 0.  1.
         -6    1    1    2    0  503  0.44621355181E+02 -0.30681436098E+03 -0.84241006658E+03  0.91398295264E+03  0.17200000000E+03 0. -1.
</event>
<event>
 4    1  0.6129841E-001  0.1871769E+03  0.7818608E-02  0.1161033E+00
         21   -1    0    0  503  502  0.00000000000E+00  0.00000000000E+00  0.51039428871E+02  0.51039428871E+02  0.00000000000E+00 0. -1.
         21   -1    0    0  501  503 -0.00000000000E+00 -0.00000000000E+00 -0.78003340037E+03  0.78003340037E+03  0.00000000000E+00 0. -1.
          6    1    1    2  501    0 -0.73761471111E+02 -0.32287972638E+01 -0.50843977408E+03  0.54179902512E+03  0.17200000000E+03 0.  1.
         -6    1    1    2    0  502  0.73761471111E+02  0.32287972638E+01 -0.22055419741E+03  0.28927380412E+03  0.17200000000E+03 0.  1.
</event>
<event>
 4    1  0.6129841E-001  0.1922332E+03  0.7818608E-02  0.1156462E+00
         21   -1    0    0  501  502  0.00000000000E+00  0.00000000000E+00  0.84589229364E+02  0.84589229364E+02  0.00000000000E+00 0.  1.
         21   -1    0    0  502  503 -0.00000000000E+00 -0.00000000000E+00 -0.47212749893E+03  0.47212749893E+03  0.00000000000E+00 0. -1.
          6    1    1    2  501    0 -0.80888279351E+01  0.85464534686E+02 -0.26984808294E+03  0.33131797973E+03  0.17200000000E+03 0.  1.
         -6    1    1    2    0  503  0.80888279351E+01 -0.85464534686E+02 -0.11769018663E+03  0.22539874857E+03  0.17200000000E+03 0. -1.
</event>
<event>
 4    1  0.6129841E-001  0.1743802E+03  0.7818608E-02  0.1173355E+00
         21   -1    0    0  501  502  0.00000000000E+00  0.00000000000E+00  0.46408329305E+02  0.46408329305E+02  0.00000000000E+00 0. -1.
         21   -1    0    0  502  503 -0.00000000000E+00 -0.00000000000E+00 -0.78282528298E+03  0.78282528298E+03  0.00000000000E+00 0. -1.
          6    1    1    2  501    0  0.13585996159E+02  0.25296036806E+02 -0.20082239172E+03  0.26596635461E+03  0.17200000000E+03 0.  1.
         -6    1    1    2    0  503 -0.13585996159E+02 -0.25296036806E+02 -0.53559456195E+03  0.56326725767E+03  0.17200000000E+03 0.  1.
</event>
<event>
 4    1  0.6129841E-001  0.1919558E+03  0.7818608E-02  0.1156709E+00
         21   -1    0    0  501  502  0.00000000000E+00  0.00000000000E+00  0.72631868028E+02  0.72631868028E+02  0.00000000000E+00 0. -1.
         21   -1    0    0  502  503 -0.00000000000E+00 -0.00000000000E+00 -0.71275745538E+03  0.71275745538E+03  0.00000000000E+00 0. -1.
          6    1    1    2  501    0 -0.24832093238E+00  0.85222996895E+02 -0.10923282498E+03  0.22085930118E+03  0.17200000000E+03 0. -1.
         -6    1    1    2    0  503  0.24832093238E+00 -0.85222996895E+02 -0.53089276237E+03  0.56453002223E+03  0.17200000000E+03 0. -1.
</event>
<event>
 4    1  0.6129841E-001  0.2091040E+03  0.7818608E-02  0.1142277E+00
         21   -1    0    0  501  502  0.00000000000E+00  0.00000000000E+00  0.10370714705E+04  0.10370714705E+04  0.00000000000E+00 0.  1.
         21   -1    0    0  502  503 -0.00000000000E+00 -0.00000000000E+00 -0.44407650586E+02  0.44407650586E+02  0.00000000000E+00 0.  1.
          6    1    1    2  501    0  0.45170198683E+02  0.11000066428E+03  0.61794443032E+03  0.65236478442E+03  0.17200000000E+03 0.  1.
         -6    1    1    2    0  503 -0.45170198683E+02 -0.11000066428E+03  0.37471938956E+03  0.42911433663E+03  0.17200000000E+03 0.  1.
</event>
<event>
 4    1  0.6129841E-001  0.2016102E+03  0.7818608E-02  0.1148388E+00
         21   -1    0    0  503  502  0.00000000000E+00  0.00000000000E+00  0.74107472755E+02  0.74107472755E+02  0.00000000000E+00 0.  1.
         21   -1    0    0  501  503 -0.00000000000E+00 -0.00000000000E+00 -0.61693414834E+03  0.61693414834E+03  0.00000000000E+00 0. -1.
          6    1    1    2  501    0  0.89832473300E+02  0.54706497298E+02 -0.38650551633E+03  0.43592796224E+03  0.17200000000E+03 0. -1.
         -6    1    1    2    0  502 -0.89832473300E+02 -0.54706497298E+02 -0.15632115926E+03  0.25511365886E+03  0.17200000000E+03 0.  1.
</event>
<event>
 4    1  0.6129841E-001  0.2484381E+03  0.7818608E-02  0.1114296E+00
         21   -1    0    0  501  502  0.00000000000E+00  0.00000000000E+00  0.16202742447E+03  0.16202742447E+03  0.00000000000E+00 0.  1.
         21   -1    0    0  502  503 -0.00000000000E+00 -0.00000000000E+00 -0.66515189817E+03  0.66515189817E+03  0.00000000000E+00 0. -1.
          6    1    1    2  501    0 -0.17664478249E+03 -0.30563014252E+02 -0.52191840267E+03  0.57803139713E+03  0.17200000000E+03 0. -1.
         -6    1    1    2    0  503  0.17664478249E+03  0.30563014252E+02  0.18793928970E+02  0.24914792551E+03  0.17200000000E+03 0.  1.
</event>
<event>
 4    1  0.6129841E-001  0.2422800E+03  0.7818608E-02  0.1118283E+00
         21   -1    0    0  503  502  0.00000000000E+00  0.00000000000E+00  0.69237191880E+02  0.69237191880E+02  0.00000000000E+00 0. -1.
         21   -1    0    0  501  503 -0.00000000000E+00 -0.00000000000E+00 -0.91022795522E+03  0.91022795522E+03  0.00000000000E+00 0.  1.
          6    1    1    2  501    0  0.54288338589E+02 -0.16176648524E+03 -0.54874526354E+03  0.59985080121E+03  0.17200000000E+03 0.  1.
         -6    1    1    2    0  502 -0.54288338589E+02  0.16176648524E+03 -0.29224549980E+03  0.37961434589E+03  0.17200000000E+03 0.  1.
</event>
<event>
 4    1  0.6129841E-001  0.1785677E+03  0.7818608E-02  0.1169196E+00
         21   -1    0    0  501  502  0.00000000000E+00  0.00000000000E+00  0.48125142032E+02  0.48125142032E+02  0.00000000000E+00 0. -1.
         21   -1    0    0  502  503 -0.00000000000E+00 -0.00000000000E+00 -0.75901115512E+03  0.75901115512E+03  0.00000000000E+00 0. -1.
          6    1    1    2  501    0  0.41406227210E+02 -0.24247450257E+02 -0.21159047971E+03  0.27686990736E+03  0.17200000000E+03 0. -1.
         -6    1    1    2    0  503 -0.41406227210E+02  0.24247450257E+02 -0.49929553338E+03  0.53026638980E+03  0.17200000000E+03 0. -1.
</event>
<event>
 4    1  0.6129841E-001  0.2497510E+03  0.7818608E-02  0.1113462E+00
         21   -1    0    0  503  502  0.00000000000E+00  0.00000000000E+00  0.18177559918E+03  0.18177559918E+03  0.00000000000E+00 0.  1.
         21   -1    0    0  501  503 -0.00000000000E+00 -0.00000000000E+00 -0.73793381698E+03  0.73793381698E+03  0.00000000000E+00 0. -1.
          6    1    1    2  501    0 -0.16702564076E+03  0.69957273090E+02 -0.61443090910E+03  0.66325027462E+03  0.17200000000E+03 0. -1.
         -6    1    1    2    0  502  0.16702564076E+03 -0.69957273090E+02  0.58272691303E+02  0.25645914154E+03  0.17200000000E+03 0.  1.
</event>
<event>
 4    1  0.6129841E-001  0.3072661E+03  0.7818608E-02  0.1081664E+00
         21   -1    0    0  501  502  0.00000000000E+00  0.00000000000E+00  0.14129126274E+03  0.14129126274E+03  0.00000000000E+00 0.  1.
         21   -1    0    0  502  503 -0.00000000000E+00 -0.00000000000E+00 -0.10335757311E+04  0.10335757311E+04  0.00000000000E+00 0.  1.
          6    1    1    2  501    0 -0.25056861170E+03 -0.45209031003E+02 -0.96880982922E+02  0.32217760708E+03  0.17200000000E+03 0.  1.
         -6    1    1    2    0  503  0.25056861170E+03  0.45209031003E+02 -0.79540348541E+03  0.85268938674E+03  0.17200000000E+03 0.  1.
</event>
<event>
 4    1  0.6129841E-001  0.1840902E+03  0.7818608E-02  0.1163902E+00
         21   -1    0    0  501  502  0.00000000000E+00  0.00000000000E+00  0.18380015358E+04  0.18380015358E+04  0.00000000000E+00 0. -1.
         21   -1    0    0  502  503 -0.00000000000E+00 -0.00000000000E+00 -0.18617086826E+02  0.18617086826E+02  0.00000000000E+00 0.  1.
          6    1    1    2  501    0  0.58577878421E+02  0.29560643234E+02  0.10007222713E+04  0.10175137659E+04  0.17200000000E+03 0. -1.
         -6    1    1    2    0  503 -0.58577878421E+02 -0.29560643234E+02  0.81866217770E+03  0.83910485678E+03  0.17200000000E+03 0. -1.
</event>
<event>
 4    1  0.6129841E-001  0.2285288E+03  0.7818608E-02  0.1127680E+00
         21   -1    0    0  503  502  0.00000000000E+00  0.00000000000E+00  0.31231218098E+03  0.31231218098E+03  0.00000000000E+00 0.  1.
         21   -1    0    0  501  503 -0.00000000000E+00 -0.00000000000E+00 -0.22816933302E+03  0.22816933302E+03  0.00000000000E+00 0.  1.
          6    1    1    2  501    0 -0.13629011687E+03 -0.63768375929E+02 -0.97597670068E+02  0.24849689521E+03  0.17200000000E+03 0.  1.
         -6    1    1    2    0  502  0.13629011687E+03  0.63768375929E+02  0.18174051803E+03  0.29198461880E+03  0.17200000000E+03 0.  1.
</event>
<event>
 4    1  0.6129841E-001  0.2563799E+03  0.7818608E-02  0.1109338E+00
         21   -1    0    0  501  502  0.00000000000E+00  0.00000000000E+00  0.45598683218E+02  0.45598683218E+02  0.00000000000E+00 0. -1.
         21   -1    0    0  502  503 -0.00000000000E+00 -0.00000000000E+00 -0.23372320670E+04  0.23372320670E+04  0.00000000000E+00 0.  1.
          6    1    1    2  501    0 -0.35277682230E+01  0.19008997070E+03 -0.40825118600E+03  0.48207849255E+03  0.17200000000E+03 0. -1.
         -6    1    1    2    0  503  0.35277682230E+01 -0.19008997070E+03 -0.18833821978E+04  0.19007522577E+04  0.17200000000E+03 0. -1.
</event>
<event>
 4    1  0.6129841E-001  0.1926741E+03  0.7818608E-02  0.1156071E+00
         21   -1    0    0  501  502  0.00000000000E+00  0.00000000000E+00  0.80427423217E+03  0.80427423217E+03  0.00000000000E+00 0. -1.
         21   -1    0    0  502  503 -0.00000000000E+00 -0.00000000000E+00 -0.64281110458E+02  0.64281110458E+02  0.00000000000E+00 0. -1.
          6    1    1    2  501    0  0.83192245997E+02 -0.24866497047E+02  0.60059061567E+03  0.63073955013E+03  0.17200000000E+03 0. -1.
         -6    1    1    2    0  503 -0.83192245997E+02  0.24866497047E+02  0.13940250604E+03  0.23781579249E+03  0.17200000000E+03 0. -1.
</event>
<event>
 4    1  0.6129841E-001  0.1980814E+03  0.7818608E-02  0.1151368E+00
         21   -1    0    0  501  502  0.00000000000E+00  0.00000000000E+00  0.12273582358E+03  0.12273582358E+03  0.00000000000E+00 0.  1.
         21   -1    0    0  502  503 -0.00000000000E+00 -0.00000000000E+00 -0.45078880593E+03  0.45078880593E+03  0.00000000000E+00 0.  1.
          6    1    1    2  501    0  0.97257558353E+02 -0.13899691058E+02 -0.93761699877E+01  0.19830316849E+03  0.17200000000E+03 0.  1.
         -6    1    1    2    0  503 -0.97257558353E+02  0.13899691058E+02 -0.31867681236E+03  0.37522146101E+03  0.17200000000E+03 0.  1.
</event>
<event>
 4    1  0.6129841E-001  0.1905316E+03  0.7818608E-02  0.1157983E+00
         21   -1    0    0  501  502  0.00000000000E+00  0.00000000000E+00  0.42246187836E+02  0.42246187836E+02  0.00000000000E+00 0. -1.
         21   -1    0    0  502  503 -0.00000000000E+00 -0.00000000000E+00 -0.12886720195E+04  0.12886720195E+04  0.00000000000E+00 0. -1.
          6    1    1    2  501    0  0.27808841706E+02  0.77103575857E+02 -0.23909433228E+03  0.30572600939E+03  0.17200000000E+03 0. -1.
         -6    1    1    2    0  503 -0.27808841706E+02 -0.77103575857E+02 -0.10073314993E+04  0.10251921979E+04  0.17200000000E+03 0. -1.
</event>
<event>
 4    1  0.6129841E-001  0.1994695E+03  0.7818608E-02  0.1150187E+00
         21   -1    0    0  501  502  0.00000000000E+00  0.00000000000E+00  0.96110850241E+02  0.96110850241E+02  0.00000000000E+00 0.  1.
         21   -1    0    0  502  503 -0.00000000000E+00 -0.00000000000E+00 -0.51094774353E+03  0.51094774353E+03  0.00000000000E+00 0.  1.
          6    1    1    2  501    0  0.68350578678E+02 -0.74379345596E+02 -0.75190501752E+02  0.21317058946E+03  0.17200000000E+03 0.  1.
         -6    1    1    2    0  503 -0.68350578678E+02  0.74379345596E+02 -0.33964639154E+03  0.39388800431E+03  0.17200000000E+03 0.  1.
</event>
<event>
 4    1  0.6129841E-001  0.1960485E+03  0.7818608E-02  0.1153116E+00
         21   -1    0    0  503  502  0.00000000000E+00  0.00000000000E+00  0.33014981461E+02  0.33014981461E+02  0.00000000000E+00 0.  1.
         21   -1    0    0  501  503 -0.00000000000E+00 -0.00000000000E+00 -0.22060457997E+04  0.22060457997E+04  0.00000000000E+00 0.  1.
          6    1    1    2  501    0 -0.93641843185E+02  0.90680393083E+01 -0.18558881051E+04  0.18662142650E+04  0.17200000000E+03 0.  1.
         -6    1    1    2    0  502  0.93641843185E+02 -0.90680393083E+01 -0.31714271309E+03  0.37284651614E+03  0.17200000000E+03 0.  1.
</event>
<event>
 4    1  0.6129841E-001  0.2868934E+03  0.7818608E-02  0.1091982E+00
         21   -1    0    0  503  502  0.00000000000E+00  0.00000000000E+00  0.16105736985E+03  0.16105736985E+03  0.00000000000E+00 0. -1.
         21   -1    0    0  501  503 -0.00000000000E+00 -0.00000000000E+00 -0.51767934861E+03  0.51767934861E+03  0.00000000000E+00 0.  1.
          6    1    1    2  501    0 -0.12577195082E+03 -0.19210731029E+03 -0.13989681032E+03  0.31918477379E+03  0.17200000000E+03 0.  1.
         -6    1    1    2    0  502  0.12577195082E+03  0.19210731029E+03 -0.21672516844E+03  0.35955194467E+03  0.17200000000E+03 0. -1.
</event>
<event>
 4    1  0.6129841E-001  0.2076822E+03  0.7818608E-02  0.1143415E+00
         21   -1    0    0  501  502  0.00000000000E+00  0.00000000000E+00  0.70168449519E+02  0.70168449519E+02  0.00000000000E+00 0.  1.
         21   -1    0    0  502  503 -0.00000000000E+00 -0.00000000000E+00 -0.82108643976E+03  0.82108643976E+03  0.00000000000E+00 0.  1.
          6    1    1    2  501    0 -0.51955739631E+02  0.10415602900E+03 -0.15203588376E+03  0.25738451237E+03  0.17200000000E+03 0.  1.
         -6    1    1    2    0  503  0.51955739631E+02 -0.10415602900E+03 -0.59888210648E+03  0.63387037690E+03  0.17200000000E+03 0.  1.
</event>
<event>
 4    1  0.6129841E-001  0.2467462E+03  0.7818608E-02  0.1115379E+00
         21   -1    0    0  503  502  0.00000000000E+00  0.00000000000E+00  0.21431948182E+03  0.21431948182E+03  0.00000000000E+00 0.  1.
         21   -1    0    0  501  503 -0.00000000000E+00 -0.00000000000E+00 -0.30667546196E+03  0.30667546196E+03  0.00000000000E+00 0.  1.
          6    1    1    2  501    0  0.17581115209E+03  0.19751487877E+02 -0.11688840671E+03  0.27303219975E+03  0.17200000000E+03 0. -1.
         -6    1    1    2    0  502 -0.17581115209E+03 -0.19751487877E+02  0.24532426568E+02  0.24796274403E+03  0.17200000000E+03 0. -1.
</event>
<event>
 4    1  0.6129841E-001  0.1724998E+03  0.7818608E-02  0.1175266E+00
         21   -1    0    0  501  502  0.00000000000E+00  0.00000000000E+00  0.51529591883E+02  0.51529591883E+02  0.00000000000E+00 0. -1.
         21   -1    0    0  502  503 -0.00000000000E+00 -0.00000000000E+00 -0.59243017137E+03  0.59243017137E+03  0.00000000000E+00 0. -1.
          6    1    1    2  501    0 -0.69163785617E+01  0.11151154042E+02 -0.21926444389E+03  0.27898580767E+03  0.17200000000E+03 0. -1.
         -6    1    1    2    0  503  0.69163785617E+01 -0.11151154042E+02 -0.32163613560E+03  0.36497395558E+03  0.17200000000E+03 0. -1.
</event>
<event>
 4    1  0.6129841E-001  0.1798504E+03  0.7818608E-02  0.1167948E+00
         21   -1    0    0  503  502  0.00000000000E+00  0.00000000000E+00  0.16257239064E+04  0.16257239064E+04  0.00000000000E+00 0.  1.
         21   -1    0    0  501  503 -0.00000000000E+00 -0.00000000000E+00 -0.24055662607E+02  0.24055662607E+02  0.00000000000E+00 0.  1.
          6    1    1    2  501    0 -0.49941755100E+02  0.16369940306E+02  0.45783563852E+03  0.49189391717E+03  0.17200000000E+03 0.  1.
         -6    1    1    2    0  502  0.49941755100E+02 -0.16369940306E+02  0.11438326053E+04  0.11578856519E+04  0.17200000000E+03 0.  1.
</event>
<event>
 4    1  0.6129841E-001  0.1995776E+03  0.7818608E-02  0.1150096E+00
         21   -1    0    0  503  502  0.00000000000E+00  0.00000000000E+00  0.28458349478E+03  0.28458349478E+03  0.00000000000E+00 0. -1.
         21   -1    0    0  501  503 -0.00000000000E+00 -0.00000000000E+00 -0.31218878151E+03  0.31218878151E+03  0.00000000000E+00 0. -1.
          6    1    1    2  501    0 -0.70989324829E+02  0.72164697417E+02 -0.23542765817E+03  0.30863799187E+03  0.17200000000E+03 0. -1.
         -6    1    1    2    0  502  0.70989324829E+02 -0.72164697417E+02  0.20782237144E+03  0.28813428443E+03  0.17200000000E+03 0. -1.
</event>
<event>
 4    1  0.6129841E-001  0.1799318E+03  0.7818608E-02  0.1167869E+00
         21   -1    0    0  503  502  0.00000000000E+00  0.00000000000E+00  0.86364518850E+02  0.86364518850E+02  0.00000000000E+00 0.  1.
         21   -1    0    0  501  503 -0.00000000000E+00 -0.00000000000E+00 -0.42054759270E+03  0.42054759270E+03  0.00000000000E+00 0.  1.
          6    1    1    2  501    0  0.48355876337E+02  0.21287328717E+02 -0.25062262408E+03  0.30852413332E+03  0.17200000000E+03 0.  1.
         -6    1    1    2    0  502 -0.48355876337E+02 -0.21287328717E+02 -0.83560449772E+02  0.19838797823E+03  0.17200000000E+03 0.  1.
</event>
<event>
 4    1  0.6129841E-001  0.1728366E+03  0.7818608E-02  0.1174922E+00
         21   -1    0    0  503  502  0.00000000000E+00  0.00000000000E+00  0.68337199212E+03  0.68337199212E+03  0.00000000000E+00 0. -1.
         21   -1    0    0  501  503 -0.00000000000E+00 -0.00000000000E+00 -0.57917047825E+03  0.57917047825E+03  0.00000000000E+00 0. -1.
          6    1    1    2  501    0  0.15499713451E+01  0.16913664586E+02 -0.55488031340E+03  0.58117522028E+03  0.17200000000E+03 0. -1.
         -6    1    1    2    0  502 -0.15499713451E+01 -0.16913664586E+02  0.65908182727E+03  0.68136725009E+03  0.17200000000E+03 0. -1.
</event>
<event>
 4    1  0.6129841E-001  0.1870932E+03  0.7818608E-02  0.1161110E+00
         21   -1    0    0  501  502  0.00000000000E+00  0.00000000000E+00  0.16922533610E+02  0.16922533610E+02  0.00000000000E+00 0. -1.
         21   -1    0    0  502  503 -0.00000000000E+00 -0.00000000000E+00 -0.20910397235E+04  0.20910397235E+04  0.00000000000E+00 0. -1.
          6    1    1    2  501    0 -0.69035893247E+02 -0.25571486772E+02 -0.92757309946E+03  0.94625351272E+03  0.17200000000E+03 0. -1.
         -6    1    1    2    0  503  0.69035893247E+02  0.25571486772E+02 -0.11465440904E+04  0.11617087444E+04  0.17200000000E+03 0. -1.
</event>
<event>
 4    1  0.6129841E-001  0.2549246E+03  0.7818608E-02  0.1110232E+00
         21   -1    0    0  501  502  0.00000000000E+00  0.00000000000E+00  0.16995365411E+03  0.16995365411E+03  0.00000000000E+00 0.  1.
         21   -1    0    0  502  503 -0.00000000000E+00 -0.00000000000E+00 -0.73044866613E+03  0.73044866613E+03  0.00000000000E+00 0.  1.
          6    1    1    2  501    0  0.17702633961E+03 -0.63751385946E+02  0.30526994556E+02  0.25674590848E+03  0.17200000000E+03 0.  1.
         -6    1    1    2    0  503 -0.17702633961E+03  0.63751385946E+02 -0.59102200659E+03  0.64365641176E+03  0.17200000000E+03 0.  1.
</event>
<event>
 4    1  0.6129841E-001  0.1855502E+03  0.7818608E-02  0.1162537E+00
         21   -1    0    0  501  502  0.00000000000E+00  0.00000000000E+00  0.52391760600E+02  0.52391760600E+02  0.00000000000E+00 0. -1.
         21   -1    0    0  502  503 -0.00000000000E+00 -0.00000000000E+00 -0.99875896318E+03  0.99875896318E+03  0.00000000000E+00 0. -1.
          6    1    1    2  501    0 -0.55069317649E+02 -0.42570710675E+02 -0.16580506931E+03  0.24883773058E+03  0.17200000000E+03 0. -1.
         -6    1    1    2    0  503  0.55069317649E+02  0.42570710675E+02 -0.78056213328E+03  0.80231299320E+03  0.17200000000E+03 0. -1.
</event>
<event>
 4    1  0.6129841E-001  0.1998553E+03  0.7818608E-02  0.1149861E+00
         21   -1    0    0  501  502  0.00000000000E+00  0.00000000000E+00  0.82420089067E+02  0.82420089067E+02  0.00000000000E+00 0.  1.
         21   -1    0    0  502  503 -0.00000000000E+00 -0.00000000000E+00 -0.84954801338E+03  0.84954801338E+03  0.00000000000E+00 0.  1.
          6    1    1    2  501    0  0.20353395046E+02  0.99719092064E+02 -0.78154416401E+02  0.21459326834E+03  0.17200000000E+03 0. -1.
         -6    1    1    2    0  503 -0.20353395046E+02 -0.99719092064E+02 -0.68897350791E+03  0.71737483411E+03  0.17200000000E+03 0. -1.
</event>
<event>
 4    1  0.6129841E-001  0.2535506E+03  0.7818608E-02  0.1111081E+00
         21   -1    0    0  501  502  0.00000000000E+00  0.00000000000E+00  0.36123901296E+03  0.36123901296E+03  0.00000000000E+00 0.  1.
         21   -1    0    0  502  503 -0.00000000000E+00 -0.00000000000E+00 -0.17808043597E+03  0.17808043597E+03  0.00000000000E+00 0.  1.
          6    1    1    2  501    0  0.74919287641E+02  0.17056078746E+03  0.98446458650E+02  0.27199188793E+03  0.17200000000E+03 0.  1.
         -6    1    1    2    0  503 -0.74919287641E+02 -0.17056078746E+03  0.84712118336E+02  0.26732756100E+03  0.17200000000E+03 0.  1.
</event>
<event>
 4    1  0.6129841E-001  0.1781796E+03  0.7818608E-02  0.1169577E+00
         21   -1    0    0  501  502  0.00000000000E+00  0.00000000000E+00  0.12915557964E+04  0.12915557964E+04  0.00000000000E+00 0.  1.
         21   -1    0    0  502  503 -0.00000000000E+00 -0.00000000000E+00 -0.25777201789E+02  0.25777201789E+02  0.00000000000E+00 0. -1.
          6    1    1    2  501    0  0.42579317549E+02 -0.18734393685E+02  0.77476753656E+03  0.79499227135E+03  0.17200000000E+03 0.  1.
         -6    1    1    2    0  503 -0.42579317549E+02  0.18734393685E+02  0.49101105800E+03  0.52234072680E+03  0.17200000000E+03 0. -1.
</event>
<event>
 4    1  0.6129841E-001  0.1754211E+03  0.7818608E-02  0.1172310E+00
         21   -1    0    0  503  502  0.00000000000E+00  0.00000000000E+00  0.10447998723E+04  0.10447998723E+04  0.00000000000E+00 0.  1.
         21   -1    0    0  501  503 -0.00000000000E+00 -0.00000000000E+00 -0.32145690221E+02  0.32145690221E+02  0.00000000000E+00 0.  1.
          6    1    1    2  501    0 -0.89634470947E+01 -0.33290170008E+02  0.35048356373E+03  0.39193278410E+03  0.17200000000E+03 0.  1.
         -6    1    1    2    0  502  0.89634470947E+01  0.33290170008E+02  0.66217061834E+03  0.68501277842E+03  0.17200000000E+03 0.  1.
</event>
<event>
 4    1  0.6129841E-001  0.2232751E+03  0.7818608E-02  0.1131465E+00
         21   -1    0    0  501  502  0.00000000000E+00  0.00000000000E+00  0.94402884618E+02  0.94402884618E+02  0.00000000000E+00 0.  1.
         21   -1    0    0  502  503 -0.00000000000E+00 -0.00000000000E+00 -0.81582969686E+03  0.81582969686E+03  0.00000000000E+00 0.  1.
          6    1    1    2  501    0 -0.10017161392E+03 -0.10116029721E+03 -0.90420779192E+02  0.24088934239E+03  0.17200000000E+03 0.  1.
         -6    1    1    2    0  503  0.10017161392E+03  0.10116029721E+03 -0.63100603305E+03  0.66934323909E+03  0.17200000000E+03 0.  1.
</event>
<event>
 4    1  0.6129841E-001  0.1816993E+03  0.7818608E-02  0.1166169E+00
         21   -1    0    0  503  502  0.00000000000E+00  0.00000000000E+00  0.30205834799E+03  0.30205834799E+03  0.00000000000E+00 0. -1.
         21   -1    0    0  501  503 -0.00000000000E+00 -0.00000000000E+00 -0.13279761065E+03  0.13279761065E+03  0.00000000000E+00 0. -1.
          6    1    1    2  501    0  0.51362818269E+01 -0.58345865467E+02 -0.68321260627E+01  0.18182766389E+03  0.17200000000E+03 0. -1.
         -6    1    1    2    0  502 -0.51362818269E+01  0.58345865467E+02  0.17609286340E+03  0.25302829476E+03  0.17200000000E+03 0. -1.
</event>
<event>
 4    1  0.6129841E-001  0.2944521E+03  0.7818608E-02  0.1088047E+00
         21   -1    0    0  501  502  0.00000000000E+00  0.00000000000E+00  0.29398191584E+03  0.29398191584E+03  0.00000000000E+00 0.  1.
         21   -1    0    0  502  503 -0.00000000000E+00 -0.00000000000E+00 -0.34211924646E+03  0.34211924646E+03  0.00000000000E+00 0.  1.
          6    1    1    2  501    0  0.13404666539E+03  0.19786247109E+03  0.94061438304E+02  0.30911101589E+03  0.17200000000E+03 0.  1.
         -6    1    1    2    0  503 -0.13404666539E+03 -0.19786247109E+03 -0.14219876892E+03  0.32699014641E+03  0.17200000000E+03 0.  1.
</event>
<event>
 4    1  0.6129841E-001  0.1865732E+03  0.7818608E-02  0.1161589E+00
         21   -1    0    0  501  502  0.00000000000E+00  0.00000000000E+00  0.24856954703E+03  0.24856954703E+03  0.00000000000E+00 0. -1.
         21   -1    0    0  502  503 -0.00000000000E+00 -0.00000000000E+00 -0.20569115832E+03  0.20569115832E+03  0.00000000000E+00 0. -1.
          6    1    1    2  501    0 -0.25443694883E+02 -0.67662323665E+02  0.14975790676E+03  0.23924255953E+03  0.17200000000E+03 0. -1.
         -6    1    1    2    0  503  0.25443694883E+02  0.67662323665E+02 -0.10687951804E+03  0.21501814582E+03  0.17200000000E+03 0. -1.
</event>
<event>
 4    1  0.6129841E-001  0.1787543E+03  0.7818608E-02  0.1169014E+00
         21   -1    0    0  503  502  0.00000000000E+00  0.00000000000E+00  0.28310933169E+03  0.28310933169E+03  0.00000000000E+00 0.  1.
         21   -1    0    0  501  503 -0.00000000000E+00 -0.00000000000E+00 -0.15991879355E+03  0.15991879355E+03  0.00000000000E+00 0.  1.
          6    1    1    2  501    0  0.53822495162E+01  0.48374913708E+02 -0.58561826685E+02  0.18810260081E+03  0.17200000000E+03 0.  1.
         -6    1    1    2    0  502 -0.53822495162E+01 -0.48374913708E+02  0.18175236482E+03  0.25492552443E+03  0.17200000000E+03 0.  1.
</event>
<event>
 4    1  0.6129841E-001  0.1852023E+03  0.7818608E-02  0.1162861E+00
         21   -1    0    0  503  502  0.00000000000E+00  0.00000000000E+00  0.96994352350E+03  0.96994352350E+03  0.00000000000E+00 0. -1.
         21   -1    0    0  501  503 -0.00000000000E+00 -0.00000000000E+00 -0.35372086396E+02  0.35372086396E+02  0.00000000000E+00 0. -1.
          6    1    1    2  501    0 -0.25864811852E+02  0.63615154875E+02  0.47544939403E+03  0.51024700167E+03  0.17200000000E+03 0.  1.
         -6    1    1    2    0  502  0.25864811852E+02 -0.63615154875E+02  0.45912204307E+03  0.49506860823E+03  0.17200000000E+03 0.  1.
</event>
<event>
 4    1  0.6129841E-001  0.2295817E+03  0.7818608E-02  0.1126935E+00
         21   -1    0    0  503  502  0.00000000000E+00  0.00000000000E+00  0.44019945174E+03  0.44019945174E+03  0.00000000000E+00 0.  1.
         21   -1    0    0  501  503 -0.00000000000E+00 -0.00000000000E+00 -0.14864777677E+03  0.14864777677E+03  0.00000000000E+00 0. -1.
          6    1    1    2  501    0 -0.63579638933E+02 -0.13813542467E+03  0.15929392839E+02  0.23013368200E+03  0.17200000000E+03 0.  1.
         -6    1    1    2    0  502  0.63579638933E+02  0.13813542467E+03  0.27562228213E+03  0.35871354650E+03  0.17200000000E+03 0. -1.
</event>
<event>
 4    1  0.6129841E-001  0.2322122E+03  0.7818608E-02  0.1125092E+00
         21   -1    0    0  503  502  0.00000000000E+00  0.00000000000E+00  0.26086612206E+03  0.26086612206E+03  0.00000000000E+00 0. -1.
         21   -1    0    0  501  503 -0.00000000000E+00 -0.00000000000E+00 -0.63547305516E+03  0.63547305516E+03  0.00000000000E+00 0.  1.
          6    1    1    2  501    0  0.86823214037E+02  0.12961572310E+03 -0.55543641150E+03  0.60202334954E+03  0.17200000000E+03 0.  1.
         -6    1    1    2    0  502 -0.86823214037E+02 -0.12961572310E+03  0.18082947840E+03  0.29431582769E+03  0.17200000000E+03 0. -1.
</event>
<event>
 4    1  0.6129841E-001  0.1857281E+03  0.7818608E-02  0.1162372E+00
         21   -1    0    0  503  502  0.00000000000E+00  0.00000000000E+00  0.25022257410E+03  0.25022257410E+03  0.00000000000E+00 0.  1.
         21   -1    0    0  501  503 -0.00000000000E+00 -0.00000000000E+00 -0.14355943445E+03  0.14355943445E+03  0.00000000000E+00 0.  1.
          6    1    1    2  501    0 -0.59041202842E+02 -0.37750250721E+02  0.14090722126E+02  0.18626189496E+03  0.17200000000E+03 0. -1.
         -6    1    1    2    0  502  0.59041202842E+02  0.37750250721E+02  0.92572417526E+02  0.20752011360E+03  0.17200000000E+03 0. -1.
</event>
<event>
 4    1  0.6129841E-001  0.2552249E+03  0.7818608E-02  0.1110047E+00
         21   -1    0    0  503  502  0.00000000000E+00  0.00000000000E+00  0.20856958146E+03  0.20856958146E+03  0.00000000000E+00 0.  1.
         21   -1    0    0  501  503 -0.00000000000E+00 -0.00000000000E+00 -0.33888234087E+03  0.33888234087E+03  0.00000000000E+00 0.  1.
          6    1    1    2  501    0 -0.13212710443E+03 -0.13452946704E+03 -0.14179580237E+03  0.29196883189E+03  0.17200000000E+03 0. -1.
         -6    1    1    2    0  502  0.13212710443E+03  0.13452946704E+03  0.11483042959E+02  0.25548309044E+03  0.17200000000E+03 0. -1.
</event>
<event>
 4    1  0.6129841E-001  0.2522071E+03  0.7818608E-02  0.1111918E+00
         21   -1    0    0  501  502  0.00000000000E+00  0.00000000000E+00  0.12969256488E+04  0.12969256488E+04  0.00000000000E+00 0.  1.
         21   -1    0    0  502  503 -0.00000000000E+00 -0.00000000000E+00 -0.57814798239E+02  0.57814798239E+02  0.00000000000E+00 0.  1.
          6    1    1    2  501    0 -0.17733214888E+03  0.50771444111E+02  0.35574752381E+03  0.43607881313E+03  0.17200000000E+03 0.  1.
         -6    1    1    2    0  503  0.17733214888E+03 -0.50771444111E+02  0.88336332673E+03  0.91866163389E+03  0.17200000000E+03 0.  1.
</event>
<event>
 4    1  0.6129841E-001  0.2003907E+03  0.7818608E-02  0.1149410E+00
         21   -1    0    0  501  502  0.00000000000E+00  0.00000000000E+00  0.83201829225E+02  0.83201829225E+02  0.00000000000E+00 0.  1.
         21   -1    0    0  502  503 -0.00000000000E+00 -0.00000000000E+00 -0.49878076803E+03  0.49878076803E+03  0.00000000000E+00 0.  1.
          6    1    1    2  501    0  0.13426442844E+02  0.10194193356E+03 -0.15544099692E+03  0.25361058872E+03  0.17200000000E+03 0.  1.
         -6    1    1    2    0  503 -0.13426442844E+02 -0.10194193356E+03 -0.26013794188E+03  0.32837200854E+03  0.17200000000E+03 0.  1.
</event>
<event>
 4    1  0.6129841E-001  0.3762086E+03  0.7818608E-02  0.1052344E+00
         21   -1    0    0  503  502  0.00000000000E+00  0.00000000000E+00  0.36281869563E+03  0.36281869563E+03  0.00000000000E+00 0.  1.
         21   -1    0    0  501  503 -0.00000000000E+00 -0.00000000000E+00 -0.52253088672E+03  0.52253088672E+03  0.00000000000E+00 0. -1.
          6    1    1    2  501    0 -0.33356797404E+03 -0.26102770880E+02 -0.30271773201E+03  0.48287780361E+03  0.17200000000E+03 0. -1.
         -6    1    1    2    0  502  0.33356797404E+03  0.26102770880E+02  0.14300554091E+03  0.40247177874E+03  0.17200000000E+03 0.  1.
</event>
<event>
 4    1  0.6129841E-001  0.2210076E+03  0.7818608E-02  0.1133134E+00
         21   -1    0    0  501  502  0.00000000000E+00  0.00000000000E+00  0.26492659448E+03  0.26492659448E+03  0.00000000000E+00 0. -1.
         21   -1    0    0  502  503 -0.00000000000E+00 -0.00000000000E+00 -0.61030234930E+03  0.61030234930E+03  0.00000000000E+00 0. -1.
          6    1    1    2  501    0 -0.11404812380E+03 -0.79078294071E+02  0.19289831547E+03  0.29334981038E+03  0.17200000000E+03 0. -1.
         -6    1    1    2    0  503  0.11404812380E+03  0.79078294071E+02 -0.53827407029E+03  0.58187913340E+03  0.17200000000E+03 0. -1.
</event>
<event>
 4    1  0.6129841E-001  0.1748348E+03  0.7818608E-02  0.1172898E+00
         21   -1    0    0  501  502  0.00000000000E+00  0.00000000000E+00  0.95244461115E+02  0.95244461115E+02  0.00000000000E+00 0. -1.
         21   -1    0    0  502  503 -0.00000000000E+00 -0.00000000000E+00 -0.19513192868E+04  0.19513192868E+04  0.00000000000E+00 0. -1.
          6    1    1    2  501    0  0.30699010094E+02  0.63856427379E+01  0.73170199456E+01  0.17498784082E+03  0.17200000000E+03 0. -1.
         -6    1    1    2    0  503 -0.30699010094E+02 -0.63856427379E+01 -0.18633918456E+04  0.18715759071E+04  0.17200000000E+03 0. -1.
</event>
<event>
 4    1  0.6129841E-001  0.1744117E+03  0.7818608E-02  0.1173324E+00
         21   -1    0    0  503  502  0.00000000000E+00  0.00000000000E+00  0.36380259367E+02  0.36380259367E+02  0.00000000000E+00 0.  1.
         21   -1    0    0  501  503 -0.00000000000E+00 -0.00000000000E+00 -0.13726406313E+04  0.13726406313E+04  0.00000000000E+00 0.  1.
          6    1    1    2  501    0  0.40528454232E+01 -0.28618198463E+02 -0.11085727383E+04  0.11222089569E+04  0.17200000000E+03 0.  1.
         -6    1    1    2    0  502 -0.40528454232E+01  0.28618198463E+02 -0.22768763359E+03  0.28681193373E+03  0.17200000000E+03 0.  1.
</event>
<event>
 4    1  0.6129841E-001  0.1758676E+03  0.7818608E-02  0.1171863E+00
         21   -1    0    0  501  502  0.00000000000E+00  0.00000000000E+00  0.64848744346E+02  0.64848744346E+02  0.00000000000E+00 0.  1.
         21   -1    0    0  502  503 -0.00000000000E+00 -0.00000000000E+00 -0.64220977777E+03  0.64220977777E+03  0.00000000000E+00 0.  1.
          6    1    1    2  501    0  0.14388706054E+02 -0.33739820250E+02 -0.10934161385E+03  0.20708693549E+03  0.17200000000E+03 0.  1.
         -6    1    1    2    0  503 -0.14388706054E+02  0.33739820250E+02 -0.46801941957E+03  0.49997158662E+03  0.17200000000E+03 0.  1.
</event>
<event>
 4    1  0.6129841E-001  0.2362111E+03  0.7818608E-02  0.1122343E+00
         21   -1    0    0  501  502  0.00000000000E+00  0.00000000000E+00  0.34449481073E+03  0.34449481073E+03  0.00000000000E+00 0. -1.
         21   -1    0    0  502  503 -0.00000000000E+00 -0.00000000000E+00 -0.17170680993E+03  0.17170680993E+03  0.00000000000E+00 0. -1.
          6    1    1    2  501    0 -0.15876961300E+03 -0.31683939211E+02  0.14787542221E+03  0.27868046668E+03  0.17200000000E+03 0. -1.
         -6    1    1    2    0  503  0.15876961300E+03  0.31683939211E+02  0.24912578593E+02  0.23752115398E+03  0.17200000000E+03 0. -1.
</event>
<event>
 4    1  0.6129841E-001  0.2166245E+03  0.7818608E-02  0.1136425E+00
         21   -1    0    0  501  502  0.00000000000E+00  0.00000000000E+00  0.13287983624E+04  0.13287983624E+04  0.00000000000E+00 0. -1.
         21   -1    0    0  502  503 -0.00000000000E+00 -0.00000000000E+00 -0.44690776244E+02  0.44690776244E+02  0.00000000000E+00 0.  1.
          6    1    1    2  501    0  0.14461363823E+02 -0.13089324125E+03  0.95660827078E+03  0.98082901434E+03  0.17200000000E+03 0.  1.
         -6    1    1    2    0  503 -0.14461363823E+02  0.13089324125E+03  0.32749931539E+03  0.39266012432E+03  0.17200000000E+03 0. -1.
</event>
<event>
 4    1  0.6129841E-001  0.2021301E+03  0.7818608E-02  0.1147954E+00
         21   -1    0    0  503  502  0.00000000000E+00  0.00000000000E+00  0.11629773952E+03  0.11629773952E+03  0.00000000000E+00 0. -1.
         21   -1    0    0  501  503 -0.00000000000E+00 -0.00000000000E+00 -0.41014454507E+03  0.41014454507E+03  0.00000000000E+00 0. -1.
          6    1    1    2  501    0 -0.62899903563E+02 -0.85534617737E+02 -0.24661721134E+03  0.31886771180E+03  0.17200000000E+03 0. -1.
         -6    1    1    2    0  502  0.62899903563E+02  0.85534617737E+02 -0.47229594203E+02  0.20757457279E+03  0.17200000000E+03 0. -1.
</event>
<event>
 4    1  0.6129841E-001  0.2004306E+03  0.7818608E-02  0.1149376E+00
         21   -1    0    0  501  502  0.00000000000E+00  0.00000000000E+00  0.22383375459E+03  0.22383375459E+03  0.00000000000E+00 0. -1.
         21   -1    0    0  502  503 -0.00000000000E+00 -0.00000000000E+00 -0.34841470321E+03  0.34841470321E+03  0.00000000000E+00 0. -1.
          6    1    1    2  501    0 -0.10205074391E+03 -0.13193832971E+02  0.13694791266E+03  0.24274917578E+03  0.17200000000E+03 0. -1.
         -6    1    1    2    0  503  0.10205074391E+03  0.13193832971E+02 -0.26152886129E+03  0.32949928201E+03  0.17200000000E+03 0. -1.
</event>
<event>
 4    1  0.6129841E-001  0.2480779E+03  0.7818608E-02  0.1114526E+00
         21   -1    0    0  503  502  0.00000000000E+00  0.00000000000E+00  0.60662283658E+02  0.60662283658E+02  0.00000000000E+00 0.  1.
         21   -1    0    0  501  503 -0.00000000000E+00 -0.00000000000E+00 -0.10225377142E+04  0.10225377142E+04  0.00000000000E+00 0.  1.
          6    1    1    2  501    0 -0.17730305038E+03  0.22852783468E+02 -0.52891966135E+03  0.58420769384E+03  0.17200000000E+03 0.  1.
         -6    1    1    2    0  502  0.17730305038E+03 -0.22852783468E+02 -0.43295576918E+03  0.49899230400E+03  0.17200000000E+03 0.  1.
</event>
<event>
 4    1  0.6129841E-001  0.2500321E+03  0.7818608E-02  0.1113285E+00
         21   -1    0    0  501  502  0.00000000000E+00  0.00000000000E+00  0.11327866518E+03  0.11327866518E+03  0.00000000000E+00 0.  1.
         21   -1    0    0  502  503 -0.00000000000E+00 -0.00000000000E+00 -0.58630246450E+03  0.58630246450E+03  0.00000000000E+00 0. -1.
          6    1    1    2  501    0 -0.17687318405E+03  0.40594824731E+02 -0.15175452528E+03  0.29248162160E+03  0.17200000000E+03 0. -1.
         -6    1    1    2    0  503  0.17687318405E+03 -0.40594824731E+02 -0.32126927404E+03  0.40709950807E+03  0.17200000000E+03 0.  1.
</event>
<event>
 4    1  0.6129841E-001  0.2491759E+03  0.7818608E-02  0.1113827E+00
         21   -1    0    0  503  502  0.00000000000E+00  0.00000000000E+00  0.93008965047E+02  0.93008965047E+02  0.00000000000E+00 0.  1.
         21   -1    0    0  501  503 -0.00000000000E+00 -0.00000000000E+00 -0.72773831611E+03  0.72773831611E+03  0.00000000000E+00 0. -1.
          6    1    1    2  501    0  0.26439674792E+02 -0.17834117741E+03 -0.43537734658E+03  0.50163937832E+03  0.17200000000E+03 0. -1.
         -6    1    1    2    0  502 -0.26439674792E+02  0.17834117741E+03 -0.19935200448E+03  0.31910790284E+03  0.17200000000E+03 0. -1.
</event>
<event>
 4    1  0.6129841E-001  0.2508396E+03  0.7818608E-02  0.1112775E+00
         21   -1    0    0  501  502  0.00000000000E+00  0.00000000000E+00  0.46296275368E+03  0.46296275368E+03  0.00000000000E+00 0.  1.
         21   -1    0    0  502  503 -0.00000000000E+00 -0.00000000000E+00 -0.34404903552E+03  0.34404903552E+03  0.00000000000E+00 0. -1.
          6    1    1    2  501    0 -0.18161357005E+03  0.18789023341E+02  0.37330399791E+03  0.44975147702E+03  0.17200000000E+03 0.  1.
         -6    1    1    2    0  503  0.18161357005E+03 -0.18789023341E+02 -0.25439027975E+03  0.35726031218E+03  0.17200000000E+03 0.  1.
</event>
<event>
 4    1  0.6129841E-001  0.2240727E+03  0.7818608E-02  0.1130883E+00
         21   -1    0    0  501  502  0.00000000000E+00  0.00000000000E+00  0.25966421892E+03  0.25966421892E+03  0.00000000000E+00 0.  1.
         21   -1    0    0  502  503 -0.00000000000E+00 -0.00000000000E+00 -0.19444114728E+03  0.19444114728E+03  0.00000000000E+00 0. -1.
          6    1    1    2  501    0 -0.13946558759E+03  0.34262533723E+02  0.49545314841E+02  0.22948487872E+03  0.17200000000E+03 0. -1.
         -6    1    1    2    0  503  0.13946558759E+03 -0.34262533723E+02  0.15677756802E+02  0.22462048748E+03  0.17200000000E+03 0.  1.
</event>
<event>
 4    1  0.6129841E-001  0.2055165E+03  0.7818608E-02  0.1145166E+00
         21   -1    0    0  501  502  0.00000000000E+00  0.00000000000E+00  0.20827484029E+03  0.20827484029E+03  0.00000000000E+00 0. -1.
         21   -1    0    0  502  503 -0.00000000000E+00 -0.00000000000E+00 -0.20940103739E+03  0.20940103739E+03  0.00000000000E+00 0. -1.
          6    1    1    2  501    0  0.11221878795E+03  0.77449577137E+01 -0.37656721774E+02  0.20893795594E+03  0.17200000000E+03 0. -1.
         -6    1    1    2    0  503 -0.11221878795E+03 -0.77449577137E+01  0.36530524670E+02  0.20873792174E+03  0.17200000000E+03 0. -1.
</event>
<event>
 4    1  0.6129841E-001  0.2274205E+03  0.7818608E-02  0.1128469E+00
         21   -1    0    0  503  502  0.00000000000E+00  0.00000000000E+00  0.41871234876E+03  0.41871234876E+03  0.00000000000E+00 0.  1.
         21   -1    0    0  501  503 -0.00000000000E+00 -0.00000000000E+00 -0.18389574639E+03  0.18389574639E+03  0.00000000000E+00 0.  1.
          6    1    1    2  501    0  0.14848162440E+03 -0.94500100630E+01 -0.55232709932E+02  0.23403151010E+03  0.17200000000E+03 0.  1.
         -6    1    1    2    0  502 -0.14848162440E+03  0.94500100630E+01  0.29004931231E+03  0.36857658505E+03  0.17200000000E+03 0.  1.
</event>
<event>
 4    1  0.6129841E-001  0.1863859E+03  0.7818608E-02  0.1161762E+00
         21   -1    0    0  503  502  0.00000000000E+00  0.00000000000E+00  0.85417550891E+03  0.85417550891E+03  0.00000000000E+00 0. -1.
         21   -1    0    0  501  503 -0.00000000000E+00 -0.00000000000E+00 -0.50110958095E+02  0.50110958095E+02  0.00000000000E+00 0. -1.
          6    1    1    2  501    0  0.69542198415E+02 -0.17877411538E+02  0.20578351931E+03  0.27764469385E+03  0.17200000000E+03 0.  1.
         -6    1    1    2    0  502 -0.69542198415E+02  0.17877411538E+02  0.59828103150E+03  0.62664177315E+03  0.17200000000E+03 0.  1.
</event>
<event>
 4    1  0.6129841E-001  0.1832988E+03  0.7818608E-02  0.1164648E+00
         21   -1    0    0  503  502  0.00000000000E+00  0.00000000000E+00  0.38661288061E+02  0.38661288061E+02  0.00000000000E+00 0.  1.
         21   -1    0    0  501  503 -0.00000000000E+00 -0.00000000000E+00 -0.16679681401E+04  0.16679681401E+04  0.00000000000E+00 0.  1.
          6    1    1    2  501    0 -0.23734105392E+02 -0.58746453128E+02 -0.14052181155E+04  0.14171225796E+04  0.17200000000E+03 0.  1.
         -6    1    1    2    0  502  0.23734105392E+02  0.58746453128E+02 -0.22408873654E+03  0.28950684855E+03  0.17200000000E+03 0.  1.
</event>
<event>
 4    1  0.6129841E-001  0.1750937E+03  0.7818608E-02  0.1172638E+00
         21   -1    0    0  501  502  0.00000000000E+00  0.00000000000E+00  0.23144485522E+03  0.23144485522E+03  0.00000000000E+00 0. -1.
         21   -1    0    0  502  503 -0.00000000000E+00 -0.00000000000E+00 -0.13296537375E+03  0.13296537375E+03  0.00000000000E+00 0. -1.
          6    1    1    2  501    0 -0.31916186804E+02 -0.74281079566E+01  0.38037189404E+02  0.17917769824E+03  0.17200000000E+03 0. -1.
         -6    1    1    2    0  503  0.31916186804E+02  0.74281079566E+01  0.60442292067E+02  0.18523253072E+03  0.17200000000E+03 0. -1.
</event>
<event>
 4    1  0.6129841E-001  0.3352913E+03  0.7818608E-02  0.1068819E+00
         21   -1    0    0  501  502  0.00000000000E+00  0.00000000000E+00  0.25847228352E+03  0.25847228352E+03  0.00000000000E+00 0. -1.
         21   -1    0    0  502  503 -0.00000000000E+00 -0.00000000000E+00 -0.73978357848E+03  0.73978357848E+03  0.00000000000E+00 0. -1.
          6    1    1    2  501    0  0.25415651744E+03  0.13505826747E+03  0.79747762653E+02  0.34464471070E+03  0.17200000000E+03 0. -1.
         -6    1    1    2    0  503 -0.25415651744E+03 -0.13505826747E+03 -0.56105905762E+03  0.65361115130E+03  0.17200000000E+03 0. -1.
</event>
<event>
 4    1  0.6129841E-001  0.4552983E+03  0.7818608E-02  0.1026154E+00
         21   -1    0    0  501  502  0.00000000000E+00  0.00000000000E+00  0.10847660429E+03  0.10847660429E+03  0.00000000000E+00 0.  1.
         21   -1    0    0  502  503 -0.00000000000E+00 -0.00000000000E+00 -0.19286558515E+04  0.19286558515E+04  0.00000000000E+00 0. -1.
          6    1    1    2  501    0 -0.40510748200E+03 -0.11662094720E+03 -0.81257632458E+03  0.93143802830E+03  0.17200000000E+03 0. -1.
         -6    1    1    2    0  503  0.40510748200E+03  0.11662094720E+03 -0.10076029227E+04  0.11056944275E+04  0.17200000000E+03 0.  1.
</event>
<event>
 4    1  0.6129841E-001  0.1948781E+03  0.7818608E-02  0.1154134E+00
         21   -1    0    0  501  502  0.00000000000E+00  0.00000000000E+00  0.65050246055E+03  0.65050246055E+03  0.00000000000E+00 0.  1.
         21   -1    0    0  502  503 -0.00000000000E+00 -0.00000000000E+00 -0.89583320417E+02  0.89583320417E+02  0.00000000000E+00 0.  1.
          6    1    1    2  501    0 -0.60795609003E+02  0.68537419875E+02  0.49884647100E+03  0.53556072076E+03  0.17200000000E+03 0. -1.
         -6    1    1    2    0  503  0.60795609003E+02 -0.68537419875E+02  0.62072669133E+02  0.20452506020E+03  0.17200000000E+03 0. -1.
</event>
<event>
 4    1  0.6129841E-001  0.1784050E+03  0.7818608E-02  0.1169356E+00
         21   -1    0    0  501  502  0.00000000000E+00  0.00000000000E+00  0.68689278765E+03  0.68689278765E+03  0.00000000000E+00 0. -1.
         21   -1    0    0  502  503 -0.00000000000E+00 -0.00000000000E+00 -0.19830644583E+03  0.19830644583E+03  0.00000000000E+00 0. -1.
          6    1    1    2  501    0 -0.37227257028E+02 -0.29299832953E+02  0.63174808965E+03  0.65645563266E+03  0.17200000000E+03 0. -1.
         -6    1    1    2    0  503  0.37227257028E+02  0.29299832953E+02 -0.14316174782E+03  0.22874360082E+03  0.17200000000E+03 0. -1.
</event>
<event>
 4    1  0.6129841E-001  0.1966132E+03  0.7818608E-02  0.1152628E+00
         21   -1    0    0  501  502  0.00000000000E+00  0.00000000000E+00  0.37936104034E+03  0.37936104034E+03  0.00000000000E+00 0. -1.
         21   -1    0    0  502  503 -0.00000000000E+00 -0.00000000000E+00 -0.10644624952E+03  0.10644624952E+03  0.00000000000E+00 0. -1.
          6    1    1    2  501    0  0.68576466973E+02  0.66106187914E+02  0.18665833718E+03  0.27110532038E+03  0.17200000000E+03 0.  1.
         -6    1    1    2    0  503 -0.68576466973E+02 -0.66106187914E+02  0.86256453637E+02  0.21470196948E+03  0.17200000000E+03 0.  1.
</event>
<event>
 4    1  0.6129841E-001  0.2399229E+03  0.7818608E-02  0.1119844E+00
         21   -1    0    0  501  502  0.00000000000E+00  0.00000000000E+00  0.14898688956E+03  0.14898688956E+03  0.00000000000E+00 0. -1.
         21   -1    0    0  502  503 -0.00000000000E+00 -0.00000000000E+00 -0.11502405744E+04  0.11502405744E+04  0.00000000000E+00 0.  1.
          6    1    1    2  501    0  0.83748218095E+02  0.14479374493E+03 -0.10300132554E+04  0.10575870172E+04  0.17200000000E+03 0.  1.
         -6    1    1    2    0  503 -0.83748218095E+02 -0.14479374493E+03  0.28759570594E+02  0.24164044675E+03  0.17200000000E+03 0. -1.
</event>
<event>
 4    1  0.6129841E-001  0.1736587E+03  0.7818608E-02  0.1174085E+00
         21   -1    0    0  501  502  0.00000000000E+00  0.00000000000E+00  0.19002092632E+04  0.19002092632E+04  0.00000000000E+00 0. -1.
         21   -1    0    0  502  503 -0.00000000000E+00 -0.00000000000E+00 -0.29884464787E+02  0.29884464787E+02  0.00000000000E+00 0. -1.
          6    1    1    2  501    0 -0.19715077217E+02 -0.13589196002E+02  0.15960164038E+04  0.16054362995E+04  0.17200000000E+03 0. -1.
         -6    1    1    2    0  503  0.19715077217E+02  0.13589196002E+02  0.27430839455E+03  0.32465742844E+03  0.17200000000E+03 0. -1.
</event>
<event>
 4    1  0.6129841E-001  0.1861403E+03  0.7818608E-02  0.1161989E+00
         21   -1    0    0  503  502  0.00000000000E+00  0.00000000000E+00  0.49881350051E+03  0.49881350051E+03  0.00000000000E+00 0. -1.
         21   -1    0    0  501  503 -0.00000000000E+00 -0.00000000000E+00 -0.74662091432E+02  0.74662091432E+02  0.00000000000E+00 0. -1.
          6    1    1    2  501    0  0.69550004203E+02  0.15067342203E+02  0.13639762289E+03  0.23076511742E+03  0.17200000000E+03 0. -1.
         -6    1    1    2    0  502 -0.69550004203E+02 -0.15067342203E+02  0.28775378619E+03  0.34271047453E+03  0.17200000000E+03 0. -1.
</event>
<event>
 4    1  0.6129841E-001  0.3102293E+03  0.7818608E-02  0.1080236E+00
         21   -1    0    0  503  502  0.00000000000E+00  0.00000000000E+00  0.13603845832E+03  0.13603845832E+03  0.00000000000E+00 0.  1.
         21   -1    0    0  501  503 -0.00000000000E+00 -0.00000000000E+00 -0.74909072096E+03  0.74909072096E+03  0.00000000000E+00 0. -1.
          6    1    1    2  501    0  0.21039697994E+03 -0.14963740979E+03 -0.20219878195E+03  0.37030607745E+03  0.17200000000E+03 0.  1.
         -6    1    1    2    0  502 -0.21039697994E+03  0.14963740979E+03 -0.41085348069E+03  0.51482310182E+03  0.17200000000E+03 0.  1.
</event>
<event>
 4    1  0.6129841E-001  0.1852740E+03  0.7818608E-02  0.1162794E+00
         21   -1    0    0  501  502  0.00000000000E+00  0.00000000000E+00  0.12836414174E+04  0.12836414174E+04  0.00000000000E+00 0. -1.
         21   -1    0    0  502  503 -0.00000000000E+00 -0.00000000000E+00 -0.35997114258E+02  0.35997114258E+02  0.00000000000E+00 0. -1.
          6    1    1    2  501    0  0.46458429664E+02 -0.50833583178E+02  0.95839818955E+03  0.97614216618E+03  0.17200000000E+03 0. -1.
         -6    1    1    2    0  503 -0.46458429664E+02  0.50833583178E+02  0.28924611358E+03  0.34349636546E+03  0.17200000000E+03 0. -1.
</event>
<event>
 4    1  0.6129841E-001  0.2557049E+03  0.7818608E-02  0.1109752E+00
         21   -1    0    0  503  502  0.00000000000E+00  0.00000000000E+00  0.68296464297E+03  0.68296464297E+03  0.00000000000E+00 0.  1.
         21   -1    0    0  501  503 -0.00000000000E+00 -0.00000000000E+00 -0.96235497420E+02  0.96235497420E+02  0.00000000000E+00 0. -1.
          6    1    1    2  501    0  0.16025711133E+03  0.10059161847E+03  0.32140367307E+03  0.41071320468E+03  0.17200000000E+03 0.  1.
         -6    1    1    2    0  502 -0.16025711133E+03 -0.10059161847E+03  0.26532547248E+03  0.36848693570E+03  0.17200000000E+03 0. -1.
</event>
<event>
 4    1  0.6129841E-001  0.2267508E+03  0.7818608E-02  0.1128948E+00
         21   -1    0    0  503  502  0.00000000000E+00  0.00000000000E+00  0.25456663011E+03  0.25456663011E+03  0.00000000000E+00 0. -1.
         21   -1    0    0  501  503 -0.00000000000E+00 -0.00000000000E+00 -0.35879205997E+03  0.35879205997E+03  0.00000000000E+00 0. -1.
          6    1    1    2  501    0 -0.14478514457E+03 -0.29481968778E+02 -0.25486263732E+03  0.34113177582E+03  0.17200000000E+03 0.  1.
         -6    1    1    2    0  502  0.14478514457E+03  0.29481968778E+02  0.15063720746E+03  0.27222691426E+03  0.17200000000E+03 0.  1.
</event>
<event>
 4    1  0.6129841E-001  0.2256458E+03  0.7818608E-02  0.1129743E+00
         21   -1    0    0  501  502  0.00000000000E+00  0.00000000000E+00  0.40899497390E+03  0.40899497390E+03  0.00000000000E+00 0.  1.
         21   -1    0    0  502  503 -0.00000000000E+00 -0.00000000000E+00 -0.14348109553E+03  0.14348109553E+03  0.00000000000E+00 0.  1.
          6    1    1    2  501    0 -0.37767402001E+02 -0.14108740191E+03  0.23325420079E+03  0.32453590528E+03  0.17200000000E+03 0.  1.
         -6    1    1    2    0  503  0.37767402001E+02  0.14108740191E+03  0.32259677584E+02  0.22794016415E+03  0.17200000000E+03 0.  1.
</event>
<event>
 4    1  0.6129841E-001  0.1789782E+03  0.7818608E-02  0.1168796E+00
         21   -1    0    0  503  502  0.00000000000E+00  0.00000000000E+00  0.25982899700E+03  0.25982899700E+03  0.00000000000E+00 0. -1.
         21   -1    0    0  501  503 -0.00000000000E+00 -0.00000000000E+00 -0.12503793718E+03  0.12503793718E+03  0.00000000000E+00 0. -1.
          6    1    1    2  501    0 -0.47386217193E+02  0.14274390609E+02  0.44615703430E+02  0.18445534094E+03  0.17200000000E+03 0. -1.
         -6    1    1    2    0  502  0.47386217193E+02 -0.14274390609E+02  0.90175356386E+02  0.20041159324E+03  0.17200000000E+03 0. -1.
</event>
<event>
 4    1  0.6129841E-001  0.1926380E+03  0.7818608E-02  0.1156103E+00
         21   -1    0    0  501  502  0.00000000000E+00  0.00000000000E+00  0.46478673174E+02  0.46478673174E+02  0.00000000000E+00 0. -1.
         21   -1    0    0  502  503 -0.00000000000E+00 -0.00000000000E+00 -0.79893425389E+03  0.79893425389E+03  0.00000000000E+00 0. -1.
          6    1    1    2  501    0  0.45672297011E+02  0.73752439921E+02 -0.36547627166E+03  0.41313712766E+03  0.17200000000E+03 0. -1.
         -6    1    1    2    0  503 -0.45672297011E+02 -0.73752439921E+02 -0.38697930906E+03  0.43227579940E+03  0.17200000000E+03 0. -1.
</event>
<event>
 4    1  0.6129841E-001  0.2224627E+03  0.7818608E-02  0.1132060E+00
         21   -1    0    0  501  502  0.00000000000E+00  0.00000000000E+00  0.47537707711E+03  0.47537707711E+03  0.00000000000E+00 0.  1.
         21   -1    0    0  502  503 -0.00000000000E+00 -0.00000000000E+00 -0.14180548983E+03  0.14180548983E+03  0.00000000000E+00 0.  1.
          6    1    1    2  501    0  0.13502417328E+03 -0.40916095021E+02  0.32589828831E+03  0.39458756762E+03  0.17200000000E+03 0.  1.
         -6    1    1    2    0  503 -0.13502417328E+03  0.40916095021E+02  0.76732989803E+01  0.22259499931E+03  0.17200000000E+03 0.  1.
</event>
<event>
 4    1  0.6129841E-001  0.1900974E+03  0.7818608E-02  0.1158374E+00
         21   -1    0    0  501  502  0.00000000000E+00  0.00000000000E+00  0.30786049075E+03  0.30786049075E+03  0.00000000000E+00 0. -1.
         21   -1    0    0  502  503 -0.00000000000E+00 -0.00000000000E+00 -0.24567243587E+03  0.24567243587E+03  0.00000000000E+00 0. -1.
          6    1    1    2  501    0 -0.36336404181E+02  0.72337280981E+02  0.23109579688E+03  0.29923616731E+03  0.17200000000E+03 0. -1.
         -6    1    1    2    0  503  0.36336404181E+02 -0.72337280981E+02 -0.16890774200E+03  0.25429675931E+03  0.17200000000E+03 0. -1.
</event>
<event>
 4    1  0.6129841E-001  0.1740631E+03  0.7818608E-02  0.1173676E+00
         21   -1    0    0  501  502  0.00000000000E+00  0.00000000000E+00  0.20689752152E+03  0.20689752152E+03  0.00000000000E+00 0. -1.
         21   -1    0    0  502  503 -0.00000000000E+00 -0.00000000000E+00 -0.14724603988E+03  0.14724603988E+03  0.00000000000E+00 0. -1.
          6    1    1    2  501    0 -0.58838920738E+01 -0.26064360094E+02  0.16720693939E+02  0.17486438362E+03  0.17200000000E+03 0. -1.
         -6    1    1    2    0  503  0.58838920738E+01  0.26064360094E+02  0.42930787694E+02  0.17927917778E+03  0.17200000000E+03 0. -1.
</event>
<event>
 4    1  0.6129841E-001  0.2376198E+03  0.7818608E-02  0.1121389E+00
         21   -1    0    0  503  502  0.00000000000E+00  0.00000000000E+00  0.85728401857E+02  0.85728401857E+02  0.00000000000E+00 0.  1.
         21   -1    0    0  501  503 -0.00000000000E+00 -0.00000000000E+00 -0.12015372777E+04  0.12015372777E+04  0.00000000000E+00 0.  1.
          6    1    1    2  501    0 -0.10944884556E+03  0.12206613589E+03 -0.99055064064E+03  0.10186529159E+04  0.17200000000E+03 0.  1.
         -6    1    1    2    0  502  0.10944884556E+03 -0.12206613589E+03 -0.12525823518E+03  0.26861276367E+03  0.17200000000E+03 0.  1.
</event>
<event>
 4    1  0.6129841E-001  0.1852723E+03  0.7818608E-02  0.1162796E+00
         21   -1    0    0  503  502  0.00000000000E+00  0.00000000000E+00  0.16080280239E+03  0.16080280239E+03  0.00000000000E+00 0. -1.
         21   -1    0    0  501  503 -0.00000000000E+00 -0.00000000000E+00 -0.29896186499E+03  0.29896186499E+03  0.00000000000E+00 0. -1.
          6    1    1    2  501    0  0.59407936618E+02  0.34821038624E+02 -0.19201358537E+03  0.26682395813E+03  0.17200000000E+03 0. -1.
         -6    1    1    2    0  502 -0.59407936618E+02 -0.34821038624E+02  0.53854522764E+02  0.19294070925E+03  0.17200000000E+03 0. -1.
</event>
<event>
 4    1  0.6129841E-001  0.1877643E+03  0.7818608E-02  0.1160493E+00
         21   -1    0    0  501  502  0.00000000000E+00  0.00000000000E+00  0.49279893401E+02  0.49279893401E+02  0.00000000000E+00 0.  1.
         21   -1    0    0  502  503 -0.00000000000E+00 -0.00000000000E+00 -0.91968859702E+03  0.91968859702E+03  0.00000000000E+00 0.  1.
          6    1    1    2  501    0  0.10503068009E+01  0.75301689556E+02 -0.20687164604E+03  0.27937667320E+03  0.17200000000E+03 0.  1.
         -6    1    1    2    0  503 -0.10503068009E+01 -0.75301689556E+02 -0.66353705758E+03  0.68959181722E+03  0.17200000000E+03 0.  1.
</event>
<event>
 4    1  0.6129841E-001  0.2338858E+03  0.7818608E-02  0.1123934E+00
         21   -1    0    0  501  502  0.00000000000E+00  0.00000000000E+00  0.10339543771E+04  0.10339543771E+04  0.00000000000E+00 0. -1.
         21   -1    0    0  502  503 -0.00000000000E+00 -0.00000000000E+00 -0.52906253692E+02  0.52906253692E+02  0.00000000000E+00 0. -1.
          6    1    1    2  501    0  0.12747768675E+03  0.94170128548E+02  0.49117650936E+03  0.54401924329E+03  0.17200000000E+03 0. -1.
         -6    1    1    2    0  503 -0.12747768675E+03 -0.94170128548E+02  0.48987161406E+03  0.54284138751E+03  0.17200000000E+03 0. -1.
</event>
<event>
 4    1  0.6129841E-001  0.1777262E+03  0.7818608E-02  0.1170022E+00
         21   -1    0    0  503  502  0.00000000000E+00  0.00000000000E+00  0.27175168895E+03  0.27175168895E+03  0.00000000000E+00 0. -1.
         21   -1    0    0  501  503 -0.00000000000E+00 -0.00000000000E+00 -0.12888515553E+03  0.12888515553E+03  0.00000000000E+00 0. -1.
          6    1    1    2  501    0  0.41009691405E+02 -0.17911126866E+02  0.86713687151E+01  0.17793761797E+03  0.17200000000E+03 0. -1.
         -6    1    1    2    0  502 -0.41009691405E+02  0.17911126866E+02  0.13419516470E+03  0.22269922650E+03  0.17200000000E+03 0. -1.
</event>
<event>
 4    1  0.6129841E-001  0.1800070E+03  0.7818608E-02  0.1167796E+00
         21   -1    0    0  501  502  0.00000000000E+00  0.00000000000E+00  0.16360877956E+03  0.16360877956E+03  0.00000000000E+00 0.  1.
         21   -1    0    0  502  503 -0.00000000000E+00 -0.00000000000E+00 -0.41346152523E+03  0.41346152523E+03  0.00000000000E+00 0.  1.
          6    1    1    2  501    0  0.48218638983E+02 -0.22214612490E+02  0.83338888035E+02  0.19836304195E+03  0.17200000000E+03 0.  1.
         -6    1    1    2    0  503 -0.48218638983E+02  0.22214612490E+02 -0.33319163371E+03  0.37870726284E+03  0.17200000000E+03 0.  1.
</event>
<event>
 4    1  0.6129841E-001  0.1974636E+03  0.7818608E-02  0.1151897E+00
         21   -1    0    0  503  502  0.00000000000E+00  0.00000000000E+00  0.13091860323E+03  0.13091860323E+03  0.00000000000E+00 0. -1.
         21   -1    0    0  501  503 -0.00000000000E+00 -0.00000000000E+00 -0.11170320254E+04  0.11170320254E+04  0.00000000000E+00 0. -1.
          6    1    1    2  501    0  0.21907221989E+02 -0.94487839783E+02 -0.10274110178E+04  0.10462147378E+04  0.17200000000E+03 0. -1.
         -6    1    1    2    0  502 -0.21907221989E+02  0.94487839783E+02  0.41297595574E+02  0.20173589081E+03  0.17200000000E+03 0. -1.
</event>
<event>
 4    1  0.6129841E-001  0.1746200E+03  0.7818608E-02  0.1173114E+00
         21   -1    0    0  501  502  0.00000000000E+00  0.00000000000E+00  0.72082283049E+02  0.72082283049E+02  0.00000000000E+00 0. -1.
         21   -1    0    0  502  503 -0.00000000000E+00 -0.00000000000E+00 -0.98424949214E+03  0.98424949214E+03  0.00000000000E+00 0. -1.
          6    1    1    2  501    0 -0.68135341240E+01 -0.29355198041E+02 -0.57252975597E+02  0.18376630571E+03  0.17200000000E+03 0. -1.
         -6    1    1    2    0  503  0.68135341240E+01  0.29355198041E+02 -0.85491423349E+03  0.87256546948E+03  0.17200000000E+03 0. -1.
</event>
<event>
 4    1  0.6129841E-001  0.2375333E+03  0.7818608E-02  0.1121447E+00
         21   -1    0    0  503  502  0.00000000000E+00  0.00000000000E+00  0.17786027345E+03  0.17786027345E+03  0.00000000000E+00 0.  1.
         21   -1    0    0  501  503 -0.00000000000E+00 -0.00000000000E+00 -0.71420978021E+03  0.71420978021E+03  0.00000000000E+00 0.  1.
          6    1    1    2  501    0  0.73182600629E+02 -0.14656859994E+03 -0.60071330869E+03  0.64597099530E+03  0.17200000000E+03 0.  1.
         -6    1    1    2    0  502 -0.73182600629E+02  0.14656859994E+03  0.64363801936E+02  0.24609905836E+03  0.17200000000E+03 0.  1.
</event>
<event>
 4    1  0.6129841E-001  0.1735650E+03  0.7818608E-02  0.1174180E+00
         21   -1    0    0  503  502  0.00000000000E+00  0.00000000000E+00  0.19733635369E+03  0.19733635369E+03  0.00000000000E+00 0.  1.
         21   -1    0    0  501  503 -0.00000000000E+00 -0.00000000000E+00 -0.18165881763E+03  0.18165881763E+03  0.00000000000E+00 0.  1.
          6    1    1    2  501    0 -0.82099265032E+01 -0.21757848492E+02 -0.67877093344E+02  0.18636551898E+03  0.17200000000E+03 0.  1.
         -6    1    1    2    0  502  0.82099265032E+01  0.21757848492E+02  0.83554629411E+02  0.19262965234E+03  0.17200000000E+03 0.  1.
</event>
<event>
 4    1  0.6129841E-001  0.2663677E+03  0.7818608E-02  0.1103377E+00
         21   -1    0    0  501  502  0.00000000000E+00  0.00000000000E+00  0.16616886113E+03  0.16616886113E+03  0.00000000000E+00 0. -1.
         21   -1    0    0  502  503 -0.00000000000E+00 -0.00000000000E+00 -0.20151499952E+04  0.20151499952E+04  0.00000000000E+00 0. -1.
          6    1    1    2  501    0  0.12703064602E+03  0.15884252490E+03  0.43749786246E+02  0.26993661579E+03  0.17200000000E+03 0. -1.
         -6    1    1    2    0  503 -0.12703064602E+03 -0.15884252490E+03 -0.18927309203E+04  0.19113822405E+04  0.17200000000E+03 0. -1.
</event>
<event>
 4    1  0.6129841E-001  0.1778794E+03  0.7818608E-02  0.1169871E+00
         21   -1    0    0  501  502  0.00000000000E+00  0.00000000000E+00  0.90164389113E+02  0.90164389113E+02  0.00000000000E+00 0.  1.
         21   -1    0    0  502  503 -0.00000000000E+00 -0.00000000000E+00 -0.83056867247E+03  0.83056867247E+03  0.00000000000E+00 0. -1.
          6    1    1    2  501    0  0.16722563746E+02  0.42159807598E+02 -0.20358045453E+02  0.17904061978E+03  0.17200000000E+03 0.  1.
         -6    1    1    2    0  503 -0.16722563746E+02 -0.42159807598E+02 -0.72004623790E+03  0.74169244181E+03  0.17200000000E+03 0. -1.
</event>
<event>
 4    1  0.6129841E-001  0.2298251E+03  0.7818608E-02  0.1126763E+00
         21   -1    0    0  503  502  0.00000000000E+00  0.00000000000E+00  0.27048442166E+03  0.27048442166E+03  0.00000000000E+00 0. -1.
         21   -1    0    0  501  503 -0.00000000000E+00 -0.00000000000E+00 -0.28556916104E+03  0.28556916104E+03  0.00000000000E+00 0.  1.
          6    1    1    2  501    0 -0.47086759974E+02 -0.14497731628E+03 -0.16387666164E+03  0.28226786114E+03  0.17200000000E+03 0.  1.
         -6    1    1    2    0  502  0.47086759974E+02  0.14497731628E+03  0.14879192227E+03  0.27378572156E+03  0.17200000000E+03 0. -1.
</event>
<event>
 4    1  0.6129841E-001  0.1954162E+03  0.7818608E-02  0.1153665E+00
         21   -1    0    0  503  502  0.00000000000E+00  0.00000000000E+00  0.15086253326E+03  0.15086253326E+03  0.00000000000E+00 0. -1.
         21   -1    0    0  501  503 -0.00000000000E+00 -0.00000000000E+00 -0.73058521070E+03  0.73058521070E+03  0.00000000000E+00 0. -1.
          6    1    1    2  501    0  0.77482389808E+02 -0.50990056488E+02 -0.64614707789E+03  0.67505077799E+03  0.17200000000E+03 0. -1.
         -6    1    1    2    0  502 -0.77482389808E+02  0.50990056488E+02  0.66424400453E+02  0.20639696598E+03  0.17200000000E+03 0. -1.
</event>
<event>
 4    1  0.6129841E-001  0.2132762E+03  0.7818608E-02  0.1138998E+00
         21   -1    0    0  501  502  0.00000000000E+00  0.00000000000E+00  0.38550117739E+03  0.38550117739E+03  0.00000000000E+00 0.  1.
         21   -1    0    0  502  503 -0.00000000000E+00 -0.00000000000E+00 -0.12649603754E+03  0.12649603754E+03  0.00000000000E+00 0.  1.
          6    1    1    2  501    0 -0.12406685598E+03  0.22586307570E+02  0.19587187474E+03  0.28957299141E+03  0.17200000000E+03 0. -1.
         -6    1    1    2    0  503  0.12406685598E+03 -0.22586307570E+02  0.63133265114E+02  0.22242422351E+03  0.17200000000E+03 0. -1.
</event>
<event>
 4    1  0.6129841E-001  0.2181192E+03  0.7818608E-02  0.1135293E+00
         21   -1    0    0  503  502  0.00000000000E+00  0.00000000000E+00  0.53517484566E+03  0.53517484566E+03  0.00000000000E+00 0.  1.
         21   -1    0    0  501  503 -0.00000000000E+00 -0.00000000000E+00 -0.99465504880E+02  0.99465504880E+02  0.00000000000E+00 0.  1.
          6    1    1    2  501    0  0.12805881915E+03  0.39911344112E+02  0.11442442658E+03  0.24631062898E+03  0.17200000000E+03 0. -1.
         -6    1    1    2    0  502 -0.12805881915E+03 -0.39911344112E+02  0.32128491420E+03  0.38832972156E+03  0.17200000000E+03 0. -1.
</event>
<event>
 4    1  0.6129841E-001  0.2050563E+03  0.7818608E-02  0.1145542E+00
         21   -1    0    0  503  502  0.00000000000E+00  0.00000000000E+00  0.19647127416E+02  0.19647127416E+02  0.00000000000E+00 0. -1.
         21   -1    0    0  501  503 -0.00000000000E+00 -0.00000000000E+00 -0.24037563317E+04  0.24037563317E+04  0.00000000000E+00 0. -1.
          6    1    1    2  501    0 -0.10959341688E+03 -0.21292523221E+02 -0.15933057758E+04  0.16064468195E+04  0.17200000000E+03 0. -1.
         -6    1    1    2    0  502  0.10959341688E+03  0.21292523221E+02 -0.79080342850E+03  0.81695663967E+03  0.17200000000E+03 0. -1.
</event>
<event>
 4    1  0.6129841E-001  0.2855185E+03  0.7818608E-02  0.1092712E+00
         21   -1    0    0  503  502  0.00000000000E+00  0.00000000000E+00  0.49622475112E+03  0.49622475112E+03  0.00000000000E+00 0.  1.
         21   -1    0    0  501  503 -0.00000000000E+00 -0.00000000000E+00 -0.28663786386E+03  0.28663786386E+03  0.00000000000E+00 0. -1.
          6    1    1    2  501    0 -0.22774701833E+03 -0.82528413924E+01 -0.15094799528E+03  0.32296456621E+03  0.17200000000E+03 0. -1.
         -6    1    1    2    0  502  0.22774701833E+03  0.82528413924E+01  0.36053488253E+03  0.45989804877E+03  0.17200000000E+03 0.  1.
</event>
<event>
 4    1  0.6129841E-001  0.1844195E+03  0.7818608E-02  0.1163593E+00
         21   -1    0    0  503  502  0.00000000000E+00  0.00000000000E+00  0.12965103043E+03  0.12965103043E+03  0.00000000000E+00 0.  1.
         21   -1    0    0  501  503 -0.00000000000E+00 -0.00000000000E+00 -0.31348545724E+03  0.31348545724E+03  0.00000000000E+00 0.  1.
          6    1    1    2  501    0 -0.25359935072E+02 -0.61509482515E+02 -0.18142717847E+03  0.25870130234E+03  0.17200000000E+03 0.  1.
         -6    1    1    2    0  502  0.25359935072E+02  0.61509482515E+02 -0.24072483429E+01  0.18443518534E+03  0.17200000000E+03 0.  1.
</event>
<event>
 4    1  0.6129841E-001  0.1873588E+03  0.7818608E-02  0.1160865E+00
         21   -1    0    0  503  502  0.00000000000E+00  0.00000000000E+00  0.41915950575E+03  0.41915950575E+03  0.00000000000E+00 0. -1.
         21   -1    0    0  501  503 -0.00000000000E+00 -0.00000000000E+00 -0.22397829821E+03  0.22397829821E+03  0.00000000000E+00 0. -1.
          6    1    1    2  501    0  0.65983087005E+02  0.34139916402E+02 -0.15685428569E+03  0.24434927584E+03  0.17200000000E+03 0. -1.
         -6    1    1    2    0  502 -0.65983087005E+02 -0.34139916402E+02  0.35203549324E+03  0.39878852812E+03  0.17200000000E+03 0. -1.
</event>
<event>
 4    1  0.6129841E-001  0.1786568E+03  0.7818608E-02  0.1169109E+00
         21   -1    0    0  501  502  0.00000000000E+00  0.00000000000E+00  0.24534519301E+04  0.24534519301E+04  0.00000000000E+00 0.  1.
         21   -1    0    0  502  503 -0.00000000000E+00 -0.00000000000E+00 -0.14927506025E+02  0.14927506025E+02  0.00000000000E+00 0.  1.
          6    1    1    2  501    0  0.38823522502E+02  0.28757573389E+02  0.16616565299E+04  0.16712332834E+04  0.17200000000E+03 0.  1.
         -6    1    1    2    0  503 -0.38823522502E+02 -0.28757573389E+02  0.77686789417E+03  0.79714615280E+03  0.17200000000E+03 0.  1.
</event>
<event>
 4    1  0.6129841E-001  0.2268677E+03  0.7818608E-02  0.1128864E+00
         21   -1    0    0  503  502  0.00000000000E+00  0.00000000000E+00  0.13643905006E+03  0.13643905006E+03  0.00000000000E+00 0.  1.
         21   -1    0    0  501  503 -0.00000000000E+00 -0.00000000000E+00 -0.43984720985E+03  0.43984720985E+03  0.00000000000E+00 0. -1.
          6    1    1    2  501    0  0.66678424891E+02  0.13205665978E+03 -0.26042231738E+03  0.34538204517E+03  0.17200000000E+03 0. -1.
         -6    1    1    2    0  502 -0.66678424891E+02 -0.13205665978E+03 -0.42985842417E+02  0.23090421474E+03  0.17200000000E+03 0. -1.
</event>
<event>
 4    1  0.6129841E-001  0.1935981E+03  0.7818608E-02  0.1155256E+00
         21   -1    0    0  503  502  0.00000000000E+00  0.00000000000E+00  0.27492691902E+03  0.27492691902E+03  0.00000000000E+00 0. -1.
         21   -1    0    0  501  503 -0.00000000000E+00 -0.00000000000E+00 -0.15100743845E+03  0.15100743845E+03  0.00000000000E+00 0. -1.
          6    1    1    2  501    0  0.87201608192E+02  0.17090957959E+02 -0.44404116900E+01  0.19364900870E+03  0.17200000000E+03 0.  1.
         -6    1    1    2    0  502 -0.87201608192E+02 -0.17090957959E+02  0.12835989226E+03  0.23228534878E+03  0.17200000000E+03 0.  1.
</event>
<event>
 4    1  0.6129841E-001  0.3542341E+03  0.7818608E-02  0.1060890E+00
         21   -1    0    0  501  502  0.00000000000E+00  0.00000000000E+00  0.24416396818E+03  0.24416396818E+03  0.00000000000E+00 0.  1.
         21   -1    0    0  502  503 -0.00000000000E+00 -0.00000000000E+00 -0.55984656299E+03  0.55984656299E+03  0.00000000000E+00 0. -1.
          6    1    1    2  501    0 -0.27265835993E+03 -0.14681700413E+03 -0.42705987287E+02  0.35679912457E+03  0.17200000000E+03 0.  1.
         -6    1    1    2    0  503  0.27265835993E+03  0.14681700413E+03 -0.27297660752E+03  0.44721140660E+03  0.17200000000E+03 0. -1.
</event>
<event>
 4    1  0.6129841E-001  0.3199002E+03  0.7818608E-02  0.1075695E+00
         21   -1    0    0  501  502  0.00000000000E+00  0.00000000000E+00  0.13313083370E+03  0.13313083370E+03  0.00000000000E+00 0.  1.
         21   -1    0    0  502  503 -0.00000000000E+00 -0.00000000000E+00 -0.11068887249E+04  0.11068887249E+04  0.00000000000E+00 0. -1.
          6    1    1    2  501    0 -0.14688241922E+03  0.22622480180E+03 -0.14416350469E+03  0.35088348794E+03  0.17200000000E+03 0. -1.
         -6    1    1    2    0  503  0.14688241922E+03 -0.22622480180E+03 -0.82959438655E+03  0.88913607070E+03  0.17200000000E+03 0. -1.
</event>
<event>
 4    1  0.6129841E-001  0.2398400E+03  0.7818608E-02  0.1119899E+00
         21   -1    0    0  503  502  0.00000000000E+00  0.00000000000E+00  0.61160689464E+02  0.61160689464E+02  0.00000000000E+00 0.  1.
         21   -1    0    0  501  503 -0.00000000000E+00 -0.00000000000E+00 -0.11143194498E+04  0.11143194498E+04  0.00000000000E+00 0.  1.
          6    1    1    2  501    0 -0.16637356206E+03  0.16095728357E+02 -0.75869096648E+03  0.79569794347E+03  0.17200000000E+03 0. -1.
         -6    1    1    2    0  502  0.16637356206E+03 -0.16095728357E+02 -0.29446779385E+03  0.37978219579E+03  0.17200000000E+03 0. -1.
</event>
<event>
 4    1  0.6129841E-001  0.2311824E+03  0.7818608E-02  0.1125810E+00
         21   -1    0    0  501  502  0.00000000000E+00  0.00000000000E+00  0.35741068259E+02  0.35741068259E+02  0.00000000000E+00 0.  1.
         21   -1    0    0  502  503 -0.00000000000E+00 -0.00000000000E+00 -0.14958531003E+04  0.14958531003E+04  0.00000000000E+00 0.  1.
          6    1    1    2  501    0 -0.19358923960E+01 -0.15445894508E+03 -0.71597554999E+03  0.75237377784E+03  0.17200000000E+03 0. -1.
         -6    1    1    2    0  503  0.19358923960E+01  0.15445894508E+03 -0.74413648204E+03  0.77922039071E+03  0.17200000000E+03 0. -1.
</event>
<event>
 4    1  0.6129841E-001  0.1802960E+03  0.7818608E-02  0.1167517E+00
         21   -1    0    0  503  502  0.00000000000E+00  0.00000000000E+00  0.53972240819E+02  0.53972240819E+02  0.00000000000E+00 0. -1.
         21   -1    0    0  501  503 -0.00000000000E+00 -0.00000000000E+00 -0.91788818058E+03  0.91788818058E+03  0.00000000000E+00 0. -1.
          6    1    1    2  501    0  0.46696635603E+01  0.53859348016E+02 -0.71689582796E+03  0.73922003712E+03  0.17200000000E+03 0.  1.
         -6    1    1    2    0  502 -0.46696635603E+01 -0.53859348016E+02 -0.14702011180E+03  0.23264038429E+03  0.17200000000E+03 0.  1.
</event>
<event>
 4    1  0.6129841E-001  0.2003394E+03  0.7818608E-02  0.1149453E+00
         21   -1    0    0  503  502  0.00000000000E+00  0.00000000000E+00  0.25714923769E+03  0.25714923769E+03  0.00000000000E+00 0.  1.
         21   -1    0    0  501  503 -0.00000000000E+00 -0.00000000000E+00 -0.15608075487E+03  0.15608075487E+03  0.00000000000E+00 0.  1.
          6    1    1    2  501    0  0.14410573686E+02  0.10170654965E+03  0.50121378855E+02  0.20651401767E+03  0.17200000000E+03 0.  1.
         -6    1    1    2    0  502 -0.14410573686E+02 -0.10170654965E+03  0.50947103962E+02  0.20671597490E+03  0.17200000000E+03 0.  1.
</event>
<event>
 4    1  0.6129841E-001  0.1836722E+03  0.7818608E-02  0.1164296E+00
         21   -1    0    0  501  502  0.00000000000E+00  0.00000000000E+00  0.17819059247E+03  0.17819059247E+03  0.00000000000E+00 0. -1.
         21   -1    0    0  502  503 -0.00000000000E+00 -0.00000000000E+00 -0.24123278300E+03  0.24123278300E+03  0.00000000000E+00 0. -1.
          6    1    1    2  501    0 -0.98372084497E+01 -0.63676649220E+02  0.65760620087E+02  0.19508958322E+03  0.17200000000E+03 0.  1.
         -6    1    1    2    0  503  0.98372084497E+01  0.63676649220E+02 -0.12880281062E+03  0.22433379226E+03  0.17200000000E+03 0.  1.
</event>
<event>
 4    1  0.6129841E-001  0.2235065E+03  0.7818608E-02  0.1131295E+00
         21   -1    0    0  501  502  0.00000000000E+00  0.00000000000E+00  0.20773530585E+03  0.20773530585E+03  0.00000000000E+00 0.  1.
         21   -1    0    0  502  503 -0.00000000000E+00 -0.00000000000E+00 -0.28481266155E+03  0.28481266155E+03  0.00000000000E+00 0. -1.
          6    1    1    2  501    0 -0.96064321247E+02 -0.10555951817E+03  0.58629678512E+02  0.23106839874E+03  0.17200000000E+03 0.  1.
         -6    1    1    2    0  503  0.96064321247E+02  0.10555951817E+03 -0.13570703422E+03  0.26147956866E+03  0.17200000000E+03 0. -1.
</event>
<event>
 4    1  0.6129841E-001  0.2154458E+03  0.7818608E-02  0.1137325E+00
         21   -1    0    0  501  502  0.00000000000E+00  0.00000000000E+00  0.14767476578E+03  0.14767476578E+03  0.00000000000E+00 0.  1.
         21   -1    0    0  502  503 -0.00000000000E+00 -0.00000000000E+00 -0.31568790106E+03  0.31568790106E+03  0.00000000000E+00 0.  1.
          6    1    1    2  501    0  0.59972511185E+02 -0.11504862953E+03 -0.68746705501E+02  0.22614817879E+03  0.17200000000E+03 0. -1.
         -6    1    1    2    0  503 -0.59972511185E+02  0.11504862953E+03 -0.99266429777E+02  0.23721448804E+03  0.17200000000E+03 0. -1.
</event>
<event>
 4    1  0.6129841E-001  0.3418423E+03  0.7818608E-02  0.1066014E+00
         21   -1    0    0  503  502  0.00000000000E+00  0.00000000000E+00  0.68818648526E+03  0.68818648526E+03  0.00000000000E+00 0.  1.
         21   -1    0    0  501  503 -0.00000000000E+00 -0.00000000000E+00 -0.23668290268E+03  0.23668290268E+03  0.00000000000E+00 0. -1.
          6    1    1    2  501    0  0.17063214955E+03  0.24115722503E+03 -0.20066811015E+02  0.34243074417E+03  0.17200000000E+03 0.  1.
         -6    1    1    2    0  502 -0.17063214955E+03 -0.24115722503E+03  0.47157039360E+03  0.58243864378E+03  0.17200000000E+03 0. -1.
</event>
<event>
 4    1  0.6129841E-001  0.1754611E+03  0.7818608E-02  0.1172269E+00
         21   -1    0    0  503  502  0.00000000000E+00  0.00000000000E+00  0.15970548330E+03  0.15970548330E+03  0.00000000000E+00 0.  1.
         21   -1    0    0  501  503 -0.00000000000E+00 -0.00000000000E+00 -0.45323635098E+03  0.45323635098E+03  0.00000000000E+00 0.  1.
          6    1    1    2  501    0  0.24181347715E+02 -0.24857116687E+02 -0.37909352987E+03  0.41773019787E+03  0.17200000000E+03 0.  1.
         -6    1    1    2    0  502 -0.24181347715E+02  0.24857116687E+02  0.85562662191E+02  0.19521163641E+03  0.17200000000E+03 0.  1.
</event>
<event>
 4    1  0.6129841E-001  0.2079966E+03  0.7818608E-02  0.1143162E+00
         21   -1    0    0  503  502  0.00000000000E+00  0.00000000000E+00  0.96847638736E+03  0.96847638736E+03  0.00000000000E+00 0.  1.
         21   -1    0    0  501  503 -0.00000000000E+00 -0.00000000000E+00 -0.82897185330E+02  0.82897185330E+02  0.00000000000E+00 0.  1.
          6    1    1    2  501    0 -0.62323099858E+01  0.11678923688E+03  0.85813564457E+02  0.22500341194E+03  0.17200000000E+03 0.  1.
         -6    1    1    2    0  502  0.62323099858E+01 -0.11678923688E+03  0.79976563757E+03  0.82637016075E+03  0.17200000000E+03 0.  1.
</event>
<event>
 4    1  0.6129841E-001  0.1903901E+03  0.7818608E-02  0.1158110E+00
         21   -1    0    0  501  502  0.00000000000E+00  0.00000000000E+00  0.17758720539E+03  0.17758720539E+03  0.00000000000E+00 0. -1.
         21   -1    0    0  502  503 -0.00000000000E+00 -0.00000000000E+00 -0.32160920923E+03  0.32160920923E+03  0.00000000000E+00 0. -1.
          6    1    1    2  501    0  0.36227817555E+02  0.73157004892E+02  0.78852255525E+02  0.20607299758E+03  0.17200000000E+03 0. -1.
         -6    1    1    2    0  503 -0.36227817555E+02 -0.73157004892E+02 -0.22287425937E+03  0.29312341704E+03  0.17200000000E+03 0. -1.
</event>
<event>
 4    1  0.6129841E-001  0.1738591E+03  0.7818608E-02  0.1173882E+00
         21   -1    0    0  503  502  0.00000000000E+00  0.00000000000E+00  0.97816015575E+03  0.97816015575E+03  0.00000000000E+00 0.  1.
         21   -1    0    0  501  503 -0.00000000000E+00 -0.00000000000E+00 -0.60515130506E+02  0.60515130506E+02  0.00000000000E+00 0.  1.
          6    1    1    2  501    0 -0.16444849577E+02  0.19302057604E+02  0.95526404678E+02  0.19837413263E+03  0.17200000000E+03 0.  1.
         -6    1    1    2    0  502  0.16444849577E+02 -0.19302057604E+02  0.82211862057E+03  0.84030115363E+03  0.17200000000E+03 0.  1.
</event>
<event>
 4    1  0.6129841E-001  0.2026019E+03  0.7818608E-02  0.1147562E+00
         21   -1    0    0  503  502  0.00000000000E+00  0.00000000000E+00  0.89093749334E+03  0.89093749334E+03  0.00000000000E+00 0.  1.
         21   -1    0    0  501  503 -0.00000000000E+00 -0.00000000000E+00 -0.46405333637E+02  0.46405333637E+02  0.00000000000E+00 0.  1.
          6    1    1    2  501    0 -0.76108829278E+02 -0.75305943539E+02  0.38256257074E+03  0.43289913323E+03  0.17200000000E+03 0. -1.
         -6    1    1    2    0  502  0.76108829278E+02  0.75305943539E+02  0.46196958897E+03  0.50444369374E+03  0.17200000000E+03 0. -1.
</event>
<event>
 4    1  0.6129841E-001  0.2689565E+03  0.7818608E-02  0.1101878E+00
         21   -1    0    0  501  502  0.00000000000E+00  0.00000000000E+00  0.87248943911E+02  0.87248943911E+02  0.00000000000E+00 0. -1.
         21   -1    0    0  502  503 -0.00000000000E+00 -0.00000000000E+00 -0.15438217017E+04  0.15438217017E+04  0.00000000000E+00 0.  1.
          6    1    1    2  501    0  0.20645349021E+03  0.11424937050E+02 -0.17338663596E+03  0.32000077865E+03  0.17200000000E+03 0. -1.
         -6    1    1    2    0  503 -0.20645349021E+03 -0.11424937050E+02 -0.12831861218E+04  0.13110698670E+04  0.17200000000E+03 0.  1.
</event>
<event>
 4    1  0.6129841E-001  0.1876799E+03  0.7818608E-02  0.1160571E+00
         21   -1    0    0  503  502  0.00000000000E+00  0.00000000000E+00  0.17764703126E+03  0.17764703126E+03  0.00000000000E+00 0.  1.
         21   -1    0    0  501  503 -0.00000000000E+00 -0.00000000000E+00 -0.22434221147E+03  0.22434221147E+03  0.00000000000E+00 0.  1.
          6    1    1    2  501    0  0.62774686243E+02 -0.41219905425E+02 -0.91855355229E+02  0.20895250207E+03  0.17200000000E+03 0.  1.
         -6    1    1    2    0  502 -0.62774686243E+02  0.41219905425E+02  0.45160175020E+02  0.19303674066E+03  0.17200000000E+03 0.  1.
</event>
<event>
 4    1  0.6129841E-001  0.2678939E+03  0.7818608E-02  0.1102491E+00
         21   -1    0    0  501  502  0.00000000000E+00  0.00000000000E+00  0.23263502648E+03  0.23263502648E+03  0.00000000000E+00 0. -1.
         21   -1    0    0  502  503 -0.00000000000E+00 -0.00000000000E+00 -0.64342643465E+03  0.64342643465E+03  0.00000000000E+00 0. -1.
          6    1    1    2  501    0  0.16634361756E+03  0.12046974495E+03  0.11063692609E+03  0.28984079762E+03  0.17200000000E+03 0. -1.
         -6    1    1    2    0  503 -0.16634361756E+03 -0.12046974495E+03 -0.52142833426E+03  0.58622066351E+03  0.17200000000E+03 0. -1.
</event>
<event>
 4    1  0.6129841E-001  0.2485513E+03  0.7818608E-02  0.1114224E+00
         21   -1    0    0  503  502  0.00000000000E+00  0.00000000000E+00  0.19756518548E+04  0.19756518548E+04  0.00000000000E+00 0.  1.
         21   -1    0    0  501  503 -0.00000000000E+00 -0.00000000000E+00 -0.37801983464E+02  0.37801983464E+02  0.00000000000E+00 0.  1.
          6    1    1    2  501    0  0.10599927970E+03  0.14476849305E+03  0.13874211735E+04  0.14095088778E+04  0.17200000000E+03 0.  1.
         -6    1    1    2    0  502 -0.10599927970E+03 -0.14476849305E+03  0.55042869778E+03  0.60394496042E+03  0.17200000000E+03 0.  1.
</event>
<event>
 4    1  0.6129841E-001  0.1807204E+03  0.7818608E-02  0.1167108E+00
         21   -1    0    0  503  502  0.00000000000E+00  0.00000000000E+00  0.14997681224E+03  0.14997681224E+03  0.00000000000E+00 0. -1.
         21   -1    0    0  501  503 -0.00000000000E+00 -0.00000000000E+00 -0.28595550323E+03  0.28595550323E+03  0.00000000000E+00 0. -1.
          6    1    1    2  501    0  0.38501200970E+02  0.39918805522E+02 -0.17442779471E+03  0.25116709394E+03  0.17200000000E+03 0. -1.
         -6    1    1    2    0  502 -0.38501200970E+02 -0.39918805522E+02  0.38449103722E+02  0.18476522153E+03  0.17200000000E+03 0. -1.
</event>
<event>
 4    1  0.6129841E-001  0.2336382E+03  0.7818608E-02  0.1124105E+00
         21   -1    0    0  503  502  0.00000000000E+00  0.00000000000E+00  0.14750657486E+04  0.14750657486E+04  0.00000000000E+00 0. -1.
         21   -1    0    0  501  503 -0.00000000000E+00 -0.00000000000E+00 -0.57362783965E+02  0.57362783965E+02  0.00000000000E+00 0. -1.
          6    1    1    2  501    0 -0.13000711802E+03 -0.90005337557E+02  0.25240918131E+03  0.34394360923E+03  0.17200000000E+03 0. -1.
         -6    1    1    2    0  502  0.13000711802E+03  0.90005337557E+02  0.11652937834E+04  0.11884849234E+04  0.17200000000E+03 0. -1.
</event>
<event>
 4    1  0.6129841E-001  0.2272900E+03  0.7818608E-02  0.1128562E+00
         21   -1    0    0  501  502  0.00000000000E+00  0.00000000000E+00  0.44209944871E+03  0.44209944871E+03  0.00000000000E+00 0. -1.
         21   -1    0    0  502  503 -0.00000000000E+00 -0.00000000000E+00 -0.30054201462E+03  0.30054201462E+03  0.00000000000E+00 0. -1.
          6    1    1    2  501    0 -0.11928571386E+03 -0.88587025779E+02  0.36107263507E+03  0.42665465012E+03  0.17200000000E+03 0. -1.
         -6    1    1    2    0  503  0.11928571386E+03  0.88587025779E+02 -0.21951520098E+03  0.31598681322E+03  0.17200000000E+03 0. -1.
</event>
<event>
 4    1  0.6129841E-001  0.1997583E+03  0.7818608E-02  0.1149943E+00
         21   -1    0    0  503  502  0.00000000000E+00  0.00000000000E+00  0.76883396417E+03  0.76883396417E+03  0.00000000000E+00 0.  1.
         21   -1    0    0  501  503 -0.00000000000E+00 -0.00000000000E+00 -0.79742932876E+02  0.79742932876E+02  0.00000000000E+00 0.  1.
          6    1    1    2  501    0  0.89907257623E+02  0.47286915849E+02  0.93840154010E+02  0.22070192996E+03  0.17200000000E+03 0.  1.
         -6    1    1    2    0  502 -0.89907257623E+02 -0.47286915849E+02  0.59525087729E+03  0.62787496709E+03  0.17200000000E+03 0.  1.
</event>
<event>
 4    1  0.6129841E-001  0.2485118E+03  0.7818608E-02  0.1114249E+00
         21   -1    0    0  503  502  0.00000000000E+00  0.00000000000E+00  0.21343642492E+03  0.21343642492E+03  0.00000000000E+00 0. -1.
         21   -1    0    0  501  503 -0.00000000000E+00 -0.00000000000E+00 -0.37006368678E+03  0.37006368678E+03  0.00000000000E+00 0.  1.
          6    1    1    2  501    0 -0.64657421314E+02  0.16731272505E+03 -0.21456551504E+03  0.32832375841E+03  0.17200000000E+03 0.  1.
         -6    1    1    2    0  502  0.64657421314E+02 -0.16731272505E+03  0.57938253181E+02  0.25517635328E+03  0.17200000000E+03 0. -1.
</event>
<event>
 4    1  0.6129841E-001  0.2052945E+03  0.7818608E-02  0.1145347E+00
         21   -1    0    0  501  502  0.00000000000E+00  0.00000000000E+00  0.63301199911E+03  0.63301199911E+03  0.00000000000E+00 0. -1.
         21   -1    0    0  502  503 -0.00000000000E+00 -0.00000000000E+00 -0.91824513558E+02  0.91824513558E+02  0.00000000000E+00 0.  1.
          6    1    1    2  501    0 -0.10906932523E+03 -0.25801061374E+02  0.46062103048E+03  0.50429906425E+03  0.17200000000E+03 0. -1.
         -6    1    1    2    0  503  0.10906932523E+03  0.25801061374E+02  0.80566455069E+02  0.22053744842E+03  0.17200000000E+03 0.  1.
</event>
<event>
 4    1  0.6129841E-001  0.1786618E+03  0.7818608E-02  0.1169105E+00
         21   -1    0    0  501  502  0.00000000000E+00  0.00000000000E+00  0.60027136753E+02  0.60027136753E+02  0.00000000000E+00 0. -1.
         21   -1    0    0  502  503 -0.00000000000E+00 -0.00000000000E+00 -0.62399022103E+03  0.62399022103E+03  0.00000000000E+00 0. -1.
          6    1    1    2  501    0  0.24690176444E+02  0.41550191677E+02 -0.15049384042E+03  0.23359884256E+03  0.17200000000E+03 0.  1.
         -6    1    1    2    0  503 -0.24690176444E+02 -0.41550191677E+02 -0.41346924385E+03  0.45041851522E+03  0.17200000000E+03 0.  1.
</event>
<event>
 4    1  0.6129841E-001  0.1901136E+03  0.7818608E-02  0.1158359E+00
         21   -1    0    0  503  502  0.00000000000E+00  0.00000000000E+00  0.46574478747E+02  0.46574478747E+02  0.00000000000E+00 0.  1.
         21   -1    0    0  501  503 -0.00000000000E+00 -0.00000000000E+00 -0.93423941212E+03  0.93423941212E+03  0.00000000000E+00 0.  1.
          6    1    1    2  501    0  0.66427163705E+02  0.46331697892E+02 -0.64564290807E+03  0.67305123062E+03  0.17200000000E+03 0.  1.
         -6    1    1    2    0  502 -0.66427163705E+02 -0.46331697892E+02 -0.24202202531E+03  0.30776266025E+03  0.17200000000E+03 0.  1.
</event>
<event>
 4    1  0.6129841E-001  0.1927665E+03  0.7818608E-02  0.1155990E+00
         21   -1    0    0  503  502  0.00000000000E+00  0.00000000000E+00  0.36112972425E+02  0.36112972425E+02  0.00000000000E+00 0. -1.
         21   -1    0    0  501  503 -0.00000000000E+00 -0.00000000000E+00 -0.12693409269E+04  0.12693409269E+04  0.00000000000E+00 0. -1.
          6    1    1    2  501    0 -0.61733818648E+02 -0.61350225917E+02 -0.90066060764E+03  0.92105832863E+03  0.17200000000E+03 0. -1.
         -6    1    1    2    0  502  0.61733818648E+02  0.61350225917E+02 -0.33256734679E+03  0.38439557066E+03  0.17200000000E+03 0. -1.
</event>
<event>
 4    1  0.6129841E-001  0.2560543E+03  0.7818608E-02  0.1109537E+00
         21   -1    0    0  501  502  0.00000000000E+00  0.00000000000E+00  0.35148472155E+03  0.35148472155E+03  0.00000000000E+00 0. -1.
         21   -1    0    0  502  503 -0.00000000000E+00 -0.00000000000E+00 -0.26144478752E+03  0.26144478752E+03  0.00000000000E+00 0. -1.
          6    1    1    2  501    0 -0.39312408279E+02 -0.18556496104E+03  0.20906495909E+03  0.33056312155E+03  0.17200000000E+03 0. -1.
         -6    1    1    2    0  503  0.39312408279E+02  0.18556496104E+03 -0.11902502506E+03  0.28236638752E+03  0.17200000000E+03 0. -1.
</event>
<event>
 4    1  0.6129841E-001  0.2314805E+03  0.7818608E-02  0.1125602E+00
         21   -1    0    0  503  502  0.00000000000E+00  0.00000000000E+00  0.38989274712E+03  0.38989274712E+03  0.00000000000E+00 0.  1.
         21   -1    0    0  501  503 -0.00000000000E+00 -0.00000000000E+00 -0.14363507312E+03  0.14363507312E+03  0.00000000000E+00 0. -1.
          6    1    1    2  501    0 -0.13956422226E+03  0.67238714426E+02  0.67685770530E+02  0.24117334095E+03  0.17200000000E+03 0.  1.
         -6    1    1    2    0  502  0.13956422226E+03 -0.67238714426E+02  0.17857190347E+03  0.29235447929E+03  0.17200000000E+03 0.  1.
</event>
<event>
 4    1  0.6129841E-001  0.2012906E+03  0.7818608E-02  0.1148655E+00
         21   -1    0    0  503  502  0.00000000000E+00  0.00000000000E+00  0.13444136164E+04  0.13444136164E+04  0.00000000000E+00 0. -1.
         21   -1    0    0  501  503 -0.00000000000E+00 -0.00000000000E+00 -0.42957554898E+02  0.42957554898E+02  0.00000000000E+00 0.  1.
          6    1    1    2  501    0 -0.86651226066E+02 -0.58527467854E+02  0.27177983241E+03  0.33820434175E+03  0.17200000000E+03 0.  1.
         -6    1    1    2    0  502  0.86651226066E+02  0.58527467854E+02  0.10296762291E+04  0.10491668295E+04  0.17200000000E+03 0. -1.
</event>
<event>
 4    1  0.6129841E-001  0.2240695E+03  0.7818608E-02  0.1130885E+00
         21   -1    0    0  501  502  0.00000000000E+00  0.00000000000E+00  0.16073010940E+03  0.16073010940E+03  0.00000000000E+00 0. -1.
         21   -1    0    0  502  503 -0.00000000000E+00 -0.00000000000E+00 -0.31273510383E+03  0.31273510383E+03  0.00000000000E+00 0.  1.
          6    1    1    2  501    0 -0.10706464472E+03  0.95709381858E+02 -0.84100849669E+02  0.23933256536E+03  0.17200000000E+03 0.  1.
         -6    1    1    2    0  503  0.10706464472E+03 -0.95709381858E+02 -0.67904144767E+02  0.23413264788E+03  0.17200000000E+03 0. -1.
</event>
<event>
 4    1  0.6129841E-001  0.3344122E+03  0.7818608E-02  0.1069201E+00
         21   -1    0    0  501  502  0.00000000000E+00  0.00000000000E+00  0.31679976628E+03  0.31679976628E+03  0.00000000000E+00 0. -1.
         21   -1    0    0  502  503 -0.00000000000E+00 -0.00000000000E+00 -0.40689974388E+03  0.40689974388E+03  0.00000000000E+00 0. -1.
          6    1    1    2  501    0  0.98139553559E+02  0.26947386915E+03  0.86642923621E+02  0.34545409875E+03  0.17200000000E+03 0.  1.
         -6    1    1    2    0  503 -0.98139553559E+02 -0.26947386915E+03 -0.17674290122E+03  0.37824541142E+03  0.17200000000E+03 0.  1.
</event>
<event>
 4    1  0.6129841E-001  0.1720903E+03  0.7818608E-02  0.1175685E+00
         21   -1    0    0  501  502  0.00000000000E+00  0.00000000000E+00  0.81855541930E+03  0.81855541930E+03  0.00000000000E+00 0. -1.
         21   -1    0    0  502  503 -0.00000000000E+00 -0.00000000000E+00 -0.36204398443E+02  0.36204398443E+02  0.00000000000E+00 0. -1.
          6    1    1    2  501    0  0.55188928954E+01 -0.79283100131E+00  0.38001207948E+03  0.41716215949E+03  0.17200000000E+03 0. -1.
         -6    1    1    2    0  503 -0.55188928954E+01  0.79283100131E+00  0.40233894138E+03  0.43759765825E+03  0.17200000000E+03 0. -1.
</event>
<event>
 4    1  0.6129841E-001  0.1865286E+03  0.7818608E-02  0.1161630E+00
         21   -1    0    0  501  502  0.00000000000E+00  0.00000000000E+00  0.35770202205E+03  0.35770202205E+03  0.00000000000E+00 0. -1.
         21   -1    0    0  502  503 -0.00000000000E+00 -0.00000000000E+00 -0.10803861530E+03  0.10803861530E+03  0.00000000000E+00 0. -1.
          6    1    1    2  501    0  0.51930552315E+02 -0.50121390027E+02  0.19835860381E+03  0.27228490907E+03  0.17200000000E+03 0.  1.
         -6    1    1    2    0  503 -0.51930552315E+02  0.50121390027E+02  0.51304802942E+02  0.19345572829E+03  0.17200000000E+03 0.  1.
</event>
<event>
 4    1  0.6129841E-001  0.2238510E+03  0.7818608E-02  0.1131044E+00
         21   -1    0    0  501  502  0.00000000000E+00  0.00000000000E+00  0.65724743563E+03  0.65724743563E+03  0.00000000000E+00 0.  1.
         21   -1    0    0  502  503 -0.00000000000E+00 -0.00000000000E+00 -0.31174948276E+03  0.31174948276E+03  0.00000000000E+00 0. -1.
          6    1    1    2  501    0  0.32757601195E+02  0.13947125359E+03  0.59385619053E+03  0.63464514971E+03  0.17200000000E+03 0.  1.
         -6    1    1    2    0  503 -0.32757601195E+02 -0.13947125359E+03 -0.24835823766E+03  0.33435176869E+03  0.17200000000E+03 0. -1.
</event>
<event>
 4    1  0.6129841E-001  0.3118791E+03  0.7818608E-02  0.1079449E+00
         21   -1    0    0  503  502  0.00000000000E+00  0.00000000000E+00  0.44305187563E+03  0.44305187563E+03  0.00000000000E+00 0.  1.
         21   -1    0    0  501  503 -0.00000000000E+00 -0.00000000000E+00 -0.25757539129E+03  0.25757539129E+03  0.00000000000E+00 0. -1.
          6    1    1    2  501    0  0.23063507617E+03  0.12038278480E+03 -0.41874641897E+02  0.31467767456E+03  0.17200000000E+03 0.  1.
         -6    1    1    2    0  502 -0.23063507617E+03 -0.12038278480E+03  0.22735112623E+03  0.38594959235E+03  0.17200000000E+03 0.  1.
</event>
<event>
 4    1  0.6129841E-001  0.2283069E+03  0.7818608E-02  0.1127837E+00
         21   -1    0    0  501  502  0.00000000000E+00  0.00000000000E+00  0.85686307961E+02  0.85686307961E+02  0.00000000000E+00 0.  1.
         21   -1    0    0  502  503 -0.00000000000E+00 -0.00000000000E+00 -0.63532324968E+03  0.63532324968E+03  0.00000000000E+00 0.  1.
          6    1    1    2  501    0  0.14777461150E+03 -0.26508251309E+02 -0.20048495180E+03  0.30383916649E+03  0.17200000000E+03 0.  1.
         -6    1    1    2    0  503 -0.14777461150E+03  0.26508251309E+02 -0.34915198992E+03  0.41717039116E+03  0.17200000000E+03 0.  1.
</event>
<event>
 4    1  0.6129841E-001  0.2554415E+03  0.7818608E-02  0.1109913E+00
         21   -1    0    0  501  502  0.00000000000E+00  0.00000000000E+00  0.89314813053E+03  0.89314813053E+03  0.00000000000E+00 0. -1.
         21   -1    0    0  502  503 -0.00000000000E+00 -0.00000000000E+00 -0.77837356512E+02  0.77837356512E+02  0.00000000000E+00 0. -1.
          6    1    1    2  501    0 -0.18430112297E+03  0.41224367762E+02  0.52797535075E+03  0.58652222757E+03  0.17200000000E+03 0. -1.
         -6    1    1    2    0  503  0.18430112297E+03 -0.41224367762E+02  0.28733542326E+03  0.38446325948E+03  0.17200000000E+03 0. -1.
</event>
<event>
 4    1  0.6129841E-001  0.1844109E+03  0.7818608E-02  0.1163601E+00
         21   -1    0    0  503  502  0.00000000000E+00  0.00000000000E+00  0.55421934950E+02  0.55421934950E+02  0.00000000000E+00 0. -1.
         21   -1    0    0  501  503 -0.00000000000E+00 -0.00000000000E+00 -0.14404579126E+04  0.14404579126E+04  0.00000000000E+00 0. -1.
          6    1    1    2  501    0  0.59780685174E+02  0.29148556936E+02 -0.12591872408E+04  0.12726192974E+04  0.17200000000E+03 0. -1.
         -6    1    1    2    0  502 -0.59780685174E+02 -0.29148556936E+02 -0.12584873685E+03  0.22326055016E+03  0.17200000000E+03 0. -1.
</event>
<event>
 4    1  0.6129841E-001  0.3942240E+03  0.7818608E-02  0.1045798E+00
         21   -1    0    0  501  502  0.00000000000E+00  0.00000000000E+00  0.18454841915E+03  0.18454841915E+03  0.00000000000E+00 0. -1.
         21   -1    0    0  502  503 -0.00000000000E+00 -0.00000000000E+00 -0.12520227609E+04  0.12520227609E+04  0.00000000000E+00 0.  1.
          6    1    1    2  501    0 -0.23570030136E+03  0.26509233437E+03 -0.94472556704E+03  0.10236791367E+04  0.17200000000E+03 0.  1.
         -6    1    1    2    0  503  0.23570030136E+03 -0.26509233437E+03 -0.12274877469E+03  0.41289204339E+03  0.17200000000E+03 0. -1.
</event>
<event>
 4    1  0.6129841E-001  0.1753637E+03  0.7818608E-02  0.1172367E+00
         21   -1    0    0  501  502  0.00000000000E+00  0.00000000000E+00  0.33502761693E+03  0.33502761693E+03  0.00000000000E+00 0.  1.
         21   -1    0    0  502  503 -0.00000000000E+00 -0.00000000000E+00 -0.97107566455E+02  0.97107566455E+02  0.00000000000E+00 0.  1.
          6    1    1    2  501    0  0.27703113469E+02 -0.20023718772E+02  0.68401789939E+02  0.18823181632E+03  0.17200000000E+03 0.  1.
         -6    1    1    2    0  503 -0.27703113469E+02  0.20023718772E+02  0.16951826054E+03  0.24390336706E+03  0.17200000000E+03 0.  1.
</event>
<event>
 4    1  0.6129841E-001  0.1840849E+03  0.7818608E-02  0.1163907E+00
         21   -1    0    0  503  502  0.00000000000E+00  0.00000000000E+00  0.20619391767E+03  0.20619391767E+03  0.00000000000E+00 0.  1.
         21   -1    0    0  501  503 -0.00000000000E+00 -0.00000000000E+00 -0.16753753204E+03  0.16753753204E+03  0.00000000000E+00 0.  1.
          6    1    1    2  501    0  0.60033573706E+02 -0.26442443566E+02 -0.64613962254E+01  0.18419821507E+03  0.17200000000E+03 0. -1.
         -6    1    1    2    0  502 -0.60033573706E+02  0.26442443566E+02  0.45117781856E+02  0.18953323464E+03  0.17200000000E+03 0. -1.
</event>
<event>
 4    1  0.6129841E-001  0.1925671E+03  0.7818608E-02  0.1156166E+00
         21   -1    0    0  501  502  0.00000000000E+00  0.00000000000E+00  0.16297334531E+03  0.16297334531E+03  0.00000000000E+00 0. -1.
         21   -1    0    0  502  503 -0.00000000000E+00 -0.00000000000E+00 -0.22826296221E+03  0.22826296221E+03  0.00000000000E+00 0. -1.
          6    1    1    2  501    0  0.82354488984E+01  0.86198913739E+02 -0.43694861923E+02  0.19746218956E+03  0.17200000000E+03 0. -1.
         -6    1    1    2    0  503 -0.82354488984E+01 -0.86198913739E+02 -0.21594754976E+02  0.19377411796E+03  0.17200000000E+03 0. -1.
</event>
<event>
 4    1  0.6129841E-001  0.2251681E+03  0.7818608E-02  0.1130088E+00
         21   -1    0    0  501  502  0.00000000000E+00  0.00000000000E+00  0.45024786447E+03  0.45024786447E+03  0.00000000000E+00 0. -1.
         21   -1    0    0  502  503 -0.00000000000E+00 -0.00000000000E+00 -0.12248896631E+03  0.12248896631E+03  0.00000000000E+00 0.  1.
          6    1    1    2  501    0 -0.28909245248E+02 -0.14241120469E+03  0.82537203450E+02  0.23981886005E+03  0.17200000000E+03 0.  1.
         -6    1    1    2    0  503  0.28909245248E+02  0.14241120469E+03  0.24522169471E+03  0.33291797074E+03  0.17200000000E+03 0. -1.
</event>
<event>
 4    1  0.6129841E-001  0.2772463E+03  0.7818608E-02  0.1097202E+00
         21   -1    0    0  501  502  0.00000000000E+00  0.00000000000E+00  0.25347252148E+03  0.25347252148E+03  0.00000000000E+00 0. -1.
         21   -1    0    0  502  503 -0.00000000000E+00 -0.00000000000E+00 -0.41941278901E+03  0.41941278901E+03  0.00000000000E+00 0.  1.
          6    1    1    2  501    0  0.87089054629E+02 -0.19924114545E+03  0.94091214533E+02  0.29277755059E+03  0.17200000000E+03 0. -1.
         -6    1    1    2    0  503 -0.87089054629E+02  0.19924114545E+03 -0.26003148206E+03  0.38010775990E+03  0.17200000000E+03 0. -1.
</event>
<event>
 4    1  0.6129841E-001  0.1752021E+03  0.7818608E-02  0.1172529E+00
         21   -1    0    0  503  502  0.00000000000E+00  0.00000000000E+00  0.13299869544E+03  0.13299869544E+03  0.00000000000E+00 0. -1.
         21   -1    0    0  501  503 -0.00000000000E+00 -0.00000000000E+00 -0.27256137342E+03  0.27256137342E+03  0.00000000000E+00 0.  1.
          6    1    1    2  501    0 -0.85334159475E+01  0.32233054004E+02 -0.14915794803E+03  0.23009537679E+03  0.17200000000E+03 0.  1.
         -6    1    1    2    0  502  0.85334159475E+01 -0.32233054004E+02  0.95952700432E+01  0.17546469208E+03  0.17200000000E+03 0. -1.
</event>
<event>
 4    1  0.6129841E-001  0.1816342E+03  0.7818608E-02  0.1166231E+00
         21   -1    0    0  503  502  0.00000000000E+00  0.00000000000E+00  0.36598079902E+03  0.36598079902E+03  0.00000000000E+00 0.  1.
         21   -1    0    0  501  503 -0.00000000000E+00 -0.00000000000E+00 -0.99678130523E+02  0.99678130523E+02  0.00000000000E+00 0.  1.
          6    1    1    2  501    0 -0.17643133344E+02  0.55639132815E+02  0.61143907226E+02  0.19164960382E+03  0.17200000000E+03 0. -1.
         -6    1    1    2    0  502  0.17643133344E+02 -0.55639132815E+02  0.20515876127E+03  0.27400932572E+03  0.17200000000E+03 0. -1.
</event>
<event>
 4    1  0.6129841E-001  0.1910833E+03  0.7818608E-02  0.1157488E+00
         21   -1    0    0  503  502  0.00000000000E+00  0.00000000000E+00  0.12137443700E+03  0.12137443700E+03  0.00000000000E+00 0.  1.
         21   -1    0    0  501  503 -0.00000000000E+00 -0.00000000000E+00 -0.42521166591E+03  0.42521166591E+03  0.00000000000E+00 0. -1.
          6    1    1    2  501    0 -0.13959944048E+02  0.82060675324E+02 -0.29972990324E+03  0.35545864649E+03  0.17200000000E+03 0. -1.
         -6    1    1    2    0  502  0.13959944048E+02 -0.82060675324E+02 -0.41073256818E+01  0.19112745642E+03  0.17200000000E+03 0.  1.
</event>
<event>
 4    1  0.6129841E-001  0.1866996E+03  0.7818608E-02  0.1161472E+00
         21   -1    0    0  501  502  0.00000000000E+00  0.00000000000E+00  0.49921892718E+03  0.49921892718E+03  0.00000000000E+00 0.  1.
         21   -1    0    0  502  503 -0.00000000000E+00 -0.00000000000E+00 -0.12847747871E+03  0.12847747871E+03  0.00000000000E+00 0.  1.
          6    1    1    2  501    0  0.29488456048E+02 -0.66356462426E+02  0.39743051100E+03  0.43909880463E+03  0.17200000000E+03 0.  1.
         -6    1    1    2    0  503 -0.29488456048E+02  0.66356462426E+02 -0.26689062539E+02  0.18859760127E+03  0.17200000000E+03 0.  1.
</event>
<event>
 4    1  0.6129841E-001  0.1800703E+03  0.7818608E-02  0.1167735E+00
         21   -1    0    0  503  502  0.00000000000E+00  0.00000000000E+00  0.22303957597E+04  0.22303957597E+04  0.00000000000E+00 0.  1.
         21   -1    0    0  501  503 -0.00000000000E+00 -0.00000000000E+00 -0.27030253725E+02  0.27030253725E+02  0.00000000000E+00 0.  1.
          6    1    1    2  501    0 -0.53277221173E+02 -0.16898085454E+01  0.33435618263E+03  0.37976226065E+03  0.17200000000E+03 0. -1.
         -6    1    1    2    0  502  0.53277221173E+02  0.16898085454E+01  0.18690093234E+04  0.18776637528E+04  0.17200000000E+03 0. -1.
</event>
<event>
 4    1  0.6129841E-001  0.1825522E+03  0.7818608E-02  0.1165356E+00
         21   -1    0    0  503  502  0.00000000000E+00  0.00000000000E+00  0.87916383730E+03  0.87916383730E+03  0.00000000000E+00 0. -1.
         21   -1    0    0  501  503 -0.00000000000E+00 -0.00000000000E+00 -0.38599668963E+02  0.38599668963E+02  0.00000000000E+00 0.  1.
          6    1    1    2  501    0  0.53854860902E+02  0.28999092361E+02  0.48181234087E+03  0.51523628096E+03  0.17200000000E+03 0. -1.
         -6    1    1    2    0  502 -0.53854860902E+02 -0.28999092361E+02  0.35875182746E+03  0.40252722530E+03  0.17200000000E+03 0. -1.
</event>
<event>
 4    1  0.6129841E-001  0.1976150E+03  0.7818608E-02  0.1151767E+00
         21   -1    0    0  503  502  0.00000000000E+00  0.00000000000E+00  0.15932505465E+03  0.15932505465E+03  0.00000000000E+00 0. -1.
         21   -1    0    0  501  503 -0.00000000000E+00 -0.00000000000E+00 -0.53546062034E+03  0.53546062034E+03  0.00000000000E+00 0. -1.
          6    1    1    2  501    0  0.96905862051E+02 -0.87711250879E+01 -0.44387968630E+03  0.48588152326E+03  0.17200000000E+03 0. -1.
         -6    1    1    2    0  502 -0.96905862051E+02  0.87711250879E+01  0.67744120611E+02  0.20890415174E+03  0.17200000000E+03 0. -1.
</event>
<event>
 4    1  0.6129841E-001  0.1876503E+03  0.7818608E-02  0.1160598E+00
         21   -1    0    0  503  502  0.00000000000E+00  0.00000000000E+00  0.23573683574E+03  0.23573683574E+03  0.00000000000E+00 0. -1.
         21   -1    0    0  501  503 -0.00000000000E+00 -0.00000000000E+00 -0.24895747337E+03  0.24895747337E+03  0.00000000000E+00 0. -1.
          6    1    1    2  501    0 -0.49622678771E+02  0.56269236155E+02  0.14666488684E+03  0.23816638347E+03  0.17200000000E+03 0.  1.
         -6    1    1    2    0  502  0.49622678771E+02 -0.56269236155E+02 -0.15988552446E+03  0.24652792564E+03  0.17200000000E+03 0.  1.
</event>
<event>
 4    1  0.6129841E-001  0.1765729E+03  0.7818608E-02  0.1171162E+00
         21   -1    0    0  501  502  0.00000000000E+00  0.00000000000E+00  0.82236665381E+02  0.82236665381E+02  0.00000000000E+00 0. -1.
         21   -1    0    0  502  503 -0.00000000000E+00 -0.00000000000E+00 -0.46126015105E+03  0.46126015105E+03  0.00000000000E+00 0. -1.
          6    1    1    2  501    0 -0.32999960640E+02  0.22472182100E+02 -0.74839605308E+02  0.19177842134E+03  0.17200000000E+03 0. -1.
         -6    1    1    2    0  503  0.32999960640E+02 -0.22472182100E+02 -0.30418388036E+03  0.35171839508E+03  0.17200000000E+03 0. -1.
</event>
<event>
 4    1  0.6129841E-001  0.1778594E+03  0.7818608E-02  0.1169891E+00
         21   -1    0    0  501  502  0.00000000000E+00  0.00000000000E+00  0.11528028167E+03  0.11528028167E+03  0.00000000000E+00 0.  1.
         21   -1    0    0  502  503 -0.00000000000E+00 -0.00000000000E+00 -0.27660788531E+03  0.27660788531E+03  0.00000000000E+00 0.  1.
          6    1    1    2  501    0  0.35863156890E+01 -0.45134402913E+02 -0.98133128695E+02  0.20313563679E+03  0.17200000000E+03 0. -1.
         -6    1    1    2    0  503 -0.35863156890E+01  0.45134402913E+02 -0.63194474944E+02  0.18875253018E+03  0.17200000000E+03 0. -1.
</event>
<event>
 4    1  0.6129841E-001  0.1780730E+03  0.7818608E-02  0.1169681E+00
         21   -1    0    0  501  502  0.00000000000E+00  0.00000000000E+00  0.66640923943E+03  0.66640923943E+03  0.00000000000E+00 0. -1.
         21   -1    0    0  502  503 -0.00000000000E+00 -0.00000000000E+00 -0.53185292897E+02  0.53185292897E+02  0.00000000000E+00 0. -1.
          6    1    1    2  501    0  0.43935429279E+02  0.13988413961E+02  0.42338179842E+03  0.45930615596E+03  0.17200000000E+03 0. -1.
         -6    1    1    2    0  503 -0.43935429279E+02 -0.13988413961E+02  0.18984214812E+03  0.26028837637E+03  0.17200000000E+03 0. -1.
</event>
<event>
 4    1  0.6129841E-001  0.1727938E+03  0.7818608E-02  0.1174965E+00
         21   -1    0    0  503  502  0.00000000000E+00  0.00000000000E+00  0.13599808026E+02  0.13599808026E+02  0.00000000000E+00 0. -1.
         21   -1    0    0  501  503 -0.00000000000E+00 -0.00000000000E+00 -0.22537643496E+04  0.22537643496E+04  0.00000000000E+00 0. -1.
          6    1    1    2  501    0 -0.98188062230E+01 -0.13314875621E+02 -0.13024406610E+04  0.13138528724E+04  0.17200000000E+03 0. -1.
         -6    1    1    2    0  502  0.98188062230E+01  0.13314875621E+02 -0.93772388054E+03  0.95351128520E+03  0.17200000000E+03 0. -1.
</event>
<event>
 4    1  0.6129841E-001  0.1840443E+03  0.7818608E-02  0.1163945E+00
         21   -1    0    0  501  502  0.00000000000E+00  0.00000000000E+00  0.97800711128E+03  0.97800711128E+03  0.00000000000E+00 0.  1.
         21   -1    0    0  502  503 -0.00000000000E+00 -0.00000000000E+00 -0.38317482155E+02  0.38317482155E+02  0.00000000000E+00 0.  1.
          6    1    1    2  501    0  0.11524777023E+02  0.64463091383E+02  0.62739992642E+03  0.65383711910E+03  0.17200000000E+03 0. -1.
         -6    1    1    2    0  503 -0.11524777023E+02 -0.64463091383E+02  0.31228970270E+03  0.36248747433E+03  0.17200000000E+03 0. -1.
</event>
<event>
 4    1  0.6129841E-001  0.1795797E+03  0.7818608E-02  0.1168210E+00
         21   -1    0    0  501  502  0.00000000000E+00  0.00000000000E+00  0.48214385883E+02  0.48214385883E+02  0.00000000000E+00 0. -1.
         21   -1    0    0  502  503 -0.00000000000E+00 -0.00000000000E+00 -0.66901311999E+03  0.66901311999E+03  0.00000000000E+00 0. -1.
          6    1    1    2  501    0 -0.52519055659E+01 -0.51354550492E+02 -0.30504737650E+03  0.35398131911E+03  0.17200000000E+03 0. -1.
         -6    1    1    2    0  503  0.52519055659E+01  0.51354550492E+02 -0.31575135761E+03  0.36324618676E+03  0.17200000000E+03 0. -1.
</event>
<event>
 4    1  0.6129841E-001  0.1781251E+03  0.7818608E-02  0.1169630E+00
         21   -1    0    0  503  502  0.00000000000E+00  0.00000000000E+00  0.39284829157E+03  0.39284829157E+03  0.00000000000E+00 0. -1.
         21   -1    0    0  501  503 -0.00000000000E+00 -0.00000000000E+00 -0.80774916863E+02  0.80774916863E+02  0.00000000000E+00 0. -1.
          6    1    1    2  501    0  0.18861849455E+02  0.42293873304E+02  0.15346336280E+03  0.23511602414E+03  0.17200000000E+03 0. -1.
         -6    1    1    2    0  502 -0.18861849455E+02 -0.42293873304E+02  0.15861001191E+03  0.23850718430E+03  0.17200000000E+03 0. -1.
</event>
<event>
 4    1  0.6129841E-001  0.1924153E+03  0.7818608E-02  0.1156301E+00
         21   -1    0    0  501  502  0.00000000000E+00  0.00000000000E+00  0.12674387838E+03  0.12674387838E+03  0.00000000000E+00 0.  1.
         21   -1    0    0  502  503 -0.00000000000E+00 -0.00000000000E+00 -0.29386641916E+03  0.29386641916E+03  0.00000000000E+00 0.  1.
          6    1    1    2  501    0 -0.61711779394E+01  0.86032265308E+02 -0.67319981563E+02  0.20385194144E+03  0.17200000000E+03 0. -1.
         -6    1    1    2    0  503  0.61711779394E+01 -0.86032265308E+02 -0.99802559220E+02  0.21675835610E+03  0.17200000000E+03 0. -1.
</event>
<event>
 4    1  0.6129841E-001  0.1753275E+03  0.7818608E-02  0.1172403E+00
         21   -1    0    0  501  502  0.00000000000E+00  0.00000000000E+00  0.45878195410E+03  0.45878195410E+03  0.00000000000E+00 0. -1.
         21   -1    0    0  502  503 -0.00000000000E+00 -0.00000000000E+00 -0.72112068316E+02  0.72112068316E+02  0.00000000000E+00 0. -1.
          6    1    1    2  501    0  0.22633891079E+02 -0.25365759615E+02  0.26399102968E+03  0.31690847029E+03  0.17200000000E+03 0. -1.
         -6    1    1    2    0  503 -0.22633891079E+02  0.25365759615E+02  0.12267885610E+03  0.21398555213E+03  0.17200000000E+03 0. -1.
</event>
<event>
 4    1  0.6129841E-001  0.1793410E+03  0.7818608E-02  0.1168442E+00
         21   -1    0    0  503  502  0.00000000000E+00  0.00000000000E+00  0.68082950673E+03  0.68082950673E+03  0.00000000000E+00 0. -1.
         21   -1    0    0  501  503 -0.00000000000E+00 -0.00000000000E+00 -0.57554144993E+02  0.57554144993E+02  0.00000000000E+00 0.  1.
          6    1    1    2  501    0 -0.17455661037E+01  0.50755800849E+02  0.15535701042E+03  0.23727410100E+03  0.17200000000E+03 0.  1.
         -6    1    1    2    0  502  0.17455661037E+01 -0.50755800849E+02  0.46791835132E+03  0.50110955072E+03  0.17200000000E+03 0. -1.
</event>
<event>
 4    1  0.6129841E-001  0.3432998E+03  0.7818608E-02  0.1065399E+00
         21   -1    0    0  503  502  0.00000000000E+00  0.00000000000E+00  0.16050913500E+03  0.16050913500E+03  0.00000000000E+00 0.  1.
         21   -1    0    0  501  503 -0.00000000000E+00 -0.00000000000E+00 -0.19004083695E+04  0.19004083695E+04  0.00000000000E+00 0. -1.
          6    1    1    2  501    0 -0.29641308341E+03  0.20249728084E+02 -0.16771564456E+04  0.17119312225E+04  0.17200000000E+03 0. -1.
         -6    1    1    2    0  502  0.29641308341E+03 -0.20249728084E+02 -0.62742788950E+02  0.34898628206E+03  0.17200000000E+03 0.  1.
</event>
<event>
 4    1  0.6129841E-001  0.1781375E+03  0.7818608E-02  0.1169618E+00
         21   -1    0    0  503  502  0.00000000000E+00  0.00000000000E+00  0.16145980176E+03  0.16145980176E+03  0.00000000000E+00 0.  1.
         21   -1    0    0  501  503 -0.00000000000E+00 -0.00000000000E+00 -0.21369414266E+03  0.21369414266E+03  0.00000000000E+00 0.  1.
          6    1    1    2  501    0 -0.45814310639E+02  0.70716310223E+01 -0.79266181973E+02  0.19497714386E+03  0.17200000000E+03 0. -1.
         -6    1    1    2    0  502  0.45814310639E+02 -0.70716310223E+01  0.27031841073E+02  0.18017680055E+03  0.17200000000E+03 0. -1.
</event>
<event>
 4    1  0.6129841E-001  0.1873896E+03  0.7818608E-02  0.1160837E+00
         21   -1    0    0  503  502  0.00000000000E+00  0.00000000000E+00  0.42139722384E+02  0.42139722384E+02  0.00000000000E+00 0. -1.
         21   -1    0    0  501  503 -0.00000000000E+00 -0.00000000000E+00 -0.10034923249E+04  0.10034923249E+04  0.00000000000E+00 0. -1.
          6    1    1    2  501    0 -0.57495233752E+02  0.47171610528E+02 -0.69598765513E+03  0.72077297316E+03  0.17200000000E+03 0. -1.
         -6    1    1    2    0  502  0.57495233752E+02 -0.47171610528E+02 -0.26536494743E+03  0.32485907416E+03  0.17200000000E+03 0. -1.
</event>
<event>
 4    1  0.6129841E-001  0.2535707E+03  0.7818608E-02  0.1111069E+00
         21   -1    0    0  501  502  0.00000000000E+00  0.00000000000E+00  0.51266238011E+02  0.51266238011E+02  0.00000000000E+00 0. -1.
         21   -1    0    0  502  503 -0.00000000000E+00 -0.00000000000E+00 -0.12959657048E+04  0.12959657048E+04  0.00000000000E+00 0. -1.
          6    1    1    2  501    0 -0.10401523191E+03  0.15457978965E+03 -0.74327837297E+03  0.78534121219E+03  0.17200000000E+03 0. -1.
         -6    1    1    2    0  503  0.10401523191E+03 -0.15457978965E+03 -0.50142109385E+03  0.56189073065E+03  0.17200000000E+03 0. -1.
</event>
<event>
 4    1  0.6129841E-001  0.1788334E+03  0.7818608E-02  0.1168937E+00
         21   -1    0    0  501  502  0.00000000000E+00  0.00000000000E+00  0.43726038378E+03  0.43726038378E+03  0.00000000000E+00 0.  1.
         21   -1    0    0  502  503 -0.00000000000E+00 -0.00000000000E+00 -0.10717957390E+03  0.10717957390E+03  0.00000000000E+00 0.  1.
          6    1    1    2  501    0  0.29068242858E+02  0.39400700921E+02  0.31845045117E+03  0.36522878833E+03  0.17200000000E+03 0. -1.
         -6    1    1    2    0  503 -0.29068242858E+02 -0.39400700921E+02  0.11630358701E+02  0.17921116935E+03  0.17200000000E+03 0. -1.
</event>
<event>
 4    1  0.6129841E-001  0.2351958E+03  0.7818608E-02  0.1123035E+00
         21   -1    0    0  503  502  0.00000000000E+00  0.00000000000E+00  0.97915861791E+02  0.97915861791E+02  0.00000000000E+00 0.  1.
         21   -1    0    0  501  503 -0.00000000000E+00 -0.00000000000E+00 -0.64526802346E+03  0.64526802346E+03  0.00000000000E+00 0.  1.
          6    1    1    2  501    0  0.16330446818E+02  0.15958192586E+03 -0.40478018731E+03  0.46814962843E+03  0.17200000000E+03 0.  1.
         -6    1    1    2    0  502 -0.16330446818E+02 -0.15958192586E+03 -0.14257197436E+03  0.27503425683E+03  0.17200000000E+03 0.  1.
</event>
<event>
 4    1  0.6129841E-001  0.2094637E+03  0.7818608E-02  0.1141991E+00
         21   -1    0    0  501  502  0.00000000000E+00  0.00000000000E+00  0.36907720206E+03  0.36907720206E+03  0.00000000000E+00 0. -1.
         21   -1    0    0  502  503 -0.00000000000E+00 -0.00000000000E+00 -0.11986911262E+03  0.11986911262E+03  0.00000000000E+00 0.  1.
          6    1    1    2  501    0  0.11946596956E+03  0.43523431322E+01  0.14683702658E+03  0.25580495137E+03  0.17200000000E+03 0. -1.
         -6    1    1    2    0  503 -0.11946596956E+03 -0.43523431322E+01  0.10237106286E+03  0.23314136331E+03  0.17200000000E+03 0.  1.
</event>
<event>
 4    1  0.6129841E-001  0.1768862E+03  0.7818608E-02  0.1170851E+00
         21   -1    0    0  501  502  0.00000000000E+00  0.00000000000E+00  0.90348359136E+02  0.90348359136E+02  0.00000000000E+00 0.  1.
         21   -1    0    0  502  503 -0.00000000000E+00 -0.00000000000E+00 -0.35711176221E+03  0.35711176221E+03  0.00000000000E+00 0.  1.
          6    1    1    2  501    0  0.27994030242E+02  0.30349082079E+02 -0.94474787415E+02  0.20053482982E+03  0.17200000000E+03 0.  1.
         -6    1    1    2    0  503 -0.27994030242E+02 -0.30349082079E+02 -0.17228861566E+03  0.24692529153E+03  0.17200000000E+03 0.  1.
</event>
<event>
 4    1  0.6129841E-001  0.2565496E+03  0.7818608E-02  0.1109234E+00
         21   -1    0    0  501  502  0.00000000000E+00  0.00000000000E+00  0.13895997855E+03  0.13895997855E+03  0.00000000000E+00 0.  1.
         21   -1    0    0  502  503 -0.00000000000E+00 -0.00000000000E+00 -0.47737317517E+03  0.47737317517E+03  0.00000000000E+00 0. -1.
          6    1    1    2  501    0  0.72366400733E+02  0.17605906313E+03 -0.19644042145E+03  0.32311999140E+03  0.17200000000E+03 0.  1.
         -6    1    1    2    0  503 -0.72366400733E+02 -0.17605906313E+03 -0.14197277517E+03  0.29321316232E+03  0.17200000000E+03 0. -1.
</event>
<event>
 4    1  0.6129841E-001  0.2188816E+03  0.7818608E-02  0.1134720E+00
         21   -1    0    0  503  502  0.00000000000E+00  0.00000000000E+00  0.20692025897E+03  0.20692025897E+03  0.00000000000E+00 0. -1.
         21   -1    0    0  501  503 -0.00000000000E+00 -0.00000000000E+00 -0.29928861760E+03  0.29928861760E+03  0.00000000000E+00 0.  1.
          6    1    1    2  501    0  0.36504307328E+02  0.13035570656E+03 -0.16661081937E+03  0.27507878838E+03  0.17200000000E+03 0.  1.
         -6    1    1    2    0  502 -0.36504307328E+02 -0.13035570656E+03  0.74242460742E+02  0.23113008818E+03  0.17200000000E+03 0.  1.
</event>
<event>
 4    1  0.6129841E-001  0.2638904E+03  0.7818608E-02  0.1104828E+00
         21   -1    0    0  501  502  0.00000000000E+00  0.00000000000E+00  0.45819702325E+03  0.45819702325E+03  0.00000000000E+00 0. -1.
         21   -1    0    0  502  503 -0.00000000000E+00 -0.00000000000E+00 -0.38332446788E+03  0.38332446788E+03  0.00000000000E+00 0.  1.
          6    1    1    2  501    0 -0.11999496951E+03 -0.16017283193E+03  0.36430905185E+03  0.44984354398E+03  0.17200000000E+03 0. -1.
         -6    1    1    2    0  503  0.11999496951E+03  0.16017283193E+03 -0.28943649648E+03  0.39167794716E+03  0.17200000000E+03 0. -1.
</event>
<event>
 4    1  0.6129841E-001  0.2056655E+03  0.7818608E-02  0.1145045E+00
         21   -1    0    0  503  502  0.00000000000E+00  0.00000000000E+00  0.27717428122E+03  0.27717428122E+03  0.00000000000E+00 0.  1.
         21   -1    0    0  501  503 -0.00000000000E+00 -0.00000000000E+00 -0.18617538366E+03  0.18617538366E+03  0.00000000000E+00 0.  1.
          6    1    1    2  501    0 -0.72477129926E+02 -0.86379277263E+02  0.14387626966E+03  0.25099540808E+03  0.17200000000E+03 0. -1.
         -6    1    1    2    0  502  0.72477129926E+02  0.86379277263E+02 -0.52877372108E+02  0.21235425681E+03  0.17200000000E+03 0. -1.
</event>
<event>
 4    1  0.6129841E-001  0.1770201E+03  0.7818608E-02  0.1170719E+00
         21   -1    0    0  503  502  0.00000000000E+00  0.00000000000E+00  0.49858602109E+03  0.49858602109E+03  0.00000000000E+00 0. -1.
         21   -1    0    0  501  503 -0.00000000000E+00 -0.00000000000E+00 -0.62935654359E+02  0.62935654359E+02  0.00000000000E+00 0. -1.
          6    1    1    2  501    0  0.25403371641E+02  0.33268564635E+02  0.22818320537E+03  0.28879699427E+03  0.17200000000E+03 0. -1.
         -6    1    1    2    0  502 -0.25403371641E+02 -0.33268564635E+02  0.20746716135E+03  0.27272468118E+03  0.17200000000E+03 0. -1.
</event>
<event>
 4    1  0.6129841E-001  0.3173597E+03  0.7818608E-02  0.1076871E+00
         21   -1    0    0  503  502  0.00000000000E+00  0.00000000000E+00  0.88274986107E+02  0.88274986107E+02  0.00000000000E+00 0. -1.
         21   -1    0    0  501  503 -0.00000000000E+00 -0.00000000000E+00 -0.15813008190E+04  0.15813008190E+04  0.00000000000E+00 0.  1.
          6    1    1    2  501    0 -0.13032419437E+03 -0.23269894778E+03 -0.11870364742E+04  0.12287281176E+04  0.17200000000E+03 0.  1.
         -6    1    1    2    0  502  0.13032419437E+03  0.23269894778E+03 -0.30598935871E+03  0.44084768751E+03  0.17200000000E+03 0.  1.
</event>
<event>
 4    1  0.6129841E-001  0.1757514E+03  0.7818608E-02  0.1171979E+00
         21   -1    0    0  503  502  0.00000000000E+00  0.00000000000E+00  0.28128804551E+03  0.28128804551E+03  0.00000000000E+00 0. -1.
         21   -1    0    0  501  503 -0.00000000000E+00 -0.00000000000E+00 -0.16851803465E+03  0.16851803465E+03  0.00000000000E+00 0. -1.
          6    1    1    2  501    0 -0.36096294487E+02  0.12682155976E+01 -0.76359581466E+02  0.19162290189E+03  0.17200000000E+03 0. -1.
         -6    1    1    2    0  502  0.36096294487E+02 -0.12682155976E+01  0.18912959233E+03  0.25818317827E+03  0.17200000000E+03 0. -1.
</event>
<event>
 4    1  0.6129841E-001  0.2033680E+03  0.7818608E-02  0.1146928E+00
         21   -1    0    0  503  502  0.00000000000E+00  0.00000000000E+00  0.16173512379E+03  0.16173512379E+03  0.00000000000E+00 0.  1.
         21   -1    0    0  501  503 -0.00000000000E+00 -0.00000000000E+00 -0.25887569555E+03  0.25887569555E+03  0.00000000000E+00 0.  1.
          6    1    1    2  501    0  0.60850764985E+02  0.89842744163E+02 -0.71798209334E+02  0.21566992637E+03  0.17200000000E+03 0. -1.
         -6    1    1    2    0  502 -0.60850764985E+02 -0.89842744163E+02 -0.25342362422E+02  0.20494089297E+03  0.17200000000E+03 0. -1.
</event>
<event>
 4    1  0.6129841E-001  0.1860346E+03  0.7818608E-02  0.1162087E+00
         21   -1    0    0  501  502  0.00000000000E+00  0.00000000000E+00  0.11396384604E+04  0.11396384604E+04  0.00000000000E+00 0. -1.
         21   -1    0    0  502  503 -0.00000000000E+00 -0.00000000000E+00 -0.80254691280E+02  0.80254691280E+02  0.00000000000E+00 0. -1.
          6    1    1    2  501    0 -0.55920576044E+02  0.43563450739E+02  0.10105839579E+04  0.10275645094E+04  0.17200000000E+03 0. -1.
         -6    1    1    2    0  503  0.55920576044E+02 -0.43563450739E+02  0.48799811251E+02  0.19232864229E+03  0.17200000000E+03 0. -1.
</event>
<event>
 4    1  0.6129841E-001  0.1849343E+03  0.7818608E-02  0.1163111E+00
         21   -1    0    0  501  502  0.00000000000E+00  0.00000000000E+00  0.69178425838E+03  0.69178425838E+03  0.00000000000E+00 0. -1.
         21   -1    0    0  502  503 -0.00000000000E+00 -0.00000000000E+00 -0.13999683023E+03  0.13999683023E+03  0.00000000000E+00 0. -1.
          6    1    1    2  501    0 -0.65791357327E+02 -0.16976183952E+02  0.61038471200E+03  0.63778537939E+03  0.17200000000E+03 0. -1.
         -6    1    1    2    0  503  0.65791357327E+02  0.16976183952E+02 -0.58597283855E+02  0.19399570922E+03  0.17200000000E+03 0. -1.
</event>
<event>
 4    1  0.6129841E-001  0.2261695E+03  0.7818608E-02  0.1129365E+00
         21   -1    0    0  501  502  0.00000000000E+00  0.00000000000E+00  0.53741900418E+03  0.53741900418E+03  0.00000000000E+00 0.  1.
         21   -1    0    0  502  503 -0.00000000000E+00 -0.00000000000E+00 -0.10307753897E+03  0.10307753897E+03  0.00000000000E+00 0.  1.
          6    1    1    2  501    0  0.14457988247E+03 -0.25793736076E+02  0.12853814385E+03  0.26014364044E+03  0.17200000000E+03 0.  1.
         -6    1    1    2    0  503 -0.14457988247E+03  0.25793736076E+02  0.30580332137E+03  0.38035290270E+03  0.17200000000E+03 0.  1.
</event>
<event>
 4    1  0.6129841E-001  0.1785173E+03  0.7818608E-02  0.1169246E+00
         21   -1    0    0  503  502  0.00000000000E+00  0.00000000000E+00  0.87253478799E+03  0.87253478799E+03  0.00000000000E+00 0. -1.
         21   -1    0    0  501  503 -0.00000000000E+00 -0.00000000000E+00 -0.69652593409E+02  0.69652593409E+02  0.00000000000E+00 0. -1.
          6    1    1    2  501    0 -0.47244124201E+02 -0.72390209585E+01  0.76547976798E+02  0.19423697755E+03  0.17200000000E+03 0. -1.
         -6    1    1    2    0  502  0.47244124201E+02  0.72390209585E+01  0.72633421778E+03  0.74795040384E+03  0.17200000000E+03 0. -1.
</event>
<event>
 4    1  0.6129841E-001  0.2311858E+03  0.7818608E-02  0.1125808E+00
         21   -1    0    0  501  502  0.00000000000E+00  0.00000000000E+00  0.98767044189E+03  0.98767044189E+03  0.00000000000E+00 0.  1.
         21   -1    0    0  502  503 -0.00000000000E+00 -0.00000000000E+00 -0.91687021326E+02  0.91687021326E+02  0.00000000000E+00 0. -1.
          6    1    1    2  501    0  0.11746624207E+03  0.10032225098E+03  0.79346859837E+03  0.82646191000E+03  0.17200000000E+03 0.  1.
         -6    1    1    2    0  503 -0.11746624207E+03 -0.10032225098E+03  0.10251482219E+03  0.25289555322E+03  0.17200000000E+03 0. -1.
</event>
<event>
 4    1  0.6129841E-001  0.1933321E+03  0.7818608E-02  0.1155490E+00
         21   -1    0    0  501  502  0.00000000000E+00  0.00000000000E+00  0.94522795470E+03  0.94522795470E+03  0.00000000000E+00 0. -1.
         21   -1    0    0  502  503 -0.00000000000E+00 -0.00000000000E+00 -0.54444852402E+02  0.54444852402E+02  0.00000000000E+00 0. -1.
          6    1    1    2  501    0  0.47041139185E+01 -0.88154301556E+02  0.70688880004E+03  0.73284997455E+03  0.17200000000E+03 0. -1.
         -6    1    1    2    0  503 -0.47041139185E+01  0.88154301556E+02  0.18389430226E+03  0.26682283256E+03  0.17200000000E+03 0. -1.
</event>
<event>
 4    1  0.6129841E-001  0.2343736E+03  0.7818608E-02  0.1123599E+00
         21   -1    0    0  501  502  0.00000000000E+00  0.00000000000E+00  0.39842240152E+02  0.39842240152E+02  0.00000000000E+00 0. -1.
         21   -1    0    0  502  503 -0.00000000000E+00 -0.00000000000E+00 -0.17636746843E+04  0.17636746843E+04  0.00000000000E+00 0.  1.
          6    1    1    2  501    0  0.12991825424E+03  0.92022930166E+02 -0.44061731427E+03  0.49907373213E+03  0.17200000000E+03 0. -1.
         -6    1    1    2    0  503 -0.12991825424E+03 -0.92022930166E+02 -0.12832151299E+04  0.13044431924E+04  0.17200000000E+03 0.  1.
</event>
<event>
 4    1  0.6129841E-001  0.2247056E+03  0.7818608E-02  0.1130423E+00
         21   -1    0    0  503  502  0.00000000000E+00  0.00000000000E+00  0.33778293577E+03  0.33778293577E+03  0.00000000000E+00 0.  1.
         21   -1    0    0  501  503 -0.00000000000E+00 -0.00000000000E+00 -0.14976901770E+03  0.14976901770E+03  0.00000000000E+00 0.  1.
          6    1    1    2  501    0 -0.13290754562E+03 -0.56957958576E+02  0.10467008992E+03  0.24788798368E+03  0.17200000000E+03 0.  1.
         -6    1    1    2    0  502  0.13290754562E+03  0.56957958576E+02  0.83343828147E+02  0.23966396979E+03  0.17200000000E+03 0.  1.
</event>
<event>
 4    1  0.6129841E-001  0.1728803E+03  0.7818608E-02  0.1174877E+00
         21   -1    0    0  501  502  0.00000000000E+00  0.00000000000E+00  0.12841000440E+03  0.12841000440E+03  0.00000000000E+00 0.  1.
         21   -1    0    0  502  503 -0.00000000000E+00 -0.00000000000E+00 -0.24851319040E+03  0.24851319040E+03  0.00000000000E+00 0.  1.
          6    1    1    2  501    0  0.13818932071E+02 -0.10613691045E+02 -0.12589118094E+02  0.17333810665E+03  0.17200000000E+03 0.  1.
         -6    1    1    2    0  503 -0.13818932071E+02  0.10613691045E+02 -0.10751406791E+03  0.20358508816E+03  0.17200000000E+03 0.  1.
</event>
<event>
 4    1  0.6129841E-001  0.1874500E+03  0.7818608E-02  0.1160782E+00
         21   -1    0    0  503  502  0.00000000000E+00  0.00000000000E+00  0.10652673772E+04  0.10652673772E+04  0.00000000000E+00 0. -1.
         21   -1    0    0  501  503 -0.00000000000E+00 -0.00000000000E+00 -0.42088060668E+02  0.42088060668E+02  0.00000000000E+00 0. -1.
          6    1    1    2  501    0 -0.58651936378E+02  0.45972108768E+02  0.25408839161E+03  0.31575052681E+03  0.17200000000E+03 0. -1.
         -6    1    1    2    0  502  0.58651936378E+02 -0.45972108768E+02  0.76909092494E+03  0.79160491108E+03  0.17200000000E+03 0. -1.
</event>
<event>
 4    1  0.6129841E-001  0.1733436E+03  0.7818608E-02  0.1174405E+00
         21   -1    0    0  501  502  0.00000000000E+00  0.00000000000E+00  0.24722601832E+03  0.24722601832E+03  0.00000000000E+00 0. -1.
         21   -1    0    0  502  503 -0.00000000000E+00 -0.00000000000E+00 -0.12155315686E+03  0.12155315686E+03  0.00000000000E+00 0. -1.
          6    1    1    2  501    0 -0.18771630789E+02  0.10565074076E+02  0.60961213198E+02  0.18375054946E+03  0.17200000000E+03 0.  1.
         -6    1    1    2    0  503  0.18771630789E+02 -0.10565074076E+02  0.64711648260E+02  0.18502862571E+03  0.17200000000E+03 0.  1.
</event>
<event>
 4    1  0.6129841E-001  0.1720780E+03  0.7818608E-02  0.1175698E+00
         21   -1    0    0  501  502  0.00000000000E+00  0.00000000000E+00  0.79428258461E+02  0.79428258461E+02  0.00000000000E+00 0.  1.
         21   -1    0    0  502  503 -0.00000000000E+00 -0.00000000000E+00 -0.50949297533E+03  0.50949297533E+03  0.00000000000E+00 0.  1.
          6    1    1    2  501    0 -0.77050533230E+00 -0.51223128622E+01 -0.62510645032E+02  0.18308034441E+03  0.17200000000E+03 0.  1.
         -6    1    1    2    0  503  0.77050533230E+00  0.51223128622E+01 -0.36755407184E+03  0.40584088938E+03  0.17200000000E+03 0.  1.
</event>
<event>
 4    1  0.6129841E-001  0.2165748E+03  0.7818608E-02  0.1136463E+00
         21   -1    0    0  503  502  0.00000000000E+00  0.00000000000E+00  0.43011398999E+02  0.43011398999E+02  0.00000000000E+00 0.  1.
         21   -1    0    0  501  503 -0.00000000000E+00 -0.00000000000E+00 -0.30562836021E+04  0.30562836021E+04  0.00000000000E+00 0.  1.
          6    1    1    2  501    0  0.13158052785E+03 -0.26881877127E+01 -0.27494384664E+04  0.27579551378E+04  0.17200000000E+03 0.  1.
         -6    1    1    2    0  502 -0.13158052785E+03  0.26881877127E+01 -0.26383373679E+03  0.34133986338E+03  0.17200000000E+03 0.  1.
</event>
<event>
 4    1  0.6129841E-001  0.1742914E+03  0.7818608E-02  0.1173445E+00
         21   -1    0    0  501  502  0.00000000000E+00  0.00000000000E+00  0.32947632415E+03  0.32947632415E+03  0.00000000000E+00 0.  1.
         21   -1    0    0  502  503 -0.00000000000E+00 -0.00000000000E+00 -0.10194948476E+03  0.10194948476E+03  0.00000000000E+00 0.  1.
          6    1    1    2  501    0  0.16523702896E+02 -0.22813404808E+02  0.18047330348E+03  0.25089459433E+03  0.17200000000E+03 0.  1.
         -6    1    1    2    0  503 -0.16523702896E+02  0.22813404808E+02  0.47053535906E+02  0.18053121458E+03  0.17200000000E+03 0.  1.
</event>
<event>
 4    1  0.6129841E-001  0.1915704E+03  0.7818608E-02  0.1157052E+00
         21   -1    0    0  501  502  0.00000000000E+00  0.00000000000E+00  0.34208782475E+03  0.34208782475E+03  0.00000000000E+00 0. -1.
         21   -1    0    0  502  503 -0.00000000000E+00 -0.00000000000E+00 -0.19042016651E+03  0.19042016651E+03  0.00000000000E+00 0. -1.
          6    1    1    2  501    0  0.22085294381E+02  0.81409247763E+02  0.25176580188E+03  0.31636252124E+03  0.17200000000E+03 0.  1.
         -6    1    1    2    0  503 -0.22085294381E+02 -0.81409247763E+02 -0.10009814364E+03  0.21614547002E+03  0.17200000000E+03 0.  1.
</event>
<event>
 4    1  0.6129841E-001  0.2100682E+03  0.7818608E-02  0.1141512E+00
         21   -1    0    0  503  502  0.00000000000E+00  0.00000000000E+00  0.54955679158E+03  0.54955679158E+03  0.00000000000E+00 0. -1.
         21   -1    0    0  501  503 -0.00000000000E+00 -0.00000000000E+00 -0.89148873025E+02  0.89148873025E+02  0.00000000000E+00 0.  1.
          6    1    1    2  501    0  0.60244195165E+02 -0.10447620716E+03  0.12958236806E+03  0.24682024031E+03  0.17200000000E+03 0.  1.
         -6    1    1    2    0  502 -0.60244195165E+02  0.10447620716E+03  0.33082555050E+03  0.39188542429E+03  0.17200000000E+03 0.  1.
</event>
<event>
 4    1  0.6129841E-001  0.1887016E+03  0.7818608E-02  0.1159638E+00
         21   -1    0    0  503  502  0.00000000000E+00  0.00000000000E+00  0.32500255693E+03  0.32500255693E+03  0.00000000000E+00 0. -1.
         21   -1    0    0  501  503 -0.00000000000E+00 -0.00000000000E+00 -0.11043995590E+03  0.11043995590E+03  0.00000000000E+00 0. -1.
          6    1    1    2  501    0 -0.52066469831E+02  0.57561792210E+02  0.12668166055E+03  0.22728070821E+03  0.17200000000E+03 0. -1.
         -6    1    1    2    0  502  0.52066469831E+02 -0.57561792210E+02  0.87880940474E+02  0.20816180462E+03  0.17200000000E+03 0. -1.
</event>
<event>
 4    1  0.6129841E-001  0.1987301E+03  0.7818608E-02  0.1150815E+00
         21   -1    0    0  501  502  0.00000000000E+00  0.00000000000E+00  0.10313581052E+03  0.10313581052E+03  0.00000000000E+00 0. -1.
         21   -1    0    0  502  503 -0.00000000000E+00 -0.00000000000E+00 -0.49623444463E+03  0.49623444463E+03  0.00000000000E+00 0. -1.
          6    1    1    2  501    0  0.86547013419E+02  0.49186037843E+02 -0.53347711231E+02  0.20576595963E+03  0.17200000000E+03 0. -1.
         -6    1    1    2    0  503 -0.86547013419E+02 -0.49186037843E+02 -0.33975092288E+03  0.39360429552E+03  0.17200000000E+03 0. -1.
</event>
<event>
 4    1  0.6129841E-001  0.1787698E+03  0.7818608E-02  0.1168999E+00
         21   -1    0    0  503  502  0.00000000000E+00  0.00000000000E+00  0.19033506944E+03  0.19033506944E+03  0.00000000000E+00 0. -1.
         21   -1    0    0  501  503 -0.00000000000E+00 -0.00000000000E+00 -0.17009722553E+03  0.17009722553E+03  0.00000000000E+00 0. -1.
          6    1    1    2  501    0  0.48730409110E+02  0.12806916111E-01  0.30567211323E+02  0.18136429457E+03  0.17200000000E+03 0. -1.
         -6    1    1    2    0  502 -0.48730409110E+02 -0.12806916111E-01 -0.10329367406E+02  0.17906800040E+03  0.17200000000E+03 0. -1.
</event>
<event>
 4    1  0.6129841E-001  0.1881363E+03  0.7818608E-02  0.1160153E+00
         21   -1    0    0  503  502  0.00000000000E+00  0.00000000000E+00  0.64741781597E+02  0.64741781597E+02  0.00000000000E+00 0. -1.
         21   -1    0    0  501  503 -0.00000000000E+00 -0.00000000000E+00 -0.11748734094E+04  0.11748734094E+04  0.00000000000E+00 0. -1.
          6    1    1    2  501    0  0.52604950519E+02 -0.55172317839E+02 -0.10185929629E+03  0.21394060324E+03  0.17200000000E+03 0. -1.
         -6    1    1    2    0  502 -0.52604950519E+02  0.55172317839E+02 -0.10082723315E+04  0.10256745878E+04  0.17200000000E+03 0. -1.
</event>
<event>
 4    1  0.6129841E-001  0.1876275E+03  0.7818608E-02  0.1160619E+00
         21   -1    0    0  503  502  0.00000000000E+00  0.00000000000E+00  0.89356954364E+02  0.89356954364E+02  0.00000000000E+00 0. -1.
         21   -1    0    0  501  503 -0.00000000000E+00 -0.00000000000E+00 -0.39414662120E+03  0.39414662120E+03  0.00000000000E+00 0. -1.
          6    1    1    2  501    0 -0.59671827878E+02 -0.45380265603E+02 -0.15749024875E+03  0.24496382182E+03  0.17200000000E+03 0.  1.
         -6    1    1    2    0  502  0.59671827878E+02  0.45380265603E+02 -0.14729941809E+03  0.23853975375E+03  0.17200000000E+03 0.  1.
</event>
<event>
 4    1  0.6129841E-001  0.2157636E+03  0.7818608E-02  0.1137081E+00
         21   -1    0    0  501  502  0.00000000000E+00  0.00000000000E+00  0.66730086160E+03  0.66730086160E+03  0.00000000000E+00 0.  1.
         21   -1    0    0  502  503 -0.00000000000E+00 -0.00000000000E+00 -0.22838371435E+03  0.22838371435E+03  0.00000000000E+00 0.  1.
          6    1    1    2  501    0 -0.10092993583E+03  0.82359516679E+02  0.59268326504E+03  0.63073559800E+03  0.17200000000E+03 0.  1.
         -6    1    1    2    0  503  0.10092993583E+03 -0.82359516679E+02 -0.15376611779E+03  0.26494897795E+03  0.17200000000E+03 0.  1.
</event>
<event>
 4    1  0.6129841E-001  0.1842035E+03  0.7818608E-02  0.1163796E+00
         21   -1    0    0  501  502  0.00000000000E+00  0.00000000000E+00  0.52482076884E+03  0.52482076884E+03  0.00000000000E+00 0. -1.
         21   -1    0    0  502  503 -0.00000000000E+00 -0.00000000000E+00 -0.64752082061E+02  0.64752082061E+02  0.00000000000E+00 0. -1.
          6    1    1    2  501    0 -0.59087013329E+02  0.29251822998E+02  0.24159806713E+03  0.30381008926E+03  0.17200000000E+03 0.  1.
         -6    1    1    2    0  503  0.59087013329E+02 -0.29251822998E+02  0.21847061965E+03  0.28576276164E+03  0.17200000000E+03 0.  1.
</event>
<event>
 4    1  0.6129841E-001  0.1832151E+03  0.7818608E-02  0.1164727E+00
         21   -1    0    0  503  502  0.00000000000E+00  0.00000000000E+00  0.10441890888E+04  0.10441890888E+04  0.00000000000E+00 0.  1.
         21   -1    0    0  501  503 -0.00000000000E+00 -0.00000000000E+00 -0.34785115032E+02  0.34785115032E+02  0.00000000000E+00 0.  1.
          6    1    1    2  501    0  0.47868937773E+02 -0.41137839823E+02  0.35613763256E+03  0.40050189812E+03  0.17200000000E+03 0.  1.
         -6    1    1    2    0  502 -0.47868937773E+02  0.41137839823E+02  0.65326634118E+03  0.67847230569E+03  0.17200000000E+03 0.  1.
</event>
<event>
 4    1  0.6129841E-001  0.1767194E+03  0.7818608E-02  0.1171016E+00
         21   -1    0    0  501  502  0.00000000000E+00  0.00000000000E+00  0.54612987454E+03  0.54612987454E+03  0.00000000000E+00 0.  1.
         21   -1    0    0  502  503 -0.00000000000E+00 -0.00000000000E+00 -0.18240476373E+03  0.18240476373E+03  0.00000000000E+00 0.  1.
          6    1    1    2  501    0 -0.35397225044E+02  0.19818359285E+02  0.48367754353E+03  0.51495018887E+03  0.17200000000E+03 0.  1.
         -6    1    1    2    0  503  0.35397225044E+02 -0.19818359285E+02 -0.11995243272E+03  0.21358444939E+03  0.17200000000E+03 0.  1.
</event>
<event>
 4    1  0.6129841E-001  0.3149633E+03  0.7818608E-02  0.1077991E+00
         21   -1    0    0  503  502  0.00000000000E+00  0.00000000000E+00  0.12093550246E+04  0.12093550246E+04  0.00000000000E+00 0. -1.
         21   -1    0    0  501  503 -0.00000000000E+00 -0.00000000000E+00 -0.14907438582E+03  0.14907438582E+03  0.00000000000E+00 0. -1.
          6    1    1    2  501    0  0.91869494486E+02  0.24734165279E+03  0.74637804684E+02  0.32368611201E+03  0.17200000000E+03 0. -1.
         -6    1    1    2    0  502 -0.91869494486E+02 -0.24734165279E+03  0.98564283409E+03  0.10347432984E+04  0.17200000000E+03 0. -1.
</event>
<event>
 4    1  0.6129841E-001  0.1784440E+03  0.7818608E-02  0.1169318E+00
         21   -1    0    0  501  502  0.00000000000E+00  0.00000000000E+00  0.17613040496E+04  0.17613040496E+04  0.00000000000E+00 0. -1.
         21   -1    0    0  502  503 -0.00000000000E+00 -0.00000000000E+00 -0.19424696459E+02  0.19424696459E+02  0.00000000000E+00 0. -1.
          6    1    1    2  501    0  0.38541455395E+02 -0.27799514352E+02  0.63657232744E+03  0.66111011552E+03  0.17200000000E+03 0. -1.
         -6    1    1    2    0  503 -0.38541455395E+02  0.27799514352E+02  0.11053070257E+04  0.11196186305E+04  0.17200000000E+03 0. -1.
</event>
<event>
 4    1  0.6129841E-001  0.1908489E+03  0.7818608E-02  0.1157698E+00
         21   -1    0    0  503  502  0.00000000000E+00  0.00000000000E+00  0.57129488120E+03  0.57129488120E+03  0.00000000000E+00 0. -1.
         21   -1    0    0  501  503 -0.00000000000E+00 -0.00000000000E+00 -0.11133691757E+03  0.11133691757E+03  0.00000000000E+00 0.  1.
          6    1    1    2  501    0  0.57134485630E+01  0.82502387884E+02  0.68505883884E+01  0.19097177295E+03  0.17200000000E+03 0.  1.
         -6    1    1    2    0  502 -0.57134485630E+01 -0.82502387884E+02  0.45310737524E+03  0.49166002583E+03  0.17200000000E+03 0. -1.
</event>
<event>
 4    1  0.6129841E-001  0.1785881E+03  0.7818608E-02  0.1169177E+00
         21   -1    0    0  501  502  0.00000000000E+00  0.00000000000E+00  0.76448711134E+02  0.76448711134E+02  0.00000000000E+00 0. -1.
         21   -1    0    0  502  503 -0.00000000000E+00 -0.00000000000E+00 -0.56585658783E+03  0.56585658783E+03  0.00000000000E+00 0. -1.
          6    1    1    2  501    0  0.31357376716E+02  0.36419950584E+02 -0.80091040594E+02  0.19572499242E+03  0.17200000000E+03 0. -1.
         -6    1    1    2    0  503 -0.31357376716E+02 -0.36419950584E+02 -0.40931683610E+03  0.44658030654E+03  0.17200000000E+03 0. -1.
</event>
<event>
 4    1  0.6129841E-001  0.2272206E+03  0.7818608E-02  0.1128611E+00
         21   -1    0    0  503  502  0.00000000000E+00  0.00000000000E+00  0.47546315047E+03  0.47546315047E+03  0.00000000000E+00 0. -1.
         21   -1    0    0  501  503 -0.00000000000E+00 -0.00000000000E+00 -0.16925341155E+03  0.16925341155E+03  0.00000000000E+00 0. -1.
          6    1    1    2  501    0  0.14672902899E+03  0.22711317499E+02 -0.39889018634E+02  0.23069535257E+03  0.17200000000E+03 0. -1.
         -6    1    1    2    0  502 -0.14672902899E+03 -0.22711317499E+02  0.34609875755E+03  0.41402120945E+03  0.17200000000E+03 0. -1.
</event>
<event>
 4    1  0.6129841E-001  0.1753126E+03  0.7818608E-02  0.1172418E+00
         21   -1    0    0  503  502  0.00000000000E+00  0.00000000000E+00  0.13646088278E+04  0.13646088278E+04  0.00000000000E+00 0. -1.
         21   -1    0    0  501  503 -0.00000000000E+00 -0.00000000000E+00 -0.54407155595E+02  0.54407155595E+02  0.00000000000E+00 0.  1.
          6    1    1    2  501    0 -0.30512669024E+02 -0.14815283456E+02  0.11195109029E+03  0.20800856283E+03  0.17200000000E+03 0.  1.
         -6    1    1    2    0  502  0.30512669024E+02  0.14815283456E+02  0.11982505819E+04  0.12110074205E+04  0.17200000000E+03 0. -1.
</event>
<event>
 4    1  0.6129841E-001  0.1723325E+03  0.7818608E-02  0.1175437E+00
         21   -1    0    0  503  502  0.00000000000E+00  0.00000000000E+00  0.13389673244E+04  0.13389673244E+04  0.00000000000E+00 0. -1.
         21   -1    0    0  501  503 -0.00000000000E+00 -0.00000000000E+00 -0.99130981154E+02  0.99130981154E+02  0.00000000000E+00 0. -1.
          6    1    1    2  501    0 -0.74802194773E+01  0.76508424657E+01 -0.13602147781E+02  0.17286846878E+03  0.17200000000E+03 0. -1.
         -6    1    1    2    0  502  0.74802194773E+01 -0.76508424657E+01  0.12534384910E+04  0.12652298367E+04  0.17200000000E+03 0. -1.
</event>
<event>
 4    1  0.6129841E-001  0.1810585E+03  0.7818608E-02  0.1166783E+00
         21   -1    0    0  501  502  0.00000000000E+00  0.00000000000E+00  0.14395578042E+04  0.14395578042E+04  0.00000000000E+00 0.  1.
         21   -1    0    0  502  503 -0.00000000000E+00 -0.00000000000E+00 -0.37177830922E+02  0.37177830922E+02  0.00000000000E+00 0.  1.
          6    1    1    2  501    0  0.47231586090E+02  0.31102273440E+02  0.11608047689E+04  0.11748403660E+04  0.17200000000E+03 0.  1.
         -6    1    1    2    0  503 -0.47231586090E+02 -0.31102273440E+02  0.24157520442E+03  0.30189526913E+03  0.17200000000E+03 0.  1.
</event>
<event>
 4    1  0.6129841E-001  0.1847295E+03  0.7818608E-02  0.1163303E+00
         21   -1    0    0  503  502  0.00000000000E+00  0.00000000000E+00  0.38312404959E+03  0.38312404959E+03  0.00000000000E+00 0. -1.
         21   -1    0    0  501  503 -0.00000000000E+00 -0.00000000000E+00 -0.15834956214E+03  0.15834956214E+03  0.00000000000E+00 0. -1.
          6    1    1    2  501    0 -0.26697135268E+02 -0.61872885393E+02 -0.66689981153E+02  0.19639894237E+03  0.17200000000E+03 0. -1.
         -6    1    1    2    0  502  0.26697135268E+02  0.61872885393E+02  0.29146446860E+03  0.34507466936E+03  0.17200000000E+03 0. -1.
</event>
<event>
 4    1  0.6129841E-001  0.1900675E+03  0.7818608E-02  0.1158400E+00
         21   -1    0    0  501  502  0.00000000000E+00  0.00000000000E+00  0.32250376049E+03  0.32250376049E+03  0.00000000000E+00 0. -1.
         21   -1    0    0  502  503 -0.00000000000E+00 -0.00000000000E+00 -0.12982966162E+03  0.12982966162E+03  0.00000000000E+00 0. -1.
          6    1    1    2  501    0  0.80303876248E+02  0.96402071516E+01  0.18011232518E+03  0.26185128569E+03  0.17200000000E+03 0. -1.
         -6    1    1    2    0  503 -0.80303876248E+02 -0.96402071516E+01  0.12561773686E+02  0.19048213641E+03  0.17200000000E+03 0. -1.
</event>
<event>
 4    1  0.6129841E-001  0.1774431E+03  0.7818608E-02  0.1170301E+00
         21   -1    0    0  503  502  0.00000000000E+00  0.00000000000E+00  0.25679998486E+04  0.25679998486E+04  0.00000000000E+00 0.  1.
         21   -1    0    0  501  503 -0.00000000000E+00 -0.00000000000E+00 -0.36404184899E+02  0.36404184899E+02  0.00000000000E+00 0.  1.
          6    1    1    2  501    0 -0.78908231662E+01  0.42892863938E+02  0.23262733085E+04  0.23330309832E+04  0.17200000000E+03 0.  1.
         -6    1    1    2    0  502  0.78908231662E+01 -0.42892863938E+02  0.20532235519E+03  0.27137305026E+03  0.17200000000E+03 0.  1.
</event>
<event>
 4    1  0.6129841E-001  0.2619198E+03  0.7818608E-02  0.1105995E+00
         21   -1    0    0  501  502  0.00000000000E+00  0.00000000000E+00  0.37111016686E+02  0.37111016686E+02  0.00000000000E+00 0.  1.
         21   -1    0    0  502  503 -0.00000000000E+00 -0.00000000000E+00 -0.18590511101E+04  0.18590511101E+04  0.00000000000E+00 0. -1.
          6    1    1    2  501    0  0.65681210238E+02 -0.18629000083E+03 -0.98218735441E+03  0.10165106910E+04  0.17200000000E+03 0. -1.
         -6    1    1    2    0  503 -0.65681210238E+02  0.18629000083E+03 -0.83975273904E+03  0.87965143580E+03  0.17200000000E+03 0. -1.
</event>
<event>
 4    1  0.6129841E-001  0.3387738E+03  0.7818608E-02  0.1067319E+00
         21   -1    0    0  503  502  0.00000000000E+00  0.00000000000E+00  0.42982326621E+03  0.42982326621E+03  0.00000000000E+00 0.  1.
         21   -1    0    0  501  503 -0.00000000000E+00 -0.00000000000E+00 -0.76874325650E+03  0.76874325650E+03  0.00000000000E+00 0. -1.
          6    1    1    2  501    0  0.29085158935E+03 -0.24270291967E+02 -0.65360710580E+03  0.73618607896E+03  0.17200000000E+03 0. -1.
         -6    1    1    2    0  502 -0.29085158935E+03  0.24270291967E+02  0.31468711551E+03  0.46238044376E+03  0.17200000000E+03 0.  1.
</event>
<event>
 4    1  0.6129841E-001  0.1854610E+03  0.7818608E-02  0.1162620E+00
         21   -1    0    0  501  502  0.00000000000E+00  0.00000000000E+00  0.46237570962E+03  0.46237570962E+03  0.00000000000E+00 0. -1.
         21   -1    0    0  502  503 -0.00000000000E+00 -0.00000000000E+00 -0.75485778062E+02  0.75485778062E+02  0.00000000000E+00 0. -1.
          6    1    1    2  501    0 -0.20861607380E+01  0.69335666525E+02  0.16103221803E+03  0.24561588296E+03  0.17200000000E+03 0. -1.
         -6    1    1    2    0  503  0.20861607380E+01 -0.69335666525E+02  0.22585771353E+03  0.29224560472E+03  0.17200000000E+03 0. -1.
</event>
<event>
 4    1  0.6129841E-001  0.1801586E+03  0.7818608E-02  0.1167650E+00
         21   -1    0    0  503  502  0.00000000000E+00  0.00000000000E+00  0.14861470172E+03  0.14861470172E+03  0.00000000000E+00 0. -1.
         21   -1    0    0  501  503 -0.00000000000E+00 -0.00000000000E+00 -0.36603607956E+03  0.36603607956E+03  0.00000000000E+00 0. -1.
          6    1    1    2  501    0  0.25980906242E+02  0.46883930601E+02 -0.27213637402E+03  0.32636684345E+03  0.17200000000E+03 0. -1.
         -6    1    1    2    0  502 -0.25980906242E+02 -0.46883930601E+02  0.54714996179E+02  0.18828393783E+03  0.17200000000E+03 0. -1.
</event>
<event>
 4    1  0.6129841E-001  0.1884647E+03  0.7818608E-02  0.1159853E+00
         21   -1    0    0  503  502  0.00000000000E+00  0.00000000000E+00  0.18201596963E+03  0.18201596963E+03  0.00000000000E+00 0.  1.
         21   -1    0    0  501  503 -0.00000000000E+00 -0.00000000000E+00 -0.27824219498E+03  0.27824219498E+03  0.00000000000E+00 0.  1.
          6    1    1    2  501    0 -0.69890891061E+02 -0.32406696335E+02 -0.17387859433E+03  0.25642288546E+03  0.17200000000E+03 0.  1.
         -6    1    1    2    0  502  0.69890891061E+02  0.32406696335E+02  0.77652368970E+02  0.20383527915E+03  0.17200000000E+03 0.  1.
</event>
<event>
 4    1  0.6129841E-001  0.2017181E+03  0.7818608E-02  0.1148298E+00
         21   -1    0    0  501  502  0.00000000000E+00  0.00000000000E+00  0.16211439036E+02  0.16211439036E+02  0.00000000000E+00 0. -1.
         21   -1    0    0  502  503 -0.00000000000E+00 -0.00000000000E+00 -0.25139808252E+04  0.25139808252E+04  0.00000000000E+00 0. -1.
          6    1    1    2  501    0 -0.10365462210E+03  0.19023511753E+02 -0.12994356665E+04  0.13149993255E+04  0.17200000000E+03 0. -1.
         -6    1    1    2    0  503  0.10365462210E+03 -0.19023511753E+02 -0.11983337197E+04  0.12151929388E+04  0.17200000000E+03 0. -1.
</event>
<event>
 4    1  0.6129841E-001  0.2262752E+03  0.7818608E-02  0.1129289E+00
         21   -1    0    0  501  502  0.00000000000E+00  0.00000000000E+00  0.46376180329E+03  0.46376180329E+03  0.00000000000E+00 0. -1.
         21   -1    0    0  502  503 -0.00000000000E+00 -0.00000000000E+00 -0.27280296364E+03  0.27280296364E+03  0.00000000000E+00 0. -1.
          6    1    1    2  501    0  0.63668518938E+02  0.13252461458E+03  0.37963099028E+03  0.44195038473E+03  0.17200000000E+03 0. -1.
         -6    1    1    2    0  503 -0.63668518938E+02 -0.13252461458E+03 -0.18867215064E+03  0.29461438220E+03  0.17200000000E+03 0. -1.
</event>
<event>
 4    1  0.6129841E-001  0.2027338E+03  0.7818608E-02  0.1147453E+00
         21   -1    0    0  501  502  0.00000000000E+00  0.00000000000E+00  0.18175252016E+03  0.18175252016E+03  0.00000000000E+00 0. -1.
         21   -1    0    0  502  503 -0.00000000000E+00 -0.00000000000E+00 -0.60144045709E+03  0.60144045709E+03  0.00000000000E+00 0.  1.
          6    1    1    2  501    0 -0.95462713768E+02 -0.49029015433E+02  0.99494362582E+02  0.22583202222E+03  0.17200000000E+03 0. -1.
         -6    1    1    2    0  503  0.95462713768E+02  0.49029015433E+02 -0.51918229951E+03  0.55736095504E+03  0.17200000000E+03 0.  1.
</event>
<event>
 4    1  0.6129841E-001  0.2613853E+03  0.7818608E-02  0.1106314E+00
         21   -1    0    0  503  502  0.00000000000E+00  0.00000000000E+00  0.99541561293E+03  0.99541561293E+03  0.00000000000E+00 0. -1.
         21   -1    0    0  501  503 -0.00000000000E+00 -0.00000000000E+00 -0.33177792635E+03  0.33177792635E+03  0.00000000000E+00 0.  1.
          6    1    1    2  501    0  0.77822333489E+02  0.18078158853E+03 -0.25916383835E+03  0.36808720902E+03  0.17200000000E+03 0.  1.
         -6    1    1    2    0  502 -0.77822333489E+02 -0.18078158853E+03  0.92280152493E+03  0.95910633026E+03  0.17200000000E+03 0. -1.
</event>
<event>
 4    1  0.6129841E-001  0.2228214E+03  0.7818608E-02  0.1131797E+00
         21   -1    0    0  503  502  0.00000000000E+00  0.00000000000E+00  0.59835131298E+03  0.59835131298E+03  0.00000000000E+00 0. -1.
         21   -1    0    0  501  503 -0.00000000000E+00 -0.00000000000E+00 -0.88261870530E+02  0.88261870530E+02  0.00000000000E+00 0. -1.
          6    1    1    2  501    0  0.74055406961E+02  0.12075249380E+03  0.17103786447E+03  0.28089734627E+03  0.17200000000E+03 0. -1.
         -6    1    1    2    0  502 -0.74055406961E+02 -0.12075249380E+03  0.33905157798E+03  0.40571583725E+03  0.17200000000E+03 0. -1.
</event>
<event>
 4    1  0.6129841E-001  0.1948500E+03  0.7818608E-02  0.1154158E+00
         21   -1    0    0  503  502  0.00000000000E+00  0.00000000000E+00  0.24204917870E+03  0.24204917870E+03  0.00000000000E+00 0.  1.
         21   -1    0    0  501  503 -0.00000000000E+00 -0.00000000000E+00 -0.17092030639E+03  0.17092030639E+03  0.00000000000E+00 0.  1.
          6    1    1    2  501    0 -0.63565990699E+02 -0.65892968829E+02 -0.23669754237E+02  0.19628238785E+03  0.17200000000E+03 0.  1.
         -6    1    1    2    0  502  0.63565990699E+02  0.65892968829E+02  0.94798626551E+02  0.21668709724E+03  0.17200000000E+03 0.  1.
</event>
<event>
 4    1  0.6129841E-001  0.1761748E+03  0.7818608E-02  0.1171557E+00
         21   -1    0    0  501  502  0.00000000000E+00  0.00000000000E+00  0.28951373682E+02  0.28951373682E+02  0.00000000000E+00 0. -1.
         21   -1    0    0  502  503 -0.00000000000E+00 -0.00000000000E+00 -0.11673516859E+04  0.11673516859E+04  0.00000000000E+00 0. -1.
          6    1    1    2  501    0  0.24973035225E+01 -0.38043549089E+02 -0.39829990236E+03  0.43552308822E+03  0.17200000000E+03 0. -1.
         -6    1    1    2    0  503 -0.24973035225E+01  0.38043549089E+02 -0.74010040982E+03  0.76077997133E+03  0.17200000000E+03 0. -1.
</event>
<event>
 4    1  0.6129841E-001  0.1808106E+03  0.7818608E-02  0.1167021E+00
         21   -1    0    0  503  502  0.00000000000E+00  0.00000000000E+00  0.10958222487E+03  0.10958222487E+03  0.00000000000E+00 0.  1.
         21   -1    0    0  501  503 -0.00000000000E+00 -0.00000000000E+00 -0.37502193231E+03  0.37502193231E+03  0.00000000000E+00 0.  1.
          6    1    1    2  501    0 -0.14825184035E+02 -0.53746441022E+02 -0.24228765646E+03  0.30231734068E+03  0.17200000000E+03 0.  1.
         -6    1    1    2    0  502  0.14825184035E+02  0.53746441022E+02 -0.23152050981E+02  0.18228681650E+03  0.17200000000E+03 0.  1.
</event>
<event>
 4    1  0.6129841E-001  0.1752605E+03  0.7818608E-02  0.1172470E+00
         21   -1    0    0  503  502  0.00000000000E+00  0.00000000000E+00  0.22906749536E+03  0.22906749536E+03  0.00000000000E+00 0. -1.
         21   -1    0    0  501  503 -0.00000000000E+00 -0.00000000000E+00 -0.20189553009E+03  0.20189553009E+03  0.00000000000E+00 0. -1.
          6    1    1    2  501    0 -0.17058297050E+02 -0.29004208403E+02 -0.11128779911E+03  0.20760829423E+03  0.17200000000E+03 0. -1.
         -6    1    1    2    0  502  0.17058297050E+02  0.29004208403E+02  0.13845976438E+03  0.22335473121E+03  0.17200000000E+03 0. -1.
</event>
<event>
 4    1  0.6129841E-001  0.1813079E+03  0.7818608E-02  0.1166543E+00
         21   -1    0    0  501  502  0.00000000000E+00  0.00000000000E+00  0.41213480848E+03  0.41213480848E+03  0.00000000000E+00 0.  1.
         21   -1    0    0  502  503 -0.00000000000E+00 -0.00000000000E+00 -0.99150548745E+02  0.99150548745E+02  0.00000000000E+00 0.  1.
          6    1    1    2  501    0 -0.36797644189E+02 -0.43982802973E+02  0.26953998745E+03  0.32484512989E+03  0.17200000000E+03 0.  1.
         -6    1    1    2    0  503  0.36797644189E+02  0.43982802973E+02  0.43444272280E+02  0.18644022734E+03  0.17200000000E+03 0.  1.
</event>
<event>
 4    1  0.6129841E-001  0.2295755E+03  0.7818608E-02  0.1126939E+00
         21   -1    0    0  503  502  0.00000000000E+00  0.00000000000E+00  0.84596788127E+03  0.84596788127E+03  0.00000000000E+00 0. -1.
         21   -1    0    0  501  503 -0.00000000000E+00 -0.00000000000E+00 -0.62721480150E+02  0.62721480150E+02  0.00000000000E+00 0.  1.
          6    1    1    2  501    0 -0.12102568177E+03  0.92052673316E+02  0.35443646901E+03  0.42229151173E+03  0.17200000000E+03 0.  1.
         -6    1    1    2    0  502  0.12102568177E+03 -0.92052673316E+02  0.42880993211E+03  0.48639784969E+03  0.17200000000E+03 0. -1.
</event>
<event>
 4    1  0.6129841E-001  0.2005572E+03  0.7818608E-02  0.1149270E+00
         21   -1    0    0  503  502  0.00000000000E+00  0.00000000000E+00  0.14570882133E+03  0.14570882133E+03  0.00000000000E+00 0.  1.
         21   -1    0    0  501  503 -0.00000000000E+00 -0.00000000000E+00 -0.29464070852E+03  0.29464070852E+03  0.00000000000E+00 0.  1.
          6    1    1    2  501    0  0.10059921657E+03  0.22781372576E+02 -0.19163128743E+02  0.20147064008E+03  0.17200000000E+03 0.  1.
         -6    1    1    2    0  502 -0.10059921657E+03 -0.22781372576E+02 -0.12976875845E+03  0.23887888977E+03  0.17200000000E+03 0.  1.
</event>
<event>
 4    1  0.6129841E-001  0.2106952E+03  0.7818608E-02  0.1141017E+00
         21   -1    0    0  503  502  0.00000000000E+00  0.00000000000E+00  0.71928928109E+02  0.71928928109E+02  0.00000000000E+00 0.  1.
         21   -1    0    0  501  503 -0.00000000000E+00 -0.00000000000E+00 -0.63015615930E+03  0.63015615930E+03  0.00000000000E+00 0.  1.
          6    1    1    2  501    0  0.11490850822E+03  0.40056376593E+02 -0.22872269317E+03  0.31097676591E+03  0.17200000000E+03 0.  1.
         -6    1    1    2    0  502 -0.11490850822E+03 -0.40056376593E+02 -0.32950453802E+03  0.39110832149E+03  0.17200000000E+03 0.  1.
</event>
<event>
 4    1  0.6129841E-001  0.1862805E+03  0.7818608E-02  0.1161859E+00
         21   -1    0    0  501  502  0.00000000000E+00  0.00000000000E+00  0.12075984877E+03  0.12075984877E+03  0.00000000000E+00 0. -1.
         21   -1    0    0  502  503 -0.00000000000E+00 -0.00000000000E+00 -0.28809660790E+03  0.28809660790E+03  0.00000000000E+00 0. -1.
          6    1    1    2  501    0 -0.53085686597E-01  0.71529171283E+02 -0.94070431231E+02  0.20868557975E+03  0.17200000000E+03 0. -1.
         -6    1    1    2    0  503  0.53085686597E-01 -0.71529171283E+02 -0.73266327897E+02  0.20017087692E+03  0.17200000000E+03 0. -1.
</event>
<event>
 4    1  0.6129841E-001  0.1788193E+03  0.7818608E-02  0.1168951E+00
         21   -1    0    0  501  502  0.00000000000E+00  0.00000000000E+00  0.42671230942E+02  0.42671230942E+02  0.00000000000E+00 0. -1.
         21   -1    0    0  502  503 -0.00000000000E+00 -0.00000000000E+00 -0.76998185152E+03  0.76998185152E+03  0.00000000000E+00 0. -1.
          6    1    1    2  501    0 -0.48911120874E+02  0.21633514174E+00 -0.29716753808E+03  0.34682112138E+03  0.17200000000E+03 0. -1.
         -6    1    1    2    0  503  0.48911120874E+02 -0.21633514174E+00 -0.43014308250E+03  0.46583196108E+03  0.17200000000E+03 0. -1.
</event>
<event>
 4    1  0.6129841E-001  0.2397209E+03  0.7818608E-02  0.1119979E+00
         21   -1    0    0  501  502  0.00000000000E+00  0.00000000000E+00  0.35217754998E+03  0.35217754998E+03  0.00000000000E+00 0. -1.
         21   -1    0    0  502  503 -0.00000000000E+00 -0.00000000000E+00 -0.16326238997E+03  0.16326238997E+03  0.00000000000E+00 0.  1.
          6    1    1    2  501    0  0.39573116412E+02 -0.16222234919E+03  0.88451584469E+02  0.25551869778E+03  0.17200000000E+03 0. -1.
         -6    1    1    2    0  503 -0.39573116412E+02  0.16222234919E+03  0.10046357555E+03  0.25992124217E+03  0.17200000000E+03 0.  1.
</event>
<event>
 4    1  0.6129841E-001  0.3315309E+03  0.7818608E-02  0.1070461E+00
         21   -1    0    0  501  502  0.00000000000E+00  0.00000000000E+00  0.49511432679E+03  0.49511432679E+03  0.00000000000E+00 0.  1.
         21   -1    0    0  502  503 -0.00000000000E+00 -0.00000000000E+00 -0.49880147350E+03  0.49880147350E+03  0.00000000000E+00 0. -1.
          6    1    1    2  501    0 -0.64201316510E+02  0.27605602919E+03  0.36836299275E+03  0.49558453842E+03  0.17200000000E+03 0.  1.
         -6    1    1    2    0  503  0.64201316510E+02 -0.27605602919E+03 -0.37205013946E+03  0.49833126188E+03  0.17200000000E+03 0. -1.
</event>
<event>
 4    1  0.6129841E-001  0.1914247E+03  0.7818608E-02  0.1157183E+00
         21   -1    0    0  501  502  0.00000000000E+00  0.00000000000E+00  0.56921979818E+02  0.56921979818E+02  0.00000000000E+00 0.  1.
         21   -1    0    0  502  503 -0.00000000000E+00 -0.00000000000E+00 -0.64468145731E+03  0.64468145731E+03  0.00000000000E+00 0.  1.
          6    1    1    2  501    0 -0.52764588771E+02  0.65385898527E+02 -0.28053198482E+03  0.33961980517E+03  0.17200000000E+03 0.  1.
         -6    1    1    2    0  503  0.52764588771E+02 -0.65385898527E+02 -0.30722749266E+03  0.36198363195E+03  0.17200000000E+03 0.  1.
</event>
<event>
 4    1  0.6129841E-001  0.1868297E+03  0.7818608E-02  0.1161352E+00
         21   -1    0    0  503  502  0.00000000000E+00  0.00000000000E+00  0.13389233893E+03  0.13389233893E+03  0.00000000000E+00 0. -1.
         21   -1    0    0  501  503 -0.00000000000E+00 -0.00000000000E+00 -0.26069808479E+03  0.26069808479E+03  0.00000000000E+00 0. -1.
          6    1    1    2  501    0  0.64099430708E+02  0.34822514040E+02 -0.63786289244E+02  0.19741842669E+03  0.17200000000E+03 0.  1.
         -6    1    1    2    0  502 -0.64099430708E+02 -0.34822514040E+02 -0.63019456618E+02  0.19717199703E+03  0.17200000000E+03 0.  1.
</event>
<event>
 4    1  0.6129841E-001  0.2081342E+03  0.7818608E-02  0.1143052E+00
         21   -1    0    0  503  502  0.00000000000E+00  0.00000000000E+00  0.13607651395E+04  0.13607651395E+04  0.00000000000E+00 0. -1.
         21   -1    0    0  501  503 -0.00000000000E+00 -0.00000000000E+00 -0.38495650188E+02  0.38495650188E+02  0.00000000000E+00 0. -1.
          6    1    1    2  501    0  0.64559962754E+02  0.97815381498E+02  0.37011393781E+03  0.42462237884E+03  0.17200000000E+03 0. -1.
         -6    1    1    2    0  502 -0.64559962754E+02 -0.97815381498E+02  0.95215555149E+03  0.97463841084E+03  0.17200000000E+03 0. -1.
</event>
<event>
 4    1  0.6129841E-001  0.1868773E+03  0.7818608E-02  0.1161308E+00
         21   -1    0    0  503  502  0.00000000000E+00  0.00000000000E+00  0.30609271617E+02  0.30609271617E+02  0.00000000000E+00 0. -1.
         21   -1    0    0  501  503 -0.00000000000E+00 -0.00000000000E+00 -0.14241468122E+04  0.14241468122E+04  0.00000000000E+00 0. -1.
          6    1    1    2  501    0  0.13386476495E+02  0.71832756934E+02 -0.10211380033E+04  0.10380972809E+04  0.17200000000E+03 0.  1.
         -6    1    1    2    0  502 -0.13386476495E+02 -0.71832756934E+02 -0.37239953727E+03  0.41665880296E+03  0.17200000000E+03 0.  1.
</event>
<event>
 4    1  0.6129841E-001  0.1980681E+03  0.7818608E-02  0.1151379E+00
         21   -1    0    0  503  502  0.00000000000E+00  0.00000000000E+00  0.66921235952E+03  0.66921235952E+03  0.00000000000E+00 0. -1.
         21   -1    0    0  501  503 -0.00000000000E+00 -0.00000000000E+00 -0.58826406855E+02  0.58826406855E+02  0.00000000000E+00 0.  1.
          6    1    1    2  501    0  0.96712792570E+02  0.17135417006E+02  0.32661786687E+03  0.38198195994E+03  0.17200000000E+03 0.  1.
         -6    1    1    2    0  502 -0.96712792570E+02 -0.17135417006E+02  0.28376808579E+03  0.34605680643E+03  0.17200000000E+03 0. -1.
</event>
<event>
 4    1  0.6129841E-001  0.2211733E+03  0.7818608E-02  0.1133011E+00
         21   -1    0    0  501  502  0.00000000000E+00  0.00000000000E+00  0.10100167987E+04  0.10100167987E+04  0.00000000000E+00 0.  1.
         21   -1    0    0  502  503 -0.00000000000E+00 -0.00000000000E+00 -0.74001474436E+02  0.74001474436E+02  0.00000000000E+00 0. -1.
          6    1    1    2  501    0 -0.34068891069E+02 -0.13480699537E+03  0.78660582786E+03  0.81710852630E+03  0.17200000000E+03 0.  1.
         -6    1    1    2    0  503  0.34068891069E+02  0.13480699537E+03  0.14940949642E+03  0.26690974684E+03  0.17200000000E+03 0. -1.
</event>
<event>
 4    1  0.6129841E-001  0.1777975E+03  0.7818608E-02  0.1169952E+00
         21   -1    0    0  501  502  0.00000000000E+00  0.00000000000E+00  0.16003380362E+04  0.16003380362E+04  0.00000000000E+00 0.  1.
         21   -1    0    0  502  503 -0.00000000000E+00 -0.00000000000E+00 -0.27346715784E+02  0.27346715784E+02  0.00000000000E+00 0.  1.
          6    1    1    2  501    0 -0.44622350857E+02 -0.60652954992E+01  0.12153468063E+04  0.12282832742E+04  0.17200000000E+03 0.  1.
         -6    1    1    2    0  503  0.44622350857E+02  0.60652954992E+01  0.35764451409E+03  0.39940147779E+03  0.17200000000E+03 0.  1.
</event>
<event>
 4    1  0.6129841E-001  0.1933293E+03  0.7818608E-02  0.1155492E+00
         21   -1    0    0  501  502  0.00000000000E+00  0.00000000000E+00  0.46420549603E+03  0.46420549603E+03  0.00000000000E+00 0. -1.
         21   -1    0    0  502  503 -0.00000000000E+00 -0.00000000000E+00 -0.92707461625E+02  0.92707461625E+02  0.00000000000E+00 0. -1.
          6    1    1    2  501    0  0.85198470276E+02  0.23096462734E+02  0.28672498844E+03  0.34581417687E+03  0.17200000000E+03 0. -1.
         -6    1    1    2    0  503 -0.85198470276E+02 -0.23096462734E+02  0.84773045971E+02  0.21109878079E+03  0.17200000000E+03 0. -1.
</event>
<event>
 4    1  0.6129841E-001  0.1775921E+03  0.7818608E-02  0.1170154E+00
         21   -1    0    0  501  502  0.00000000000E+00  0.00000000000E+00  0.45200996413E+02  0.45200996413E+02  0.00000000000E+00 0.  1.
         21   -1    0    0  502  503 -0.00000000000E+00 -0.00000000000E+00 -0.10546258466E+04  0.10546258466E+04  0.00000000000E+00 0.  1.
          6    1    1    2  501    0  0.31921878847E+02  0.30593255937E+02 -0.18481978230E+03  0.25631485636E+03  0.17200000000E+03 0.  1.
         -6    1    1    2    0  503 -0.31921878847E+02 -0.30593255937E+02 -0.82460506790E+03  0.84351198667E+03  0.17200000000E+03 0.  1.
</event>
<event>
 4    1  0.6129841E-001  0.3551077E+03  0.7818608E-02  0.1060538E+00
         21   -1    0    0  503  502  0.00000000000E+00  0.00000000000E+00  0.17475920663E+03  0.17475920663E+03  0.00000000000E+00 0. -1.
         21   -1    0    0  501  503 -0.00000000000E+00 -0.00000000000E+00 -0.10836069335E+04  0.10836069335E+04  0.00000000000E+00 0.  1.
          6    1    1    2  501    0 -0.31066484955E+03  0.22040801366E+01 -0.81810086924E+03  0.89184670150E+03  0.17200000000E+03 0.  1.
         -6    1    1    2    0  502  0.31066484955E+03 -0.22040801366E+01 -0.90746857608E+02  0.36651943862E+03  0.17200000000E+03 0. -1.
</event>
<event>
 4    1  0.6129841E-001  0.1736349E+03  0.7818608E-02  0.1174109E+00
         21   -1    0    0  501  502  0.00000000000E+00  0.00000000000E+00  0.57662260276E+03  0.57662260276E+03  0.00000000000E+00 0.  1.
         21   -1    0    0  502  503 -0.00000000000E+00 -0.00000000000E+00 -0.66419187571E+02  0.66419187571E+02  0.00000000000E+00 0.  1.
          6    1    1    2  501    0 -0.11890343730E+02  0.20584149208E+02  0.40341765995E+03  0.43919801438E+03  0.17200000000E+03 0.  1.
         -6    1    1    2    0  503  0.11890343730E+02 -0.20584149208E+02  0.10678575523E+03  0.20384377595E+03  0.17200000000E+03 0.  1.
</event>
<event>
 4    1  0.6129841E-001  0.2172850E+03  0.7818608E-02  0.1135924E+00
         21   -1    0    0  503  502  0.00000000000E+00  0.00000000000E+00  0.40067466580E+03  0.40067466580E+03  0.00000000000E+00 0. -1.
         21   -1    0    0  501  503 -0.00000000000E+00 -0.00000000000E+00 -0.33849076162E+03  0.33849076162E+03  0.00000000000E+00 0. -1.
          6    1    1    2  501    0 -0.12376501249E+03 -0.48072569410E+02 -0.26730728989E+03  0.34447922648E+03  0.17200000000E+03 0. -1.
         -6    1    1    2    0  502  0.12376501249E+03  0.48072569410E+02  0.32949119407E+03  0.39468620094E+03  0.17200000000E+03 0. -1.
</event>
<event>
 4    1  0.6129841E-001  0.1827615E+03  0.7818608E-02  0.1165157E+00
         21   -1    0    0  501  502  0.00000000000E+00  0.00000000000E+00  0.14164535189E+03  0.14164535189E+03  0.00000000000E+00 0. -1.
         21   -1    0    0  502  503 -0.00000000000E+00 -0.00000000000E+00 -0.24054920151E+03  0.24054920151E+03  0.00000000000E+00 0. -1.
          6    1    1    2  501    0 -0.31076570283E+02  0.53404375813E+02 -0.22636857951E+02  0.18415810575E+03  0.17200000000E+03 0. -1.
         -6    1    1    2    0  503  0.31076570283E+02 -0.53404375813E+02 -0.76266991666E+02  0.19803644764E+03  0.17200000000E+03 0. -1.
</event>
<event>
 4    1  0.6129841E-001  0.1792460E+03  0.7818608E-02  0.1168535E+00
         21   -1    0    0  503  502  0.00000000000E+00  0.00000000000E+00  0.13549352075E+03  0.13549352075E+03  0.00000000000E+00 0. -1.
         21   -1    0    0  501  503 -0.00000000000E+00 -0.00000000000E+00 -0.35176625817E+03  0.35176625817E+03  0.00000000000E+00 0. -1.
          6    1    1    2  501    0 -0.47009772597E+02  0.18308303433E+02 -0.24721838965E+03  0.30536215364E+03  0.17200000000E+03 0. -1.
         -6    1    1    2    0  502  0.47009772597E+02 -0.18308303433E+02  0.30945652229E+02  0.18189762529E+03  0.17200000000E+03 0. -1.
</event>
<event>
 4    1  0.6129841E-001  0.1760951E+03  0.7818608E-02  0.1171637E+00
         21   -1    0    0  501  502  0.00000000000E+00  0.00000000000E+00  0.43845956957E+03  0.43845956957E+03  0.00000000000E+00 0. -1.
         21   -1    0    0  502  503 -0.00000000000E+00 -0.00000000000E+00 -0.71008971648E+02  0.71008971648E+02  0.00000000000E+00 0. -1.
          6    1    1    2  501    0 -0.10859600764E+02 -0.36160121925E+02  0.19987097009E+03  0.26637922222E+03  0.17200000000E+03 0. -1.
         -6    1    1    2    0  503  0.10859600764E+02  0.36160121925E+02  0.16757962783E+03  0.24308931900E+03  0.17200000000E+03 0. -1.
</event>
<event>
 4    1  0.6129841E-001  0.1731012E+03  0.7818608E-02  0.1174652E+00
         21   -1    0    0  503  502  0.00000000000E+00  0.00000000000E+00  0.76572357265E+03  0.76572357265E+03  0.00000000000E+00 0. -1.
         21   -1    0    0  501  503 -0.00000000000E+00 -0.00000000000E+00 -0.40123667362E+02  0.40123667362E+02  0.00000000000E+00 0. -1.
          6    1    1    2  501    0 -0.73890395095E+01  0.18039375126E+02  0.29944437166E+03  0.34587707163E+03  0.17200000000E+03 0.  1.
         -6    1    1    2    0  502  0.73890395095E+01 -0.18039375126E+02  0.42615553363E+03  0.45997016839E+03  0.17200000000E+03 0.  1.
</event>
<event>
 4    1  0.6129841E-001  0.1765806E+03  0.7818608E-02  0.1171154E+00
         21   -1    0    0  501  502  0.00000000000E+00  0.00000000000E+00  0.93244740786E+02  0.93244740786E+02  0.00000000000E+00 0. -1.
         21   -1    0    0  502  503 -0.00000000000E+00 -0.00000000000E+00 -0.35189541000E+03  0.35189541000E+03  0.00000000000E+00 0. -1.
          6    1    1    2  501    0  0.14406144935E+02 -0.37271434159E+02 -0.79692636411E+02  0.19373077482E+03  0.17200000000E+03 0.  1.
         -6    1    1    2    0  503 -0.14406144935E+02  0.37271434159E+02 -0.17895803280E+03  0.25140937596E+03  0.17200000000E+03 0.  1.
</event>
<event>
 4    1  0.6129841E-001  0.1746657E+03  0.7818608E-02  0.1173068E+00
         21   -1    0    0  503  502  0.00000000000E+00  0.00000000000E+00  0.33443391746E+03  0.33443391746E+03  0.00000000000E+00 0.  1.
         21   -1    0    0  501  503 -0.00000000000E+00 -0.00000000000E+00 -0.99136468645E+02  0.99136468645E+02  0.00000000000E+00 0.  1.
          6    1    1    2  501    0 -0.25704075014E+02  0.16230074617E+02  0.56400673721E+02  0.18354604542E+03  0.17200000000E+03 0.  1.
         -6    1    1    2    0  502  0.25704075014E+02 -0.16230074617E+02  0.17889677510E+03  0.25002434068E+03  0.17200000000E+03 0.  1.
</event>
<event>
 4    1  0.6129841E-001  0.1777619E+03  0.7818608E-02  0.1169987E+00
         21   -1    0    0  503  502  0.00000000000E+00  0.00000000000E+00  0.82801243094E+03  0.82801243094E+03  0.00000000000E+00 0.  1.
         21   -1    0    0  501  503 -0.00000000000E+00 -0.00000000000E+00 -0.51902129881E+02  0.51902129881E+02  0.00000000000E+00 0.  1.
          6    1    1    2  501    0  0.44256211786E+02 -0.75295966915E+01  0.61441533511E+03  0.63961356390E+03  0.17200000000E+03 0. -1.
         -6    1    1    2    0  502 -0.44256211786E+02  0.75295966915E+01  0.16169496595E+03  0.24030099692E+03  0.17200000000E+03 0. -1.
</event>
<event>
 4    1  0.6129841E-001  0.2101954E+03  0.7818608E-02  0.1141411E+00
         21   -1    0    0  503  502  0.00000000000E+00  0.00000000000E+00  0.20188013103E+02  0.20188013103E+02  0.00000000000E+00 0. -1.
         21   -1    0    0  501  503 -0.00000000000E+00 -0.00000000000E+00 -0.24721425799E+04  0.24721425799E+04  0.00000000000E+00 0. -1.
          6    1    1    2  501    0 -0.10238487882E+03 -0.64151766982E+02 -0.80389209533E+03  0.83091793431E+03  0.17200000000E+03 0. -1.
         -6    1    1    2    0  502  0.10238487882E+03  0.64151766982E+02 -0.16480624715E+04  0.16614126587E+04  0.17200000000E+03 0. -1.
</event>
<event>
 4    1  0.6129841E-001  0.1786055E+03  0.7818608E-02  0.1169160E+00
         21   -1    0    0  503  502  0.00000000000E+00  0.00000000000E+00  0.12925014504E+04  0.12925014504E+04  0.00000000000E+00 0. -1.
         21   -1    0    0  501  503 -0.00000000000E+00 -0.00000000000E+00 -0.28950901789E+02  0.28950901789E+02  0.00000000000E+00 0. -1.
          6    1    1    2  501    0 -0.41415093452E+02 -0.24509213258E+02  0.37802187308E+03  0.41809143501E+03  0.17200000000E+03 0.  1.
         -6    1    1    2    0  502  0.41415093452E+02  0.24509213258E+02  0.88552867550E+03  0.90336091715E+03  0.17200000000E+03 0.  1.
</event>
<event>
 4    1  0.6129841E-001  0.2181791E+03  0.7818608E-02  0.1135248E+00
         21   -1    0    0  501  502  0.00000000000E+00  0.00000000000E+00  0.43341747376E+03  0.43341747376E+03  0.00000000000E+00 0. -1.
         21   -1    0    0  502  503 -0.00000000000E+00 -0.00000000000E+00 -0.11528906879E+03  0.11528906879E+03  0.00000000000E+00 0. -1.
          6    1    1    2  501    0  0.20221033845E+02  0.13269969585E+03  0.21876613108E+03  0.30896718207E+03  0.17200000000E+03 0. -1.
         -6    1    1    2    0  503 -0.20221033845E+02 -0.13269969585E+03  0.99362273901E+02  0.23973936048E+03  0.17200000000E+03 0. -1.
</event>
<event>
 4    1  0.6129841E-001  0.1763558E+03  0.7818608E-02  0.1171377E+00
         21   -1    0    0  503  502  0.00000000000E+00  0.00000000000E+00  0.64162823394E+03  0.64162823394E+03  0.00000000000E+00 0. -1.
         21   -1    0    0  501  503 -0.00000000000E+00 -0.00000000000E+00 -0.66560649623E+02  0.66560649623E+02  0.00000000000E+00 0. -1.
          6    1    1    2  501    0  0.33608746093E+02  0.19693214410E+02  0.10294448272E+03  0.20420317586E+03  0.17200000000E+03 0. -1.
         -6    1    1    2    0  502 -0.33608746093E+02 -0.19693214410E+02  0.47212310160E+03  0.50398570771E+03  0.17200000000E+03 0. -1.
</event>
<event>
 4    1  0.6129841E-001  0.1861849E+03  0.7818608E-02  0.1161948E+00
         21   -1    0    0  501  502  0.00000000000E+00  0.00000000000E+00  0.60837435172E+02  0.60837435172E+02  0.00000000000E+00 0. -1.
         21   -1    0    0  502  503 -0.00000000000E+00 -0.00000000000E+00 -0.57159257208E+03  0.57159257208E+03  0.00000000000E+00 0. -1.
          6    1    1    2  501    0  0.51181422234E+02 -0.49611436092E+02 -0.27311331386E+03  0.33053852238E+03  0.17200000000E+03 0. -1.
         -6    1    1    2    0  503 -0.51181422234E+02  0.49611436092E+02 -0.23764182305E+03  0.30189148487E+03  0.17200000000E+03 0. -1.
</event>
<event>
 4    1  0.6129841E-001  0.1794368E+03  0.7818608E-02  0.1168349E+00
         21   -1    0    0  501  502  0.00000000000E+00  0.00000000000E+00  0.11839828812E+03  0.11839828812E+03  0.00000000000E+00 0.  1.
         21   -1    0    0  502  503 -0.00000000000E+00 -0.00000000000E+00 -0.38735467308E+03  0.38735467308E+03  0.00000000000E+00 0.  1.
          6    1    1    2  501    0  0.21586092611E+02 -0.46342279456E+02 -0.27251001287E+03  0.32628097305E+03  0.17200000000E+03 0.  1.
         -6    1    1    2    0  503 -0.21586092611E+02  0.46342279456E+02  0.35536279151E+01  0.17947198815E+03  0.17200000000E+03 0.  1.
</event>
<event>
 4    1  0.6129841E-001  0.1916005E+03  0.7818608E-02  0.1157026E+00
         21   -1    0    0  501  502  0.00000000000E+00  0.00000000000E+00  0.20642072032E+04  0.20642072032E+04  0.00000000000E+00 0. -1.
         21   -1    0    0  502  503 -0.00000000000E+00 -0.00000000000E+00 -0.40372459573E+02  0.40372459573E+02  0.00000000000E+00 0. -1.
          6    1    1    2  501    0 -0.49255882730E+02  0.68560973832E+02  0.17990210476E+04  0.18091952572E+04  0.17200000000E+03 0. -1.
         -6    1    1    2    0  503  0.49255882730E+02 -0.68560973832E+02  0.22481369607E+03  0.29538440558E+03  0.17200000000E+03 0. -1.
</event>
<event>
 4    1  0.6129841E-001  0.1726969E+03  0.7818608E-02  0.1175064E+00
         21   -1    0    0  503  502  0.00000000000E+00  0.00000000000E+00  0.49248562857E+03  0.49248562857E+03  0.00000000000E+00 0. -1.
         21   -1    0    0  501  503 -0.00000000000E+00 -0.00000000000E+00 -0.11472477124E+03  0.11472477124E+03  0.00000000000E+00 0. -1.
          6    1    1    2  501    0  0.85474819843E+01 -0.12929571345E+02  0.39749504374E+03  0.43338959732E+03  0.17200000000E+03 0. -1.
         -6    1    1    2    0  502 -0.85474819843E+01  0.12929571345E+02 -0.19734186412E+02  0.17382080249E+03  0.17200000000E+03 0. -1.
</event>
<event>
 4    1  0.6129841E-001  0.1852824E+03  0.7818608E-02  0.1162786E+00
         21   -1    0    0  501  502  0.00000000000E+00  0.00000000000E+00  0.77365221190E+03  0.77365221190E+03  0.00000000000E+00 0.  1.
         21   -1    0    0  502  503 -0.00000000000E+00 -0.00000000000E+00 -0.60800135694E+02  0.60800135694E+02  0.00000000000E+00 0.  1.
          6    1    1    2  501    0  0.68029057230E+02 -0.10845278639E+02  0.57329380839E+03  0.60249096544E+03  0.17200000000E+03 0.  1.
         -6    1    1    2    0  503 -0.68029057230E+02  0.10845278639E+02  0.13955826782E+03  0.23196138216E+03  0.17200000000E+03 0.  1.
</event>
<event>
 4    1  0.6129841E-001  0.1894552E+03  0.7818608E-02  0.1158954E+00
         21   -1    0    0  503  502  0.00000000000E+00  0.00000000000E+00  0.34724556234E+03  0.34724556234E+03  0.00000000000E+00 0.  1.
         21   -1    0    0  501  503 -0.00000000000E+00 -0.00000000000E+00 -0.19740345495E+03  0.19740345495E+03  0.00000000000E+00 0. -1.
          6    1    1    2  501    0 -0.82707388792E+01 -0.78999161830E+02 -0.11303682412E+03  0.22061413440E+03  0.17200000000E+03 0. -1.
         -6    1    1    2    0  502  0.82707388792E+01  0.78999161830E+02  0.26287893151E+03  0.32403488288E+03  0.17200000000E+03 0.  1.
</event>
<event>
 4    1  0.6129841E-001  0.1836462E+03  0.7818608E-02  0.1164320E+00
         21   -1    0    0  501  502  0.00000000000E+00  0.00000000000E+00  0.58947519707E+02  0.58947519707E+02  0.00000000000E+00 0. -1.
         21   -1    0    0  502  503 -0.00000000000E+00 -0.00000000000E+00 -0.75169888037E+03  0.75169888037E+03  0.00000000000E+00 0. -1.
          6    1    1    2  501    0 -0.63819579346E+02  0.83052802856E+01 -0.14827340225E+03  0.23603160424E+03  0.17200000000E+03 0. -1.
         -6    1    1    2    0  503  0.63819579346E+02 -0.83052802856E+01 -0.54447795841E+03  0.57461479583E+03  0.17200000000E+03 0. -1.
</event>
<event>
 4    1  0.6129841E-001  0.1935474E+03  0.7818608E-02  0.1155300E+00
         21   -1    0    0  501  502  0.00000000000E+00  0.00000000000E+00  0.20748346530E+03  0.20748346530E+03  0.00000000000E+00 0. -1.
         21   -1    0    0  502  503 -0.00000000000E+00 -0.00000000000E+00 -0.18097918287E+03  0.18097918287E+03  0.00000000000E+00 0. -1.
          6    1    1    2  501    0 -0.87647833609E+02 -0.13944452482E+02  0.22739846900E+02  0.19487865745E+03  0.17200000000E+03 0. -1.
         -6    1    1    2    0  503  0.87647833609E+02  0.13944452482E+02  0.37644355338E+01  0.19358399073E+03  0.17200000000E+03 0. -1.
</event>
<event>
 4    1  0.6129841E-001  0.3336968E+03  0.7818608E-02  0.1069513E+00
         21   -1    0    0  503  502  0.00000000000E+00  0.00000000000E+00  0.10455426597E+03  0.10455426597E+03  0.00000000000E+00 0. -1.
         21   -1    0    0  501  503 -0.00000000000E+00 -0.00000000000E+00 -0.10668360432E+04  0.10668360432E+04  0.00000000000E+00 0.  1.
          6    1    1    2  501    0  0.11191990319E+03 -0.26314154878E+03 -0.50523222289E+03  0.60548586975E+03  0.17200000000E+03 0.  1.
         -6    1    1    2    0  502 -0.11191990319E+03  0.26314154878E+03 -0.45704955433E+03  0.56590443940E+03  0.17200000000E+03 0. -1.
</event>
<event>
 4    1  0.6129841E-001  0.1992876E+03  0.7818608E-02  0.1150341E+00
         21   -1    0    0  501  502  0.00000000000E+00  0.00000000000E+00  0.29031624500E+02  0.29031624500E+02  0.00000000000E+00 0. -1.
         21   -1    0    0  502  503 -0.00000000000E+00 -0.00000000000E+00 -0.13922173610E+04  0.13922173610E+04  0.00000000000E+00 0. -1.
          6    1    1    2  501    0  0.10047337938E+03  0.60538526986E+01 -0.77529758775E+03  0.80050102978E+03  0.17200000000E+03 0. -1.
         -6    1    1    2    0  503 -0.10047337938E+03 -0.60538526986E+01 -0.58788814871E+03  0.62074795569E+03  0.17200000000E+03 0. -1.
</event>
<event>
 4    1  0.6129841E-001  0.2685318E+03  0.7818608E-02  0.1102123E+00
         21   -1    0    0  503  502  0.00000000000E+00  0.00000000000E+00  0.32021031260E+03  0.32021031260E+03  0.00000000000E+00 0. -1.
         21   -1    0    0  501  503 -0.00000000000E+00 -0.00000000000E+00 -0.29661358697E+03  0.29661358697E+03  0.00000000000E+00 0.  1.
          6    1    1    2  501    0  0.63781080589E+02 -0.19610529217E+03 -0.13953879421E+03  0.30262251560E+03  0.17200000000E+03 0.  1.
         -6    1    1    2    0  502 -0.63781080589E+02  0.19610529217E+03  0.16313551984E+03  0.31420138397E+03  0.17200000000E+03 0. -1.
</event>
<event>
 4    1  0.6129841E-001  0.1924457E+03  0.7818608E-02  0.1156274E+00
         21   -1    0    0  503  502  0.00000000000E+00  0.00000000000E+00  0.11103723145E+03  0.11103723145E+03  0.00000000000E+00 0. -1.
         21   -1    0    0  501  503 -0.00000000000E+00 -0.00000000000E+00 -0.48083338911E+03  0.48083338911E+03  0.00000000000E+00 0. -1.
          6    1    1    2  501    0  0.37356308893E+02 -0.77819335442E+02 -0.34868956006E+03  0.39827095309E+03  0.17200000000E+03 0.  1.
         -6    1    1    2    0  502 -0.37356308893E+02  0.77819335442E+02 -0.21106597604E+02  0.19359966747E+03  0.17200000000E+03 0.  1.
</event>
<event>
 4    1  0.6129841E-001  0.1754243E+03  0.7818608E-02  0.1172306E+00
         21   -1    0    0  503  502  0.00000000000E+00  0.00000000000E+00  0.10935056494E+04  0.10935056494E+04  0.00000000000E+00 0.  1.
         21   -1    0    0  501  503 -0.00000000000E+00 -0.00000000000E+00 -0.42211401248E+02  0.42211401248E+02  0.00000000000E+00 0.  1.
          6    1    1    2  501    0 -0.31235495320E+02  0.14629795669E+02  0.19780894468E+03  0.26438998787E+03  0.17200000000E+03 0.  1.
         -6    1    1    2    0  502  0.31235495320E+02 -0.14629795669E+02  0.85348530344E+03  0.87132706275E+03  0.17200000000E+03 0.  1.
</event>
<event>
 4    1  0.6129841E-001  0.1793025E+03  0.7818608E-02  0.1168480E+00
         21   -1    0    0  501  502  0.00000000000E+00  0.00000000000E+00  0.12017651901E+03  0.12017651901E+03  0.00000000000E+00 0.  1.
         21   -1    0    0  502  503 -0.00000000000E+00 -0.00000000000E+00 -0.29930153986E+03  0.29930153986E+03  0.00000000000E+00 0.  1.
          6    1    1    2  501    0  0.49915732162E+02 -0.85918179650E+01 -0.15791036831E+03  0.23892485027E+03  0.17200000000E+03 0. -1.
         -6    1    1    2    0  503 -0.49915732162E+02  0.85918179650E+01 -0.21214652540E+02  0.18055320860E+03  0.17200000000E+03 0. -1.
</event>
<event>
 4    1  0.6129841E-001  0.2060601E+03  0.7818608E-02  0.1144725E+00
         21   -1    0    0  501  502  0.00000000000E+00  0.00000000000E+00  0.80170111940E+02  0.80170111940E+02  0.00000000000E+00 0. -1.
         21   -1    0    0  502  503 -0.00000000000E+00 -0.00000000000E+00 -0.96894507570E+03  0.96894507570E+03  0.00000000000E+00 0. -1.
          6    1    1    2  501    0  0.94590017425E+02  0.62685636183E+02 -0.91179894385E+02  0.22533205169E+03  0.17200000000E+03 0. -1.
         -6    1    1    2    0  503 -0.94590017425E+02 -0.62685636183E+02 -0.79759506937E+03  0.82378313595E+03  0.17200000000E+03 0. -1.
</event>
<event>
 4    1  0.6129841E-001  0.2872841E+03  0.7818608E-02  0.1091776E+00
         21   -1    0    0  501  502  0.00000000000E+00  0.00000000000E+00  0.17907440265E+03  0.17907440265E+03  0.00000000000E+00 0. -1.
         21   -1    0    0  502  503 -0.00000000000E+00 -0.00000000000E+00 -0.47050521106E+03  0.47050521106E+03  0.00000000000E+00 0.  1.
          6    1    1    2  501    0 -0.22629551339E+03  0.41695494432E+02 -0.99266061426E+02  0.30395052984E+03  0.17200000000E+03 0.  1.
         -6    1    1    2    0  503  0.22629551339E+03 -0.41695494432E+02 -0.19216474698E+03  0.34562908387E+03  0.17200000000E+03 0.  1.
</event>
<event>
 4    1  0.6129841E-001  0.1923293E+03  0.7818608E-02  0.1156377E+00
         21   -1    0    0  503  502  0.00000000000E+00  0.00000000000E+00  0.29841212987E+03  0.29841212987E+03  0.00000000000E+00 0. -1.
         21   -1    0    0  501  503 -0.00000000000E+00 -0.00000000000E+00 -0.37905786108E+03  0.37905786108E+03  0.00000000000E+00 0. -1.
          6    1    1    2  501    0 -0.41572114013E+02  0.75354666710E+02 -0.31820615844E+03  0.37181410103E+03  0.17200000000E+03 0.  1.
         -6    1    1    2    0  502  0.41572114013E+02 -0.75354666710E+02  0.23756042723E+03  0.30565588992E+03  0.17200000000E+03 0.  1.
</event>
<event>
 4    1  0.6129841E-001  0.2281189E+03  0.7818608E-02  0.1127971E+00
         21   -1    0    0  503  502  0.00000000000E+00  0.00000000000E+00  0.37649052587E+03  0.37649052587E+03  0.00000000000E+00 0. -1.
         21   -1    0    0  501  503 -0.00000000000E+00 -0.00000000000E+00 -0.27319719330E+03  0.27319719330E+03  0.00000000000E+00 0.  1.
          6    1    1    2  501    0 -0.30844140177E+01  0.14981566569E+03 -0.17668592699E+03  0.28854144259E+03  0.17200000000E+03 0.  1.
         -6    1    1    2    0  502  0.30844140177E+01 -0.14981566569E+03  0.27997925957E+03  0.36114627657E+03  0.17200000000E+03 0. -1.
</event>
<event>
 4    1  0.6129841E-001  0.1802779E+03  0.7818608E-02  0.1167534E+00
         21   -1    0    0  501  502  0.00000000000E+00  0.00000000000E+00  0.53807979926E+03  0.53807979926E+03  0.00000000000E+00 0.  1.
         21   -1    0    0  502  503 -0.00000000000E+00 -0.00000000000E+00 -0.77244598782E+02  0.77244598782E+02  0.00000000000E+00 0.  1.
          6    1    1    2  501    0 -0.15488828152E+02 -0.51732024134E+02  0.37408834673E+03  0.41526160101E+03  0.17200000000E+03 0.  1.
         -6    1    1    2    0  503  0.15488828152E+02  0.51732024134E+02  0.86746853746E+02  0.20006279702E+03  0.17200000000E+03 0.  1.
</event>
<event>
 4    1  0.6129841E-001  0.2185255E+03  0.7818608E-02  0.1134987E+00
         21   -1    0    0  501  502  0.00000000000E+00  0.00000000000E+00  0.13105744595E+03  0.13105744595E+03  0.00000000000E+00 0. -1.
         21   -1    0    0  502  503 -0.00000000000E+00 -0.00000000000E+00 -0.69119624784E+03  0.69119624784E+03  0.00000000000E+00 0. -1.
          6    1    1    2  501    0 -0.40619760662E+02  0.12852799873E+03  0.26356485700E+01  0.21854143328E+03  0.17200000000E+03 0. -1.
         -6    1    1    2    0  503  0.40619760662E+02 -0.12852799873E+03 -0.56277445045E+03  0.60371226052E+03  0.17200000000E+03 0. -1.
</event>
<event>
 4    1  0.6129841E-001  0.2424495E+03  0.7818608E-02  0.1118172E+00
         21   -1    0    0  501  502  0.00000000000E+00  0.00000000000E+00  0.96290212165E+02  0.96290212165E+02  0.00000000000E+00 0. -1.
         21   -1    0    0  502  503 -0.00000000000E+00 -0.00000000000E+00 -0.99557379813E+03  0.99557379813E+03  0.00000000000E+00 0. -1.
          6    1    1    2  501    0 -0.67766210931E+02  0.15686137545E+03 -0.11009951157E+03  0.26627739840E+03  0.17200000000E+03 0. -1.
         -6    1    1    2    0  503  0.67766210931E+02 -0.15686137545E+03 -0.78918407440E+03  0.82558661189E+03  0.17200000000E+03 0. -1.
</event>
<event>
 4    1  0.6129841E-001  0.2729298E+03  0.7818608E-02  0.1099614E+00
         21   -1    0    0  501  502  0.00000000000E+00  0.00000000000E+00  0.58863311016E+02  0.58863311016E+02  0.00000000000E+00 0.  1.
         21   -1    0    0  502  503 -0.00000000000E+00 -0.00000000000E+00 -0.15151552451E+04  0.15151552451E+04  0.00000000000E+00 0. -1.
          6    1    1    2  501    0 -0.82436661521E+02  0.19522001615E+03 -0.40867281032E+03  0.49143069070E+03  0.17200000000E+03 0.  1.
         -6    1    1    2    0  503  0.82436661521E+02 -0.19522001615E+03 -0.10476191238E+04  0.10825878654E+04  0.17200000000E+03 0. -1.
</event>
<event>
 4    1  0.6129841E-001  0.1814432E+03  0.7818608E-02  0.1166414E+00
         21   -1    0    0  501  502  0.00000000000E+00  0.00000000000E+00  0.30841990055E+03  0.30841990055E+03  0.00000000000E+00 0.  1.
         21   -1    0    0  502  503 -0.00000000000E+00 -0.00000000000E+00 -0.10932227624E+03  0.10932227624E+03  0.00000000000E+00 0.  1.
          6    1    1    2  501    0 -0.56365469433E+02  0.12671029699E+02  0.67465069835E+02  0.19357984602E+03  0.17200000000E+03 0. -1.
         -6    1    1    2    0  503  0.56365469433E+02 -0.12671029699E+02  0.13163255447E+03  0.22416233077E+03  0.17200000000E+03 0. -1.
</event>
<event>
 4    1  0.6129841E-001  0.1777239E+03  0.7818608E-02  0.1170024E+00
         21   -1    0    0  501  502  0.00000000000E+00  0.00000000000E+00  0.26270719884E+03  0.26270719884E+03  0.00000000000E+00 0. -1.
         21   -1    0    0  502  503 -0.00000000000E+00 -0.00000000000E+00 -0.12174273793E+03  0.12174273793E+03  0.00000000000E+00 0. -1.
          6    1    1    2  501    0 -0.16856423656E+02  0.41444395778E+02  0.91896435943E+02  0.20007681500E+03  0.17200000000E+03 0.  1.
         -6    1    1    2    0  503  0.16856423656E+02 -0.41444395778E+02  0.49068024967E+02  0.18437312178E+03  0.17200000000E+03 0.  1.
</event>
<event>
 4    1  0.6129841E-001  0.1759253E+03  0.7818608E-02  0.1171806E+00
         21   -1    0    0  501  502  0.00000000000E+00  0.00000000000E+00  0.12759428698E+03  0.12759428698E+03  0.00000000000E+00 0. -1.
         21   -1    0    0  502  503 -0.00000000000E+00 -0.00000000000E+00 -0.31556326305E+03  0.31556326305E+03  0.00000000000E+00 0. -1.
          6    1    1    2  501    0  0.36391739462E+02  0.64303386730E+01  0.12588187763E+02  0.17637508449E+03  0.17200000000E+03 0. -1.
         -6    1    1    2    0  503 -0.36391739462E+02 -0.64303386730E+01 -0.20055716383E+03  0.26678246554E+03  0.17200000000E+03 0. -1.
</event>
<event>
 4    1  0.6129841E-001  0.2071666E+03  0.7818608E-02  0.1143830E+00
         21   -1    0    0  503  502  0.00000000000E+00  0.00000000000E+00  0.41336881166E+03  0.41336881166E+03  0.00000000000E+00 0.  1.
         21   -1    0    0  501  503 -0.00000000000E+00 -0.00000000000E+00 -0.21601638335E+03  0.21601638335E+03  0.00000000000E+00 0.  1.
          6    1    1    2  501    0  0.81010641838E+02 -0.82287818493E+02 -0.12811329938E+03  0.24357961048E+03  0.17200000000E+03 0.  1.
         -6    1    1    2    0  502 -0.81010641838E+02  0.82287818493E+02  0.32546572769E+03  0.38580558454E+03  0.17200000000E+03 0.  1.
</event>
<event>
 4    1  0.6129841E-001  0.1744725E+03  0.7818608E-02  0.1173262E+00
         21   -1    0    0  501  502  0.00000000000E+00  0.00000000000E+00  0.26507907809E+03  0.26507907809E+03  0.00000000000E+00 0.  1.
         21   -1    0    0  502  503 -0.00000000000E+00 -0.00000000000E+00 -0.66196457470E+03  0.66196457470E+03  0.00000000000E+00 0.  1.
          6    1    1    2  501    0 -0.12381986304E+02  0.26520722883E+02  0.22296008522E+03  0.28311104169E+03  0.17200000000E+03 0.  1.
         -6    1    1    2    0  503  0.12381986304E+02 -0.26520722883E+02 -0.61984558183E+03  0.64393261110E+03  0.17200000000E+03 0.  1.
</event>
<event>
 4    1  0.6129841E-001  0.1757182E+03  0.7818608E-02  0.1172012E+00
         21   -1    0    0  501  502  0.00000000000E+00  0.00000000000E+00  0.35871817064E+03  0.35871817064E+03  0.00000000000E+00 0. -1.
         21   -1    0    0  502  503 -0.00000000000E+00 -0.00000000000E+00 -0.90955884359E+02  0.90955884359E+02  0.00000000000E+00 0. -1.
          6    1    1    2  501    0  0.20658490982E+02  0.29429994590E+02  0.18596138665E+03  0.25584865674E+03  0.17200000000E+03 0. -1.
         -6    1    1    2    0  503 -0.20658490982E+02 -0.29429994590E+02  0.81800899639E+02  0.19382539827E+03  0.17200000000E+03 0. -1.
</event>
<event>
 4    1  0.6129841E-001  0.1814805E+03  0.7818608E-02  0.1166378E+00
         21   -1    0    0  501  502  0.00000000000E+00  0.00000000000E+00  0.17183258924E+02  0.17183258924E+02  0.00000000000E+00 0. -1.
         21   -1    0    0  502  503 -0.00000000000E+00 -0.00000000000E+00 -0.19425692773E+04  0.19425692773E+04  0.00000000000E+00 0. -1.
          6    1    1    2  501    0  0.46059152037E+02 -0.35067205625E+02 -0.84961604397E+03  0.86878223771E+03  0.17200000000E+03 0. -1.
         -6    1    1    2    0  503 -0.46059152037E+02  0.35067205625E+02 -0.10757699744E+04  0.10909702985E+04  0.17200000000E+03 0. -1.
</event>
<event>
 4    1  0.6129841E-001  0.2739598E+03  0.7818608E-02  0.1099034E+00
         21   -1    0    0  501  502  0.00000000000E+00  0.00000000000E+00  0.42597336840E+03  0.42597336840E+03  0.00000000000E+00 0.  1.
         21   -1    0    0  502  503 -0.00000000000E+00 -0.00000000000E+00 -0.21202275963E+03  0.21202275963E+03  0.00000000000E+00 0. -1.
          6    1    1    2  501    0  0.74525132032E+02 -0.19978983728E+03  0.23810841687E+03  0.36297326702E+03  0.17200000000E+03 0.  1.
         -6    1    1    2    0  503 -0.74525132032E+02  0.19978983728E+03 -0.24157808096E+02  0.27502286101E+03  0.17200000000E+03 0. -1.
</event>
<event>
 4    1  0.6129841E-001  0.2351054E+03  0.7818608E-02  0.1123097E+00
         21   -1    0    0  503  502  0.00000000000E+00  0.00000000000E+00  0.24778166272E+03  0.24778166272E+03  0.00000000000E+00 0. -1.
         21   -1    0    0  501  503 -0.00000000000E+00 -0.00000000000E+00 -0.22599721230E+03  0.22599721230E+03  0.00000000000E+00 0.  1.
          6    1    1    2  501    0  0.63299926780E+02 -0.14725378935E+03 -0.16032456363E+02  0.23565143510E+03  0.17200000000E+03 0. -1.
         -6    1    1    2    0  502 -0.63299926780E+02  0.14725378935E+03  0.37816906785E+02  0.23812743993E+03  0.17200000000E+03 0. -1.
</event>
<event>
 4    1  0.6129841E-001  0.2018730E+03  0.7818608E-02  0.1148168E+00
         21   -1    0    0  503  502  0.00000000000E+00  0.00000000000E+00  0.33630831824E+02  0.33630831824E+02  0.00000000000E+00 0. -1.
         21   -1    0    0  501  503 -0.00000000000E+00 -0.00000000000E+00 -0.12146891692E+04  0.12146891692E+04  0.00000000000E+00 0. -1.
          6    1    1    2  501    0  0.97217387512E+02  0.41442809802E+02 -0.62114370422E+03  0.65312497135E+03  0.17200000000E+03 0.  1.
         -6    1    1    2    0  502 -0.97217387512E+02 -0.41442809802E+02 -0.55991463317E+03  0.59519502969E+03  0.17200000000E+03 0.  1.
</event>
<event>
 4    1  0.6129841E-001  0.1940861E+03  0.7818608E-02  0.1154827E+00
         21   -1    0    0  503  502  0.00000000000E+00  0.00000000000E+00  0.18149188050E+03  0.18149188050E+03  0.00000000000E+00 0.  1.
         21   -1    0    0  501  503 -0.00000000000E+00 -0.00000000000E+00 -0.54938793668E+03  0.54938793668E+03  0.00000000000E+00 0.  1.
          6    1    1    2  501    0  0.89553243541E+02  0.81012521642E+01 -0.47220766450E+03  0.51053843354E+03  0.17200000000E+03 0.  1.
         -6    1    1    2    0  502 -0.89553243541E+02 -0.81012521642E+01  0.10431160831E+03  0.22034138364E+03  0.17200000000E+03 0.  1.
</event>
<event>
 4    1  0.6129841E-001  0.1895806E+03  0.7818608E-02  0.1158840E+00
         21   -1    0    0  503  502  0.00000000000E+00  0.00000000000E+00  0.33217932069E+02  0.33217932069E+02  0.00000000000E+00 0. -1.
         21   -1    0    0  501  503 -0.00000000000E+00 -0.00000000000E+00 -0.11158623113E+04  0.11158623113E+04  0.00000000000E+00 0. -1.
          6    1    1    2  501    0 -0.49918781156E+02  0.62168526615E+02 -0.64145232240E+03  0.66888107487E+03  0.17200000000E+03 0. -1.
         -6    1    1    2    0  502  0.49918781156E+02 -0.62168526615E+02 -0.44119205687E+03  0.48019916853E+03  0.17200000000E+03 0. -1.
</event>
<event>
 4    1  0.6129841E-001  0.2835890E+03  0.7818608E-02  0.1093745E+00
         21   -1    0    0  503  502  0.00000000000E+00  0.00000000000E+00  0.14822056404E+04  0.14822056404E+04  0.00000000000E+00 0. -1.
         21   -1    0    0  501  503 -0.00000000000E+00 -0.00000000000E+00 -0.70703241101E+02  0.70703241101E+02  0.00000000000E+00 0.  1.
          6    1    1    2  501    0  0.18923330023E+03 -0.12259469453E+03  0.33129083060E+03  0.43609209518E+03  0.17200000000E+03 0.  1.
         -6    1    1    2    0  502 -0.18923330023E+03  0.12259469453E+03  0.10802115687E+04  0.11168167863E+04  0.17200000000E+03 0. -1.
</event>
<event>
 4    1  0.6129841E-001  0.1990808E+03  0.7818608E-02  0.1150517E+00
         21   -1    0    0  503  502  0.00000000000E+00  0.00000000000E+00  0.43327802637E+03  0.43327802637E+03  0.00000000000E+00 0.  1.
         21   -1    0    0  501  503 -0.00000000000E+00 -0.00000000000E+00 -0.95808512380E+02  0.95808512380E+02  0.00000000000E+00 0.  1.
          6    1    1    2  501    0  0.89570391811E+02 -0.45014536835E+02  0.11245867966E+03  0.22864845997E+03  0.17200000000E+03 0.  1.
         -6    1    1    2    0  502 -0.89570391811E+02  0.45014536835E+02  0.22501083434E+03  0.30043807879E+03  0.17200000000E+03 0.  1.
</event>
<event>
 4    1  0.6129841E-001  0.1847311E+03  0.7818608E-02  0.1163301E+00
         21   -1    0    0  501  502  0.00000000000E+00  0.00000000000E+00  0.13630167259E+04  0.13630167259E+04  0.00000000000E+00 0. -1.
         21   -1    0    0  502  503 -0.00000000000E+00 -0.00000000000E+00 -0.18244258313E+03  0.18244258313E+03  0.00000000000E+00 0. -1.
          6    1    1    2  501    0  0.33072514459E+02 -0.58717771830E+02  0.13080397541E+04  0.13210198962E+04  0.17200000000E+03 0. -1.
         -6    1    1    2    0  503 -0.33072514459E+02  0.58717771830E+02 -0.12746561133E+03  0.22443941279E+03  0.17200000000E+03 0. -1.
</event>
<event>
 4    1  0.6129841E-001  0.1845715E+03  0.7818608E-02  0.1163451E+00
         21   -1    0    0  503  502  0.00000000000E+00  0.00000000000E+00  0.20012356178E+03  0.20012356178E+03  0.00000000000E+00 0.  1.
         21   -1    0    0  501  503 -0.00000000000E+00 -0.00000000000E+00 -0.29034650989E+03  0.29034650989E+03  0.00000000000E+00 0.  1.
          6    1    1    2  501    0  0.14732623570E+02  0.65311442451E+02 -0.20284687352E+03  0.27425077722E+03  0.17200000000E+03 0.  1.
         -6    1    1    2    0  502 -0.14732623570E+02 -0.65311442451E+02  0.11262392541E+03  0.21621929444E+03  0.17200000000E+03 0.  1.
</event>
<event>
 4    1  0.6129841E-001  0.1873030E+03  0.7818608E-02  0.1160917E+00
         21   -1    0    0  503  502  0.00000000000E+00  0.00000000000E+00  0.17983860825E+02  0.17983860825E+02  0.00000000000E+00 0. -1.
         21   -1    0    0  501  503 -0.00000000000E+00 -0.00000000000E+00 -0.26332835297E+04  0.26332835297E+04  0.00000000000E+00 0. -1.
          6    1    1    2  501    0  0.66390682266E+02  0.33025758274E+02 -0.19825344376E+04  0.19913626540E+04  0.17200000000E+03 0. -1.
         -6    1    1    2    0  502 -0.66390682266E+02 -0.33025758274E+02 -0.63276523127E+03  0.65990473654E+03  0.17200000000E+03 0. -1.
</event>
<event>
 4    1  0.6129841E-001  0.2025857E+03  0.7818608E-02  0.1147576E+00
         21   -1    0    0  501  502  0.00000000000E+00  0.00000000000E+00  0.24302676616E+04  0.24302676616E+04  0.00000000000E+00 0.  1.
         21   -1    0    0  502  503 -0.00000000000E+00 -0.00000000000E+00 -0.73814622799E+02  0.73814622799E+02  0.00000000000E+00 0.  1.
          6    1    1    2  501    0  0.72707104869E+02  0.78553565349E+02  0.22777569794E+04  0.22867483121E+04  0.17200000000E+03 0.  1.
         -6    1    1    2    0  503 -0.72707104869E+02 -0.78553565349E+02  0.78696059332E+02  0.21733397222E+03  0.17200000000E+03 0.  1.
</event>
<event>
 4    1  0.6129841E-001  0.2200385E+03  0.7818608E-02  0.1133854E+00
         21   -1    0    0  501  502  0.00000000000E+00  0.00000000000E+00  0.18252141913E+03  0.18252141913E+03  0.00000000000E+00 0.  1.
         21   -1    0    0  502  503 -0.00000000000E+00 -0.00000000000E+00 -0.27130092319E+03  0.27130092319E+03  0.00000000000E+00 0. -1.
          6    1    1    2  501    0 -0.91210045223E+02 -0.10253616876E+03 -0.78229289558E+02  0.23353106859E+03  0.17200000000E+03 0. -1.
         -6    1    1    2    0  503  0.91210045223E+02  0.10253616876E+03 -0.10550214499E+02  0.22029127373E+03  0.17200000000E+03 0.  1.
</event>
<event>
 4    1  0.6129841E-001  0.1975635E+03  0.7818608E-02  0.1151811E+00
         21   -1    0    0  501  502  0.00000000000E+00  0.00000000000E+00  0.55052533804E+03  0.55052533804E+03  0.00000000000E+00 0. -1.
         21   -1    0    0  502  503 -0.00000000000E+00 -0.00000000000E+00 -0.94222383095E+02  0.94222383095E+02  0.00000000000E+00 0. -1.
          6    1    1    2  501    0  0.96241393245E+02  0.13599198201E+02  0.38854414241E+03  0.43588747925E+03  0.17200000000E+03 0. -1.
         -6    1    1    2    0  503 -0.96241393245E+02 -0.13599198201E+02  0.67758812541E+02  0.20886024189E+03  0.17200000000E+03 0. -1.
</event>
<event>
 4    1  0.6129841E-001  0.1723305E+03  0.7818608E-02  0.1175439E+00
         21   -1    0    0  503  502  0.00000000000E+00  0.00000000000E+00  0.73495949041E+03  0.73495949041E+03  0.00000000000E+00 0.  1.
         21   -1    0    0  501  503 -0.00000000000E+00 -0.00000000000E+00 -0.49687192652E+02  0.49687192652E+02  0.00000000000E+00 0.  1.
          6    1    1    2  501    0 -0.10668318338E+02  0.63939891514E-01  0.17308896658E+03  0.24424906849E+03  0.17200000000E+03 0.  1.
         -6    1    1    2    0  502  0.10668318338E+02 -0.63939891514E-01  0.51218333118E+03  0.54039761458E+03  0.17200000000E+03 0.  1.
</event>
<event>
 4    1  0.6129841E-001  0.1760760E+03  0.7818608E-02  0.1171656E+00
         21   -1    0    0  501  502  0.00000000000E+00  0.00000000000E+00  0.10740760056E+03  0.10740760056E+03  0.00000000000E+00 0. -1.
         21   -1    0    0  502  503 -0.00000000000E+00 -0.00000000000E+00 -0.13969483796E+04  0.13969483796E+04  0.00000000000E+00 0. -1.
          6    1    1    2  501    0  0.34025993379E+02 -0.16155340811E+02  0.25206149378E+02  0.17787105787E+03  0.17200000000E+03 0. -1.
         -6    1    1    2    0  503 -0.34025993379E+02  0.16155340811E+02 -0.13147469284E+04  0.13264849223E+04  0.17200000000E+03 0. -1.
</event>
<event>
 4    1  0.6129841E-001  0.1816216E+03  0.7818608E-02  0.1166243E+00
         21   -1    0    0  503  502  0.00000000000E+00  0.00000000000E+00  0.64086908739E+03  0.64086908739E+03  0.00000000000E+00 0. -1.
         21   -1    0    0  501  503 -0.00000000000E+00 -0.00000000000E+00 -0.12186395466E+03  0.12186395466E+03  0.00000000000E+00 0.  1.
          6    1    1    2  501    0 -0.46156977631E+02  0.35664043535E+02 -0.30344213802E+02  0.18413897441E+03  0.17200000000E+03 0.  1.
         -6    1    1    2    0  502  0.46156977631E+02 -0.35664043535E+02  0.54934934652E+03  0.57859406764E+03  0.17200000000E+03 0. -1.
</event>
<event>
 4    1  0.6129841E-001  0.1763316E+03  0.7818608E-02  0.1171401E+00
         21   -1    0    0  503  502  0.00000000000E+00  0.00000000000E+00  0.90216898330E+03  0.90216898330E+03  0.00000000000E+00 0.  1.
         21   -1    0    0  501  503 -0.00000000000E+00 -0.00000000000E+00 -0.65421377452E+02  0.65421377452E+02  0.00000000000E+00 0.  1.
          6    1    1    2  501    0 -0.36744017381E+02  0.12597846461E+02  0.85576291330E+02  0.19600033211E+03  0.17200000000E+03 0.  1.
         -6    1    1    2    0  502  0.36744017381E+02 -0.12597846461E+02  0.75117131452E+03  0.77159002865E+03  0.17200000000E+03 0.  1.
</event>
<event>
 4    1  0.6129841E-001  0.4594226E+03  0.7818608E-02  0.1024949E+00
         21   -1    0    0  503  502  0.00000000000E+00  0.00000000000E+00  0.98916507341E+03  0.98916507341E+03  0.00000000000E+00 0. -1.
         21   -1    0    0  501  503 -0.00000000000E+00 -0.00000000000E+00 -0.45226086858E+03  0.45226086858E+03  0.00000000000E+00 0.  1.
          6    1    1    2  501    0 -0.38635199070E+03  0.17949171941E+03 -0.25533826912E+03  0.52561085390E+03  0.17200000000E+03 0.  1.
         -6    1    1    2    0  502  0.38635199070E+03 -0.17949171941E+03  0.79224247395E+03  0.91581508810E+03  0.17200000000E+03 0. -1.
</event>
<event>
 4    1  0.6129841E-001  0.2142919E+03  0.7818608E-02  0.1138212E+00
         21   -1    0    0  501  502  0.00000000000E+00  0.00000000000E+00  0.72836953609E+02  0.72836953609E+02  0.00000000000E+00 0. -1.
         21   -1    0    0  502  503 -0.00000000000E+00 -0.00000000000E+00 -0.70053125787E+03  0.70053125787E+03  0.00000000000E+00 0. -1.
          6    1    1    2  501    0  0.10980407812E+03 -0.65422488601E+02 -0.19155409415E+03  0.28742652726E+03  0.17200000000E+03 0. -1.
         -6    1    1    2    0  503 -0.10980407812E+03  0.65422488601E+02 -0.43614021011E+03  0.48594168422E+03  0.17200000000E+03 0. -1.
</event>
<event>
 4    1  0.6129841E-001  0.2344861E+03  0.7818608E-02  0.1123521E+00
         21   -1    0    0  503  502  0.00000000000E+00  0.00000000000E+00  0.75068502269E+02  0.75068502269E+02  0.00000000000E+00 0.  1.
         21   -1    0    0  501  503 -0.00000000000E+00 -0.00000000000E+00 -0.83035016252E+03  0.83035016252E+03  0.00000000000E+00 0. -1.
          6    1    1    2  501    0 -0.10849065529E+03  0.11674557794E+03 -0.53308899707E+03  0.58238100162E+03  0.17200000000E+03 0. -1.
         -6    1    1    2    0  502  0.10849065529E+03 -0.11674557794E+03 -0.22219266318E+03  0.32303766317E+03  0.17200000000E+03 0. -1.
</event>
<event>
 4    1  0.6129841E-001  0.1757257E+03  0.7818608E-02  0.1172005E+00
         21   -1    0    0  501  502  0.00000000000E+00  0.00000000000E+00  0.97609311675E+03  0.97609311675E+03  0.00000000000E+00 0.  1.
         21   -1    0    0  502  503 -0.00000000000E+00 -0.00000000000E+00 -0.32353987319E+02  0.32353987319E+02  0.00000000000E+00 0.  1.
          6    1    1    2  501    0  0.26158890327E+02 -0.24723278588E+02  0.54699123858E+03  0.57452497172E+03  0.17200000000E+03 0.  1.
         -6    1    1    2    0  503 -0.26158890327E+02  0.24723278588E+02  0.39674789085E+03  0.43392213234E+03  0.17200000000E+03 0.  1.
</event>
<event>
 4    1  0.6129841E-001  0.1888163E+03  0.7818608E-02  0.1159533E+00
         21   -1    0    0  503  502  0.00000000000E+00  0.00000000000E+00  0.15258014458E+03  0.15258014458E+03  0.00000000000E+00 0.  1.
         21   -1    0    0  501  503 -0.00000000000E+00 -0.00000000000E+00 -0.25693369983E+03  0.25693369983E+03  0.00000000000E+00 0.  1.
          6    1    1    2  501    0  0.33070244573E+02 -0.70526151591E+02 -0.11380490333E+03  0.22046118742E+03  0.17200000000E+03 0.  1.
         -6    1    1    2    0  502 -0.33070244573E+02  0.70526151591E+02  0.94513480776E+01  0.18905265699E+03  0.17200000000E+03 0.  1.
</event>
<event>
 4    1  0.6129841E-001  0.1834345E+03  0.7818608E-02  0.1164520E+00
         21   -1    0    0  503  502  0.00000000000E+00  0.00000000000E+00  0.54882356597E+02  0.54882356597E+02  0.00000000000E+00 0. -1.
         21   -1    0    0  501  503 -0.00000000000E+00 -0.00000000000E+00 -0.62740051566E+03  0.62740051566E+03  0.00000000000E+00 0. -1.
          6    1    1    2  501    0 -0.63233211696E+02 -0.81102747584E+01 -0.33776787320E+03  0.38436356719E+03  0.17200000000E+03 0.  1.
         -6    1    1    2    0  502  0.63233211696E+02  0.81102747584E+01 -0.23475028586E+03  0.29791930506E+03  0.17200000000E+03 0.  1.
</event>
<event>
 4    1  0.6129841E-001  0.2719389E+03  0.7818608E-02  0.1100175E+00
         21   -1    0    0  503  502  0.00000000000E+00  0.00000000000E+00  0.67830071788E+02  0.67830071788E+02  0.00000000000E+00 0.  1.
         21   -1    0    0  501  503 -0.00000000000E+00 -0.00000000000E+00 -0.11476192366E+04  0.11476192366E+04  0.00000000000E+00 0. -1.
          6    1    1    2  501    0 -0.60178343749E+02 -0.20185472768E+03 -0.67578902382E+03  0.72845148696E+03  0.17200000000E+03 0. -1.
         -6    1    1    2    0  502  0.60178343749E+02  0.20185472768E+03 -0.40400014095E+03  0.48699782138E+03  0.17200000000E+03 0.  1.
</event>
<event>
 4    1  0.6129841E-001  0.1757374E+03  0.7818608E-02  0.1171993E+00
         21   -1    0    0  503  502  0.00000000000E+00  0.00000000000E+00  0.29506936320E+03  0.29506936320E+03  0.00000000000E+00 0.  1.
         21   -1    0    0  501  503 -0.00000000000E+00 -0.00000000000E+00 -0.10687932978E+03  0.10687932978E+03  0.00000000000E+00 0.  1.
          6    1    1    2  501    0 -0.32953769301E+02  0.14618111450E+02  0.12301824123E+03  0.21451603150E+03  0.17200000000E+03 0.  1.
         -6    1    1    2    0  502  0.32953769301E+02 -0.14618111450E+02  0.65171792189E+02  0.18743266148E+03  0.17200000000E+03 0.  1.
</event>
<event>
 4    1  0.6129841E-001  0.2680703E+03  0.7818608E-02  0.1102389E+00
         21   -1    0    0  503  502  0.00000000000E+00  0.00000000000E+00  0.17691515005E+03  0.17691515005E+03  0.00000000000E+00 0.  1.
         21   -1    0    0  501  503 -0.00000000000E+00 -0.00000000000E+00 -0.49657283303E+03  0.49657283303E+03  0.00000000000E+00 0. -1.
          6    1    1    2  501    0 -0.19969121489E+03 -0.49000835870E+02 -0.30349172653E+03  0.40493072406E+03  0.17200000000E+03 0. -1.
         -6    1    1    2    0  502  0.19969121489E+03  0.49000835870E+02 -0.16165956453E+02  0.26855725901E+03  0.17200000000E+03 0.  1.
</event>
<event>
 4    1  0.6129841E-001  0.2002782E+03  0.7818608E-02  0.1149505E+00
         21   -1    0    0  503  502  0.00000000000E+00  0.00000000000E+00  0.45826279890E+02  0.45826279890E+02  0.00000000000E+00 0.  1.
         21   -1    0    0  501  503 -0.00000000000E+00 -0.00000000000E+00 -0.98461027509E+03  0.98461027509E+03  0.00000000000E+00 0.  1.
          6    1    1    2  501    0 -0.79776822756E+02 -0.64521435716E+02 -0.64106669515E+03  0.67162330569E+03  0.17200000000E+03 0.  1.
         -6    1    1    2    0  502  0.79776822756E+02  0.64521435716E+02 -0.29771730004E+03  0.35881324928E+03  0.17200000000E+03 0.  1.
</event>
<event>
 4    1  0.6129841E-001  0.1980467E+03  0.7818608E-02  0.1151398E+00
         21   -1    0    0  501  502  0.00000000000E+00  0.00000000000E+00  0.61816510730E+03  0.61816510730E+03  0.00000000000E+00 0. -1.
         21   -1    0    0  502  503 -0.00000000000E+00 -0.00000000000E+00 -0.11479570744E+03  0.11479570744E+03  0.00000000000E+00 0.  1.
          6    1    1    2  501    0  0.89351560581E+02 -0.40679301297E+02  0.49678310266E+03  0.53480459798E+03  0.17200000000E+03 0. -1.
         -6    1    1    2    0  503 -0.89351560581E+02  0.40679301297E+02  0.65862972016E+01  0.19815621677E+03  0.17200000000E+03 0. -1.
</event>
<event>
 4    1  0.6129841E-001  0.1903332E+03  0.7818608E-02  0.1158161E+00
         21   -1    0    0  501  502  0.00000000000E+00  0.00000000000E+00  0.15036753752E+04  0.15036753752E+04  0.00000000000E+00 0. -1.
         21   -1    0    0  502  503 -0.00000000000E+00 -0.00000000000E+00 -0.24215147220E+02  0.24215147220E+02  0.00000000000E+00 0. -1.
          6    1    1    2  501    0  0.79478861804E+02  0.18051461935E+02  0.68527995732E+03  0.71122103783E+03  0.17200000000E+03 0. -1.
         -6    1    1    2    0  503 -0.79478861804E+02 -0.18051461935E+02  0.79418027066E+03  0.81666948459E+03  0.17200000000E+03 0. -1.
</event>
<event>
 4    1  0.6129841E-001  0.3258346E+03  0.7818608E-02  0.1072995E+00
         21   -1    0    0  501  502  0.00000000000E+00  0.00000000000E+00  0.20965568954E+03  0.20965568954E+03  0.00000000000E+00 0.  1.
         21   -1    0    0  502  503 -0.00000000000E+00 -0.00000000000E+00 -0.53026682881E+03  0.53026682881E+03  0.00000000000E+00 0.  1.
          6    1    1    2  501    0  0.25943475379E+03 -0.96321470078E+02 -0.81805838362E+02  0.33594703788E+03  0.17200000000E+03 0. -1.
         -6    1    1    2    0  503 -0.25943475379E+03  0.96321470078E+02 -0.23880530092E+03  0.40397548047E+03  0.17200000000E+03 0. -1.
</event>
<event>
 4    1  0.6129841E-001  0.1895496E+03  0.7818608E-02  0.1158868E+00
         21   -1    0    0  501  502  0.00000000000E+00  0.00000000000E+00  0.11017842421E+03  0.11017842421E+03  0.00000000000E+00 0.  1.
         21   -1    0    0  502  503 -0.00000000000E+00 -0.00000000000E+00 -0.37966187767E+03  0.37966187767E+03  0.00000000000E+00 0.  1.
          6    1    1    2  501    0 -0.79578487051E+02  0.35098192684E+01 -0.42747898502E+02  0.19431015737E+03  0.17200000000E+03 0. -1.
         -6    1    1    2    0  503  0.79578487051E+02 -0.35098192684E+01 -0.22673555496E+03  0.29553014451E+03  0.17200000000E+03 0. -1.
</event>
<event>
 4    1  0.6129841E-001  0.3199551E+03  0.7818608E-02  0.1075670E+00
         21   -1    0    0  503  502  0.00000000000E+00  0.00000000000E+00  0.94500170878E+02  0.94500170878E+02  0.00000000000E+00 0.  1.
         21   -1    0    0  501  503 -0.00000000000E+00 -0.00000000000E+00 -0.12667532443E+04  0.12667532443E+04  0.00000000000E+00 0. -1.
          6    1    1    2  501    0 -0.25808722659E+03  0.78601691625E+02 -0.84514790937E+03  0.90368480742E+03  0.17200000000E+03 0.  1.
         -6    1    1    2    0  502  0.25808722659E+03 -0.78601691625E+02 -0.32710516407E+03  0.45756860777E+03  0.17200000000E+03 0. -1.
</event>
<event>
 4    1  0.6129841E-001  0.1979413E+03  0.7818608E-02  0.1151488E+00
         21   -1    0    0  501  502  0.00000000000E+00  0.00000000000E+00  0.20652031858E+03  0.20652031858E+03  0.00000000000E+00 0.  1.
         21   -1    0    0  502  503 -0.00000000000E+00 -0.00000000000E+00 -0.63881172416E+03  0.63881172416E+03  0.00000000000E+00 0.  1.
          6    1    1    2  501    0 -0.96911613577E+02 -0.14313961402E+02  0.13824236334E+03  0.24143674401E+03  0.17200000000E+03 0.  1.
         -6    1    1    2    0  503  0.96911613577E+02  0.14313961402E+02 -0.57053376892E+03  0.60389529872E+03  0.17200000000E+03 0.  1.
</event>
<event>
 4    1  0.6129841E-001  0.2064525E+03  0.7818608E-02  0.1144406E+00
         21   -1    0    0  501  502  0.00000000000E+00  0.00000000000E+00  0.17213755754E+04  0.17213755754E+04  0.00000000000E+00 0. -1.
         21   -1    0    0  502  503 -0.00000000000E+00 -0.00000000000E+00 -0.41954289393E+02  0.41954289393E+02  0.00000000000E+00 0. -1.
          6    1    1    2  501    0 -0.10639384226E+03 -0.41460718054E+02  0.14041241033E+04  0.14192206094E+04  0.17200000000E+03 0. -1.
         -6    1    1    2    0  503  0.10639384226E+03  0.41460718054E+02  0.27529718273E+03  0.34410925537E+03  0.17200000000E+03 0. -1.
</event>
<event>
 4    1  0.6129841E-001  0.1830683E+03  0.7818608E-02  0.1164866E+00
         21   -1    0    0  503  502  0.00000000000E+00  0.00000000000E+00  0.14110693482E+04  0.14110693482E+04  0.00000000000E+00 0.  1.
         21   -1    0    0  501  503 -0.00000000000E+00 -0.00000000000E+00 -0.33173485300E+02  0.33173485300E+02  0.00000000000E+00 0.  1.
          6    1    1    2  501    0  0.17963815630E+02  0.60060878147E+02  0.30408834065E+03  0.35494186380E+03  0.17200000000E+03 0. -1.
         -6    1    1    2    0  502 -0.17963815630E+02 -0.60060878147E+02  0.10738075223E+04  0.10893009697E+04  0.17200000000E+03 0. -1.
</event>
<event>
 4    1  0.6129841E-001  0.2224650E+03  0.7818608E-02  0.1132059E+00
         21   -1    0    0  501  502  0.00000000000E+00  0.00000000000E+00  0.45267101147E+02  0.45267101147E+02  0.00000000000E+00 0.  1.
         21   -1    0    0  502  503 -0.00000000000E+00 -0.00000000000E+00 -0.14196506549E+04  0.14196506549E+04  0.00000000000E+00 0.  1.
          6    1    1    2  501    0  0.40709852821E+02  0.13509025329E+03 -0.33600950194E+03  0.40298021545E+03  0.17200000000E+03 0.  1.
         -6    1    1    2    0  503 -0.40709852821E+02 -0.13509025329E+03 -0.10383740518E+04  0.10619375406E+04  0.17200000000E+03 0.  1.
</event>
<event>
 4    1  0.6129841E-001  0.2246745E+03  0.7818608E-02  0.1130445E+00
         21   -1    0    0  503  502  0.00000000000E+00  0.00000000000E+00  0.22433987945E+03  0.22433987945E+03  0.00000000000E+00 0. -1.
         21   -1    0    0  501  503 -0.00000000000E+00 -0.00000000000E+00 -0.22515372761E+03  0.22515372761E+03  0.00000000000E+00 0.  1.
          6    1    1    2  501    0 -0.11467427759E+03 -0.88002475313E+02  0.52794292306E+01  0.22473650788E+03  0.17200000000E+03 0.  1.
         -6    1    1    2    0  502  0.11467427759E+03  0.88002475313E+02 -0.60932773926E+01  0.22475709918E+03  0.17200000000E+03 0. -1.
</event>
<event>
 4    1  0.6129841E-001  0.1759572E+03  0.7818608E-02  0.1171774E+00
         21   -1    0    0  501  502  0.00000000000E+00  0.00000000000E+00  0.10929128710E+03  0.10929128710E+03  0.00000000000E+00 0. -1.
         21   -1    0    0  502  503 -0.00000000000E+00 -0.00000000000E+00 -0.28984584958E+03  0.28984584958E+03  0.00000000000E+00 0. -1.
          6    1    1    2  501    0 -0.36394744058E+02 -0.72355130566E+01 -0.12029538772E+03  0.21314762572E+03  0.17200000000E+03 0. -1.
         -6    1    1    2    0  503  0.36394744058E+02  0.72355130566E+01 -0.60259174767E+02  0.18598951096E+03  0.17200000000E+03 0. -1.
</event>
<event>
 4    1  0.6129841E-001  0.1734666E+03  0.7818608E-02  0.1174280E+00
         21   -1    0    0  503  502  0.00000000000E+00  0.00000000000E+00  0.20579148636E+03  0.20579148636E+03  0.00000000000E+00 0. -1.
         21   -1    0    0  501  503 -0.00000000000E+00 -0.00000000000E+00 -0.41881256900E+03  0.41881256900E+03  0.00000000000E+00 0. -1.
          6    1    1    2  501    0 -0.35353949796E+01  0.22229392036E+02 -0.35846536526E+03  0.39823116777E+03  0.17200000000E+03 0. -1.
         -6    1    1    2    0  502  0.35353949796E+01 -0.22229392036E+02  0.14544428263E+03  0.22637288759E+03  0.17200000000E+03 0. -1.
</event>
<event>
 4    1  0.6129841E-001  0.2033998E+03  0.7818608E-02  0.1146902E+00
         21   -1    0    0  501  502  0.00000000000E+00  0.00000000000E+00  0.15193201506E+03  0.15193201506E+03  0.00000000000E+00 0. -1.
         21   -1    0    0  502  503 -0.00000000000E+00 -0.00000000000E+00 -0.10789211764E+04  0.10789211764E+04  0.00000000000E+00 0. -1.
          6    1    1    2  501    0  0.74074967746E+02 -0.79374906149E+02  0.68632697446E+02  0.21466700662E+03  0.17200000000E+03 0. -1.
         -6    1    1    2    0  503 -0.74074967746E+02  0.79374906149E+02 -0.99562185881E+03  0.10161861849E+04  0.17200000000E+03 0. -1.
</event>
<event>
 4    1  0.6129841E-001  0.2426389E+03  0.7818608E-02  0.1118047E+00
         21   -1    0    0  501  502  0.00000000000E+00  0.00000000000E+00  0.91842004972E+03  0.91842004972E+03  0.00000000000E+00 0. -1.
         21   -1    0    0  502  503 -0.00000000000E+00 -0.00000000000E+00 -0.85686296006E+02  0.85686296006E+02  0.00000000000E+00 0. -1.
          6    1    1    2  501    0  0.12479683183E+03 -0.11711264876E+03  0.66833834523E+03  0.71102022857E+03  0.17200000000E+03 0. -1.
         -6    1    1    2    0  503 -0.12479683183E+03  0.11711264876E+03  0.16439540848E+03  0.29308611715E+03  0.17200000000E+03 0. -1.
</event>
<event>
 4    1  0.6129841E-001  0.2232997E+03  0.7818608E-02  0.1131447E+00
         21   -1    0    0  501  502  0.00000000000E+00  0.00000000000E+00  0.52295624955E+03  0.52295624955E+03  0.00000000000E+00 0.  1.
         21   -1    0    0  502  503 -0.00000000000E+00 -0.00000000000E+00 -0.14528839977E+03  0.14528839977E+03  0.00000000000E+00 0. -1.
          6    1    1    2  501    0  0.73124637288E+02  0.12219476909E+03  0.38472584188E+03  0.44483339306E+03  0.17200000000E+03 0.  1.
         -6    1    1    2    0  503 -0.73124637288E+02 -0.12219476909E+03 -0.70579920919E+01  0.22341125626E+03  0.17200000000E+03 0. -1.
</event>
<event>
 4    1  0.6129841E-001  0.2221921E+03  0.7818608E-02  0.1132259E+00
         21   -1    0    0  501  502  0.00000000000E+00  0.00000000000E+00  0.10074843582E+04  0.10074843582E+04  0.00000000000E+00 0.  1.
         21   -1    0    0  502  503 -0.00000000000E+00 -0.00000000000E+00 -0.49282331860E+02  0.49282331860E+02  0.00000000000E+00 0.  1.
          6    1    1    2  501    0  0.85196850002E+02  0.11192324792E+03  0.43929007102E+03  0.49228557076E+03  0.17200000000E+03 0.  1.
         -6    1    1    2    0  503 -0.85196850002E+02 -0.11192324792E+03  0.51891195527E+03  0.56448111926E+03  0.17200000000E+03 0.  1.
</event>
<event>
 4    1  0.6129841E-001  0.1804025E+03  0.7818608E-02  0.1167414E+00
         21   -1    0    0  501  502  0.00000000000E+00  0.00000000000E+00  0.19562372099E+03  0.19562372099E+03  0.00000000000E+00 0.  1.
         21   -1    0    0  502  503 -0.00000000000E+00 -0.00000000000E+00 -0.16650078379E+03  0.16650078379E+03  0.00000000000E+00 0.  1.
          6    1    1    2  501    0 -0.25271467323E+02 -0.48191395786E+02  0.94022690043E+01  0.18064733696E+03  0.17200000000E+03 0. -1.
         -6    1    1    2    0  503  0.25271467323E+02  0.48191395786E+02  0.19720668194E+02  0.18147716783E+03  0.17200000000E+03 0. -1.
</event>
<event>
 4    1  0.6129841E-001  0.1895292E+03  0.7818608E-02  0.1158887E+00
         21   -1    0    0  501  502  0.00000000000E+00  0.00000000000E+00  0.22199184333E+03  0.22199184333E+03  0.00000000000E+00 0. -1.
         21   -1    0    0  502  503 -0.00000000000E+00 -0.00000000000E+00 -0.16286180603E+03  0.16286180603E+03  0.00000000000E+00 0. -1.
          6    1    1    2  501    0 -0.63447356639E+01  0.79354021258E+02  0.14127999907E+02  0.19005503609E+03  0.17200000000E+03 0. -1.
         -6    1    1    2    0  503  0.63447356639E+01 -0.79354021258E+02  0.45002037394E+02  0.19479861327E+03  0.17200000000E+03 0. -1.
</event>
<event>
 4    1  0.6129841E-001  0.1914902E+03  0.7818608E-02  0.1157124E+00
         21   -1    0    0  503  502  0.00000000000E+00  0.00000000000E+00  0.13492013554E+04  0.13492013554E+04  0.00000000000E+00 0. -1.
         21   -1    0    0  501  503 -0.00000000000E+00 -0.00000000000E+00 -0.27612899152E+02  0.27612899152E+02  0.00000000000E+00 0. -1.
          6    1    1    2  501    0  0.72217847126E+02  0.43233042247E+02  0.74719420546E+03  0.77134148991E+03  0.17200000000E+03 0.  1.
         -6    1    1    2    0  502 -0.72217847126E+02 -0.43233042247E+02  0.57439425082E+03  0.60547276467E+03  0.17200000000E+03 0.  1.
</event>
<event>
 4    1  0.6129841E-001  0.2155080E+03  0.7818608E-02  0.1137277E+00
         21   -1    0    0  503  502  0.00000000000E+00  0.00000000000E+00  0.25958526930E+04  0.25958526930E+04  0.00000000000E+00 0.  1.
         21   -1    0    0  501  503 -0.00000000000E+00 -0.00000000000E+00 -0.18225059718E+02  0.18225059718E+02  0.00000000000E+00 0. -1.
          6    1    1    2  501    0 -0.12721048363E+03  0.26022602510E+02  0.11119883944E+04  0.11326790685E+04  0.17200000000E+03 0. -1.
         -6    1    1    2    0  502  0.12721048363E+03 -0.26022602510E+02  0.14656392389E+04  0.14813986842E+04  0.17200000000E+03 0.  1.
</event>
<event>
 4    1  0.6129841E-001  0.2042558E+03  0.7818608E-02  0.1146197E+00
         21   -1    0    0  503  502  0.00000000000E+00  0.00000000000E+00  0.19720268797E+03  0.19720268797E+03  0.00000000000E+00 0. -1.
         21   -1    0    0  501  503 -0.00000000000E+00 -0.00000000000E+00 -0.21787479304E+03  0.21787479304E+03  0.00000000000E+00 0.  1.
          6    1    1    2  501    0 -0.88829811880E+02 -0.65159096140E+02 -0.45665181714E+02  0.20929823723E+03  0.17200000000E+03 0.  1.
         -6    1    1    2    0  502  0.88829811880E+02  0.65159096140E+02  0.24993076644E+02  0.20577924377E+03  0.17200000000E+03 0. -1.
</event>
<event>
 4    1  0.6129841E-001  0.1987650E+03  0.7818608E-02  0.1150785E+00
         21   -1    0    0  501  502  0.00000000000E+00  0.00000000000E+00  0.13358511775E+04  0.13358511775E+04  0.00000000000E+00 0.  1.
         21   -1    0    0  502  503 -0.00000000000E+00 -0.00000000000E+00 -0.32104833692E+02  0.32104833692E+02  0.00000000000E+00 0.  1.
          6    1    1    2  501    0 -0.93290577321E+02  0.34934287276E+02  0.45986497666E+03  0.50098236795E+03  0.17200000000E+03 0.  1.
         -6    1    1    2    0  503  0.93290577321E+02 -0.34934287276E+02  0.84388136715E+03  0.86697364323E+03  0.17200000000E+03 0.  1.
</event>
<event>
 4    1  0.6129841E-001  0.1868040E+03  0.7818608E-02  0.1161376E+00
         21   -1    0    0  501  502  0.00000000000E+00  0.00000000000E+00  0.70597348601E+03  0.70597348601E+03  0.00000000000E+00 0.  1.
         21   -1    0    0  502  503 -0.00000000000E+00 -0.00000000000E+00 -0.50513166696E+02  0.50513166696E+02  0.00000000000E+00 0. -1.
          6    1    1    2  501    0 -0.58910027720E+02 -0.42911039737E+02  0.27232318437E+03  0.33023577250E+03  0.17200000000E+03 0. -1.
         -6    1    1    2    0  503  0.58910027720E+02  0.42911039737E+02  0.38313713495E+03  0.42625088020E+03  0.17200000000E+03 0. -1.
</event>
<event>
 4    1  0.6129841E-001  0.2241472E+03  0.7818608E-02  0.1130828E+00
         21   -1    0    0  503  502  0.00000000000E+00  0.00000000000E+00  0.11928767467E+03  0.11928767467E+03  0.00000000000E+00 0. -1.
         21   -1    0    0  501  503 -0.00000000000E+00 -0.00000000000E+00 -0.42392896594E+03  0.42392896594E+03  0.00000000000E+00 0.  1.
          6    1    1    2  501    0 -0.14051663111E+03  0.30216959295E+02 -0.13046253802E+03  0.25935007629E+03  0.17200000000E+03 0. -1.
         -6    1    1    2    0  502  0.14051663111E+03 -0.30216959295E+02 -0.17417875325E+03  0.28386656431E+03  0.17200000000E+03 0. -1.
</event>
<event>
 4    1  0.6129841E-001  0.1948356E+03  0.7818608E-02  0.1154171E+00
         21   -1    0    0  501  502  0.00000000000E+00  0.00000000000E+00  0.76970002110E+03  0.76970002110E+03  0.00000000000E+00 0.  1.
         21   -1    0    0  502  503 -0.00000000000E+00 -0.00000000000E+00 -0.51395362544E+02  0.51395362544E+02  0.00000000000E+00 0.  1.
          6    1    1    2  501    0 -0.83686223598E+02 -0.37061239287E+02  0.27663563740E+03  0.33836104291E+03  0.17200000000E+03 0. -1.
         -6    1    1    2    0  503  0.83686223598E+02  0.37061239287E+02  0.44166902116E+03  0.48273434074E+03  0.17200000000E+03 0. -1.
</event>
<event>
 4    1  0.6129841E-001  0.3992363E+03  0.7818608E-02  0.1044044E+00
         21   -1    0    0  503  502  0.00000000000E+00  0.00000000000E+00  0.73456361996E+03  0.73456361996E+03  0.00000000000E+00 0. -1.
         21   -1    0    0  501  503 -0.00000000000E+00 -0.00000000000E+00 -0.45606970710E+03  0.45606970710E+03  0.00000000000E+00 0.  1.
          6    1    1    2  501    0  0.24506236382E+03 -0.26410241600E+03 -0.29178342023E+03  0.49449692883E+03  0.17200000000E+03 0.  1.
         -6    1    1    2    0  502 -0.24506236382E+03  0.26410241600E+03  0.57027733309E+03  0.69613639823E+03  0.17200000000E+03 0. -1.
</event>
<event>
 4    1  0.6129841E-001  0.2410417E+03  0.7818608E-02  0.1119101E+00
         21   -1    0    0  503  502  0.00000000000E+00  0.00000000000E+00  0.21641519428E+02  0.21641519428E+02  0.00000000000E+00 0. -1.
         21   -1    0    0  501  503 -0.00000000000E+00 -0.00000000000E+00 -0.30118335266E+04  0.30118335266E+04  0.00000000000E+00 0.  1.
          6    1    1    2  501    0  0.84137062170E+02  0.14641746271E+03 -0.19949618293E+04  0.20094710297E+04  0.17200000000E+03 0.  1.
         -6    1    1    2    0  502 -0.84137062170E+02 -0.14641746271E+03 -0.99523017781E+03  0.10240040163E+04  0.17200000000E+03 0. -1.
</event>
<event>
 4    1  0.6129841E-001  0.2288525E+03  0.7818608E-02  0.1127450E+00
         21   -1    0    0  503  502  0.00000000000E+00  0.00000000000E+00  0.76876229327E+03  0.76876229327E+03  0.00000000000E+00 0. -1.
         21   -1    0    0  501  503 -0.00000000000E+00 -0.00000000000E+00 -0.12694581796E+03  0.12694581796E+03  0.00000000000E+00 0. -1.
          6    1    1    2  501    0 -0.13441127024E+03 -0.68724666649E+02  0.16058759763E+02  0.22941524173E+03  0.17200000000E+03 0. -1.
         -6    1    1    2    0  502  0.13441127024E+03  0.68724666649E+02  0.62575771555E+03  0.66629286950E+03  0.17200000000E+03 0. -1.
</event>
<event>
 4    1  0.6129841E-001  0.1795907E+03  0.7818608E-02  0.1168200E+00
         21   -1    0    0  501  502  0.00000000000E+00  0.00000000000E+00  0.27215964005E+02  0.27215964005E+02  0.00000000000E+00 0.  1.
         21   -1    0    0  502  503 -0.00000000000E+00 -0.00000000000E+00 -0.12060869992E+04  0.12060869992E+04  0.00000000000E+00 0.  1.
          6    1    1    2  501    0  0.23797296815E+02 -0.45853298178E+02 -0.50803436278E+03  0.53884297347E+03  0.17200000000E+03 0.  1.
         -6    1    1    2    0  503 -0.23797296815E+02  0.45853298178E+02 -0.67083667239E+03  0.69445998971E+03  0.17200000000E+03 0.  1.
</event>
<event>
 4    1  0.6129841E-001  0.2443582E+03  0.7818608E-02  0.1116923E+00
         21   -1    0    0  501  502  0.00000000000E+00  0.00000000000E+00  0.20974383450E+03  0.20974383450E+03  0.00000000000E+00 0.  1.
         21   -1    0    0  502  503 -0.00000000000E+00 -0.00000000000E+00 -0.64767513072E+03  0.64767513072E+03  0.00000000000E+00 0. -1.
          6    1    1    2  501    0 -0.12052491360E+03 -0.12490273516E+03  0.10198024129E+03  0.26478466282E+03  0.17200000000E+03 0.  1.
         -6    1    1    2    0  503  0.12052491360E+03  0.12490273516E+03 -0.53991153751E+03  0.59263430241E+03  0.17200000000E+03 0. -1.
</event>
<event>
 4    1  0.6129841E-001  0.2277073E+03  0.7818608E-02  0.1128264E+00
         21   -1    0    0  503  502  0.00000000000E+00  0.00000000000E+00  0.39787207465E+03  0.39787207465E+03  0.00000000000E+00 0. -1.
         21   -1    0    0  501  503 -0.00000000000E+00 -0.00000000000E+00 -0.13563330386E+03  0.13563330386E+03  0.00000000000E+00 0.  1.
          6    1    1    2  501    0 -0.14687794971E+03 -0.26333962284E+02  0.78321553832E+02  0.24080048894E+03  0.17200000000E+03 0. -1.
         -6    1    1    2    0  502  0.14687794971E+03  0.26333962284E+02  0.18391721696E+03  0.29270488957E+03  0.17200000000E+03 0. -1.
</event>
<event>
 4    1  0.6129841E-001  0.1827627E+03  0.7818608E-02  0.1165156E+00
         21   -1    0    0  501  502  0.00000000000E+00  0.00000000000E+00  0.37023601946E+03  0.37023601946E+03  0.00000000000E+00 0. -1.
         21   -1    0    0  502  503 -0.00000000000E+00 -0.00000000000E+00 -0.93698525565E+02  0.93698525565E+02  0.00000000000E+00 0. -1.
          6    1    1    2  501    0 -0.54064409054E+02 -0.29920419200E+02  0.18297235118E+03  0.25861375274E+03  0.17200000000E+03 0. -1.
         -6    1    1    2    0  503  0.54064409054E+02  0.29920419200E+02  0.93565142710E+02  0.20532079228E+03  0.17200000000E+03 0. -1.
</event>
<event>
 4    1  0.6129841E-001  0.3387981E+03  0.7818608E-02  0.1067309E+00
         21   -1    0    0  503  502  0.00000000000E+00  0.00000000000E+00  0.23393515823E+04  0.23393515823E+04  0.00000000000E+00 0.  1.
         21   -1    0    0  501  503 -0.00000000000E+00 -0.00000000000E+00 -0.49605578851E+02  0.49605578851E+02  0.00000000000E+00 0.  1.
          6    1    1    2  501    0  0.13186138811E+03 -0.26040879166E+03  0.10203712315E+04  0.10751472524E+04  0.17200000000E+03 0.  1.
         -6    1    1    2    0  502 -0.13186138811E+03  0.26040879166E+03  0.12693747720E+04  0.13138099087E+04  0.17200000000E+03 0.  1.
</event>
<event>
 4    1  0.6129841E-001  0.2092013E+03  0.7818608E-02  0.1142200E+00
         21   -1    0    0  501  502  0.00000000000E+00  0.00000000000E+00  0.17588950281E+03  0.17588950281E+03  0.00000000000E+00 0.  1.
         21   -1    0    0  502  503 -0.00000000000E+00 -0.00000000000E+00 -0.54524363339E+03  0.54524363339E+03  0.00000000000E+00 0. -1.
          6    1    1    2  501    0  0.10883456756E+03  0.48334474646E+02  0.81178083055E+02  0.22439934426E+03  0.17200000000E+03 0.  1.
         -6    1    1    2    0  503 -0.10883456756E+03 -0.48334474646E+02 -0.45053221364E+03  0.49673379195E+03  0.17200000000E+03 0. -1.
</event>
<event>
 4    1  0.6129841E-001  0.2770083E+03  0.7818608E-02  0.1097334E+00
         21   -1    0    0  501  502  0.00000000000E+00  0.00000000000E+00  0.30088915062E+03  0.30088915062E+03  0.00000000000E+00 0.  1.
         21   -1    0    0  502  503 -0.00000000000E+00 -0.00000000000E+00 -0.26119345139E+03  0.26119345139E+03  0.00000000000E+00 0.  1.
          6    1    1    2  501    0 -0.18271587578E+03 -0.11732215501E+03  0.63045108686E+02  0.28409200103E+03  0.17200000000E+03 0.  1.
         -6    1    1    2    0  503  0.18271587578E+03  0.11732215501E+03 -0.23349409456E+02  0.27799060099E+03  0.17200000000E+03 0.  1.
</event>
<event>
 4    1  0.6129841E-001  0.2883950E+03  0.7818608E-02  0.1091190E+00
         21   -1    0    0  501  502  0.00000000000E+00  0.00000000000E+00  0.58337062267E+02  0.58337062267E+02  0.00000000000E+00 0. -1.
         21   -1    0    0  502  503 -0.00000000000E+00 -0.00000000000E+00 -0.14607829323E+04  0.14607829323E+04  0.00000000000E+00 0.  1.
          6    1    1    2  501    0 -0.20028822868E+03 -0.11607032046E+03 -0.58352754812E+03  0.65090405841E+03  0.17200000000E+03 0.  1.
         -6    1    1    2    0  503  0.20028822868E+03  0.11607032046E+03 -0.81891832194E+03  0.86821593619E+03  0.17200000000E+03 0.  1.
</event>
<event>
 4    1  0.6129841E-001  0.1726065E+03  0.7818608E-02  0.1175157E+00
         21   -1    0    0  501  502  0.00000000000E+00  0.00000000000E+00  0.11979128250E+03  0.11979128250E+03  0.00000000000E+00 0. -1.
         21   -1    0    0  502  503 -0.00000000000E+00 -0.00000000000E+00 -0.77079982129E+03  0.77079982129E+03  0.00000000000E+00 0. -1.
          6    1    1    2  501    0 -0.13669129490E+02 -0.47062822371E+01  0.40976502933E+02  0.17740368651E+03  0.17200000000E+03 0. -1.
         -6    1    1    2    0  503  0.13669129490E+02  0.47062822371E+01 -0.69198504173E+03  0.71318741728E+03  0.17200000000E+03 0. -1.
</event>
<event>
 4    1  0.6129841E-001  0.1871025E+03  0.7818608E-02  0.1161101E+00
         21   -1    0    0  501  502  0.00000000000E+00  0.00000000000E+00  0.54527569517E+03  0.54527569517E+03  0.00000000000E+00 0. -1.
         21   -1    0    0  502  503 -0.00000000000E+00 -0.00000000000E+00 -0.13744353700E+03  0.13744353700E+03  0.00000000000E+00 0. -1.
          6    1    1    2  501    0  0.68129944038E+02  0.27958054339E+02  0.45310638383E+03  0.49021703066E+03  0.17200000000E+03 0. -1.
         -6    1    1    2    0  503 -0.68129944038E+02 -0.27958054339E+02 -0.45274225670E+02  0.19250220151E+03  0.17200000000E+03 0. -1.
</event>
<event>
 4    1  0.6129841E-001  0.2090747E+03  0.7818608E-02  0.1142301E+00
         21   -1    0    0  503  502  0.00000000000E+00  0.00000000000E+00  0.55408660528E+03  0.55408660528E+03  0.00000000000E+00 0. -1.
         21   -1    0    0  501  503 -0.00000000000E+00 -0.00000000000E+00 -0.79517492219E+02  0.79517492219E+02  0.00000000000E+00 0. -1.
          6    1    1    2  501    0  0.10200256077E+03  0.61022264286E+02  0.26541289513E+03  0.33787015856E+03  0.17200000000E+03 0. -1.
         -6    1    1    2    0  502 -0.10200256077E+03 -0.61022264286E+02  0.20915621793E+03  0.29573393894E+03  0.17200000000E+03 0. -1.
</event>
<event>
 4    1  0.6129841E-001  0.2045852E+03  0.7818608E-02  0.1145927E+00
         21   -1    0    0  501  502  0.00000000000E+00  0.00000000000E+00  0.32855964884E+03  0.32855964884E+03  0.00000000000E+00 0.  1.
         21   -1    0    0  502  503 -0.00000000000E+00 -0.00000000000E+00 -0.13311424878E+03  0.13311424878E+03  0.00000000000E+00 0. -1.
          6    1    1    2  501    0  0.89222966653E+02  0.65653325162E+02  0.14559295993E+03  0.25110238323E+03  0.17200000000E+03 0.  1.
         -6    1    1    2    0  503 -0.89222966653E+02 -0.65653325162E+02  0.49852440135E+02  0.21057151439E+03  0.17200000000E+03 0. -1.
</event>
<event>
 4    1  0.6129841E-001  0.1959940E+03  0.7818608E-02  0.1153164E+00
         21   -1    0    0  501  502  0.00000000000E+00  0.00000000000E+00  0.27556667089E+03  0.27556667089E+03  0.00000000000E+00 0.  1.
         21   -1    0    0  502  503 -0.00000000000E+00 -0.00000000000E+00 -0.29530279705E+03  0.29530279705E+03  0.00000000000E+00 0. -1.
          6    1    1    2  501    0  0.11201138890E+02  0.93296185425E+02  0.19752859958E+03  0.27826460677E+03  0.17200000000E+03 0.  1.
         -6    1    1    2    0  503 -0.11201138890E+02 -0.93296185425E+02 -0.21726472574E+03  0.29260486117E+03  0.17200000000E+03 0. -1.
</event>
<event>
 4    1  0.6129841E-001  0.2036549E+03  0.7818608E-02  0.1146692E+00
         21   -1    0    0  501  502  0.00000000000E+00  0.00000000000E+00  0.14004869654E+03  0.14004869654E+03  0.00000000000E+00 0. -1.
         21   -1    0    0  502  503 -0.00000000000E+00 -0.00000000000E+00 -0.34663616102E+03  0.34663616102E+03  0.00000000000E+00 0. -1.
          6    1    1    2  501    0  0.85643833203E+02  0.67501361566E+02 -0.10424723330E+02  0.20392149184E+03  0.17200000000E+03 0. -1.
         -6    1    1    2    0  503 -0.85643833203E+02 -0.67501361566E+02 -0.19616274114E+03  0.28276336572E+03  0.17200000000E+03 0. -1.
</event>
<event>
 4    1  0.6129841E-001  0.1833654E+03  0.7818608E-02  0.1164585E+00
         21   -1    0    0  501  502  0.00000000000E+00  0.00000000000E+00  0.63369795357E+03  0.63369795357E+03  0.00000000000E+00 0.  1.
         21   -1    0    0  502  503 -0.00000000000E+00 -0.00000000000E+00 -0.62370143576E+02  0.62370143576E+02  0.00000000000E+00 0.  1.
          6    1    1    2  501    0 -0.62197617460E+02 -0.13050355410E+02  0.42014281136E+03  0.45841339131E+03  0.17200000000E+03 0. -1.
         -6    1    1    2    0  503  0.62197617460E+02  0.13050355410E+02  0.15118499863E+03  0.23765470583E+03  0.17200000000E+03 0. -1.
</event>
<event>
 4    1  0.6129841E-001  0.1870530E+03  0.7818608E-02  0.1161146E+00
         21   -1    0    0  501  502  0.00000000000E+00  0.00000000000E+00  0.13514133103E+03  0.13514133103E+03  0.00000000000E+00 0. -1.
         21   -1    0    0  502  503 -0.00000000000E+00 -0.00000000000E+00 -0.67707142677E+03  0.67707142677E+03  0.00000000000E+00 0. -1.
          6    1    1    2  501    0 -0.72989705111E+02  0.87946179347E+01  0.48186427681E+02  0.19315997041E+03  0.17200000000E+03 0. -1.
         -6    1    1    2    0  503  0.72989705111E+02 -0.87946179347E+01 -0.59011652343E+03  0.61905278739E+03  0.17200000000E+03 0. -1.
</event>
<event>
 4    1  0.6129841E-001  0.2010546E+03  0.7818608E-02  0.1148852E+00
         21   -1    0    0  501  502  0.00000000000E+00  0.00000000000E+00  0.11405207174E+03  0.11405207174E+03  0.00000000000E+00 0.  1.
         21   -1    0    0  502  503 -0.00000000000E+00 -0.00000000000E+00 -0.35673566398E+03  0.35673566398E+03  0.00000000000E+00 0.  1.
          6    1    1    2  501    0 -0.53745236043E+01 -0.10397149516E+03 -0.14028474570E+03  0.24515865717E+03  0.17200000000E+03 0.  1.
         -6    1    1    2    0  503  0.53745236043E+01  0.10397149516E+03 -0.10239884654E+03  0.22562907854E+03  0.17200000000E+03 0.  1.
</event>
<event>
 4    1  0.6129841E-001  0.2072318E+03  0.7818608E-02  0.1143777E+00
         21   -1    0    0  501  502  0.00000000000E+00  0.00000000000E+00  0.72182152203E+03  0.72182152203E+03  0.00000000000E+00 0.  1.
         21   -1    0    0  502  503 -0.00000000000E+00 -0.00000000000E+00 -0.28958077362E+03  0.28958077362E+03  0.00000000000E+00 0.  1.
          6    1    1    2  501    0 -0.11461494832E+03  0.14981741173E+02  0.66688892750E+03  0.69834510135E+03  0.17200000000E+03 0.  1.
         -6    1    1    2    0  503  0.11461494832E+03 -0.14981741173E+02 -0.23464817910E+03  0.31305719430E+03  0.17200000000E+03 0.  1.
</event>
<event>
 4    1  0.6129841E-001  0.2009946E+03  0.7818608E-02  0.1148903E+00
         21   -1    0    0  501  502  0.00000000000E+00  0.00000000000E+00  0.31570061881E+03  0.31570061881E+03  0.00000000000E+00 0.  1.
         21   -1    0    0  502  503 -0.00000000000E+00 -0.00000000000E+00 -0.13067427976E+03  0.13067427976E+03  0.00000000000E+00 0.  1.
          6    1    1    2  501    0 -0.66985614754E+02  0.79547268198E+02  0.12464593616E+03  0.23650676494E+03  0.17200000000E+03 0.  1.
         -6    1    1    2    0  503  0.66985614754E+02 -0.79547268198E+02  0.60380402882E+02  0.20986813363E+03  0.17200000000E+03 0.  1.
</event>
<event>
 4    1  0.6129841E-001  0.1957965E+03  0.7818608E-02  0.1153335E+00
         21   -1    0    0  501  502  0.00000000000E+00  0.00000000000E+00  0.10390706599E+03  0.10390706599E+03  0.00000000000E+00 0.  1.
         21   -1    0    0  502  503 -0.00000000000E+00 -0.00000000000E+00 -0.46817243659E+03  0.46817243659E+03  0.00000000000E+00 0.  1.
          6    1    1    2  501    0  0.40804402436E+01 -0.93464604028E+02 -0.50448611053E+02  0.20219135628E+03  0.17200000000E+03 0.  1.
         -6    1    1    2    0  503 -0.40804402436E+01  0.93464604028E+02 -0.31381675954E+03  0.36988814629E+03  0.17200000000E+03 0.  1.
</event>
<event>
 4    1  0.6129841E-001  0.1965566E+03  0.7818608E-02  0.1152677E+00
         21   -1    0    0  503  502  0.00000000000E+00  0.00000000000E+00  0.41635822933E+02  0.41635822933E+02  0.00000000000E+00 0.  1.
         21   -1    0    0  501  503 -0.00000000000E+00 -0.00000000000E+00 -0.94256404165E+03  0.94256404165E+03  0.00000000000E+00 0. -1.
          6    1    1    2  501    0 -0.95132821548E+02 -0.48243439268E+00 -0.51181331492E+03  0.54825847536E+03  0.17200000000E+03 0. -1.
         -6    1    1    2    0  502  0.95132821548E+02  0.48243439268E+00 -0.38911490380E+03  0.43594138922E+03  0.17200000000E+03 0.  1.
</event>
<event>
 4    1  0.6129841E-001  0.3659979E+03  0.7818608E-02  0.1056234E+00
         21   -1    0    0  501  502  0.00000000000E+00  0.00000000000E+00  0.44525299252E+03  0.44525299252E+03  0.00000000000E+00 0. -1.
         21   -1    0    0  502  503 -0.00000000000E+00 -0.00000000000E+00 -0.40157953007E+03  0.40157953007E+03  0.00000000000E+00 0.  1.
          6    1    1    2  501    0 -0.12137378041E+03 -0.29939751573E+03 -0.19022370427E+03  0.41247972636E+03  0.17200000000E+03 0. -1.
         -6    1    1    2    0  503  0.12137378041E+03  0.29939751573E+03  0.23389716671E+03  0.43435279623E+03  0.17200000000E+03 0. -1.
</event>
<event>
 4    1  0.6129841E-001  0.1730927E+03  0.7818608E-02  0.1174660E+00
         21   -1    0    0  503  502  0.00000000000E+00  0.00000000000E+00  0.10362402412E+04  0.10362402412E+04  0.00000000000E+00 0. -1.
         21   -1    0    0  501  503 -0.00000000000E+00 -0.00000000000E+00 -0.28992100652E+02  0.28992100652E+02  0.00000000000E+00 0. -1.
          6    1    1    2  501    0 -0.13077207245E+02  0.14355247328E+02  0.47584985826E+03  0.50635380326E+03  0.17200000000E+03 0.  1.
         -6    1    1    2    0  502  0.13077207245E+02 -0.14355247328E+02  0.53139828230E+03  0.55887853860E+03  0.17200000000E+03 0.  1.
</event>
<event>
 4    1  0.6129841E-001  0.1795626E+03  0.7818608E-02  0.1168227E+00
         21   -1    0    0  503  502  0.00000000000E+00  0.00000000000E+00  0.28868039433E+03  0.28868039433E+03  0.00000000000E+00 0. -1.
         21   -1    0    0  501  503 -0.00000000000E+00 -0.00000000000E+00 -0.18742449648E+03  0.18742449648E+03  0.00000000000E+00 0. -1.
          6    1    1    2  501    0  0.20586654835E+02 -0.47275013279E+02 -0.10069545559E+03  0.20586964811E+03  0.17200000000E+03 0. -1.
         -6    1    1    2    0  502 -0.20586654835E+02  0.47275013279E+02  0.20195135344E+03  0.27023524269E+03  0.17200000000E+03 0. -1.
</event>
<event>
 4    1  0.6129841E-001  0.1734860E+03  0.7818608E-02  0.1174261E+00
         21   -1    0    0  503  502  0.00000000000E+00  0.00000000000E+00  0.42930193714E+03  0.42930193714E+03  0.00000000000E+00 0. -1.
         21   -1    0    0  501  503 -0.00000000000E+00 -0.00000000000E+00 -0.10990904471E+03  0.10990904471E+03  0.00000000000E+00 0. -1.
          6    1    1    2  501    0  0.24654607312E+01  0.22523440539E+02 -0.25445972236E+01  0.17350463638E+03  0.17200000000E+03 0. -1.
         -6    1    1    2    0  502 -0.24654607312E+01 -0.22523440539E+02  0.32193748966E+03  0.36570634547E+03  0.17200000000E+03 0. -1.
</event>
<event>
 4    1  0.6129841E-001  0.2532616E+03  0.7818608E-02  0.1111261E+00
         21   -1    0    0  501  502  0.00000000000E+00  0.00000000000E+00  0.66428354301E+03  0.66428354301E+03  0.00000000000E+00 0.  1.
         21   -1    0    0  502  503 -0.00000000000E+00 -0.00000000000E+00 -0.11445718855E+03  0.11445718855E+03  0.00000000000E+00 0.  1.
          6    1    1    2  501    0  0.13345058329E+03 -0.12941554557E+03  0.12093250034E+03  0.28065300864E+03  0.17200000000E+03 0. -1.
         -6    1    1    2    0  503 -0.13345058329E+03  0.12941554557E+03  0.42889385412E+03  0.49808772292E+03  0.17200000000E+03 0. -1.
</event>
<event>
 4    1  0.6129841E-001  0.2154701E+03  0.7818608E-02  0.1137306E+00
         21   -1    0    0  503  502  0.00000000000E+00  0.00000000000E+00  0.54556675244E+03  0.54556675244E+03  0.00000000000E+00 0.  1.
         21   -1    0    0  501  503 -0.00000000000E+00 -0.00000000000E+00 -0.91030955288E+02  0.91030955288E+02  0.00000000000E+00 0. -1.
          6    1    1    2  501    0 -0.64533421219E+02 -0.11260021111E+03  0.14601720997E+03  0.26028521972E+03  0.17200000000E+03 0.  1.
         -6    1    1    2    0  502  0.64533421219E+02  0.11260021111E+03  0.30851858718E+03  0.37631248801E+03  0.17200000000E+03 0.  1.
</event>
<event>
 4    1  0.6129841E-001  0.1762015E+03  0.7818608E-02  0.1171531E+00
         21   -1    0    0  501  502  0.00000000000E+00  0.00000000000E+00  0.24190005033E+02  0.24190005033E+02  0.00000000000E+00 0.  1.
         21   -1    0    0  502  503 -0.00000000000E+00 -0.00000000000E+00 -0.12872090472E+04  0.12872090472E+04  0.00000000000E+00 0.  1.
          6    1    1    2  501    0  0.31889145976E+02 -0.21119976221E+02 -0.66688317308E+03  0.68976817668E+03  0.17200000000E+03 0.  1.
         -6    1    1    2    0  503 -0.31889145976E+02  0.21119976221E+02 -0.59613586912E+03  0.62163087558E+03  0.17200000000E+03 0.  1.
</event>
<event>
 4    1  0.6129841E-001  0.1895196E+03  0.7818608E-02  0.1158895E+00
         21   -1    0    0  503  502  0.00000000000E+00  0.00000000000E+00  0.16786948928E+03  0.16786948928E+03  0.00000000000E+00 0. -1.
         21   -1    0    0  501  503 -0.00000000000E+00 -0.00000000000E+00 -0.29624214238E+03  0.29624214238E+03  0.00000000000E+00 0. -1.
          6    1    1    2  501    0 -0.69318928575E+02 -0.39097016751E+02 -0.18648354281E+03  0.26588306136E+03  0.17200000000E+03 0. -1.
         -6    1    1    2    0  502  0.69318928575E+02  0.39097016751E+02  0.58110889714E+02  0.19822857029E+03  0.17200000000E+03 0. -1.
</event>
<event>
 4    1  0.6129841E-001  0.2120214E+03  0.7818608E-02  0.1139975E+00
         21   -1    0    0  503  502  0.00000000000E+00  0.00000000000E+00  0.47375640522E+02  0.47375640522E+02  0.00000000000E+00 0.  1.
         21   -1    0    0  501  503 -0.00000000000E+00 -0.00000000000E+00 -0.10182993182E+04  0.10182993182E+04  0.00000000000E+00 0. -1.
          6    1    1    2  501    0  0.30124542515E+02  0.12025631845E+03 -0.62459967527E+03  0.65960429390E+03  0.17200000000E+03 0.  1.
         -6    1    1    2    0  502 -0.30124542515E+02 -0.12025631845E+03 -0.34632400245E+03  0.40607066486E+03  0.17200000000E+03 0.  1.
</event>
<event>
 4    1  0.6129841E-001  0.2180767E+03  0.7818608E-02  0.1135325E+00
         21   -1    0    0  501  502  0.00000000000E+00  0.00000000000E+00  0.10011143076E+04  0.10011143076E+04  0.00000000000E+00 0.  1.
         21   -1    0    0  502  503 -0.00000000000E+00 -0.00000000000E+00 -0.50694322521E+02  0.50694322521E+02  0.00000000000E+00 0. -1.
          6    1    1    2  501    0  0.79257486167E+02  0.10812821932E+03  0.60712935507E+03  0.64510736682E+03  0.17200000000E+03 0.  1.
         -6    1    1    2    0  503 -0.79257486167E+02 -0.10812821932E+03  0.34329063002E+03  0.40670126332E+03  0.17200000000E+03 0. -1.
</event>
<event>
 4    1  0.6129841E-001  0.2019711E+03  0.7818608E-02  0.1148087E+00
         21   -1    0    0  503  502  0.00000000000E+00  0.00000000000E+00  0.23286998146E+03  0.23286998146E+03  0.00000000000E+00 0.  1.
         21   -1    0    0  501  503 -0.00000000000E+00 -0.00000000000E+00 -0.25330037361E+03  0.25330037361E+03  0.00000000000E+00 0.  1.
          6    1    1    2  501    0 -0.26229312048E+02 -0.10256881498E+03 -0.14521853149E+03  0.24875843806E+03  0.17200000000E+03 0.  1.
         -6    1    1    2    0  502  0.26229312048E+02  0.10256881498E+03  0.12478813935E+03  0.23741191701E+03  0.17200000000E+03 0.  1.
</event>
<event>
 4    1  0.6129841E-001  0.1893772E+03  0.7818608E-02  0.1159024E+00
         21   -1    0    0  503  502  0.00000000000E+00  0.00000000000E+00  0.60463994133E+03  0.60463994133E+03  0.00000000000E+00 0. -1.
         21   -1    0    0  501  503 -0.00000000000E+00 -0.00000000000E+00 -0.61319981382E+02  0.61319981382E+02  0.00000000000E+00 0.  1.
          6    1    1    2  501    0 -0.76877603603E+02 -0.19223507692E+02  0.21143683859E+03  0.28384722281E+03  0.17200000000E+03 0.  1.
         -6    1    1    2    0  502  0.76877603603E+02  0.19223507692E+02  0.33188312136E+03  0.38211269990E+03  0.17200000000E+03 0.  1.
</event>
<event>
 4    1  0.6129841E-001  0.1893287E+03  0.7818608E-02  0.1159068E+00
         21   -1    0    0  501  502  0.00000000000E+00  0.00000000000E+00  0.34101841470E+03  0.34101841470E+03  0.00000000000E+00 0. -1.
         21   -1    0    0  502  503 -0.00000000000E+00 -0.00000000000E+00 -0.16225463036E+03  0.16225463036E+03  0.00000000000E+00 0. -1.
          6    1    1    2  501    0 -0.24393903535E+02  0.75274804088E+02  0.23871381744E+03  0.30467957808E+03  0.17200000000E+03 0.  1.
         -6    1    1    2    0  503  0.24393903535E+02 -0.75274804088E+02 -0.59950033096E+02  0.19859346698E+03  0.17200000000E+03 0.  1.
</event>
<event>
 4    1  0.6129841E-001  0.2228369E+03  0.7818608E-02  0.1131786E+00
         21   -1    0    0  503  502  0.00000000000E+00  0.00000000000E+00  0.72240345983E+02  0.72240345983E+02  0.00000000000E+00 0. -1.
         21   -1    0    0  501  503 -0.00000000000E+00 -0.00000000000E+00 -0.10982708600E+04  0.10982708600E+04  0.00000000000E+00 0.  1.
          6    1    1    2  501    0 -0.90980144554E+02 -0.10860431115E+03 -0.87099312880E+03  0.89904689173E+03  0.17200000000E+03 0. -1.
         -6    1    1    2    0  502  0.90980144554E+02  0.10860431115E+03 -0.15503738523E+03  0.27146431427E+03  0.17200000000E+03 0. -1.
</event>
<event>
 4    1  0.6129841E-001  0.1850258E+03  0.7818608E-02  0.1163026E+00
         21   -1    0    0  503  502  0.00000000000E+00  0.00000000000E+00  0.10027674922E+03  0.10027674922E+03  0.00000000000E+00 0. -1.
         21   -1    0    0  501  503 -0.00000000000E+00 -0.00000000000E+00 -0.58479986127E+03  0.58479986127E+03  0.00000000000E+00 0.  1.
          6    1    1    2  501    0  0.50975124860E+02 -0.45300094044E+02 -0.46324766158E+03  0.49883159266E+03  0.17200000000E+03 0.  1.
         -6    1    1    2    0  502 -0.50975124860E+02  0.45300094044E+02 -0.21275450467E+02  0.18624501783E+03  0.17200000000E+03 0. -1.
</event>
<event>
 4    1  0.6129841E-001  0.2244592E+03  0.7818608E-02  0.1130602E+00
         21   -1    0    0  501  502  0.00000000000E+00  0.00000000000E+00  0.10876231503E+03  0.10876231503E+03  0.00000000000E+00 0.  1.
         21   -1    0    0  502  503 -0.00000000000E+00 -0.00000000000E+00 -0.51755182943E+03  0.51755182943E+03  0.00000000000E+00 0. -1.
          6    1    1    2  501    0 -0.43989874440E+01  0.14414770179E+03 -0.30585001489E+03  0.37937599111E+03  0.17200000000E+03 0. -1.
         -6    1    1    2    0  503  0.43989874440E+01 -0.14414770179E+03 -0.10293949951E+03  0.24693815335E+03  0.17200000000E+03 0. -1.
</event>
<event>
 4    1  0.6129841E-001  0.2657380E+03  0.7818608E-02  0.1103744E+00
         21   -1    0    0  503  502  0.00000000000E+00  0.00000000000E+00  0.11832507870E+03  0.11832507870E+03  0.00000000000E+00 0.  1.
         21   -1    0    0  501  503 -0.00000000000E+00 -0.00000000000E+00 -0.72330772154E+03  0.72330772154E+03  0.00000000000E+00 0. -1.
          6    1    1    2  501    0 -0.31078460388E+02 -0.20016693918E+03 -0.47848041154E+03  0.54732090995E+03  0.17200000000E+03 0. -1.
         -6    1    1    2    0  502  0.31078460388E+02  0.20016693918E+03 -0.12650223130E+03  0.29431189029E+03  0.17200000000E+03 0.  1.
</event>
<event>
 4    1  0.6129841E-001  0.1794813E+03  0.7818608E-02  0.1168306E+00
         21   -1    0    0  501  502  0.00000000000E+00  0.00000000000E+00  0.72770255290E+02  0.72770255290E+02  0.00000000000E+00 0. -1.
         21   -1    0    0  502  503 -0.00000000000E+00 -0.00000000000E+00 -0.53185551668E+03  0.53185551668E+03  0.00000000000E+00 0. -1.
          6    1    1    2  501    0  0.33685666031E+02 -0.38662781081E+02 -0.10574963022E+03  0.20831831179E+03  0.17200000000E+03 0.  1.
         -6    1    1    2    0  503 -0.33685666031E+02  0.38662781081E+02 -0.35333563117E+03  0.39630746017E+03  0.17200000000E+03 0.  1.
</event>
<event>
 4    1  0.6129841E-001  0.1750296E+03  0.7818608E-02  0.1172702E+00
         21   -1    0    0  503  502  0.00000000000E+00  0.00000000000E+00  0.17940470267E+04  0.17940470267E+04  0.00000000000E+00 0.  1.
         21   -1    0    0  501  503 -0.00000000000E+00 -0.00000000000E+00 -0.27767021031E+02  0.27767021031E+02  0.00000000000E+00 0.  1.
          6    1    1    2  501    0  0.95614730942E+01 -0.30983101161E+02  0.31792142907E+03  0.36291790998E+03  0.17200000000E+03 0.  1.
         -6    1    1    2    0  502 -0.95614730942E+01  0.30983101161E+02  0.14483585766E+04  0.14588961377E+04  0.17200000000E+03 0.  1.
</event>
<event>
 4    1  0.6129841E-001  0.2101385E+03  0.7818608E-02  0.1141456E+00
         21   -1    0    0  503  502  0.00000000000E+00  0.00000000000E+00  0.12882066412E+04  0.12882066412E+04  0.00000000000E+00 0. -1.
         21   -1    0    0  501  503 -0.00000000000E+00 -0.00000000000E+00 -0.39627685026E+02  0.39627685026E+02  0.00000000000E+00 0.  1.
          6    1    1    2  501    0  0.71850045385E+02 -0.97014126966E+02  0.38037003099E+03  0.43455670554E+03  0.17200000000E+03 0.  1.
         -6    1    1    2    0  502 -0.71850045385E+02  0.97014126966E+02  0.86820892518E+03  0.89327762068E+03  0.17200000000E+03 0. -1.
</event>
<event>
 4    1  0.6129841E-001  0.2175114E+03  0.7818608E-02  0.1135752E+00
         21   -1    0    0  503  502  0.00000000000E+00  0.00000000000E+00  0.36914184657E+03  0.36914184657E+03  0.00000000000E+00 0. -1.
         21   -1    0    0  501  503 -0.00000000000E+00 -0.00000000000E+00 -0.18942616911E+03  0.18942616911E+03  0.00000000000E+00 0. -1.
          6    1    1    2  501    0  0.87245877546E+02 -0.10057513491E+03 -0.68966630621E+02  0.22818325322E+03  0.17200000000E+03 0. -1.
         -6    1    1    2    0  502 -0.87245877546E+02  0.10057513491E+03  0.24868230808E+03  0.33038476246E+03  0.17200000000E+03 0. -1.
</event>
<event>
 4    1  0.6129841E-001  0.1889494E+03  0.7818608E-02  0.1159412E+00
         21   -1    0    0  503  502  0.00000000000E+00  0.00000000000E+00  0.42827848905E+02  0.42827848905E+02  0.00000000000E+00 0. -1.
         21   -1    0    0  501  503 -0.00000000000E+00 -0.00000000000E+00 -0.10327167379E+04  0.10327167379E+04  0.00000000000E+00 0. -1.
          6    1    1    2  501    0 -0.23676327382E+02 -0.74547463963E+02 -0.73107189145E+03  0.75509469825E+03  0.17200000000E+03 0. -1.
         -6    1    1    2    0  502  0.23676327382E+02  0.74547463963E+02 -0.25881699760E+03  0.32044988861E+03  0.17200000000E+03 0. -1.
</event>
<event>
 4    1  0.6129841E-001  0.1754829E+03  0.7818608E-02  0.1172248E+00
         21   -1    0    0  503  502  0.00000000000E+00  0.00000000000E+00  0.67026758801E+03  0.67026758801E+03  0.00000000000E+00 0. -1.
         21   -1    0    0  501  503 -0.00000000000E+00 -0.00000000000E+00 -0.49142242003E+02  0.49142242003E+02  0.00000000000E+00 0. -1.
          6    1    1    2  501    0  0.34288584357E+02  0.58785776325E+01  0.21878730351E+03  0.28046773232E+03  0.17200000000E+03 0.  1.
         -6    1    1    2    0  502 -0.34288584357E+02 -0.58785776325E+01  0.40233804250E+03  0.43894209770E+03  0.17200000000E+03 0.  1.
</event>
<event>
 4    1  0.6129841E-001  0.1821240E+03  0.7818608E-02  0.1165763E+00
         21   -1    0    0  501  502  0.00000000000E+00  0.00000000000E+00  0.44054722543E+02  0.44054722543E+02  0.00000000000E+00 0.  1.
         21   -1    0    0  502  503 -0.00000000000E+00 -0.00000000000E+00 -0.80717686879E+03  0.80717686879E+03  0.00000000000E+00 0.  1.
          6    1    1    2  501    0 -0.53358080872E+02  0.27167251707E+02 -0.49192053048E+03  0.52455214485E+03  0.17200000000E+03 0. -1.
         -6    1    1    2    0  503  0.53358080872E+02 -0.27167251707E+02 -0.27120161578E+03  0.32667944649E+03  0.17200000000E+03 0. -1.
</event>
<event>
 4    1  0.6129841E-001  0.2200609E+03  0.7818608E-02  0.1133838E+00
         21   -1    0    0  503  502  0.00000000000E+00  0.00000000000E+00  0.78295982656E+02  0.78295982656E+02  0.00000000000E+00 0.  1.
         21   -1    0    0  501  503 -0.00000000000E+00 -0.00000000000E+00 -0.87948422476E+03  0.87948422476E+03  0.00000000000E+00 0. -1.
          6    1    1    2  501    0 -0.64029982558E+02  0.12142062084E+03 -0.66146229256E+03  0.69710771786E+03  0.17200000000E+03 0. -1.
         -6    1    1    2    0  502  0.64029982558E+02 -0.12142062084E+03 -0.13972594955E+03  0.26067248955E+03  0.17200000000E+03 0.  1.
</event>
<event>
 4    1  0.6129841E-001  0.2540885E+03  0.7818608E-02  0.1110748E+00
         21   -1    0    0  503  502  0.00000000000E+00  0.00000000000E+00  0.19078709454E+03  0.19078709454E+03  0.00000000000E+00 0.  1.
         21   -1    0    0  501  503 -0.00000000000E+00 -0.00000000000E+00 -0.53238934784E+03  0.53238934784E+03  0.00000000000E+00 0. -1.
          6    1    1    2  501    0  0.43734678062E+02 -0.18183575253E+03 -0.38907245516E+03  0.46469165941E+03  0.17200000000E+03 0. -1.
         -6    1    1    2    0  502 -0.43734678062E+02  0.18183575253E+03  0.47470201865E+02  0.25848478297E+03  0.17200000000E+03 0.  1.
</event>
<event>
 4    1  0.6129841E-001  0.3302095E+03  0.7818608E-02  0.1071044E+00
         21   -1    0    0  501  502  0.00000000000E+00  0.00000000000E+00  0.69216498286E+03  0.69216498286E+03  0.00000000000E+00 0. -1.
         21   -1    0    0  502  503 -0.00000000000E+00 -0.00000000000E+00 -0.16806107484E+03  0.16806107484E+03  0.00000000000E+00 0.  1.
          6    1    1    2  501    0 -0.27439127087E+03  0.64526993305E+02  0.15439573544E+03  0.36452207823E+03  0.17200000000E+03 0. -1.
         -6    1    1    2    0  503  0.27439127087E+03 -0.64526993305E+02  0.36970817258E+03  0.49570397947E+03  0.17200000000E+03 0. -1.
</event>
<event>
 4    1  0.6129841E-001  0.1721325E+03  0.7818608E-02  0.1175642E+00
         21   -1    0    0  501  502  0.00000000000E+00  0.00000000000E+00  0.39301929771E+03  0.39301929771E+03  0.00000000000E+00 0. -1.
         21   -1    0    0  502  503 -0.00000000000E+00 -0.00000000000E+00 -0.11693470722E+03  0.11693470722E+03  0.00000000000E+00 0. -1.
          6    1    1    2  501    0 -0.32363743143E+01 -0.59264068139E+01  0.29002314008E+03  0.33725808841E+03  0.17200000000E+03 0. -1.
         -6    1    1    2    0  503  0.32363743143E+01  0.59264068139E+01 -0.13938549584E+02  0.17269591651E+03  0.17200000000E+03 0. -1.
</event>
<event>
 4    1  0.6129841E-001  0.1795182E+03  0.7818608E-02  0.1168270E+00
         21   -1    0    0  501  502  0.00000000000E+00  0.00000000000E+00  0.50531253567E+02  0.50531253567E+02  0.00000000000E+00 0. -1.
         21   -1    0    0  502  503 -0.00000000000E+00 -0.00000000000E+00 -0.71729254098E+03  0.71729254098E+03  0.00000000000E+00 0. -1.
          6    1    1    2  501    0 -0.50651099966E+02  0.87885365670E+01 -0.20554322220E+03  0.27290069347E+03  0.17200000000E+03 0. -1.
         -6    1    1    2    0  503  0.50651099966E+02 -0.87885365670E+01 -0.46121806521E+03  0.49492310107E+03  0.17200000000E+03 0. -1.
</event>
<event>
 4    1  0.6129841E-001  0.1971688E+03  0.7818608E-02  0.1152150E+00
         21   -1    0    0  501  502  0.00000000000E+00  0.00000000000E+00  0.41364234670E+03  0.41364234670E+03  0.00000000000E+00 0. -1.
         21   -1    0    0  502  503 -0.00000000000E+00 -0.00000000000E+00 -0.28510260461E+03  0.28510260461E+03  0.00000000000E+00 0. -1.
          6    1    1    2  501    0  0.96109737849E+02  0.73795666524E+01  0.35031870992E+03  0.40199345546E+03  0.17200000000E+03 0. -1.
         -6    1    1    2    0  503 -0.96109737849E+02 -0.73795666524E+01 -0.22177896783E+03  0.29675149584E+03  0.17200000000E+03 0. -1.
</event>
<event>
 4    1  0.6129841E-001  0.2426088E+03  0.7818608E-02  0.1118067E+00
         21   -1    0    0  501  502  0.00000000000E+00  0.00000000000E+00  0.22191277977E+03  0.22191277977E+03  0.00000000000E+00 0.  1.
         21   -1    0    0  502  503 -0.00000000000E+00 -0.00000000000E+00 -0.31574881422E+03  0.31574881422E+03  0.00000000000E+00 0.  1.
          6    1    1    2  501    0 -0.15752536775E+03  0.66789302927E+02  0.60607841728E+02  0.25006471752E+03  0.17200000000E+03 0.  1.
         -6    1    1    2    0  503  0.15752536775E+03 -0.66789302927E+02 -0.15444387618E+03  0.28759687647E+03  0.17200000000E+03 0.  1.
</event>
<event>
 4    1  0.6129841E-001  0.1780945E+03  0.7818608E-02  0.1169660E+00
         21   -1    0    0  503  502  0.00000000000E+00  0.00000000000E+00  0.88157938079E+03  0.88157938079E+03  0.00000000000E+00 0.  1.
         21   -1    0    0  501  503 -0.00000000000E+00 -0.00000000000E+00 -0.56944345915E+02  0.56944345915E+02  0.00000000000E+00 0. -1.
          6    1    1    2  501    0 -0.45135731341E+02 -0.98183949551E+01  0.69705805929E+03  0.71944949311E+03  0.17200000000E+03 0.  1.
         -6    1    1    2    0  502  0.45135731341E+02  0.98183949551E+01  0.12757697559E+03  0.21907423359E+03  0.17200000000E+03 0. -1.
</event>
<event>
 4    1  0.6129841E-001  0.1809119E+03  0.7818608E-02  0.1166923E+00
         21   -1    0    0  501  502  0.00000000000E+00  0.00000000000E+00  0.60514966115E+03  0.60514966115E+03  0.00000000000E+00 0.  1.
         21   -1    0    0  502  503 -0.00000000000E+00 -0.00000000000E+00 -0.70594011215E+02  0.70594011215E+02  0.00000000000E+00 0.  1.
          6    1    1    2  501    0  0.48407167631E+02 -0.28317450134E+02  0.43067216827E+03  0.46712701526E+03  0.17200000000E+03 0.  1.
         -6    1    1    2    0  503 -0.48407167631E+02  0.28317450134E+02  0.10388348166E+03  0.20861665711E+03  0.17200000000E+03 0.  1.
</event>
<event>
 4    1  0.6129841E-001  0.1746939E+03  0.7818608E-02  0.1173039E+00
         21   -1    0    0  503  502  0.00000000000E+00  0.00000000000E+00  0.74539595795E+03  0.74539595795E+03  0.00000000000E+00 0. -1.
         21   -1    0    0  501  503 -0.00000000000E+00 -0.00000000000E+00 -0.44115102259E+02  0.44115102259E+02  0.00000000000E+00 0. -1.
          6    1    1    2  501    0 -0.30531664127E+02  0.13342302233E+01  0.24476866174E+03  0.30071524812E+03  0.17200000000E+03 0. -1.
         -6    1    1    2    0  502  0.30531664127E+02 -0.13342302233E+01  0.45651219396E+03  0.48879581209E+03  0.17200000000E+03 0. -1.
</event>
<event>
 4    1  0.6129841E-001  0.3376267E+03  0.7818608E-02  0.1067811E+00
         21   -1    0    0  501  502  0.00000000000E+00  0.00000000000E+00  0.13397072495E+03  0.13397072495E+03  0.00000000000E+00 0.  1.
         21   -1    0    0  502  503 -0.00000000000E+00 -0.00000000000E+00 -0.97417625765E+03  0.97417625765E+03  0.00000000000E+00 0. -1.
          6    1    1    2  501    0 -0.19283956346E+03  0.21730319647E+03 -0.22297864464E+03  0.40461247187E+03  0.17200000000E+03 0.  1.
         -6    1    1    2    0  503  0.19283956346E+03 -0.21730319647E+03 -0.61722688807E+03  0.70353451073E+03  0.17200000000E+03 0. -1.
</event>
<event>
 4    1  0.6129841E-001  0.1779685E+03  0.7818608E-02  0.1169784E+00
         21   -1    0    0  501  502  0.00000000000E+00  0.00000000000E+00  0.14690499058E+03  0.14690499058E+03  0.00000000000E+00 0. -1.
         21   -1    0    0  502  503 -0.00000000000E+00 -0.00000000000E+00 -0.29409283771E+03  0.29409283771E+03  0.00000000000E+00 0. -1.
          6    1    1    2  501    0 -0.32636506649E+02  0.31994681972E+02  0.40320217665E+02  0.18247882396E+03  0.17200000000E+03 0. -1.
         -6    1    1    2    0  503  0.32636506649E+02 -0.31994681972E+02 -0.18750806479E+03  0.25851900433E+03  0.17200000000E+03 0. -1.
</event>
<event>
 4    1  0.6129841E-001  0.2035642E+03  0.7818608E-02  0.1146766E+00
         21   -1    0    0  503  502  0.00000000000E+00  0.00000000000E+00  0.99141048958E+02  0.99141048958E+02  0.00000000000E+00 0.  1.
         21   -1    0    0  501  503 -0.00000000000E+00 -0.00000000000E+00 -0.96519807582E+03  0.96519807582E+03  0.00000000000E+00 0.  1.
          6    1    1    2  501    0  0.10886725412E+03 -0.15214213061E+01 -0.83373313737E+03  0.85822452662E+03  0.17200000000E+03 0.  1.
         -6    1    1    2    0  502 -0.10886725412E+03  0.15214213061E+01 -0.32323889493E+02  0.20611459816E+03  0.17200000000E+03 0.  1.
</event>
<event>
 4    1  0.6129841E-001  0.1844665E+03  0.7818608E-02  0.1163549E+00
         21   -1    0    0  503  502  0.00000000000E+00  0.00000000000E+00  0.10337669992E+03  0.10337669992E+03  0.00000000000E+00 0. -1.
         21   -1    0    0  501  503 -0.00000000000E+00 -0.00000000000E+00 -0.41227581916E+03  0.41227581916E+03  0.00000000000E+00 0. -1.
          6    1    1    2  501    0 -0.35196747126E+02  0.56613407200E+02 -0.38687941282E+02  0.18847982832E+03  0.17200000000E+03 0.  1.
         -6    1    1    2    0  502  0.35196747126E+02 -0.56613407200E+02 -0.27021117796E+03  0.32717269075E+03  0.17200000000E+03 0.  1.
</event>
<event>
 4    1  0.6129841E-001  0.1785308E+03  0.7818608E-02  0.1169233E+00
         21   -1    0    0  503  502  0.00000000000E+00  0.00000000000E+00  0.44727408289E+02  0.44727408289E+02  0.00000000000E+00 0.  1.
         21   -1    0    0  501  503 -0.00000000000E+00 -0.00000000000E+00 -0.10100803489E+04  0.10100803489E+04  0.00000000000E+00 0.  1.
          6    1    1    2  501    0 -0.47667236030E+02 -0.41349974249E+01 -0.76888734834E+03  0.78934214257E+03  0.17200000000E+03 0.  1.
         -6    1    1    2    0  502  0.47667236030E+02  0.41349974249E+01 -0.19646559223E+03  0.26546561458E+03  0.17200000000E+03 0.  1.
</event>
<event>
 4    1  0.6129841E-001  0.1924826E+03  0.7818608E-02  0.1156241E+00
         21   -1    0    0  503  502  0.00000000000E+00  0.00000000000E+00  0.13226328329E+04  0.13226328329E+04  0.00000000000E+00 0. -1.
         21   -1    0    0  501  503 -0.00000000000E+00 -0.00000000000E+00 -0.34183432631E+02  0.34183432631E+02  0.00000000000E+00 0. -1.
          6    1    1    2  501    0 -0.24223931445E+02  0.82938221733E+02  0.35596936004E+03  0.40467731931E+03  0.17200000000E+03 0. -1.
         -6    1    1    2    0  502  0.24223931445E+02 -0.82938221733E+02  0.93248004018E+03  0.95213894617E+03  0.17200000000E+03 0. -1.
</event>
<event>
 4    1  0.6129841E-001  0.1857236E+03  0.7818608E-02  0.1162376E+00
         21   -1    0    0  501  502  0.00000000000E+00  0.00000000000E+00  0.97946105554E+02  0.97946105554E+02  0.00000000000E+00 0.  1.
         21   -1    0    0  502  503 -0.00000000000E+00 -0.00000000000E+00 -0.36448157408E+03  0.36448157408E+03  0.00000000000E+00 0.  1.
          6    1    1    2  501    0  0.67374313573E+02  0.19234039492E+02 -0.90765584926E+02  0.20671632207E+03  0.17200000000E+03 0.  1.
         -6    1    1    2    0  503 -0.67374313573E+02 -0.19234039492E+02 -0.17576988360E+03  0.25571135756E+03  0.17200000000E+03 0.  1.
</event>
<event>
 4    1  0.6129841E-001  0.2212881E+03  0.7818608E-02  0.1132926E+00
         21   -1    0    0  503  502  0.00000000000E+00  0.00000000000E+00  0.57927406033E+03  0.57927406033E+03  0.00000000000E+00 0. -1.
         21   -1    0    0  501  503 -0.00000000000E+00 -0.00000000000E+00 -0.12397150766E+03  0.12397150766E+03  0.00000000000E+00 0. -1.
          6    1    1    2  501    0  0.49427287047E+02 -0.13015894778E+03  0.29329558906E+02  0.22322327705E+03  0.17200000000E+03 0. -1.
         -6    1    1    2    0  502 -0.49427287047E+02  0.13015894778E+03  0.42597299376E+03  0.48002229094E+03  0.17200000000E+03 0. -1.
</event>
<event>
 4    1  0.6129841E-001  0.1755526E+03  0.7818608E-02  0.1172178E+00
         21   -1    0    0  501  502  0.00000000000E+00  0.00000000000E+00  0.19736218879E+04  0.19736218879E+04  0.00000000000E+00 0. -1.
         21   -1    0    0  502  503 -0.00000000000E+00 -0.00000000000E+00 -0.34324779777E+02  0.34324779777E+02  0.00000000000E+00 0. -1.
          6    1    1    2  501    0  0.12453292621E+02 -0.32857757236E+02  0.17108718208E+04  0.17198549660E+04  0.17200000000E+03 0. -1.
         -6    1    1    2    0  503 -0.12453292621E+02  0.32857757236E+02  0.22842528728E+03  0.28809170168E+03  0.17200000000E+03 0. -1.
</event>
<event>
 4    1  0.6129841E-001  0.1750478E+03  0.7818608E-02  0.1172684E+00
         21   -1    0    0  503  502  0.00000000000E+00  0.00000000000E+00  0.54928384090E+03  0.54928384090E+03  0.00000000000E+00 0. -1.
         21   -1    0    0  501  503 -0.00000000000E+00 -0.00000000000E+00 -0.65866310175E+02  0.65866310175E+02  0.00000000000E+00 0. -1.
          6    1    1    2  501    0  0.20001495620E+02  0.25645307607E+02  0.36204050978E+03  0.40213812596E+03  0.17200000000E+03 0. -1.
         -6    1    1    2    0  502 -0.20001495620E+02 -0.25645307607E+02  0.12137702094E+03  0.21301202511E+03  0.17200000000E+03 0. -1.
</event>
<event>
 4    1  0.6129841E-001  0.2184537E+03  0.7818608E-02  0.1135041E+00
         21   -1    0    0  503  502  0.00000000000E+00  0.00000000000E+00  0.88004441643E+02  0.88004441643E+02  0.00000000000E+00 0. -1.
         21   -1    0    0  501  503 -0.00000000000E+00 -0.00000000000E+00 -0.55434966415E+03  0.55434966415E+03  0.00000000000E+00 0. -1.
          6    1    1    2  501    0 -0.13445154240E+03 -0.77987864722E+01 -0.18575860559E+03  0.28675476958E+03  0.17200000000E+03 0. -1.
         -6    1    1    2    0  502  0.13445154240E+03  0.77987864722E+01 -0.28058661691E+03  0.35559933621E+03  0.17200000000E+03 0. -1.
</event>
<event>
 4    1  0.6129841E-001  0.1827635E+03  0.7818608E-02  0.1165155E+00
         21   -1    0    0  501  502  0.00000000000E+00  0.00000000000E+00  0.15383011383E+03  0.15383011383E+03  0.00000000000E+00 0.  1.
         21   -1    0    0  502  503 -0.00000000000E+00 -0.00000000000E+00 -0.32596091701E+03  0.32596091701E+03  0.00000000000E+00 0.  1.
          6    1    1    2  501    0  0.58152588199E+02 -0.20898942891E+02  0.52545666521E+02  0.19016712754E+03  0.17200000000E+03 0.  1.
         -6    1    1    2    0  503 -0.58152588199E+02  0.20898942891E+02 -0.22467646970E+03  0.28962390330E+03  0.17200000000E+03 0.  1.
</event>
<event>
 4    1  0.6129841E-001  0.3402670E+03  0.7818608E-02  0.1066682E+00
         21   -1    0    0  501  502  0.00000000000E+00  0.00000000000E+00  0.16107281977E+04  0.16107281977E+04  0.00000000000E+00 0.  1.
         21   -1    0    0  502  503 -0.00000000000E+00 -0.00000000000E+00 -0.10628139593E+03  0.10628139593E+03  0.00000000000E+00 0. -1.
          6    1    1    2  501    0  0.28126100210E+03  0.84201555569E+02  0.12406421149E+04  0.12864581262E+04  0.17200000000E+03 0. -1.
         -6    1    1    2    0  503 -0.28126100210E+03 -0.84201555569E+02  0.26380468682E+03  0.43055146736E+03  0.17200000000E+03 0.  1.
</event>
<event>
 4    1  0.6129841E-001  0.2267822E+03  0.7818608E-02  0.1128925E+00
         21   -1    0    0  501  502  0.00000000000E+00  0.00000000000E+00  0.87816231778E+03  0.87816231778E+03  0.00000000000E+00 0.  1.
         21   -1    0    0  502  503 -0.00000000000E+00 -0.00000000000E+00 -0.11863082979E+03  0.11863082979E+03  0.00000000000E+00 0. -1.
          6    1    1    2  501    0  0.76488424698E+02  0.12647399639E+03  0.73440567885E+03  0.76862334860E+03  0.17200000000E+03 0.  1.
         -6    1    1    2    0  503 -0.76488424698E+02 -0.12647399639E+03  0.25125809133E+02  0.22816979897E+03  0.17200000000E+03 0. -1.
</event>
<event>
 4    1  0.6129841E-001  0.2185389E+03  0.7818608E-02  0.1134977E+00
         21   -1    0    0  501  502  0.00000000000E+00  0.00000000000E+00  0.66634098519E+03  0.66634098519E+03  0.00000000000E+00 0.  1.
         21   -1    0    0  502  503 -0.00000000000E+00 -0.00000000000E+00 -0.72006339689E+02  0.72006339689E+02  0.00000000000E+00 0. -1.
          6    1    1    2  501    0  0.42018731603E+02  0.12810019361E+03  0.27208169139E+03  0.34898091667E+03  0.17200000000E+03 0. -1.
         -6    1    1    2    0  503 -0.42018731603E+02 -0.12810019361E+03  0.32225295411E+03  0.38936640821E+03  0.17200000000E+03 0. -1.
</event>
<event>
 4    1  0.6129841E-001  0.2346029E+03  0.7818608E-02  0.1123441E+00
         21   -1    0    0  501  502  0.00000000000E+00  0.00000000000E+00  0.63993906704E+03  0.63993906704E+03  0.00000000000E+00 0.  1.
         21   -1    0    0  502  503 -0.00000000000E+00 -0.00000000000E+00 -0.13056726343E+03  0.13056726343E+03  0.00000000000E+00 0. -1.
          6    1    1    2  501    0  0.14546644347E+03 -0.65528777654E+02  0.47975118902E+03  0.53404092563E+03  0.17200000000E+03 0.  1.
         -6    1    1    2    0  503 -0.14546644347E+03  0.65528777654E+02  0.29620614588E+02  0.23646540484E+03  0.17200000000E+03 0. -1.
</event>
<event>
 4    1  0.6129841E-001  0.1997575E+03  0.7818608E-02  0.1149944E+00
         21   -1    0    0  501  502  0.00000000000E+00  0.00000000000E+00  0.25091978052E+03  0.25091978052E+03  0.00000000000E+00 0. -1.
         21   -1    0    0  502  503 -0.00000000000E+00 -0.00000000000E+00 -0.11730965353E+04  0.11730965353E+04  0.00000000000E+00 0. -1.
          6    1    1    2  501    0 -0.49506834165E+02 -0.88702582789E+02  0.20090236282E+03  0.28331049082E+03  0.17200000000E+03 0. -1.
         -6    1    1    2    0  503  0.49506834165E+02  0.88702582789E+02 -0.11230791176E+04  0.11407058250E+04  0.17200000000E+03 0. -1.
</event>
<event>
 4    1  0.6129841E-001  0.1981134E+03  0.7818608E-02  0.1151341E+00
         21   -1    0    0  501  502  0.00000000000E+00  0.00000000000E+00  0.67266762254E+02  0.67266762254E+02  0.00000000000E+00 0. -1.
         21   -1    0    0  502  503 -0.00000000000E+00 -0.00000000000E+00 -0.94802410190E+03  0.94802410190E+03  0.00000000000E+00 0.  1.
          6    1    1    2  501    0  0.89523120675E+02 -0.40626532249E+02 -0.12558571762E+03  0.23456486678E+03  0.17200000000E+03 0. -1.
         -6    1    1    2    0  503 -0.89523120675E+02  0.40626532249E+02 -0.75517162203E+03  0.78072599738E+03  0.17200000000E+03 0.  1.
</event>
<event>
 4    1  0.6129841E-001  0.1871684E+03  0.7818608E-02  0.1161040E+00
         21   -1    0    0  501  502  0.00000000000E+00  0.00000000000E+00  0.47046256458E+03  0.47046256458E+03  0.00000000000E+00 0.  1.
         21   -1    0    0  502  503 -0.00000000000E+00 -0.00000000000E+00 -0.80475159278E+02  0.80475159278E+02  0.00000000000E+00 0.  1.
          6    1    1    2  501    0  0.68328420463E+02 -0.27914535920E+02  0.11969952302E+03  0.22217103810E+03  0.17200000000E+03 0.  1.
         -6    1    1    2    0  503 -0.68328420463E+02  0.27914535920E+02  0.27028788228E+03  0.32876668576E+03  0.17200000000E+03 0.  1.
</event>
<event>
 4    1  0.6129841E-001  0.1878564E+03  0.7818608E-02  0.1160409E+00
         21   -1    0    0  503  502  0.00000000000E+00  0.00000000000E+00  0.16186703062E+03  0.16186703062E+03  0.00000000000E+00 0.  1.
         21   -1    0    0  501  503 -0.00000000000E+00 -0.00000000000E+00 -0.29172056135E+03  0.29172056135E+03  0.00000000000E+00 0.  1.
          6    1    1    2  501    0 -0.74360208413E+02 -0.13288203759E+02 -0.17892215568E+03  0.25942851568E+03  0.17200000000E+03 0.  1.
         -6    1    1    2    0  502  0.74360208413E+02  0.13288203759E+02  0.49068624950E+02  0.19415907630E+03  0.17200000000E+03 0.  1.
</event>
<event>
 4    1  0.6129841E-001  0.1729435E+03  0.7818608E-02  0.1174813E+00
         21   -1    0    0  503  502  0.00000000000E+00  0.00000000000E+00  0.16918575408E+03  0.16918575408E+03  0.00000000000E+00 0.  1.
         21   -1    0    0  501  503 -0.00000000000E+00 -0.00000000000E+00 -0.20609479627E+03  0.20609479627E+03  0.00000000000E+00 0.  1.
          6    1    1    2  501    0  0.17851067747E+02 -0.26038134097E+01 -0.89216783519E+02  0.19459978141E+03  0.17200000000E+03 0.  1.
         -6    1    1    2    0  502 -0.17851067747E+02  0.26038134097E+01  0.52307741331E+02  0.18068076895E+03  0.17200000000E+03 0.  1.
</event>
<event>
 4    1  0.6129841E-001  0.2288676E+03  0.7818608E-02  0.1127439E+00
         21   -1    0    0  503  502  0.00000000000E+00  0.00000000000E+00  0.14398553353E+03  0.14398553353E+03  0.00000000000E+00 0.  1.
         21   -1    0    0  501  503 -0.00000000000E+00 -0.00000000000E+00 -0.39063306962E+03  0.39063306962E+03  0.00000000000E+00 0.  1.
          6    1    1    2  501    0 -0.66403536528E+02  0.13559843608E+03 -0.19339714649E+03  0.29963781771E+03  0.17200000000E+03 0.  1.
         -6    1    1    2    0  502  0.66403536528E+02 -0.13559843608E+03 -0.53250389590E+02  0.23498078543E+03  0.17200000000E+03 0.  1.
</event>
<event>
 4    1  0.6129841E-001  0.1767792E+03  0.7818608E-02  0.1170957E+00
         21   -1    0    0  501  502  0.00000000000E+00  0.00000000000E+00  0.31500181641E+02  0.31500181641E+02  0.00000000000E+00 0. -1.
         21   -1    0    0  502  503 -0.00000000000E+00 -0.00000000000E+00 -0.20945914860E+04  0.20945914860E+04  0.00000000000E+00 0. -1.
          6    1    1    2  501    0  0.70173117517E+01 -0.40219892883E+02 -0.26029997177E+03  0.31465371085E+03  0.17200000000E+03 0. -1.
         -6    1    1    2    0  503 -0.70173117517E+01  0.40219892883E+02 -0.18027913325E+04  0.18114379567E+04  0.17200000000E+03 0. -1.
</event>
<event>
 4    1  0.6129841E-001  0.1744397E+03  0.7818608E-02  0.1173295E+00
         21   -1    0    0  503  502  0.00000000000E+00  0.00000000000E+00  0.26146126307E+03  0.26146126307E+03  0.00000000000E+00 0.  1.
         21   -1    0    0  501  503 -0.00000000000E+00 -0.00000000000E+00 -0.12526812867E+03  0.12526812867E+03  0.00000000000E+00 0.  1.
          6    1    1    2  501    0  0.24523178616E+02 -0.15615322221E+02  0.16594085712E+02  0.17522724748E+03  0.17200000000E+03 0.  1.
         -6    1    1    2    0  502 -0.24523178616E+02  0.15615322221E+02  0.11959904869E+03  0.21150214426E+03  0.17200000000E+03 0.  1.
</event>
<event>
 4    1  0.6129841E-001  0.1900400E+03  0.7818608E-02  0.1158425E+00
         21   -1    0    0  501  502  0.00000000000E+00  0.00000000000E+00  0.11665415987E+03  0.11665415987E+03  0.00000000000E+00 0. -1.
         21   -1    0    0  502  503 -0.00000000000E+00 -0.00000000000E+00 -0.40424497322E+03  0.40424497322E+03  0.00000000000E+00 0. -1.
          6    1    1    2  501    0 -0.75237914030E+02  0.29503707253E+02 -0.17767098775E+02  0.19086875661E+03  0.17200000000E+03 0. -1.
         -6    1    1    2    0  503  0.75237914030E+02 -0.29503707253E+02 -0.26982371458E+03  0.33003037648E+03  0.17200000000E+03 0. -1.
</event>
<event>
 4    1  0.6129841E-001  0.2364490E+03  0.7818608E-02  0.1122181E+00
         21   -1    0    0  503  502  0.00000000000E+00  0.00000000000E+00  0.59646316958E+03  0.59646316958E+03  0.00000000000E+00 0.  1.
         21   -1    0    0  501  503 -0.00000000000E+00 -0.00000000000E+00 -0.97877167966E+02  0.97877167966E+02  0.00000000000E+00 0. -1.
          6    1    1    2  501    0 -0.15728679575E+02 -0.16148294670E+03  0.17785431567E+03  0.29587208560E+03  0.17200000000E+03 0. -1.
         -6    1    1    2    0  502  0.15728679575E+02  0.16148294670E+03  0.32073168594E+03  0.39846825194E+03  0.17200000000E+03 0.  1.
</event>
<event>
 4    1  0.6129841E-001  0.2405887E+03  0.7818608E-02  0.1119401E+00
         21   -1    0    0  503  502  0.00000000000E+00  0.00000000000E+00  0.74814897088E+03  0.74814897088E+03  0.00000000000E+00 0.  1.
         21   -1    0    0  501  503 -0.00000000000E+00 -0.00000000000E+00 -0.77474092944E+02  0.77474092944E+02  0.00000000000E+00 0. -1.
          6    1    1    2  501    0 -0.16244695524E+03  0.43702404899E+02  0.32007311254E+03  0.40041192644E+03  0.17200000000E+03 0.  1.
         -6    1    1    2    0  502  0.16244695524E+03 -0.43702404899E+02  0.35060176539E+03  0.42521113738E+03  0.17200000000E+03 0. -1.
</event>
<event>
 4    1  0.6129841E-001  0.3303700E+03  0.7818608E-02  0.1070973E+00
         21   -1    0    0  501  502  0.00000000000E+00  0.00000000000E+00  0.10585646743E+04  0.10585646743E+04  0.00000000000E+00 0.  1.
         21   -1    0    0  502  503 -0.00000000000E+00 -0.00000000000E+00 -0.25147553893E+03  0.25147553893E+03  0.00000000000E+00 0. -1.
          6    1    1    2  501    0 -0.48978735139E+02 -0.27777942916E+03  0.90667338011E+03  0.96498753668E+03  0.17200000000E+03 0. -1.
         -6    1    1    2    0  503  0.48978735139E+02  0.27777942916E+03 -0.99584244776E+02  0.34505267651E+03  0.17200000000E+03 0. -1.
</event>
<event>
 4    1  0.6129841E-001  0.2013684E+03  0.7818608E-02  0.1148590E+00
         21   -1    0    0  501  502  0.00000000000E+00  0.00000000000E+00  0.13677317308E+03  0.13677317308E+03  0.00000000000E+00 0.  1.
         21   -1    0    0  502  503 -0.00000000000E+00 -0.00000000000E+00 -0.37680811477E+03  0.37680811477E+03  0.00000000000E+00 0.  1.
          6    1    1    2  501    0  0.95775919940E+02  0.42334259274E+02 -0.14464841129E+01  0.20137355503E+03  0.17200000000E+03 0.  1.
         -6    1    1    2    0  503 -0.95775919940E+02 -0.42334259274E+02 -0.23858845757E+03  0.31220773282E+03  0.17200000000E+03 0.  1.
</event>
<event>
 4    1  0.6129841E-001  0.2087799E+03  0.7818608E-02  0.1142536E+00
         21   -1    0    0  501  502  0.00000000000E+00  0.00000000000E+00  0.14042824671E+04  0.14042824671E+04  0.00000000000E+00 0. -1.
         21   -1    0    0  502  503 -0.00000000000E+00 -0.00000000000E+00 -0.36444706832E+02  0.36444706832E+02  0.00000000000E+00 0. -1.
          6    1    1    2  501    0  0.74923423946E+02  0.91605219760E+02  0.96132593599E+03  0.98373603724E+03  0.17200000000E+03 0.  1.
         -6    1    1    2    0  503 -0.74923423946E+02 -0.91605219760E+02  0.40651182426E+03  0.45699113668E+03  0.17200000000E+03 0.  1.
</event>
<event>
 4    1  0.6129841E-001  0.1818874E+03  0.7818608E-02  0.1165989E+00
         21   -1    0    0  503  502  0.00000000000E+00  0.00000000000E+00  0.10827427435E+03  0.10827427435E+03  0.00000000000E+00 0. -1.
         21   -1    0    0  501  503 -0.00000000000E+00 -0.00000000000E+00 -0.30667436735E+03  0.30667436735E+03  0.00000000000E+00 0. -1.
          6    1    1    2  501    0  0.49827815672E+02  0.31878366757E+02 -0.86629031228E+02  0.20146372014E+03  0.17200000000E+03 0. -1.
         -6    1    1    2    0  502 -0.49827815672E+02 -0.31878366757E+02 -0.11177106177E+03  0.21348492155E+03  0.17200000000E+03 0. -1.
</event>
<event>
 4    1  0.6129841E-001  0.2658062E+03  0.7818608E-02  0.1103704E+00
         21   -1    0    0  503  502  0.00000000000E+00  0.00000000000E+00  0.37714539095E+03  0.37714539095E+03  0.00000000000E+00 0. -1.
         21   -1    0    0  501  503 -0.00000000000E+00 -0.00000000000E+00 -0.56460825753E+03  0.56460825753E+03  0.00000000000E+00 0.  1.
          6    1    1    2  501    0  0.20223433828E+03  0.13046804543E+02 -0.47864310531E+03  0.54749627300E+03  0.17200000000E+03 0.  1.
         -6    1    1    2    0  502 -0.20223433828E+03 -0.13046804543E+02  0.29118023873E+03  0.39425737547E+03  0.17200000000E+03 0. -1.
</event>
<event>
 4    1  0.6129841E-001  0.2114311E+03  0.7818608E-02  0.1140438E+00
         21   -1    0    0  503  502  0.00000000000E+00  0.00000000000E+00  0.29001761743E+02  0.29001761743E+02  0.00000000000E+00 0.  1.
         21   -1    0    0  501  503 -0.00000000000E+00 -0.00000000000E+00 -0.15507921918E+04  0.15507921918E+04  0.00000000000E+00 0.  1.
          6    1    1    2  501    0 -0.10274596921E+03  0.67545450136E+02 -0.82238901776E+03  0.84913298049E+03  0.17200000000E+03 0.  1.
         -6    1    1    2    0  502  0.10274596921E+03 -0.67545450136E+02 -0.69940141231E+03  0.73066097307E+03  0.17200000000E+03 0.  1.
</event>
<event>
 4    1  0.6129841E-001  0.1801510E+03  0.7818608E-02  0.1167657E+00
         21   -1    0    0  503  502  0.00000000000E+00  0.00000000000E+00  0.15139229694E+03  0.15139229694E+03  0.00000000000E+00 0.  1.
         21   -1    0    0  501  503 -0.00000000000E+00 -0.00000000000E+00 -0.22386339961E+03  0.22386339961E+03  0.00000000000E+00 0.  1.
          6    1    1    2  501    0  0.53570066564E+02 -0.78574897375E+00 -0.74868314759E+02  0.19508878489E+03  0.17200000000E+03 0.  1.
         -6    1    1    2    0  502 -0.53570066564E+02  0.78574897375E+00  0.23972120833E+01  0.18016691166E+03  0.17200000000E+03 0.  1.
</event>
<event>
 4    1  0.6129841E-001  0.1884854E+03  0.7818608E-02  0.1159835E+00
         21   -1    0    0  501  502  0.00000000000E+00  0.00000000000E+00  0.34149678332E+02  0.34149678332E+02  0.00000000000E+00 0. -1.
         21   -1    0    0  502  503 -0.00000000000E+00 -0.00000000000E+00 -0.12870040216E+04  0.12870040216E+04  0.00000000000E+00 0. -1.
          6    1    1    2  501    0  0.45702246085E+02 -0.62081054566E+02 -0.33722616374E+03  0.38632659518E+03  0.17200000000E+03 0. -1.
         -6    1    1    2    0  503 -0.45702246085E+02  0.62081054566E+02 -0.91562817957E+03  0.93482710480E+03  0.17200000000E+03 0. -1.
</event>
<event>
 4    1  0.6129841E-001  0.1810261E+03  0.7818608E-02  0.1166814E+00
         21   -1    0    0  503  502  0.00000000000E+00  0.00000000000E+00  0.29716892156E+03  0.29716892156E+03  0.00000000000E+00 0.  1.
         21   -1    0    0  501  503 -0.00000000000E+00 -0.00000000000E+00 -0.11032932909E+03  0.11032932909E+03  0.00000000000E+00 0.  1.
          6    1    1    2  501    0 -0.29562023981E+02  0.48088758335E+02  0.97921607613E+02  0.20581322401E+03  0.17200000000E+03 0.  1.
         -6    1    1    2    0  502  0.29562023981E+02 -0.48088758335E+02  0.88917984852E+02  0.20168502664E+03  0.17200000000E+03 0.  1.
</event>
<event>
 4    1  0.6129841E-001  0.1781024E+03  0.7818608E-02  0.1169652E+00
         21   -1    0    0  503  502  0.00000000000E+00  0.00000000000E+00  0.13703019912E+02  0.13703019912E+02  0.00000000000E+00 0. -1.
         21   -1    0    0  501  503 -0.00000000000E+00 -0.00000000000E+00 -0.23261344735E+04  0.23261344735E+04  0.00000000000E+00 0. -1.
          6    1    1    2  501    0  0.36451016955E+02  0.28421582791E+02 -0.12376937559E+04  0.12504424402E+04  0.17200000000E+03 0.  1.
         -6    1    1    2    0  502 -0.36451016955E+02 -0.28421582791E+02 -0.10747376977E+04  0.10893950532E+04  0.17200000000E+03 0.  1.
</event>
<event>
 4    1  0.6129841E-001  0.1843716E+03  0.7818608E-02  0.1163638E+00
         21   -1    0    0  503  502  0.00000000000E+00  0.00000000000E+00  0.60002541077E+03  0.60002541077E+03  0.00000000000E+00 0. -1.
         21   -1    0    0  501  503 -0.00000000000E+00 -0.00000000000E+00 -0.63396671171E+02  0.63396671171E+02  0.00000000000E+00 0. -1.
          6    1    1    2  501    0 -0.61252451450E+02  0.25632148040E+02  0.16012247282E+03  0.24419679794E+03  0.17200000000E+03 0. -1.
         -6    1    1    2    0  502  0.61252451450E+02 -0.25632148040E+02  0.37650626678E+03  0.41922528400E+03  0.17200000000E+03 0. -1.
</event>
<event>
 4    1  0.6129841E-001  0.4165596E+03  0.7818608E-02  0.1038192E+00
         21   -1    0    0  501  502  0.00000000000E+00  0.00000000000E+00  0.15598008787E+04  0.15598008787E+04  0.00000000000E+00 0. -1.
         21   -1    0    0  502  503 -0.00000000000E+00 -0.00000000000E+00 -0.13044783810E+03  0.13044783810E+03  0.00000000000E+00 0.  1.
          6    1    1    2  501    0  0.39962527068E+02 -0.37728095623E+03  0.10389200322E+04  0.11193197742E+04  0.17200000000E+03 0.  1.
         -6    1    1    2    0  503 -0.39962527068E+02  0.37728095623E+03  0.39043300839E+03  0.57092894264E+03  0.17200000000E+03 0.  1.
</event>
<event>
 4    1  0.6129841E-001  0.1811393E+03  0.7818608E-02  0.1166705E+00
         21   -1    0    0  501  502  0.00000000000E+00  0.00000000000E+00  0.11044551531E+03  0.11044551531E+03  0.00000000000E+00 0.  1.
         21   -1    0    0  502  503 -0.00000000000E+00 -0.00000000000E+00 -0.62177439522E+03  0.62177439522E+03  0.00000000000E+00 0.  1.
          6    1    1    2  501    0  0.50127786614E+02  0.26733292312E+02  0.88994935772E+01  0.18135783660E+03  0.17200000000E+03 0.  1.
         -6    1    1    2    0  503 -0.50127786614E+02 -0.26733292312E+02 -0.52022837350E+03  0.55086207393E+03  0.17200000000E+03 0.  1.
</event>
<event>
 4    1  0.6129841E-001  0.2218752E+03  0.7818608E-02  0.1132493E+00
         21   -1    0    0  501  502  0.00000000000E+00  0.00000000000E+00  0.13375082137E+04  0.13375082137E+04  0.00000000000E+00 0. -1.
         21   -1    0    0  502  503 -0.00000000000E+00 -0.00000000000E+00 -0.64042106626E+02  0.64042106626E+02  0.00000000000E+00 0.  1.
          6    1    1    2  501    0 -0.92141173678E+02  0.10561531825E+03  0.10937337203E+04  0.11160116676E+04  0.17200000000E+03 0. -1.
         -6    1    1    2    0  503  0.92141173678E+02 -0.10561531825E+03  0.17973238677E+03  0.28553865271E+03  0.17200000000E+03 0.  1.
</event>
<event>
 4    1  0.6129841E-001  0.1894857E+03  0.7818608E-02  0.1158926E+00
         21   -1    0    0  503  502  0.00000000000E+00  0.00000000000E+00  0.98578634471E+03  0.98578634471E+03  0.00000000000E+00 0. -1.
         21   -1    0    0  501  503 -0.00000000000E+00 -0.00000000000E+00 -0.38259796752E+02  0.38259796752E+02  0.00000000000E+00 0. -1.
          6    1    1    2  501    0 -0.17343458727E+01 -0.79484706171E+02  0.58596642591E+03  0.61584208915E+03  0.17200000000E+03 0. -1.
         -6    1    1    2    0  502  0.17343458727E+01  0.79484706171E+02  0.36156012205E+03  0.40820405231E+03  0.17200000000E+03 0. -1.
</event>
<event>
 4    1  0.6129841E-001  0.1788991E+03  0.7818608E-02  0.1168873E+00
         21   -1    0    0  503  502  0.00000000000E+00  0.00000000000E+00  0.16444739351E+03  0.16444739351E+03  0.00000000000E+00 0.  1.
         21   -1    0    0  501  503 -0.00000000000E+00 -0.00000000000E+00 -0.62369878672E+03  0.62369878672E+03  0.00000000000E+00 0.  1.
          6    1    1    2  501    0  0.44503131554E+02  0.20984365171E+02 -0.55648246360E+03  0.58453195344E+03  0.17200000000E+03 0.  1.
         -6    1    1    2    0  502 -0.44503131554E+02 -0.20984365171E+02  0.97231070393E+02  0.20361422679E+03  0.17200000000E+03 0.  1.
</event>
<event>
 4    1  0.6129841E-001  0.1912556E+03  0.7818608E-02  0.1157334E+00
         21   -1    0    0  501  502  0.00000000000E+00  0.00000000000E+00  0.58653301664E+03  0.58653301664E+03  0.00000000000E+00 0.  1.
         21   -1    0    0  502  503 -0.00000000000E+00 -0.00000000000E+00 -0.88964460496E+02  0.88964460496E+02  0.00000000000E+00 0. -1.
          6    1    1    2  501    0 -0.72135640438E+02 -0.42321845651E+02  0.43346775053E+03  0.47378579547E+03  0.17200000000E+03 0.  1.
         -6    1    1    2    0  503  0.72135640438E+02  0.42321845651E+02  0.64100805618E+02  0.20171168167E+03  0.17200000000E+03 0. -1.
</event>
<event>
 4    1  0.6129841E-001  0.2039245E+03  0.7818608E-02  0.1146470E+00
         21   -1    0    0  503  502  0.00000000000E+00  0.00000000000E+00  0.12318597291E+03  0.12318597291E+03  0.00000000000E+00 0. -1.
         21   -1    0    0  501  503 -0.00000000000E+00 -0.00000000000E+00 -0.37573509055E+03  0.37573509055E+03  0.00000000000E+00 0. -1.
          6    1    1    2  501    0  0.49416984441E+02  0.97770887878E+02 -0.20576853986E+03  0.28969963214E+03  0.17200000000E+03 0.  1.
         -6    1    1    2    0  502 -0.49416984441E+02 -0.97770887878E+02 -0.46780577783E+02  0.20922143132E+03  0.17200000000E+03 0.  1.
</event>
<event>
 4    1  0.6129841E-001  0.1889844E+03  0.7818608E-02  0.1159381E+00
         21   -1    0    0  501  502  0.00000000000E+00  0.00000000000E+00  0.59979236192E+03  0.59979236192E+03  0.00000000000E+00 0.  1.
         21   -1    0    0  502  503 -0.00000000000E+00 -0.00000000000E+00 -0.71821001141E+02  0.71821001141E+02  0.00000000000E+00 0.  1.
          6    1    1    2  501    0  0.75142202854E+02 -0.22017074296E+02  0.12515727934E+03  0.22667034826E+03  0.17200000000E+03 0.  1.
         -6    1    1    2    0  503 -0.75142202854E+02  0.22017074296E+02  0.40281408144E+03  0.44494301480E+03  0.17200000000E+03 0.  1.
</event>
<event>
 4    1  0.6129841E-001  0.2039507E+03  0.7818608E-02  0.1146448E+00
         21   -1    0    0  503  502  0.00000000000E+00  0.00000000000E+00  0.12988932981E+04  0.12988932981E+04  0.00000000000E+00 0.  1.
         21   -1    0    0  501  503 -0.00000000000E+00 -0.00000000000E+00 -0.34323407806E+02  0.34323407806E+02  0.00000000000E+00 0. -1.
          6    1    1    2  501    0  0.95144146418E+02 -0.54400923691E+02  0.45975060567E+03  0.50295774029E+03  0.17200000000E+03 0. -1.
         -6    1    1    2    0  502 -0.95144146418E+02  0.54400923691E+02  0.80481928464E+03  0.83025896564E+03  0.17200000000E+03 0.  1.
</event>
<event>
 4    1  0.6129841E-001  0.1733548E+03  0.7818608E-02  0.1174394E+00
         21   -1    0    0  501  502  0.00000000000E+00  0.00000000000E+00  0.56648963636E+03  0.56648963636E+03  0.00000000000E+00 0. -1.
         21   -1    0    0  502  503 -0.00000000000E+00 -0.00000000000E+00 -0.53147138460E+02  0.53147138460E+02  0.00000000000E+00 0. -1.
          6    1    1    2  501    0  0.10334144252E+02 -0.19002169259E+02  0.24337807525E+03  0.29880556301E+03  0.17200000000E+03 0.  1.
         -6    1    1    2    0  503 -0.10334144252E+02  0.19002169259E+02  0.26996442265E+03  0.32083121181E+03  0.17200000000E+03 0.  1.
</event>
<event>
 4    1  0.6129841E-001  0.1978225E+03  0.7818608E-02  0.1151589E+00
         21   -1    0    0  501  502  0.00000000000E+00  0.00000000000E+00  0.39846783531E+03  0.39846783531E+03  0.00000000000E+00 0.  1.
         21   -1    0    0  502  503 -0.00000000000E+00 -0.00000000000E+00 -0.22727457548E+03  0.22727457548E+03  0.00000000000E+00 0.  1.
          6    1    1    2  501    0  0.39647752593E+02  0.89318457233E+02  0.32136895747E+03  0.37737479766E+03  0.17200000000E+03 0.  1.
         -6    1    1    2    0  503 -0.39647752593E+02 -0.89318457233E+02 -0.15017569764E+03  0.24836761313E+03  0.17200000000E+03 0.  1.
</event>
<event>
 4    1  0.6129841E-001  0.1830554E+03  0.7818608E-02  0.1164878E+00
         21   -1    0    0  503  502  0.00000000000E+00  0.00000000000E+00  0.77488675307E+03  0.77488675307E+03  0.00000000000E+00 0.  1.
         21   -1    0    0  501  503 -0.00000000000E+00 -0.00000000000E+00 -0.54014832418E+02  0.54014832418E+02  0.00000000000E+00 0.  1.
          6    1    1    2  501    0  0.62013835904E+02  0.89195104431E+01  0.17536458535E+03  0.25349952920E+03  0.17200000000E+03 0. -1.
         -6    1    1    2    0  502 -0.62013835904E+02 -0.89195104431E+01  0.54550733530E+03  0.57540205628E+03  0.17200000000E+03 0. -1.
</event>
<event>
 4    1  0.6129841E-001  0.2000345E+03  0.7818608E-02  0.1149710E+00
         21   -1    0    0  501  502  0.00000000000E+00  0.00000000000E+00  0.19039069924E+03  0.19039069924E+03  0.00000000000E+00 0.  1.
         21   -1    0    0  502  503 -0.00000000000E+00 -0.00000000000E+00 -0.31072135975E+03  0.31072135975E+03  0.00000000000E+00 0.  1.
          6    1    1    2  501    0  0.13593173733E+02  0.10121770282E+03 -0.20269991653E+03  0.28478246768E+03  0.17200000000E+03 0.  1.
         -6    1    1    2    0  503 -0.13593173733E+02 -0.10121770282E+03  0.82369256021E+02  0.21632959130E+03  0.17200000000E+03 0.  1.
</event>
<event>
 4    1  0.6129841E-001  0.1866792E+03  0.7818608E-02  0.1161491E+00
         21   -1    0    0  501  502  0.00000000000E+00  0.00000000000E+00  0.25306944026E+03  0.25306944026E+03  0.00000000000E+00 0.  1.
         21   -1    0    0  502  503 -0.00000000000E+00 -0.00000000000E+00 -0.14540379191E+03  0.14540379191E+03  0.00000000000E+00 0. -1.
          6    1    1    2  501    0 -0.49553535180E+02 -0.53005418708E+02  0.79901133863E+01  0.18685012489E+03  0.17200000000E+03 0. -1.
         -6    1    1    2    0  503  0.49553535180E+02  0.53005418708E+02  0.99675534967E+02  0.21162310727E+03  0.17200000000E+03 0.  1.
</event>
<event>
 4    1  0.6129841E-001  0.2493443E+03  0.7818608E-02  0.1113720E+00
         21   -1    0    0  501  502  0.00000000000E+00  0.00000000000E+00  0.82700107174E+03  0.82700107174E+03  0.00000000000E+00 0.  1.
         21   -1    0    0  502  503 -0.00000000000E+00 -0.00000000000E+00 -0.75208564966E+02  0.75208564966E+02  0.00000000000E+00 0.  1.
          6    1    1    2  501    0 -0.14862451357E+03 -0.10246625937E+03  0.36685523563E+03  0.44357112649E+03  0.17200000000E+03 0.  1.
         -6    1    1    2    0  503  0.14862451357E+03  0.10246625937E+03  0.38493727114E+03  0.45863851022E+03  0.17200000000E+03 0.  1.
</event>
<event>
 4    1  0.6129841E-001  0.1797812E+03  0.7818608E-02  0.1168015E+00
         21   -1    0    0  501  502  0.00000000000E+00  0.00000000000E+00  0.65684310368E+02  0.65684310368E+02  0.00000000000E+00 0.  1.
         21   -1    0    0  502  503 -0.00000000000E+00 -0.00000000000E+00 -0.63673780520E+03  0.63673780520E+03  0.00000000000E+00 0.  1.
          6    1    1    2  501    0 -0.12943226540E+01  0.52303080879E+02 -0.11811975073E+03  0.21511290769E+03  0.17200000000E+03 0.  1.
         -6    1    1    2    0  503  0.12943226540E+01 -0.52303080879E+02 -0.45293374410E+03  0.48730920788E+03  0.17200000000E+03 0.  1.
</event>
<event>
 4    1  0.6129841E-001  0.1971520E+03  0.7818608E-02  0.1152164E+00
         21   -1    0    0  503  502  0.00000000000E+00  0.00000000000E+00  0.48019760436E+03  0.48019760436E+03  0.00000000000E+00 0. -1.
         21   -1    0    0  501  503 -0.00000000000E+00 -0.00000000000E+00 -0.68970026766E+03  0.68970026766E+03  0.00000000000E+00 0. -1.
          6    1    1    2  501    0  0.71759090799E+02 -0.64308076492E+02 -0.65430440839E+03  0.68336165729E+03  0.17200000000E+03 0. -1.
         -6    1    1    2    0  502 -0.71759090799E+02  0.64308076492E+02  0.44480174509E+03  0.48653621474E+03  0.17200000000E+03 0. -1.
</event>
<event>
 4    1  0.6129841E-001  0.1787813E+03  0.7818608E-02  0.1168988E+00
         21   -1    0    0  503  502  0.00000000000E+00  0.00000000000E+00  0.54440567893E+02  0.54440567893E+02  0.00000000000E+00 0.  1.
         21   -1    0    0  501  503 -0.00000000000E+00 -0.00000000000E+00 -0.13491572061E+04  0.13491572061E+04  0.00000000000E+00 0.  1.
          6    1    1    2  501    0  0.29176635354E+02  0.39082928996E+02 -0.11747964832E+04  0.11883221484E+04  0.17200000000E+03 0.  1.
         -6    1    1    2    0  502 -0.29176635354E+02 -0.39082928996E+02 -0.11992015492E+03  0.21527562552E+03  0.17200000000E+03 0.  1.
</event>
<event>
 4    1  0.6129841E-001  0.1832191E+03  0.7818608E-02  0.1164723E+00
         21   -1    0    0  503  502  0.00000000000E+00  0.00000000000E+00  0.47456603284E+03  0.47456603284E+03  0.00000000000E+00 0.  1.
         21   -1    0    0  501  503 -0.00000000000E+00 -0.00000000000E+00 -0.83992260042E+02  0.83992260042E+02  0.00000000000E+00 0.  1.
          6    1    1    2  501    0 -0.60384837229E+02 -0.18409415367E+02  0.84339285951E+02  0.20169866211E+03  0.17200000000E+03 0.  1.
         -6    1    1    2    0  502  0.60384837229E+02  0.18409415367E+02  0.30623448684E+03  0.35685963077E+03  0.17200000000E+03 0.  1.
</event>
<event>
 4    1  0.6129841E-001  0.2855643E+03  0.7818608E-02  0.1092688E+00
         21   -1    0    0  501  502  0.00000000000E+00  0.00000000000E+00  0.42673653235E+02  0.42673653235E+02  0.00000000000E+00 0. -1.
         21   -1    0    0  502  503 -0.00000000000E+00 -0.00000000000E+00 -0.19116114193E+04  0.19116114193E+04  0.00000000000E+00 0. -1.
          6    1    1    2  501    0 -0.17245637057E+03  0.14906958698E+03 -0.91620426270E+03  0.95967556627E+03  0.17200000000E+03 0. -1.
         -6    1    1    2    0  503  0.17245637057E+03 -0.14906958698E+03 -0.95273350340E+03  0.99460950630E+03  0.17200000000E+03 0. -1.
</event>
<event>
 4    1  0.6129841E-001  0.2727065E+03  0.7818608E-02  0.1099741E+00
         21   -1    0    0  501  502  0.00000000000E+00  0.00000000000E+00  0.12594448195E+03  0.12594448195E+03  0.00000000000E+00 0. -1.
         21   -1    0    0  502  503 -0.00000000000E+00 -0.00000000000E+00 -0.59119189469E+03  0.59119189469E+03  0.00000000000E+00 0.  1.
          6    1    1    2  501    0 -0.14852633338E+03 -0.15074740812E+03 -0.24498602021E+03  0.36658832887E+03  0.17200000000E+03 0. -1.
         -6    1    1    2    0  503  0.14852633338E+03  0.15074740812E+03 -0.22026139252E+03  0.35054804777E+03  0.17200000000E+03 0. -1.
</event>
<event>
 4    1  0.6129841E-001  0.1923249E+03  0.7818608E-02  0.1156381E+00
         21   -1    0    0  503  502  0.00000000000E+00  0.00000000000E+00  0.35174370715E+03  0.35174370715E+03  0.00000000000E+00 0. -1.
         21   -1    0    0  501  503 -0.00000000000E+00 -0.00000000000E+00 -0.10743483543E+03  0.10743483543E+03  0.00000000000E+00 0.  1.
          6    1    1    2  501    0  0.80165244778E+02 -0.31279182715E+02  0.88735424254E+02  0.21180847306E+03  0.17200000000E+03 0.  1.
         -6    1    1    2    0  502 -0.80165244778E+02  0.31279182715E+02  0.15557344747E+03  0.24737006953E+03  0.17200000000E+03 0.  1.
</event>
<event>
 4    1  0.6129841E-001  0.2113038E+03  0.7818608E-02  0.1140538E+00
         21   -1    0    0  501  502  0.00000000000E+00  0.00000000000E+00  0.24965714225E+02  0.24965714225E+02  0.00000000000E+00 0.  1.
         21   -1    0    0  502  503 -0.00000000000E+00 -0.00000000000E+00 -0.19401646354E+04  0.19401646354E+04  0.00000000000E+00 0.  1.
          6    1    1    2  501    0  0.11163965499E+03 -0.51008667306E+02 -0.68281497424E+03  0.71476260797E+03  0.17200000000E+03 0.  1.
         -6    1    1    2    0  503 -0.11163965499E+03  0.51008667306E+02 -0.12323839469E+04  0.12503677416E+04  0.17200000000E+03 0.  1.
</event>
<event>
 4    1  0.6129841E-001  0.2715524E+03  0.7818608E-02  0.1100394E+00
         21   -1    0    0  503  502  0.00000000000E+00  0.00000000000E+00  0.14668896133E+03  0.14668896133E+03  0.00000000000E+00 0. -1.
         21   -1    0    0  501  503 -0.00000000000E+00 -0.00000000000E+00 -0.64833040016E+03  0.64833040016E+03  0.00000000000E+00 0.  1.
          6    1    1    2  501    0 -0.55468360352E+02  0.20268199455E+03 -0.43921756042E+03  0.51638434842E+03  0.17200000000E+03 0. -1.
         -6    1    1    2    0  502  0.55468360352E+02 -0.20268199455E+03 -0.62423878415E+02  0.27863501308E+03  0.17200000000E+03 0. -1.
</event>
<event>
 4    1  0.6129841E-001  0.1820629E+03  0.7818608E-02  0.1165821E+00
         21   -1    0    0  501  502  0.00000000000E+00  0.00000000000E+00  0.22551537488E+03  0.22551537488E+03  0.00000000000E+00 0. -1.
         21   -1    0    0  502  503 -0.00000000000E+00 -0.00000000000E+00 -0.15895495112E+03  0.15895495112E+03  0.00000000000E+00 0.  1.
          6    1    1    2  501    0 -0.36518448701E+02 -0.47215436803E+02  0.86037300801E+02  0.20136859660E+03  0.17200000000E+03 0. -1.
         -6    1    1    2    0  503  0.36518448701E+02  0.47215436803E+02 -0.19476877036E+02  0.18310172939E+03  0.17200000000E+03 0.  1.
</event>
<event>
 4    1  0.6129841E-001  0.2065588E+03  0.7818608E-02  0.1144320E+00
         21   -1    0    0  501  502  0.00000000000E+00  0.00000000000E+00  0.49413424419E+03  0.49413424419E+03  0.00000000000E+00 0. -1.
         21   -1    0    0  502  503 -0.00000000000E+00 -0.00000000000E+00 -0.90214425655E+02  0.90214425655E+02  0.00000000000E+00 0. -1.
          6    1    1    2  501    0  0.56537380701E+02  0.99428703007E+02  0.14145813153E+03  0.25035364062E+03  0.17200000000E+03 0.  1.
         -6    1    1    2    0  503 -0.56537380701E+02 -0.99428703007E+02  0.26246168701E+03  0.33399502922E+03  0.17200000000E+03 0.  1.
</event>
<event>
 4    1  0.6129841E-001  0.2399507E+03  0.7818608E-02  0.1119826E+00
         21   -1    0    0  501  502  0.00000000000E+00  0.00000000000E+00  0.45463517192E+03  0.45463517192E+03  0.00000000000E+00 0.  1.
         21   -1    0    0  502  503 -0.00000000000E+00 -0.00000000000E+00 -0.13836004425E+03  0.13836004425E+03  0.00000000000E+00 0.  1.
          6    1    1    2  501    0 -0.48450323003E+02 -0.16014022575E+03  0.71854339539E+02  0.25047828611E+03  0.17200000000E+03 0.  1.
         -6    1    1    2    0  503  0.48450323003E+02  0.16014022575E+03  0.24442078813E+03  0.34251693005E+03  0.17200000000E+03 0.  1.
</event>
<event>
 4    1  0.6129841E-001  0.2046750E+03  0.7818608E-02  0.1145854E+00
         21   -1    0    0  501  502  0.00000000000E+00  0.00000000000E+00  0.13604318563E+04  0.13604318563E+04  0.00000000000E+00 0.  1.
         21   -1    0    0  502  503 -0.00000000000E+00 -0.00000000000E+00 -0.54413336363E+02  0.54413336363E+02  0.00000000000E+00 0.  1.
          6    1    1    2  501    0  0.80410489716E+02 -0.76432950216E+02  0.11190982590E+04  0.11376610901E+04  0.17200000000E+03 0.  1.
         -6    1    1    2    0  503 -0.80410489716E+02  0.76432950216E+02  0.18692026092E+03  0.27718410250E+03  0.17200000000E+03 0.  1.
</event>
<event>
 4    1  0.6129841E-001  0.1726520E+03  0.7818608E-02  0.1175110E+00
         21   -1    0    0  503  502  0.00000000000E+00  0.00000000000E+00  0.53441349176E+03  0.53441349176E+03  0.00000000000E+00 0. -1.
         21   -1    0    0  501  503 -0.00000000000E+00 -0.00000000000E+00 -0.35216739200E+03  0.35216739200E+03  0.00000000000E+00 0. -1.
          6    1    1    2  501    0 -0.56473169465E+01 -0.13886480429E+02 -0.31554947830E+03  0.35969459237E+03  0.17200000000E+03 0. -1.
         -6    1    1    2    0  502  0.56473169465E+01  0.13886480429E+02  0.49779557805E+03  0.52688629139E+03  0.17200000000E+03 0. -1.
</event>
<event>
 4    1  0.6129841E-001  0.1754817E+03  0.7818608E-02  0.1172249E+00
         21   -1    0    0  501  502  0.00000000000E+00  0.00000000000E+00  0.13173894084E+04  0.13173894084E+04  0.00000000000E+00 0. -1.
         21   -1    0    0  502  503 -0.00000000000E+00 -0.00000000000E+00 -0.10336309049E+03  0.10336309049E+03  0.00000000000E+00 0. -1.
          6    1    1    2  501    0 -0.34781867668E+02 -0.25498955410E+00  0.12319248229E+04  0.12443603227E+04  0.17200000000E+03 0. -1.
         -6    1    1    2    0  503  0.34781867668E+02  0.25498955410E+00 -0.17898505023E+02  0.17639217619E+03  0.17200000000E+03 0. -1.
</event>
<event>
 4    1  0.6129841E-001  0.1785999E+03  0.7818608E-02  0.1169165E+00
         21   -1    0    0  501  502  0.00000000000E+00  0.00000000000E+00  0.68739776084E+02  0.68739776084E+02  0.00000000000E+00 0. -1.
         21   -1    0    0  502  503 -0.00000000000E+00 -0.00000000000E+00 -0.64656219536E+03  0.64656219536E+03  0.00000000000E+00 0.  1.
          6    1    1    2  501    0  0.58617536485E+00 -0.48099704020E+02 -0.98884998697E+02  0.20414741756E+03  0.17200000000E+03 0. -1.
         -6    1    1    2    0  503 -0.58617536485E+00  0.48099704020E+02 -0.47893742058E+03  0.51115455389E+03  0.17200000000E+03 0.  1.
</event>
<event>
 4    1  0.6129841E-001  0.1770567E+03  0.7818608E-02  0.1170682E+00
         21   -1    0    0  501  502  0.00000000000E+00  0.00000000000E+00  0.53303194404E+02  0.53303194404E+02  0.00000000000E+00 0.  1.
         21   -1    0    0  502  503 -0.00000000000E+00 -0.00000000000E+00 -0.68762635568E+03  0.68762635568E+03  0.00000000000E+00 0.  1.
          6    1    1    2  501    0 -0.41791007121E+02  0.43129434751E+01 -0.17623948917E+03  0.24981882895E+03  0.17200000000E+03 0.  1.
         -6    1    1    2    0  503  0.41791007121E+02 -0.43129434751E+01 -0.45808367211E+03  0.49111072113E+03  0.17200000000E+03 0.  1.
</event>
<event>
 4    1  0.6129841E-001  0.1770376E+03  0.7818608E-02  0.1170701E+00
         21   -1    0    0  501  502  0.00000000000E+00  0.00000000000E+00  0.45021736035E+03  0.45021736035E+03  0.00000000000E+00 0.  1.
         21   -1    0    0  502  503 -0.00000000000E+00 -0.00000000000E+00 -0.12364265421E+03  0.12364265421E+03  0.00000000000E+00 0.  1.
          6    1    1    2  501    0  0.36526453037E+02 -0.20594219718E+02  0.35295624067E+03  0.39486758728E+03  0.17200000000E+03 0.  1.
         -6    1    1    2    0  503 -0.36526453037E+02  0.20594219718E+02 -0.26381534527E+02  0.17899242727E+03  0.17200000000E+03 0.  1.
</event>
<event>
 4    1  0.6129841E-001  0.4898011E+03  0.7818608E-02  0.1016476E+00
         21   -1    0    0  503  502  0.00000000000E+00  0.00000000000E+00  0.18665843973E+04  0.18665843973E+04  0.00000000000E+00 0. -1.
         21   -1    0    0  501  503 -0.00000000000E+00 -0.00000000000E+00 -0.13391600000E+03  0.13391600000E+03  0.00000000000E+00 0.  1.
          6    1    1    2  501    0  0.42297890428E+03  0.17722852812E+03  0.66566696264E+03  0.82644879442E+03  0.17200000000E+03 0.  1.
         -6    1    1    2    0  502 -0.42297890428E+03 -0.17722852812E+03  0.10670014347E+04  0.11740516029E+04  0.17200000000E+03 0.  1.
</event>
<event>
 4    1  0.6129841E-001  0.3006983E+03  0.7818608E-02  0.1084892E+00
         21   -1    0    0  503  502  0.00000000000E+00  0.00000000000E+00  0.25532179211E+03  0.25532179211E+03  0.00000000000E+00 0.  1.
         21   -1    0    0  501  503 -0.00000000000E+00 -0.00000000000E+00 -0.41523282765E+03  0.41523282765E+03  0.00000000000E+00 0.  1.
          6    1    1    2  501    0  0.18029851890E+03  0.16830893421E+03 -0.20856005968E+03  0.36594637824E+03  0.17200000000E+03 0. -1.
         -6    1    1    2    0  502 -0.18029851890E+03 -0.16830893421E+03  0.48649024139E+02  0.30460824152E+03  0.17200000000E+03 0. -1.
</event>
<event>
 4    1  0.6129841E-001  0.1738405E+03  0.7818608E-02  0.1173901E+00
         21   -1    0    0  501  502  0.00000000000E+00  0.00000000000E+00  0.68649329503E+02  0.68649329503E+02  0.00000000000E+00 0.  1.
         21   -1    0    0  502  503 -0.00000000000E+00 -0.00000000000E+00 -0.44655655265E+03  0.44655655265E+03  0.00000000000E+00 0.  1.
          6    1    1    2  501    0  0.21000033541E+02  0.13982169952E+02 -0.15825692635E+03  0.23508670150E+03  0.17200000000E+03 0. -1.
         -6    1    1    2    0  503 -0.21000033541E+02 -0.13982169952E+02 -0.21965029679E+03  0.28011918065E+03  0.17200000000E+03 0. -1.
</event>
<event>
 4    1  0.6129841E-001  0.1867292E+03  0.7818608E-02  0.1161445E+00
         21   -1    0    0  503  502  0.00000000000E+00  0.00000000000E+00  0.99375909672E+02  0.99375909672E+02  0.00000000000E+00 0. -1.
         21   -1    0    0  501  503 -0.00000000000E+00 -0.00000000000E+00 -0.52058245670E+03  0.52058245670E+03  0.00000000000E+00 0. -1.
          6    1    1    2  501    0 -0.71417278160E+02  0.13541099224E+02 -0.38759284165E+03  0.43022784648E+03  0.17200000000E+03 0. -1.
         -6    1    1    2    0  502  0.71417278160E+02 -0.13541099224E+02 -0.33613705373E+02  0.18973051989E+03  0.17200000000E+03 0. -1.
</event>
<event>
 4    1  0.6129841E-001  0.1827247E+03  0.7818608E-02  0.1165192E+00
         21   -1    0    0  503  502  0.00000000000E+00  0.00000000000E+00  0.24326304275E+03  0.24326304275E+03  0.00000000000E+00 0. -1.
         21   -1    0    0  501  503 -0.00000000000E+00 -0.00000000000E+00 -0.13975404264E+03  0.13975404264E+03  0.00000000000E+00 0. -1.
          6    1    1    2  501    0  0.36821782982E+02  0.49482147011E+02  0.26129858500E+02  0.18458357478E+03  0.17200000000E+03 0. -1.
         -6    1    1    2    0  502 -0.36821782982E+02 -0.49482147011E+02  0.77379141607E+02  0.19843351060E+03  0.17200000000E+03 0. -1.
</event>
<event>
 4    1  0.6129841E-001  0.2368200E+03  0.7818608E-02  0.1121930E+00
         21   -1    0    0  503  502  0.00000000000E+00  0.00000000000E+00  0.18442590669E+03  0.18442590669E+03  0.00000000000E+00 0. -1.
         21   -1    0    0  501  503 -0.00000000000E+00 -0.00000000000E+00 -0.43574958927E+03  0.43574958927E+03  0.00000000000E+00 0.  1.
          6    1    1    2  501    0 -0.15248400268E+02 -0.16207154408E+03 -0.29610431460E+03  0.37915889049E+03  0.17200000000E+03 0.  1.
         -6    1    1    2    0  502  0.15248400268E+02  0.16207154408E+03  0.44780632022E+02  0.24101660548E+03  0.17200000000E+03 0. -1.
</event>
<event>
 4    1  0.6129841E-001  0.1781591E+03  0.7818608E-02  0.1169597E+00
         21   -1    0    0  501  502  0.00000000000E+00  0.00000000000E+00  0.81268108795E+03  0.81268108795E+03  0.00000000000E+00 0. -1.
         21   -1    0    0  502  503 -0.00000000000E+00 -0.00000000000E+00 -0.45263581683E+02  0.45263581683E+02  0.00000000000E+00 0. -1.
          6    1    1    2  501    0 -0.27289765339E+02  0.37575692076E+02  0.54255998686E+03  0.57106217110E+03  0.17200000000E+03 0.  1.
         -6    1    1    2    0  503  0.27289765339E+02 -0.37575692076E+02  0.22485751941E+03  0.28688249853E+03  0.17200000000E+03 0.  1.
</event>
<event>
 4    1  0.6129841E-001  0.1786539E+03  0.7818608E-02  0.1169112E+00
         21   -1    0    0  503  502  0.00000000000E+00  0.00000000000E+00  0.68298708132E+02  0.68298708132E+02  0.00000000000E+00 0. -1.
         21   -1    0    0  501  503 -0.00000000000E+00 -0.00000000000E+00 -0.79307792544E+03  0.79307792544E+03  0.00000000000E+00 0. -1.
          6    1    1    2  501    0  0.21422042246E+02  0.43293208828E+02 -0.86361007418E+02  0.19843243038E+03  0.17200000000E+03 0. -1.
         -6    1    1    2    0  502 -0.21422042246E+02 -0.43293208828E+02 -0.63841820990E+03  0.66294420320E+03  0.17200000000E+03 0. -1.
</event>
<event>
 4    1  0.6129841E-001  0.1922632E+03  0.7818608E-02  0.1156436E+00
         21   -1    0    0  501  502  0.00000000000E+00  0.00000000000E+00  0.14778736783E+03  0.14778736783E+03  0.00000000000E+00 0.  1.
         21   -1    0    0  502  503 -0.00000000000E+00 -0.00000000000E+00 -0.26004456449E+03  0.26004456449E+03  0.00000000000E+00 0.  1.
          6    1    1    2  501    0  0.50606090387E+02 -0.69427315497E+02 -0.16299422502E+02  0.19295284319E+03  0.17200000000E+03 0.  1.
         -6    1    1    2    0  503 -0.50606090387E+02  0.69427315497E+02 -0.95957774165E+02  0.21487908913E+03  0.17200000000E+03 0.  1.
</event>
<event>
 4    1  0.6129841E-001  0.2254583E+03  0.7818608E-02  0.1129878E+00
         21   -1    0    0  503  502  0.00000000000E+00  0.00000000000E+00  0.19190546595E+04  0.19190546595E+04  0.00000000000E+00 0.  1.
         21   -1    0    0  501  503 -0.00000000000E+00 -0.00000000000E+00 -0.61288826584E+02  0.61288826584E+02  0.00000000000E+00 0.  1.
          6    1    1    2  501    0  0.67332263652E+02 -0.12928183760E+03  0.18274990265E+03  0.29022224963E+03  0.17200000000E+03 0.  1.
         -6    1    1    2    0  502 -0.67332263652E+02  0.12928183760E+03  0.16750159303E+04  0.16901212365E+04  0.17200000000E+03 0.  1.
</event>
<event>
 4    1  0.6129841E-001  0.1856985E+03  0.7818608E-02  0.1162399E+00
         21   -1    0    0  501  502  0.00000000000E+00  0.00000000000E+00  0.69416117464E+03  0.69416117464E+03  0.00000000000E+00 0.  1.
         21   -1    0    0  502  503 -0.00000000000E+00 -0.00000000000E+00 -0.50179138406E+02  0.50179138406E+02  0.00000000000E+00 0.  1.
          6    1    1    2  501    0  0.56322775720E+02 -0.41565144719E+02  0.28476496219E+03  0.33996323332E+03  0.17200000000E+03 0. -1.
         -6    1    1    2    0  503 -0.56322775720E+02  0.41565144719E+02  0.35921707405E+03  0.40437707973E+03  0.17200000000E+03 0. -1.
</event>
<event>
 4    1  0.6129841E-001  0.2708758E+03  0.7818608E-02  0.1100779E+00
         21   -1    0    0  501  502  0.00000000000E+00  0.00000000000E+00  0.23492215027E+03  0.23492215027E+03  0.00000000000E+00 0. -1.
         21   -1    0    0  502  503 -0.00000000000E+00 -0.00000000000E+00 -0.47440572603E+03  0.47440572603E+03  0.00000000000E+00 0.  1.
          6    1    1    2  501    0  0.20603787920E+03 -0.36580224747E+02  0.87557729517E+02  0.28467538795E+03  0.17200000000E+03 0. -1.
         -6    1    1    2    0  503 -0.20603787920E+03  0.36580224747E+02 -0.32704130527E+03  0.42465248835E+03  0.17200000000E+03 0.  1.
</event>
<event>
 4    1  0.6129841E-001  0.2160591E+03  0.7818608E-02  0.1136856E+00
         21   -1    0    0  501  502  0.00000000000E+00  0.00000000000E+00  0.21771225496E+02  0.21771225496E+02  0.00000000000E+00 0.  1.
         21   -1    0    0  502  503 -0.00000000000E+00 -0.00000000000E+00 -0.21954901411E+04  0.21954901411E+04  0.00000000000E+00 0.  1.
          6    1    1    2  501    0 -0.47357765835E+02 -0.12188009033E+03 -0.91738446540E+03  0.94248383104E+03  0.17200000000E+03 0.  1.
         -6    1    1    2    0  503  0.47357765835E+02  0.12188009033E+03 -0.12563344502E+04  0.12747775355E+04  0.17200000000E+03 0.  1.
</event>
<event>
 4    1  0.6129841E-001  0.2054351E+03  0.7818608E-02  0.1145233E+00
         21   -1    0    0  501  502  0.00000000000E+00  0.00000000000E+00  0.20098571861E+03  0.20098571861E+03  0.00000000000E+00 0.  1.
         21   -1    0    0  502  503 -0.00000000000E+00 -0.00000000000E+00 -0.22905279285E+03  0.22905279285E+03  0.00000000000E+00 0.  1.
          6    1    1    2  501    0  0.10867362400E+03  0.28454110214E+02  0.48007928429E+02  0.21097003136E+03  0.17200000000E+03 0.  1.
         -6    1    1    2    0  503 -0.10867362400E+03 -0.28454110214E+02 -0.76075002668E+02  0.21906848010E+03  0.17200000000E+03 0.  1.
</event>
<event>
 4    1  0.6129841E-001  0.1946197E+03  0.7818608E-02  0.1154359E+00
         21   -1    0    0  503  502  0.00000000000E+00  0.00000000000E+00  0.67241780104E+03  0.67241780104E+03  0.00000000000E+00 0.  1.
         21   -1    0    0  501  503 -0.00000000000E+00 -0.00000000000E+00 -0.13654811330E+03  0.13654811330E+03  0.00000000000E+00 0. -1.
          6    1    1    2  501    0 -0.88719026873E+02 -0.20536760846E+02 -0.42089281585E+02  0.19911888886E+03  0.17200000000E+03 0. -1.
         -6    1    1    2    0  502  0.88719026873E+02  0.20536760846E+02  0.57795896932E+03  0.60984702549E+03  0.17200000000E+03 0.  1.
</event>
<event>
 4    1  0.6129841E-001  0.2222951E+03  0.7818608E-02  0.1132183E+00
         21   -1    0    0  501  502  0.00000000000E+00  0.00000000000E+00  0.50328402746E+03  0.50328402746E+03  0.00000000000E+00 0. -1.
         21   -1    0    0  502  503 -0.00000000000E+00 -0.00000000000E+00 -0.99663737143E+02  0.99663737143E+02  0.00000000000E+00 0.  1.
          6    1    1    2  501    0 -0.95453669164E+02 -0.10353595676E+03  0.23852834253E+03  0.32605347336E+03  0.17200000000E+03 0. -1.
         -6    1    1    2    0  503  0.95453669164E+02  0.10353595676E+03  0.16509194779E+03  0.27689429125E+03  0.17200000000E+03 0. -1.
</event>
<event>
 4    1  0.6129841E-001  0.1899625E+03  0.7818608E-02  0.1158495E+00
         21   -1    0    0  501  502  0.00000000000E+00  0.00000000000E+00  0.73111577507E+03  0.73111577507E+03  0.00000000000E+00 0. -1.
         21   -1    0    0  502  503 -0.00000000000E+00 -0.00000000000E+00 -0.12571788096E+03  0.12571788096E+03  0.00000000000E+00 0. -1.
          6    1    1    2  501    0 -0.80137926144E+02 -0.89259799822E+01  0.63658874785E+03  0.66432747513E+03  0.17200000000E+03 0. -1.
         -6    1    1    2    0  503  0.80137926144E+02  0.89259799822E+01 -0.31190853738E+02  0.19250618089E+03  0.17200000000E+03 0. -1.
</event>
<event>
 4    1  0.6129841E-001  0.1797210E+03  0.7818608E-02  0.1168073E+00
         21   -1    0    0  501  502  0.00000000000E+00  0.00000000000E+00  0.21978567325E+03  0.21978567325E+03  0.00000000000E+00 0.  1.
         21   -1    0    0  502  503 -0.00000000000E+00 -0.00000000000E+00 -0.15342367199E+03  0.15342367199E+03  0.00000000000E+00 0.  1.
          6    1    1    2  501    0 -0.27929478967E+02  0.43995224329E+02  0.71483421226E+02  0.19341539512E+03  0.17200000000E+03 0.  1.
         -6    1    1    2    0  503  0.27929478967E+02 -0.43995224329E+02 -0.51214199663E+01  0.17979395013E+03  0.17200000000E+03 0.  1.
</event>
<event>
 4    1  0.6129841E-001  0.1978251E+03  0.7818608E-02  0.1151587E+00
         21   -1    0    0  503  502  0.00000000000E+00  0.00000000000E+00  0.18169144985E+03  0.18169144985E+03  0.00000000000E+00 0.  1.
         21   -1    0    0  501  503 -0.00000000000E+00 -0.00000000000E+00 -0.27872511004E+03  0.27872511004E+03  0.00000000000E+00 0.  1.
          6    1    1    2  501    0 -0.97700210717E+02 -0.23330579233E+01 -0.15825314795E+03  0.25333541634E+03  0.17200000000E+03 0.  1.
         -6    1    1    2    0  502  0.97700210717E+02  0.23330579233E+01  0.61219487759E+02  0.20708114355E+03  0.17200000000E+03 0.  1.
</event>
<event>
 4    1  0.6129841E-001  0.2482493E+03  0.7818608E-02  0.1114416E+00
         21   -1    0    0  501  502  0.00000000000E+00  0.00000000000E+00  0.69625800503E+03  0.69625800503E+03  0.00000000000E+00 0. -1.
         21   -1    0    0  502  503 -0.00000000000E+00 -0.00000000000E+00 -0.92680969676E+02  0.92680969676E+02  0.00000000000E+00 0. -1.
          6    1    1    2  501    0  0.74535969664E+02  0.16275171892E+03  0.38544349408E+03  0.45846964994E+03  0.17200000000E+03 0.  1.
         -6    1    1    2    0  503 -0.74535969664E+02 -0.16275171892E+03  0.21813354127E+03  0.33046932477E+03  0.17200000000E+03 0.  1.
</event>
<event>
 4    1  0.6129841E-001  0.1748198E+03  0.7818608E-02  0.1172913E+00
         21   -1    0    0  503  502  0.00000000000E+00  0.00000000000E+00  0.45823547468E+03  0.45823547468E+03  0.00000000000E+00 0.  1.
         21   -1    0    0  501  503 -0.00000000000E+00 -0.00000000000E+00 -0.68759107714E+02  0.68759107714E+02  0.00000000000E+00 0. -1.
          6    1    1    2  501    0  0.31040270586E+02  0.38042812212E+01  0.14908329088E+03  0.22975595438E+03  0.17200000000E+03 0.  1.
         -6    1    1    2    0  502 -0.31040270586E+02 -0.38042812212E+01  0.24039307608E+03  0.29723862801E+03  0.17200000000E+03 0. -1.
</event>
<event>
 4    1  0.6129841E-001  0.1749555E+03  0.7818608E-02  0.1172776E+00
         21   -1    0    0  503  502  0.00000000000E+00  0.00000000000E+00  0.69020843792E+03  0.69020843792E+03  0.00000000000E+00 0.  1.
         21   -1    0    0  501  503 -0.00000000000E+00 -0.00000000000E+00 -0.46952331242E+02  0.46952331242E+02  0.00000000000E+00 0.  1.
          6    1    1    2  501    0  0.31770931211E+02 -0.40040273377E+01  0.23482311352E+03  0.29283326134E+03  0.17200000000E+03 0. -1.
         -6    1    1    2    0  502 -0.31770931211E+02  0.40040273377E+01  0.40843299316E+03  0.44432750782E+03  0.17200000000E+03 0. -1.
</event>
<event>
 4    1  0.6129841E-001  0.1807431E+03  0.7818608E-02  0.1167086E+00
         21   -1    0    0  501  502  0.00000000000E+00  0.00000000000E+00  0.41550572521E+03  0.41550572521E+03  0.00000000000E+00 0. -1.
         21   -1    0    0  502  503 -0.00000000000E+00 -0.00000000000E+00 -0.90917300103E+02  0.90917300103E+02  0.00000000000E+00 0. -1.
          6    1    1    2  501    0  0.55529800043E+02 -0.72164590520E+00  0.25540966199E+03  0.31289323243E+03  0.17200000000E+03 0. -1.
         -6    1    1    2    0  503 -0.55529800043E+02  0.72164590520E+00  0.69178763119E+02  0.19352979288E+03  0.17200000000E+03 0. -1.
</event>
<event>
 4    1  0.6129841E-001  0.1751738E+03  0.7818608E-02  0.1172557E+00
         21   -1    0    0  503  502  0.00000000000E+00  0.00000000000E+00  0.30000732013E+03  0.30000732013E+03  0.00000000000E+00 0.  1.
         21   -1    0    0  501  503 -0.00000000000E+00 -0.00000000000E+00 -0.12692851213E+03  0.12692851213E+03  0.00000000000E+00 0.  1.
          6    1    1    2  501    0  0.11428084409E+02  0.31165201106E+02  0.18060166530E+03  0.25160054130E+03  0.17200000000E+03 0.  1.
         -6    1    1    2    0  502 -0.11428084409E+02 -0.31165201106E+02 -0.75228572989E+01  0.17533529096E+03  0.17200000000E+03 0.  1.
</event>
<event>
 4    1  0.6129841E-001  0.1866806E+03  0.7818608E-02  0.1161490E+00
         21   -1    0    0  503  502  0.00000000000E+00  0.00000000000E+00  0.10774342223E+03  0.10774342223E+03  0.00000000000E+00 0. -1.
         21   -1    0    0  501  503 -0.00000000000E+00 -0.00000000000E+00 -0.32968526526E+03  0.32968526526E+03  0.00000000000E+00 0.  1.
          6    1    1    2  501    0  0.96179555248E+01 -0.71924476930E+02 -0.80893076840E+02  0.20345349673E+03  0.17200000000E+03 0. -1.
         -6    1    1    2    0  502 -0.96179555248E+01  0.71924476930E+02 -0.14104876619E+03  0.23397519077E+03  0.17200000000E+03 0.  1.
</event>
<event>
 4    1  0.6129841E-001  0.2296259E+03  0.7818608E-02  0.1126903E+00
         21   -1    0    0  503  502  0.00000000000E+00  0.00000000000E+00  0.49854815131E+03  0.49854815131E+03  0.00000000000E+00 0.  1.
         21   -1    0    0  501  503 -0.00000000000E+00 -0.00000000000E+00 -0.11661808068E+03  0.11661808068E+03  0.00000000000E+00 0.  1.
          6    1    1    2  501    0 -0.73691926058E+02 -0.13309223973E+03  0.28480594707E+03  0.36584487386E+03  0.17200000000E+03 0.  1.
         -6    1    1    2    0  502  0.73691926058E+02  0.13309223973E+03  0.97124123557E+02  0.24932135813E+03  0.17200000000E+03 0.  1.
</event>
<event>
 4    1  0.6129841E-001  0.1800945E+03  0.7818608E-02  0.1167712E+00
         21   -1    0    0  503  502  0.00000000000E+00  0.00000000000E+00  0.11356522128E+03  0.11356522128E+03  0.00000000000E+00 0.  1.
         21   -1    0    0  501  503 -0.00000000000E+00 -0.00000000000E+00 -0.30179792509E+03  0.30179792509E+03  0.00000000000E+00 0.  1.
          6    1    1    2  501    0 -0.25178002461E+02 -0.47075401535E+02 -0.14223277913E+03  0.22948679417E+03  0.17200000000E+03 0.  1.
         -6    1    1    2    0  502  0.25178002461E+02  0.47075401535E+02 -0.45999924681E+02  0.18587635220E+03  0.17200000000E+03 0.  1.
</event>
<event>
 4    1  0.6129841E-001  0.2097377E+03  0.7818608E-02  0.1141774E+00
         21   -1    0    0  503  502  0.00000000000E+00  0.00000000000E+00  0.77891163306E+03  0.77891163306E+03  0.00000000000E+00 0.  1.
         21   -1    0    0  501  503 -0.00000000000E+00 -0.00000000000E+00 -0.84676809510E+02  0.84676809510E+02  0.00000000000E+00 0.  1.
          6    1    1    2  501    0 -0.77469427673E+02 -0.91675439381E+02  0.97930900496E+02  0.23147431754E+03  0.17200000000E+03 0.  1.
         -6    1    1    2    0  502  0.77469427673E+02  0.91675439381E+02  0.59630392306E+03  0.63211412503E+03  0.17200000000E+03 0.  1.
</event>
<event>
 4    1  0.6129841E-001  0.1860887E+03  0.7818608E-02  0.1162037E+00
         21   -1    0    0  503  502  0.00000000000E+00  0.00000000000E+00  0.76128162062E+02  0.76128162062E+02  0.00000000000E+00 0.  1.
         21   -1    0    0  501  503 -0.00000000000E+00 -0.00000000000E+00 -0.46485393677E+03  0.46485393677E+03  0.00000000000E+00 0.  1.
          6    1    1    2  501    0  0.35024639643E+02 -0.61792362775E+02 -0.15473756502E+03  0.24201804790E+03  0.17200000000E+03 0.  1.
         -6    1    1    2    0  502 -0.35024639643E+02  0.61792362775E+02 -0.23398820968E+03  0.29896405093E+03  0.17200000000E+03 0.  1.
</event>
<event>
 4    1  0.6129841E-001  0.2012798E+03  0.7818608E-02  0.1148664E+00
         21   -1    0    0  501  502  0.00000000000E+00  0.00000000000E+00  0.30827810140E+03  0.30827810140E+03  0.00000000000E+00 0.  1.
         21   -1    0    0  502  503 -0.00000000000E+00 -0.00000000000E+00 -0.13301586961E+03  0.13301586961E+03  0.00000000000E+00 0.  1.
          6    1    1    2  501    0 -0.79514041066E+02  0.67875408486E+02  0.63454178341E+02  0.21104498704E+03  0.17200000000E+03 0. -1.
         -6    1    1    2    0  503  0.79514041066E+02 -0.67875408486E+02  0.11180805345E+03  0.23024898397E+03  0.17200000000E+03 0. -1.
</event>
<event>
 4    1  0.6129841E-001  0.1935291E+03  0.7818608E-02  0.1155316E+00
         21   -1    0    0  503  502  0.00000000000E+00  0.00000000000E+00  0.21298886714E+04  0.21298886714E+04  0.00000000000E+00 0.  1.
         21   -1    0    0  501  503 -0.00000000000E+00 -0.00000000000E+00 -0.17824252559E+02  0.17824252559E+02  0.00000000000E+00 0. -1.
          6    1    1    2  501    0  0.68763077124E+02  0.56045968748E+02  0.93154742725E+03  0.95143792262E+03  0.17200000000E+03 0.  1.
         -6    1    1    2    0  502 -0.68763077124E+02 -0.56045968748E+02  0.11805169916E+04  0.11962750014E+04  0.17200000000E+03 0.  1.
</event>
<event>
 4    1  0.6129841E-001  0.1980591E+03  0.7818608E-02  0.1151387E+00
         21   -1    0    0  503  502  0.00000000000E+00  0.00000000000E+00  0.31852706555E+03  0.31852706555E+03  0.00000000000E+00 0. -1.
         21   -1    0    0  501  503 -0.00000000000E+00 -0.00000000000E+00 -0.14188238605E+03  0.14188238605E+03  0.00000000000E+00 0. -1.
          6    1    1    2  501    0  0.96816783779E+02  0.16429299258E+02  0.46817080828E+01  0.19811443634E+03  0.17200000000E+03 0. -1.
         -6    1    1    2    0  502 -0.96816783779E+02 -0.16429299258E+02  0.17196297141E+03  0.26229501526E+03  0.17200000000E+03 0. -1.
</event>
<event>
 4    1  0.6129841E-001  0.1764874E+03  0.7818608E-02  0.1171247E+00
         21   -1    0    0  501  502  0.00000000000E+00  0.00000000000E+00  0.22829466697E+02  0.22829466697E+02  0.00000000000E+00 0.  1.
         21   -1    0    0  502  503 -0.00000000000E+00 -0.00000000000E+00 -0.14860452717E+04  0.14860452717E+04  0.00000000000E+00 0.  1.
          6    1    1    2  501    0  0.37637005258E+02 -0.12134838498E+02 -0.94748747023E+03  0.96378436630E+03  0.17200000000E+03 0. -1.
         -6    1    1    2    0  503 -0.37637005258E+02  0.12134838498E+02 -0.51572833474E+03  0.54509037207E+03  0.17200000000E+03 0. -1.
</event>
<event>
 4    1  0.6129841E-001  0.1750426E+03  0.7818608E-02  0.1172689E+00
         21   -1    0    0  501  502  0.00000000000E+00  0.00000000000E+00  0.17640550215E+04  0.17640550215E+04  0.00000000000E+00 0.  1.
         21   -1    0    0  502  503 -0.00000000000E+00 -0.00000000000E+00 -0.17511444966E+02  0.17511444966E+02  0.00000000000E+00 0.  1.
          6    1    1    2  501    0  0.32006061692E+02 -0.56139902411E+01  0.79293658446E+03  0.81202729748E+03  0.17200000000E+03 0. -1.
         -6    1    1    2    0  503 -0.32006061692E+02  0.56139902411E+01  0.95360699206E+03  0.96953916897E+03  0.17200000000E+03 0. -1.
</event>
<event>
 4    1  0.6129841E-001  0.1937370E+03  0.7818608E-02  0.1155133E+00
         21   -1    0    0  501  502  0.00000000000E+00  0.00000000000E+00  0.20549525959E+03  0.20549525959E+03  0.00000000000E+00 0. -1.
         21   -1    0    0  502  503 -0.00000000000E+00 -0.00000000000E+00 -0.19408622585E+03  0.19408622585E+03  0.00000000000E+00 0. -1.
          6    1    1    2  501    0 -0.37095390408E+02  0.81079942131E+02  0.54198759413E+02  0.20117537257E+03  0.17200000000E+03 0. -1.
         -6    1    1    2    0  503  0.37095390408E+02 -0.81079942131E+02 -0.42789725674E+02  0.19840611288E+03  0.17200000000E+03 0. -1.
</event>
<event>
 4    1  0.6129841E-001  0.2133244E+03  0.7818608E-02  0.1138960E+00
         21   -1    0    0  501  502  0.00000000000E+00  0.00000000000E+00  0.36169565108E+02  0.36169565108E+02  0.00000000000E+00 0. -1.
         21   -1    0    0  502  503 -0.00000000000E+00 -0.00000000000E+00 -0.14301557133E+04  0.14301557133E+04  0.00000000000E+00 0. -1.
          6    1    1    2  501    0 -0.97236486079E+02 -0.80426156294E+02 -0.44274336458E+03  0.49145598757E+03  0.17200000000E+03 0. -1.
         -6    1    1    2    0  503  0.97236486079E+02  0.80426156294E+02 -0.95124278364E+03  0.97486929086E+03  0.17200000000E+03 0. -1.
</event>
<event>
 4    1  0.6129841E-001  0.1813862E+03  0.7818608E-02  0.1166468E+00
         21   -1    0    0  503  502  0.00000000000E+00  0.00000000000E+00  0.33608435625E+03  0.33608435625E+03  0.00000000000E+00 0. -1.
         21   -1    0    0  501  503 -0.00000000000E+00 -0.00000000000E+00 -0.25404980586E+03  0.25404980586E+03  0.00000000000E+00 0. -1.
          6    1    1    2  501    0 -0.56158887786E+02  0.12772153199E+02 -0.19031654306E+03  0.26290936677E+03  0.17200000000E+03 0. -1.
         -6    1    1    2    0  502  0.56158887786E+02 -0.12772153199E+02  0.27235109345E+03  0.32722479533E+03  0.17200000000E+03 0. -1.
</event>
<event>
 4    1  0.6129841E-001  0.1941979E+03  0.7818608E-02  0.1154729E+00
         21   -1    0    0  501  502  0.00000000000E+00  0.00000000000E+00  0.21673631855E+03  0.21673631855E+03  0.00000000000E+00 0.  1.
         21   -1    0    0  502  503 -0.00000000000E+00 -0.00000000000E+00 -0.17761374634E+03  0.17761374634E+03  0.00000000000E+00 0.  1.
          6    1    1    2  501    0 -0.23592851772E+02 -0.87018374790E+02  0.47673696957E+02  0.19996400073E+03  0.17200000000E+03 0.  1.
         -6    1    1    2    0  503  0.23592851772E+02  0.87018374790E+02 -0.85511247464E+01  0.19438606416E+03  0.17200000000E+03 0.  1.
</event>
<event>
 4    1  0.6129841E-001  0.2509062E+03  0.7818608E-02  0.1112733E+00
         21   -1    0    0  503  502  0.00000000000E+00  0.00000000000E+00  0.17905540109E+03  0.17905540109E+03  0.00000000000E+00 0. -1.
         21   -1    0    0  501  503 -0.00000000000E+00 -0.00000000000E+00 -0.92304332649E+03  0.92304332649E+03  0.00000000000E+00 0.  1.
          6    1    1    2  501    0 -0.18030106777E+03  0.29350567271E+02 -0.80557489916E+03  0.84374454013E+03  0.17200000000E+03 0.  1.
         -6    1    1    2    0  502  0.18030106777E+03 -0.29350567271E+02  0.61586973761E+02  0.25835418745E+03  0.17200000000E+03 0. -1.
</event>
<event>
 4    1  0.6129841E-001  0.2060207E+03  0.7818608E-02  0.1144757E+00
         21   -1    0    0  503  502  0.00000000000E+00  0.00000000000E+00  0.34385988077E+03  0.34385988077E+03  0.00000000000E+00 0. -1.
         21   -1    0    0  501  503 -0.00000000000E+00 -0.00000000000E+00 -0.12750456404E+03  0.12750456404E+03  0.00000000000E+00 0. -1.
          6    1    1    2  501    0 -0.10042409507E+03  0.52683166893E+02  0.66074814201E+02  0.21635710299E+03  0.17200000000E+03 0. -1.
         -6    1    1    2    0  502  0.10042409507E+03 -0.52683166893E+02  0.15028050253E+03  0.25500734182E+03  0.17200000000E+03 0. -1.
</event>
<event>
 4    1  0.6129841E-001  0.2085263E+03  0.7818608E-02  0.1142738E+00
         21   -1    0    0  503  502  0.00000000000E+00  0.00000000000E+00  0.10914658332E+04  0.10914658332E+04  0.00000000000E+00 0.  1.
         21   -1    0    0  501  503 -0.00000000000E+00 -0.00000000000E+00 -0.54240425063E+02  0.54240425063E+02  0.00000000000E+00 0.  1.
          6    1    1    2  501    0 -0.17977542918E+02  0.11651627826E+03  0.22343744486E+03  0.30562644996E+03  0.17200000000E+03 0.  1.
         -6    1    1    2    0  502  0.17977542918E+02 -0.11651627826E+03  0.81378796326E+03  0.84007980829E+03  0.17200000000E+03 0.  1.
</event>
<event>
 4    1  0.6129841E-001  0.1780014E+03  0.7818608E-02  0.1169751E+00
         21   -1    0    0  501  502  0.00000000000E+00  0.00000000000E+00  0.33477932183E+02  0.33477932183E+02  0.00000000000E+00 0. -1.
         21   -1    0    0  502  503 -0.00000000000E+00 -0.00000000000E+00 -0.95838522787E+03  0.95838522787E+03  0.00000000000E+00 0. -1.
          6    1    1    2  501    0 -0.33288992708E+02 -0.31501266748E+02 -0.40706149083E+03  0.44427867848E+03  0.17200000000E+03 0.  1.
         -6    1    1    2    0  503  0.33288992708E+02  0.31501266748E+02 -0.51784580486E+03  0.54758448156E+03  0.17200000000E+03 0.  1.
</event>
<event>
 4    1  0.6129841E-001  0.1879797E+03  0.7818608E-02  0.1160296E+00
         21   -1    0    0  503  502  0.00000000000E+00  0.00000000000E+00  0.61229263297E+02  0.61229263297E+02  0.00000000000E+00 0.  1.
         21   -1    0    0  501  503 -0.00000000000E+00 -0.00000000000E+00 -0.58719477868E+03  0.58719477868E+03  0.00000000000E+00 0.  1.
          6    1    1    2  501    0  0.51373332458E+02  0.55795509280E+02 -0.30545960845E+03  0.35866687962E+03  0.17200000000E+03 0.  1.
         -6    1    1    2    0  502 -0.51373332458E+02 -0.55795509280E+02 -0.22050590693E+03  0.28975716235E+03  0.17200000000E+03 0.  1.
</event>
<event>
 4    1  0.6129841E-001  0.3216679E+03  0.7818608E-02  0.1074884E+00
         21   -1    0    0  503  502  0.00000000000E+00  0.00000000000E+00  0.22345177140E+03  0.22345177140E+03  0.00000000000E+00 0.  1.
         21   -1    0    0  501  503 -0.00000000000E+00 -0.00000000000E+00 -0.46315172086E+03  0.46315172086E+03  0.00000000000E+00 0. -1.
          6    1    1    2  501    0 -0.16539239743E+03 -0.21571179338E+03 -0.11486177941E+03  0.34156031869E+03  0.17200000000E+03 0.  1.
         -6    1    1    2    0  502  0.16539239743E+03  0.21571179338E+03 -0.12483817005E+03  0.34504317358E+03  0.17200000000E+03 0. -1.
</event>
<event>
 4    1  0.6129841E-001  0.2165745E+03  0.7818608E-02  0.1136463E+00
         21   -1    0    0  501  502  0.00000000000E+00  0.00000000000E+00  0.24966395113E+03  0.24966395113E+03  0.00000000000E+00 0. -1.
         21   -1    0    0  502  503 -0.00000000000E+00 -0.00000000000E+00 -0.22398210019E+03  0.22398210019E+03  0.00000000000E+00 0. -1.
          6    1    1    2  501    0  0.10079198883E+03  0.84625551954E+02  0.10793209939E+03  0.24197902210E+03  0.17200000000E+03 0. -1.
         -6    1    1    2    0  503 -0.10079198883E+03 -0.84625551954E+02 -0.82250248450E+02  0.23166702922E+03  0.17200000000E+03 0. -1.
</event>
<event>
 4    1  0.6129841E-001  0.2040004E+03  0.7818608E-02  0.1146407E+00
         21   -1    0    0  501  502  0.00000000000E+00  0.00000000000E+00  0.59130973794E+03  0.59130973794E+03  0.00000000000E+00 0.  1.
         21   -1    0    0  502  503 -0.00000000000E+00 -0.00000000000E+00 -0.11612335073E+03  0.11612335073E+03  0.00000000000E+00 0.  1.
          6    1    1    2  501    0 -0.18629458943E+02 -0.10809769934E+03  0.45959743254E+03  0.50283791558E+03  0.17200000000E+03 0. -1.
         -6    1    1    2    0  503  0.18629458943E+02  0.10809769934E+03  0.15588954671E+02  0.20459517309E+03  0.17200000000E+03 0. -1.
</event>
<event>
 4    1  0.6129841E-001  0.1838637E+03  0.7818608E-02  0.1164115E+00
         21   -1    0    0  501  502  0.00000000000E+00  0.00000000000E+00  0.41783115266E+03  0.41783115266E+03  0.00000000000E+00 0. -1.
         21   -1    0    0  502  503 -0.00000000000E+00 -0.00000000000E+00 -0.96205221731E+02  0.96205221731E+02  0.00000000000E+00 0. -1.
          6    1    1    2  501    0  0.62845938258E+02 -0.16500057772E+02  0.26330059806E+03  0.32114337732E+03  0.17200000000E+03 0. -1.
         -6    1    1    2    0  503 -0.62845938258E+02  0.16500057772E+02  0.58325332869E+02  0.19289299706E+03  0.17200000000E+03 0. -1.
</event>
<event>
 4    1  0.6129841E-001  0.2447794E+03  0.7818608E-02  0.1116649E+00
         21   -1    0    0  501  502  0.00000000000E+00  0.00000000000E+00  0.59896720871E+03  0.59896720871E+03  0.00000000000E+00 0. -1.
         21   -1    0    0  502  503 -0.00000000000E+00 -0.00000000000E+00 -0.18748319830E+03  0.18748319830E+03  0.00000000000E+00 0. -1.
          6    1    1    2  501    0  0.13803018174E+03 -0.10621019012E+03  0.47430038487E+03  0.53373944078E+03  0.17200000000E+03 0. -1.
         -6    1    1    2    0  503 -0.13803018174E+03  0.10621019012E+03 -0.62816374464E+02  0.25271096624E+03  0.17200000000E+03 0. -1.
</event>
<event>
 4    1  0.6129841E-001  0.1753722E+03  0.7818608E-02  0.1172358E+00
         21   -1    0    0  503  502  0.00000000000E+00  0.00000000000E+00  0.10466433810E+03  0.10466433810E+03  0.00000000000E+00 0. -1.
         21   -1    0    0  501  503 -0.00000000000E+00 -0.00000000000E+00 -0.53329232696E+03  0.53329232696E+03  0.00000000000E+00 0. -1.
          6    1    1    2  501    0 -0.20565235760E+02 -0.27358598813E+02 -0.42805146140E+03  0.46258347944E+03  0.17200000000E+03 0. -1.
         -6    1    1    2    0  502  0.20565235760E+02  0.27358598813E+02 -0.57652746235E+00  0.17537318562E+03  0.17200000000E+03 0. -1.
</event>
<event>
 4    1  0.6129841E-001  0.1829230E+03  0.7818608E-02  0.1165004E+00
         21   -1    0    0  503  502  0.00000000000E+00  0.00000000000E+00  0.22433523447E+03  0.22433523447E+03  0.00000000000E+00 0. -1.
         21   -1    0    0  501  503 -0.00000000000E+00 -0.00000000000E+00 -0.14923522404E+03  0.14923522404E+03  0.00000000000E+00 0. -1.
          6    1    1    2  501    0 -0.46895517807E+02  0.40958902912E+02  0.41868736845E+02  0.18765343707E+03  0.17200000000E+03 0.  1.
         -6    1    1    2    0  502  0.46895517807E+02 -0.40958902912E+02  0.33231273590E+02  0.18591702144E+03  0.17200000000E+03 0.  1.
</event>
<event>
 4    1  0.6129841E-001  0.1978981E+03  0.7818608E-02  0.1151525E+00
         21   -1    0    0  503  502  0.00000000000E+00  0.00000000000E+00  0.79401458580E+02  0.79401458580E+02  0.00000000000E+00 0.  1.
         21   -1    0    0  501  503 -0.00000000000E+00 -0.00000000000E+00 -0.13193171059E+04  0.13193171059E+04  0.00000000000E+00 0.  1.
          6    1    1    2  501    0 -0.63799549338E+02 -0.74224432380E+02 -0.11733552320E+04  0.11899269512E+04  0.17200000000E+03 0.  1.
         -6    1    1    2    0  502  0.63799549338E+02  0.74224432380E+02 -0.66560415291E+02  0.20879161320E+03  0.17200000000E+03 0.  1.
</event>
<event>
 4    1  0.6129841E-001  0.2384326E+03  0.7818608E-02  0.1120841E+00
         21   -1    0    0  501  502  0.00000000000E+00  0.00000000000E+00  0.26563851510E+03  0.26563851510E+03  0.00000000000E+00 0. -1.
         21   -1    0    0  502  503 -0.00000000000E+00 -0.00000000000E+00 -0.21542316793E+03  0.21542316793E+03  0.00000000000E+00 0.  1.
          6    1    1    2  501    0 -0.76344824022E+02  0.14641581617E+03  0.44567718546E+02  0.24256216712E+03  0.17200000000E+03 0.  1.
         -6    1    1    2    0  503  0.76344824022E+02 -0.14641581617E+03  0.56476286261E+01  0.23849951591E+03  0.17200000000E+03 0.  1.
</event>
<event>
 4    1  0.6129841E-001  0.1899540E+03  0.7818608E-02  0.1158503E+00
         21   -1    0    0  501  502  0.00000000000E+00  0.00000000000E+00  0.10274857201E+03  0.10274857201E+03  0.00000000000E+00 0. -1.
         21   -1    0    0  502  503 -0.00000000000E+00 -0.00000000000E+00 -0.36447826315E+03  0.36447826315E+03  0.00000000000E+00 0. -1.
          6    1    1    2  501    0  0.58210681028E+02 -0.55767720313E+02 -0.86229997568E+02  0.20861000574E+03  0.17200000000E+03 0. -1.
         -6    1    1    2    0  503 -0.58210681028E+02  0.55767720313E+02 -0.17549969357E+03  0.25861682942E+03  0.17200000000E+03 0. -1.
</event>
<event>
 4    1  0.6129841E-001  0.2516492E+03  0.7818608E-02  0.1112267E+00
         21   -1    0    0  503  502  0.00000000000E+00  0.00000000000E+00  0.10305361022E+03  0.10305361022E+03  0.00000000000E+00 0. -1.
         21   -1    0    0  501  503 -0.00000000000E+00 -0.00000000000E+00 -0.81314268613E+03  0.81314268613E+03  0.00000000000E+00 0. -1.
          6    1    1    2  501    0 -0.18240313263E+03 -0.21735607570E+02 -0.58145784160E+03  0.63357758876E+03  0.17200000000E+03 0. -1.
         -6    1    1    2    0  502  0.18240313263E+03  0.21735607570E+02 -0.12863123431E+03  0.28261870758E+03  0.17200000000E+03 0. -1.
</event>
<event>
 4    1  0.6129841E-001  0.1868224E+03  0.7818608E-02  0.1161359E+00
         21   -1    0    0  501  502  0.00000000000E+00  0.00000000000E+00  0.21668646223E+03  0.21668646223E+03  0.00000000000E+00 0.  1.
         21   -1    0    0  502  503 -0.00000000000E+00 -0.00000000000E+00 -0.16288522065E+03  0.16288522065E+03  0.00000000000E+00 0.  1.
          6    1    1    2  501    0  0.12646338087E+02 -0.71824042511E+02  0.46911730465E+02  0.19262225574E+03  0.17200000000E+03 0. -1.
         -6    1    1    2    0  503 -0.12646338087E+02  0.71824042511E+02  0.68895111155E+01  0.18694942715E+03  0.17200000000E+03 0. -1.
</event>
<event>
 4    1  0.6129841E-001  0.2409014E+03  0.7818608E-02  0.1119194E+00
         21   -1    0    0  501  502  0.00000000000E+00  0.00000000000E+00  0.21395415825E+03  0.21395415825E+03  0.00000000000E+00 0.  1.
         21   -1    0    0  502  503 -0.00000000000E+00 -0.00000000000E+00 -0.35652430392E+03  0.35652430392E+03  0.00000000000E+00 0.  1.
          6    1    1    2  501    0  0.86233481233E+02 -0.14495952657E+03  0.68220859279E+02  0.25037484552E+03  0.17200000000E+03 0.  1.
         -6    1    1    2    0  503 -0.86233481233E+02  0.14495952657E+03 -0.21079100495E+03  0.32010361665E+03  0.17200000000E+03 0.  1.
</event>
<event>
 4    1  0.6129841E-001  0.1797852E+03  0.7818608E-02  0.1168011E+00
         21   -1    0    0  501  502  0.00000000000E+00  0.00000000000E+00  0.12374850355E+04  0.12374850355E+04  0.00000000000E+00 0.  1.
         21   -1    0    0  502  503 -0.00000000000E+00 -0.00000000000E+00 -0.39777999083E+02  0.39777999083E+02  0.00000000000E+00 0.  1.
          6    1    1    2  501    0  0.54266748070E+01 -0.52050650015E+02  0.22463314007E+03  0.28771994471E+03  0.17200000000E+03 0.  1.
         -6    1    1    2    0  503 -0.54266748070E+01  0.52050650015E+02  0.97307389639E+03  0.98954308991E+03  0.17200000000E+03 0.  1.
</event>
<event>
 4    1  0.6129841E-001  0.2246679E+03  0.7818608E-02  0.1130450E+00
         21   -1    0    0  503  502  0.00000000000E+00  0.00000000000E+00  0.21555892134E+03  0.21555892134E+03  0.00000000000E+00 0.  1.
         21   -1    0    0  501  503 -0.00000000000E+00 -0.00000000000E+00 -0.23465225951E+03  0.23465225951E+03  0.00000000000E+00 0. -1.
          6    1    1    2  501    0 -0.10133888876E+03 -0.10306348041E+03  0.74542015479E+00  0.22466910562E+03  0.17200000000E+03 0. -1.
         -6    1    1    2    0  502  0.10133888876E+03  0.10306348041E+03 -0.19838758324E+02  0.22554207523E+03  0.17200000000E+03 0.  1.
</event>
<event>
 4    1  0.6129841E-001  0.2107535E+03  0.7818608E-02  0.1140971E+00
         21   -1    0    0  503  502  0.00000000000E+00  0.00000000000E+00  0.16636526219E+03  0.16636526219E+03  0.00000000000E+00 0.  1.
         21   -1    0    0  501  503 -0.00000000000E+00 -0.00000000000E+00 -0.27461480005E+03  0.27461480005E+03  0.00000000000E+00 0. -1.
          6    1    1    2  501    0  0.12143551665E+03  0.92990527267E+01 -0.90876589117E+02  0.22951168061E+03  0.17200000000E+03 0. -1.
         -6    1    1    2    0  502 -0.12143551665E+03 -0.92990527267E+01 -0.17372948738E+02  0.21146838164E+03  0.17200000000E+03 0.  1.
</event>
<event>
 4    1  0.6129841E-001  0.2194827E+03  0.7818608E-02  0.1134269E+00
         21   -1    0    0  501  502  0.00000000000E+00  0.00000000000E+00  0.14184402461E+04  0.14184402461E+04  0.00000000000E+00 0.  1.
         21   -1    0    0  502  503 -0.00000000000E+00 -0.00000000000E+00 -0.19979129182E+03  0.19979129182E+03  0.00000000000E+00 0. -1.
          6    1    1    2  501    0  0.13531669371E+03 -0.16674268000E+02  0.13464702963E+04  0.13642415100E+04  0.17200000000E+03 0.  1.
         -6    1    1    2    0  503 -0.13531669371E+03  0.16674268000E+02 -0.12782134202E+03  0.25399002792E+03  0.17200000000E+03 0. -1.
</event>
<event>
 4    1  0.6129841E-001  0.2104242E+03  0.7818608E-02  0.1141230E+00
         21   -1    0    0  503  502  0.00000000000E+00  0.00000000000E+00  0.24568967241E+03  0.24568967241E+03  0.00000000000E+00 0. -1.
         21   -1    0    0  501  503 -0.00000000000E+00 -0.00000000000E+00 -0.65740514229E+03  0.65740514229E+03  0.00000000000E+00 0. -1.
          6    1    1    2  501    0 -0.12101372980E+03  0.70730525868E+01 -0.59056462826E+03  0.62693295577E+03  0.17200000000E+03 0. -1.
         -6    1    1    2    0  502  0.12101372980E+03 -0.70730525868E+01  0.17884915839E+03  0.27616185893E+03  0.17200000000E+03 0. -1.
</event>
<event>
 4    1  0.6129841E-001  0.2349716E+03  0.7818608E-02  0.1123189E+00
         21   -1    0    0  501  502  0.00000000000E+00  0.00000000000E+00  0.67459081360E+03  0.67459081360E+03  0.00000000000E+00 0.  1.
         21   -1    0    0  502  503 -0.00000000000E+00 -0.00000000000E+00 -0.23491485049E+03  0.23491485049E+03  0.00000000000E+00 0. -1.
          6    1    1    2  501    0  0.55760704699E+02  0.15006135298E+03  0.58692199086E+03  0.63220968768E+03  0.17200000000E+03 0. -1.
         -6    1    1    2    0  503 -0.55760704699E+02 -0.15006135298E+03 -0.14724602774E+03  0.27729597641E+03  0.17200000000E+03 0. -1.
</event>
<event>
 4    1  0.6129841E-001  0.2214692E+03  0.7818608E-02  0.1132792E+00
         21   -1    0    0  501  502  0.00000000000E+00  0.00000000000E+00  0.21342096835E+03  0.21342096835E+03  0.00000000000E+00 0.  1.
         21   -1    0    0  502  503 -0.00000000000E+00 -0.00000000000E+00 -0.23531136503E+03  0.23531136503E+03  0.00000000000E+00 0.  1.
          6    1    1    2  501    0  0.13075158671E+03 -0.48668343110E+02 -0.45217484217E+02  0.22603806300E+03  0.17200000000E+03 0.  1.
         -6    1    1    2    0  503 -0.13075158671E+03  0.48668343110E+02  0.23327087532E+02  0.22269427038E+03  0.17200000000E+03 0.  1.
</event>
<event>
 4    1  0.6129841E-001  0.1809354E+03  0.7818608E-02  0.1166901E+00
         21   -1    0    0  501  502  0.00000000000E+00  0.00000000000E+00  0.26626931570E+03  0.26626931570E+03  0.00000000000E+00 0.  1.
         21   -1    0    0  502  503 -0.00000000000E+00 -0.00000000000E+00 -0.96278189776E+03  0.96278189776E+03  0.00000000000E+00 0.  1.
          6    1    1    2  501    0  0.34571147150E+02 -0.44254635198E+02  0.22569148761E+03  0.28926507658E+03  0.17200000000E+03 0.  1.
         -6    1    1    2    0  503 -0.34571147150E+02  0.44254635198E+02 -0.92220406967E+03  0.93978613688E+03  0.17200000000E+03 0.  1.
</event>
<event>
 4    1  0.6129841E-001  0.2413889E+03  0.7818608E-02  0.1118871E+00
         21   -1    0    0  501  502  0.00000000000E+00  0.00000000000E+00  0.11758472177E+03  0.11758472177E+03  0.00000000000E+00 0.  1.
         21   -1    0    0  502  503 -0.00000000000E+00 -0.00000000000E+00 -0.53211335755E+03  0.53211335755E+03  0.00000000000E+00 0.  1.
          6    1    1    2  501    0 -0.16927965581E+03 -0.53860426941E+01 -0.12210588324E+03  0.27051517157E+03  0.17200000000E+03 0.  1.
         -6    1    1    2    0  503  0.16927965581E+03  0.53860426941E+01 -0.29242275254E+03  0.37918290775E+03  0.17200000000E+03 0.  1.
</event>
<event>
 4    1  0.6129841E-001  0.2242898E+03  0.7818608E-02  0.1130725E+00
         21   -1    0    0  501  502  0.00000000000E+00  0.00000000000E+00  0.29915088727E+03  0.29915088727E+03  0.00000000000E+00 0. -1.
         21   -1    0    0  502  503 -0.00000000000E+00 -0.00000000000E+00 -0.62099918527E+03  0.62099918527E+03  0.00000000000E+00 0.  1.
          6    1    1    2  501    0  0.54731409360E+01 -0.14384694642E+03  0.23195054366E+03  0.32265609242E+03  0.17200000000E+03 0. -1.
         -6    1    1    2    0  503 -0.54731409360E+01  0.14384694642E+03 -0.55379884165E+03  0.59749398012E+03  0.17200000000E+03 0.  1.
</event>
<event>
 4    1  0.6129841E-001  0.2224413E+03  0.7818608E-02  0.1132076E+00
         21   -1    0    0  503  502  0.00000000000E+00  0.00000000000E+00  0.29092706960E+03  0.29092706960E+03  0.00000000000E+00 0. -1.
         21   -1    0    0  501  503 -0.00000000000E+00 -0.00000000000E+00 -0.20934115277E+03  0.20934115277E+03  0.00000000000E+00 0. -1.
          6    1    1    2  501    0  0.41178604476E+02  0.13490907163E+03 -0.67535166125E+02  0.23246748964E+03  0.17200000000E+03 0. -1.
         -6    1    1    2    0  502 -0.41178604476E+02 -0.13490907163E+03  0.14912108295E+03  0.26780073274E+03  0.17200000000E+03 0. -1.
</event>
<event>
 4    1  0.6129841E-001  0.2093967E+03  0.7818608E-02  0.1142045E+00
         21   -1    0    0  503  502  0.00000000000E+00  0.00000000000E+00  0.71406905828E+02  0.71406905828E+02  0.00000000000E+00 0. -1.
         21   -1    0    0  501  503 -0.00000000000E+00 -0.00000000000E+00 -0.68232547473E+03  0.68232547473E+03  0.00000000000E+00 0. -1.
          6    1    1    2  501    0 -0.10906379587E+03  0.48662712597E+02 -0.42467769207E+03  0.47349563177E+03  0.17200000000E+03 0. -1.
         -6    1    1    2    0  502  0.10906379587E+03 -0.48662712597E+02 -0.18624087683E+03  0.28023674878E+03  0.17200000000E+03 0. -1.
</event>
<event>
 4    1  0.6129841E-001  0.2922195E+03  0.7818608E-02  0.1089196E+00
         21   -1    0    0  501  502  0.00000000000E+00  0.00000000000E+00  0.53884171975E+03  0.53884171975E+03  0.00000000000E+00 0.  1.
         21   -1    0    0  502  503 -0.00000000000E+00 -0.00000000000E+00 -0.17422384266E+03  0.17422384266E+03  0.00000000000E+00 0.  1.
          6    1    1    2  501    0 -0.17478318144E+03 -0.15893106934E+03  0.28950721665E+03  0.41134738823E+03  0.17200000000E+03 0.  1.
         -6    1    1    2    0  503  0.17478318144E+03  0.15893106934E+03  0.75110660439E+02  0.30171817417E+03  0.17200000000E+03 0.  1.
</event>
<event>
 4    1  0.6129841E-001  0.2501901E+03  0.7818608E-02  0.1113185E+00
         21   -1    0    0  503  502  0.00000000000E+00  0.00000000000E+00  0.23191642323E+03  0.23191642323E+03  0.00000000000E+00 0.  1.
         21   -1    0    0  501  503 -0.00000000000E+00 -0.00000000000E+00 -0.35618921171E+03  0.35618921171E+03  0.00000000000E+00 0. -1.
          6    1    1    2  501    0 -0.11468038703E+03 -0.14092370411E+03 -0.20686491117E+03  0.32463544634E+03  0.17200000000E+03 0. -1.
         -6    1    1    2    0  502  0.11468038703E+03  0.14092370411E+03  0.82592122684E+02  0.26347018860E+03  0.17200000000E+03 0. -1.
</event>
<event>
 4    1  0.6129841E-001  0.1969348E+03  0.7818608E-02  0.1152351E+00
         21   -1    0    0  503  502  0.00000000000E+00  0.00000000000E+00  0.78614898959E+02  0.78614898959E+02  0.00000000000E+00 0. -1.
         21   -1    0    0  501  503 -0.00000000000E+00 -0.00000000000E+00 -0.13186345142E+04  0.13186345142E+04  0.00000000000E+00 0.  1.
          6    1    1    2  501    0 -0.70874440272E+02 -0.64622854349E+02 -0.11727081006E+04  0.11891289202E+04  0.17200000000E+03 0.  1.
         -6    1    1    2    0  502  0.70874440272E+02  0.64622854349E+02 -0.67311514612E+02  0.20812049295E+03  0.17200000000E+03 0. -1.
</event>
<event>
 4    1  0.6129841E-001  0.2546928E+03  0.7818608E-02  0.1110374E+00
         21   -1    0    0  501  502  0.00000000000E+00  0.00000000000E+00  0.21980311747E+04  0.21980311747E+04  0.00000000000E+00 0. -1.
         21   -1    0    0  502  503 -0.00000000000E+00 -0.00000000000E+00 -0.32082116935E+02  0.32082116935E+02  0.00000000000E+00 0. -1.
          6    1    1    2  501    0  0.43480678393E+02 -0.18273982198E+03  0.13985748295E+04  0.14215765775E+04  0.17200000000E+03 0.  1.
         -6    1    1    2    0  503 -0.43480678393E+02  0.18273982198E+03  0.76737422831E+03  0.80853671420E+03  0.17200000000E+03 0.  1.
</event>
<event>
 4    1  0.6129841E-001  0.2013180E+03  0.7818608E-02  0.1148632E+00
         21   -1    0    0  501  502  0.00000000000E+00  0.00000000000E+00  0.42285319101E+03  0.42285319101E+03  0.00000000000E+00 0. -1.
         21   -1    0    0  502  503 -0.00000000000E+00 -0.00000000000E+00 -0.18273783741E+03  0.18273783741E+03  0.00000000000E+00 0.  1.
          6    1    1    2  501    0 -0.10448923769E+03 -0.51909654787E+01  0.32885443021E+03  0.38558291350E+03  0.17200000000E+03 0. -1.
         -6    1    1    2    0  503  0.10448923769E+03  0.51909654787E+01 -0.88739076609E+02  0.22000811492E+03  0.17200000000E+03 0.  1.
</event>
<event>
 4    1  0.6129841E-001  0.2061669E+03  0.7818608E-02  0.1144638E+00
         21   -1    0    0  501  502  0.00000000000E+00  0.00000000000E+00  0.88689422280E+03  0.88689422280E+03  0.00000000000E+00 0. -1.
         21   -1    0    0  502  503 -0.00000000000E+00 -0.00000000000E+00 -0.47925420048E+02  0.47925420048E+02  0.00000000000E+00 0. -1.
          6    1    1    2  501    0 -0.81397371392E+02  0.79342582881E+02  0.41942714247E+03  0.46735843351E+03  0.17200000000E+03 0. -1.
         -6    1    1    2    0  503  0.81397371392E+02 -0.79342582881E+02  0.41954166028E+03  0.46746120934E+03  0.17200000000E+03 0. -1.
</event>
<event>
 4    1  0.6129841E-001  0.2030725E+03  0.7818608E-02  0.1147172E+00
         21   -1    0    0  501  502  0.00000000000E+00  0.00000000000E+00  0.92577859339E+03  0.92577859339E+03  0.00000000000E+00 0. -1.
         21   -1    0    0  502  503 -0.00000000000E+00 -0.00000000000E+00 -0.56129443017E+03  0.56129443017E+03  0.00000000000E+00 0. -1.
          6    1    1    2  501    0 -0.90127542252E+02 -0.59426007015E+02  0.89566508830E+03  0.91839772135E+03  0.17200000000E+03 0. -1.
         -6    1    1    2    0  503  0.90127542252E+02  0.59426007015E+02 -0.53118092508E+03  0.56867530222E+03  0.17200000000E+03 0. -1.
</event>
<event>
 4    1  0.6129841E-001  0.2040085E+03  0.7818608E-02  0.1146400E+00
         21   -1    0    0  501  502  0.00000000000E+00  0.00000000000E+00  0.54027533109E+03  0.54027533109E+03  0.00000000000E+00 0. -1.
         21   -1    0    0  502  503 -0.00000000000E+00 -0.00000000000E+00 -0.83336814282E+02  0.83336814282E+02  0.00000000000E+00 0.  1.
          6    1    1    2  501    0  0.80451048474E+02  0.74586115906E+02  0.14271802223E+03  0.24897368085E+03  0.17200000000E+03 0.  1.
         -6    1    1    2    0  503 -0.80451048474E+02 -0.74586115906E+02  0.31422049458E+03  0.37463846452E+03  0.17200000000E+03 0.  1.
</event>
<event>
 4    1  0.6129841E-001  0.1905982E+03  0.7818608E-02  0.1157923E+00
         21   -1    0    0  503  502  0.00000000000E+00  0.00000000000E+00  0.41868126422E+02  0.41868126422E+02  0.00000000000E+00 0. -1.
         21   -1    0    0  501  503 -0.00000000000E+00 -0.00000000000E+00 -0.10873416681E+04  0.10873416681E+04  0.00000000000E+00 0. -1.
          6    1    1    2  501    0  0.19638112146E+02 -0.79737227594E+02 -0.77651216278E+03  0.79956164232E+03  0.17200000000E+03 0. -1.
         -6    1    1    2    0  502 -0.19638112146E+02  0.79737227594E+02 -0.26896137887E+03  0.32964815218E+03  0.17200000000E+03 0. -1.
</event>
<event>
 4    1  0.6129841E-001  0.1733238E+03  0.7818608E-02  0.1174425E+00
         21   -1    0    0  501  502  0.00000000000E+00  0.00000000000E+00  0.18265875864E+04  0.18265875864E+04  0.00000000000E+00 0. -1.
         21   -1    0    0  502  503 -0.00000000000E+00 -0.00000000000E+00 -0.17819126148E+02  0.17819126148E+02  0.00000000000E+00 0. -1.
          6    1    1    2  501    0  0.19701474548E+02  0.83070117820E+01  0.64844085969E+03  0.67120541048E+03  0.17200000000E+03 0.  1.
         -6    1    1    2    0  503 -0.19701474548E+02 -0.83070117820E+01  0.11603276006E+04  0.11732013021E+04  0.17200000000E+03 0.  1.
</event>
<event>
 4    1  0.6129841E-001  0.2115224E+03  0.7818608E-02  0.1140366E+00
         21   -1    0    0  503  502  0.00000000000E+00  0.00000000000E+00  0.53460220461E+03  0.53460220461E+03  0.00000000000E+00 0. -1.
         21   -1    0    0  501  503 -0.00000000000E+00 -0.00000000000E+00 -0.84519708350E+02  0.84519708350E+02  0.00000000000E+00 0. -1.
          6    1    1    2  501    0 -0.11921002679E+03 -0.30768183529E+02  0.19439961728E+03  0.28728543785E+03  0.17200000000E+03 0. -1.
         -6    1    1    2    0  502  0.11921002679E+03  0.30768183529E+02  0.25568287899E+03  0.33183647511E+03  0.17200000000E+03 0. -1.
</event>
<event>
 4    1  0.6129841E-001  0.1749608E+03  0.7818608E-02  0.1172771E+00
         21   -1    0    0  501  502  0.00000000000E+00  0.00000000000E+00  0.11015503858E+03  0.11015503858E+03  0.00000000000E+00 0.  1.
         21   -1    0    0  502  503 -0.00000000000E+00 -0.00000000000E+00 -0.31636730635E+03  0.31636730635E+03  0.00000000000E+00 0.  1.
          6    1    1    2  501    0 -0.18057754857E+02 -0.26480315275E+02 -0.28735300130E+02  0.17730484224E+03  0.17200000000E+03 0.  1.
         -6    1    1    2    0  503  0.18057754857E+02  0.26480315275E+02 -0.17747696764E+03  0.24921750269E+03  0.17200000000E+03 0.  1.
</event>
<event>
 4    1  0.6129841E-001  0.2206227E+03  0.7818608E-02  0.1133420E+00
         21   -1    0    0  501  502  0.00000000000E+00  0.00000000000E+00  0.10813390477E+03  0.10813390477E+03  0.00000000000E+00 0.  1.
         21   -1    0    0  502  503 -0.00000000000E+00 -0.00000000000E+00 -0.50793159004E+03  0.50793159004E+03  0.00000000000E+00 0. -1.
          6    1    1    2  501    0  0.61920913517E+02 -0.12351597238E+03 -0.95987877995E+02  0.24059939253E+03  0.17200000000E+03 0. -1.
         -6    1    1    2    0  503 -0.61920913517E+02  0.12351597238E+03 -0.30380980727E+03  0.37546610228E+03  0.17200000000E+03 0. -1.
</event>
<event>
 4    1  0.6129841E-001  0.2445954E+03  0.7818608E-02  0.1116769E+00
         21   -1    0    0  501  502  0.00000000000E+00  0.00000000000E+00  0.44435089809E+03  0.44435089809E+03  0.00000000000E+00 0.  1.
         21   -1    0    0  502  503 -0.00000000000E+00 -0.00000000000E+00 -0.14415309792E+03  0.14415309792E+03  0.00000000000E+00 0.  1.
          6    1    1    2  501    0  0.16850524028E+03 -0.42998937774E+02  0.74503897936E+02  0.25569074184E+03  0.17200000000E+03 0. -1.
         -6    1    1    2    0  503 -0.16850524028E+03  0.42998937774E+02  0.22569390223E+03  0.33281325418E+03  0.17200000000E+03 0. -1.
</event>
<event>
 4    1  0.6129841E-001  0.1893955E+03  0.7818608E-02  0.1159008E+00
         21   -1    0    0  503  502  0.00000000000E+00  0.00000000000E+00  0.30924912591E+03  0.30924912591E+03  0.00000000000E+00 0. -1.
         21   -1    0    0  501  503 -0.00000000000E+00 -0.00000000000E+00 -0.18924006792E+03  0.18924006792E+03  0.00000000000E+00 0. -1.
          6    1    1    2  501    0 -0.54653094103E+02 -0.57442829980E+02 -0.95060988420E+02  0.21191326275E+03  0.17200000000E+03 0. -1.
         -6    1    1    2    0  502  0.54653094103E+02  0.57442829980E+02  0.21507004640E+03  0.28657593107E+03  0.17200000000E+03 0. -1.
</event>
<event>
 4    1  0.6129841E-001  0.1884249E+03  0.7818608E-02  0.1159890E+00
         21   -1    0    0  503  502  0.00000000000E+00  0.00000000000E+00  0.43083524839E+02  0.43083524839E+02  0.00000000000E+00 0.  1.
         21   -1    0    0  501  503 -0.00000000000E+00 -0.00000000000E+00 -0.86652313451E+03  0.86652313451E+03  0.00000000000E+00 0.  1.
          6    1    1    2  501    0 -0.11996958210E+02  0.76000227287E+02 -0.51238377178E+03  0.54593139783E+03  0.17200000000E+03 0.  1.
         -6    1    1    2    0  502  0.11996958210E+02 -0.76000227287E+02 -0.31105583789E+03  0.36367526151E+03  0.17200000000E+03 0.  1.
</event>
<event>
 4    1  0.6129841E-001  0.2678924E+03  0.7818608E-02  0.1102492E+00
         21   -1    0    0  501  502  0.00000000000E+00  0.00000000000E+00  0.18145095729E+04  0.18145095729E+04  0.00000000000E+00 0.  1.
         21   -1    0    0  502  503 -0.00000000000E+00 -0.00000000000E+00 -0.42010144842E+02  0.42010144842E+02  0.00000000000E+00 0.  1.
          6    1    1    2  501    0 -0.20530567899E+03  0.56514354405E+01  0.11108192472E+04  0.11426660757E+04  0.17200000000E+03 0.  1.
         -6    1    1    2    0  503  0.20530567899E+03 -0.56514354405E+01  0.66168018078E+03  0.71385364199E+03  0.17200000000E+03 0.  1.
</event>
<event>
 4    1  0.6129841E-001  0.2327472E+03  0.7818608E-02  0.1124721E+00
         21   -1    0    0  503  502  0.00000000000E+00  0.00000000000E+00  0.21797423856E+03  0.21797423856E+03  0.00000000000E+00 0.  1.
         21   -1    0    0  501  503 -0.00000000000E+00 -0.00000000000E+00 -0.32121277960E+03  0.32121277960E+03  0.00000000000E+00 0.  1.
          6    1    1    2  501    0  0.92327009302E+02  0.12673975216E+03 -0.17986850286E+03  0.29414948537E+03  0.17200000000E+03 0.  1.
         -6    1    1    2    0  502 -0.92327009302E+02 -0.12673975216E+03  0.76629961819E+02  0.24503753278E+03  0.17200000000E+03 0.  1.
</event>
<event>
 4    1  0.6129841E-001  0.1767960E+03  0.7818608E-02  0.1170940E+00
         21   -1    0    0  501  502  0.00000000000E+00  0.00000000000E+00  0.48502738121E+02  0.48502738121E+02  0.00000000000E+00 0. -1.
         21   -1    0    0  502  503 -0.00000000000E+00 -0.00000000000E+00 -0.66775811410E+03  0.66775811410E+03  0.00000000000E+00 0. -1.
          6    1    1    2  501    0 -0.10233947868E+02  0.39599030260E+02 -0.24269572404E+03  0.30026327007E+03  0.17200000000E+03 0. -1.
         -6    1    1    2    0  503  0.10233947868E+02 -0.39599030260E+02 -0.37655965194E+03  0.41599758215E+03  0.17200000000E+03 0. -1.
</event>
<event>
 4    1  0.6129841E-001  0.2067756E+03  0.7818608E-02  0.1144145E+00
         21   -1    0    0  503  502  0.00000000000E+00  0.00000000000E+00  0.62442861042E+03  0.62442861042E+03  0.00000000000E+00 0. -1.
         21   -1    0    0  501  503 -0.00000000000E+00 -0.00000000000E+00 -0.13902786427E+03  0.13902786427E+03  0.00000000000E+00 0.  1.
          6    1    1    2  501    0 -0.11473449786E+03 -0.28514893217E+01 -0.29236836616E+02  0.20883229781E+03  0.17200000000E+03 0.  1.
         -6    1    1    2    0  502  0.11473449786E+03  0.28514893217E+01  0.51463758277E+03  0.55462417689E+03  0.17200000000E+03 0. -1.
</event>
<event>
 4    1  0.6129841E-001  0.2548478E+03  0.7818608E-02  0.1110279E+00
         21   -1    0    0  501  502  0.00000000000E+00  0.00000000000E+00  0.10518282482E+03  0.10518282482E+03  0.00000000000E+00 0.  1.
         21   -1    0    0  502  503 -0.00000000000E+00 -0.00000000000E+00 -0.64152171884E+03  0.64152171884E+03  0.00000000000E+00 0. -1.
          6    1    1    2  501    0  0.16549407761E+03  0.89303393430E+02 -0.34045867069E+03  0.42527578376E+03  0.17200000000E+03 0.  1.
         -6    1    1    2    0  503 -0.16549407761E+03 -0.89303393430E+02 -0.19588022332E+03  0.32142875990E+03  0.17200000000E+03 0. -1.
</event>
<event>
 4    1  0.6129841E-001  0.1746626E+03  0.7818608E-02  0.1173071E+00
         21   -1    0    0  501  502  0.00000000000E+00  0.00000000000E+00  0.57050899954E+03  0.57050899954E+03  0.00000000000E+00 0.  1.
         21   -1    0    0  502  503 -0.00000000000E+00 -0.00000000000E+00 -0.13493048659E+03  0.13493048659E+03  0.00000000000E+00 0.  1.
          6    1    1    2  501    0 -0.11020164599E+02  0.28312233656E+02  0.49184524706E+03  0.52193751892E+03  0.17200000000E+03 0.  1.
         -6    1    1    2    0  503  0.11020164599E+02 -0.28312233656E+02 -0.56266734110E+02  0.18350196721E+03  0.17200000000E+03 0.  1.
</event>
<event>
 4    1  0.6129841E-001  0.3332046E+03  0.7818608E-02  0.1069728E+00
         21   -1    0    0  501  502  0.00000000000E+00  0.00000000000E+00  0.25196760771E+03  0.25196760771E+03  0.00000000000E+00 0.  1.
         21   -1    0    0  502  503 -0.00000000000E+00 -0.00000000000E+00 -0.83204681109E+03  0.83204681109E+03  0.00000000000E+00 0. -1.
          6    1    1    2  501    0 -0.20503105430E+03 -0.19850334067E+03  0.81708799390E+02  0.34307672230E+03  0.17200000000E+03 0.  1.
         -6    1    1    2    0  503  0.20503105430E+03  0.19850334067E+03 -0.66178800277E+03  0.74093769650E+03  0.17200000000E+03 0. -1.
</event>
<event>
 4    1  0.6129841E-001  0.1833415E+03  0.7818608E-02  0.1164608E+00
         21   -1    0    0  501  502  0.00000000000E+00  0.00000000000E+00  0.51686105597E+02  0.51686105597E+02  0.00000000000E+00 0.  1.
         21   -1    0    0  502  503 -0.00000000000E+00 -0.00000000000E+00 -0.69857128268E+03  0.69857128268E+03  0.00000000000E+00 0.  1.
          6    1    1    2  501    0  0.54763343405E+02  0.32110716271E+02 -0.42199988961E+03  0.46010654061E+03  0.17200000000E+03 0. -1.
         -6    1    1    2    0  503 -0.54763343405E+02 -0.32110716271E+02 -0.22488528747E+03  0.29015084767E+03  0.17200000000E+03 0. -1.
</event>
<event>
 4    1  0.6129841E-001  0.1807563E+03  0.7818608E-02  0.1167073E+00
         21   -1    0    0  503  502  0.00000000000E+00  0.00000000000E+00  0.55467098183E+03  0.55467098183E+03  0.00000000000E+00 0. -1.
         21   -1    0    0  501  503 -0.00000000000E+00 -0.00000000000E+00 -0.58926770239E+02  0.58926770239E+02  0.00000000000E+00 0.  1.
          6    1    1    2  501    0  0.55569727179E+02  0.92745491756E+00  0.25377869834E+03  0.31157099108E+03  0.17200000000E+03 0.  1.
         -6    1    1    2    0  502 -0.55569727179E+02 -0.92745491756E+00  0.24196551325E+03  0.30202676099E+03  0.17200000000E+03 0.  1.
</event>
<event>
 4    1  0.6129841E-001  0.1846110E+03  0.7818608E-02  0.1163414E+00
         21   -1    0    0  501  502  0.00000000000E+00  0.00000000000E+00  0.26344982626E+03  0.26344982626E+03  0.00000000000E+00 0.  1.
         21   -1    0    0  502  503 -0.00000000000E+00 -0.00000000000E+00 -0.13565991450E+03  0.13565991450E+03  0.00000000000E+00 0. -1.
          6    1    1    2  501    0  0.10483831103E+02 -0.66236655118E+02  0.10688115716E+03  0.21331851057E+03  0.17200000000E+03 0.  1.
         -6    1    1    2    0  503 -0.10483831103E+02  0.66236655118E+02  0.20908754599E+02  0.18579123019E+03  0.17200000000E+03 0. -1.
</event>
<event>
 4    1  0.6129841E-001  0.1929136E+03  0.7818608E-02  0.1155859E+00
         21   -1    0    0  503  502  0.00000000000E+00  0.00000000000E+00  0.15979261392E+03  0.15979261392E+03  0.00000000000E+00 0. -1.
         21   -1    0    0  501  503 -0.00000000000E+00 -0.00000000000E+00 -0.23546347849E+03  0.23546347849E+03  0.00000000000E+00 0. -1.
          6    1    1    2  501    0  0.69695836436E+02  0.52670126047E+02 -0.58457256285E+02  0.20157604671E+03  0.17200000000E+03 0. -1.
         -6    1    1    2    0  502 -0.69695836436E+02 -0.52670126047E+02 -0.17213608283E+02  0.19368004571E+03  0.17200000000E+03 0. -1.
</event>
<event>
 4    1  0.6129841E-001  0.1952593E+03  0.7818608E-02  0.1153802E+00
         21   -1    0    0  503  502  0.00000000000E+00  0.00000000000E+00  0.70881860511E+03  0.70881860511E+03  0.00000000000E+00 0.  1.
         21   -1    0    0  501  503 -0.00000000000E+00 -0.00000000000E+00 -0.58288177832E+02  0.58288177832E+02  0.00000000000E+00 0.  1.
          6    1    1    2  501    0 -0.68466626614E+02  0.62084708678E+02  0.21869567784E+03  0.29317910826E+03  0.17200000000E+03 0. -1.
         -6    1    1    2    0  502  0.68466626614E+02 -0.62084708678E+02  0.43183474943E+03  0.47392767468E+03  0.17200000000E+03 0. -1.
</event>
<event>
 4    1  0.6129841E-001  0.1742986E+03  0.7818608E-02  0.1173438E+00
         21   -1    0    0  503  502  0.00000000000E+00  0.00000000000E+00  0.21784271510E+03  0.21784271510E+03  0.00000000000E+00 0.  1.
         21   -1    0    0  501  503 -0.00000000000E+00 -0.00000000000E+00 -0.14115663491E+03  0.14115663491E+03  0.00000000000E+00 0.  1.
          6    1    1    2  501    0 -0.24993583315E+02 -0.13089097810E+02  0.18654764463E+02  0.17529404989E+03  0.17200000000E+03 0.  1.
         -6    1    1    2    0  502  0.24993583315E+02  0.13089097810E+02  0.58031315726E+02  0.18370530012E+03  0.17200000000E+03 0.  1.
</event>
<event>
 4    1  0.6129841E-001  0.2187872E+03  0.7818608E-02  0.1134790E+00
         21   -1    0    0  501  502  0.00000000000E+00  0.00000000000E+00  0.13303971747E+04  0.13303971747E+04  0.00000000000E+00 0.  1.
         21   -1    0    0  502  503 -0.00000000000E+00 -0.00000000000E+00 -0.58356228940E+02  0.58356228940E+02  0.00000000000E+00 0. -1.
          6    1    1    2  501    0 -0.95355732791E+02 -0.95870394952E+02  0.10659960880E+04  0.10882166641E+04  0.17200000000E+03 0.  1.
         -6    1    1    2    0  503  0.95355732791E+02  0.95870394952E+02  0.20604485778E+03  0.30053673956E+03  0.17200000000E+03 0. -1.
</event>
<event>
 4    1  0.6129841E-001  0.2378395E+03  0.7818608E-02  0.1121241E+00
         21   -1    0    0  501  502  0.00000000000E+00  0.00000000000E+00  0.87136883044E+02  0.87136883044E+02  0.00000000000E+00 0.  1.
         21   -1    0    0  502  503 -0.00000000000E+00 -0.00000000000E+00 -0.72108774467E+03  0.72108774467E+03  0.00000000000E+00 0. -1.
          6    1    1    2  501    0  0.36401913335E+02  0.16018275748E+03 -0.18936310458E+03  0.30401644769E+03  0.17200000000E+03 0. -1.
         -6    1    1    2    0  503 -0.36401913335E+02 -0.16018275748E+03 -0.44458775705E+03  0.50420818003E+03  0.17200000000E+03 0.  1.
</event>
<event>
 4    1  0.6129841E-001  0.1805699E+03  0.7818608E-02  0.1167253E+00
         21   -1    0    0  501  502  0.00000000000E+00  0.00000000000E+00  0.28651524960E+03  0.28651524960E+03  0.00000000000E+00 0.  1.
         21   -1    0    0  502  503 -0.00000000000E+00 -0.00000000000E+00 -0.12471967595E+03  0.12471967595E+03  0.00000000000E+00 0.  1.
          6    1    1    2  501    0  0.63595575062E+01 -0.54598891683E+02  0.14173847037E+03  0.22955451842E+03  0.17200000000E+03 0.  1.
         -6    1    1    2    0  503 -0.63595575062E+01  0.54598891683E+02  0.20057103278E+02  0.18168040713E+03  0.17200000000E+03 0.  1.
</event>
<event>
 4    1  0.6129841E-001  0.2237341E+03  0.7818608E-02  0.1131129E+00
         21   -1    0    0  503  502  0.00000000000E+00  0.00000000000E+00  0.62044675326E+02  0.62044675326E+02  0.00000000000E+00 0. -1.
         21   -1    0    0  501  503 -0.00000000000E+00 -0.00000000000E+00 -0.91842666109E+03  0.91842666109E+03  0.00000000000E+00 0.  1.
          6    1    1    2  501    0 -0.11378596533E+03  0.86750843793E+02 -0.59910916564E+03  0.63952228043E+03  0.17200000000E+03 0.  1.
         -6    1    1    2    0  502  0.11378596533E+03 -0.86750843793E+02 -0.25727282012E+03  0.34094905599E+03  0.17200000000E+03 0. -1.
</event>
<event>
 4    1  0.6129841E-001  0.1992478E+03  0.7818608E-02  0.1150375E+00
         21   -1    0    0  503  502  0.00000000000E+00  0.00000000000E+00  0.79825069060E+03  0.79825069060E+03  0.00000000000E+00 0. -1.
         21   -1    0    0  501  503 -0.00000000000E+00 -0.00000000000E+00 -0.57486560887E+02  0.57486560887E+02  0.00000000000E+00 0. -1.
          6    1    1    2  501    0  0.51417540470E+01  0.10044522348E+03  0.21324881535E+03  0.29184711375E+03  0.17200000000E+03 0.  1.
         -6    1    1    2    0  502 -0.51417540470E+01 -0.10044522348E+03  0.52751531436E+03  0.56389013773E+03  0.17200000000E+03 0.  1.
</event>
<event>
 4    1  0.6129841E-001  0.2034102E+03  0.7818608E-02  0.1146893E+00
         21   -1    0    0  503  502  0.00000000000E+00  0.00000000000E+00  0.10816841530E+03  0.10816841530E+03  0.00000000000E+00 0.  1.
         21   -1    0    0  501  503 -0.00000000000E+00 -0.00000000000E+00 -0.38598298189E+03  0.38598298189E+03  0.00000000000E+00 0.  1.
          6    1    1    2  501    0 -0.29815821955E+02  0.10441610563E+03 -0.16233760287E+03  0.26024834996E+03  0.17200000000E+03 0.  1.
         -6    1    1    2    0  502  0.29815821955E+02 -0.10441610563E+03 -0.11547696372E+03  0.23390304723E+03  0.17200000000E+03 0.  1.
</event>
<event>
 4    1  0.6129841E-001  0.1785241E+03  0.7818608E-02  0.1169239E+00
         21   -1    0    0  501  502  0.00000000000E+00  0.00000000000E+00  0.37413623387E+03  0.37413623387E+03  0.00000000000E+00 0.  1.
         21   -1    0    0  502  503 -0.00000000000E+00 -0.00000000000E+00 -0.10112926192E+03  0.10112926192E+03  0.00000000000E+00 0.  1.
          6    1    1    2  501    0 -0.57097436739E+01  0.47478969519E+02  0.42147828166E+02  0.18343198505E+03  0.17200000000E+03 0.  1.
         -6    1    1    2    0  503  0.57097436739E+01 -0.47478969519E+02  0.23085914379E+03  0.29183351074E+03  0.17200000000E+03 0.  1.
</event>
<event>
 4    1  0.6129841E-001  0.1753815E+03  0.7818608E-02  0.1172349E+00
         21   -1    0    0  503  502  0.00000000000E+00  0.00000000000E+00  0.31224106604E+02  0.31224106604E+02  0.00000000000E+00 0. -1.
         21   -1    0    0  501  503 -0.00000000000E+00 -0.00000000000E+00 -0.23035112171E+04  0.23035112171E+04  0.00000000000E+00 0. -1.
          6    1    1    2  501    0 -0.24247464593E+02 -0.24222375198E+02 -0.20193027923E+04  0.20269046426E+04  0.17200000000E+03 0. -1.
         -6    1    1    2    0  502  0.24247464593E+02  0.24222375198E+02 -0.25298431813E+03  0.30783068109E+03  0.17200000000E+03 0. -1.
</event>
<event>
 4    1  0.6129841E-001  0.2605310E+03  0.7818608E-02  0.1106825E+00
         21   -1    0    0  501  502  0.00000000000E+00  0.00000000000E+00  0.12363234748E+04  0.12363234748E+04  0.00000000000E+00 0. -1.
         21   -1    0    0  502  503 -0.00000000000E+00 -0.00000000000E+00 -0.58886475316E+02  0.58886475316E+02  0.00000000000E+00 0.  1.
          6    1    1    2  501    0  0.13870821928E+02  0.19519228153E+03  0.75717857889E+03  0.80074704295E+03  0.17200000000E+03 0.  1.
         -6    1    1    2    0  503 -0.13870821928E+02 -0.19519228153E+03  0.42025842055E+03  0.49446290711E+03  0.17200000000E+03 0. -1.
</event>
<event>
 4    1  0.6129841E-001  0.2107426E+03  0.7818608E-02  0.1140979E+00
         21   -1    0    0  503  502  0.00000000000E+00  0.00000000000E+00  0.19096533836E+02  0.19096533836E+02  0.00000000000E+00 0.  1.
         21   -1    0    0  501  503 -0.00000000000E+00 -0.00000000000E+00 -0.29910551812E+04  0.29910551812E+04  0.00000000000E+00 0. -1.
          6    1    1    2  501    0  0.10393878343E+03 -0.63444216799E+02 -0.21958500405E+04  0.22059396727E+04  0.17200000000E+03 0. -1.
         -6    1    1    2    0  502 -0.10393878343E+03  0.63444216799E+02 -0.77610860688E+03  0.80421204233E+03  0.17200000000E+03 0.  1.
</event>
<event>
 4    1  0.6129841E-001  0.2046104E+03  0.7818608E-02  0.1145907E+00
         21   -1    0    0  503  502  0.00000000000E+00  0.00000000000E+00  0.87254591169E+03  0.87254591169E+03  0.00000000000E+00 0. -1.
         21   -1    0    0  501  503 -0.00000000000E+00 -0.00000000000E+00 -0.72702648985E+02  0.72702648985E+02  0.00000000000E+00 0. -1.
          6    1    1    2  501    0 -0.74661322897E+02 -0.81896836068E+02  0.12431995868E+03  0.23941774583E+03  0.17200000000E+03 0. -1.
         -6    1    1    2    0  502  0.74661322897E+02  0.81896836068E+02  0.67552330403E+03  0.70583081484E+03  0.17200000000E+03 0. -1.
</event>
<event>
 4    1  0.6129841E-001  0.3314362E+03  0.7818608E-02  0.1070503E+00
         21   -1    0    0  501  502  0.00000000000E+00  0.00000000000E+00  0.19844824621E+03  0.19844824621E+03  0.00000000000E+00 0. -1.
         21   -1    0    0  502  503 -0.00000000000E+00 -0.00000000000E+00 -0.83090765630E+03  0.83090765630E+03  0.00000000000E+00 0.  1.
          6    1    1    2  501    0  0.11302681446E+03 -0.25979007306E+03 -0.18869026932E+02  0.33197286489E+03  0.17200000000E+03 0.  1.
         -6    1    1    2    0  503 -0.11302681446E+03  0.25979007306E+03 -0.61359038316E+03  0.69738303761E+03  0.17200000000E+03 0.  1.
</event>
<event>
 4    1  0.6129841E-001  0.1817347E+03  0.7818608E-02  0.1166135E+00
         21   -1    0    0  501  502  0.00000000000E+00  0.00000000000E+00  0.37219306952E+03  0.37219306952E+03  0.00000000000E+00 0. -1.
         21   -1    0    0  502  503 -0.00000000000E+00 -0.00000000000E+00 -0.15462407891E+03  0.15462407891E+03  0.00000000000E+00 0.  1.
          6    1    1    2  501    0 -0.35459224469E+02  0.46756126717E+02  0.28072956987E+03  0.33441977122E+03  0.17200000000E+03 0. -1.
         -6    1    1    2    0  503  0.35459224469E+02 -0.46756126717E+02 -0.63160579256E+02  0.19239737721E+03  0.17200000000E+03 0.  1.
</event>
<event>
 4    1  0.6129841E-001  0.2283085E+03  0.7818608E-02  0.1127836E+00
         21   -1    0    0  503  502  0.00000000000E+00  0.00000000000E+00  0.30400849222E+03  0.30400849222E+03  0.00000000000E+00 0.  1.
         21   -1    0    0  501  503 -0.00000000000E+00 -0.00000000000E+00 -0.17180239601E+03  0.17180239601E+03  0.00000000000E+00 0.  1.
          6    1    1    2  501    0 -0.10851651288E+03  0.10375423488E+03  0.76750331155E+02  0.24086383738E+03  0.17200000000E+03 0.  1.
         -6    1    1    2    0  502  0.10851651288E+03 -0.10375423488E+03  0.55455765055E+02  0.23494705084E+03  0.17200000000E+03 0.  1.
</event>
<event>
 4    1  0.6129841E-001  0.3250658E+03  0.7818608E-02  0.1073341E+00
         21   -1    0    0  503  502  0.00000000000E+00  0.00000000000E+00  0.32693688047E+03  0.32693688047E+03  0.00000000000E+00 0.  1.
         21   -1    0    0  501  503 -0.00000000000E+00 -0.00000000000E+00 -0.34384969083E+03  0.34384969083E+03  0.00000000000E+00 0. -1.
          6    1    1    2  501    0 -0.24941260217E+03  0.11780115669E+03 -0.90637181841E+02  0.33746534247E+03  0.17200000000E+03 0.  1.
         -6    1    1    2    0  502  0.24941260217E+03 -0.11780115669E+03  0.73724371485E+02  0.33332122883E+03  0.17200000000E+03 0. -1.
</event>
<event>
 4    1  0.6129841E-001  0.1809531E+03  0.7818608E-02  0.1166884E+00
         21   -1    0    0  501  502  0.00000000000E+00  0.00000000000E+00  0.95060643928E+02  0.95060643928E+02  0.00000000000E+00 0. -1.
         21   -1    0    0  502  503 -0.00000000000E+00 -0.00000000000E+00 -0.43848934954E+03  0.43848934954E+03  0.00000000000E+00 0.  1.
          6    1    1    2  501    0 -0.54869787098E+02 -0.12220540954E+02 -0.48173447702E+02  0.18725575084E+03  0.17200000000E+03 0. -1.
         -6    1    1    2    0  503  0.54869787098E+02  0.12220540954E+02 -0.29525525791E+03  0.34629424263E+03  0.17200000000E+03 0.  1.
</event>
<event>
 4    1  0.6129841E-001  0.2031566E+03  0.7818608E-02  0.1147103E+00
         21   -1    0    0  503  502  0.00000000000E+00  0.00000000000E+00  0.65259211345E+03  0.65259211345E+03  0.00000000000E+00 0. -1.
         21   -1    0    0  501  503 -0.00000000000E+00 -0.00000000000E+00 -0.70808421444E+02  0.70808421444E+02  0.00000000000E+00 0. -1.
          6    1    1    2  501    0 -0.63448074493E+02  0.87538197823E+02  0.17267165576E+03  0.26662350785E+03  0.17200000000E+03 0. -1.
         -6    1    1    2    0  502  0.63448074493E+02 -0.87538197823E+02  0.40911203624E+03  0.45677702704E+03  0.17200000000E+03 0. -1.
</event>
<event>
 4    1  0.6129841E-001  0.1896711E+03  0.7818608E-02  0.1158758E+00
         21   -1    0    0  501  502  0.00000000000E+00  0.00000000000E+00  0.18394325970E+02  0.18394325970E+02  0.00000000000E+00 0. -1.
         21   -1    0    0  502  503 -0.00000000000E+00 -0.00000000000E+00 -0.22198908773E+04  0.22198908773E+04  0.00000000000E+00 0. -1.
          6    1    1    2  501    0  0.79673382991E+02 -0.65775901883E+01 -0.71472000215E+03  0.73945912269E+03  0.17200000000E+03 0. -1.
         -6    1    1    2    0  503 -0.79673382991E+02  0.65775901883E+01 -0.14867765492E+04  0.14988260806E+04  0.17200000000E+03 0. -1.
</event>
<event>
 4    1  0.6129841E-001  0.2139431E+03  0.7818608E-02  0.1138481E+00
         21   -1    0    0  503  502  0.00000000000E+00  0.00000000000E+00  0.64372015448E+03  0.64372015448E+03  0.00000000000E+00 0.  1.
         21   -1    0    0  501  503 -0.00000000000E+00 -0.00000000000E+00 -0.72975065455E+02  0.72975065455E+02  0.00000000000E+00 0.  1.
          6    1    1    2  501    0 -0.10691113767E+03 -0.68975793570E+02  0.22800604910E+03  0.31266341308E+03  0.17200000000E+03 0.  1.
         -6    1    1    2    0  502  0.10691113767E+03  0.68975793570E+02  0.34273903993E+03  0.40403180685E+03  0.17200000000E+03 0.  1.
</event>
<event>
 4    1  0.6129841E-001  0.1735692E+03  0.7818608E-02  0.1174176E+00
         21   -1    0    0  501  502  0.00000000000E+00  0.00000000000E+00  0.27777627618E+02  0.27777627618E+02  0.00000000000E+00 0.  1.
         21   -1    0    0  502  503 -0.00000000000E+00 -0.00000000000E+00 -0.11199564353E+04  0.11199564353E+04  0.00000000000E+00 0.  1.
          6    1    1    2  501    0 -0.18709367508E+02 -0.13864322858E+02 -0.64812326926E+03  0.67096201981E+03  0.17200000000E+03 0. -1.
         -6    1    1    2    0  503  0.18709367508E+02  0.13864322858E+02 -0.44405553845E+03  0.47677204313E+03  0.17200000000E+03 0. -1.
</event>
<event>
 4    1  0.6129841E-001  0.2154343E+03  0.7818608E-02  0.1137333E+00
         21   -1    0    0  501  502  0.00000000000E+00  0.00000000000E+00  0.34657749503E+03  0.34657749503E+03  0.00000000000E+00 0. -1.
         21   -1    0    0  502  503 -0.00000000000E+00 -0.00000000000E+00 -0.17697089507E+03  0.17697089507E+03  0.00000000000E+00 0. -1.
          6    1    1    2  501    0  0.25780333632E+02 -0.12713505696E+03  0.21392281451E+03  0.30360322606E+03  0.17200000000E+03 0. -1.
         -6    1    1    2    0  503 -0.25780333632E+02  0.12713505696E+03 -0.44316214548E+02  0.21994516403E+03  0.17200000000E+03 0. -1.
</event>
<event>
 4    1  0.6129841E-001  0.2014611E+03  0.7818608E-02  0.1148512E+00
         21   -1    0    0  503  502  0.00000000000E+00  0.00000000000E+00  0.77136408160E+03  0.77136408160E+03  0.00000000000E+00 0. -1.
         21   -1    0    0  501  503 -0.00000000000E+00 -0.00000000000E+00 -0.57248128580E+02  0.57248128580E+02  0.00000000000E+00 0.  1.
          6    1    1    2  501    0 -0.10397682583E+03  0.13834437305E+02  0.47490044988E+03  0.51586530147E+03  0.17200000000E+03 0.  1.
         -6    1    1    2    0  502  0.10397682583E+03 -0.13834437305E+02  0.23921550315E+03  0.31274690872E+03  0.17200000000E+03 0.  1.
</event>
<event>
 4    1  0.6129841E-001  0.1919392E+03  0.7818608E-02  0.1156724E+00
         21   -1    0    0  503  502  0.00000000000E+00  0.00000000000E+00  0.43848960391E+03  0.43848960391E+03  0.00000000000E+00 0.  1.
         21   -1    0    0  501  503 -0.00000000000E+00 -0.00000000000E+00 -0.94489097176E+02  0.94489097176E+02  0.00000000000E+00 0.  1.
          6    1    1    2  501    0 -0.25172083072E+02 -0.81381870902E+02  0.83284054402E+02  0.20922924364E+03  0.17200000000E+03 0.  1.
         -6    1    1    2    0  502  0.25172083072E+02  0.81381870902E+02  0.26071645233E+03  0.32374945744E+03  0.17200000000E+03 0.  1.
</event>
<event>
 4    1  0.6129841E-001  0.1837470E+03  0.7818608E-02  0.1164225E+00
         21   -1    0    0  503  502  0.00000000000E+00  0.00000000000E+00  0.25403070567E+03  0.25403070567E+03  0.00000000000E+00 0.  1.
         21   -1    0    0  501  503 -0.00000000000E+00 -0.00000000000E+00 -0.14694937511E+03  0.14694937511E+03  0.00000000000E+00 0. -1.
          6    1    1    2  501    0 -0.51687500640E+02  0.38824635949E+02  0.11551320874E+03  0.21703974629E+03  0.17200000000E+03 0.  1.
         -6    1    1    2    0  502  0.51687500640E+02 -0.38824635949E+02 -0.84318781799E+01  0.18394033448E+03  0.17200000000E+03 0. -1.
</event>
<event>
 4    1  0.6129841E-001  0.1805392E+03  0.7818608E-02  0.1167282E+00
         21   -1    0    0  503  502  0.00000000000E+00  0.00000000000E+00  0.62893982269E+02  0.62893982269E+02  0.00000000000E+00 0. -1.
         21   -1    0    0  501  503 -0.00000000000E+00 -0.00000000000E+00 -0.58041752137E+03  0.58041752137E+03  0.00000000000E+00 0. -1.
          6    1    1    2  501    0 -0.27081172629E+01 -0.54800345765E+02 -0.15348689079E+03  0.23696547731E+03  0.17200000000E+03 0. -1.
         -6    1    1    2    0  502  0.27081172629E+01  0.54800345765E+02 -0.36403664831E+03  0.40634602633E+03  0.17200000000E+03 0. -1.
</event>
<event>
 4    1  0.6129841E-001  0.1821519E+03  0.7818608E-02  0.1165737E+00
         21   -1    0    0  501  502  0.00000000000E+00  0.00000000000E+00  0.78099348959E+02  0.78099348959E+02  0.00000000000E+00 0. -1.
         21   -1    0    0  502  503 -0.00000000000E+00 -0.00000000000E+00 -0.46431037320E+03  0.46431037320E+03  0.00000000000E+00 0. -1.
          6    1    1    2  501    0 -0.58866228430E+02  0.11405373943E+02 -0.11402710482E+03  0.21489880418E+03  0.17200000000E+03 0.  1.
         -6    1    1    2    0  503  0.58866228430E+02 -0.11405373943E+02 -0.27218391941E+03  0.32751091797E+03  0.17200000000E+03 0.  1.
</event>
<event>
 4    1  0.6129841E-001  0.2285013E+03  0.7818608E-02  0.1127699E+00
         21   -1    0    0  503  502  0.00000000000E+00  0.00000000000E+00  0.44228589842E+03  0.44228589842E+03  0.00000000000E+00 0. -1.
         21   -1    0    0  501  503 -0.00000000000E+00 -0.00000000000E+00 -0.12919640682E+03  0.12919640682E+03  0.00000000000E+00 0.  1.
          6    1    1    2  501    0 -0.32958311940E+02 -0.14677395087E+03  0.72623622000E+02  0.23976453752E+03  0.17200000000E+03 0.  1.
         -6    1    1    2    0  502  0.32958311940E+02  0.14677395087E+03  0.24046586961E+03  0.33171776773E+03  0.17200000000E+03 0. -1.
</event>
<event>
 4    1  0.6129841E-001  0.2264960E+03  0.7818608E-02  0.1129131E+00
         21   -1    0    0  501  502  0.00000000000E+00  0.00000000000E+00  0.49107009175E+03  0.49107009175E+03  0.00000000000E+00 0.  1.
         21   -1    0    0  502  503 -0.00000000000E+00 -0.00000000000E+00 -0.10529159226E+03  0.10529159226E+03  0.00000000000E+00 0. -1.
          6    1    1    2  501    0  0.91145333853E+02  0.11579702504E+03  0.21928340720E+03  0.31525487397E+03  0.17200000000E+03 0.  1.
         -6    1    1    2    0  503 -0.91145333853E+02 -0.11579702504E+03  0.16649509229E+03  0.28110681004E+03  0.17200000000E+03 0.  1.
</event>
<event>
 4    1  0.6129841E-001  0.2134472E+03  0.7818608E-02  0.1138865E+00
         21   -1    0    0  501  502  0.00000000000E+00  0.00000000000E+00  0.93375713937E+02  0.93375713937E+02  0.00000000000E+00 0.  1.
         21   -1    0    0  502  503 -0.00000000000E+00 -0.00000000000E+00 -0.55777612489E+03  0.55777612489E+03  0.00000000000E+00 0. -1.
          6    1    1    2  501    0 -0.12637131462E+03 -0.24449368790E+01 -0.11697939270E+03  0.24340062693E+03  0.17200000000E+03 0.  1.
         -6    1    1    2    0  503  0.12637131462E+03  0.24449368790E+01 -0.34742101826E+03  0.40775121189E+03  0.17200000000E+03 0. -1.
</event>
<event>
 4    1  0.6129841E-001  0.2465587E+03  0.7818608E-02  0.1115499E+00
         21   -1    0    0  503  502  0.00000000000E+00  0.00000000000E+00  0.11983600006E+03  0.11983600006E+03  0.00000000000E+00 0. -1.
         21   -1    0    0  501  503 -0.00000000000E+00 -0.00000000000E+00 -0.87494837003E+03  0.87494837003E+03  0.00000000000E+00 0.  1.
          6    1    1    2  501    0 -0.15071421560E+03  0.92154363745E+02 -0.55128771916E+02  0.25264675544E+03  0.17200000000E+03 0. -1.
         -6    1    1    2    0  502  0.15071421560E+03 -0.92154363745E+02 -0.69998359805E+03  0.74213761465E+03  0.17200000000E+03 0. -1.
</event>
<event>
 4    1  0.6129841E-001  0.1767248E+03  0.7818608E-02  0.1171011E+00
         21   -1    0    0  503  502  0.00000000000E+00  0.00000000000E+00  0.75277890294E+03  0.75277890294E+03  0.00000000000E+00 0.  1.
         21   -1    0    0  501  503 -0.00000000000E+00 -0.00000000000E+00 -0.14302268415E+03  0.14302268415E+03  0.00000000000E+00 0.  1.
          6    1    1    2  501    0 -0.38693944776E+02 -0.12265844938E+02 -0.72507641100E+02  0.19102102066E+03  0.17200000000E+03 0.  1.
         -6    1    1    2    0  502  0.38693944776E+02  0.12265844938E+02  0.68226385989E+03  0.70478056643E+03  0.17200000000E+03 0.  1.
</event>
<event>
 4    1  0.6129841E-001  0.1758330E+03  0.7818608E-02  0.1171898E+00
         21   -1    0    0  501  502  0.00000000000E+00  0.00000000000E+00  0.23368958186E+03  0.23368958186E+03  0.00000000000E+00 0.  1.
         21   -1    0    0  502  503 -0.00000000000E+00 -0.00000000000E+00 -0.20272159106E+03  0.20272159106E+03  0.00000000000E+00 0.  1.
          6    1    1    2  501    0  0.34683011562E+02  0.11415717976E+02  0.14409184673E+03  0.22733167443E+03  0.17200000000E+03 0.  1.
         -6    1    1    2    0  503 -0.34683011562E+02 -0.11415717976E+02 -0.11312385593E+03  0.20907949849E+03  0.17200000000E+03 0.  1.
</event>
<event>
 4    1  0.6129841E-001  0.1949213E+03  0.7818608E-02  0.1154096E+00
         21   -1    0    0  503  502  0.00000000000E+00  0.00000000000E+00  0.11671132229E+04  0.11671132229E+04  0.00000000000E+00 0. -1.
         21   -1    0    0  501  503 -0.00000000000E+00 -0.00000000000E+00 -0.34791585743E+02  0.34791585743E+02  0.00000000000E+00 0. -1.
          6    1    1    2  501    0 -0.90406315120E+02  0.15395572643E+02  0.41376161545E+03  0.45737621264E+03  0.17200000000E+03 0. -1.
         -6    1    1    2    0  502  0.90406315120E+02 -0.15395572643E+02  0.71856002175E+03  0.74452859604E+03  0.17200000000E+03 0. -1.
</event>
<event>
 4    1  0.6129841E-001  0.2813798E+03  0.7818608E-02  0.1094938E+00
         21   -1    0    0  503  502  0.00000000000E+00  0.00000000000E+00  0.39268227223E+03  0.39268227223E+03  0.00000000000E+00 0.  1.
         21   -1    0    0  501  503 -0.00000000000E+00 -0.00000000000E+00 -0.20162506831E+03  0.20162506831E+03  0.00000000000E+00 0.  1.
          6    1    1    2  501    0 -0.20705720550E+03 -0.81962658660E+02  0.95357680302E+02  0.29709872258E+03  0.17200000000E+03 0.  1.
         -6    1    1    2    0  502  0.20705720550E+03  0.81962658660E+02  0.95699523617E+02  0.29720861795E+03  0.17200000000E+03 0.  1.
</event>
<event>
 4    1  0.6129841E-001  0.1793496E+03  0.7818608E-02  0.1168434E+00
         21   -1    0    0  501  502  0.00000000000E+00  0.00000000000E+00  0.20401773213E+04  0.20401773213E+04  0.00000000000E+00 0.  1.
         21   -1    0    0  502  503 -0.00000000000E+00 -0.00000000000E+00 -0.48771388388E+02  0.48771388388E+02  0.00000000000E+00 0.  1.
          6    1    1    2  501    0 -0.30005639353E+02  0.41011617441E+02  0.18549239737E+04  0.18635743182E+04  0.17200000000E+03 0.  1.
         -6    1    1    2    0  503  0.30005639353E+02 -0.41011617441E+02  0.13648195921E+03  0.22537439151E+03  0.17200000000E+03 0.  1.
</event>
<event>
 4    1  0.6129841E-001  0.2095099E+03  0.7818608E-02  0.1141955E+00
         21   -1    0    0  503  502  0.00000000000E+00  0.00000000000E+00  0.41400861341E+03  0.41400861341E+03  0.00000000000E+00 0.  1.
         21   -1    0    0  501  503 -0.00000000000E+00 -0.00000000000E+00 -0.10616404045E+03  0.10616404045E+03  0.00000000000E+00 0. -1.
          6    1    1    2  501    0 -0.11929798018E+03 -0.88534319824E+01  0.16340568051E+03  0.26569871613E+03  0.17200000000E+03 0.  1.
         -6    1    1    2    0  502  0.11929798018E+03  0.88534319824E+01  0.14443889245E+03  0.25447393773E+03  0.17200000000E+03 0. -1.
</event>
<event>
 4    1  0.6129841E-001  0.3608947E+03  0.7818608E-02  0.1058230E+00
         21   -1    0    0  503  502  0.00000000000E+00  0.00000000000E+00  0.71345606184E+03  0.71345606184E+03  0.00000000000E+00 0.  1.
         21   -1    0    0  501  503 -0.00000000000E+00 -0.00000000000E+00 -0.19173075259E+03  0.19173075259E+03  0.00000000000E+00 0. -1.
          6    1    1    2  501    0 -0.69682057537E+02 -0.30952443569E+03  0.16185166998E+03  0.39552614137E+03  0.17200000000E+03 0. -1.
         -6    1    1    2    0  502  0.69682057537E+02  0.30952443569E+03  0.35987363926E+03  0.50966067306E+03  0.17200000000E+03 0.  1.
</event>
<event>
 4    1  0.6129841E-001  0.1833563E+03  0.7818608E-02  0.1164594E+00
         21   -1    0    0  503  502  0.00000000000E+00  0.00000000000E+00  0.27312362776E+02  0.27312362776E+02  0.00000000000E+00 0. -1.
         21   -1    0    0  501  503 -0.00000000000E+00 -0.00000000000E+00 -0.12504062497E+04  0.12504062497E+04  0.00000000000E+00 0. -1.
          6    1    1    2  501    0  0.38920421452E+02  0.50206725393E+02 -0.53180809282E+03  0.56252943218E+03  0.17200000000E+03 0. -1.
         -6    1    1    2    0  502 -0.38920421452E+02 -0.50206725393E+02 -0.69128579410E+03  0.71518918029E+03  0.17200000000E+03 0. -1.
</event>
<event>
 4    1  0.6129841E-001  0.1735378E+03  0.7818608E-02  0.1174208E+00
         21   -1    0    0  503  502  0.00000000000E+00  0.00000000000E+00  0.58349621794E+02  0.58349621794E+02  0.00000000000E+00 0.  1.
         21   -1    0    0  501  503 -0.00000000000E+00 -0.00000000000E+00 -0.70887639648E+03  0.70887639648E+03  0.00000000000E+00 0.  1.
          6    1    1    2  501    0  0.22981756233E+02 -0.17875580571E+01 -0.52530181833E+03  0.55322450852E+03  0.17200000000E+03 0.  1.
         -6    1    1    2    0  502 -0.22981756233E+02  0.17875580571E+01 -0.12522495635E+03  0.21400150975E+03  0.17200000000E+03 0.  1.
</event>
<event>
 4    1  0.6129841E-001  0.2323323E+03  0.7818608E-02  0.1125009E+00
         21   -1    0    0  501  502  0.00000000000E+00  0.00000000000E+00  0.83991102725E+03  0.83991102725E+03  0.00000000000E+00 0. -1.
         21   -1    0    0  502  503 -0.00000000000E+00 -0.00000000000E+00 -0.64441699134E+02  0.64441699134E+02  0.00000000000E+00 0. -1.
          6    1    1    2  501    0  0.53519649430E+02  0.14673092810E+03  0.36417167842E+03  0.43197144523E+03  0.17200000000E+03 0.  1.
         -6    1    1    2    0  503 -0.53519649430E+02 -0.14673092810E+03  0.41129764970E+03  0.47238128115E+03  0.17200000000E+03 0.  1.
</event>
<event>
 4    1  0.6129841E-001  0.2931195E+03  0.7818608E-02  0.1088732E+00
         21   -1    0    0  503  502  0.00000000000E+00  0.00000000000E+00  0.16072995142E+04  0.16072995142E+04  0.00000000000E+00 0. -1.
         21   -1    0    0  501  503 -0.00000000000E+00 -0.00000000000E+00 -0.71482328325E+02  0.71482328325E+02  0.00000000000E+00 0.  1.
          6    1    1    2  501    0  0.39461685218E+02  0.23404661563E+03  0.34638270052E+03  0.45376207213E+03  0.17200000000E+03 0.  1.
         -6    1    1    2    0  502 -0.39461685218E+02 -0.23404661563E+03  0.11894344854E+04  0.12250197704E+04  0.17200000000E+03 0. -1.
</event>
<event>
 4    1  0.6129841E-001  0.1739302E+03  0.7818608E-02  0.1173810E+00
         21   -1    0    0  503  502  0.00000000000E+00  0.00000000000E+00  0.57074606625E+02  0.57074606625E+02  0.00000000000E+00 0.  1.
         21   -1    0    0  501  503 -0.00000000000E+00 -0.00000000000E+00 -0.57738177470E+03  0.57738177470E+03  0.00000000000E+00 0.  1.
          6    1    1    2  501    0 -0.12605350043E+02  0.22556989130E+02 -0.35099240683E+03  0.39172360442E+03  0.17200000000E+03 0.  1.
         -6    1    1    2    0  502  0.12605350043E+02 -0.22556989130E+02 -0.16931476125E+03  0.24273277691E+03  0.17200000000E+03 0.  1.
</event>
<event>
 4    1  0.6129841E-001  0.2308560E+03  0.7818608E-02  0.1126039E+00
         21   -1    0    0  503  502  0.00000000000E+00  0.00000000000E+00  0.19641061053E+03  0.19641061053E+03  0.00000000000E+00 0. -1.
         21   -1    0    0  501  503 -0.00000000000E+00 -0.00000000000E+00 -0.53141217012E+03  0.53141217012E+03  0.00000000000E+00 0.  1.
          6    1    1    2  501    0  0.10452733758E+03  0.11306875359E+03 -0.42208115318E+03  0.48108939628E+03  0.17200000000E+03 0.  1.
         -6    1    1    2    0  502 -0.10452733758E+03 -0.11306875359E+03  0.87079593595E+02  0.24673338437E+03  0.17200000000E+03 0. -1.
</event>
<event>
 4    1  0.6129841E-001  0.1881729E+03  0.7818608E-02  0.1160120E+00
         21   -1    0    0  501  502  0.00000000000E+00  0.00000000000E+00  0.38740255398E+03  0.38740255398E+03  0.00000000000E+00 0.  1.
         21   -1    0    0  502  503 -0.00000000000E+00 -0.00000000000E+00 -0.99033131133E+02  0.99033131133E+02  0.00000000000E+00 0. -1.
          6    1    1    2  501    0 -0.25938086851E+02 -0.71779298224E+02  0.76666199555E+02  0.20319143229E+03  0.17200000000E+03 0. -1.
         -6    1    1    2    0  503  0.25938086851E+02  0.71779298224E+02  0.21170322329E+03  0.28324425282E+03  0.17200000000E+03 0.  1.
</event>
<event>
 4    1  0.6129841E-001  0.1871816E+03  0.7818608E-02  0.1161028E+00
         21   -1    0    0  501  502  0.00000000000E+00  0.00000000000E+00  0.84676152623E+02  0.84676152623E+02  0.00000000000E+00 0. -1.
         21   -1    0    0  502  503 -0.00000000000E+00 -0.00000000000E+00 -0.41377605490E+03  0.41377605490E+03  0.00000000000E+00 0. -1.
          6    1    1    2  501    0 -0.73758510477E+02 -0.35556773644E+01 -0.16446932149E+03  0.24917286855E+03  0.17200000000E+03 0.  1.
         -6    1    1    2    0  503  0.73758510477E+02  0.35556773644E+01 -0.16463058078E+03  0.24927933897E+03  0.17200000000E+03 0.  1.
</event>
<event>
 4    1  0.6129841E-001  0.1778763E+03  0.7818608E-02  0.1169874E+00
         21   -1    0    0  501  502  0.00000000000E+00  0.00000000000E+00  0.63797060842E+02  0.63797060842E+02  0.00000000000E+00 0. -1.
         21   -1    0    0  502  503 -0.00000000000E+00 -0.00000000000E+00 -0.80606405565E+03  0.80606405565E+03  0.00000000000E+00 0. -1.
          6    1    1    2  501    0  0.40857772421E+02  0.19663007164E+02 -0.10136102260E+03  0.20472920730E+03  0.17200000000E+03 0. -1.
         -6    1    1    2    0  503 -0.40857772421E+02 -0.19663007164E+02 -0.64090597220E+03  0.66513190919E+03  0.17200000000E+03 0. -1.
</event>
<event>
 4    1  0.6129841E-001  0.2306423E+03  0.7818608E-02  0.1126189E+00
         21   -1    0    0  503  502  0.00000000000E+00  0.00000000000E+00  0.98353384429E+02  0.98353384429E+02  0.00000000000E+00 0.  1.
         21   -1    0    0  501  503 -0.00000000000E+00 -0.00000000000E+00 -0.55751234659E+03  0.55751234659E+03  0.00000000000E+00 0.  1.
          6    1    1    2  501    0  0.81846546719E+02 -0.13004996576E+03 -0.17291157470E+03  0.28826075604E+03  0.17200000000E+03 0.  1.
         -6    1    1    2    0  502 -0.81846546719E+02  0.13004996576E+03 -0.28624738746E+03  0.36760497498E+03  0.17200000000E+03 0.  1.
</event>
<event>
 4    1  0.6129841E-001  0.1814002E+03  0.7818608E-02  0.1166455E+00
         21   -1    0    0  501  502  0.00000000000E+00  0.00000000000E+00  0.16905547991E+04  0.16905547991E+04  0.00000000000E+00 0. -1.
         21   -1    0    0  502  503 -0.00000000000E+00 -0.00000000000E+00 -0.23378918417E+02  0.23378918417E+02  0.00000000000E+00 0. -1.
          6    1    1    2  501    0 -0.28532133684E+02  0.50079520972E+02  0.48293485942E+03  0.51587994681E+03  0.17200000000E+03 0. -1.
         -6    1    1    2    0  503  0.28532133684E+02 -0.50079520972E+02  0.11842410213E+04  0.11980537707E+04  0.17200000000E+03 0. -1.
</event>
<event>
 4    1  0.6129841E-001  0.1953921E+03  0.7818608E-02  0.1153686E+00
         21   -1    0    0  503  502  0.00000000000E+00  0.00000000000E+00  0.14632151166E+04  0.14632151166E+04  0.00000000000E+00 0. -1.
         21   -1    0    0  501  503 -0.00000000000E+00 -0.00000000000E+00 -0.26304050296E+02  0.26304050296E+02  0.00000000000E+00 0. -1.
          6    1    1    2  501    0  0.92702660830E+02  0.52281666945E+00  0.78534083510E+03  0.80928257361E+03  0.17200000000E+03 0. -1.
         -6    1    1    2    0  502 -0.92702660830E+02 -0.52281666945E+00  0.65157023120E+03  0.68023659329E+03  0.17200000000E+03 0. -1.
</event>
<event>
 4    1  0.6129841E-001  0.3129766E+03  0.7818608E-02  0.1078928E+00
         21   -1    0    0  503  502  0.00000000000E+00  0.00000000000E+00  0.94536727088E+03  0.94536727088E+03  0.00000000000E+00 0. -1.
         21   -1    0    0  501  503 -0.00000000000E+00 -0.00000000000E+00 -0.10424988426E+03  0.10424988426E+03  0.00000000000E+00 0. -1.
          6    1    1    2  501    0  0.17924945522E+03  0.19036804970E+03  0.37960786080E+03  0.49199236734E+03  0.17200000000E+03 0. -1.
         -6    1    1    2    0  502 -0.17924945522E+03 -0.19036804970E+03  0.46150952581E+03  0.55762478779E+03  0.17200000000E+03 0. -1.
</event>
<event>
 4    1  0.6129841E-001  0.2021512E+03  0.7818608E-02  0.1147937E+00
         21   -1    0    0  503  502  0.00000000000E+00  0.00000000000E+00  0.79641858545E+03  0.79641858545E+03  0.00000000000E+00 0. -1.
         21   -1    0    0  501  503 -0.00000000000E+00 -0.00000000000E+00 -0.74964551130E+02  0.74964551130E+02  0.00000000000E+00 0. -1.
          6    1    1    2  501    0 -0.24766541135E+02  0.10328473281E+03  0.11599071415E+03  0.23306429019E+03  0.17200000000E+03 0.  1.
         -6    1    1    2    0  502  0.24766541135E+02 -0.10328473281E+03  0.60546332017E+03  0.63831884639E+03  0.17200000000E+03 0.  1.
</event>
<event>
 4    1  0.6129841E-001  0.2167541E+03  0.7818608E-02  0.1136326E+00
         21   -1    0    0  501  502  0.00000000000E+00  0.00000000000E+00  0.50924645319E+02  0.50924645319E+02  0.00000000000E+00 0.  1.
         21   -1    0    0  502  503 -0.00000000000E+00 -0.00000000000E+00 -0.20924608535E+04  0.20924608535E+04  0.00000000000E+00 0.  1.
          6    1    1    2  501    0  0.36907070360E+02  0.12663414190E+03 -0.21943806496E+03  0.30844027314E+03  0.17200000000E+03 0.  1.
         -6    1    1    2    0  503 -0.36907070360E+02 -0.12663414190E+03 -0.18220981432E+04  0.18349452257E+04  0.17200000000E+03 0.  1.
</event>
<event>
 4    1  0.6129841E-001  0.2018804E+03  0.7818608E-02  0.1148162E+00
         21   -1    0    0  501  502  0.00000000000E+00  0.00000000000E+00  0.47041560181E+02  0.47041560181E+02  0.00000000000E+00 0. -1.
         21   -1    0    0  502  503 -0.00000000000E+00 -0.00000000000E+00 -0.11862529955E+04  0.11862529955E+04  0.00000000000E+00 0. -1.
          6    1    1    2  501    0 -0.93507242454E+02  0.49275511274E+02 -0.24939221750E+03  0.32086158784E+03  0.17200000000E+03 0. -1.
         -6    1    1    2    0  503  0.93507242454E+02 -0.49275511274E+02 -0.88981921787E+03  0.91243296789E+03  0.17200000000E+03 0. -1.
</event>
<event>
 4    1  0.6129841E-001  0.1916098E+03  0.7818608E-02  0.1157017E+00
         21   -1    0    0  503  502  0.00000000000E+00  0.00000000000E+00  0.14190233419E+03  0.14190233419E+03  0.00000000000E+00 0. -1.
         21   -1    0    0  501  503 -0.00000000000E+00 -0.00000000000E+00 -0.30778982994E+03  0.30778982994E+03  0.00000000000E+00 0.  1.
          6    1    1    2  501    0 -0.30437777867E+02 -0.78764462163E+02 -0.17271227172E+03  0.25796090329E+03  0.17200000000E+03 0.  1.
         -6    1    1    2    0  502  0.30437777867E+02  0.78764462163E+02  0.68247759689E+01  0.19173126085E+03  0.17200000000E+03 0. -1.
</event>
<event>
 4    1  0.6129841E-001  0.1885752E+03  0.7818608E-02  0.1159753E+00
         21   -1    0    0  501  502  0.00000000000E+00  0.00000000000E+00  0.13843189378E+03  0.13843189378E+03  0.00000000000E+00 0. -1.
         21   -1    0    0  502  503 -0.00000000000E+00 -0.00000000000E+00 -0.27614890501E+03  0.27614890501E+03  0.00000000000E+00 0. -1.
          6    1    1    2  501    0 -0.79593723515E+01 -0.76897788609E+02 -0.14104388638E+02  0.18910197059E+03  0.17200000000E+03 0. -1.
         -6    1    1    2    0  503  0.79593723515E+01  0.76897788609E+02 -0.12361262259E+03  0.22547882820E+03  0.17200000000E+03 0. -1.
</event>
<event>
 4    1  0.6129841E-001  0.2314554E+03  0.7818608E-02  0.1125620E+00
         21   -1    0    0  503  502  0.00000000000E+00  0.00000000000E+00  0.92385474231E+03  0.92385474231E+03  0.00000000000E+00 0. -1.
         21   -1    0    0  501  503 -0.00000000000E+00 -0.00000000000E+00 -0.64687803262E+02  0.64687803262E+02  0.00000000000E+00 0. -1.
          6    1    1    2  501    0  0.10842125526E+03 -0.11060041828E+03  0.27050345155E+03  0.35601086840E+03  0.17200000000E+03 0. -1.
         -6    1    1    2    0  502 -0.10842125526E+03  0.11060041828E+03  0.58866348750E+03  0.63253167718E+03  0.17200000000E+03 0. -1.
</event>
<event>
 4    1  0.6129841E-001  0.1805366E+03  0.7818608E-02  0.1167285E+00
         21   -1    0    0  503  502  0.00000000000E+00  0.00000000000E+00  0.11472861824E+03  0.11472861824E+03  0.00000000000E+00 0. -1.
         21   -1    0    0  501  503 -0.00000000000E+00 -0.00000000000E+00 -0.29211809375E+03  0.29211809375E+03  0.00000000000E+00 0. -1.
          6    1    1    2  501    0 -0.51219877020E+02  0.19647032270E+02 -0.54975797205E+02  0.18872154079E+03  0.17200000000E+03 0. -1.
         -6    1    1    2    0  502  0.51219877020E+02 -0.19647032270E+02 -0.12241367830E+03  0.21812517121E+03  0.17200000000E+03 0. -1.
</event>
<event>
 4    1  0.6129841E-001  0.2441807E+03  0.7818608E-02  0.1117039E+00
         21   -1    0    0  503  502  0.00000000000E+00  0.00000000000E+00  0.64047639826E+03  0.64047639826E+03  0.00000000000E+00 0.  1.
         21   -1    0    0  501  503 -0.00000000000E+00 -0.00000000000E+00 -0.23183005296E+03  0.23183005296E+03  0.00000000000E+00 0. -1.
          6    1    1    2  501    0 -0.33781506408E+00  0.17332078021E+03 -0.13308036272E+03  0.27809097417E+03  0.17200000000E+03 0. -1.
         -6    1    1    2    0  502  0.33781506408E+00 -0.17332078021E+03  0.54172670802E+03  0.59421547704E+03  0.17200000000E+03 0.  1.
</event>
<event>
 4    1  0.6129841E-001  0.1761194E+03  0.7818608E-02  0.1171612E+00
         21   -1    0    0  501  502  0.00000000000E+00  0.00000000000E+00  0.10859228215E+04  0.10859228215E+04  0.00000000000E+00 0. -1.
         21   -1    0    0  502  503 -0.00000000000E+00 -0.00000000000E+00 -0.29346085061E+02  0.29346085061E+02  0.00000000000E+00 0. -1.
          6    1    1    2  501    0 -0.35207698970E+02  0.13944302883E+02  0.61933659846E+03  0.64389117701E+03  0.17200000000E+03 0. -1.
         -6    1    1    2    0  503  0.35207698970E+02 -0.13944302883E+02  0.43724013798E+03  0.47137772954E+03  0.17200000000E+03 0. -1.
</event>
<event>
 4    1  0.6129841E-001  0.2269194E+03  0.7818608E-02  0.1128827E+00
         21   -1    0    0  503  502  0.00000000000E+00  0.00000000000E+00  0.24160115976E+03  0.24160115976E+03  0.00000000000E+00 0.  1.
         21   -1    0    0  501  503 -0.00000000000E+00 -0.00000000000E+00 -0.21383390362E+03  0.21383390362E+03  0.00000000000E+00 0.  1.
          6    1    1    2  501    0  0.14782297147E+03  0.75349606256E+01  0.81659775182E+00  0.22692085263E+03  0.17200000000E+03 0.  1.
         -6    1    1    2    0  502 -0.14782297147E+03 -0.75349606256E+01  0.26950658387E+02  0.22851421075E+03  0.17200000000E+03 0.  1.
</event>
<event>
 4    1  0.6129841E-001  0.1903665E+03  0.7818608E-02  0.1158131E+00
         21   -1    0    0  501  502  0.00000000000E+00  0.00000000000E+00  0.22702870561E+03  0.22702870561E+03  0.00000000000E+00 0. -1.
         21   -1    0    0  502  503 -0.00000000000E+00 -0.00000000000E+00 -0.23269090055E+03  0.23269090055E+03  0.00000000000E+00 0. -1.
          6    1    1    2  501    0 -0.24227297635E+02  0.77900195692E+02  0.12597351544E+03  0.22827336470E+03  0.17200000000E+03 0. -1.
         -6    1    1    2    0  503  0.24227297635E+02 -0.77900195692E+02 -0.13163571038E+03  0.23144624146E+03  0.17200000000E+03 0. -1.
</event>
<event>
 4    1  0.6129841E-001  0.2911705E+03  0.7818608E-02  0.1089740E+00
         21   -1    0    0  501  502  0.00000000000E+00  0.00000000000E+00  0.17005673382E+04  0.17005673382E+04  0.00000000000E+00 0. -1.
         21   -1    0    0  502  503 -0.00000000000E+00 -0.00000000000E+00 -0.53578858855E+02  0.53578858855E+02  0.00000000000E+00 0.  1.
          6    1    1    2  501    0  0.68928835255E+02 -0.22459986926E+03  0.59224140619E+03  0.65994709546E+03  0.17200000000E+03 0.  1.
         -6    1    1    2    0  503 -0.68928835255E+02  0.22459986926E+03  0.10547470732E+04  0.10941991016E+04  0.17200000000E+03 0.  1.
</event>
<event>
 4    1  0.6129841E-001  0.3244853E+03  0.7818608E-02  0.1073603E+00
         21   -1    0    0  501  502  0.00000000000E+00  0.00000000000E+00  0.16374743922E+03  0.16374743922E+03  0.00000000000E+00 0. -1.
         21   -1    0    0  502  503 -0.00000000000E+00 -0.00000000000E+00 -0.83858928823E+03  0.83858928823E+03  0.00000000000E+00 0. -1.
          6    1    1    2  501    0 -0.14061062353E+03  0.23650651382E+03 -0.95388118022E+02  0.33821527403E+03  0.17200000000E+03 0.  1.
         -6    1    1    2    0  503  0.14061062353E+03 -0.23650651382E+03 -0.57945373099E+03  0.66412145342E+03  0.17200000000E+03 0.  1.
</event>
<event>
 4    1  0.6129841E-001  0.1951913E+03  0.7818608E-02  0.1153861E+00
         21   -1    0    0  503  502  0.00000000000E+00  0.00000000000E+00  0.56457690373E+03  0.56457690373E+03  0.00000000000E+00 0.  1.
         21   -1    0    0  501  503 -0.00000000000E+00 -0.00000000000E+00 -0.15224691507E+03  0.15224691507E+03  0.00000000000E+00 0. -1.
          6    1    1    2  501    0 -0.20535822986E+02 -0.89966186310E+02 -0.61266383872E+02  0.20458055748E+03  0.17200000000E+03 0. -1.
         -6    1    1    2    0  502  0.20535822986E+02  0.89966186310E+02  0.47359637253E+03  0.51224326133E+03  0.17200000000E+03 0.  1.
</event>
<event>
 4    1  0.6129841E-001  0.2312601E+03  0.7818608E-02  0.1125756E+00
         21   -1    0    0  503  502  0.00000000000E+00  0.00000000000E+00  0.28526410346E+04  0.28526410346E+04  0.00000000000E+00 0. -1.
         21   -1    0    0  501  503 -0.00000000000E+00 -0.00000000000E+00 -0.30257754529E+02  0.30257754529E+02  0.00000000000E+00 0. -1.
          6    1    1    2  501    0  0.14654026434E+03  0.49225937549E+02  0.52216543983E+03  0.57108492236E+03  0.17200000000E+03 0. -1.
         -6    1    1    2    0  502 -0.14654026434E+03 -0.49225937549E+02  0.23002178402E+04  0.23118138668E+04  0.17200000000E+03 0. -1.
</event>
<event>
 4    1  0.6129841E-001  0.2083072E+03  0.7818608E-02  0.1142914E+00
         21   -1    0    0  503  502  0.00000000000E+00  0.00000000000E+00  0.30762497831E+03  0.30762497831E+03  0.00000000000E+00 0. -1.
         21   -1    0    0  501  503 -0.00000000000E+00 -0.00000000000E+00 -0.25409723815E+03  0.25409723815E+03  0.00000000000E+00 0. -1.
          6    1    1    2  501    0 -0.97377266491E+02  0.65768945918E+02 -0.16056856343E+03  0.26300979039E+03  0.17200000000E+03 0. -1.
         -6    1    1    2    0  502  0.97377266491E+02 -0.65768945918E+02  0.21409630359E+03  0.29871242607E+03  0.17200000000E+03 0. -1.
</event>
<event>
 4    1  0.6129841E-001  0.1799647E+03  0.7818608E-02  0.1167837E+00
         21   -1    0    0  501  502  0.00000000000E+00  0.00000000000E+00  0.72742084512E+03  0.72742084512E+03  0.00000000000E+00 0. -1.
         21   -1    0    0  502  503 -0.00000000000E+00 -0.00000000000E+00 -0.57814903752E+02  0.57814903752E+02  0.00000000000E+00 0. -1.
          6    1    1    2  501    0 -0.51848708566E+02 -0.10724200133E+02  0.52305347561E+03  0.55314757109E+03  0.17200000000E+03 0. -1.
         -6    1    1    2    0  503  0.51848708566E+02  0.10724200133E+02  0.14655246575E+03  0.23208817778E+03  0.17200000000E+03 0. -1.
</event>
<event>
 4    1  0.6129841E-001  0.2177379E+03  0.7818608E-02  0.1135581E+00
         21   -1    0    0  503  502  0.00000000000E+00  0.00000000000E+00  0.74479651889E+03  0.74479651889E+03  0.00000000000E+00 0. -1.
         21   -1    0    0  501  503 -0.00000000000E+00 -0.00000000000E+00 -0.65927010415E+02  0.65927010415E+02  0.00000000000E+00 0.  1.
          6    1    1    2  501    0 -0.12226162913E+03 -0.53645876267E+02  0.41469169931E+03  0.46837911085E+03  0.17200000000E+03 0. -1.
         -6    1    1    2    0  502  0.12226162913E+03  0.53645876267E+02  0.26417780917E+03  0.34234441846E+03  0.17200000000E+03 0. -1.
</event>
<event>
 4    1  0.6129841E-001  0.1762835E+03  0.7818608E-02  0.1171449E+00
         21   -1    0    0  503  502  0.00000000000E+00  0.00000000000E+00  0.16295481300E+02  0.16295481300E+02  0.00000000000E+00 0. -1.
         21   -1    0    0  501  503 -0.00000000000E+00 -0.00000000000E+00 -0.21587238508E+04  0.21587238508E+04  0.00000000000E+00 0. -1.
          6    1    1    2  501    0 -0.24458750387E+01 -0.38547396480E+02 -0.69987094458E+03  0.72173071374E+03  0.17200000000E+03 0. -1.
         -6    1    1    2    0  502  0.24458750387E+01  0.38547396480E+02 -0.14425574249E+04  0.14532886184E+04  0.17200000000E+03 0. -1.
</event>
<event>
 4    1  0.6129841E-001  0.2219275E+03  0.7818608E-02  0.1132454E+00
         21   -1    0    0  501  502  0.00000000000E+00  0.00000000000E+00  0.87235882021E+02  0.87235882021E+02  0.00000000000E+00 0. -1.
         21   -1    0    0  502  503 -0.00000000000E+00 -0.00000000000E+00 -0.70957902072E+03  0.70957902072E+03  0.00000000000E+00 0.  1.
          6    1    1    2  501    0  0.11510139052E+03 -0.80121824818E+02 -0.13107471603E+03  0.25774487016E+03  0.17200000000E+03 0. -1.
         -6    1    1    2    0  503 -0.11510139052E+03  0.80121824818E+02 -0.49126842267E+03  0.53907003258E+03  0.17200000000E+03 0.  1.
</event>
<event>
 4    1  0.6129841E-001  0.2190016E+03  0.7818608E-02  0.1134630E+00
         21   -1    0    0  503  502  0.00000000000E+00  0.00000000000E+00  0.10241775437E+04  0.10241775437E+04  0.00000000000E+00 0.  1.
         21   -1    0    0  501  503 -0.00000000000E+00 -0.00000000000E+00 -0.53164601509E+02  0.53164601509E+02  0.00000000000E+00 0.  1.
          6    1    1    2  501    0  0.49141581967E+02  0.12634392531E+03  0.29955890782E+03  0.37107576287E+03  0.17200000000E+03 0.  1.
         -6    1    1    2    0  502 -0.49141581967E+02 -0.12634392531E+03  0.67145403442E+03  0.70626638238E+03  0.17200000000E+03 0.  1.
</event>
<event>
 4    1  0.6129841E-001  0.2061537E+03  0.7818608E-02  0.1144649E+00
         21   -1    0    0  501  502  0.00000000000E+00  0.00000000000E+00  0.16946389747E+04  0.16946389747E+04  0.00000000000E+00 0.  1.
         21   -1    0    0  502  503 -0.00000000000E+00 -0.00000000000E+00 -0.53738920242E+02  0.53738920242E+02  0.00000000000E+00 0.  1.
          6    1    1    2  501    0  0.88873165196E+02  0.70830173076E+02  0.14588613166E+04  0.14733552505E+04  0.17200000000E+03 0.  1.
         -6    1    1    2    0  503 -0.88873165196E+02 -0.70830173076E+02  0.18203873785E+03  0.27502264450E+03  0.17200000000E+03 0.  1.
</event>
<event>
 4    1  0.6129841E-001  0.1920150E+03  0.7818608E-02  0.1156656E+00
         21   -1    0    0  503  502  0.00000000000E+00  0.00000000000E+00  0.56551958894E+03  0.56551958894E+03  0.00000000000E+00 0. -1.
         21   -1    0    0  501  503 -0.00000000000E+00 -0.00000000000E+00 -0.73755268844E+02  0.73755268844E+02  0.00000000000E+00 0. -1.
          6    1    1    2  501    0  0.19160676643E+01  0.85335054756E+02  0.13699574348E+03  0.23587618917E+03  0.17200000000E+03 0. -1.
         -6    1    1    2    0  502 -0.19160676643E+01 -0.85335054756E+02  0.35476857662E+03  0.40339866861E+03  0.17200000000E+03 0. -1.
</event>
<event>
 4    1  0.6129841E-001  0.2026412E+03  0.7818608E-02  0.1147530E+00
         21   -1    0    0  501  502  0.00000000000E+00  0.00000000000E+00  0.12476717328E+03  0.12476717328E+03  0.00000000000E+00 0.  1.
         21   -1    0    0  502  503 -0.00000000000E+00 -0.00000000000E+00 -0.68977022164E+03  0.68977022164E+03  0.00000000000E+00 0.  1.
          6    1    1    2  501    0 -0.98072619219E+02  0.43141972502E+02  0.11989083137E+02  0.20299558258E+03  0.17200000000E+03 0.  1.
         -6    1    1    2    0  503  0.98072619219E+02 -0.43141972502E+02 -0.57699213150E+03  0.61154181234E+03  0.17200000000E+03 0.  1.
</event>
<event>
 4    1  0.6129841E-001  0.1895254E+03  0.7818608E-02  0.1158890E+00
         21   -1    0    0  503  502  0.00000000000E+00  0.00000000000E+00  0.86521768256E+03  0.86521768256E+03  0.00000000000E+00 0.  1.
         21   -1    0    0  501  503 -0.00000000000E+00 -0.00000000000E+00 -0.51312995177E+02  0.51312995177E+02  0.00000000000E+00 0. -1.
          6    1    1    2  501    0 -0.76520261914E+02 -0.21921195596E+02  0.60719761812E+03  0.63608870195E+03  0.17200000000E+03 0.  1.
         -6    1    1    2    0  502  0.76520261914E+02  0.21921195596E+02  0.20670706927E+03  0.28044197579E+03  0.17200000000E+03 0. -1.
</event>
<event>
 4    1  0.6129841E-001  0.4096292E+03  0.7818608E-02  0.1040496E+00
         21   -1    0    0  501  502  0.00000000000E+00  0.00000000000E+00  0.83535537404E+03  0.83535537404E+03  0.00000000000E+00 0.  1.
         21   -1    0    0  502  503 -0.00000000000E+00 -0.00000000000E+00 -0.21909890795E+03  0.21909890795E+03  0.00000000000E+00 0. -1.
          6    1    1    2  501    0  0.14221743870E+03 -0.34349126476E+03  0.46021220046E+03  0.61610982648E+03  0.17200000000E+03 0.  1.
         -6    1    1    2    0  503 -0.14221743870E+03  0.34349126476E+03  0.15604426563E+03  0.43834445551E+03  0.17200000000E+03 0. -1.
</event>
<event>
 4    1  0.6129841E-001  0.3605683E+03  0.7818608E-02  0.1058359E+00
         21   -1    0    0  501  502  0.00000000000E+00  0.00000000000E+00  0.13604407669E+04  0.13604407669E+04  0.00000000000E+00 0. -1.
         21   -1    0    0  502  503 -0.00000000000E+00 -0.00000000000E+00 -0.24588828586E+03  0.24588828586E+03  0.00000000000E+00 0.  1.
          6    1    1    2  501    0  0.28962264863E+03 -0.12862442373E+03  0.11852619946E+04  0.12388928593E+04  0.17200000000E+03 0. -1.
         -6    1    1    2    0  503 -0.28962264863E+03  0.12862442373E+03 -0.70709513538E+02  0.36743619349E+03  0.17200000000E+03 0.  1.
</event>
<event>
 4    1  0.6129841E-001  0.2561858E+03  0.7818608E-02  0.1109457E+00
         21   -1    0    0  503  502  0.00000000000E+00  0.00000000000E+00  0.16440542395E+03  0.16440542395E+03  0.00000000000E+00 0. -1.
         21   -1    0    0  501  503 -0.00000000000E+00 -0.00000000000E+00 -0.46826427323E+03  0.46826427323E+03  0.00000000000E+00 0. -1.
          6    1    1    2  501    0 -0.18588951820E+03 -0.38629541736E+02 -0.27341326434E+03  0.37468115457E+03  0.17200000000E+03 0. -1.
         -6    1    1    2    0  502  0.18588951820E+03  0.38629541736E+02 -0.30445584944E+02  0.25798854260E+03  0.17200000000E+03 0. -1.
</event>
<event>
 4    1  0.6129841E-001  0.2987655E+03  0.7818608E-02  0.1085859E+00
         21   -1    0    0  503  502  0.00000000000E+00  0.00000000000E+00  0.46235119831E+03  0.46235119831E+03  0.00000000000E+00 0. -1.
         21   -1    0    0  501  503 -0.00000000000E+00 -0.00000000000E+00 -0.36714731837E+03  0.36714731837E+03  0.00000000000E+00 0. -1.
          6    1    1    2  501    0 -0.18015233413E+03  0.16499078703E+03 -0.23799325182E+03  0.38197069418E+03  0.17200000000E+03 0. -1.
         -6    1    1    2    0  502  0.18015233413E+03 -0.16499078703E+03  0.33319713176E+03  0.44752782250E+03  0.17200000000E+03 0. -1.
</event>
<event>
 4    1  0.6129841E-001  0.1782839E+03  0.7818608E-02  0.1169474E+00
         21   -1    0    0  503  502  0.00000000000E+00  0.00000000000E+00  0.75339141736E+03  0.75339141736E+03  0.00000000000E+00 0. -1.
         21   -1    0    0  501  503 -0.00000000000E+00 -0.00000000000E+00 -0.47717300545E+02  0.47717300545E+02  0.00000000000E+00 0. -1.
          6    1    1    2  501    0 -0.39691584812E+02 -0.25014784230E+02  0.21650370961E+03  0.28046215005E+03  0.17200000000E+03 0.  1.
         -6    1    1    2    0  502  0.39691584812E+02  0.25014784230E+02  0.48917040721E+03  0.52064656786E+03  0.17200000000E+03 0.  1.
</event>
<event>
 4    1  0.6129841E-001  0.1994798E+03  0.7818608E-02  0.1150179E+00
         21   -1    0    0  501  502  0.00000000000E+00  0.00000000000E+00  0.73989884234E+02  0.73989884234E+02  0.00000000000E+00 0.  1.
         21   -1    0    0  502  503 -0.00000000000E+00 -0.00000000000E+00 -0.73284303802E+03  0.73284303802E+03  0.00000000000E+00 0.  1.
          6    1    1    2  501    0  0.10092691628E+03  0.46857580646E+01 -0.12130996234E+03  0.23347013882E+03  0.17200000000E+03 0.  1.
         -6    1    1    2    0  503 -0.10092691628E+03 -0.46857580646E+01 -0.53754319144E+03  0.57336278343E+03  0.17200000000E+03 0.  1.
</event>
<event>
 4    1  0.6129841E-001  0.6629041E+03  0.7818608E-02  0.9782862E-01
         21   -1    0    0  503  502  0.00000000000E+00  0.00000000000E+00  0.31575374200E+03  0.31575374200E+03  0.00000000000E+00 0. -1.
         21   -1    0    0  501  503 -0.00000000000E+00 -0.00000000000E+00 -0.14721617687E+04  0.14721617687E+04  0.00000000000E+00 0.  1.
          6    1    1    2  501    0 -0.21217421706E+03 -0.60401978464E+03 -0.78716801578E+03  0.10291138342E+04  0.17200000000E+03 0.  1.
         -6    1    1    2    0  502  0.21217421706E+03  0.60401978464E+03 -0.36924001090E+03  0.75880167651E+03  0.17200000000E+03 0. -1.
</event>
<event>
 4    1  0.6129841E-001  0.1980098E+03  0.7818608E-02  0.1151429E+00
         21   -1    0    0  501  502  0.00000000000E+00  0.00000000000E+00  0.22587694390E+03  0.22587694390E+03  0.00000000000E+00 0.  1.
         21   -1    0    0  502  503 -0.00000000000E+00 -0.00000000000E+00 -0.65066726309E+03  0.65066726309E+03  0.00000000000E+00 0.  1.
          6    1    1    2  501    0  0.38434345176E+02 -0.90259006696E+02  0.16289132479E+03  0.25640099623E+03  0.17200000000E+03 0.  1.
         -6    1    1    2    0  503 -0.38434345176E+02  0.90259006696E+02 -0.58768164398E+03  0.62014321075E+03  0.17200000000E+03 0.  1.
</event>
<event>
 4    1  0.6129841E-001  0.2438172E+03  0.7818608E-02  0.1117276E+00
         21   -1    0    0  501  502  0.00000000000E+00  0.00000000000E+00  0.39691951436E+03  0.39691951436E+03  0.00000000000E+00 0.  1.
         21   -1    0    0  502  503 -0.00000000000E+00 -0.00000000000E+00 -0.33475048172E+03  0.33475048172E+03  0.00000000000E+00 0.  1.
          6    1    1    2  501    0 -0.58292325819E+02 -0.16268016769E+03  0.30303323496E+03  0.38894212127E+03  0.17200000000E+03 0.  1.
         -6    1    1    2    0  503  0.58292325819E+02  0.16268016769E+03 -0.24086420232E+03  0.34272787480E+03  0.17200000000E+03 0.  1.
</event>
<event>
 4    1  0.6129841E-001  0.1798384E+03  0.7818608E-02  0.1167960E+00
         21   -1    0    0  503  502  0.00000000000E+00  0.00000000000E+00  0.83712833112E+02  0.83712833112E+02  0.00000000000E+00 0. -1.
         21   -1    0    0  501  503 -0.00000000000E+00 -0.00000000000E+00 -0.47869820625E+03  0.47869820625E+03  0.00000000000E+00 0. -1.
          6    1    1    2  501    0  0.40532957747E+02  0.33390558650E+02 -0.32100894004E+03  0.36795188498E+03  0.17200000000E+03 0. -1.
         -6    1    1    2    0  502 -0.40532957747E+02 -0.33390558650E+02 -0.73976433094E+02  0.19445915438E+03  0.17200000000E+03 0. -1.
</event>
<event>
 4    1  0.6129841E-001  0.2410475E+03  0.7818608E-02  0.1119097E+00
         21   -1    0    0  501  502  0.00000000000E+00  0.00000000000E+00  0.46075608103E+02  0.46075608103E+02  0.00000000000E+00 0.  1.
         21   -1    0    0  502  503 -0.00000000000E+00 -0.00000000000E+00 -0.15496035525E+04  0.15496035525E+04  0.00000000000E+00 0. -1.
          6    1    1    2  501    0  0.87352796844E+02 -0.14453167945E+03 -0.40748218559E+03  0.47344022754E+03  0.17200000000E+03 0.  1.
         -6    1    1    2    0  503 -0.87352796844E+02  0.14453167945E+03 -0.10960457588E+04  0.11222389330E+04  0.17200000000E+03 0. -1.
</event>
<event>
 4    1  0.6129841E-001  0.2256870E+03  0.7818608E-02  0.1129713E+00
         21   -1    0    0  503  502  0.00000000000E+00  0.00000000000E+00  0.11405183228E+04  0.11405183228E+04  0.00000000000E+00 0. -1.
         21   -1    0    0  501  503 -0.00000000000E+00 -0.00000000000E+00 -0.44888208173E+02  0.44888208173E+02  0.00000000000E+00 0. -1.
          6    1    1    2  501    0  0.60491197243E+02 -0.13300914424E+03  0.50547884071E+03  0.55357336984E+03  0.17200000000E+03 0. -1.
         -6    1    1    2    0  502 -0.60491197243E+02  0.13300914424E+03  0.59015127389E+03  0.63183316110E+03  0.17200000000E+03 0. -1.
</event>
<event>
 4    1  0.6129841E-001  0.1887831E+03  0.7818608E-02  0.1159564E+00
         21   -1    0    0  501  502  0.00000000000E+00  0.00000000000E+00  0.30451722355E+03  0.30451722355E+03  0.00000000000E+00 0.  1.
         21   -1    0    0  502  503 -0.00000000000E+00 -0.00000000000E+00 -0.12215557739E+03  0.12215557739E+03  0.00000000000E+00 0.  1.
          6    1    1    2  501    0  0.41956468028E+02 -0.65534044212E+02  0.47500676593E+02  0.19466733274E+03  0.17200000000E+03 0.  1.
         -6    1    1    2    0  503 -0.41956468028E+02  0.65534044212E+02  0.13486096956E+03  0.23200546819E+03  0.17200000000E+03 0.  1.
</event>
<event>
 4    1  0.6129841E-001  0.2068446E+03  0.7818608E-02  0.1144089E+00
         21   -1    0    0  503  502  0.00000000000E+00  0.00000000000E+00  0.29106835553E+03  0.29106835553E+03  0.00000000000E+00 0. -1.
         21   -1    0    0  501  503 -0.00000000000E+00 -0.00000000000E+00 -0.14886225827E+03  0.14886225827E+03  0.00000000000E+00 0.  1.
          6    1    1    2  501    0 -0.18093803745E+02 -0.11346063905E+03  0.95758877526E+02  0.22793522100E+03  0.17200000000E+03 0. -1.
         -6    1    1    2    0  502  0.18093803745E+02  0.11346063905E+03  0.46447219726E+02  0.21199539280E+03  0.17200000000E+03 0. -1.
</event>
<event>
 4    1  0.6129841E-001  0.2183584E+03  0.7818608E-02  0.1135113E+00
         21   -1    0    0  501  502  0.00000000000E+00  0.00000000000E+00  0.67230466646E+02  0.67230466646E+02  0.00000000000E+00 0. -1.
         21   -1    0    0  502  503 -0.00000000000E+00 -0.00000000000E+00 -0.11565264494E+04  0.11565264494E+04  0.00000000000E+00 0. -1.
          6    1    1    2  501    0  0.51199262354E+02  0.12439873884E+03 -0.16411212417E+03  0.27315416891E+03  0.17200000000E+03 0. -1.
         -6    1    1    2    0  503 -0.51199262354E+02 -0.12439873884E+03 -0.92518385861E+03  0.95060274717E+03  0.17200000000E+03 0. -1.
</event>
<event>
 4    1  0.6129841E-001  0.1900908E+03  0.7818608E-02  0.1158379E+00
         21   -1    0    0  503  502  0.00000000000E+00  0.00000000000E+00  0.23202067912E+02  0.23202067912E+02  0.00000000000E+00 0.  1.
         21   -1    0    0  501  503 -0.00000000000E+00 -0.00000000000E+00 -0.15782553778E+04  0.15782553778E+04  0.00000000000E+00 0.  1.
          6    1    1    2  501    0  0.78013430973E+02 -0.21550049805E+02 -0.86961092588E+03  0.89014474243E+03  0.17200000000E+03 0.  1.
         -6    1    1    2    0  502 -0.78013430973E+02  0.21550049805E+02 -0.68544238395E+03  0.71131270323E+03  0.17200000000E+03 0.  1.
</event>
<event>
 4    1  0.6129841E-001  0.2390734E+03  0.7818608E-02  0.1120412E+00
         21   -1    0    0  501  502  0.00000000000E+00  0.00000000000E+00  0.43287742368E+02  0.43287742368E+02  0.00000000000E+00 0.  1.
         21   -1    0    0  502  503 -0.00000000000E+00 -0.00000000000E+00 -0.13273495250E+04  0.13273495250E+04  0.00000000000E+00 0. -1.
          6    1    1    2  501    0 -0.15374279319E+03 -0.62731484413E+02 -0.59235637546E+03  0.63878177897E+03  0.17200000000E+03 0.  1.
         -6    1    1    2    0  503  0.15374279319E+03  0.62731484413E+02 -0.69170540719E+03  0.73185548842E+03  0.17200000000E+03 0. -1.
</event>
<event>
 4    1  0.6129841E-001  0.2345301E+03  0.7818608E-02  0.1123491E+00
         21   -1    0    0  501  502  0.00000000000E+00  0.00000000000E+00  0.12573265987E+03  0.12573265987E+03  0.00000000000E+00 0. -1.
         21   -1    0    0  502  503 -0.00000000000E+00 -0.00000000000E+00 -0.48008836333E+03  0.48008836333E+03  0.00000000000E+00 0. -1.
          6    1    1    2  501    0  0.11024246807E+03 -0.11518225376E+03 -0.86927557223E+02  0.25012147759E+03  0.17200000000E+03 0. -1.
         -6    1    1    2    0  503 -0.11024246807E+03  0.11518225376E+03 -0.26742814624E+03  0.35569954561E+03  0.17200000000E+03 0. -1.
</event>
<event>
 4    1  0.6129841E-001  0.1823769E+03  0.7818608E-02  0.1165522E+00
         21   -1    0    0  503  502  0.00000000000E+00  0.00000000000E+00  0.10858343468E+03  0.10858343468E+03  0.00000000000E+00 0.  1.
         21   -1    0    0  501  503 -0.00000000000E+00 -0.00000000000E+00 -0.38263037470E+03  0.38263037470E+03  0.00000000000E+00 0.  1.
          6    1    1    2  501    0  0.22133008411E+02  0.56457594280E+02 -0.24670696303E+03  0.30679904762E+03  0.17200000000E+03 0.  1.
         -6    1    1    2    0  502 -0.22133008411E+02 -0.56457594280E+02 -0.27339976978E+02  0.18441476176E+03  0.17200000000E+03 0.  1.
</event>
<event>
 4    1  0.6129841E-001  0.1741751E+03  0.7818608E-02  0.1173562E+00
         21   -1    0    0  503  502  0.00000000000E+00  0.00000000000E+00  0.63035203945E+03  0.63035203945E+03  0.00000000000E+00 0. -1.
         21   -1    0    0  501  503 -0.00000000000E+00 -0.00000000000E+00 -0.53998802335E+02  0.53998802335E+02  0.00000000000E+00 0. -1.
          6    1    1    2  501    0  0.17949226955E+02 -0.20755669445E+02  0.17534227958E+03  0.24714750164E+03  0.17200000000E+03 0.  1.
         -6    1    1    2    0  502 -0.17949226955E+02  0.20755669445E+02  0.40101095754E+03  0.43720334014E+03  0.17200000000E+03 0.  1.
</event>
<event>
 4    1  0.6129841E-001  0.1955173E+03  0.7818608E-02  0.1153577E+00
         21   -1    0    0  503  502  0.00000000000E+00  0.00000000000E+00  0.11680131335E+03  0.11680131335E+03  0.00000000000E+00 0. -1.
         21   -1    0    0  501  503 -0.00000000000E+00 -0.00000000000E+00 -0.34730992530E+03  0.34730992530E+03  0.00000000000E+00 0.  1.
          6    1    1    2  501    0  0.39751377168E+02  0.84040622211E+02 -0.17097911912E+03  0.25973228014E+03  0.17200000000E+03 0. -1.
         -6    1    1    2    0  502 -0.39751377168E+02 -0.84040622211E+02 -0.59529492828E+02  0.20437895852E+03  0.17200000000E+03 0. -1.
</event>
<event>
 4    1  0.6129841E-001  0.2522775E+03  0.7818608E-02  0.1111874E+00
         21   -1    0    0  503  502  0.00000000000E+00  0.00000000000E+00  0.80914801927E+02  0.80914801927E+02  0.00000000000E+00 0. -1.
         21   -1    0    0  501  503 -0.00000000000E+00 -0.00000000000E+00 -0.99513421299E+03  0.99513421299E+03  0.00000000000E+00 0.  1.
          6    1    1    2  501    0 -0.15415214119E+02  0.18390840070E+03 -0.70342813896E+03  0.74729851823E+03  0.17200000000E+03 0.  1.
         -6    1    1    2    0  502  0.15415214119E+02 -0.18390840070E+03 -0.21079127210E+03  0.32875049668E+03  0.17200000000E+03 0.  1.
</event>
<event>
 4    1  0.6129841E-001  0.2729213E+03  0.7818608E-02  0.1099619E+00
         21   -1    0    0  503  502  0.00000000000E+00  0.00000000000E+00  0.82350313175E+02  0.82350313175E+02  0.00000000000E+00 0. -1.
         21   -1    0    0  501  503 -0.00000000000E+00 -0.00000000000E+00 -0.92364397474E+03  0.92364397474E+03  0.00000000000E+00 0.  1.
          6    1    1    2  501    0  0.12334807388E+03  0.17229998214E+03 -0.49305798281E+03  0.56355319677E+03  0.17200000000E+03 0.  1.
         -6    1    1    2    0  502 -0.12334807388E+03 -0.17229998214E+03 -0.34823567875E+03  0.44244109114E+03  0.17200000000E+03 0. -1.
</event>
<event>
 4    1  0.6129841E-001  0.2591315E+03  0.7818608E-02  0.1107666E+00
         21   -1    0    0  503  502  0.00000000000E+00  0.00000000000E+00  0.20441884436E+03  0.20441884436E+03  0.00000000000E+00 0. -1.
         21   -1    0    0  501  503 -0.00000000000E+00 -0.00000000000E+00 -0.32916684110E+03  0.32916684110E+03  0.00000000000E+00 0. -1.
          6    1    1    2  501    0  0.86503759112E+02  0.17344223992E+03 -0.74490898510E+02  0.26962567550E+03  0.17200000000E+03 0. -1.
         -6    1    1    2    0  502 -0.86503759112E+02 -0.17344223992E+03 -0.50257098229E+02  0.26396000995E+03  0.17200000000E+03 0. -1.
</event>
<event>
 4    1  0.6129841E-001  0.2133659E+03  0.7818608E-02  0.1138928E+00
         21   -1    0    0  503  502  0.00000000000E+00  0.00000000000E+00  0.91686602542E+02  0.91686602542E+02  0.00000000000E+00 0.  1.
         21   -1    0    0  501  503 -0.00000000000E+00 -0.00000000000E+00 -0.53845913207E+03  0.53845913207E+03  0.00000000000E+00 0. -1.
          6    1    1    2  501    0 -0.12573274853E+03 -0.11502254681E+02 -0.31130865918E+03  0.37740973384E+03  0.17200000000E+03 0. -1.
         -6    1    1    2    0  502  0.12573274853E+03  0.11502254681E+02 -0.13546387035E+03  0.25273600077E+03  0.17200000000E+03 0. -1.
</event>
<event>
 4    1  0.6129841E-001  0.3033182E+03  0.7818608E-02  0.1083594E+00
         21   -1    0    0  503  502  0.00000000000E+00  0.00000000000E+00  0.90183837601E+03  0.90183837601E+03  0.00000000000E+00 0.  1.
         21   -1    0    0  501  503 -0.00000000000E+00 -0.00000000000E+00 -0.10243104300E+03  0.10243104300E+03  0.00000000000E+00 0.  1.
          6    1    1    2  501    0  0.68989677795E+02  0.24012157670E+03  0.43166677255E+03  0.52757762439E+03  0.17200000000E+03 0.  1.
         -6    1    1    2    0  502 -0.68989677795E+02 -0.24012157670E+03  0.36774056046E+03  0.47669179461E+03  0.17200000000E+03 0.  1.
</event>
<event>
 4    1  0.6129841E-001  0.2261494E+03  0.7818608E-02  0.1129380E+00
         21   -1    0    0  501  502  0.00000000000E+00  0.00000000000E+00  0.90493479533E+02  0.90493479533E+02  0.00000000000E+00 0.  1.
         21   -1    0    0  502  503 -0.00000000000E+00 -0.00000000000E+00 -0.81134241426E+03  0.81134241426E+03  0.00000000000E+00 0. -1.
          6    1    1    2  501    0 -0.12081972840E+03  0.83439535821E+02 -0.11204177422E+03  0.25238249162E+03  0.17200000000E+03 0.  1.
         -6    1    1    2    0  503  0.12081972840E+03 -0.83439535821E+02 -0.60880716051E+03  0.64945340217E+03  0.17200000000E+03 0. -1.
</event>
<event>
 4    1  0.6129841E-001  0.2225449E+03  0.7818608E-02  0.1132000E+00
         21   -1    0    0  503  502  0.00000000000E+00  0.00000000000E+00  0.64299766003E+02  0.64299766003E+02  0.00000000000E+00 0. -1.
         21   -1    0    0  501  503 -0.00000000000E+00 -0.00000000000E+00 -0.81432331472E+03  0.81432331472E+03  0.00000000000E+00 0. -1.
          6    1    1    2  501    0 -0.12597037933E+03 -0.63825660751E+02 -0.47722599551E+03  0.52656519276E+03  0.17200000000E+03 0.  1.
         -6    1    1    2    0  502  0.12597037933E+03  0.63825660751E+02 -0.27279755321E+03  0.35205788796E+03  0.17200000000E+03 0.  1.
</event>
<event>
 4    1  0.6129841E-001  0.4977345E+03  0.7818608E-02  0.1014372E+00
         21   -1    0    0  503  502  0.00000000000E+00  0.00000000000E+00  0.69857909028E+03  0.69857909028E+03  0.00000000000E+00 0.  1.
         21   -1    0    0  501  503 -0.00000000000E+00 -0.00000000000E+00 -0.35733859982E+03  0.35733859982E+03  0.00000000000E+00 0. -1.
          6    1    1    2  501    0  0.35198480430E+03 -0.30702174920E+03  0.12468572215E+03  0.51311420390E+03  0.17200000000E+03 0. -1.
         -6    1    1    2    0  502 -0.35198480430E+03  0.30702174920E+03  0.21655476832E+03  0.54280348619E+03  0.17200000000E+03 0.  1.
</event>
<event>
 4    1  0.6129841E-001  0.1776829E+03  0.7818608E-02  0.1170065E+00
         21   -1    0    0  501  502  0.00000000000E+00  0.00000000000E+00  0.81235326656E+02  0.81235326656E+02  0.00000000000E+00 0.  1.
         21   -1    0    0  502  503 -0.00000000000E+00 -0.00000000000E+00 -0.52462474503E+03  0.52462474503E+03  0.00000000000E+00 0.  1.
          6    1    1    2  501    0  0.27532831410E+01 -0.44492890167E+02 -0.67466078637E+02  0.19006017366E+03  0.17200000000E+03 0.  1.
         -6    1    1    2    0  503 -0.27532831410E+01  0.44492890167E+02 -0.37592333973E+03  0.41579989803E+03  0.17200000000E+03 0.  1.
</event>
<event>
 4    1  0.6129841E-001  0.1728192E+03  0.7818608E-02  0.1174939E+00
         21   -1    0    0  501  502  0.00000000000E+00  0.00000000000E+00  0.42704364188E+03  0.42704364188E+03  0.00000000000E+00 0.  1.
         21   -1    0    0  502  503 -0.00000000000E+00 -0.00000000000E+00 -0.75791649156E+02  0.75791649156E+02  0.00000000000E+00 0.  1.
          6    1    1    2  501    0  0.14341084542E+02 -0.87645396951E+01  0.24549855035E+03  0.30022661788E+03  0.17200000000E+03 0.  1.
         -6    1    1    2    0  503 -0.14341084542E+02  0.87645396951E+01  0.10575344237E+03  0.20260867315E+03  0.17200000000E+03 0.  1.
</event>
<event>
 4    1  0.6129841E-001  0.1722646E+03  0.7818608E-02  0.1175507E+00
         21   -1    0    0  503  502  0.00000000000E+00  0.00000000000E+00  0.34985522705E+03  0.34985522705E+03  0.00000000000E+00 0. -1.
         21   -1    0    0  501  503 -0.00000000000E+00 -0.00000000000E+00 -0.94444481703E+02  0.94444481703E+02  0.00000000000E+00 0. -1.
          6    1    1    2  501    0  0.82641834564E+01 -0.47749220463E+01  0.56792978383E+02  0.18138505727E+03  0.17200000000E+03 0.  1.
         -6    1    1    2    0  502 -0.82641834564E+01  0.47749220463E+01  0.19861776697E+03  0.26291465148E+03  0.17200000000E+03 0.  1.
</event>
<event>
 4    1  0.6129841E-001  0.2271268E+03  0.7818608E-02  0.1128679E+00
         21   -1    0    0  501  502  0.00000000000E+00  0.00000000000E+00  0.65493426660E+02  0.65493426660E+02  0.00000000000E+00 0. -1.
         21   -1    0    0  502  503 -0.00000000000E+00 -0.00000000000E+00 -0.86138608361E+03  0.86138608361E+03  0.00000000000E+00 0. -1.
          6    1    1    2  501    0  0.89709444717E+02 -0.11813035878E+03 -0.26236361329E+03  0.34701762450E+03  0.17200000000E+03 0. -1.
         -6    1    1    2    0  503 -0.89709444717E+02  0.11813035878E+03 -0.53352904367E+03  0.57986188577E+03  0.17200000000E+03 0. -1.
</event>
<event>
 4    1  0.6129841E-001  0.1738183E+03  0.7818608E-02  0.1173923E+00
         21   -1    0    0  501  502  0.00000000000E+00  0.00000000000E+00  0.45171542423E+03  0.45171542423E+03  0.00000000000E+00 0. -1.
         21   -1    0    0  502  503 -0.00000000000E+00 -0.00000000000E+00 -0.17184196065E+03  0.17184196065E+03  0.00000000000E+00 0. -1.
          6    1    1    2  501    0  0.17180907096E+02  0.18265525732E+02  0.38359897480E+03  0.42114247763E+03  0.17200000000E+03 0. -1.
         -6    1    1    2    0  503 -0.17180907096E+02 -0.18265525732E+02 -0.10372551122E+03  0.20241490725E+03  0.17200000000E+03 0. -1.
</event>
<event>
 4    1  0.6129841E-001  0.2451535E+03  0.7818608E-02  0.1116407E+00
         21   -1    0    0  503  502  0.00000000000E+00  0.00000000000E+00  0.38161096406E+03  0.38161096406E+03  0.00000000000E+00 0.  1.
         21   -1    0    0  501  503 -0.00000000000E+00 -0.00000000000E+00 -0.16780675052E+03  0.16780675052E+03  0.00000000000E+00 0.  1.
          6    1    1    2  501    0 -0.11055360884E+03  0.13525590671E+03  0.38790659642E+02  0.24820349716E+03  0.17200000000E+03 0.  1.
         -6    1    1    2    0  502  0.11055360884E+03 -0.13525590671E+03  0.17501355390E+03  0.30121421742E+03  0.17200000000E+03 0.  1.
</event>
<event>
 4    1  0.6129841E-001  0.1848084E+03  0.7818608E-02  0.1163229E+00
         21   -1    0    0  503  502  0.00000000000E+00  0.00000000000E+00  0.75368935493E+02  0.75368935493E+02  0.00000000000E+00 0. -1.
         21   -1    0    0  501  503 -0.00000000000E+00 -0.00000000000E+00 -0.58234846419E+03  0.58234846419E+03  0.00000000000E+00 0. -1.
          6    1    1    2  501    0  0.48454518239E+02 -0.47141149255E+02 -0.40838249670E+03  0.44825259832E+03  0.17200000000E+03 0. -1.
         -6    1    1    2    0  502 -0.48454518239E+02  0.47141149255E+02 -0.98597031998E+02  0.20946480136E+03  0.17200000000E+03 0. -1.
</event>
<event>
 4    1  0.6129841E-001  0.2017547E+03  0.7818608E-02  0.1148267E+00
         21   -1    0    0  503  502  0.00000000000E+00  0.00000000000E+00  0.98508694248E+02  0.98508694248E+02  0.00000000000E+00 0.  1.
         21   -1    0    0  501  503 -0.00000000000E+00 -0.00000000000E+00 -0.50773290869E+03  0.50773290869E+03  0.00000000000E+00 0.  1.
          6    1    1    2  501    0 -0.64255687599E+02 -0.83619130947E+02 -0.33539849466E+03  0.39140401463E+03  0.17200000000E+03 0.  1.
         -6    1    1    2    0  502  0.64255687599E+02  0.83619130947E+02 -0.73825719785E+02  0.21483758831E+03  0.17200000000E+03 0.  1.
</event>
<event>
 4    1  0.6129841E-001  0.3614426E+03  0.7818608E-02  0.1058014E+00
         21   -1    0    0  501  502  0.00000000000E+00  0.00000000000E+00  0.31587361715E+03  0.31587361715E+03  0.00000000000E+00 0.  1.
         21   -1    0    0  502  503 -0.00000000000E+00 -0.00000000000E+00 -0.81127193476E+03  0.81127193476E+03  0.00000000000E+00 0. -1.
          6    1    1    2  501    0  0.21238436529E+03 -0.23653682130E+03  0.14688268850E+03  0.39014780614E+03  0.17200000000E+03 0. -1.
         -6    1    1    2    0  503 -0.21238436529E+03  0.23653682130E+03 -0.64228100611E+03  0.73699774577E+03  0.17200000000E+03 0. -1.
</event>
<event>
 4    1  0.6129841E-001  0.2000331E+03  0.7818608E-02  0.1149711E+00
         21   -1    0    0  501  502  0.00000000000E+00  0.00000000000E+00  0.11006156106E+04  0.11006156106E+04  0.00000000000E+00 0. -1.
         21   -1    0    0  502  503 -0.00000000000E+00 -0.00000000000E+00 -0.46433580196E+02  0.46433580196E+02  0.00000000000E+00 0. -1.
          6    1    1    2  501    0 -0.80800979701E+02 -0.62453607337E+02  0.79428604767E+03  0.81908703867E+03  0.17200000000E+03 0. -1.
         -6    1    1    2    0  503  0.80800979701E+02  0.62453607337E+02  0.25989598276E+03  0.32796215215E+03  0.17200000000E+03 0. -1.
</event>
<event>
 4    1  0.6129841E-001  0.1801487E+03  0.7818608E-02  0.1167659E+00
         21   -1    0    0  501  502  0.00000000000E+00  0.00000000000E+00  0.52467442278E+02  0.52467442278E+02  0.00000000000E+00 0.  1.
         21   -1    0    0  502  503 -0.00000000000E+00 -0.00000000000E+00 -0.11294669496E+04  0.11294669496E+04  0.00000000000E+00 0.  1.
          6    1    1    2  501    0  0.23031640595E+02 -0.48364058653E+02 -0.14103065669E+03  0.22878632993E+03  0.17200000000E+03 0.  1.
         -6    1    1    2    0  503 -0.23031640595E+02  0.48364058653E+02 -0.93596885064E+03  0.95314806196E+03  0.17200000000E+03 0.  1.
</event>
<event>
 4    1  0.6129841E-001  0.1830509E+03  0.7818608E-02  0.1164883E+00
         21   -1    0    0  503  502  0.00000000000E+00  0.00000000000E+00  0.31041908108E+03  0.31041908108E+03  0.00000000000E+00 0.  1.
         21   -1    0    0  501  503 -0.00000000000E+00 -0.00000000000E+00 -0.22040220045E+03  0.22040220045E+03  0.00000000000E+00 0.  1.
          6    1    1    2  501    0  0.61246844406E+02 -0.13132752171E+02 -0.14457804543E+03  0.23326049033E+03  0.17200000000E+03 0.  1.
         -6    1    1    2    0  502 -0.61246844406E+02  0.13132752171E+02  0.23459492606E+03  0.29756079120E+03  0.17200000000E+03 0.  1.
</event>
<event>
 4    1  0.6129841E-001  0.1860880E+03  0.7818608E-02  0.1162038E+00
         21   -1    0    0  503  502  0.00000000000E+00  0.00000000000E+00  0.78349044446E+02  0.78349044446E+02  0.00000000000E+00 0.  1.
         21   -1    0    0  501  503 -0.00000000000E+00 -0.00000000000E+00 -0.48176677107E+03  0.48176677107E+03  0.00000000000E+00 0. -1.
          6    1    1    2  501    0 -0.70412392192E+02 -0.93186882547E+01 -0.28219044801E+03  0.33802395163E+03  0.17200000000E+03 0. -1.
         -6    1    1    2    0  502  0.70412392192E+02  0.93186882547E+01 -0.12122727861E+03  0.22209186389E+03  0.17200000000E+03 0.  1.
</event>
<event>
 4    1  0.6129841E-001  0.4217436E+03  0.7818608E-02  0.1036500E+00
         21   -1    0    0  501  502  0.00000000000E+00  0.00000000000E+00  0.24749687547E+03  0.24749687547E+03  0.00000000000E+00 0. -1.
         21   -1    0    0  502  503 -0.00000000000E+00 -0.00000000000E+00 -0.18211559753E+04  0.18211559753E+04  0.00000000000E+00 0.  1.
          6    1    1    2  501    0 -0.35486506196E+02 -0.38343754710E+03  0.17939618112E+02  0.42212495134E+03  0.17200000000E+03 0. -1.
         -6    1    1    2    0  503  0.35486506196E+02  0.38343754710E+03 -0.15915987180E+04  0.16465278995E+04  0.17200000000E+03 0.  1.
</event>
<event>
 4    1  0.6129841E-001  0.2455436E+03  0.7818608E-02  0.1116154E+00
         21   -1    0    0  501  502  0.00000000000E+00  0.00000000000E+00  0.19538964900E+03  0.19538964900E+03  0.00000000000E+00 0.  1.
         21   -1    0    0  502  503 -0.00000000000E+00 -0.00000000000E+00 -0.52944495888E+03  0.52944495888E+03  0.00000000000E+00 0.  1.
          6    1    1    2  501    0  0.15191635315E+03  0.87344635903E+02  0.67055601002E+02  0.25453510053E+03  0.17200000000E+03 0.  1.
         -6    1    1    2    0  503 -0.15191635315E+03 -0.87344635903E+02 -0.40111091089E+03  0.47029950734E+03  0.17200000000E+03 0.  1.
</event>
<event>
 4    1  0.6129841E-001  0.1737196E+03  0.7818608E-02  0.1174024E+00
         21   -1    0    0  501  502  0.00000000000E+00  0.00000000000E+00  0.58989631672E+03  0.58989631672E+03  0.00000000000E+00 0.  1.
         21   -1    0    0  502  503 -0.00000000000E+00 -0.00000000000E+00 -0.67687523255E+02  0.67687523255E+02  0.00000000000E+00 0.  1.
          6    1    1    2  501    0 -0.22972933486E+02  0.81686915258E+01  0.42357857598E+03  0.45781796953E+03  0.17200000000E+03 0.  1.
         -6    1    1    2    0  503  0.22972933486E+02 -0.81686915258E+01  0.98630217486E+02  0.19976587045E+03  0.17200000000E+03 0.  1.
</event>
<event>
 4    1  0.6129841E-001  0.2039619E+03  0.7818608E-02  0.1146439E+00
         21   -1    0    0  503  502  0.00000000000E+00  0.00000000000E+00  0.75333211897E+02  0.75333211897E+02  0.00000000000E+00 0. -1.
         21   -1    0    0  501  503 -0.00000000000E+00 -0.00000000000E+00 -0.56329428297E+03  0.56329428297E+03  0.00000000000E+00 0. -1.
          6    1    1    2  501    0  0.10504979206E+03 -0.31320760205E+02 -0.28875420659E+03  0.35352431409E+03  0.17200000000E+03 0. -1.
         -6    1    1    2    0  502 -0.10504979206E+03  0.31320760205E+02 -0.19920686449E+03  0.28510318078E+03  0.17200000000E+03 0. -1.
</event>
<event>
 4    1  0.6129841E-001  0.2041337E+03  0.7818608E-02  0.1146298E+00
         21   -1    0    0  501  502  0.00000000000E+00  0.00000000000E+00  0.32435123355E+03  0.32435123355E+03  0.00000000000E+00 0.  1.
         21   -1    0    0  502  503 -0.00000000000E+00 -0.00000000000E+00 -0.14659361549E+03  0.14659361549E+03  0.00000000000E+00 0. -1.
          6    1    1    2  501    0  0.49834261946E+02 -0.97995424503E+02  0.17166584196E+03  0.26672029953E+03  0.17200000000E+03 0. -1.
         -6    1    1    2    0  503 -0.49834261946E+02  0.97995424503E+02  0.60917760995E+01  0.20422454951E+03  0.17200000000E+03 0. -1.
</event>
<event>
 4    1  0.6129841E-001  0.2186941E+03  0.7818608E-02  0.1134860E+00
         21   -1    0    0  503  502  0.00000000000E+00  0.00000000000E+00  0.14380906086E+03  0.14380906086E+03  0.00000000000E+00 0. -1.
         21   -1    0    0  501  503 -0.00000000000E+00 -0.00000000000E+00 -0.34569544384E+03  0.34569544384E+03  0.00000000000E+00 0.  1.
          6    1    1    2  501    0 -0.58445913061E+02  0.12176700324E+03 -0.14862731051E+03  0.26441861747E+03  0.17200000000E+03 0.  1.
         -6    1    1    2    0  502  0.58445913061E+02 -0.12176700324E+03 -0.53259072467E+02  0.22508588724E+03  0.17200000000E+03 0. -1.
</event>
<event>
 4    1  0.6129841E-001  0.2162091E+03  0.7818608E-02  0.1136741E+00
         21   -1    0    0  501  502  0.00000000000E+00  0.00000000000E+00  0.16020455280E+04  0.16020455280E+04  0.00000000000E+00 0. -1.
         21   -1    0    0  502  503 -0.00000000000E+00 -0.00000000000E+00 -0.29350642350E+02  0.29350642350E+02  0.00000000000E+00 0.  1.
          6    1    1    2  501    0  0.20364797253E+02 -0.12941272795E+03  0.84869244275E+03  0.87579977250E+03  0.17200000000E+03 0. -1.
         -6    1    1    2    0  503 -0.20364797253E+02  0.12941272795E+03  0.72400244287E+03  0.75559639782E+03  0.17200000000E+03 0. -1.
</event>
<event>
 4    1  0.6129841E-001  0.2369956E+03  0.7818608E-02  0.1121811E+00
         21   -1    0    0  501  502  0.00000000000E+00  0.00000000000E+00  0.38106201633E+02  0.38106201633E+02  0.00000000000E+00 0. -1.
         21   -1    0    0  502  503 -0.00000000000E+00 -0.00000000000E+00 -0.14761629140E+04  0.14761629140E+04  0.00000000000E+00 0.  1.
          6    1    1    2  501    0  0.16294432729E+03 -0.56601277325E+01 -0.68975781904E+03  0.72933719209E+03  0.17200000000E+03 0.  1.
         -6    1    1    2    0  503 -0.16294432729E+03  0.56601277325E+01 -0.74829889332E+03  0.78493192354E+03  0.17200000000E+03 0. -1.
</event>
<event>
 4    1  0.6129841E-001  0.2274012E+03  0.7818608E-02  0.1128482E+00
         21   -1    0    0  503  502  0.00000000000E+00  0.00000000000E+00  0.71983178145E+03  0.71983178145E+03  0.00000000000E+00 0. -1.
         21   -1    0    0  501  503 -0.00000000000E+00 -0.00000000000E+00 -0.83702664513E+02  0.83702664513E+02  0.00000000000E+00 0.  1.
          6    1    1    2  501    0 -0.10341144310E+03 -0.10692689204E+03  0.16680169906E+03  0.28201789591E+03  0.17200000000E+03 0.  1.
         -6    1    1    2    0  502  0.10341144310E+03  0.10692689204E+03  0.46932741788E+03  0.52151655005E+03  0.17200000000E+03 0. -1.
</event>
<event>
 4    1  0.6129841E-001  0.2041548E+03  0.7818608E-02  0.1146280E+00
         21   -1    0    0  503  502  0.00000000000E+00  0.00000000000E+00  0.32120684212E+03  0.32120684212E+03  0.00000000000E+00 0.  1.
         21   -1    0    0  501  503 -0.00000000000E+00 -0.00000000000E+00 -0.12980387014E+03  0.12980387014E+03  0.00000000000E+00 0. -1.
          6    1    1    2  501    0 -0.75712307842E+02 -0.79767339919E+02  0.91465891329E+02  0.22370782586E+03  0.17200000000E+03 0. -1.
         -6    1    1    2    0  502  0.75712307842E+02  0.79767339919E+02  0.99937080641E+02  0.22730288640E+03  0.17200000000E+03 0.  1.
</event>
<event>
 4    1  0.6129841E-001  0.1998311E+03  0.7818608E-02  0.1149882E+00
         21   -1    0    0  503  502  0.00000000000E+00  0.00000000000E+00  0.10053823785E+04  0.10053823785E+04  0.00000000000E+00 0. -1.
         21   -1    0    0  501  503 -0.00000000000E+00 -0.00000000000E+00 -0.39718729245E+02  0.39718729245E+02  0.00000000000E+00 0.  1.
          6    1    1    2  501    0 -0.61506474791E+02  0.81027311896E+02  0.48334668096E+03  0.52302627631E+03  0.17200000000E+03 0. -1.
         -6    1    1    2    0  502  0.61506474791E+02 -0.81027311896E+02  0.48231696829E+03  0.52207483143E+03  0.17200000000E+03 0. -1.
</event>
<event>
 4    1  0.6129841E-001  0.1782157E+03  0.7818608E-02  0.1169541E+00
         21   -1    0    0  501  502  0.00000000000E+00  0.00000000000E+00  0.12616664975E+03  0.12616664975E+03  0.00000000000E+00 0. -1.
         21   -1    0    0  502  503 -0.00000000000E+00 -0.00000000000E+00 -0.39178928589E+03  0.39178928589E+03  0.00000000000E+00 0. -1.
          6    1    1    2  501    0  0.59261452210E+01 -0.46278513311E+02 -0.28765074919E+03  0.33838406213E+03  0.17200000000E+03 0. -1.
         -6    1    1    2    0  503 -0.59261452210E+01  0.46278513311E+02  0.22028113049E+02  0.17957187351E+03  0.17200000000E+03 0. -1.
</event>
<event>
 4    1  0.6129841E-001  0.2747546E+03  0.7818608E-02  0.1098589E+00
         21   -1    0    0  503  502  0.00000000000E+00  0.00000000000E+00  0.46571904451E+03  0.46571904451E+03  0.00000000000E+00 0.  1.
         21   -1    0    0  501  503 -0.00000000000E+00 -0.00000000000E+00 -0.16936846001E+03  0.16936846001E+03  0.00000000000E+00 0.  1.
          6    1    1    2  501    0 -0.15797932625E+03  0.14473645802E+03  0.82364443806E+02  0.28683446691E+03  0.17200000000E+03 0.  1.
         -6    1    1    2    0  502  0.15797932625E+03 -0.14473645802E+03  0.21398614070E+03  0.34825303762E+03  0.17200000000E+03 0.  1.
</event>
<event>
 4    1  0.6129841E-001  0.3365340E+03  0.7818608E-02  0.1068282E+00
         21   -1    0    0  503  502  0.00000000000E+00  0.00000000000E+00  0.42164617097E+03  0.42164617097E+03  0.00000000000E+00 0.  1.
         21   -1    0    0  501  503 -0.00000000000E+00 -0.00000000000E+00 -0.59874095453E+03  0.59874095453E+03  0.00000000000E+00 0. -1.
          6    1    1    2  501    0  0.78741480017E+02  0.27833600053E+03 -0.46739421647E+03  0.57594487884E+03  0.17200000000E+03 0. -1.
         -6    1    1    2    0  502 -0.78741480017E+02 -0.27833600053E+03  0.29029943292E+03  0.44444224666E+03  0.17200000000E+03 0.  1.
</event>
<event>
 4    1  0.6129841E-001  0.3419526E+03  0.7818608E-02  0.1065967E+00
         21   -1    0    0  503  502  0.00000000000E+00  0.00000000000E+00  0.13184840848E+04  0.13184840848E+04  0.00000000000E+00 0. -1.
         21   -1    0    0  501  503 -0.00000000000E+00 -0.00000000000E+00 -0.98969808027E+02  0.98969808027E+02  0.00000000000E+00 0.  1.
          6    1    1    2  501    0  0.56247101095E+01 -0.29549276822E+03  0.38130458762E+03  0.51217653399E+03  0.17200000000E+03 0.  1.
         -6    1    1    2    0  502 -0.56247101095E+01  0.29549276822E+03  0.83820968919E+03  0.90527735887E+03  0.17200000000E+03 0. -1.
</event>
<event>
 4    1  0.6129841E-001  0.5762474E+03  0.7818608E-02  0.9955949E-01
         21   -1    0    0  501  502  0.00000000000E+00  0.00000000000E+00  0.38056779908E+03  0.38056779908E+03  0.00000000000E+00 0.  1.
         21   -1    0    0  502  503 -0.00000000000E+00 -0.00000000000E+00 -0.11434236742E+04  0.11434236742E+04  0.00000000000E+00 0. -1.
          6    1    1    2  501    0 -0.54539404065E+03  0.70868755517E+02 -0.10542742137E+02  0.57634381189E+03  0.17200000000E+03 0.  1.
         -6    1    1    2    0  503  0.54539404065E+03 -0.70868755517E+02 -0.75231313296E+03  0.94764766137E+03  0.17200000000E+03 0. -1.
</event>
<event>
 4    1  0.6129841E-001  0.1907147E+03  0.7818608E-02  0.1157818E+00
         21   -1    0    0  501  502  0.00000000000E+00  0.00000000000E+00  0.88511750617E+02  0.88511750617E+02  0.00000000000E+00 0.  1.
         21   -1    0    0  502  503 -0.00000000000E+00 -0.00000000000E+00 -0.41124734483E+03  0.41124734483E+03  0.00000000000E+00 0.  1.
          6    1    1    2  501    0 -0.66087377269E+02 -0.49199022637E+02 -0.16831514204E+03  0.25436602034E+03  0.17200000000E+03 0.  1.
         -6    1    1    2    0  503  0.66087377269E+02  0.49199022637E+02 -0.15442045218E+03  0.24539307511E+03  0.17200000000E+03 0.  1.
</event>
<event>
 4    1  0.6129841E-001  0.1896632E+03  0.7818608E-02  0.1158765E+00
         21   -1    0    0  503  502  0.00000000000E+00  0.00000000000E+00  0.25383579404E+03  0.25383579404E+03  0.00000000000E+00 0.  1.
         21   -1    0    0  501  503 -0.00000000000E+00 -0.00000000000E+00 -0.14258182077E+03  0.14258182077E+03  0.00000000000E+00 0.  1.
          6    1    1    2  501    0  0.13985362777E+02 -0.78692659121E+02  0.71089040853E+02  0.20254820834E+03  0.17200000000E+03 0.  1.
         -6    1    1    2    0  502 -0.13985362777E+02  0.78692659121E+02  0.40164932415E+02  0.19386940648E+03  0.17200000000E+03 0.  1.
</event>
<event>
 4    1  0.6129841E-001  0.2163165E+03  0.7818608E-02  0.1136659E+00
         21   -1    0    0  503  502  0.00000000000E+00  0.00000000000E+00  0.35361826359E+03  0.35361826359E+03  0.00000000000E+00 0.  1.
         21   -1    0    0  501  503 -0.00000000000E+00 -0.00000000000E+00 -0.47745345973E+03  0.47745345973E+03  0.00000000000E+00 0.  1.
          6    1    1    2  501    0 -0.11941245897E+03  0.54309348181E+02 -0.41520880941E+03  0.46817859420E+03  0.17200000000E+03 0.  1.
         -6    1    1    2    0  502  0.11941245897E+03 -0.54309348181E+02  0.29137361327E+03  0.36289312913E+03  0.17200000000E+03 0.  1.
</event>
<event>
 4    1  0.6129841E-001  0.1745216E+03  0.7818608E-02  0.1173213E+00
         21   -1    0    0  501  502  0.00000000000E+00  0.00000000000E+00  0.34479409218E+03  0.34479409218E+03  0.00000000000E+00 0.  1.
         21   -1    0    0  502  503 -0.00000000000E+00 -0.00000000000E+00 -0.10493651960E+03  0.10493651960E+03  0.00000000000E+00 0.  1.
          6    1    1    2  501    0  0.26935719726E+02  0.12176639202E+02  0.20936578402E+03  0.27256528586E+03  0.17200000000E+03 0.  1.
         -6    1    1    2    0  503 -0.26935719726E+02 -0.12176639202E+02  0.30491788556E+02  0.17716532592E+03  0.17200000000E+03 0.  1.
</event>
<event>
 4    1  0.6129841E-001  0.2008414E+03  0.7818608E-02  0.1149031E+00
         21   -1    0    0  503  502  0.00000000000E+00  0.00000000000E+00  0.33602792479E+03  0.33602792479E+03  0.00000000000E+00 0.  1.
         21   -1    0    0  501  503 -0.00000000000E+00 -0.00000000000E+00 -0.12237544519E+03  0.12237544519E+03  0.00000000000E+00 0.  1.
          6    1    1    2  501    0  0.54470264364E+01 -0.10355474671E+03  0.75172342071E+02  0.21444844759E+03  0.17200000000E+03 0.  1.
         -6    1    1    2    0  502 -0.54470264364E+01  0.10355474671E+03  0.13848013753E+03  0.24395492238E+03  0.17200000000E+03 0.  1.
</event>
<event>
 4    1  0.6129841E-001  0.3365529E+03  0.7818608E-02  0.1068274E+00
         21   -1    0    0  501  502  0.00000000000E+00  0.00000000000E+00  0.26120635905E+03  0.26120635905E+03  0.00000000000E+00 0.  1.
         21   -1    0    0  502  503 -0.00000000000E+00 -0.00000000000E+00 -0.53690675508E+03  0.53690675508E+03  0.00000000000E+00 0.  1.
          6    1    1    2  501    0  0.19897030939E+03  0.20998732987E+03 -0.31286656652E+03  0.45951425568E+03  0.17200000000E+03 0.  1.
         -6    1    1    2    0  503 -0.19897030939E+03 -0.20998732987E+03  0.37166170491E+02  0.33859885846E+03  0.17200000000E+03 0.  1.
</event>
<event>
 4    1  0.6129841E-001  0.1820151E+03  0.7818608E-02  0.1165867E+00
         21   -1    0    0  501  502  0.00000000000E+00  0.00000000000E+00  0.34951368410E+02  0.34951368410E+02  0.00000000000E+00 0.  1.
         21   -1    0    0  502  503 -0.00000000000E+00 -0.00000000000E+00 -0.10908598471E+04  0.10908598471E+04  0.00000000000E+00 0.  1.
          6    1    1    2  501    0 -0.18502378100E+02 -0.56596384665E+02 -0.32415722163E+03  0.37176254934E+03  0.17200000000E+03 0.  1.
         -6    1    1    2    0  503  0.18502378100E+02  0.56596384665E+02 -0.73175125702E+03  0.75404866614E+03  0.17200000000E+03 0.  1.
</event>
<event>
 4    1  0.6129841E-001  0.2404762E+03  0.7818608E-02  0.1119476E+00
         21   -1    0    0  503  502  0.00000000000E+00  0.00000000000E+00  0.23568333473E+03  0.23568333473E+03  0.00000000000E+00 0. -1.
         21   -1    0    0  501  503 -0.00000000000E+00 -0.00000000000E+00 -0.24828090816E+03  0.24828090816E+03  0.00000000000E+00 0.  1.
          6    1    1    2  501    0  0.14006239581E+03 -0.92883467740E+02  0.19918093094E+02  0.24129969692E+03  0.17200000000E+03 0.  1.
         -6    1    1    2    0  502 -0.14006239581E+03  0.92883467740E+02 -0.32515666519E+02  0.24266454597E+03  0.17200000000E+03 0.  1.
</event>
<event>
 4    1  0.6129841E-001  0.2209590E+03  0.7818608E-02  0.1133170E+00
         21   -1    0    0  503  502  0.00000000000E+00  0.00000000000E+00  0.76000030139E+03  0.76000030139E+03  0.00000000000E+00 0.  1.
         21   -1    0    0  501  503 -0.00000000000E+00 -0.00000000000E+00 -0.12371700112E+03  0.12371700112E+03  0.00000000000E+00 0.  1.
          6    1    1    2  501    0 -0.27001889770E+02  0.13605071553E+03  0.11775417177E+02  0.22127259138E+03  0.17200000000E+03 0.  1.
         -6    1    1    2    0  502  0.27001889770E+02 -0.13605071553E+03  0.62450788310E+03  0.66244471113E+03  0.17200000000E+03 0.  1.
</event>
<event>
 4    1  0.6129841E-001  0.1730992E+03  0.7818608E-02  0.1174654E+00
         21   -1    0    0  503  502  0.00000000000E+00  0.00000000000E+00  0.11623281586E+03  0.11623281586E+03  0.00000000000E+00 0.  1.
         21   -1    0    0  501  503 -0.00000000000E+00 -0.00000000000E+00 -0.38626202454E+03  0.38626202454E+03  0.00000000000E+00 0.  1.
          6    1    1    2  501    0  0.18705894950E+02  0.54242207341E+01 -0.27991501418E+03  0.32911357893E+03  0.17200000000E+03 0.  1.
         -6    1    1    2    0  502 -0.18705894950E+02 -0.54242207341E+01  0.98858054970E+01  0.17338126146E+03  0.17200000000E+03 0.  1.
</event>
<event>
 4    1  0.6129841E-001  0.1987142E+03  0.7818608E-02  0.1150828E+00
         21   -1    0    0  503  502  0.00000000000E+00  0.00000000000E+00  0.13341992017E+04  0.13341992017E+04  0.00000000000E+00 0. -1.
         21   -1    0    0  501  503 -0.00000000000E+00 -0.00000000000E+00 -0.21631466565E+03  0.21631466565E+03  0.00000000000E+00 0. -1.
          6    1    1    2  501    0  0.57832243057E+02  0.80986294671E+02 -0.16132919017E+03  0.25595791815E+03  0.17200000000E+03 0. -1.
         -6    1    1    2    0  502 -0.57832243057E+02 -0.80986294671E+02  0.12792137262E+04  0.12945559492E+04  0.17200000000E+03 0. -1.
</event>
<event>
 4    1  0.6129841E-001  0.2301282E+03  0.7818608E-02  0.1126550E+00
         21   -1    0    0  503  502  0.00000000000E+00  0.00000000000E+00  0.42209589892E+03  0.42209589892E+03  0.00000000000E+00 0. -1.
         21   -1    0    0  501  503 -0.00000000000E+00 -0.00000000000E+00 -0.19327941649E+03  0.19327941649E+03  0.00000000000E+00 0.  1.
          6    1    1    2  501    0 -0.15187771374E+03 -0.17554291738E+02 -0.67843942593E+02  0.23992039020E+03  0.17200000000E+03 0.  1.
         -6    1    1    2    0  502  0.15187771374E+03  0.17554291738E+02  0.29666042502E+03  0.37545492521E+03  0.17200000000E+03 0.  1.
</event>
<event>
 4    1  0.6129841E-001  0.2270641E+03  0.7818608E-02  0.1128723E+00
         21   -1    0    0  503  502  0.00000000000E+00  0.00000000000E+00  0.12144321517E+03  0.12144321517E+03  0.00000000000E+00 0. -1.
         21   -1    0    0  501  503 -0.00000000000E+00 -0.00000000000E+00 -0.43138894725E+03  0.43138894725E+03  0.00000000000E+00 0. -1.
          6    1    1    2  501    0  0.45949860245E+02  0.14093517908E+03 -0.18978903088E+03  0.29593578797E+03  0.17200000000E+03 0. -1.
         -6    1    1    2    0  502 -0.45949860245E+02 -0.14093517908E+03 -0.12015670120E+03  0.25689637444E+03  0.17200000000E+03 0. -1.
</event>
<event>
 4    1  0.6129841E-001  0.1748980E+03  0.7818608E-02  0.1172834E+00
         21   -1    0    0  503  502  0.00000000000E+00  0.00000000000E+00  0.23484225010E+02  0.23484225010E+02  0.00000000000E+00 0.  1.
         21   -1    0    0  501  503 -0.00000000000E+00 -0.00000000000E+00 -0.16185163533E+04  0.16185163533E+04  0.00000000000E+00 0.  1.
          6    1    1    2  501    0 -0.31475015004E+02 -0.38249387829E+01 -0.11602659196E+04  0.11733739007E+04  0.17200000000E+03 0.  1.
         -6    1    1    2    0  502  0.31475015004E+02  0.38249387829E+01 -0.43476620874E+03  0.46862667763E+03  0.17200000000E+03 0.  1.
</event>
<event>
 4    1  0.6129841E-001  0.2973425E+03  0.7818608E-02  0.1086577E+00
         21   -1    0    0  503  502  0.00000000000E+00  0.00000000000E+00  0.21348603105E+03  0.21348603105E+03  0.00000000000E+00 0.  1.
         21   -1    0    0  501  503 -0.00000000000E+00 -0.00000000000E+00 -0.51148865320E+03  0.51148865320E+03  0.00000000000E+00 0. -1.
          6    1    1    2  501    0 -0.23938802920E+03  0.39012228970E+02 -0.30714260049E+03  0.42749170702E+03  0.17200000000E+03 0. -1.
         -6    1    1    2    0  502  0.23938802920E+03 -0.39012228970E+02  0.91399783432E+01  0.29748297722E+03  0.17200000000E+03 0.  1.
</event>
<event>
 4    1  0.6129841E-001  0.3026940E+03  0.7818608E-02  0.1083902E+00
         21   -1    0    0  503  502  0.00000000000E+00  0.00000000000E+00  0.41646848388E+03  0.41646848388E+03  0.00000000000E+00 0.  1.
         21   -1    0    0  501  503 -0.00000000000E+00 -0.00000000000E+00 -0.74093670933E+03  0.74093670933E+03  0.00000000000E+00 0. -1.
          6    1    1    2  501    0 -0.22471580108E+03  0.10743598339E+03 -0.64747427602E+03  0.71473534955E+03  0.17200000000E+03 0. -1.
         -6    1    1    2    0  502  0.22471580108E+03 -0.10743598339E+03  0.32300605057E+03  0.44266984367E+03  0.17200000000E+03 0.  1.
</event>
<event>
 4    1  0.6129841E-001  0.2017432E+03  0.7818608E-02  0.1148277E+00
         21   -1    0    0  503  502  0.00000000000E+00  0.00000000000E+00  0.56595370690E+02  0.56595370690E+02  0.00000000000E+00 0. -1.
         21   -1    0    0  501  503 -0.00000000000E+00 -0.00000000000E+00 -0.72530808885E+03  0.72530808885E+03  0.00000000000E+00 0. -1.
          6    1    1    2  501    0 -0.87052427165E+02  0.59482772559E+02 -0.37039194183E+03  0.42177069111E+03  0.17200000000E+03 0.  1.
         -6    1    1    2    0  502  0.87052427165E+02 -0.59482772559E+02 -0.29832077632E+03  0.36013276842E+03  0.17200000000E+03 0.  1.
</event>
<event>
 4    1  0.6129841E-001  0.2110657E+03  0.7818608E-02  0.1140725E+00
         21   -1    0    0  501  502  0.00000000000E+00  0.00000000000E+00  0.26639985604E+03  0.26639985604E+03  0.00000000000E+00 0. -1.
         21   -1    0    0  502  503 -0.00000000000E+00 -0.00000000000E+00 -0.17266276124E+03  0.17266276124E+03  0.00000000000E+00 0. -1.
          6    1    1    2  501    0 -0.61763098687E+02  0.10559388192E+03  0.85827058075E+02  0.22784870453E+03  0.17200000000E+03 0.  1.
         -6    1    1    2    0  503  0.61763098687E+02 -0.10559388192E+03  0.79100367309E+01  0.21121391275E+03  0.17200000000E+03 0.  1.
</event>
<event>
 4    1  0.6129841E-001  0.1864442E+03  0.7818608E-02  0.1161708E+00
         21   -1    0    0  501  502  0.00000000000E+00  0.00000000000E+00  0.44521459466E+03  0.44521459466E+03  0.00000000000E+00 0.  1.
         21   -1    0    0  502  503 -0.00000000000E+00 -0.00000000000E+00 -0.19712131057E+03  0.19712131057E+03  0.00000000000E+00 0.  1.
          6    1    1    2  501    0 -0.68169777255E+02 -0.23028879684E+02  0.37363135600E+03  0.41756656717E+03  0.17200000000E+03 0.  1.
         -6    1    1    2    0  503  0.68169777255E+02  0.23028879684E+02 -0.12553807192E+03  0.22476933806E+03  0.17200000000E+03 0.  1.
</event>
<event>
 4    1  0.6129841E-001  0.2007722E+03  0.7818608E-02  0.1149089E+00
         21   -1    0    0  501  502  0.00000000000E+00  0.00000000000E+00  0.34038699847E+02  0.34038699847E+02  0.00000000000E+00 0. -1.
         21   -1    0    0  502  503 -0.00000000000E+00 -0.00000000000E+00 -0.12066075641E+04  0.12066075641E+04  0.00000000000E+00 0. -1.
          6    1    1    2  501    0  0.10094351814E+03  0.23149044937E+02 -0.50179703670E+03  0.54047177371E+03  0.17200000000E+03 0. -1.
         -6    1    1    2    0  503 -0.10094351814E+03 -0.23149044937E+02 -0.67077182753E+03  0.70017449021E+03  0.17200000000E+03 0. -1.
</event>
<event>
 4    1  0.6129841E-001  0.1854285E+03  0.7818608E-02  0.1162650E+00
         21   -1    0    0  503  502  0.00000000000E+00  0.00000000000E+00  0.84029515382E+03  0.84029515382E+03  0.00000000000E+00 0.  1.
         21   -1    0    0  501  503 -0.00000000000E+00 -0.00000000000E+00 -0.89383248108E+02  0.89383248108E+02  0.00000000000E+00 0.  1.
          6    1    1    2  501    0  0.14399496321E+02  0.67767157504E+02  0.33171603557E+02  0.18837220711E+03  0.17200000000E+03 0.  1.
         -6    1    1    2    0  502 -0.14399496321E+02 -0.67767157504E+02  0.71774030216E+03  0.74130619482E+03  0.17200000000E+03 0.  1.
</event>
<event>
 4    1  0.6129841E-001  0.2050753E+03  0.7818608E-02  0.1145526E+00
         21   -1    0    0  501  502  0.00000000000E+00  0.00000000000E+00  0.26259274748E+03  0.26259274748E+03  0.00000000000E+00 0. -1.
         21   -1    0    0  502  503 -0.00000000000E+00 -0.00000000000E+00 -0.17014654420E+03  0.17014654420E+03  0.00000000000E+00 0. -1.
          6    1    1    2  501    0 -0.11079873253E+03  0.13983309984E+02  0.98652159643E+02  0.22757007864E+03  0.17200000000E+03 0. -1.
         -6    1    1    2    0  503  0.11079873253E+03 -0.13983309984E+02 -0.62059563598E+01  0.20516921305E+03  0.17200000000E+03 0. -1.
</event>
<event>
 4    1  0.6129841E-001  0.1731766E+03  0.7818608E-02  0.1174575E+00
         21   -1    0    0  503  502  0.00000000000E+00  0.00000000000E+00  0.16791613948E+03  0.16791613948E+03  0.00000000000E+00 0. -1.
         21   -1    0    0  501  503 -0.00000000000E+00 -0.00000000000E+00 -0.19551939893E+03  0.19551939893E+03  0.00000000000E+00 0. -1.
          6    1    1    2  501    0  0.17218883201E+02 -0.10471949369E+02 -0.67254345571E+02  0.18577755155E+03  0.17200000000E+03 0. -1.
         -6    1    1    2    0  502 -0.17218883201E+02  0.10471949369E+02  0.39651086121E+02  0.17765798685E+03  0.17200000000E+03 0. -1.
</event>
<event>
 4    1  0.6129841E-001  0.2445899E+03  0.7818608E-02  0.1116772E+00
         21   -1    0    0  503  502  0.00000000000E+00  0.00000000000E+00  0.10775648567E+04  0.10775648567E+04  0.00000000000E+00 0. -1.
         21   -1    0    0  501  503 -0.00000000000E+00 -0.00000000000E+00 -0.55886825841E+02  0.55886825841E+02  0.00000000000E+00 0. -1.
          6    1    1    2  501    0  0.17345035697E+03 -0.12458373179E+02  0.46479920691E+03  0.52522617998E+03  0.17200000000E+03 0.  1.
         -6    1    1    2    0  502 -0.17345035697E+03  0.12458373179E+02  0.55687882393E+03  0.60822550254E+03  0.17200000000E+03 0.  1.
</event>
<event>
 4    1  0.6129841E-001  0.3006245E+03  0.7818608E-02  0.1084929E+00
         21   -1    0    0  501  502  0.00000000000E+00  0.00000000000E+00  0.42140003467E+03  0.42140003467E+03  0.00000000000E+00 0. -1.
         21   -1    0    0  502  503 -0.00000000000E+00 -0.00000000000E+00 -0.21478519983E+03  0.21478519983E+03  0.00000000000E+00 0.  1.
          6    1    1    2  501    0 -0.24366134684E+03  0.37686309880E+02  0.11560961234E+03  0.32208801959E+03  0.17200000000E+03 0. -1.
         -6    1    1    2    0  503  0.24366134684E+03 -0.37686309880E+02  0.91005222501E+02  0.31409721492E+03  0.17200000000E+03 0. -1.
</event>
<event>
 4    1  0.6129841E-001  0.2318305E+03  0.7818608E-02  0.1125358E+00
         21   -1    0    0  503  502  0.00000000000E+00  0.00000000000E+00  0.38570208532E+03  0.38570208532E+03  0.00000000000E+00 0. -1.
         21   -1    0    0  501  503 -0.00000000000E+00 -0.00000000000E+00 -0.20111384035E+03  0.20111384035E+03  0.00000000000E+00 0. -1.
          6    1    1    2  501    0 -0.96658965775E+02  0.12173102651E+03 -0.70312413249E+02  0.24225860962E+03  0.17200000000E+03 0. -1.
         -6    1    1    2    0  502  0.96658965775E+02 -0.12173102651E+03  0.25490065822E+03  0.34455731604E+03  0.17200000000E+03 0. -1.
</event>
<event>
 4    1  0.6129841E-001  0.3023734E+03  0.7818608E-02  0.1084060E+00
         21   -1    0    0  501  502  0.00000000000E+00  0.00000000000E+00  0.83139798551E+03  0.83139798551E+03  0.00000000000E+00 0.  1.
         21   -1    0    0  502  503 -0.00000000000E+00 -0.00000000000E+00 -0.12040838275E+03  0.12040838275E+03  0.00000000000E+00 0.  1.
          6    1    1    2  501    0 -0.37233249086E+02 -0.24588484335E+03  0.49561023485E+03  0.58056797699E+03  0.17200000000E+03 0.  1.
         -6    1    1    2    0  503  0.37233249086E+02  0.24588484335E+03  0.21537936791E+03  0.37123839126E+03  0.17200000000E+03 0.  1.
</event>
<event>
 4    1  0.6129841E-001  0.1800495E+03  0.7818608E-02  0.1167755E+00
         21   -1    0    0  503  502  0.00000000000E+00  0.00000000000E+00  0.99596740218E+02  0.99596740218E+02  0.00000000000E+00 0.  1.
         21   -1    0    0  501  503 -0.00000000000E+00 -0.00000000000E+00 -0.41483188751E+03  0.41483188751E+03  0.00000000000E+00 0.  1.
          6    1    1    2  501    0  0.42401420410E+02 -0.32185873606E+02 -0.38250383543E+02  0.18406765809E+03  0.17200000000E+03 0.  1.
         -6    1    1    2    0  502 -0.42401420410E+02  0.32185873606E+02 -0.27698476375E+03  0.33036096964E+03  0.17200000000E+03 0.  1.
</event>
<event>
 4    1  0.6129841E-001  0.2181272E+03  0.7818608E-02  0.1135287E+00
         21   -1    0    0  503  502  0.00000000000E+00  0.00000000000E+00  0.26618713214E+03  0.26618713214E+03  0.00000000000E+00 0. -1.
         21   -1    0    0  501  503 -0.00000000000E+00 -0.00000000000E+00 -0.25795668091E+03  0.25795668091E+03  0.00000000000E+00 0.  1.
          6    1    1    2  501    0 -0.10401878490E+03 -0.84708769745E+02  0.14934079559E+03  0.26435233404E+03  0.17200000000E+03 0. -1.
         -6    1    1    2    0  502  0.10401878490E+03  0.84708769745E+02 -0.14111034436E+03  0.25979147901E+03  0.17200000000E+03 0.  1.
</event>
<event>
 4    1  0.6129841E-001  0.1871625E+03  0.7818608E-02  0.1161046E+00
         21   -1    0    0  501  502  0.00000000000E+00  0.00000000000E+00  0.80439422715E+02  0.80439422715E+02  0.00000000000E+00 0. -1.
         21   -1    0    0  502  503 -0.00000000000E+00 -0.00000000000E+00 -0.56207277030E+03  0.56207277030E+03  0.00000000000E+00 0. -1.
          6    1    1    2  501    0  0.50792434863E+02  0.53534223216E+02 -0.88355580302E+02  0.20696978781E+03  0.17200000000E+03 0. -1.
         -6    1    1    2    0  503 -0.50792434863E+02 -0.53534223216E+02 -0.39327776729E+03  0.43554240521E+03  0.17200000000E+03 0. -1.
</event>
<event>
 4    1  0.6129841E-001  0.2026033E+03  0.7818608E-02  0.1147561E+00
         21   -1    0    0  501  502  0.00000000000E+00  0.00000000000E+00  0.19460198860E+04  0.19460198860E+04  0.00000000000E+00 0. -1.
         21   -1    0    0  502  503 -0.00000000000E+00 -0.00000000000E+00 -0.21869141627E+02  0.21869141627E+02  0.00000000000E+00 0. -1.
          6    1    1    2  501    0  0.54986954234E+02  0.91872435495E+02  0.11473956014E+04  0.11651458173E+04  0.17200000000E+03 0. -1.
         -6    1    1    2    0  503 -0.54986954234E+02 -0.91872435495E+02  0.77675514305E+03  0.80274321037E+03  0.17200000000E+03 0. -1.
</event>
<event>
 4    1  0.6129841E-001  0.1727865E+03  0.7818608E-02  0.1174973E+00
         21   -1    0    0  501  502  0.00000000000E+00  0.00000000000E+00  0.14361398868E+03  0.14361398868E+03  0.00000000000E+00 0.  1.
         21   -1    0    0  502  503 -0.00000000000E+00 -0.00000000000E+00 -0.29179017921E+03  0.29179017921E+03  0.00000000000E+00 0.  1.
          6    1    1    2  501    0 -0.13748431803E+02  0.90648250714E+01  0.42652445463E+02  0.17797309216E+03  0.17200000000E+03 0.  1.
         -6    1    1    2    0  503  0.13748431803E+02 -0.90648250714E+01 -0.19082863600E+03  0.25743107572E+03  0.17200000000E+03 0.  1.
</event>
<event>
 4    1  0.6129841E-001  0.2190512E+03  0.7818608E-02  0.1134592E+00
         21   -1    0    0  501  502  0.00000000000E+00  0.00000000000E+00  0.25817260731E+03  0.25817260731E+03  0.00000000000E+00 0.  1.
         21   -1    0    0  502  503 -0.00000000000E+00 -0.00000000000E+00 -0.32929497783E+03  0.32929497783E+03  0.00000000000E+00 0.  1.
          6    1    1    2  501    0 -0.12602522706E+03 -0.50170440177E+02  0.15830050793E+03  0.27026372627E+03  0.17200000000E+03 0. -1.
         -6    1    1    2    0  503  0.12602522706E+03  0.50170440177E+02 -0.22942287846E+03  0.31720385887E+03  0.17200000000E+03 0. -1.
</event>
<event>
 4    1  0.6129841E-001  0.1867283E+03  0.7818608E-02  0.1161446E+00
         21   -1    0    0  501  502  0.00000000000E+00  0.00000000000E+00  0.60030434881E+02  0.60030434881E+02  0.00000000000E+00 0.  1.
         21   -1    0    0  502  503 -0.00000000000E+00 -0.00000000000E+00 -0.82566375979E+03  0.82566375979E+03  0.00000000000E+00 0.  1.
          6    1    1    2  501    0  0.47192732720E+02  0.55283954337E+02 -0.14166627830E+03  0.23438601502E+03  0.17200000000E+03 0.  1.
         -6    1    1    2    0  503 -0.47192732720E+02 -0.55283954337E+02 -0.62396704661E+03  0.65130817965E+03  0.17200000000E+03 0.  1.
</event>
<event>
 4    1  0.6129841E-001  0.1741692E+03  0.7818608E-02  0.1173569E+00
         21   -1    0    0  503  502  0.00000000000E+00  0.00000000000E+00  0.63965047724E+03  0.63965047724E+03  0.00000000000E+00 0.  1.
         21   -1    0    0  501  503 -0.00000000000E+00 -0.00000000000E+00 -0.15234034545E+03  0.15234034545E+03  0.00000000000E+00 0.  1.
          6    1    1    2  501    0 -0.23696821360E+02 -0.13760838245E+02 -0.84972422811E+02  0.19379167333E+03  0.17200000000E+03 0.  1.
         -6    1    1    2    0  502  0.23696821360E+02  0.13760838245E+02  0.57228255460E+03  0.59819914937E+03  0.17200000000E+03 0.  1.
</event>
<event>
 4    1  0.6129841E-001  0.6100290E+03  0.7818608E-02  0.9884815E-01
         21   -1    0    0  501  502  0.00000000000E+00  0.00000000000E+00  0.98924491328E+03  0.98924491328E+03  0.00000000000E+00 0.  1.
         21   -1    0    0  502  503 -0.00000000000E+00 -0.00000000000E+00 -0.50232623652E+03  0.50232623652E+03  0.00000000000E+00 0. -1.
          6    1    1    2  501    0  0.13264377845E+03  0.57004999280E+03  0.61718772255E+03  0.86778802200E+03  0.17200000000E+03 0.  1.
         -6    1    1    2    0  503 -0.13264377845E+03 -0.57004999280E+03 -0.13026904579E+03  0.62378312781E+03  0.17200000000E+03 0.  1.
</event>
<event>
 4    1  0.6129841E-001  0.1983895E+03  0.7818608E-02  0.1151105E+00
         21   -1    0    0  501  502  0.00000000000E+00  0.00000000000E+00  0.44151513037E+03  0.44151513037E+03  0.00000000000E+00 0.  1.
         21   -1    0    0  502  503 -0.00000000000E+00 -0.00000000000E+00 -0.12215497740E+03  0.12215497740E+03  0.00000000000E+00 0.  1.
          6    1    1    2  501    0  0.93715319700E+02 -0.31493197300E+02  0.30619074311E+03  0.36484401296E+03  0.17200000000E+03 0.  1.
         -6    1    1    2    0  503 -0.93715319700E+02  0.31493197300E+02  0.13169409861E+02  0.19882609481E+03  0.17200000000E+03 0.  1.
</event>
<event>
 4    1  0.6129841E-001  0.1727137E+03  0.7818608E-02  0.1175047E+00
         21   -1    0    0  503  502  0.00000000000E+00  0.00000000000E+00  0.20019969622E+03  0.20019969622E+03  0.00000000000E+00 0. -1.
         21   -1    0    0  501  503 -0.00000000000E+00 -0.00000000000E+00 -0.15273217080E+03  0.15273217080E+03  0.00000000000E+00 0. -1.
          6    1    1    2  501    0  0.11166524703E+01 -0.15645334629E+02  0.51314017537E+02  0.18017533628E+03  0.17200000000E+03 0. -1.
         -6    1    1    2    0  502 -0.11166524703E+01  0.15645334629E+02 -0.38464921165E+01  0.17275653073E+03  0.17200000000E+03 0. -1.
</event>
<event>
 4    1  0.6129841E-001  0.1833075E+03  0.7818608E-02  0.1164640E+00
         21   -1    0    0  501  502  0.00000000000E+00  0.00000000000E+00  0.43311101112E+03  0.43311101112E+03  0.00000000000E+00 0.  1.
         21   -1    0    0  502  503 -0.00000000000E+00 -0.00000000000E+00 -0.23370067854E+03  0.23370067854E+03  0.00000000000E+00 0.  1.
          6    1    1    2  501    0 -0.50332288904E+02 -0.38526780599E+02  0.37220770179E+03  0.41489784936E+03  0.17200000000E+03 0.  1.
         -6    1    1    2    0  503  0.50332288904E+02  0.38526780599E+02 -0.17279736921E+03  0.25191384030E+03  0.17200000000E+03 0.  1.
</event>
<event>
 4    1  0.6129841E-001  0.1831613E+03  0.7818608E-02  0.1164778E+00
         21   -1    0    0  503  502  0.00000000000E+00  0.00000000000E+00  0.15541694936E+03  0.15541694936E+03  0.00000000000E+00 0. -1.
         21   -1    0    0  501  503 -0.00000000000E+00 -0.00000000000E+00 -0.25294664740E+03  0.25294664740E+03  0.00000000000E+00 0. -1.
          6    1    1    2  501    0 -0.62757015743E+02  0.50626293029E+01 -0.12694922828E+03  0.22285461584E+03  0.17200000000E+03 0.  1.
         -6    1    1    2    0  502  0.62757015743E+02 -0.50626293029E+01  0.29419530239E+02  0.18550898091E+03  0.17200000000E+03 0.  1.
</event>
<event>
 4    1  0.6129841E-001  0.3052780E+03  0.7818608E-02  0.1082632E+00
         21   -1    0    0  501  502  0.00000000000E+00  0.00000000000E+00  0.10092877504E+04  0.10092877504E+04  0.00000000000E+00 0.  1.
         21   -1    0    0  502  503 -0.00000000000E+00 -0.00000000000E+00 -0.10214900637E+03  0.10214900637E+03  0.00000000000E+00 0. -1.
          6    1    1    2  501    0 -0.16603905097E+03 -0.18984643441E+03  0.62580218447E+03  0.69629233027E+03  0.17200000000E+03 0. -1.
         -6    1    1    2    0  503  0.16603905097E+03  0.18984643441E+03  0.28133655958E+03  0.41514442651E+03  0.17200000000E+03 0. -1.
</event>
<event>
 4    1  0.6129841E-001  0.2979122E+03  0.7818608E-02  0.1086289E+00
         21   -1    0    0  501  502  0.00000000000E+00  0.00000000000E+00  0.12800743897E+03  0.12800743897E+03  0.00000000000E+00 0.  1.
         21   -1    0    0  502  503 -0.00000000000E+00 -0.00000000000E+00 -0.80760143070E+03  0.80760143070E+03  0.00000000000E+00 0. -1.
          6    1    1    2  501    0  0.18484075121E+03  0.15811881534E+03 -0.51576377593E+03  0.59562063063E+03  0.17200000000E+03 0. -1.
         -6    1    1    2    0  503 -0.18484075121E+03 -0.15811881534E+03 -0.16383021580E+03  0.33998823903E+03  0.17200000000E+03 0.  1.
</event>
<event>
 4    1  0.6129841E-001  0.1771488E+03  0.7818608E-02  0.1170591E+00
         21   -1    0    0  503  502  0.00000000000E+00  0.00000000000E+00  0.24538762514E+02  0.24538762514E+02  0.00000000000E+00 0.  1.
         21   -1    0    0  501  503 -0.00000000000E+00 -0.00000000000E+00 -0.12818170920E+04  0.12818170920E+04  0.00000000000E+00 0.  1.
          6    1    1    2  501    0  0.37288995952E+02  0.20179794779E+02 -0.59727767406E+03  0.62299463342E+03  0.17200000000E+03 0.  1.
         -6    1    1    2    0  502 -0.37288995952E+02 -0.20179794779E+02 -0.66000065542E+03  0.68336122110E+03  0.17200000000E+03 0.  1.
</event>
<event>
 4    1  0.6129841E-001  0.1925975E+03  0.7818608E-02  0.1156139E+00
         21   -1    0    0  501  502  0.00000000000E+00  0.00000000000E+00  0.10994583840E+03  0.10994583840E+03  0.00000000000E+00 0.  1.
         21   -1    0    0  502  503 -0.00000000000E+00 -0.00000000000E+00 -0.48694384949E+03  0.48694384949E+03  0.00000000000E+00 0. -1.
          6    1    1    2  501    0  0.29952926567E+02  0.81318078222E+02 -0.23099484192E+02  0.19397781787E+03  0.17200000000E+03 0.  1.
         -6    1    1    2    0  503 -0.29952926567E+02 -0.81318078222E+02 -0.35389852691E+03  0.40291187002E+03  0.17200000000E+03 0. -1.
</event>
<event>
 4    1  0.6129841E-001  0.2560348E+03  0.7818608E-02  0.1109549E+00
         21   -1    0    0  503  502  0.00000000000E+00  0.00000000000E+00  0.43386595535E+03  0.43386595535E+03  0.00000000000E+00 0.  1.
         21   -1    0    0  501  503 -0.00000000000E+00 -0.00000000000E+00 -0.19474348514E+03  0.19474348514E+03  0.00000000000E+00 0. -1.
          6    1    1    2  501    0  0.62771628100E+02 -0.17896798557E+03 -0.29243693467E+02  0.25769945821E+03  0.17200000000E+03 0. -1.
         -6    1    1    2    0  502 -0.62771628100E+02  0.17896798557E+03  0.26836616367E+03  0.37090998228E+03  0.17200000000E+03 0. -1.
</event>
<event>
 4    1  0.6129841E-001  0.1769454E+03  0.7818608E-02  0.1170792E+00
         21   -1    0    0  503  502  0.00000000000E+00  0.00000000000E+00  0.12378767794E+03  0.12378767794E+03  0.00000000000E+00 0.  1.
         21   -1    0    0  501  503 -0.00000000000E+00 -0.00000000000E+00 -0.33225443076E+03  0.33225443076E+03  0.00000000000E+00 0.  1.
          6    1    1    2  501    0  0.82680183142E+01 -0.40710242367E+02 -0.21564783871E+03  0.27895102492E+03  0.17200000000E+03 0.  1.
         -6    1    1    2    0  502 -0.82680183142E+01  0.40710242367E+02  0.71810858907E+01  0.17709108378E+03  0.17200000000E+03 0.  1.
</event>
<event>
 4    1  0.6129841E-001  0.2207493E+03  0.7818608E-02  0.1133326E+00
         21   -1    0    0  503  502  0.00000000000E+00  0.00000000000E+00  0.56163424907E+03  0.56163424907E+03  0.00000000000E+00 0. -1.
         21   -1    0    0  501  503 -0.00000000000E+00 -0.00000000000E+00 -0.10008138848E+03  0.10008138848E+03  0.00000000000E+00 0. -1.
          6    1    1    2  501    0 -0.75025322036E+02 -0.11626458126E+03  0.11009058453E+03  0.24667830996E+03  0.17200000000E+03 0. -1.
         -6    1    1    2    0  502  0.75025322036E+02  0.11626458126E+03  0.35146227606E+03  0.41503732759E+03  0.17200000000E+03 0. -1.
</event>
<event>
 4    1  0.6129841E-001  0.1726391E+03  0.7818608E-02  0.1175123E+00
         21   -1    0    0  503  502  0.00000000000E+00  0.00000000000E+00  0.12267079967E+03  0.12267079967E+03  0.00000000000E+00 0. -1.
         21   -1    0    0  501  503 -0.00000000000E+00 -0.00000000000E+00 -0.26694672922E+03  0.26694672922E+03  0.00000000000E+00 0. -1.
          6    1    1    2  501    0 -0.11406262027E+02 -0.94950155576E+01 -0.13053218326E+03  0.21643222727E+03  0.17200000000E+03 0.  1.
         -6    1    1    2    0  502  0.11406262027E+02  0.94950155576E+01 -0.13743746288E+02  0.17318530162E+03  0.17200000000E+03 0.  1.
</event>
<event>
 4    1  0.6129841E-001  0.1999580E+03  0.7818608E-02  0.1149774E+00
         21   -1    0    0  501  502  0.00000000000E+00  0.00000000000E+00  0.59453274120E+02  0.59453274120E+02  0.00000000000E+00 0.  1.
         21   -1    0    0  502  503 -0.00000000000E+00 -0.00000000000E+00 -0.74406373158E+03  0.74406373158E+03  0.00000000000E+00 0.  1.
          6    1    1    2  501    0  0.50120080206E+01  0.10185331957E+03 -0.46688885388E+03  0.50790591728E+03  0.17200000000E+03 0.  1.
         -6    1    1    2    0  503 -0.50120080206E+01 -0.10185331957E+03 -0.21772160358E+03  0.29561108842E+03  0.17200000000E+03 0.  1.
</event>
<event>
 4    1  0.6129841E-001  0.2647344E+03  0.7818608E-02  0.1104332E+00
         21   -1    0    0  503  502  0.00000000000E+00  0.00000000000E+00  0.19381849179E+03  0.19381849179E+03  0.00000000000E+00 0.  1.
         21   -1    0    0  501  503 -0.00000000000E+00 -0.00000000000E+00 -0.48031756699E+03  0.48031756699E+03  0.00000000000E+00 0. -1.
          6    1    1    2  501    0 -0.10526981631E+03 -0.17151836338E+03 -0.31082691239E+03  0.40828623865E+03  0.17200000000E+03 0. -1.
         -6    1    1    2    0  502  0.10526981631E+03  0.17151836338E+03  0.24327837193E+02  0.26584982013E+03  0.17200000000E+03 0.  1.
</event>
<event>
 4    1  0.6129841E-001  0.2041599E+03  0.7818608E-02  0.1146276E+00
         21   -1    0    0  503  502  0.00000000000E+00  0.00000000000E+00  0.79228241530E+03  0.79228241530E+03  0.00000000000E+00 0. -1.
         21   -1    0    0  501  503 -0.00000000000E+00 -0.00000000000E+00 -0.53884593182E+02  0.53884593182E+02  0.00000000000E+00 0.  1.
          6    1    1    2  501    0 -0.38215117148E+02 -0.10313511126E+03  0.43429229158E+03  0.47988648750E+03  0.17200000000E+03 0. -1.
         -6    1    1    2    0  502  0.38215117148E+02  0.10313511126E+03  0.30410553054E+03  0.36628052099E+03  0.17200000000E+03 0.  1.
</event>
<event>
 4    1  0.6129841E-001  0.2031500E+03  0.7818608E-02  0.1147108E+00
         21   -1    0    0  501  502  0.00000000000E+00  0.00000000000E+00  0.23549168557E+02  0.23549168557E+02  0.00000000000E+00 0. -1.
         21   -1    0    0  502  503 -0.00000000000E+00 -0.00000000000E+00 -0.17603162529E+04  0.17603162529E+04  0.00000000000E+00 0. -1.
          6    1    1    2  501    0  0.24528226175E+02  0.10528187462E+03 -0.80894763498E+03  0.83406605442E+03  0.17200000000E+03 0. -1.
         -6    1    1    2    0  503 -0.24528226175E+02 -0.10528187462E+03 -0.92781944938E+03  0.94979936705E+03  0.17200000000E+03 0. -1.
</event>
<event>
 4    1  0.6129841E-001  0.2241149E+03  0.7818608E-02  0.1130852E+00
         21   -1    0    0  501  502  0.00000000000E+00  0.00000000000E+00  0.26804273258E+04  0.26804273258E+04  0.00000000000E+00 0. -1.
         21   -1    0    0  502  503 -0.00000000000E+00 -0.00000000000E+00 -0.28706624977E+02  0.28706624977E+02  0.00000000000E+00 0. -1.
          6    1    1    2  501    0 -0.13433847269E+03 -0.50957369060E+02  0.21240641401E+04  0.21358548523E+04  0.17200000000E+03 0. -1.
         -6    1    1    2    0  503  0.13433847269E+03  0.50957369060E+02  0.52765656067E+03  0.57327909846E+03  0.17200000000E+03 0. -1.
</event>
<event>
 4    1  0.6129841E-001  0.1953877E+03  0.7818608E-02  0.1153690E+00
         21   -1    0    0  501  502  0.00000000000E+00  0.00000000000E+00  0.47625713855E+03  0.47625713855E+03  0.00000000000E+00 0. -1.
         21   -1    0    0  502  503 -0.00000000000E+00 -0.00000000000E+00 -0.91400264724E+02  0.91400264724E+02  0.00000000000E+00 0. -1.
          6    1    1    2  501    0  0.86682362681E+02 -0.32840764268E+02  0.29196624415E+03  0.35131273179E+03  0.17200000000E+03 0. -1.
         -6    1    1    2    0  503 -0.86682362681E+02  0.32840764268E+02  0.92890629682E+02  0.21634467149E+03  0.17200000000E+03 0. -1.
</event>
<event>
 4    1  0.6129841E-001  0.2246984E+03  0.7818608E-02  0.1130428E+00
         21   -1    0    0  503  502  0.00000000000E+00  0.00000000000E+00  0.16338564752E+03  0.16338564752E+03  0.00000000000E+00 0.  1.
         21   -1    0    0  501  503 -0.00000000000E+00 -0.00000000000E+00 -0.36275502472E+03  0.36275502472E+03  0.00000000000E+00 0.  1.
          6    1    1    2  501    0 -0.23173808961E+02 -0.14271768729E+03 -0.20093482037E+03  0.30143683538E+03  0.17200000000E+03 0.  1.
         -6    1    1    2    0  502  0.23173808961E+02  0.14271768729E+03  0.15654431695E+01  0.22470383686E+03  0.17200000000E+03 0.  1.
</event>
<event>
 4    1  0.6129841E-001  0.1966876E+03  0.7818608E-02  0.1152564E+00
         21   -1    0    0  501  502  0.00000000000E+00  0.00000000000E+00  0.18341491392E+03  0.18341491392E+03  0.00000000000E+00 0.  1.
         21   -1    0    0  502  503 -0.00000000000E+00 -0.00000000000E+00 -0.24391848585E+03  0.24391848585E+03  0.00000000000E+00 0.  1.
          6    1    1    2  501    0 -0.55327302089E+02  0.77723147556E+02  0.48336357336E+02  0.20253987623E+03  0.17200000000E+03 0.  1.
         -6    1    1    2    0  503  0.55327302089E+02 -0.77723147556E+02 -0.10883992927E+03  0.22479352354E+03  0.17200000000E+03 0.  1.
</event>
<event>
 4    1  0.6129841E-001  0.1811070E+03  0.7818608E-02  0.1166736E+00
         21   -1    0    0  503  502  0.00000000000E+00  0.00000000000E+00  0.15563814504E+03  0.15563814504E+03  0.00000000000E+00 0. -1.
         21   -1    0    0  501  503 -0.00000000000E+00 -0.00000000000E+00 -0.22297204282E+03  0.22297204282E+03  0.00000000000E+00 0. -1.
          6    1    1    2  501    0 -0.44351273031E+02  0.35337074364E+02  0.10665582330E+02  0.18142077855E+03  0.17200000000E+03 0. -1.
         -6    1    1    2    0  502  0.44351273031E+02 -0.35337074364E+02 -0.77999480118E+02  0.19718940931E+03  0.17200000000E+03 0. -1.
</event>
<event>
 4    1  0.6129841E-001  0.2057812E+03  0.7818608E-02  0.1144951E+00
         21   -1    0    0  501  502  0.00000000000E+00  0.00000000000E+00  0.14383638549E+04  0.14383638549E+04  0.00000000000E+00 0.  1.
         21   -1    0    0  502  503 -0.00000000000E+00 -0.00000000000E+00 -0.37260633323E+02  0.37260633323E+02  0.00000000000E+00 0. -1.
          6    1    1    2  501    0 -0.58017080701E+02 -0.96932451171E+02  0.10385643122E+04  0.10587547933E+04  0.17200000000E+03 0. -1.
         -6    1    1    2    0  503  0.58017080701E+02  0.96932451171E+02  0.36253890941E+03  0.41686969497E+03  0.17200000000E+03 0. -1.
</event>
<event>
 4    1  0.6129841E-001  0.2472054E+03  0.7818608E-02  0.1115084E+00
         21   -1    0    0  503  502  0.00000000000E+00  0.00000000000E+00  0.39137432458E+03  0.39137432458E+03  0.00000000000E+00 0.  1.
         21   -1    0    0  501  503 -0.00000000000E+00 -0.00000000000E+00 -0.46454641387E+03  0.46454641387E+03  0.00000000000E+00 0. -1.
          6    1    1    2  501    0 -0.17248047331E+03  0.42154671217E+02 -0.38528310195E+03  0.45777024655E+03  0.17200000000E+03 0. -1.
         -6    1    1    2    0  502  0.17248047331E+03 -0.42154671217E+02  0.31211101266E+03  0.39815049190E+03  0.17200000000E+03 0.  1.
</event>
<event>
 4    1  0.6129841E-001  0.1928931E+03  0.7818608E-02  0.1155878E+00
         21   -1    0    0  503  502  0.00000000000E+00  0.00000000000E+00  0.17970936522E+03  0.17970936522E+03  0.00000000000E+00 0.  1.
         21   -1    0    0  501  503 -0.00000000000E+00 -0.00000000000E+00 -0.45035327371E+03  0.45035327371E+03  0.00000000000E+00 0.  1.
          6    1    1    2  501    0  0.14777589823E+02 -0.86054433659E+02 -0.36687815576E+03  0.41449647030E+03  0.17200000000E+03 0.  1.
         -6    1    1    2    0  502 -0.14777589823E+02  0.86054433659E+02  0.96234247274E+02  0.21556616864E+03  0.17200000000E+03 0.  1.
</event>
<event>
 4    1  0.6129841E-001  0.2687910E+03  0.7818608E-02  0.1101974E+00
         21   -1    0    0  503  502  0.00000000000E+00  0.00000000000E+00  0.50112092267E+03  0.50112092267E+03  0.00000000000E+00 0. -1.
         21   -1    0    0  501  503 -0.00000000000E+00 -0.00000000000E+00 -0.23880142414E+03  0.23880142414E+03  0.00000000000E+00 0.  1.
          6    1    1    2  501    0  0.77223167573E+02  0.19157549890E+03  0.36404730670E+03  0.45252517157E+03  0.17200000000E+03 0. -1.
         -6    1    1    2    0  502 -0.77223167573E+02 -0.19157549890E+03 -0.10172780816E+03  0.28739717525E+03  0.17200000000E+03 0.  1.
</event>
<event>
 4    1  0.6129841E-001  0.2080341E+03  0.7818608E-02  0.1143132E+00
         21   -1    0    0  501  502  0.00000000000E+00  0.00000000000E+00  0.29465099000E+03  0.29465099000E+03  0.00000000000E+00 0.  1.
         21   -1    0    0  502  503 -0.00000000000E+00 -0.00000000000E+00 -0.16522077714E+03  0.16522077714E+03  0.00000000000E+00 0. -1.
          6    1    1    2  501    0 -0.17040283714E+02 -0.11577490345E+03  0.14132570024E+03  0.25149781925E+03  0.17200000000E+03 0. -1.
         -6    1    1    2    0  503  0.17040283714E+02  0.11577490345E+03 -0.11895487376E+02  0.20837394789E+03  0.17200000000E+03 0. -1.
</event>
<event>
 4    1  0.6129841E-001  0.2440679E+03  0.7818608E-02  0.1117112E+00
         21   -1    0    0  503  502  0.00000000000E+00  0.00000000000E+00  0.30869583152E+03  0.30869583152E+03  0.00000000000E+00 0.  1.
         21   -1    0    0  501  503 -0.00000000000E+00 -0.00000000000E+00 -0.19297379347E+03  0.19297379347E+03  0.00000000000E+00 0.  1.
          6    1    1    2  501    0  0.11580970401E+03  0.12873716560E+03  0.58919260887E+02  0.25107892116E+03  0.17200000000E+03 0. -1.
         -6    1    1    2    0  502 -0.11580970401E+03 -0.12873716560E+03  0.56802777157E+02  0.25059070382E+03  0.17200000000E+03 0. -1.
</event>
<event>
 4    1  0.6129841E-001  0.1820029E+03  0.7818608E-02  0.1165879E+00
         21   -1    0    0  501  502  0.00000000000E+00  0.00000000000E+00  0.23793595346E+03  0.23793595346E+03  0.00000000000E+00 0. -1.
         21   -1    0    0  502  503 -0.00000000000E+00 -0.00000000000E+00 -0.14614328606E+03  0.14614328606E+03  0.00000000000E+00 0.  1.
          6    1    1    2  501    0  0.43494013200E+02 -0.40611892420E+02  0.40932094460E+01  0.18204892022E+03  0.17200000000E+03 0.  1.
         -6    1    1    2    0  503 -0.43494013200E+02  0.40611892420E+02  0.87699457955E+02  0.20203031930E+03  0.17200000000E+03 0.  1.
</event>
<event>
 4    1  0.6129841E-001  0.2096868E+03  0.7818608E-02  0.1141814E+00
         21   -1    0    0  501  502  0.00000000000E+00  0.00000000000E+00  0.15195175682E+03  0.15195175682E+03  0.00000000000E+00 0. -1.
         21   -1    0    0  502  503 -0.00000000000E+00 -0.00000000000E+00 -0.29049202726E+03  0.29049202726E+03  0.00000000000E+00 0.  1.
          6    1    1    2  501    0 -0.67628052651E+02 -0.99050400066E+02 -0.55451237399E+02  0.21689484777E+03  0.17200000000E+03 0. -1.
         -6    1    1    2    0  503  0.67628052651E+02  0.99050400066E+02 -0.83089033045E+02  0.22554893631E+03  0.17200000000E+03 0. -1.
</event>
<event>
 4    1  0.6129841E-001  0.3102708E+03  0.7818608E-02  0.1080216E+00
         21   -1    0    0  503  502  0.00000000000E+00  0.00000000000E+00  0.16437011051E+03  0.16437011051E+03  0.00000000000E+00 0. -1.
         21   -1    0    0  501  503 -0.00000000000E+00 -0.00000000000E+00 -0.61571934958E+03  0.61571934958E+03  0.00000000000E+00 0. -1.
          6    1    1    2  501    0 -0.13342036348E+03 -0.22109501705E+03 -0.31182969549E+03  0.43989289486E+03  0.17200000000E+03 0. -1.
         -6    1    1    2    0  502  0.13342036348E+03  0.22109501705E+03 -0.13951954357E+03  0.34019656523E+03  0.17200000000E+03 0. -1.
</event>
<event>
 4    1  0.6129841E-001  0.2678395E+03  0.7818608E-02  0.1102523E+00
         21   -1    0    0  503  502  0.00000000000E+00  0.00000000000E+00  0.79755454783E+03  0.79755454783E+03  0.00000000000E+00 0.  1.
         21   -1    0    0  501  503 -0.00000000000E+00 -0.00000000000E+00 -0.11114094526E+03  0.11114094526E+03  0.00000000000E+00 0. -1.
          6    1    1    2  501    0 -0.20521435527E+03  0.64092126550E+01  0.14480186312E+03  0.30447592545E+03  0.17200000000E+03 0. -1.
         -6    1    1    2    0  502  0.20521435527E+03 -0.64092126550E+01  0.54161173945E+03  0.60421956764E+03  0.17200000000E+03 0. -1.
</event>
<event>
 4    1  0.6129841E-001  0.2220643E+03  0.7818608E-02  0.1132353E+00
         21   -1    0    0  503  502  0.00000000000E+00  0.00000000000E+00  0.10661208832E+03  0.10661208832E+03  0.00000000000E+00 0. -1.
         21   -1    0    0  501  503 -0.00000000000E+00 -0.00000000000E+00 -0.47748664337E+03  0.47748664337E+03  0.00000000000E+00 0.  1.
          6    1    1    2  501    0  0.77033265972E+02 -0.11744968875E+03 -0.23710513937E+03  0.32485596896E+03  0.17200000000E+03 0. -1.
         -6    1    1    2    0  502 -0.77033265972E+02  0.11744968875E+03 -0.13376941569E+03  0.25924276273E+03  0.17200000000E+03 0. -1.
</event>
<event>
 4    1  0.6129841E-001  0.2033549E+03  0.7818608E-02  0.1146939E+00
         21   -1    0    0  501  502  0.00000000000E+00  0.00000000000E+00  0.29023144387E+03  0.29023144387E+03  0.00000000000E+00 0.  1.
         21   -1    0    0  502  503 -0.00000000000E+00 -0.00000000000E+00 -0.14248741459E+03  0.14248741459E+03  0.00000000000E+00 0.  1.
          6    1    1    2  501    0 -0.65562834672E+02  0.86433439146E+02  0.72754438581E+02  0.21597785309E+03  0.17200000000E+03 0. -1.
         -6    1    1    2    0  503  0.65562834672E+02 -0.86433439146E+02  0.74989590698E+02  0.21674100536E+03  0.17200000000E+03 0. -1.
</event>
<event>
 4    1  0.6129841E-001  0.3046268E+03  0.7818608E-02  0.1082950E+00
         21   -1    0    0  503  502  0.00000000000E+00  0.00000000000E+00  0.55145655167E+03  0.55145655167E+03  0.00000000000E+00 0.  1.
         21   -1    0    0  501  503 -0.00000000000E+00 -0.00000000000E+00 -0.17523004552E+03  0.17523004552E+03  0.00000000000E+00 0.  1.
          6    1    1    2  501    0  0.25810952655E+02  0.25009452447E+03  0.26049001367E+03  0.40081482466E+03  0.17200000000E+03 0.  1.
         -6    1    1    2    0  502 -0.25810952655E+02 -0.25009452447E+03  0.11573649248E+03  0.32587177254E+03  0.17200000000E+03 0.  1.
</event>
<event>
 4    1  0.6129841E-001  0.2368008E+03  0.7818608E-02  0.1121943E+00
         21   -1    0    0  503  502  0.00000000000E+00  0.00000000000E+00  0.71598919045E+03  0.71598919045E+03  0.00000000000E+00 0. -1.
         21   -1    0    0  501  503 -0.00000000000E+00 -0.00000000000E+00 -0.19073617508E+03  0.19073617508E+03  0.00000000000E+00 0. -1.
          6    1    1    2  501    0  0.11764850616E+03  0.11246971607E+03 -0.85428695084E+02  0.25173928970E+03  0.17200000000E+03 0. -1.
         -6    1    1    2    0  502 -0.11764850616E+03 -0.11246971607E+03  0.61068171046E+03  0.65498607582E+03  0.17200000000E+03 0. -1.
</event>
<event>
 4    1  0.6129841E-001  0.2858506E+03  0.7818608E-02  0.1092536E+00
         21   -1    0    0  501  502  0.00000000000E+00  0.00000000000E+00  0.58803159204E+02  0.58803159204E+02  0.00000000000E+00 0.  1.
         21   -1    0    0  502  503 -0.00000000000E+00 -0.00000000000E+00 -0.14542670010E+04  0.14542670010E+04  0.00000000000E+00 0.  1.
          6    1    1    2  501    0  0.20499944011E+03 -0.10050774747E+03 -0.85731219858E+03  0.90371167060E+03  0.17200000000E+03 0.  1.
         -6    1    1    2    0  503 -0.20499944011E+03  0.10050774747E+03 -0.53815164319E+03  0.60935848957E+03  0.17200000000E+03 0.  1.
</event>
<event>
 4    1  0.6129841E-001  0.2049307E+03  0.7818608E-02  0.1145644E+00
         21   -1    0    0  501  502  0.00000000000E+00  0.00000000000E+00  0.51599200723E+03  0.51599200723E+03  0.00000000000E+00 0.  1.
         21   -1    0    0  502  503 -0.00000000000E+00 -0.00000000000E+00 -0.10408721325E+03  0.10408721325E+03  0.00000000000E+00 0. -1.
          6    1    1    2  501    0  0.10808588980E+03 -0.27018973715E+02  0.35073115694E+03  0.40621291088E+03  0.17200000000E+03 0.  1.
         -6    1    1    2    0  503 -0.10808588980E+03  0.27018973715E+02  0.61173637039E+02  0.21386630960E+03  0.17200000000E+03 0.  1.
</event>
<event>
 4    1  0.6129841E-001  0.1777505E+03  0.7818608E-02  0.1169998E+00
         21   -1    0    0  503  502  0.00000000000E+00  0.00000000000E+00  0.37990109433E+02  0.37990109433E+02  0.00000000000E+00 0.  1.
         21   -1    0    0  501  503 -0.00000000000E+00 -0.00000000000E+00 -0.83859154781E+03  0.83859154781E+03  0.00000000000E+00 0.  1.
          6    1    1    2  501    0  0.43740631437E+02  0.98991497172E+01 -0.44011944486E+03  0.47465815252E+03  0.17200000000E+03 0. -1.
         -6    1    1    2    0  502 -0.43740631437E+02 -0.98991497172E+01 -0.36048199351E+03  0.40192350472E+03  0.17200000000E+03 0. -1.
</event>
<event>
 4    1  0.6129841E-001  0.3118197E+03  0.7818608E-02  0.1079477E+00
         21   -1    0    0  501  502  0.00000000000E+00  0.00000000000E+00  0.16158053653E+03  0.16158053653E+03  0.00000000000E+00 0.  1.
         21   -1    0    0  502  503 -0.00000000000E+00 -0.00000000000E+00 -0.62785524269E+03  0.62785524269E+03  0.00000000000E+00 0. -1.
          6    1    1    2  501    0 -0.36609726918E+02 -0.25750197038E+03 -0.31361917507E+03  0.44225391329E+03  0.17200000000E+03 0. -1.
         -6    1    1    2    0  503  0.36609726918E+02  0.25750197038E+03 -0.15265553110E+03  0.34718186593E+03  0.17200000000E+03 0.  1.
</event>
<event>
 4    1  0.6129841E-001  0.2062476E+03  0.7818608E-02  0.1144572E+00
         21   -1    0    0  503  502  0.00000000000E+00  0.00000000000E+00  0.19370028886E+03  0.19370028886E+03  0.00000000000E+00 0. -1.
         21   -1    0    0  501  503 -0.00000000000E+00 -0.00000000000E+00 -0.23951049950E+03  0.23951049950E+03  0.00000000000E+00 0. -1.
          6    1    1    2  501    0 -0.11156666778E+03  0.22515918983E+02 -0.85345169236E+02  0.22320816714E+03  0.17200000000E+03 0.  1.
         -6    1    1    2    0  502  0.11156666778E+03 -0.22515918983E+02  0.39534958591E+02  0.21000262122E+03  0.17200000000E+03 0.  1.
</event>
<event>
 4    1  0.6129841E-001  0.1805281E+03  0.7818608E-02  0.1167293E+00
         21   -1    0    0  503  502  0.00000000000E+00  0.00000000000E+00  0.27562878034E+03  0.27562878034E+03  0.00000000000E+00 0. -1.
         21   -1    0    0  501  503 -0.00000000000E+00 -0.00000000000E+00 -0.11824444982E+03  0.11824444982E+03  0.00000000000E+00 0. -1.
          6    1    1    2  501    0  0.48800207739E+02  0.24998603486E+02  0.79878678040E+02  0.19741072326E+03  0.17200000000E+03 0. -1.
         -6    1    1    2    0  502 -0.48800207739E+02 -0.24998603486E+02  0.77505652485E+02  0.19646250690E+03  0.17200000000E+03 0. -1.
</event>
<event>
 4    1  0.6129841E-001  0.2931149E+03  0.7818608E-02  0.1088734E+00
         21   -1    0    0  501  502  0.00000000000E+00  0.00000000000E+00  0.17532870239E+03  0.17532870239E+03  0.00000000000E+00 0.  1.
         21   -1    0    0  502  503 -0.00000000000E+00 -0.00000000000E+00 -0.57723284138E+03  0.57723284138E+03  0.00000000000E+00 0.  1.
          6    1    1    2  501    0  0.10024125343E+02  0.23713254468E+03 -0.54700078052E+02  0.29817515888E+03  0.17200000000E+03 0. -1.
         -6    1    1    2    0  503 -0.10024125343E+02 -0.23713254468E+03 -0.34720406094E+03  0.45438638489E+03  0.17200000000E+03 0. -1.
</event>
<event>
 4    1  0.6129841E-001  0.2092822E+03  0.7818608E-02  0.1142136E+00
         21   -1    0    0  503  502  0.00000000000E+00  0.00000000000E+00  0.25156197944E+03  0.25156197944E+03  0.00000000000E+00 0.  1.
         21   -1    0    0  501  503 -0.00000000000E+00 -0.00000000000E+00 -0.40031618808E+03  0.40031618808E+03  0.00000000000E+00 0. -1.
          6    1    1    2  501    0 -0.10319462524E+03  0.59715193073E+02 -0.31938986983E+03  0.38184934715E+03  0.17200000000E+03 0. -1.
         -6    1    1    2    0  502  0.10319462524E+03 -0.59715193073E+02  0.17063566119E+03  0.27002882037E+03  0.17200000000E+03 0.  1.
</event>
<event>
 4    1  0.6129841E-001  0.1810254E+03  0.7818608E-02  0.1166814E+00
         21   -1    0    0  501  502  0.00000000000E+00  0.00000000000E+00  0.28508485304E+03  0.28508485304E+03  0.00000000000E+00 0.  1.
         21   -1    0    0  502  503 -0.00000000000E+00 -0.00000000000E+00 -0.11564023008E+03  0.11564023008E+03  0.00000000000E+00 0.  1.
          6    1    1    2  501    0  0.24263694367E+02 -0.50965237010E+02  0.69230092860E+02  0.19381173340E+03  0.17200000000E+03 0. -1.
         -6    1    1    2    0  503 -0.24263694367E+02  0.50965237010E+02  0.10021453010E+03  0.20691334972E+03  0.17200000000E+03 0. -1.
</event>
<event>
 4    1  0.6129841E-001  0.1792286E+03  0.7818608E-02  0.1168552E+00
         21   -1    0    0  503  502  0.00000000000E+00  0.00000000000E+00  0.27533896798E+03  0.27533896798E+03  0.00000000000E+00 0.  1.
         21   -1    0    0  501  503 -0.00000000000E+00 -0.00000000000E+00 -0.12581473690E+03  0.12581473690E+03  0.00000000000E+00 0.  1.
          6    1    1    2  501    0 -0.42977096453E+02  0.26302910361E+02  0.20676685133E+02  0.18041729191E+03  0.17200000000E+03 0.  1.
         -6    1    1    2    0  502  0.42977096453E+02 -0.26302910361E+02  0.12884754594E+03  0.22073641296E+03  0.17200000000E+03 0.  1.
</event>
<event>
 4    1  0.6129841E-001  0.3657304E+03  0.7818608E-02  0.1056338E+00
         21   -1    0    0  501  502  0.00000000000E+00  0.00000000000E+00  0.46008426435E+03  0.46008426435E+03  0.00000000000E+00 0.  1.
         21   -1    0    0  502  503 -0.00000000000E+00 -0.00000000000E+00 -0.46552643121E+03  0.46552643121E+03  0.00000000000E+00 0. -1.
          6    1    1    2  501    0 -0.30781538831E+03  0.97079356298E+02  0.28087273026E+03  0.46113794607E+03  0.17200000000E+03 0.  1.
         -6    1    1    2    0  503  0.30781538831E+03 -0.97079356298E+02 -0.28631489712E+03  0.46447274948E+03  0.17200000000E+03 0. -1.
</event>
<event>
 4    1  0.6129841E-001  0.1827360E+03  0.7818608E-02  0.1165181E+00
         21   -1    0    0  501  502  0.00000000000E+00  0.00000000000E+00  0.31265480380E+03  0.31265480380E+03  0.00000000000E+00 0.  1.
         21   -1    0    0  502  503 -0.00000000000E+00 -0.00000000000E+00 -0.26505942356E+03  0.26505942356E+03  0.00000000000E+00 0.  1.
          6    1    1    2  501    0 -0.56817216225E+02 -0.24088010812E+02  0.24699672047E+03  0.30724551787E+03  0.17200000000E+03 0.  1.
         -6    1    1    2    0  503  0.56817216225E+02  0.24088010812E+02 -0.19940134024E+03  0.27046870949E+03  0.17200000000E+03 0.  1.
</event>
<event>
 4    1  0.6129841E-001  0.1817679E+03  0.7818608E-02  0.1166103E+00
         21   -1    0    0  501  502  0.00000000000E+00  0.00000000000E+00  0.59222525887E+02  0.59222525887E+02  0.00000000000E+00 0.  1.
         21   -1    0    0  502  503 -0.00000000000E+00 -0.00000000000E+00 -0.64418416139E+03  0.64418416139E+03  0.00000000000E+00 0.  1.
          6    1    1    2  501    0  0.46938315657E+02  0.35388913750E+02 -0.16375509525E+03  0.24465345269E+03  0.17200000000E+03 0.  1.
         -6    1    1    2    0  503 -0.46938315657E+02 -0.35388913750E+02 -0.42120654025E+03  0.45875323459E+03  0.17200000000E+03 0.  1.
</event>
<event>
 4    1  0.6129841E-001  0.2885972E+03  0.7818608E-02  0.1091084E+00
         21   -1    0    0  501  502  0.00000000000E+00  0.00000000000E+00  0.28273749523E+03  0.28273749523E+03  0.00000000000E+00 0.  1.
         21   -1    0    0  502  503 -0.00000000000E+00 -0.00000000000E+00 -0.31071364650E+03  0.31071364650E+03  0.00000000000E+00 0.  1.
          6    1    1    2  501    0  0.21429619512E+03 -0.88212676256E+02  0.53630143675E+02  0.29353794951E+03  0.17200000000E+03 0.  1.
         -6    1    1    2    0  503 -0.21429619512E+03  0.88212676256E+02 -0.81606294936E+02  0.29991319222E+03  0.17200000000E+03 0.  1.
</event>
<event>
 4    1  0.6129841E-001  0.1729280E+03  0.7818608E-02  0.1174828E+00
         21   -1    0    0  503  502  0.00000000000E+00  0.00000000000E+00  0.21559855497E+04  0.21559855497E+04  0.00000000000E+00 0.  1.
         21   -1    0    0  501  503 -0.00000000000E+00 -0.00000000000E+00 -0.23007353998E+02  0.23007353998E+02  0.00000000000E+00 0.  1.
          6    1    1    2  501    0 -0.91797565131E+01  0.15357148021E+02  0.37990111028E+03  0.41740743107E+03  0.17200000000E+03 0.  1.
         -6    1    1    2    0  502  0.91797565131E+01 -0.15357148021E+02  0.17530770855E+04  0.17615854727E+04  0.17200000000E+03 0.  1.
</event>
<event>
 4    1  0.6129841E-001  0.2160240E+03  0.7818608E-02  0.1136883E+00
         21   -1    0    0  503  502  0.00000000000E+00  0.00000000000E+00  0.11416508699E+04  0.11416508699E+04  0.00000000000E+00 0. -1.
         21   -1    0    0  501  503 -0.00000000000E+00 -0.00000000000E+00 -0.77173129308E+02  0.77173129308E+02  0.00000000000E+00 0. -1.
          6    1    1    2  501    0  0.13641472933E+02  0.12998561752E+03  0.11429988671E+03  0.24439888430E+03  0.17200000000E+03 0. -1.
         -6    1    1    2    0  502 -0.13641472933E+02 -0.12998561752E+03  0.95017785386E+03  0.97442511488E+03  0.17200000000E+03 0. -1.
</event>
<event>
 4    1  0.6129841E-001  0.1781301E+03  0.7818608E-02  0.1169625E+00
         21   -1    0    0  501  502  0.00000000000E+00  0.00000000000E+00  0.15983613904E+03  0.15983613904E+03  0.00000000000E+00 0. -1.
         21   -1    0    0  502  503 -0.00000000000E+00 -0.00000000000E+00 -0.20021858254E+03  0.20021858254E+03  0.00000000000E+00 0.  1.
          6    1    1    2  501    0  0.45534044795E+02 -0.85432375267E+01 -0.35992969041E+01  0.17816647014E+03  0.17200000000E+03 0. -1.
         -6    1    1    2    0  503 -0.45534044795E+02  0.85432375267E+01 -0.36783146596E+02  0.18188825145E+03  0.17200000000E+03 0.  1.
</event>
<event>
 4    1  0.6129841E-001  0.1730553E+03  0.7818608E-02  0.1174699E+00
         21   -1    0    0  503  502  0.00000000000E+00  0.00000000000E+00  0.28244974424E+02  0.28244974424E+02  0.00000000000E+00 0. -1.
         21   -1    0    0  501  503 -0.00000000000E+00 -0.00000000000E+00 -0.11258935138E+04  0.11258935138E+04  0.00000000000E+00 0. -1.
          6    1    1    2  501    0  0.15873893933E+02  0.10589634595E+02 -0.68811195079E+03  0.70953941236E+03  0.17200000000E+03 0.  1.
         -6    1    1    2    0  502 -0.15873893933E+02 -0.10589634595E+02 -0.40953658858E+03  0.44459907586E+03  0.17200000000E+03 0.  1.
</event>
<event>
 4    1  0.6129841E-001  0.2274265E+03  0.7818608E-02  0.1128464E+00
         21   -1    0    0  501  502  0.00000000000E+00  0.00000000000E+00  0.11957786134E+03  0.11957786134E+03  0.00000000000E+00 0.  1.
         21   -1    0    0  502  503 -0.00000000000E+00 -0.00000000000E+00 -0.46549612896E+03  0.46549612896E+03  0.00000000000E+00 0. -1.
          6    1    1    2  501    0  0.13765982059E+03 -0.56467698537E+02 -0.95127393205E+02  0.24651987368E+03  0.17200000000E+03 0. -1.
         -6    1    1    2    0  503 -0.13765982059E+03  0.56467698537E+02 -0.25079087442E+03  0.33855411662E+03  0.17200000000E+03 0.  1.
</event>
<event>
 4    1  0.6129841E-001  0.1986277E+03  0.7818608E-02  0.1150902E+00
         21   -1    0    0  501  502  0.00000000000E+00  0.00000000000E+00  0.27081284018E+03  0.27081284018E+03  0.00000000000E+00 0. -1.
         21   -1    0    0  502  503 -0.00000000000E+00 -0.00000000000E+00 -0.18100673742E+03  0.18100673742E+03  0.00000000000E+00 0. -1.
          6    1    1    2  501    0 -0.58732801338E+02 -0.80121405415E+02  0.14470005335E+03  0.24574598063E+03  0.17200000000E+03 0. -1.
         -6    1    1    2    0  503  0.58732801338E+02  0.80121405415E+02 -0.54893950582E+02  0.20607359697E+03  0.17200000000E+03 0. -1.
</event>
<event>
 4    1  0.6129841E-001  0.2735837E+03  0.7818608E-02  0.1099246E+00
         21   -1    0    0  501  502  0.00000000000E+00  0.00000000000E+00  0.50115409737E+02  0.50115409737E+02  0.00000000000E+00 0. -1.
         21   -1    0    0  502  503 -0.00000000000E+00 -0.00000000000E+00 -0.15000013856E+04  0.15000013856E+04  0.00000000000E+00 0.  1.
          6    1    1    2  501    0 -0.21016007844E+03  0.33118073211E+02 -0.67397189704E+03  0.72738310631E+03  0.17200000000E+03 0. -1.
         -6    1    1    2    0  503  0.21016007844E+03 -0.33118073211E+02 -0.77591407880E+03  0.82273368900E+03  0.17200000000E+03 0. -1.
</event>
<event>
 4    1  0.6129841E-001  0.1897115E+03  0.7818608E-02  0.1158722E+00
         21   -1    0    0  501  502  0.00000000000E+00  0.00000000000E+00  0.30697225120E+02  0.30697225120E+02  0.00000000000E+00 0. -1.
         21   -1    0    0  502  503 -0.00000000000E+00 -0.00000000000E+00 -0.19178358902E+04  0.19178358902E+04  0.00000000000E+00 0. -1.
          6    1    1    2  501    0 -0.76810179772E+02 -0.22508746223E+02 -0.33617947133E+03  0.38601435765E+03  0.17200000000E+03 0. -1.
         -6    1    1    2    0  503  0.76810179772E+02  0.22508746223E+02 -0.15509591938E+04  0.15625187577E+04  0.17200000000E+03 0. -1.
</event>
<event>
 4    1  0.6129841E-001  0.1735076E+03  0.7818608E-02  0.1174239E+00
         21   -1    0    0  503  502  0.00000000000E+00  0.00000000000E+00  0.21912454461E+03  0.21912454461E+03  0.00000000000E+00 0. -1.
         21   -1    0    0  501  503 -0.00000000000E+00 -0.00000000000E+00 -0.20112760622E+03  0.20112760622E+03  0.00000000000E+00 0. -1.
          6    1    1    2  501    0  0.17884073699E+02  0.14178858151E+02 -0.10929259752E+03  0.20506036181E+03  0.17200000000E+03 0.  1.
         -6    1    1    2    0  502 -0.17884073699E+02 -0.14178858151E+02  0.12728953592E+03  0.21519178903E+03  0.17200000000E+03 0.  1.
</event>
<event>
 4    1  0.6129841E-001  0.1773827E+03  0.7818608E-02  0.1170360E+00
         21   -1    0    0  503  502  0.00000000000E+00  0.00000000000E+00  0.29044731358E+03  0.29044731358E+03  0.00000000000E+00 0. -1.
         21   -1    0    0  501  503 -0.00000000000E+00 -0.00000000000E+00 -0.36736664182E+03  0.36736664182E+03  0.00000000000E+00 0. -1.
          6    1    1    2  501    0 -0.33898851126E+01 -0.43233276258E+02 -0.31464621705E+03  0.36120195099E+03  0.17200000000E+03 0. -1.
         -6    1    1    2    0  502  0.33898851126E+01  0.43233276258E+02  0.23772688881E+03  0.29661200441E+03  0.17200000000E+03 0. -1.
</event>
<event>
 4    1  0.6129841E-001  0.3161199E+03  0.7818608E-02  0.1077449E+00
         21   -1    0    0  501  502  0.00000000000E+00  0.00000000000E+00  0.15122776388E+04  0.15122776388E+04  0.00000000000E+00 0. -1.
         21   -1    0    0  502  503 -0.00000000000E+00 -0.00000000000E+00 -0.10714806864E+03  0.10714806864E+03  0.00000000000E+00 0. -1.
          6    1    1    2  501    0  0.47718949444E+02  0.26090365054E+03  0.12038550008E+04  0.12446680987E+04  0.17200000000E+03 0. -1.
         -6    1    1    2    0  503 -0.47718949444E+02 -0.26090365054E+03  0.20127456931E+03  0.37475760867E+03  0.17200000000E+03 0. -1.
</event>
<event>
 4    1  0.6129841E-001  0.3094734E+03  0.7818608E-02  0.1080599E+00
         21   -1    0    0  501  502  0.00000000000E+00  0.00000000000E+00  0.16246983072E+03  0.16246983072E+03  0.00000000000E+00 0. -1.
         21   -1    0    0  502  503 -0.00000000000E+00 -0.00000000000E+00 -0.66248497466E+03  0.66248497466E+03  0.00000000000E+00 0. -1.
          6    1    1    2  501    0 -0.44106371375E+02  0.25346486233E+03 -0.11308710622E+03  0.32948824262E+03  0.17200000000E+03 0. -1.
         -6    1    1    2    0  503  0.44106371375E+02 -0.25346486233E+03 -0.38692803772E+03  0.49546656276E+03  0.17200000000E+03 0. -1.
</event>
<event>
 4    1  0.6129841E-001  0.2141192E+03  0.7818608E-02  0.1138345E+00
         21   -1    0    0  501  502  0.00000000000E+00  0.00000000000E+00  0.59424663487E+03  0.59424663487E+03  0.00000000000E+00 0. -1.
         21   -1    0    0  502  503 -0.00000000000E+00 -0.00000000000E+00 -0.14026980921E+03  0.14026980921E+03  0.00000000000E+00 0. -1.
          6    1    1    2  501    0 -0.50311188833E+02  0.11718278203E+03  0.47334665549E+03  0.51952293153E+03  0.17200000000E+03 0. -1.
         -6    1    1    2    0  503  0.50311188833E+02 -0.11718278203E+03 -0.19369829829E+02  0.21499351254E+03  0.17200000000E+03 0. -1.
</event>
<event>
 4    1  0.6129841E-001  0.1833458E+03  0.7818608E-02  0.1164604E+00
         21   -1    0    0  503  502  0.00000000000E+00  0.00000000000E+00  0.10824540438E+03  0.10824540438E+03  0.00000000000E+00 0. -1.
         21   -1    0    0  501  503 -0.00000000000E+00 -0.00000000000E+00 -0.33646711225E+03  0.33646711225E+03  0.00000000000E+00 0. -1.
          6    1    1    2  501    0 -0.37356910425E+02  0.51343340646E+02 -0.17582236228E+03  0.25402594447E+03  0.17200000000E+03 0.  1.
         -6    1    1    2    0  502  0.37356910425E+02 -0.51343340646E+02 -0.52399345580E+02  0.19068657216E+03  0.17200000000E+03 0.  1.
</event>
<event>
 4    1  0.6129841E-001  0.2024774E+03  0.7818608E-02  0.1147665E+00
         21   -1    0    0  501  502  0.00000000000E+00  0.00000000000E+00  0.78802720118E+03  0.78802720118E+03  0.00000000000E+00 0.  1.
         21   -1    0    0  502  503 -0.00000000000E+00 -0.00000000000E+00 -0.52042696722E+02  0.52042696722E+02  0.00000000000E+00 0.  1.
          6    1    1    2  501    0 -0.97838771986E+02  0.42903280217E+02  0.36024715661E+03  0.41324947744E+03  0.17200000000E+03 0.  1.
         -6    1    1    2    0  503  0.97838771986E+02 -0.42903280217E+02  0.37573734785E+03  0.42682042046E+03  0.17200000000E+03 0.  1.
</event>
<event>
 4    1  0.6129841E-001  0.1981249E+03  0.7818608E-02  0.1151331E+00
         21   -1    0    0  503  502  0.00000000000E+00  0.00000000000E+00  0.61840798398E+03  0.61840798398E+03  0.00000000000E+00 0.  1.
         21   -1    0    0  501  503 -0.00000000000E+00 -0.00000000000E+00 -0.11631021432E+03  0.11631021432E+03  0.00000000000E+00 0.  1.
          6    1    1    2  501    0 -0.38217253648E+02  0.90603021734E+02  0.34529657859E+01  0.19815496208E+03  0.17200000000E+03 0.  1.
         -6    1    1    2    0  502  0.38217253648E+02 -0.90603021734E+02  0.49864480388E+03  0.53656323622E+03  0.17200000000E+03 0.  1.
</event>
<event>
 4    1  0.6129841E-001  0.1964966E+03  0.7818608E-02  0.1152729E+00
         21   -1    0    0  501  502  0.00000000000E+00  0.00000000000E+00  0.58360005389E+03  0.58360005389E+03  0.00000000000E+00 0.  1.
         21   -1    0    0  502  503 -0.00000000000E+00 -0.00000000000E+00 -0.73929538106E+02  0.73929538106E+02  0.00000000000E+00 0.  1.
          6    1    1    2  501    0 -0.88732427847E+02 -0.33962996727E+02  0.36141541051E+03  0.41137820537E+03  0.17200000000E+03 0.  1.
         -6    1    1    2    0  503  0.88732427847E+02  0.33962996727E+02  0.14825510527E+03  0.24615138663E+03  0.17200000000E+03 0.  1.
</event>
<event>
 4    1  0.6129841E-001  0.1727031E+03  0.7818608E-02  0.1175058E+00
         21   -1    0    0  501  502  0.00000000000E+00  0.00000000000E+00  0.68755464831E+03  0.68755464831E+03  0.00000000000E+00 0. -1.
         21   -1    0    0  502  503 -0.00000000000E+00 -0.00000000000E+00 -0.61196322872E+02  0.61196322872E+02  0.00000000000E+00 0. -1.
          6    1    1    2  501    0 -0.13454389017E+02 -0.78320538872E+01  0.51517829521E+03  0.54335535104E+03  0.17200000000E+03 0. -1.
         -6    1    1    2    0  503  0.13454389017E+02  0.78320538872E+01  0.11118003023E+03  0.20539562014E+03  0.17200000000E+03 0. -1.
</event>
<event>
 4    1  0.6129841E-001  0.1827547E+03  0.7818608E-02  0.1165163E+00
         21   -1    0    0  501  502  0.00000000000E+00  0.00000000000E+00  0.24529888759E+03  0.24529888759E+03  0.00000000000E+00 0.  1.
         21   -1    0    0  502  503 -0.00000000000E+00 -0.00000000000E+00 -0.17828980260E+03  0.17828980260E+03  0.00000000000E+00 0.  1.
          6    1    1    2  501    0  0.51174329968E+02  0.34590196444E+02  0.13646216041E+03  0.22808159716E+03  0.17200000000E+03 0.  1.
         -6    1    1    2    0  503 -0.51174329968E+02 -0.34590196444E+02 -0.69453075423E+02  0.19550709303E+03  0.17200000000E+03 0.  1.
</event>
<event>
 4    1  0.6129841E-001  0.1973006E+03  0.7818608E-02  0.1152037E+00
         21   -1    0    0  501  502  0.00000000000E+00  0.00000000000E+00  0.23431283163E+03  0.23431283163E+03  0.00000000000E+00 0.  1.
         21   -1    0    0  502  503 -0.00000000000E+00 -0.00000000000E+00 -0.16648113808E+03  0.16648113808E+03  0.00000000000E+00 0.  1.
          6    1    1    2  501    0 -0.87081800779E+02 -0.41955823538E+02  0.24776468047E+02  0.19885020625E+03  0.17200000000E+03 0. -1.
         -6    1    1    2    0  503  0.87081800779E+02  0.41955823538E+02  0.43055225507E+02  0.20194376346E+03  0.17200000000E+03 0. -1.
</event>
<event>
 4    1  0.6129841E-001  0.2599027E+03  0.7818608E-02  0.1107202E+00
         21   -1    0    0  501  502  0.00000000000E+00  0.00000000000E+00  0.64871854419E+02  0.64871854419E+02  0.00000000000E+00 0. -1.
         21   -1    0    0  502  503 -0.00000000000E+00 -0.00000000000E+00 -0.29231687577E+04  0.29231687577E+04  0.00000000000E+00 0.  1.
          6    1    1    2  501    0  0.33493524916E+02  0.19194682280E+03 -0.23040242623E+03  0.34732503078E+03  0.17200000000E+03 0. -1.
         -6    1    1    2    0  503 -0.33493524916E+02 -0.19194682280E+03 -0.26278944771E+04  0.26407155813E+04  0.17200000000E+03 0.  1.
</event>
<event>
 4    1  0.6129841E-001  0.1897986E+03  0.7818608E-02  0.1158643E+00
         21   -1    0    0  503  502  0.00000000000E+00  0.00000000000E+00  0.63781088789E+02  0.63781088789E+02  0.00000000000E+00 0.  1.
         21   -1    0    0  501  503 -0.00000000000E+00 -0.00000000000E+00 -0.62977922178E+03  0.62977922178E+03  0.00000000000E+00 0. -1.
          6    1    1    2  501    0 -0.43112647324E+02 -0.67681726044E+02 -0.39438992597E+03  0.43768359589E+03  0.17200000000E+03 0. -1.
         -6    1    1    2    0  502  0.43112647324E+02  0.67681726044E+02 -0.17160820701E+03  0.25587671468E+03  0.17200000000E+03 0.  1.
</event>
<event>
 4    1  0.6129841E-001  0.3259707E+03  0.7818608E-02  0.1072934E+00
         21   -1    0    0  503  502  0.00000000000E+00  0.00000000000E+00  0.57680974872E+03  0.57680974872E+03  0.00000000000E+00 0. -1.
         21   -1    0    0  501  503 -0.00000000000E+00 -0.00000000000E+00 -0.77348963894E+03  0.77348963894E+03  0.00000000000E+00 0.  1.
          6    1    1    2  501    0 -0.27612637547E+03  0.20667048088E+02 -0.68763360352E+03  0.76098414884E+03  0.17200000000E+03 0.  1.
         -6    1    1    2    0  502  0.27612637547E+03 -0.20667048088E+02  0.49095371330E+03  0.58931523882E+03  0.17200000000E+03 0. -1.
</event>
<event>
 4    1  0.6129841E-001  0.2986308E+03  0.7818608E-02  0.1085927E+00
         21   -1    0    0  501  502  0.00000000000E+00  0.00000000000E+00  0.63212278801E+02  0.63212278801E+02  0.00000000000E+00 0.  1.
         21   -1    0    0  502  503 -0.00000000000E+00 -0.00000000000E+00 -0.15115044977E+04  0.15115044977E+04  0.00000000000E+00 0.  1.
          6    1    1    2  501    0 -0.19242706135E+03 -0.15022708652E+03 -0.92737066739E+03  0.97426726631E+03  0.17200000000E+03 0.  1.
         -6    1    1    2    0  503  0.19242706135E+03  0.15022708652E+03 -0.52092155149E+03  0.60044951018E+03  0.17200000000E+03 0.  1.
</event>
<event>
 4    1  0.6129841E-001  0.2095700E+03  0.7818608E-02  0.1141907E+00
         21   -1    0    0  503  502  0.00000000000E+00  0.00000000000E+00  0.34099990600E+03  0.34099990600E+03  0.00000000000E+00 0. -1.
         21   -1    0    0  501  503 -0.00000000000E+00 -0.00000000000E+00 -0.13504957902E+03  0.13504957902E+03  0.00000000000E+00 0.  1.
          6    1    1    2  501    0  0.91397408733E+02  0.77344148363E+02  0.51757294302E+02  0.21586667441E+03  0.17200000000E+03 0. -1.
         -6    1    1    2    0  502 -0.91397408733E+02 -0.77344148363E+02  0.15419303267E+03  0.26018281060E+03  0.17200000000E+03 0. -1.
</event>
<event>
 4    1  0.6129841E-001  0.2803609E+03  0.7818608E-02  0.1095492E+00
         21   -1    0    0  503  502  0.00000000000E+00  0.00000000000E+00  0.79359920451E+03  0.79359920451E+03  0.00000000000E+00 0.  1.
         21   -1    0    0  501  503 -0.00000000000E+00 -0.00000000000E+00 -0.10609303612E+03  0.10609303612E+03  0.00000000000E+00 0. -1.
          6    1    1    2  501    0  0.14231057159E+03  0.16960516685E+03  0.22780924340E+03  0.36124681699E+03  0.17200000000E+03 0. -1.
         -6    1    1    2    0  502 -0.14231057159E+03 -0.16960516685E+03  0.45969692499E+03  0.53844542365E+03  0.17200000000E+03 0.  1.
</event>
<event>
 4    1  0.6129841E-001  0.1776348E+03  0.7818608E-02  0.1170112E+00
         21   -1    0    0  501  502  0.00000000000E+00  0.00000000000E+00  0.30446562074E+03  0.30446562074E+03  0.00000000000E+00 0. -1.
         21   -1    0    0  502  503 -0.00000000000E+00 -0.00000000000E+00 -0.10447955710E+03  0.10447955710E+03  0.00000000000E+00 0. -1.
          6    1    1    2  501    0 -0.55585262872E+01 -0.44036708492E+02  0.81639136610E+02  0.19549700135E+03  0.17200000000E+03 0. -1.
         -6    1    1    2    0  503  0.55585262872E+01  0.44036708492E+02  0.11834692703E+03  0.21344817649E+03  0.17200000000E+03 0. -1.
</event>
<event>
 4    1  0.6129841E-001  0.2494420E+03  0.7818608E-02  0.1113658E+00
         21   -1    0    0  503  502  0.00000000000E+00  0.00000000000E+00  0.41074330318E+03  0.41074330318E+03  0.00000000000E+00 0. -1.
         21   -1    0    0  501  503 -0.00000000000E+00 -0.00000000000E+00 -0.22911288558E+03  0.22911288558E+03  0.00000000000E+00 0.  1.
          6    1    1    2  501    0 -0.11417697493E+03  0.14000336441E+03 -0.95409522249E+02  0.26706609779E+03  0.17200000000E+03 0.  1.
         -6    1    1    2    0  502  0.11417697493E+03 -0.14000336441E+03  0.27703993986E+03  0.37279009097E+03  0.17200000000E+03 0. -1.
</event>
<event>
 4    1  0.6129841E-001  0.2523523E+03  0.7818608E-02  0.1111827E+00
         21   -1    0    0  503  502  0.00000000000E+00  0.00000000000E+00  0.60273780282E+02  0.60273780282E+02  0.00000000000E+00 0. -1.
         21   -1    0    0  501  503 -0.00000000000E+00 -0.00000000000E+00 -0.10841046100E+04  0.10841046100E+04  0.00000000000E+00 0.  1.
          6    1    1    2  501    0  0.45243087916E+02  0.17902725484E+03 -0.60315333744E+03  0.65381621535E+03  0.17200000000E+03 0. -1.
         -6    1    1    2    0  502 -0.45243087916E+02 -0.17902725484E+03 -0.42067749232E+03  0.49056217498E+03  0.17200000000E+03 0. -1.
</event>
<event>
 4    1  0.6129841E-001  0.2278512E+03  0.7818608E-02  0.1128161E+00
         21   -1    0    0  501  502  0.00000000000E+00  0.00000000000E+00  0.57976132472E+02  0.57976132472E+02  0.00000000000E+00 0.  1.
         21   -1    0    0  502  503 -0.00000000000E+00 -0.00000000000E+00 -0.89570157672E+03  0.89570157672E+03  0.00000000000E+00 0.  1.
          6    1    1    2  501    0  0.97570500695E+02  0.11319079984E+03 -0.42645174574E+03  0.48350517186E+03  0.17200000000E+03 0.  1.
         -6    1    1    2    0  503 -0.97570500695E+02 -0.11319079984E+03 -0.41127369851E+03  0.47017253733E+03  0.17200000000E+03 0.  1.
</event>
<event>
 4    1  0.6129841E-001  0.1949303E+03  0.7818608E-02  0.1154088E+00
         21   -1    0    0  503  502  0.00000000000E+00  0.00000000000E+00  0.34572531092E+02  0.34572531092E+02  0.00000000000E+00 0.  1.
         21   -1    0    0  501  503 -0.00000000000E+00 -0.00000000000E+00 -0.12168207531E+04  0.12168207531E+04  0.00000000000E+00 0.  1.
          6    1    1    2  501    0  0.61285995714E+02 -0.68248334850E+02 -0.39648821457E+03  0.44181524733E+03  0.17200000000E+03 0. -1.
         -6    1    1    2    0  502 -0.61285995714E+02  0.68248334850E+02 -0.78576000745E+03  0.80957803688E+03  0.17200000000E+03 0. -1.
</event>
<event>
 4    1  0.6129841E-001  0.1758268E+03  0.7818608E-02  0.1171904E+00
         21   -1    0    0  501  502  0.00000000000E+00  0.00000000000E+00  0.78955053202E+02  0.78955053202E+02  0.00000000000E+00 0. -1.
         21   -1    0    0  502  503 -0.00000000000E+00 -0.00000000000E+00 -0.39475134030E+03  0.39475134030E+03  0.00000000000E+00 0. -1.
          6    1    1    2  501    0  0.19982656770E+02 -0.30524617966E+02 -0.13657728064E+03  0.22263964710E+03  0.17200000000E+03 0.  1.
         -6    1    1    2    0  503 -0.19982656770E+02  0.30524617966E+02 -0.17921900646E+03  0.25106674640E+03  0.17200000000E+03 0.  1.
</event>
<event>
 4    1  0.6129841E-001  0.1972289E+03  0.7818608E-02  0.1152098E+00
         21   -1    0    0  503  502  0.00000000000E+00  0.00000000000E+00  0.15091985311E+04  0.15091985311E+04  0.00000000000E+00 0. -1.
         21   -1    0    0  501  503 -0.00000000000E+00 -0.00000000000E+00 -0.34330361210E+02  0.34330361210E+02  0.00000000000E+00 0. -1.
          6    1    1    2  501    0  0.51979979660E+02  0.81322430292E+02  0.35215945672E+03  0.40362797093E+03  0.17200000000E+03 0. -1.
         -6    1    1    2    0  502 -0.51979979660E+02 -0.81322430292E+02  0.11227087132E+04  0.11399009214E+04  0.17200000000E+03 0. -1.
</event>
<event>
 4    1  0.6129841E-001  0.2316762E+03  0.7818608E-02  0.1125465E+00
         21   -1    0    0  503  502  0.00000000000E+00  0.00000000000E+00  0.83529478852E+03  0.83529478852E+03  0.00000000000E+00 0.  1.
         21   -1    0    0  501  503 -0.00000000000E+00 -0.00000000000E+00 -0.64509323842E+02  0.64509323842E+02  0.00000000000E+00 0. -1.
          6    1    1    2  501    0 -0.11925732178E+03 -0.99335602562E+02  0.41350798543E+03  0.47398599636E+03  0.17200000000E+03 0. -1.
         -6    1    1    2    0  502  0.11925732178E+03  0.99335602562E+02  0.35727747925E+03  0.42581811600E+03  0.17200000000E+03 0.  1.
</event>
<event>
 4    1  0.6129841E-001  0.1855719E+03  0.7818608E-02  0.1162517E+00
         21   -1    0    0  501  502  0.00000000000E+00  0.00000000000E+00  0.10647543781E+03  0.10647543781E+03  0.00000000000E+00 0. -1.
         21   -1    0    0  502  503 -0.00000000000E+00 -0.00000000000E+00 -0.36378473248E+03  0.36378473248E+03  0.00000000000E+00 0. -1.
          6    1    1    2  501    0  0.11632694619E+02 -0.68684789589E+02 -0.50337838895E+02  0.19227797047E+03  0.17200000000E+03 0.  1.
         -6    1    1    2    0  503 -0.11632694619E+02  0.68684789589E+02 -0.20697145578E+03  0.27798219981E+03  0.17200000000E+03 0.  1.
</event>
<event>
 4    1  0.6129841E-001  0.1839746E+03  0.7818608E-02  0.1164011E+00
         21   -1    0    0  501  502  0.00000000000E+00  0.00000000000E+00  0.75724430494E+03  0.75724430494E+03  0.00000000000E+00 0.  1.
         21   -1    0    0  502  503 -0.00000000000E+00 -0.00000000000E+00 -0.51924502322E+02  0.51924502322E+02  0.00000000000E+00 0.  1.
          6    1    1    2  501    0 -0.54047240499E+02 -0.36627062201E+02  0.50360298891E+03  0.53615540315E+03  0.17200000000E+03 0.  1.
         -6    1    1    2    0  503  0.54047240499E+02  0.36627062201E+02  0.20171681371E+03  0.27301340411E+03  0.17200000000E+03 0.  1.
</event>
<event>
 4    1  0.6129841E-001  0.2358134E+03  0.7818608E-02  0.1122614E+00
         21   -1    0    0  503  502  0.00000000000E+00  0.00000000000E+00  0.27662985336E+04  0.27662985336E+04  0.00000000000E+00 0. -1.
         21   -1    0    0  501  503 -0.00000000000E+00 -0.00000000000E+00 -0.20503997323E+02  0.20503997323E+02  0.00000000000E+00 0. -1.
          6    1    1    2  501    0  0.45731452999E+02  0.15470162047E+03  0.11777767826E+04  0.12011519915E+04  0.17200000000E+03 0. -1.
         -6    1    1    2    0  502 -0.45731452999E+02 -0.15470162047E+03  0.15680177536E+04  0.15856505393E+04  0.17200000000E+03 0. -1.
</event>
<event>
 4    1  0.6129841E-001  0.1725586E+03  0.7818608E-02  0.1175206E+00
         21   -1    0    0  501  502  0.00000000000E+00  0.00000000000E+00  0.58889543898E+02  0.58889543898E+02  0.00000000000E+00 0. -1.
         21   -1    0    0  502  503 -0.00000000000E+00 -0.00000000000E+00 -0.55376090029E+03  0.55376090029E+03  0.00000000000E+00 0. -1.
          6    1    1    2  501    0  0.13873701439E+02 -0.34442022057E-01 -0.15712870337E+03  0.23337932685E+03  0.17200000000E+03 0. -1.
         -6    1    1    2    0  503 -0.13873701439E+02  0.34442022057E-01 -0.33774265302E+03  0.37927111734E+03  0.17200000000E+03 0. -1.
</event>
<event>
 4    1  0.6129841E-001  0.2313769E+03  0.7818608E-02  0.1125674E+00
         21   -1    0    0  503  502  0.00000000000E+00  0.00000000000E+00  0.87217231965E+02  0.87217231965E+02  0.00000000000E+00 0. -1.
         21   -1    0    0  501  503 -0.00000000000E+00 -0.00000000000E+00 -0.62549352489E+03  0.62549352489E+03  0.00000000000E+00 0.  1.
          6    1    1    2  501    0 -0.59827018187E+01 -0.15464628942E+03 -0.31783054268E+03  0.39313041272E+03  0.17200000000E+03 0. -1.
         -6    1    1    2    0  502  0.59827018187E+01  0.15464628942E+03 -0.22044575025E+03  0.31958034413E+03  0.17200000000E+03 0.  1.
</event>
<event>
 4    1  0.6129841E-001  0.1776938E+03  0.7818608E-02  0.1170054E+00
         21   -1    0    0  503  502  0.00000000000E+00  0.00000000000E+00  0.10461457489E+03  0.10461457489E+03  0.00000000000E+00 0.  1.
         21   -1    0    0  501  503 -0.00000000000E+00 -0.00000000000E+00 -0.30696498676E+03  0.30696498676E+03  0.00000000000E+00 0.  1.
          6    1    1    2  501    0 -0.43848256643E+02 -0.82717535476E+01 -0.12780955975E+03  0.21888438748E+03  0.17200000000E+03 0.  1.
         -6    1    1    2    0  502  0.43848256643E+02  0.82717535476E+01 -0.74540852120E+02  0.19269517418E+03  0.17200000000E+03 0.  1.
</event>
<event>
 4    1  0.6129841E-001  0.1888879E+03  0.7818608E-02  0.1159468E+00
         21   -1    0    0  503  502  0.00000000000E+00  0.00000000000E+00  0.32142594857E+03  0.32142594857E+03  0.00000000000E+00 0.  1.
         21   -1    0    0  501  503 -0.00000000000E+00 -0.00000000000E+00 -0.14059585129E+03  0.14059585129E+03  0.00000000000E+00 0. -1.
          6    1    1    2  501    0 -0.59891070497E+02 -0.50076946854E+02 -0.15572147939E+02  0.18952871213E+03  0.17200000000E+03 0. -1.
         -6    1    1    2    0  502  0.59891070497E+02  0.50076946854E+02  0.19640224522E+03  0.27249308773E+03  0.17200000000E+03 0.  1.
</event>
<event>
 4    1  0.6129841E-001  0.1813367E+03  0.7818608E-02  0.1166516E+00
         21   -1    0    0  501  502  0.00000000000E+00  0.00000000000E+00  0.28398549754E+03  0.28398549754E+03  0.00000000000E+00 0.  1.
         21   -1    0    0  502  503 -0.00000000000E+00 -0.00000000000E+00 -0.11992270234E+03  0.11992270234E+03  0.00000000000E+00 0.  1.
          6    1    1    2  501    0  0.56627635535E+02 -0.96077871686E+01  0.44546165534E+02  0.18672803631E+03  0.17200000000E+03 0.  1.
         -6    1    1    2    0  503 -0.56627635535E+02  0.96077871686E+01  0.11951662967E+03  0.21718016357E+03  0.17200000000E+03 0.  1.
</event>
<event>
 4    1  0.6129841E-001  0.1956383E+03  0.7818608E-02  0.1153472E+00
         21   -1    0    0  501  502  0.00000000000E+00  0.00000000000E+00  0.84976347535E+02  0.84976347535E+02  0.00000000000E+00 0. -1.
         21   -1    0    0  502  503 -0.00000000000E+00 -0.00000000000E+00 -0.62325377352E+03  0.62325377352E+03  0.00000000000E+00 0. -1.
          6    1    1    2  501    0 -0.90333840748E+02  0.23024817411E+02 -0.82656842639E+02  0.21238290571E+03  0.17200000000E+03 0. -1.
         -6    1    1    2    0  503  0.90333840748E+02 -0.23024817411E+02 -0.45562058335E+03  0.49584721535E+03  0.17200000000E+03 0. -1.
</event>
<event>
 4    1  0.6129841E-001  0.1824068E+03  0.7818608E-02  0.1165494E+00
         21   -1    0    0  503  502  0.00000000000E+00  0.00000000000E+00  0.10521039970E+03  0.10521039970E+03  0.00000000000E+00 0. -1.
         21   -1    0    0  501  503 -0.00000000000E+00 -0.00000000000E+00 -0.43930802780E+03  0.43930802780E+03  0.00000000000E+00 0. -1.
          6    1    1    2  501    0 -0.38913830436E+02 -0.46625529669E+02 -0.31114829907E+03  0.36067366168E+03  0.17200000000E+03 0. -1.
         -6    1    1    2    0  502  0.38913830436E+02  0.46625529669E+02 -0.22949329028E+02  0.18384476582E+03  0.17200000000E+03 0. -1.
</event>
<event>
 4    1  0.6129841E-001  0.2071194E+03  0.7818608E-02  0.1143868E+00
         21   -1    0    0  501  502  0.00000000000E+00  0.00000000000E+00  0.50547951303E+03  0.50547951303E+03  0.00000000000E+00 0. -1.
         21   -1    0    0  502  503 -0.00000000000E+00 -0.00000000000E+00 -0.87456586927E+02  0.87456586927E+02  0.00000000000E+00 0.  1.
          6    1    1    2  501    0  0.85309751788E+01  0.11507249608E+03  0.26002776578E+03  0.33243479942E+03  0.17200000000E+03 0. -1.
         -6    1    1    2    0  503 -0.85309751788E+01 -0.11507249608E+03  0.15799516032E+03  0.26050130053E+03  0.17200000000E+03 0.  1.
</event>
<event>
 4    1  0.6129841E-001  0.1851372E+03  0.7818608E-02  0.1162922E+00
         21   -1    0    0  503  502  0.00000000000E+00  0.00000000000E+00  0.13902539771E+03  0.13902539771E+03  0.00000000000E+00 0. -1.
         21   -1    0    0  501  503 -0.00000000000E+00 -0.00000000000E+00 -0.24859092742E+03  0.24859092742E+03  0.00000000000E+00 0. -1.
          6    1    1    2  501    0  0.45726868280E+02 -0.50998432148E+02 -0.72372129122E+02  0.19878005845E+03  0.17200000000E+03 0. -1.
         -6    1    1    2    0  502 -0.45726868280E+02  0.50998432148E+02 -0.37193400594E+02  0.18883626668E+03  0.17200000000E+03 0. -1.
</event>
<event>
 4    1  0.6129841E-001  0.2262573E+03  0.7818608E-02  0.1129302E+00
         21   -1    0    0  503  502  0.00000000000E+00  0.00000000000E+00  0.37226642528E+03  0.37226642528E+03  0.00000000000E+00 0.  1.
         21   -1    0    0  501  503 -0.00000000000E+00 -0.00000000000E+00 -0.16875128086E+03  0.16875128086E+03  0.00000000000E+00 0. -1.
          6    1    1    2  501    0 -0.12362183810E+03  0.79536262803E+02 -0.14624113688E+02  0.22672944374E+03  0.17200000000E+03 0.  1.
         -6    1    1    2    0  502  0.12362183810E+03 -0.79536262803E+02  0.21813925811E+03  0.31428826240E+03  0.17200000000E+03 0.  1.
</event>
<event>
 4    1  0.6129841E-001  0.1739348E+03  0.7818608E-02  0.1173805E+00
         21   -1    0    0  501  502  0.00000000000E+00  0.00000000000E+00  0.67847745678E+02  0.67847745678E+02  0.00000000000E+00 0. -1.
         21   -1    0    0  502  503 -0.00000000000E+00 -0.00000000000E+00 -0.45533748842E+03  0.45533748842E+03  0.00000000000E+00 0. -1.
          6    1    1    2  501    0 -0.25434552401E+02  0.47333978334E+01 -0.15608463666E+03  0.23370009695E+03  0.17200000000E+03 0. -1.
         -6    1    1    2    0  503  0.25434552401E+02 -0.47333978334E+01 -0.23140510607E+03  0.28948513714E+03  0.17200000000E+03 0. -1.
</event>
<event>
 4    1  0.6129841E-001  0.1773138E+03  0.7818608E-02  0.1170428E+00
         21   -1    0    0  503  502  0.00000000000E+00  0.00000000000E+00  0.17837593232E+04  0.17837593232E+04  0.00000000000E+00 0.  1.
         21   -1    0    0  501  503 -0.00000000000E+00 -0.00000000000E+00 -0.23231531995E+02  0.23231531995E+02  0.00000000000E+00 0.  1.
          6    1    1    2  501    0 -0.30588311714E+02 -0.30340156048E+02  0.43644730861E+03  0.47109067395E+03  0.17200000000E+03 0.  1.
         -6    1    1    2    0  502  0.30588311714E+02  0.30340156048E+02  0.13240804826E+04  0.13359001812E+04  0.17200000000E+03 0.  1.
</event>
<event>
 4    1  0.6129841E-001  0.2257807E+03  0.7818608E-02  0.1129645E+00
         21   -1    0    0  501  502  0.00000000000E+00  0.00000000000E+00  0.21348449506E+03  0.21348449506E+03  0.00000000000E+00 0. -1.
         21   -1    0    0  502  503 -0.00000000000E+00 -0.00000000000E+00 -0.33566492647E+03  0.33566492647E+03  0.00000000000E+00 0. -1.
          6    1    1    2  501    0 -0.14622194429E+03  0.34739088207E+01  0.86420693255E+02  0.24175496119E+03  0.17200000000E+03 0.  1.
         -6    1    1    2    0  503  0.14622194429E+03 -0.34739088207E+01 -0.20860112467E+03  0.30739446034E+03  0.17200000000E+03 0.  1.
</event>
<event>
 4    1  0.6129841E-001  0.2335875E+03  0.7818608E-02  0.1124140E+00
         21   -1    0    0  503  502  0.00000000000E+00  0.00000000000E+00  0.10306772728E+04  0.10306772728E+04  0.00000000000E+00 0. -1.
         21   -1    0    0  501  503 -0.00000000000E+00 -0.00000000000E+00 -0.52973993430E+02  0.52973993430E+02  0.00000000000E+00 0.  1.
          6    1    1    2  501    0  0.71312648762E+02 -0.14104482918E+03  0.47494773984E+03  0.52928110990E+03  0.17200000000E+03 0.  1.
         -6    1    1    2    0  502 -0.71312648762E+02  0.14104482918E+03  0.50275553958E+03  0.55437015638E+03  0.17200000000E+03 0.  1.
</event>
<event>
 4    1  0.6129841E-001  0.1998223E+03  0.7818608E-02  0.1149889E+00
         21   -1    0    0  503  502  0.00000000000E+00  0.00000000000E+00  0.74325809866E+02  0.74325809866E+02  0.00000000000E+00 0.  1.
         21   -1    0    0  501  503 -0.00000000000E+00 -0.00000000000E+00 -0.55027355316E+03  0.55027355316E+03  0.00000000000E+00 0. -1.
          6    1    1    2  501    0 -0.68272524875E+02  0.75391097605E+02 -0.18986487185E+03  0.27564039039E+03  0.17200000000E+03 0. -1.
         -6    1    1    2    0  502  0.68272524875E+02 -0.75391097605E+02 -0.28608287145E+03  0.34895897264E+03  0.17200000000E+03 0. -1.
</event>
<event>
 4    1  0.6129841E-001  0.1840834E+03  0.7818608E-02  0.1163909E+00
         21   -1    0    0  501  502  0.00000000000E+00  0.00000000000E+00  0.10919257594E+04  0.10919257594E+04  0.00000000000E+00 0. -1.
         21   -1    0    0  502  503 -0.00000000000E+00 -0.00000000000E+00 -0.63172404510E+02  0.63172404510E+02  0.00000000000E+00 0. -1.
          6    1    1    2  501    0 -0.27337615867E+02 -0.59626709346E+02  0.92632067727E+03  0.94443458580E+03  0.17200000000E+03 0. -1.
         -6    1    1    2    0  503  0.27337615867E+02  0.59626709346E+02  0.10243267766E+03  0.21066357816E+03  0.17200000000E+03 0. -1.
</event>
<event>
 4    1  0.6129841E-001  0.1960427E+03  0.7818608E-02  0.1153121E+00
         21   -1    0    0  501  502  0.00000000000E+00  0.00000000000E+00  0.82044230511E+03  0.82044230511E+03  0.00000000000E+00 0.  1.
         21   -1    0    0  502  503 -0.00000000000E+00 -0.00000000000E+00 -0.49791700615E+02  0.49791700615E+02  0.00000000000E+00 0.  1.
          6    1    1    2  501    0  0.56393640171E+02  0.75289363815E+02  0.49119590866E+03  0.52887252872E+03  0.17200000000E+03 0. -1.
         -6    1    1    2    0  503 -0.56393640171E+02 -0.75289363815E+02  0.27945469583E+03  0.34136147700E+03  0.17200000000E+03 0. -1.
</event>
<event>
 4    1  0.6129841E-001  0.2286622E+03  0.7818608E-02  0.1127585E+00
         21   -1    0    0  501  502  0.00000000000E+00  0.00000000000E+00  0.13844803594E+04  0.13844803594E+04  0.00000000000E+00 0.  1.
         21   -1    0    0  502  503 -0.00000000000E+00 -0.00000000000E+00 -0.38978555467E+02  0.38978555467E+02  0.00000000000E+00 0.  1.
          6    1    1    2  501    0  0.12495752261E+02  0.15015418552E+03  0.79827728850E+03  0.83038126941E+03  0.17200000000E+03 0.  1.
         -6    1    1    2    0  503 -0.12495752261E+02 -0.15015418552E+03  0.54722451548E+03  0.59307764550E+03  0.17200000000E+03 0.  1.
</event>
<event>
 4    1  0.6129841E-001  0.3111826E+03  0.7818608E-02  0.1079780E+00
         21   -1    0    0  503  502  0.00000000000E+00  0.00000000000E+00  0.16037231457E+04  0.16037231457E+04  0.00000000000E+00 0.  1.
         21   -1    0    0  501  503 -0.00000000000E+00 -0.00000000000E+00 -0.86019466970E+02  0.86019466970E+02  0.00000000000E+00 0. -1.
          6    1    1    2  501    0  0.23236754170E+03  0.11513453655E+03  0.12201025054E+04  0.12591603391E+04  0.17200000000E+03 0.  1.
         -6    1    1    2    0  502 -0.23236754170E+03 -0.11513453655E+03  0.29760117341E+03  0.43058227362E+03  0.17200000000E+03 0. -1.
</event>
<event>
 4    1  0.6129841E-001  0.6024738E+03  0.7818608E-02  0.9900287E-01
         21   -1    0    0  501  502  0.00000000000E+00  0.00000000000E+00  0.16170969135E+03  0.16170969135E+03  0.00000000000E+00 0.  1.
         21   -1    0    0  502  503 -0.00000000000E+00 -0.00000000000E+00 -0.25064896492E+04  0.25064896492E+04  0.00000000000E+00 0. -1.
          6    1    1    2  501    0  0.10665892089E+03  0.56746330220E+03 -0.74116036107E+03  0.95514051614E+03  0.17200000000E+03 0.  1.
         -6    1    1    2    0  503 -0.10665892089E+03 -0.56746330220E+03 -0.16036195968E+04  0.17130588245E+04  0.17200000000E+03 0. -1.
</event>
<event>
 4    1  0.6129841E-001  0.1770568E+03  0.7818608E-02  0.1170682E+00
         21   -1    0    0  503  502  0.00000000000E+00  0.00000000000E+00  0.58956879472E+02  0.58956879472E+02  0.00000000000E+00 0.  1.
         21   -1    0    0  501  503 -0.00000000000E+00 -0.00000000000E+00 -0.53384484170E+03  0.53384484170E+03  0.00000000000E+00 0.  1.
          6    1    1    2  501    0 -0.37583220922E+01  0.41844953806E+02 -0.21878708522E+03  0.28145499428E+03  0.17200000000E+03 0.  1.
         -6    1    1    2    0  502  0.37583220922E+01 -0.41844953806E+02 -0.25610087700E+03  0.31134672689E+03  0.17200000000E+03 0.  1.
</event>
<event>
 4    1  0.6129841E-001  0.1781152E+03  0.7818608E-02  0.1169640E+00
         21   -1    0    0  501  502  0.00000000000E+00  0.00000000000E+00  0.13305475499E+04  0.13305475499E+04  0.00000000000E+00 0.  1.
         21   -1    0    0  502  503 -0.00000000000E+00 -0.00000000000E+00 -0.62053071516E+02  0.62053071516E+02  0.00000000000E+00 0.  1.
          6    1    1    2  501    0  0.40849266833E+02  0.21733751967E+02  0.11806345056E+04  0.11939944952E+04  0.17200000000E+03 0.  1.
         -6    1    1    2    0  503 -0.40849266833E+02 -0.21733751967E+02  0.87859972750E+02  0.19860612626E+03  0.17200000000E+03 0.  1.
</event>
<event>
 4    1  0.6129841E-001  0.2132319E+03  0.7818608E-02  0.1139032E+00
         21   -1    0    0  501  502  0.00000000000E+00  0.00000000000E+00  0.28373954310E+03  0.28373954310E+03  0.00000000000E+00 0.  1.
         21   -1    0    0  502  503 -0.00000000000E+00 -0.00000000000E+00 -0.16368112434E+03  0.16368112434E+03  0.00000000000E+00 0.  1.
          6    1    1    2  501    0 -0.11085711292E+03 -0.59954431326E+02  0.92442517353E+02  0.23240794379E+03  0.17200000000E+03 0. -1.
         -6    1    1    2    0  503  0.11085711292E+03  0.59954431326E+02  0.27615901410E+02  0.21501272365E+03  0.17200000000E+03 0. -1.
</event>
<event>
 4    1  0.6129841E-001  0.2769856E+03  0.7818608E-02  0.1097347E+00
         21   -1    0    0  503  502  0.00000000000E+00  0.00000000000E+00  0.52456618396E+03  0.52456618396E+03  0.00000000000E+00 0. -1.
         21   -1    0    0  501  503 -0.00000000000E+00 -0.00000000000E+00 -0.14641823019E+03  0.14641823019E+03  0.00000000000E+00 0.  1.
          6    1    1    2  501    0  0.13555099690E+03  0.16959640050E+03  0.20023740286E+03  0.34178360014E+03  0.17200000000E+03 0.  1.
         -6    1    1    2    0  502 -0.13555099690E+03 -0.16959640050E+03  0.17791055091E+03  0.32920081401E+03  0.17200000000E+03 0.  1.
</event>
<event>
 4    1  0.6129841E-001  0.1992719E+03  0.7818608E-02  0.1150355E+00
         21   -1    0    0  503  502  0.00000000000E+00  0.00000000000E+00  0.25008528990E+03  0.25008528990E+03  0.00000000000E+00 0.  1.
         21   -1    0    0  501  503 -0.00000000000E+00 -0.00000000000E+00 -0.16119322123E+03  0.16119322123E+03  0.00000000000E+00 0.  1.
          6    1    1    2  501    0 -0.95681731041E+02 -0.31149635453E+02  0.19300505117E+02  0.20020440290E+03  0.17200000000E+03 0. -1.
         -6    1    1    2    0  502  0.95681731041E+02  0.31149635453E+02  0.69591563558E+02  0.21107410822E+03  0.17200000000E+03 0. -1.
</event>
<event>
 4    1  0.6129841E-001  0.2348809E+03  0.7818608E-02  0.1123251E+00
         21   -1    0    0  503  502  0.00000000000E+00  0.00000000000E+00  0.48780901408E+03  0.48780901408E+03  0.00000000000E+00 0. -1.
         21   -1    0    0  501  503 -0.00000000000E+00 -0.00000000000E+00 -0.22562945712E+03  0.22562945712E+03  0.00000000000E+00 0. -1.
          6    1    1    2  501    0 -0.15952733830E+03  0.11663885917E+02 -0.12083470174E+03  0.26414019581E+03  0.17200000000E+03 0. -1.
         -6    1    1    2    0  502  0.15952733830E+03 -0.11663885917E+02  0.38301425870E+03  0.44929827538E+03  0.17200000000E+03 0. -1.
</event>
<event>
 4    1  0.6129841E-001  0.1736360E+03  0.7818608E-02  0.1174108E+00
         21   -1    0    0  501  502  0.00000000000E+00  0.00000000000E+00  0.26106014632E+03  0.26106014632E+03  0.00000000000E+00 0. -1.
         21   -1    0    0  502  503 -0.00000000000E+00 -0.00000000000E+00 -0.13300849974E+03  0.13300849974E+03  0.00000000000E+00 0. -1.
          6    1    1    2  501    0 -0.80625865003E+01 -0.22371058457E+02  0.13553603380E+03  0.22027139173E+03  0.17200000000E+03 0. -1.
         -6    1    1    2    0  503  0.80625865003E+01  0.22371058457E+02 -0.74843872239E+01  0.17379725432E+03  0.17200000000E+03 0. -1.
</event>
<event>
 4    1  0.6129841E-001  0.1880078E+03  0.7818608E-02  0.1160271E+00
         21   -1    0    0  503  502  0.00000000000E+00  0.00000000000E+00  0.70504201797E+02  0.70504201797E+02  0.00000000000E+00 0. -1.
         21   -1    0    0  501  503 -0.00000000000E+00 -0.00000000000E+00 -0.67744420899E+03  0.67744420899E+03  0.00000000000E+00 0. -1.
          6    1    1    2  501    0 -0.25425760000E+01 -0.75871287960E+02 -0.49414063010E+03  0.52869828764E+03  0.17200000000E+03 0. -1.
         -6    1    1    2    0  502  0.25425760000E+01  0.75871287960E+02 -0.11279937708E+03  0.21925012315E+03  0.17200000000E+03 0. -1.
</event>
<event>
 4    1  0.6129841E-001  0.1812158E+03  0.7818608E-02  0.1166632E+00
         21   -1    0    0  501  502  0.00000000000E+00  0.00000000000E+00  0.15765378016E+03  0.15765378016E+03  0.00000000000E+00 0. -1.
         21   -1    0    0  502  503 -0.00000000000E+00 -0.00000000000E+00 -0.29679181388E+03  0.29679181388E+03  0.00000000000E+00 0.  1.
          6    1    1    2  501    0 -0.53251722210E+02  0.20479906026E+02 -0.19364256510E+03  0.26521051164E+03  0.17200000000E+03 0.  1.
         -6    1    1    2    0  503  0.53251722210E+02 -0.20479906026E+02  0.54504531375E+02  0.18923508240E+03  0.17200000000E+03 0. -1.
</event>
<event>
 4    1  0.6129841E-001  0.1901510E+03  0.7818608E-02  0.1158325E+00
         21   -1    0    0  503  502  0.00000000000E+00  0.00000000000E+00  0.35171694590E+03  0.35171694590E+03  0.00000000000E+00 0. -1.
         21   -1    0    0  501  503 -0.00000000000E+00 -0.00000000000E+00 -0.11963394351E+03  0.11963394351E+03  0.00000000000E+00 0. -1.
          6    1    1    2  501    0  0.19395933012E+02 -0.78722283106E+02  0.27642548406E+02  0.19214970871E+03  0.17200000000E+03 0.  1.
         -6    1    1    2    0  502 -0.19395933012E+02  0.78722283106E+02  0.20444045398E+03  0.27920118069E+03  0.17200000000E+03 0.  1.
</event>
<event>
 4    1  0.6129841E-001  0.3383586E+03  0.7818608E-02  0.1067497E+00
         21   -1    0    0  501  502  0.00000000000E+00  0.00000000000E+00  0.16942178389E+04  0.16942178389E+04  0.00000000000E+00 0. -1.
         21   -1    0    0  502  503 -0.00000000000E+00 -0.00000000000E+00 -0.67575049080E+02  0.67575049080E+02  0.00000000000E+00 0.  1.
          6    1    1    2  501    0  0.23641135068E+03  0.17032972628E+03  0.81186898891E+03  0.87955545450E+03  0.17200000000E+03 0.  1.
         -6    1    1    2    0  503 -0.23641135068E+03 -0.17032972628E+03  0.81477380088E+03  0.88223743345E+03  0.17200000000E+03 0.  1.
</event>
<event>
 4    1  0.6129841E-001  0.3204006E+03  0.7818608E-02  0.1075465E+00
         21   -1    0    0  501  502  0.00000000000E+00  0.00000000000E+00  0.46065648740E+03  0.46065648740E+03  0.00000000000E+00 0.  1.
         21   -1    0    0  502  503 -0.00000000000E+00 -0.00000000000E+00 -0.23599189612E+03  0.23599189612E+03  0.00000000000E+00 0. -1.
          6    1    1    2  501    0  0.70635598302E+02 -0.26092749703E+03  0.30128651329E+02  0.32181404892E+03  0.17200000000E+03 0. -1.
         -6    1    1    2    0  503 -0.70635598302E+02  0.26092749703E+03  0.19453593996E+03  0.37483433459E+03  0.17200000000E+03 0.  1.
</event>
<event>
 4    1  0.6129841E-001  0.2115195E+03  0.7818608E-02  0.1140368E+00
         21   -1    0    0  501  502  0.00000000000E+00  0.00000000000E+00  0.69711324006E+03  0.69711324006E+03  0.00000000000E+00 0. -1.
         21   -1    0    0  502  503 -0.00000000000E+00 -0.00000000000E+00 -0.14866372584E+03  0.14866372584E+03  0.00000000000E+00 0. -1.
          6    1    1    2  501    0  0.10263138782E+03 -0.67994811702E+02  0.59301919404E+03  0.62961278631E+03  0.17200000000E+03 0. -1.
         -6    1    1    2    0  503 -0.10263138782E+03  0.67994811702E+02 -0.44569679819E+02  0.21616417960E+03  0.17200000000E+03 0. -1.
</event>
<event>
 4    1  0.6129841E-001  0.1787862E+03  0.7818608E-02  0.1168983E+00
         21   -1    0    0  501  502  0.00000000000E+00  0.00000000000E+00  0.16125383851E+03  0.16125383851E+03  0.00000000000E+00 0.  1.
         21   -1    0    0  502  503 -0.00000000000E+00 -0.00000000000E+00 -0.27725816176E+03  0.27725816176E+03  0.00000000000E+00 0.  1.
          6    1    1    2  501    0 -0.48547529126E+02 -0.48639510132E+01 -0.17506373648E+03  0.25022356490E+03  0.17200000000E+03 0.  1.
         -6    1    1    2    0  503  0.48547529126E+02  0.48639510132E+01  0.59059413230E+02  0.18828843537E+03  0.17200000000E+03 0.  1.
</event>
<event>
 4    1  0.6129841E-001  0.1900848E+03  0.7818608E-02  0.1158385E+00
         21   -1    0    0  503  502  0.00000000000E+00  0.00000000000E+00  0.64176784398E+03  0.64176784398E+03  0.00000000000E+00 0. -1.
         21   -1    0    0  501  503 -0.00000000000E+00 -0.00000000000E+00 -0.26164780642E+03  0.26164780642E+03  0.00000000000E+00 0. -1.
          6    1    1    2  501    0 -0.49791374908E+02  0.63789097961E+02 -0.21010852327E+03  0.28333341064E+03  0.17200000000E+03 0. -1.
         -6    1    1    2    0  502  0.49791374908E+02 -0.63789097961E+02  0.59022856084E+03  0.62008223976E+03  0.17200000000E+03 0. -1.
</event>
<event>
 4    1  0.6129841E-001  0.1751063E+03  0.7818608E-02  0.1172625E+00
         21   -1    0    0  501  502  0.00000000000E+00  0.00000000000E+00  0.59847014834E+03  0.59847014834E+03  0.00000000000E+00 0. -1.
         21   -1    0    0  502  503 -0.00000000000E+00 -0.00000000000E+00 -0.51241275599E+02  0.51241275599E+02  0.00000000000E+00 0. -1.
          6    1    1    2  501    0 -0.55362824334E+01  0.32366213402E+02  0.27739422804E+03  0.32803929634E+03  0.17200000000E+03 0. -1.
         -6    1    1    2    0  503  0.55362824334E+01 -0.32366213402E+02  0.26983464470E+03  0.32167212760E+03  0.17200000000E+03 0. -1.
</event>
<event>
 4    1  0.6129841E-001  0.1794082E+03  0.7818608E-02  0.1168377E+00
         21   -1    0    0  501  502  0.00000000000E+00  0.00000000000E+00  0.22878899133E+03  0.22878899133E+03  0.00000000000E+00 0. -1.
         21   -1    0    0  502  503 -0.00000000000E+00 -0.00000000000E+00 -0.14141921325E+03  0.14141921325E+03  0.00000000000E+00 0. -1.
          6    1    1    2  501    0 -0.22438951639E+02 -0.45823406945E+02  0.57017899037E+02  0.18825071576E+03  0.17200000000E+03 0. -1.
         -6    1    1    2    0  503  0.22438951639E+02  0.45823406945E+02  0.30351879040E+02  0.18195748882E+03  0.17200000000E+03 0. -1.
</event>
<event>
 4    1  0.6129841E-001  0.1845785E+03  0.7818608E-02  0.1163444E+00
         21   -1    0    0  501  502  0.00000000000E+00  0.00000000000E+00  0.81252342834E+03  0.81252342834E+03  0.00000000000E+00 0. -1.
         21   -1    0    0  502  503 -0.00000000000E+00 -0.00000000000E+00 -0.44699552795E+02  0.44699552795E+02  0.00000000000E+00 0.  1.
          6    1    1    2  501    0 -0.44250532469E+02 -0.50270523683E+02  0.49059726900E+03  0.52417069312E+03  0.17200000000E+03 0. -1.
         -6    1    1    2    0  503  0.44250532469E+02  0.50270523683E+02  0.27722660654E+03  0.33305228801E+03  0.17200000000E+03 0.  1.
</event>
<event>
 4    1  0.6129841E-001  0.1757774E+03  0.7818608E-02  0.1171953E+00
         21   -1    0    0  503  502  0.00000000000E+00  0.00000000000E+00  0.12116423823E+03  0.12116423823E+03  0.00000000000E+00 0.  1.
         21   -1    0    0  501  503 -0.00000000000E+00 -0.00000000000E+00 -0.36601328428E+03  0.36601328428E+03  0.00000000000E+00 0.  1.
          6    1    1    2  501    0  0.36181260842E+02 -0.21488376249E+01 -0.25657216831E+03  0.31100961189E+03  0.17200000000E+03 0. -1.
         -6    1    1    2    0  502 -0.36181260842E+02  0.21488376249E+01  0.11723122253E+02  0.17616791063E+03  0.17200000000E+03 0. -1.
</event>
<event>
 4    1  0.6129841E-001  0.1976006E+03  0.7818608E-02  0.1151779E+00
         21   -1    0    0  503  502  0.00000000000E+00  0.00000000000E+00  0.15296176022E+04  0.15296176022E+04  0.00000000000E+00 0.  1.
         21   -1    0    0  501  503 -0.00000000000E+00 -0.00000000000E+00 -0.29777769990E+02  0.29777769990E+02  0.00000000000E+00 0.  1.
          6    1    1    2  501    0 -0.96311791922E+02  0.13640113782E+02  0.10445192868E+04  0.10630458854E+04  0.17200000000E+03 0.  1.
         -6    1    1    2    0  502  0.96311791922E+02 -0.13640113782E+02  0.45532054542E+03  0.49634948680E+03  0.17200000000E+03 0.  1.
</event>
<event>
 4    1  0.6129841E-001  0.1722741E+03  0.7818608E-02  0.1175497E+00
         21   -1    0    0  501  502  0.00000000000E+00  0.00000000000E+00  0.70157232138E+03  0.70157232138E+03  0.00000000000E+00 0. -1.
         21   -1    0    0  502  503 -0.00000000000E+00 -0.00000000000E+00 -0.57208535040E+02  0.57208535040E+02  0.00000000000E+00 0. -1.
          6    1    1    2  501    0  0.40472860503E+01 -0.88310506557E+01  0.51583962811E+03  0.54384638447E+03  0.17200000000E+03 0. -1.
         -6    1    1    2    0  503 -0.40472860503E+01  0.88310506557E+01  0.12852415823E+03  0.21493447194E+03  0.17200000000E+03 0. -1.
</event>
<event>
 4    1  0.6129841E-001  0.1721428E+03  0.7818608E-02  0.1175631E+00
         21   -1    0    0  501  502  0.00000000000E+00  0.00000000000E+00  0.10025614380E+04  0.10025614380E+04  0.00000000000E+00 0. -1.
         21   -1    0    0  502  503 -0.00000000000E+00 -0.00000000000E+00 -0.34550872053E+02  0.34550872053E+02  0.00000000000E+00 0. -1.
          6    1    1    2  501    0 -0.51106792471E+01  0.47996177721E+01  0.68114113149E+03  0.70255704137E+03  0.17200000000E+03 0. -1.
         -6    1    1    2    0  503  0.51106792471E+01 -0.47996177721E+01  0.28686943441E+03  0.33455526864E+03  0.17200000000E+03 0. -1.
</event>
<event>
 4    1  0.6129841E-001  0.1771035E+03  0.7818608E-02  0.1170636E+00
         21   -1    0    0  501  502  0.00000000000E+00  0.00000000000E+00  0.13377351125E+03  0.13377351125E+03  0.00000000000E+00 0.  1.
         21   -1    0    0  502  503 -0.00000000000E+00 -0.00000000000E+00 -0.25712866621E+03  0.25712866621E+03  0.00000000000E+00 0.  1.
          6    1    1    2  501    0  0.19257609154E+01  0.42165560746E+02 -0.36550498457E+01  0.17714119356E+03  0.17200000000E+03 0.  1.
         -6    1    1    2    0  503 -0.19257609154E+01 -0.42165560746E+02 -0.11970010511E+03  0.21376098389E+03  0.17200000000E+03 0.  1.
</event>
<event>
 4    1  0.6129841E-001  0.3580019E+03  0.7818608E-02  0.1059378E+00
         21   -1    0    0  503  502  0.00000000000E+00  0.00000000000E+00  0.16795717573E+04  0.16795717573E+04  0.00000000000E+00 0. -1.
         21   -1    0    0  501  503 -0.00000000000E+00 -0.00000000000E+00 -0.78248509798E+02  0.78248509798E+02  0.00000000000E+00 0.  1.
          6    1    1    2  501    0 -0.23725464855E+03 -0.20564921352E+03  0.93905777116E+03  0.10049850073E+04  0.17200000000E+03 0. -1.
         -6    1    1    2    0  502  0.23725464855E+03  0.20564921352E+03  0.66226547639E+03  0.75283525987E+03  0.17200000000E+03 0. -1.
</event>
<event>
 4    1  0.6129841E-001  0.1781235E+03  0.7818608E-02  0.1169632E+00
         21   -1    0    0  501  502  0.00000000000E+00  0.00000000000E+00  0.10072069725E+03  0.10072069725E+03  0.00000000000E+00 0.  1.
         21   -1    0    0  502  503 -0.00000000000E+00 -0.00000000000E+00 -0.32732422123E+03  0.32732422123E+03  0.00000000000E+00 0.  1.
          6    1    1    2  501    0  0.43624146830E+02  0.15521513334E+02 -0.71789028516E+02  0.19204595330E+03  0.17200000000E+03 0. -1.
         -6    1    1    2    0  503 -0.43624146830E+02 -0.15521513334E+02 -0.15481449546E+03  0.23599896518E+03  0.17200000000E+03 0. -1.
</event>
<event>
 4    1  0.6129841E-001  0.2370584E+03  0.7818608E-02  0.1121768E+00
         21   -1    0    0  501  502  0.00000000000E+00  0.00000000000E+00  0.22266676699E+03  0.22266676699E+03  0.00000000000E+00 0. -1.
         21   -1    0    0  502  503 -0.00000000000E+00 -0.00000000000E+00 -0.26874547513E+03  0.26874547513E+03  0.00000000000E+00 0.  1.
          6    1    1    2  501    0  0.10721781836E+03 -0.12295131494E+03  0.37593338995E+02  0.24002071901E+03  0.17200000000E+03 0. -1.
         -6    1    1    2    0  503 -0.10721781836E+03  0.12295131494E+03 -0.83672047127E+02  0.25139152311E+03  0.17200000000E+03 0.  1.
</event>
<event>
 4    1  0.6129841E-001  0.2129306E+03  0.7818608E-02  0.1139266E+00
         21   -1    0    0  503  502  0.00000000000E+00  0.00000000000E+00  0.10405349452E+03  0.10405349452E+03  0.00000000000E+00 0. -1.
         21   -1    0    0  501  503 -0.00000000000E+00 -0.00000000000E+00 -0.56533741580E+03  0.56533741580E+03  0.00000000000E+00 0. -1.
          6    1    1    2  501    0  0.61769497982E+02  0.10927025575E+03 -0.39089532823E+03  0.44512764159E+03  0.17200000000E+03 0. -1.
         -6    1    1    2    0  502 -0.61769497982E+02 -0.10927025575E+03 -0.70388593044E+02  0.22426326873E+03  0.17200000000E+03 0. -1.
</event>
<event>
 4    1  0.6129841E-001  0.2198989E+03  0.7818608E-02  0.1133958E+00
         21   -1    0    0  501  502  0.00000000000E+00  0.00000000000E+00  0.48345243611E+02  0.48345243611E+02  0.00000000000E+00 0. -1.
         21   -1    0    0  502  503 -0.00000000000E+00 -0.00000000000E+00 -0.11601491211E+04  0.11601491211E+04  0.00000000000E+00 0.  1.
          6    1    1    2  501    0 -0.76133995945E+02 -0.11390843273E+03 -0.33154903176E+03  0.39784453854E+03  0.17200000000E+03 0.  1.
         -6    1    1    2    0  503  0.76133995945E+02  0.11390843273E+03 -0.78025484572E+03  0.81064982616E+03  0.17200000000E+03 0.  1.
</event>
<event>
 4    1  0.6129841E-001  0.1732775E+03  0.7818608E-02  0.1174472E+00
         21   -1    0    0  501  502  0.00000000000E+00  0.00000000000E+00  0.15157397914E+03  0.15157397914E+03  0.00000000000E+00 0. -1.
         21   -1    0    0  502  503 -0.00000000000E+00 -0.00000000000E+00 -0.20005024546E+03  0.20005024546E+03  0.00000000000E+00 0. -1.
          6    1    1    2  501    0  0.20842424993E+02  0.25832228238E+01 -0.68285747208E+01  0.17341196369E+03  0.17200000000E+03 0. -1.
         -6    1    1    2    0  503 -0.20842424993E+02 -0.25832228238E+01 -0.41647691598E+02  0.17821226090E+03  0.17200000000E+03 0. -1.
</event>
<event>
 4    1  0.6129841E-001  0.2048123E+03  0.7818608E-02  0.1145741E+00
         21   -1    0    0  503  502  0.00000000000E+00  0.00000000000E+00  0.53611249192E+03  0.53611249192E+03  0.00000000000E+00 0. -1.
         21   -1    0    0  501  503 -0.00000000000E+00 -0.00000000000E+00 -0.78328701212E+02  0.78328701212E+02  0.00000000000E+00 0.  1.
          6    1    1    2  501    0 -0.34802433984E+02  0.10560710252E+03  0.21884321016E+03  0.29973391558E+03  0.17200000000E+03 0.  1.
         -6    1    1    2    0  502  0.34802433984E+02 -0.10560710252E+03  0.23894058054E+03  0.31470727755E+03  0.17200000000E+03 0.  1.
</event>
<event>
 4    1  0.6129841E-001  0.1764703E+03  0.7818608E-02  0.1171263E+00
         21   -1    0    0  501  502  0.00000000000E+00  0.00000000000E+00  0.15271618386E+02  0.15271618386E+02  0.00000000000E+00 0. -1.
         21   -1    0    0  502  503 -0.00000000000E+00 -0.00000000000E+00 -0.24567707405E+04  0.24567707405E+04  0.00000000000E+00 0. -1.
          6    1    1    2  501    0  0.30146981531E+02 -0.25474126945E+02 -0.71116946060E+03  0.73273717889E+03  0.17200000000E+03 0. -1.
         -6    1    1    2    0  503 -0.30146981531E+02  0.25474126945E+02 -0.17303296615E+04  0.17393051799E+04  0.17200000000E+03 0. -1.
</event>
<event>
 4    1  0.6129841E-001  0.1887570E+03  0.7818608E-02  0.1159587E+00
         21   -1    0    0  503  502  0.00000000000E+00  0.00000000000E+00  0.14193850285E+03  0.14193850285E+03  0.00000000000E+00 0. -1.
         21   -1    0    0  501  503 -0.00000000000E+00 -0.00000000000E+00 -0.38175900922E+03  0.38175900922E+03  0.00000000000E+00 0. -1.
          6    1    1    2  501    0  0.19648833365E+01 -0.77726018261E+02  0.33325779617E+02  0.19167629553E+03  0.17200000000E+03 0.  1.
         -6    1    1    2    0  502 -0.19648833365E+01  0.77726018261E+02 -0.27314628599E+03  0.33202121654E+03  0.17200000000E+03 0.  1.
</event>
<event>
 4    1  0.6129841E-001  0.2380555E+03  0.7818608E-02  0.1121095E+00
         21   -1    0    0  501  502  0.00000000000E+00  0.00000000000E+00  0.88902758068E+02  0.88902758068E+02  0.00000000000E+00 0. -1.
         21   -1    0    0  502  503 -0.00000000000E+00 -0.00000000000E+00 -0.81209980429E+03  0.81209980429E+03  0.00000000000E+00 0.  1.
          6    1    1    2  501    0 -0.16455415858E+03 -0.28855642934E+01 -0.15267627676E+03  0.28280813827E+03  0.17200000000E+03 0.  1.
         -6    1    1    2    0  503  0.16455415858E+03  0.28855642934E+01 -0.57052076947E+03  0.61819442409E+03  0.17200000000E+03 0.  1.
</event>
<event>
 4    1  0.6129841E-001  0.1908806E+03  0.7818608E-02  0.1157669E+00
         21   -1    0    0  503  502  0.00000000000E+00  0.00000000000E+00  0.85308804711E+03  0.85308804711E+03  0.00000000000E+00 0.  1.
         21   -1    0    0  501  503 -0.00000000000E+00 -0.00000000000E+00 -0.21010473784E+03  0.21010473784E+03  0.00000000000E+00 0.  1.
          6    1    1    2  501    0 -0.62413999400E+02 -0.54368214913E+02 -0.15300698657E+03  0.24463554127E+03  0.17200000000E+03 0.  1.
         -6    1    1    2    0  502  0.62413999400E+02  0.54368214913E+02  0.79599029584E+03  0.81855724368E+03  0.17200000000E+03 0.  1.
</event>
<event>
 4    1  0.6129841E-001  0.1808515E+03  0.7818608E-02  0.1166982E+00
         21   -1    0    0  503  502  0.00000000000E+00  0.00000000000E+00  0.45375154000E+02  0.45375154000E+02  0.00000000000E+00 0.  1.
         21   -1    0    0  501  503 -0.00000000000E+00 -0.00000000000E+00 -0.78826779900E+03  0.78826779900E+03  0.00000000000E+00 0.  1.
          6    1    1    2  501    0 -0.53823279689E+02 -0.15043743143E+02 -0.49337370824E+03  0.52547585637E+03  0.17200000000E+03 0.  1.
         -6    1    1    2    0  502  0.53823279689E+02  0.15043743143E+02 -0.24951893676E+03  0.30816709663E+03  0.17200000000E+03 0.  1.
</event>
<event>
 4    1  0.6129841E-001  0.2862191E+03  0.7818608E-02  0.1092340E+00
         21   -1    0    0  503  502  0.00000000000E+00  0.00000000000E+00  0.17051614633E+03  0.17051614633E+03  0.00000000000E+00 0. -1.
         21   -1    0    0  501  503 -0.00000000000E+00 -0.00000000000E+00 -0.48459717305E+03  0.48459717305E+03  0.00000000000E+00 0. -1.
          6    1    1    2  501    0  0.14282918899E+02  0.22832739656E+03 -0.18740850085E+03  0.34211598616E+03  0.17200000000E+03 0.  1.
         -6    1    1    2    0  502 -0.14282918899E+02 -0.22832739656E+03 -0.12667252587E+03  0.31299733322E+03  0.17200000000E+03 0.  1.
</event>
<event>
 4    1  0.6129841E-001  0.1986945E+03  0.7818608E-02  0.1150845E+00
         21   -1    0    0  503  502  0.00000000000E+00  0.00000000000E+00  0.11363873320E+04  0.11363873320E+04  0.00000000000E+00 0. -1.
         21   -1    0    0  501  503 -0.00000000000E+00 -0.00000000000E+00 -0.38494037354E+02  0.38494037354E+02  0.00000000000E+00 0. -1.
          6    1    1    2  501    0  0.75923625899E+02 -0.64273554889E+02  0.73236626066E+03  0.75884110759E+03  0.17200000000E+03 0. -1.
         -6    1    1    2    0  502 -0.75923625899E+02  0.64273554889E+02  0.36552703400E+03  0.41604026177E+03  0.17200000000E+03 0. -1.
</event>
<event>
 4    1  0.6129841E-001  0.1957008E+03  0.7818608E-02  0.1153418E+00
         21   -1    0    0  501  502  0.00000000000E+00  0.00000000000E+00  0.40494226512E+03  0.40494226512E+03  0.00000000000E+00 0. -1.
         21   -1    0    0  502  503 -0.00000000000E+00 -0.00000000000E+00 -0.95633642372E+02  0.95633642372E+02  0.00000000000E+00 0. -1.
          6    1    1    2  501    0  0.71038881852E+02 -0.60566422147E+02  0.12836379144E+03  0.23404289602E+03  0.17200000000E+03 0.  1.
         -6    1    1    2    0  503 -0.71038881852E+02  0.60566422147E+02  0.18094483131E+03  0.26653301147E+03  0.17200000000E+03 0.  1.
</event>
<event>
 4    1  0.6129841E-001  0.3312900E+03  0.7818608E-02  0.1070567E+00
         21   -1    0    0  501  502  0.00000000000E+00  0.00000000000E+00  0.10076829809E+03  0.10076829809E+03  0.00000000000E+00 0.  1.
         21   -1    0    0  502  503 -0.00000000000E+00 -0.00000000000E+00 -0.14195304678E+04  0.14195304678E+04  0.00000000000E+00 0. -1.
          6    1    1    2  501    0 -0.24464989607E+03 -0.14253252894E+03 -0.29266895106E+03  0.44205000664E+03  0.17200000000E+03 0.  1.
         -6    1    1    2    0  503  0.24464989607E+03  0.14253252894E+03 -0.10260932187E+04  0.10782487593E+04  0.17200000000E+03 0. -1.
</event>
<event>
 4    1  0.6129841E-001  0.2189587E+03  0.7818608E-02  0.1134662E+00
         21   -1    0    0  501  502  0.00000000000E+00  0.00000000000E+00  0.11019652225E+03  0.11019652225E+03  0.00000000000E+00 0. -1.
         21   -1    0    0  502  503 -0.00000000000E+00 -0.00000000000E+00 -0.43612699083E+03  0.43612699083E+03  0.00000000000E+00 0. -1.
          6    1    1    2  501    0  0.31979792459E+02 -0.13166701997E+03 -0.14950079208E+03  0.26512902162E+03  0.17200000000E+03 0. -1.
         -6    1    1    2    0  503 -0.31979792459E+02  0.13166701997E+03 -0.17642967650E+03  0.28119449145E+03  0.17200000000E+03 0. -1.
</event>
<event>
 4    1  0.6129841E-001  0.1773830E+03  0.7818608E-02  0.1170360E+00
         21   -1    0    0  503  502  0.00000000000E+00  0.00000000000E+00  0.49160706230E+03  0.49160706230E+03  0.00000000000E+00 0. -1.
         21   -1    0    0  501  503 -0.00000000000E+00 -0.00000000000E+00 -0.14307488559E+03  0.14307488559E+03  0.00000000000E+00 0. -1.
          6    1    1    2  501    0 -0.41370057211E+02  0.13008880983E+02 -0.61647707842E+02  0.18779018212E+03  0.17200000000E+03 0. -1.
         -6    1    1    2    0  502  0.41370057211E+02 -0.13008880983E+02  0.41017988455E+03  0.44689176577E+03  0.17200000000E+03 0. -1.
</event>
<event>
 4    1  0.6129841E-001  0.2167242E+03  0.7818608E-02  0.1136349E+00
         21   -1    0    0  503  502  0.00000000000E+00  0.00000000000E+00  0.38637038599E+03  0.38637038599E+03  0.00000000000E+00 0. -1.
         21   -1    0    0  501  503 -0.00000000000E+00 -0.00000000000E+00 -0.12668168865E+03  0.12668168865E+03  0.00000000000E+00 0. -1.
          6    1    1    2  501    0 -0.43948662825E+02  0.12431368657E+03  0.78292970135E+02  0.23043256455E+03  0.17200000000E+03 0. -1.
         -6    1    1    2    0  502  0.43948662825E+02 -0.12431368657E+03  0.18139572720E+03  0.28261951009E+03  0.17200000000E+03 0. -1.
</event>
<event>
 4    1  0.6129841E-001  0.2708053E+03  0.7818608E-02  0.1100820E+00
         21   -1    0    0  503  502  0.00000000000E+00  0.00000000000E+00  0.31391015823E+03  0.31391015823E+03  0.00000000000E+00 0.  1.
         21   -1    0    0  501  503 -0.00000000000E+00 -0.00000000000E+00 -0.23710293834E+03  0.23710293834E+03  0.00000000000E+00 0.  1.
          6    1    1    2  501    0  0.20608941531E+03  0.35758315956E+02  0.50092235173E+01  0.27085161359E+03  0.17200000000E+03 0.  1.
         -6    1    1    2    0  502 -0.20608941531E+03 -0.35758315956E+02  0.71797996372E+02  0.28016148298E+03  0.17200000000E+03 0.  1.
</event>
<event>
 4    1  0.6129841E-001  0.2060562E+03  0.7818608E-02  0.1144728E+00
         21   -1    0    0  503  502  0.00000000000E+00  0.00000000000E+00  0.58969906701E+03  0.58969906701E+03  0.00000000000E+00 0.  1.
         21   -1    0    0  501  503 -0.00000000000E+00 -0.00000000000E+00 -0.93538286970E+02  0.93538286970E+02  0.00000000000E+00 0.  1.
          6    1    1    2  501    0  0.69509746902E+02  0.89685942817E+02  0.84158062911E+02  0.22257976729E+03  0.17200000000E+03 0.  1.
         -6    1    1    2    0  502 -0.69509746902E+02 -0.89685942817E+02  0.41200271713E+03  0.46065758669E+03  0.17200000000E+03 0.  1.
</event>
<event>
 4    1  0.6129841E-001  0.2366156E+03  0.7818608E-02  0.1122068E+00
         21   -1    0    0  503  502  0.00000000000E+00  0.00000000000E+00  0.41216139954E+03  0.41216139954E+03  0.00000000000E+00 0.  1.
         21   -1    0    0  501  503 -0.00000000000E+00 -0.00000000000E+00 -0.15295047195E+03  0.15295047195E+03  0.00000000000E+00 0. -1.
          6    1    1    2  501    0 -0.10278299507E+03  0.12585156769E+03  0.35092334629E+02  0.23920374812E+03  0.17200000000E+03 0. -1.
         -6    1    1    2    0  502  0.10278299507E+03 -0.12585156769E+03  0.22411859296E+03  0.32590812337E+03  0.17200000000E+03 0. -1.
</event>
<event>
 4    1  0.6129841E-001  0.1747221E+03  0.7818608E-02  0.1173011E+00
         21   -1    0    0  501  502  0.00000000000E+00  0.00000000000E+00  0.49916247043E+03  0.49916247043E+03  0.00000000000E+00 0.  1.
         21   -1    0    0  502  503 -0.00000000000E+00 -0.00000000000E+00 -0.66050095559E+02  0.66050095559E+02  0.00000000000E+00 0.  1.
          6    1    1    2  501    0 -0.93766161388E+01  0.29255475419E+02  0.29346751265E+03  0.34154206879E+03  0.17200000000E+03 0.  1.
         -6    1    1    2    0  503  0.93766161388E+01 -0.29255475419E+02  0.13964486221E+03  0.22367049719E+03  0.17200000000E+03 0.  1.
</event>
<event>
 4    1  0.6129841E-001  0.1884136E+03  0.7818608E-02  0.1159900E+00
         21   -1    0    0  503  502  0.00000000000E+00  0.00000000000E+00  0.25801145821E+02  0.25801145821E+02  0.00000000000E+00 0.  1.
         21   -1    0    0  501  503 -0.00000000000E+00 -0.00000000000E+00 -0.29125356473E+04  0.29125356473E+04  0.00000000000E+00 0.  1.
          6    1    1    2  501    0 -0.72095179650E+02 -0.26794896850E+02 -0.25105088141E+04  0.25175691027E+04  0.17200000000E+03 0.  1.
         -6    1    1    2    0  502  0.72095179650E+02  0.26794896850E+02 -0.37622568745E+03  0.42076769045E+03  0.17200000000E+03 0.  1.
</event>
<event>
 4    1  0.6129841E-001  0.1769282E+03  0.7818608E-02  0.1170809E+00
         21   -1    0    0  501  502  0.00000000000E+00  0.00000000000E+00  0.82212741375E+03  0.82212741375E+03  0.00000000000E+00 0. -1.
         21   -1    0    0  502  503 -0.00000000000E+00 -0.00000000000E+00 -0.68740925711E+02  0.68740925711E+02  0.00000000000E+00 0. -1.
          6    1    1    2  501    0 -0.39811691760E+02  0.11603005376E+02  0.67419834222E+03  0.69702726287E+03  0.17200000000E+03 0. -1.
         -6    1    1    2    0  503  0.39811691760E+02 -0.11603005376E+02  0.79188145816E+02  0.19384107659E+03  0.17200000000E+03 0. -1.
</event>
<event>
 4    1  0.6129841E-001  0.2270540E+03  0.7818608E-02  0.1128731E+00
         21   -1    0    0  501  502  0.00000000000E+00  0.00000000000E+00  0.11619958983E+04  0.11619958983E+04  0.00000000000E+00 0. -1.
         21   -1    0    0  502  503 -0.00000000000E+00 -0.00000000000E+00 -0.47657967471E+02  0.47657967471E+02  0.00000000000E+00 0. -1.
          6    1    1    2  501    0 -0.10224350885E+03  0.10731164286E+03  0.71612156740E+03  0.75125469921E+03  0.17200000000E+03 0.  1.
         -6    1    1    2    0  503  0.10224350885E+03 -0.10731164286E+03  0.39821636341E+03  0.45839916654E+03  0.17200000000E+03 0.  1.
</event>
<event>
 4    1  0.6129841E-001  0.1754025E+03  0.7818608E-02  0.1172328E+00
         21   -1    0    0  503  502  0.00000000000E+00  0.00000000000E+00  0.11871928522E+04  0.11871928522E+04  0.00000000000E+00 0.  1.
         21   -1    0    0  501  503 -0.00000000000E+00 -0.00000000000E+00 -0.25937085991E+02  0.25937085991E+02  0.00000000000E+00 0. -1.
          6    1    1    2  501    0 -0.74555822415E+01 -0.33562426059E+02  0.59835514987E+03  0.62353420718E+03  0.17200000000E+03 0. -1.
         -6    1    1    2    0  502  0.74555822415E+01  0.33562426059E+02  0.56290061633E+03  0.58959573101E+03  0.17200000000E+03 0. -1.
</event>
<event>
 4    1  0.6129841E-001  0.2181682E+03  0.7818608E-02  0.1135256E+00
         21   -1    0    0  503  502  0.00000000000E+00  0.00000000000E+00  0.25836241301E+02  0.25836241301E+02  0.00000000000E+00 0. -1.
         21   -1    0    0  501  503 -0.00000000000E+00 -0.00000000000E+00 -0.18676345077E+04  0.18676345077E+04  0.00000000000E+00 0.  1.
          6    1    1    2  501    0  0.36145613412E+02 -0.12925498933E+03 -0.10312275715E+04  0.10540529692E+04  0.17200000000E+03 0.  1.
         -6    1    1    2    0  502 -0.36145613412E+02  0.12925498933E+03 -0.81057069487E+03  0.83941777978E+03  0.17200000000E+03 0. -1.
</event>
<event>
 4    1  0.6129841E-001  0.2359140E+03  0.7818608E-02  0.1122545E+00
         21   -1    0    0  501  502  0.00000000000E+00  0.00000000000E+00  0.12012122274E+04  0.12012122274E+04  0.00000000000E+00 0. -1.
         21   -1    0    0  502  503 -0.00000000000E+00 -0.00000000000E+00 -0.46339130368E+02  0.46339130368E+02  0.00000000000E+00 0. -1.
          6    1    1    2  501    0 -0.25293706197E+02 -0.15947308974E+03  0.58476929208E+03  0.63056368662E+03  0.17200000000E+03 0.  1.
         -6    1    1    2    0  503  0.25293706197E+02  0.15947308974E+03  0.57010380495E+03  0.61698767115E+03  0.17200000000E+03 0.  1.
</event>
<event>
 4    1  0.6129841E-001  0.2363083E+03  0.7818608E-02  0.1122277E+00
         21   -1    0    0  503  502  0.00000000000E+00  0.00000000000E+00  0.55536838094E+03  0.55536838094E+03  0.00000000000E+00 0. -1.
         21   -1    0    0  501  503 -0.00000000000E+00 -0.00000000000E+00 -0.12094551877E+03  0.12094551877E+03  0.00000000000E+00 0. -1.
          6    1    1    2  501    0 -0.15109460876E+03  0.58549238532E+02  0.35608006341E+03  0.42735770227E+03  0.17200000000E+03 0.  1.
         -6    1    1    2    0  502  0.15109460876E+03 -0.58549238532E+02  0.78342798754E+02  0.24895619744E+03  0.17200000000E+03 0.  1.
</event>
<event>
 4    1  0.6129841E-001  0.2419380E+03  0.7818608E-02  0.1118509E+00
         21   -1    0    0  503  502  0.00000000000E+00  0.00000000000E+00  0.89497637391E+02  0.89497637391E+02  0.00000000000E+00 0.  1.
         21   -1    0    0  501  503 -0.00000000000E+00 -0.00000000000E+00 -0.73725738555E+03  0.73725738555E+03  0.00000000000E+00 0.  1.
          6    1    1    2  501    0 -0.16160160755E+03 -0.53243747196E+02 -0.46277121667E+03  0.52219840594E+03  0.17200000000E+03 0.  1.
         -6    1    1    2    0  502  0.16160160755E+03  0.53243747196E+02 -0.18498853148E+03  0.30455661700E+03  0.17200000000E+03 0.  1.
</event>
<event>
 4    1  0.6129841E-001  0.2280225E+03  0.7818608E-02  0.1128039E+00
         21   -1    0    0  501  502  0.00000000000E+00  0.00000000000E+00  0.48565904469E+02  0.48565904469E+02  0.00000000000E+00 0. -1.
         21   -1    0    0  502  503 -0.00000000000E+00 -0.00000000000E+00 -0.10758014733E+04  0.10758014733E+04  0.00000000000E+00 0. -1.
          6    1    1    2  501    0 -0.11205044814E+03  0.99272119676E+02 -0.47449592521E+03  0.52644148745E+03  0.17200000000E+03 0. -1.
         -6    1    1    2    0  503  0.11205044814E+03 -0.99272119676E+02 -0.55273964358E+03  0.59792589027E+03  0.17200000000E+03 0. -1.
</event>
<event>
 4    1  0.6129841E-001  0.1888242E+03  0.7818608E-02  0.1159526E+00
         21   -1    0    0  501  502  0.00000000000E+00  0.00000000000E+00  0.27224849745E+03  0.27224849745E+03  0.00000000000E+00 0. -1.
         21   -1    0    0  502  503 -0.00000000000E+00 -0.00000000000E+00 -0.13640948503E+03  0.13640948503E+03  0.00000000000E+00 0. -1.
          6    1    1    2  501    0  0.98923131358E+01  0.77283290330E+02  0.27091945141E+02  0.19075780014E+03  0.17200000000E+03 0. -1.
         -6    1    1    2    0  503 -0.98923131358E+01 -0.77283290330E+02  0.10874706727E+03  0.21790018234E+03  0.17200000000E+03 0. -1.
</event>
<event>
 4    1  0.6129841E-001  0.1846861E+03  0.7818608E-02  0.1163343E+00
         21   -1    0    0  503  502  0.00000000000E+00  0.00000000000E+00  0.56110327166E+03  0.56110327166E+03  0.00000000000E+00 0.  1.
         21   -1    0    0  501  503 -0.00000000000E+00 -0.00000000000E+00 -0.17410709356E+03  0.17410709356E+03  0.00000000000E+00 0.  1.
          6    1    1    2  501    0 -0.17717999613E+02 -0.64892421076E+02 -0.10306893675E+03  0.21149978616E+03  0.17200000000E+03 0.  1.
         -6    1    1    2    0  502  0.17717999613E+02  0.64892421076E+02  0.49006511485E+03  0.52371057906E+03  0.17200000000E+03 0.  1.
</event>
<event>
 4    1  0.6129841E-001  0.1881883E+03  0.7818608E-02  0.1160106E+00
         21   -1    0    0  501  502  0.00000000000E+00  0.00000000000E+00  0.43556285030E+03  0.43556285030E+03  0.00000000000E+00 0.  1.
         21   -1    0    0  502  503 -0.00000000000E+00 -0.00000000000E+00 -0.13689830492E+03  0.13689830492E+03  0.00000000000E+00 0.  1.
          6    1    1    2  501    0 -0.75784834825E+02  0.93533694210E+01  0.33172847015E+03  0.38139035727E+03  0.17200000000E+03 0.  1.
         -6    1    1    2    0  503  0.75784834825E+02 -0.93533694210E+01 -0.33063924775E+02  0.19107079795E+03  0.17200000000E+03 0.  1.
</event>
<event>
 4    1  0.6129841E-001  0.2272687E+03  0.7818608E-02  0.1128577E+00
         21   -1    0    0  501  502  0.00000000000E+00  0.00000000000E+00  0.63290926736E+02  0.63290926736E+02  0.00000000000E+00 0. -1.
         21   -1    0    0  502  503 -0.00000000000E+00 -0.00000000000E+00 -0.81704408020E+03  0.81704408020E+03  0.00000000000E+00 0. -1.
          6    1    1    2  501    0  0.36386668929E+02  0.14402450326E+03 -0.36182957042E+03  0.42728408026E+03  0.17200000000E+03 0. -1.
         -6    1    1    2    0  503 -0.36386668929E+02 -0.14402450326E+03 -0.39192358304E+03  0.45305092667E+03  0.17200000000E+03 0. -1.
</event>
<event>
 4    1  0.6129841E-001  0.1922296E+03  0.7818608E-02  0.1156466E+00
         21   -1    0    0  501  502  0.00000000000E+00  0.00000000000E+00  0.20551295224E+04  0.20551295224E+04  0.00000000000E+00 0. -1.
         21   -1    0    0  502  503 -0.00000000000E+00 -0.00000000000E+00 -0.78143288898E+02  0.78143288898E+02  0.00000000000E+00 0. -1.
          6    1    1    2  501    0 -0.81091462327E+02 -0.28149660536E+02  0.19244041960E+04  0.19339813180E+04  0.17200000000E+03 0.  1.
         -6    1    1    2    0  503  0.81091462327E+02  0.28149660536E+02  0.52582037513E+02  0.19929149334E+03  0.17200000000E+03 0.  1.
</event>
<event>
 4    1  0.6129841E-001  0.2927348E+03  0.7818608E-02  0.1088930E+00
         21   -1    0    0  501  502  0.00000000000E+00  0.00000000000E+00  0.38521892912E+03  0.38521892912E+03  0.00000000000E+00 0.  1.
         21   -1    0    0  502  503 -0.00000000000E+00 -0.00000000000E+00 -0.69842329807E+03  0.69842329807E+03  0.00000000000E+00 0. -1.
          6    1    1    2  501    0  0.17420176436E+03  0.16050986626E+03  0.29068434794E+03  0.41254219422E+03  0.17200000000E+03 0.  1.
         -6    1    1    2    0  503 -0.17420176436E+03 -0.16050986626E+03 -0.60388871689E+03  0.67110003297E+03  0.17200000000E+03 0. -1.
</event>
<event>
 4    1  0.6129841E-001  0.1817168E+03  0.7818608E-02  0.1166152E+00
         21   -1    0    0  501  502  0.00000000000E+00  0.00000000000E+00  0.65143393512E+02  0.65143393512E+02  0.00000000000E+00 0. -1.
         21   -1    0    0  502  503 -0.00000000000E+00 -0.00000000000E+00 -0.72651468327E+03  0.72651468327E+03  0.00000000000E+00 0. -1.
          6    1    1    2  501    0 -0.15651087547E+02 -0.56498023609E+02 -0.11305541517E+03  0.21401521000E+03  0.17200000000E+03 0. -1.
         -6    1    1    2    0  503  0.15651087547E+02  0.56498023609E+02 -0.54831587459E+03  0.57764286678E+03  0.17200000000E+03 0. -1.
</event>
<event>
 4    1  0.6129841E-001  0.1920595E+03  0.7818608E-02  0.1156617E+00
         21   -1    0    0  503  502  0.00000000000E+00  0.00000000000E+00  0.69276780105E+03  0.69276780105E+03  0.00000000000E+00 0. -1.
         21   -1    0    0  501  503 -0.00000000000E+00 -0.00000000000E+00 -0.54127459522E+02  0.54127459522E+02  0.00000000000E+00 0. -1.
          6    1    1    2  501    0  0.84596188859E+02 -0.12097165307E+02  0.36698671995E+03  0.41420539494E+03  0.17200000000E+03 0. -1.
         -6    1    1    2    0  502 -0.84596188859E+02  0.12097165307E+02  0.27165362158E+03  0.33268986564E+03  0.17200000000E+03 0. -1.
</event>
<event>
 4    1  0.6129841E-001  0.2197150E+03  0.7818608E-02  0.1134096E+00
         21   -1    0    0  501  502  0.00000000000E+00  0.00000000000E+00  0.10547713935E+03  0.10547713935E+03  0.00000000000E+00 0. -1.
         21   -1    0    0  502  503 -0.00000000000E+00 -0.00000000000E+00 -0.52990404186E+03  0.52990404186E+03  0.00000000000E+00 0. -1.
          6    1    1    2  501    0 -0.13526877080E+03 -0.19825570046E+02 -0.94926685050E+02  0.23934445704E+03  0.17200000000E+03 0. -1.
         -6    1    1    2    0  503  0.13526877080E+03  0.19825570046E+02 -0.32950021746E+03  0.39603672416E+03  0.17200000000E+03 0. -1.
</event>
<event>
 4    1  0.6129841E-001  0.1923059E+03  0.7818608E-02  0.1156398E+00
         21   -1    0    0  501  502  0.00000000000E+00  0.00000000000E+00  0.62858023814E+02  0.62858023814E+02  0.00000000000E+00 0.  1.
         21   -1    0    0  502  503 -0.00000000000E+00 -0.00000000000E+00 -0.60261968159E+03  0.60261968159E+03  0.00000000000E+00 0.  1.
          6    1    1    2  501    0 -0.83371843989E+01 -0.85603986493E+02 -0.21865098692E+03  0.29118689055E+03  0.17200000000E+03 0.  1.
         -6    1    1    2    0  503  0.83371843989E+01  0.85603986493E+02 -0.32111067085E+03  0.37429081485E+03  0.17200000000E+03 0.  1.
</event>
<event>
 4    1  0.6129841E-001  0.1897035E+03  0.7818608E-02  0.1158729E+00
         21   -1    0    0  501  502  0.00000000000E+00  0.00000000000E+00  0.15220674989E+04  0.15220674989E+04  0.00000000000E+00 0. -1.
         21   -1    0    0  502  503 -0.00000000000E+00 -0.00000000000E+00 -0.29615982796E+02  0.29615982796E+02  0.00000000000E+00 0. -1.
          6    1    1    2  501    0  0.70922809840E+02 -0.37058982331E+02  0.10946254170E+04  0.11109420402E+04  0.17200000000E+03 0. -1.
         -6    1    1    2    0  503 -0.70922809840E+02  0.37058982331E+02  0.39782609908E+03  0.44074144148E+03  0.17200000000E+03 0. -1.
</event>
<event>
 4    1  0.6129841E-001  0.1840834E+03  0.7818608E-02  0.1163909E+00
         21   -1    0    0  503  502  0.00000000000E+00  0.00000000000E+00  0.14770942397E+03  0.14770942397E+03  0.00000000000E+00 0. -1.
         21   -1    0    0  501  503 -0.00000000000E+00 -0.00000000000E+00 -0.28290975069E+03  0.28290975069E+03  0.00000000000E+00 0. -1.
          6    1    1    2  501    0  0.25269810489E+02 -0.60532159496E+02 -0.16122615256E+03  0.24470508357E+03  0.17200000000E+03 0.  1.
         -6    1    1    2    0  502 -0.25269810489E+02  0.60532159496E+02  0.26025825832E+02  0.18591409109E+03  0.17200000000E+03 0.  1.
</event>
<event>
 4    1  0.6129841E-001  0.2855457E+03  0.7818608E-02  0.1092698E+00
         21   -1    0    0  501  502  0.00000000000E+00  0.00000000000E+00  0.49689597918E+03  0.49689597918E+03  0.00000000000E+00 0.  1.
         21   -1    0    0  502  503 -0.00000000000E+00 -0.00000000000E+00 -0.16465494711E+03  0.16465494711E+03  0.00000000000E+00 0.  1.
          6    1    1    2  501    0  0.13355973737E+03  0.18470013869E+03  0.18547227594E+03  0.34049421408E+03  0.17200000000E+03 0. -1.
         -6    1    1    2    0  503 -0.13355973737E+03 -0.18470013869E+03  0.14676875613E+03  0.32105671221E+03  0.17200000000E+03 0. -1.
</event>
<event>
 4    1  0.6129841E-001  0.1750882E+03  0.7818608E-02  0.1172643E+00
         21   -1    0    0  503  502  0.00000000000E+00  0.00000000000E+00  0.16375826273E+04  0.16375826273E+04  0.00000000000E+00 0. -1.
         21   -1    0    0  501  503 -0.00000000000E+00 -0.00000000000E+00 -0.20362404092E+02  0.20362404092E+02  0.00000000000E+00 0. -1.
          6    1    1    2  501    0  0.29355042168E+01 -0.32607873653E+02  0.10440271294E+04  0.10586068853E+04  0.17200000000E+03 0. -1.
         -6    1    1    2    0  502 -0.29355042168E+01  0.32607873653E+02  0.57319309375E+03  0.59933814607E+03  0.17200000000E+03 0. -1.
</event>
<event>
 4    1  0.6129841E-001  0.1720421E+03  0.7818608E-02  0.1175735E+00
         21   -1    0    0  501  502  0.00000000000E+00  0.00000000000E+00  0.68393370224E+02  0.68393370224E+02  0.00000000000E+00 0.  1.
         21   -1    0    0  502  503 -0.00000000000E+00 -0.00000000000E+00 -0.44077342070E+03  0.44077342070E+03  0.00000000000E+00 0.  1.
          6    1    1    2  501    0  0.33721753339E+01 -0.17615776669E+01 -0.15188091720E+03  0.22949136744E+03  0.17200000000E+03 0.  1.
         -6    1    1    2    0  503 -0.33721753339E+01  0.17615776669E+01 -0.22049913328E+03  0.27967542348E+03  0.17200000000E+03 0.  1.
</event>
<event>
 4    1  0.6129841E-001  0.2713868E+03  0.7818608E-02  0.1100488E+00
         21   -1    0    0  503  502  0.00000000000E+00  0.00000000000E+00  0.15165226521E+03  0.15165226521E+03  0.00000000000E+00 0. -1.
         21   -1    0    0  501  503 -0.00000000000E+00 -0.00000000000E+00 -0.51800291878E+03  0.51800291878E+03  0.00000000000E+00 0.  1.
          6    1    1    2  501    0  0.20736623368E+03  0.32650637192E+02 -0.26684579400E+03  0.38060149337E+03  0.17200000000E+03 0.  1.
         -6    1    1    2    0  502 -0.20736623368E+03 -0.32650637192E+02 -0.99504859577E+02  0.28905369062E+03  0.17200000000E+03 0. -1.
</event>
<event>
 4    1  0.6129841E-001  0.1930531E+03  0.7818608E-02  0.1155736E+00
         21   -1    0    0  503  502  0.00000000000E+00  0.00000000000E+00  0.93557524886E+02  0.93557524886E+02  0.00000000000E+00 0.  1.
         21   -1    0    0  501  503 -0.00000000000E+00 -0.00000000000E+00 -0.45269270847E+03  0.45269270847E+03  0.00000000000E+00 0. -1.
          6    1    1    2  501    0 -0.37532232097E+02 -0.79226475529E+02 -0.27418992988E+03  0.33533508692E+03  0.17200000000E+03 0.  1.
         -6    1    1    2    0  502  0.37532232097E+02  0.79226475529E+02 -0.84945253709E+02  0.21091514644E+03  0.17200000000E+03 0.  1.
</event>
<event>
 4    1  0.6129841E-001  0.2730777E+03  0.7818608E-02  0.1099531E+00
         21   -1    0    0  503  502  0.00000000000E+00  0.00000000000E+00  0.32478110840E+03  0.32478110840E+03  0.00000000000E+00 0.  1.
         21   -1    0    0  501  503 -0.00000000000E+00 -0.00000000000E+00 -0.23306568954E+03  0.23306568954E+03  0.00000000000E+00 0. -1.
          6    1    1    2  501    0  0.70241997814E+02  0.20013370258E+03  0.11870663069E+02  0.27333559923E+03  0.17200000000E+03 0. -1.
         -6    1    1    2    0  502 -0.70241997814E+02 -0.20013370258E+03  0.79844755797E+02  0.28451119871E+03  0.17200000000E+03 0. -1.
</event>
<event>
 4    1  0.6129841E-001  0.2542470E+03  0.7818608E-02  0.1110650E+00
         21   -1    0    0  501  502  0.00000000000E+00  0.00000000000E+00  0.12130725434E+04  0.12130725434E+04  0.00000000000E+00 0. -1.
         21   -1    0    0  502  503 -0.00000000000E+00 -0.00000000000E+00 -0.10745006091E+03  0.10745006091E+03  0.00000000000E+00 0. -1.
          6    1    1    2  501    0 -0.44861692564E+02 -0.18178279079E+03  0.84038589303E+02  0.26777609860E+03  0.17200000000E+03 0. -1.
         -6    1    1    2    0  503  0.44861692564E+02  0.18178279079E+03  0.10215838932E+04  0.10527465057E+04  0.17200000000E+03 0. -1.
</event>
<event>
 4    1  0.6129841E-001  0.2868115E+03  0.7818608E-02  0.1092026E+00
         21   -1    0    0  501  502  0.00000000000E+00  0.00000000000E+00  0.53515074041E+03  0.53515074041E+03  0.00000000000E+00 0.  1.
         21   -1    0    0  502  503 -0.00000000000E+00 -0.00000000000E+00 -0.15486000428E+03  0.15486000428E+03  0.00000000000E+00 0. -1.
          6    1    1    2  501    0 -0.20722596303E+03 -0.98662160897E+02  0.21980837910E+03  0.36135376748E+03  0.17200000000E+03 0.  1.
         -6    1    1    2    0  503  0.20722596303E+03  0.98662160897E+02  0.16048235703E+03  0.32865697721E+03  0.17200000000E+03 0.  1.
</event>
<event>
 4    1  0.6129841E-001  0.1772256E+03  0.7818608E-02  0.1170515E+00
         21   -1    0    0  501  502  0.00000000000E+00  0.00000000000E+00  0.66037603970E+02  0.66037603970E+02  0.00000000000E+00 0. -1.
         21   -1    0    0  502  503 -0.00000000000E+00 -0.00000000000E+00 -0.53378940873E+03  0.53378940873E+03  0.00000000000E+00 0. -1.
          6    1    1    2  501    0 -0.41826644545E+02  0.86869149171E+01 -0.13487223573E+03  0.22270934120E+03  0.17200000000E+03 0. -1.
         -6    1    1    2    0  503  0.41826644545E+02 -0.86869149171E+01 -0.33287956902E+03  0.37711767150E+03  0.17200000000E+03 0. -1.
</event>
<event>
 4    1  0.6129841E-001  0.2481744E+03  0.7818608E-02  0.1114464E+00
         21   -1    0    0  503  502  0.00000000000E+00  0.00000000000E+00  0.15043263113E+04  0.15043263113E+04  0.00000000000E+00 0. -1.
         21   -1    0    0  501  503 -0.00000000000E+00 -0.00000000000E+00 -0.53193278884E+02  0.53193278884E+02  0.00000000000E+00 0. -1.
          6    1    1    2  501    0  0.52592344637E+02  0.17099882038E+03  0.35183401688E+03  0.43055513784E+03  0.17200000000E+03 0. -1.
         -6    1    1    2    0  502 -0.52592344637E+02 -0.17099882038E+03  0.10992990155E+04  0.11269644523E+04  0.17200000000E+03 0. -1.
</event>
<event>
 4    1  0.6129841E-001  0.1878832E+03  0.7818608E-02  0.1160384E+00
         21   -1    0    0  503  502  0.00000000000E+00  0.00000000000E+00  0.12114290064E+03  0.12114290064E+03  0.00000000000E+00 0.  1.
         21   -1    0    0  501  503 -0.00000000000E+00 -0.00000000000E+00 -0.29975311215E+03  0.29975311215E+03  0.00000000000E+00 0.  1.
          6    1    1    2  501    0 -0.70254634899E+02  0.27935657949E+02 -0.54158300449E+02  0.19553321001E+03  0.17200000000E+03 0. -1.
         -6    1    1    2    0  502  0.70254634899E+02 -0.27935657949E+02 -0.12445191106E+03  0.22536280278E+03  0.17200000000E+03 0. -1.
</event>
<event>
 4    1  0.6129841E-001  0.1920845E+03  0.7818608E-02  0.1156595E+00
         21   -1    0    0  503  502  0.00000000000E+00  0.00000000000E+00  0.17854640681E+03  0.17854640681E+03  0.00000000000E+00 0. -1.
         21   -1    0    0  501  503 -0.00000000000E+00 -0.00000000000E+00 -0.22767954716E+03  0.22767954716E+03  0.00000000000E+00 0. -1.
          6    1    1    2  501    0 -0.85298886727E+02  0.60463417115E+01 -0.86297054078E+02  0.21057929591E+03  0.17200000000E+03 0. -1.
         -6    1    1    2    0  502  0.85298886727E+02 -0.60463417115E+01  0.37163913723E+02  0.19564665806E+03  0.17200000000E+03 0. -1.
</event>
<event>
 4    1  0.6129841E-001  0.2296278E+03  0.7818608E-02  0.1126902E+00
         21   -1    0    0  503  502  0.00000000000E+00  0.00000000000E+00  0.17186465186E+03  0.17186465186E+03  0.00000000000E+00 0. -1.
         21   -1    0    0  501  503 -0.00000000000E+00 -0.00000000000E+00 -0.37643400847E+03  0.37643400847E+03  0.00000000000E+00 0. -1.
          6    1    1    2  501    0  0.13629806238E+03 -0.67585157631E+02 -0.22019130550E+03  0.31814010492E+03  0.17200000000E+03 0. -1.
         -6    1    1    2    0  502 -0.13629806238E+03  0.67585157631E+02  0.15621948888E+02  0.23015855541E+03  0.17200000000E+03 0. -1.
</event>
<event>
 4    1  0.6129841E-001  0.2385892E+03  0.7818608E-02  0.1120736E+00
         21   -1    0    0  503  502  0.00000000000E+00  0.00000000000E+00  0.15280347036E+03  0.15280347036E+03  0.00000000000E+00 0.  1.
         21   -1    0    0  501  503 -0.00000000000E+00 -0.00000000000E+00 -0.45437884267E+03  0.45437884267E+03  0.00000000000E+00 0. -1.
          6    1    1    2  501    0 -0.13270032352E+03  0.98647927354E+02 -0.27963355301E+03  0.36758633463E+03  0.17200000000E+03 0. -1.
         -6    1    1    2    0  502  0.13270032352E+03 -0.98647927354E+02 -0.21941819302E+02  0.23959597841E+03  0.17200000000E+03 0.  1.
</event>
<event>
 4    1  0.6129841E-001  0.2063284E+03  0.7818608E-02  0.1144507E+00
         21   -1    0    0  503  502  0.00000000000E+00  0.00000000000E+00  0.18676164715E+03  0.18676164715E+03  0.00000000000E+00 0.  1.
         21   -1    0    0  501  503 -0.00000000000E+00 -0.00000000000E+00 -0.40558052557E+03  0.40558052557E+03  0.00000000000E+00 0.  1.
          6    1    1    2  501    0  0.40688119726E+02 -0.10645135312E+03  0.86596317922E+02  0.22376401843E+03  0.17200000000E+03 0.  1.
         -6    1    1    2    0  502 -0.40688119726E+02  0.10645135312E+03 -0.30541519634E+03  0.36857815429E+03  0.17200000000E+03 0.  1.
</event>
<event>
 4    1  0.6129841E-001  0.1775763E+03  0.7818608E-02  0.1170170E+00
         21   -1    0    0  503  502  0.00000000000E+00  0.00000000000E+00  0.32874081000E+02  0.32874081000E+02  0.00000000000E+00 0. -1.
         21   -1    0    0  501  503 -0.00000000000E+00 -0.00000000000E+00 -0.10215987984E+04  0.10215987984E+04  0.00000000000E+00 0. -1.
          6    1    1    2  501    0 -0.20299493093E+01  0.44104592193E+02 -0.36407610896E+03  0.40507375731E+03  0.17200000000E+03 0. -1.
         -6    1    1    2    0  502  0.20299493093E+01 -0.44104592193E+02 -0.62464860848E+03  0.64939912213E+03  0.17200000000E+03 0. -1.
</event>
<event>
 4    1  0.6129841E-001  0.2033363E+03  0.7818608E-02  0.1146954E+00
         21   -1    0    0  503  502  0.00000000000E+00  0.00000000000E+00  0.17155217715E+03  0.17155217715E+03  0.00000000000E+00 0.  1.
         21   -1    0    0  501  503 -0.00000000000E+00 -0.00000000000E+00 -0.28419382270E+03  0.28419382270E+03  0.00000000000E+00 0. -1.
          6    1    1    2  501    0  0.33055492148E+02 -0.10329085454E+03 -0.14514879135E+03  0.24982761621E+03  0.17200000000E+03 0. -1.
         -6    1    1    2    0  502 -0.33055492148E+02  0.10329085454E+03  0.32507145795E+02  0.20591838364E+03  0.17200000000E+03 0.  1.
</event>
<event>
 4    1  0.6129841E-001  0.2175255E+03  0.7818608E-02  0.1135741E+00
         21   -1    0    0  501  502  0.00000000000E+00  0.00000000000E+00  0.95549022840E+03  0.95549022840E+03  0.00000000000E+00 0. -1.
         21   -1    0    0  502  503 -0.00000000000E+00 -0.00000000000E+00 -0.50499760008E+02  0.50499760008E+02  0.00000000000E+00 0.  1.
          6    1    1    2  501    0 -0.10755218379E+03  0.78523184585E+02  0.52250098979E+03  0.56597230241E+03  0.17200000000E+03 0.  1.
         -6    1    1    2    0  503  0.10755218379E+03 -0.78523184585E+02  0.38248947860E+03  0.44001768600E+03  0.17200000000E+03 0.  1.
</event>
<event>
 4    1  0.6129841E-001  0.2792444E+03  0.7818608E-02  0.1096102E+00
         21   -1    0    0  501  502  0.00000000000E+00  0.00000000000E+00  0.78301444711E+02  0.78301444711E+02  0.00000000000E+00 0.  1.
         21   -1    0    0  502  503 -0.00000000000E+00 -0.00000000000E+00 -0.18363653853E+04  0.18363653853E+04  0.00000000000E+00 0. -1.
          6    1    1    2  501    0 -0.36801779429E+02  0.21688493297E+03 -0.23136259291E+03  0.36263769043E+03  0.17200000000E+03 0.  1.
         -6    1    1    2    0  503  0.36801779429E+02 -0.21688493297E+03 -0.15267013476E+04  0.15520291396E+04  0.17200000000E+03 0. -1.
</event>
<event>
 4    1  0.6129841E-001  0.2250556E+03  0.7818608E-02  0.1130169E+00
         21   -1    0    0  501  502  0.00000000000E+00  0.00000000000E+00  0.10961867106E+03  0.10961867106E+03  0.00000000000E+00 0. -1.
         21   -1    0    0  502  503 -0.00000000000E+00 -0.00000000000E+00 -0.78947326595E+03  0.78947326595E+03  0.00000000000E+00 0.  1.
          6    1    1    2  501    0 -0.14157017126E+03  0.31998457884E+02 -0.62943217126E+03  0.66845708382E+03  0.17200000000E+03 0.  1.
         -6    1    1    2    0  503  0.14157017126E+03 -0.31998457884E+02 -0.50422423628E+02  0.23063485318E+03  0.17200000000E+03 0. -1.
</event>
<event>
 4    1  0.6129841E-001  0.2185744E+03  0.7818608E-02  0.1134950E+00
         21   -1    0    0  503  502  0.00000000000E+00  0.00000000000E+00  0.62182410747E+03  0.62182410747E+03  0.00000000000E+00 0.  1.
         21   -1    0    0  501  503 -0.00000000000E+00 -0.00000000000E+00 -0.17672366083E+03  0.17672366083E+03  0.00000000000E+00 0. -1.
          6    1    1    2  501    0 -0.31834072022E+02  0.13106247959E+03 -0.77637132470E+02  0.23195324105E+03  0.17200000000E+03 0. -1.
         -6    1    1    2    0  502  0.31834072022E+02 -0.13106247959E+03  0.52273757911E+03  0.56659452725E+03  0.17200000000E+03 0.  1.
</event>
<event>
 4    1  0.6129841E-001  0.1990778E+03  0.7818608E-02  0.1150519E+00
         21   -1    0    0  503  502  0.00000000000E+00  0.00000000000E+00  0.11420118809E+04  0.11420118809E+04  0.00000000000E+00 0. -1.
         21   -1    0    0  501  503 -0.00000000000E+00 -0.00000000000E+00 -0.94058247238E+02  0.94058247238E+02  0.00000000000E+00 0.  1.
          6    1    1    2  501    0 -0.98278646728E+02  0.19730390992E+02  0.33021626814E+02  0.20179793995E+03  0.17200000000E+03 0.  1.
         -6    1    1    2    0  502  0.98278646728E+02 -0.19730390992E+02  0.10149320069E+04  0.10342721882E+04  0.17200000000E+03 0. -1.
</event>
<event>
 4    1  0.6129841E-001  0.1790220E+03  0.7818608E-02  0.1168753E+00
         21   -1    0    0  501  502  0.00000000000E+00  0.00000000000E+00  0.14759354223E+04  0.14759354223E+04  0.00000000000E+00 0.  1.
         21   -1    0    0  502  503 -0.00000000000E+00 -0.00000000000E+00 -0.21768847671E+02  0.21768847671E+02  0.00000000000E+00 0.  1.
          6    1    1    2  501    0 -0.38462321920E+02 -0.31392933419E+02  0.76457791966E+03  0.78525681258E+03  0.17200000000E+03 0. -1.
         -6    1    1    2    0  503  0.38462321920E+02  0.31392933419E+02  0.68958865496E+03  0.71244745738E+03  0.17200000000E+03 0. -1.
</event>
<event>
 4    1  0.6129841E-001  0.1968965E+03  0.7818608E-02  0.1152384E+00
         21   -1    0    0  501  502  0.00000000000E+00  0.00000000000E+00  0.13850333382E+03  0.13850333382E+03  0.00000000000E+00 0. -1.
         21   -1    0    0  502  503 -0.00000000000E+00 -0.00000000000E+00 -0.31672796748E+03  0.31672796748E+03  0.00000000000E+00 0. -1.
          6    1    1    2  501    0  0.51759258046E+02 -0.80654885842E+02 -0.16671896029E+03  0.25799892078E+03  0.17200000000E+03 0. -1.
         -6    1    1    2    0  503 -0.51759258046E+02  0.80654885842E+02 -0.11505673375E+02  0.19723238051E+03  0.17200000000E+03 0. -1.
</event>
<event>
 4    1  0.6129841E-001  0.1940101E+03  0.7818608E-02  0.1154893E+00
         21   -1    0    0  501  502  0.00000000000E+00  0.00000000000E+00  0.55264052942E+03  0.55264052942E+03  0.00000000000E+00 0. -1.
         21   -1    0    0  502  503 -0.00000000000E+00 -0.00000000000E+00 -0.88658071694E+02  0.88658071694E+02  0.00000000000E+00 0. -1.
          6    1    1    2  501    0 -0.89754831155E+02 -0.65944722693E-01  0.38636182393E+03  0.43233712894E+03  0.17200000000E+03 0. -1.
         -6    1    1    2    0  503  0.89754831155E+02  0.65944722693E-01  0.77620633794E+02  0.20896147218E+03  0.17200000000E+03 0. -1.
</event>
<event>
 4    1  0.6129841E-001  0.2568762E+03  0.7818608E-02  0.1109035E+00
         21   -1    0    0  501  502  0.00000000000E+00  0.00000000000E+00  0.27741710586E+03  0.27741710586E+03  0.00000000000E+00 0.  1.
         21   -1    0    0  502  503 -0.00000000000E+00 -0.00000000000E+00 -0.24315487603E+03  0.24315487603E+03  0.00000000000E+00 0. -1.
          6    1    1    2  501    0  0.16189462216E+03  0.10095296560E+03  0.55554379968E+02  0.26281487606E+03  0.17200000000E+03 0.  1.
         -6    1    1    2    0  503 -0.16189462216E+03 -0.10095296560E+03 -0.21292150145E+02  0.25775710583E+03  0.17200000000E+03 0.  1.
</event>
<event>
 4    1  0.6129841E-001  0.1996563E+03  0.7818608E-02  0.1150029E+00
         21   -1    0    0  503  502  0.00000000000E+00  0.00000000000E+00  0.16665684072E+03  0.16665684072E+03  0.00000000000E+00 0.  1.
         21   -1    0    0  501  503 -0.00000000000E+00 -0.00000000000E+00 -0.42043042707E+03  0.42043042707E+03  0.00000000000E+00 0.  1.
          6    1    1    2  501    0 -0.21891705029E+02  0.98991839092E+02 -0.31961854556E+03  0.37685361299E+03  0.17200000000E+03 0.  1.
         -6    1    1    2    0  502  0.21891705029E+02 -0.98991839092E+02  0.65844959206E+02  0.21023365480E+03  0.17200000000E+03 0.  1.
</event>
<event>
 4    1  0.6129841E-001  0.1816818E+03  0.7818608E-02  0.1166185E+00
         21   -1    0    0  503  502  0.00000000000E+00  0.00000000000E+00  0.44858188882E+02  0.44858188882E+02  0.00000000000E+00 0.  1.
         21   -1    0    0  501  503 -0.00000000000E+00 -0.00000000000E+00 -0.83148676227E+03  0.83148676227E+03  0.00000000000E+00 0.  1.
          6    1    1    2  501    0  0.69141148573E+00 -0.58513306126E+02 -0.54192868716E+03  0.57157238125E+03  0.17200000000E+03 0.  1.
         -6    1    1    2    0  502 -0.69141148573E+00  0.58513306126E+02 -0.24469988623E+03  0.30477256991E+03  0.17200000000E+03 0.  1.
</event>
<event>
 4    1  0.6129841E-001  0.2022222E+03  0.7818608E-02  0.1147878E+00
         21   -1    0    0  503  502  0.00000000000E+00  0.00000000000E+00  0.74421502313E+03  0.74421502313E+03  0.00000000000E+00 0.  1.
         21   -1    0    0  501  503 -0.00000000000E+00 -0.00000000000E+00 -0.87817947779E+02  0.87817947779E+02  0.00000000000E+00 0.  1.
          6    1    1    2  501    0  0.65844024930E+02  0.83512863040E+02  0.73684271044E+02  0.21522826420E+03  0.17200000000E+03 0. -1.
         -6    1    1    2    0  502 -0.65844024930E+02 -0.83512863040E+02  0.58271280431E+03  0.61680470671E+03  0.17200000000E+03 0. -1.
</event>
<event>
 4    1  0.6129841E-001  0.2234159E+03  0.7818608E-02  0.1131362E+00
         21   -1    0    0  503  502  0.00000000000E+00  0.00000000000E+00  0.51376699848E+03  0.51376699848E+03  0.00000000000E+00 0.  1.
         21   -1    0    0  501  503 -0.00000000000E+00 -0.00000000000E+00 -0.16210267898E+03  0.16210267898E+03  0.00000000000E+00 0. -1.
          6    1    1    2  501    0  0.68827514032E+02 -0.12487372142E+03 -0.38073378704E+02  0.22663683539E+03  0.17200000000E+03 0. -1.
         -6    1    1    2    0  502 -0.68827514032E+02  0.12487372142E+03  0.38973769821E+03  0.44923284207E+03  0.17200000000E+03 0.  1.
</event>
<event>
 4    1  0.6129841E-001  0.1768664E+03  0.7818608E-02  0.1170871E+00
         21   -1    0    0  501  502  0.00000000000E+00  0.00000000000E+00  0.15351383178E+03  0.15351383178E+03  0.00000000000E+00 0. -1.
         21   -1    0    0  502  503 -0.00000000000E+00 -0.00000000000E+00 -0.24891050707E+03  0.24891050707E+03  0.00000000000E+00 0. -1.
          6    1    1    2  501    0 -0.10882753366E+02 -0.39740114421E+02  0.37987620246E+02  0.18089989029E+03  0.17200000000E+03 0. -1.
         -6    1    1    2    0  503  0.10882753366E+02  0.39740114421E+02 -0.13338429553E+03  0.22152444856E+03  0.17200000000E+03 0. -1.
</event>
<event>
 4    1  0.6129841E-001  0.2461159E+03  0.7818608E-02  0.1115784E+00
         21   -1    0    0  501  502  0.00000000000E+00  0.00000000000E+00  0.85379959381E+03  0.85379959381E+03  0.00000000000E+00 0. -1.
         21   -1    0    0  502  503 -0.00000000000E+00 -0.00000000000E+00 -0.88527466592E+02  0.88527466592E+02  0.00000000000E+00 0.  1.
          6    1    1    2  501    0 -0.15086093460E+03  0.90719459282E+02  0.59261185504E+03  0.64168672467E+03  0.17200000000E+03 0. -1.
         -6    1    1    2    0  503  0.15086093460E+03 -0.90719459282E+02  0.17266027218E+03  0.30064033573E+03  0.17200000000E+03 0. -1.
</event>
<event>
 4    1  0.6129841E-001  0.2347049E+03  0.7818608E-02  0.1123371E+00
         21   -1    0    0  503  502  0.00000000000E+00  0.00000000000E+00  0.26978415457E+03  0.26978415457E+03  0.00000000000E+00 0. -1.
         21   -1    0    0  501  503 -0.00000000000E+00 -0.00000000000E+00 -0.26778841918E+03  0.26778841918E+03  0.00000000000E+00 0.  1.
          6    1    1    2  501    0  0.10116851420E+03  0.12356092025E+03 -0.12999426753E+03  0.26829997925E+03  0.17200000000E+03 0.  1.
         -6    1    1    2    0  502 -0.10116851420E+03 -0.12356092025E+03  0.13199000292E+03  0.26927259450E+03  0.17200000000E+03 0. -1.
</event>
<event>
 4    1  0.6129841E-001  0.1871704E+03  0.7818608E-02  0.1161038E+00
         21   -1    0    0  501  502  0.00000000000E+00  0.00000000000E+00  0.70982036096E+02  0.70982036096E+02  0.00000000000E+00 0. -1.
         21   -1    0    0  502  503 -0.00000000000E+00 -0.00000000000E+00 -0.53665044421E+03  0.53665044421E+03  0.00000000000E+00 0.  1.
          6    1    1    2  501    0 -0.68822732857E+02 -0.26686807380E+02 -0.14672757129E+03  0.23782711036E+03  0.17200000000E+03 0. -1.
         -6    1    1    2    0  503  0.68822732857E+02  0.26686807380E+02 -0.31894083682E+03  0.36980536994E+03  0.17200000000E+03 0.  1.
</event>
<event>
 4    1  0.6129841E-001  0.2004423E+03  0.7818608E-02  0.1149366E+00
         21   -1    0    0  501  502  0.00000000000E+00  0.00000000000E+00  0.49920101606E+02  0.49920101606E+02  0.00000000000E+00 0. -1.
         21   -1    0    0  502  503 -0.00000000000E+00 -0.00000000000E+00 -0.16305641842E+04  0.16305641842E+04  0.00000000000E+00 0. -1.
          6    1    1    2  501    0  0.43696703721E+02 -0.93186394230E+02 -0.19238409743E+03  0.27782862871E+03  0.17200000000E+03 0. -1.
         -6    1    1    2    0  503 -0.43696703721E+02  0.93186394230E+02 -0.13882599852E+04  0.14026556571E+04  0.17200000000E+03 0. -1.
</event>
<event>
 4    1  0.6129841E-001  0.2131493E+03  0.7818608E-02  0.1139096E+00
         21   -1    0    0  501  502  0.00000000000E+00  0.00000000000E+00  0.37537700734E+03  0.37537700734E+03  0.00000000000E+00 0. -1.
         21   -1    0    0  502  503 -0.00000000000E+00 -0.00000000000E+00 -0.14643896443E+03  0.14643896443E+03  0.00000000000E+00 0. -1.
          6    1    1    2  501    0  0.92073246621E+02  0.85855387949E+02  0.22314546752E+03  0.30858796162E+03  0.17200000000E+03 0. -1.
         -6    1    1    2    0  503 -0.92073246621E+02 -0.85855387949E+02  0.57925753857E+01  0.21322801015E+03  0.17200000000E+03 0. -1.
</event>
<event>
 4    1  0.6129841E-001  0.2087726E+03  0.7818608E-02  0.1142542E+00
         21   -1    0    0  503  502  0.00000000000E+00  0.00000000000E+00  0.16996662296E+03  0.16996662296E+03  0.00000000000E+00 0. -1.
         21   -1    0    0  501  503 -0.00000000000E+00 -0.00000000000E+00 -0.30309188232E+03  0.30309188232E+03  0.00000000000E+00 0. -1.
          6    1    1    2  501    0 -0.21592552421E+02 -0.11634324324E+03 -0.15936075439E+03  0.26264393884E+03  0.17200000000E+03 0. -1.
         -6    1    1    2    0  502  0.21592552421E+02  0.11634324324E+03  0.26235495038E+02  0.21041456644E+03  0.17200000000E+03 0. -1.
</event>
<event>
 4    1  0.6129841E-001  0.2025000E+03  0.7818608E-02  0.1147647E+00
         21   -1    0    0  501  502  0.00000000000E+00  0.00000000000E+00  0.19223414564E+04  0.19223414564E+04  0.00000000000E+00 0.  1.
         21   -1    0    0  502  503 -0.00000000000E+00 -0.00000000000E+00 -0.28556250750E+02  0.28556250750E+02  0.00000000000E+00 0.  1.
          6    1    1    2  501    0 -0.30846256189E+02  0.10232662738E+03  0.14375387776E+04  0.14517313688E+04  0.17200000000E+03 0.  1.
         -6    1    1    2    0  503  0.30846256189E+02 -0.10232662738E+03  0.45624642812E+03  0.49916633838E+03  0.17200000000E+03 0.  1.
</event>
<event>
 4    1  0.6129841E-001  0.3805647E+03  0.7818608E-02  0.1050725E+00
         21   -1    0    0  501  502  0.00000000000E+00  0.00000000000E+00  0.68449474626E+03  0.68449474626E+03  0.00000000000E+00 0.  1.
         21   -1    0    0  502  503 -0.00000000000E+00 -0.00000000000E+00 -0.21382178837E+03  0.21382178837E+03  0.00000000000E+00 0. -1.
          6    1    1    2  501    0  0.33727172555E+03 -0.38643335337E+02  0.28126538402E+03  0.47322271762E+03  0.17200000000E+03 0.  1.
         -6    1    1    2    0  503 -0.33727172555E+03  0.38643335337E+02  0.18940757387E+03  0.42509381701E+03  0.17200000000E+03 0.  1.
</event>
<event>
 4    1  0.6129841E-001  0.1888468E+03  0.7818608E-02  0.1159506E+00
         21   -1    0    0  501  502  0.00000000000E+00  0.00000000000E+00  0.78450310963E+03  0.78450310963E+03  0.00000000000E+00 0. -1.
         21   -1    0    0  502  503 -0.00000000000E+00 -0.00000000000E+00 -0.46570673083E+02  0.46570673083E+02  0.00000000000E+00 0. -1.
          6    1    1    2  501    0  0.76837625096E+02 -0.13232726915E+02  0.30477988803E+03  0.35854414768E+03  0.17200000000E+03 0. -1.
         -6    1    1    2    0  503 -0.76837625096E+02  0.13232726915E+02  0.43315254852E+03  0.47252963503E+03  0.17200000000E+03 0. -1.
</event>
<event>
 4    1  0.6129841E-001  0.3277642E+03  0.7818608E-02  0.1072130E+00
         21   -1    0    0  501  502  0.00000000000E+00  0.00000000000E+00  0.77591440689E+03  0.77591440689E+03  0.00000000000E+00 0.  1.
         21   -1    0    0  502  503 -0.00000000000E+00 -0.00000000000E+00 -0.13887821525E+03  0.13887821525E+03  0.00000000000E+00 0. -1.
          6    1    1    2  501    0 -0.50668042549E+02 -0.27436856892E+03  0.29327350588E+03  0.43981667931E+03  0.17200000000E+03 0.  1.
         -6    1    1    2    0  503  0.50668042549E+02  0.27436856892E+03  0.34376268576E+03  0.47497594283E+03  0.17200000000E+03 0.  1.
</event>
<event>
 4    1  0.6129841E-001  0.1783751E+03  0.7818608E-02  0.1169385E+00
         21   -1    0    0  503  502  0.00000000000E+00  0.00000000000E+00  0.90244668867E+02  0.90244668867E+02  0.00000000000E+00 0.  1.
         21   -1    0    0  501  503 -0.00000000000E+00 -0.00000000000E+00 -0.39257203079E+03  0.39257203079E+03  0.00000000000E+00 0.  1.
          6    1    1    2  501    0  0.15453324211E+01 -0.47236419042E+02 -0.22822338700E+03  0.28966114981E+03  0.17200000000E+03 0.  1.
         -6    1    1    2    0  502 -0.15453324211E+01  0.47236419042E+02 -0.74103974919E+02  0.19315554984E+03  0.17200000000E+03 0.  1.
</event>
<event>
 4    1  0.6129841E-001  0.1888573E+03  0.7818608E-02  0.1159496E+00
         21   -1    0    0  501  502  0.00000000000E+00  0.00000000000E+00  0.34352825988E+03  0.34352825988E+03  0.00000000000E+00 0. -1.
         21   -1    0    0  502  503 -0.00000000000E+00 -0.00000000000E+00 -0.10442083218E+03  0.10442083218E+03  0.00000000000E+00 0.  1.
          6    1    1    2  501    0 -0.34634280397E+01  0.77917248516E+02  0.10264622978E+03  0.21494962535E+03  0.17200000000E+03 0.  1.
         -6    1    1    2    0  503  0.34634280397E+01 -0.77917248516E+02  0.13646119793E+03  0.23299946672E+03  0.17200000000E+03 0. -1.
</event>
<event>
 4    1  0.6129841E-001  0.1783820E+03  0.7818608E-02  0.1169378E+00
         21   -1    0    0  503  502  0.00000000000E+00  0.00000000000E+00  0.64516200168E+03  0.64516200168E+03  0.00000000000E+00 0.  1.
         21   -1    0    0  501  503 -0.00000000000E+00 -0.00000000000E+00 -0.11608083459E+03  0.11608083459E+03  0.00000000000E+00 0.  1.
          6    1    1    2  501    0 -0.46085076422E+02 -0.10597544579E+02 -0.24108410256E+02  0.18000377125E+03  0.17200000000E+03 0.  1.
         -6    1    1    2    0  502  0.46085076422E+02  0.10597544579E+02  0.55318957734E+03  0.58123906502E+03  0.17200000000E+03 0.  1.
</event>
<event>
 4    1  0.6129841E-001  0.1746070E+03  0.7818608E-02  0.1173127E+00
         21   -1    0    0  501  502  0.00000000000E+00  0.00000000000E+00  0.23115575255E+03  0.23115575255E+03  0.00000000000E+00 0.  1.
         21   -1    0    0  502  503 -0.00000000000E+00 -0.00000000000E+00 -0.13248437099E+03  0.13248437099E+03  0.00000000000E+00 0.  1.
          6    1    1    2  501    0 -0.29204259039E+02 -0.71204740031E+01  0.61493734312E+02  0.18511906778E+03  0.17200000000E+03 0.  1.
         -6    1    1    2    0  503  0.29204259039E+02  0.71204740031E+01  0.37177647251E+02  0.17852105576E+03  0.17200000000E+03 0.  1.
</event>
<event>
 4    1  0.6129841E-001  0.1815253E+03  0.7818608E-02  0.1166335E+00
         21   -1    0    0  503  502  0.00000000000E+00  0.00000000000E+00  0.41392748452E+03  0.41392748452E+03  0.00000000000E+00 0. -1.
         21   -1    0    0  501  503 -0.00000000000E+00 -0.00000000000E+00 -0.34068849737E+03  0.34068849737E+03  0.00000000000E+00 0. -1.
          6    1    1    2  501    0  0.53403611781E+02 -0.22704582987E+02 -0.29367815261E+03  0.34525106974E+03  0.17200000000E+03 0. -1.
         -6    1    1    2    0  502 -0.53403611781E+02  0.22704582987E+02  0.36691713976E+03  0.40936491214E+03  0.17200000000E+03 0. -1.
</event>
<event>
 4    1  0.6129841E-001  0.4631372E+03  0.7818608E-02  0.1023875E+00
         21   -1    0    0  501  502  0.00000000000E+00  0.00000000000E+00  0.65683180985E+03  0.65683180985E+03  0.00000000000E+00 0. -1.
         21   -1    0    0  502  503 -0.00000000000E+00 -0.00000000000E+00 -0.40666866497E+03  0.40666866497E+03  0.00000000000E+00 0.  1.
          6    1    1    2  501    0  0.13833809828E+03  0.40715434979E+03  0.36108730524E+03  0.58726496234E+03  0.17200000000E+03 0.  1.
         -6    1    1    2    0  503 -0.13833809828E+03 -0.40715434979E+03 -0.11092416035E+03  0.47623551247E+03  0.17200000000E+03 0.  1.
</event>
<event>
 4    1  0.6129841E-001  0.1746334E+03  0.7818608E-02  0.1173100E+00
         21   -1    0    0  501  502  0.00000000000E+00  0.00000000000E+00  0.12350222389E+04  0.12350222389E+04  0.00000000000E+00 0. -1.
         21   -1    0    0  502  503 -0.00000000000E+00 -0.00000000000E+00 -0.27646342363E+02  0.27646342363E+02  0.00000000000E+00 0. -1.
          6    1    1    2  501    0 -0.29929277435E+02 -0.41313167516E+01  0.81002257418E+03  0.82863345341E+03  0.17200000000E+03 0. -1.
         -6    1    1    2    0  503  0.29929277435E+02  0.41313167516E+01  0.39735332238E+03  0.43403512788E+03  0.17200000000E+03 0. -1.
</event>
<event>
 4    1  0.6129841E-001  0.3054756E+03  0.7818608E-02  0.1082535E+00
         21   -1    0    0  501  502  0.00000000000E+00  0.00000000000E+00  0.26599460530E+03  0.26599460530E+03  0.00000000000E+00 0.  1.
         21   -1    0    0  502  503 -0.00000000000E+00 -0.00000000000E+00 -0.36919049163E+03  0.36919049163E+03  0.00000000000E+00 0. -1.
          6    1    1    2  501    0 -0.87994111430E+01  0.25229721357E+03  0.19253066774E+02  0.30608167895E+03  0.17200000000E+03 0. -1.
         -6    1    1    2    0  503  0.87994111430E+01 -0.25229721357E+03 -0.12244895311E+03  0.32910341798E+03  0.17200000000E+03 0. -1.
</event>
<event>
 4    1  0.6129841E-001  0.2553961E+03  0.7818608E-02  0.1109941E+00
         21   -1    0    0  503  502  0.00000000000E+00  0.00000000000E+00  0.32297819499E+03  0.32297819499E+03  0.00000000000E+00 0. -1.
         21   -1    0    0  501  503 -0.00000000000E+00 -0.00000000000E+00 -0.20973226185E+03  0.20973226185E+03  0.00000000000E+00 0.  1.
          6    1    1    2  501    0  0.18824524778E+03  0.14383422895E+02  0.10791309324E+03  0.27725870925E+03  0.17200000000E+03 0. -1.
         -6    1    1    2    0  502 -0.18824524778E+03 -0.14383422895E+02  0.53328398906E+01  0.25545174759E+03  0.17200000000E+03 0.  1.
</event>
<event>
 4    1  0.6129841E-001  0.1831750E+03  0.7818608E-02  0.1164765E+00
         21   -1    0    0  503  502  0.00000000000E+00  0.00000000000E+00  0.86614551465E+03  0.86614551465E+03  0.00000000000E+00 0. -1.
         21   -1    0    0  501  503 -0.00000000000E+00 -0.00000000000E+00 -0.11556150102E+03  0.11556150102E+03  0.00000000000E+00 0. -1.
          6    1    1    2  501    0  0.55496151696E+02 -0.29820693802E+02 -0.24921011727E+02  0.18486252583E+03  0.17200000000E+03 0. -1.
         -6    1    1    2    0  502 -0.55496151696E+02  0.29820693802E+02  0.77550502536E+03  0.79684448984E+03  0.17200000000E+03 0. -1.
</event>
<event>
 4    1  0.6129841E-001  0.2600024E+03  0.7818608E-02  0.1107142E+00
         21   -1    0    0  503  502  0.00000000000E+00  0.00000000000E+00  0.15019705215E+04  0.15019705215E+04  0.00000000000E+00 0.  1.
         21   -1    0    0  501  503 -0.00000000000E+00 -0.00000000000E+00 -0.62132641730E+02  0.62132641730E+02  0.00000000000E+00 0.  1.
          6    1    1    2  501    0  0.18853795942E+03 -0.49706128415E+02  0.30935442920E+03  0.40410570920E+03  0.17200000000E+03 0.  1.
         -6    1    1    2    0  502 -0.18853795942E+03  0.49706128415E+02  0.11304834506E+04  0.11599974541E+04  0.17200000000E+03 0.  1.
</event>
<event>
 4    1  0.6129841E-001  0.1949548E+03  0.7818608E-02  0.1154067E+00
         21   -1    0    0  503  502  0.00000000000E+00  0.00000000000E+00  0.16881082709E+04  0.16881082709E+04  0.00000000000E+00 0.  1.
         21   -1    0    0  501  503 -0.00000000000E+00 -0.00000000000E+00 -0.23223046444E+02  0.23223046444E+02  0.00000000000E+00 0.  1.
          6    1    1    2  501    0  0.73710272733E+02  0.54682330356E+02  0.98187589594E+03  0.10010432741E+04  0.17200000000E+03 0. -1.
         -6    1    1    2    0  502 -0.73710272733E+02 -0.54682330356E+02  0.68300932853E+03  0.71028804327E+03  0.17200000000E+03 0. -1.
</event>
<event>
 4    1  0.6129841E-001  0.3734809E+03  0.7818608E-02  0.1053370E+00
         21   -1    0    0  501  502  0.00000000000E+00  0.00000000000E+00  0.79803199847E+03  0.79803199847E+03  0.00000000000E+00 0. -1.
         21   -1    0    0  502  503 -0.00000000000E+00 -0.00000000000E+00 -0.20338842799E+03  0.20338842799E+03  0.00000000000E+00 0. -1.
          6    1    1    2  501    0 -0.33141049937E+03  0.84283616106E+01  0.48507827177E+03  0.61220003766E+03  0.17200000000E+03 0. -1.
         -6    1    1    2    0  503  0.33141049937E+03 -0.84283616106E+01  0.10956529871E+03  0.38922038880E+03  0.17200000000E+03 0. -1.
</event>
<event>
 4    1  0.6129841E-001  0.1942836E+03  0.7818608E-02  0.1154654E+00
         21   -1    0    0  501  502  0.00000000000E+00  0.00000000000E+00  0.11515373872E+03  0.11515373872E+03  0.00000000000E+00 0. -1.
         21   -1    0    0  502  503 -0.00000000000E+00 -0.00000000000E+00 -0.51001391789E+03  0.51001391789E+03  0.00000000000E+00 0. -1.
          6    1    1    2  501    0 -0.68907068036E+02  0.58428824847E+02 -0.10585919232E+02  0.19457176898E+03  0.17200000000E+03 0. -1.
         -6    1    1    2    0  503  0.68907068036E+02 -0.58428824847E+02 -0.38427425994E+03  0.43059588764E+03  0.17200000000E+03 0. -1.
</event>
<event>
 4    1  0.6129841E-001  0.3301780E+03  0.7818608E-02  0.1071058E+00
         21   -1    0    0  501  502  0.00000000000E+00  0.00000000000E+00  0.18367187885E+04  0.18367187885E+04  0.00000000000E+00 0.  1.
         21   -1    0    0  502  503 -0.00000000000E+00 -0.00000000000E+00 -0.14413498012E+03  0.14413498012E+03  0.00000000000E+00 0. -1.
          6    1    1    2  501    0  0.98731161129E+02 -0.26398037948E+03  0.16058932388E+04  0.16394848512E+04  0.17200000000E+03 0.  1.
         -6    1    1    2    0  503 -0.98731161129E+02  0.26398037948E+03  0.86690569615E+02  0.34136891744E+03  0.17200000000E+03 0. -1.
</event>
<event>
 4    1  0.6129841E-001  0.1750132E+03  0.7818608E-02  0.1172718E+00
         21   -1    0    0  501  502  0.00000000000E+00  0.00000000000E+00  0.51533165927E+02  0.51533165927E+02  0.00000000000E+00 0.  1.
         21   -1    0    0  502  503 -0.00000000000E+00 -0.00000000000E+00 -0.10264863413E+04  0.10264863413E+04  0.00000000000E+00 0. -1.
          6    1    1    2  501    0 -0.55029291064E+01  0.31864274576E+02 -0.13775545237E+03  0.22272444608E+03  0.17200000000E+03 0.  1.
         -6    1    1    2    0  503  0.55029291064E+01 -0.31864274576E+02 -0.83719772299E+03  0.85529506113E+03  0.17200000000E+03 0. -1.
</event>
<event>
 4    1  0.6129841E-001  0.3426336E+03  0.7818608E-02  0.1065680E+00
         21   -1    0    0  501  502  0.00000000000E+00  0.00000000000E+00  0.54854931393E+03  0.54854931393E+03  0.00000000000E+00 0. -1.
         21   -1    0    0  502  503 -0.00000000000E+00 -0.00000000000E+00 -0.25382725243E+03  0.25382725243E+03  0.00000000000E+00 0.  1.
          6    1    1    2  501    0  0.12728460182E+03 -0.26760489693E+03  0.30624782264E+03  0.45954921347E+03  0.17200000000E+03 0.  1.
         -6    1    1    2    0  503 -0.12728460182E+03  0.26760489693E+03 -0.11525761140E+02  0.34282735290E+03  0.17200000000E+03 0.  1.
</event>
<event>
 4    1  0.6129841E-001  0.1777898E+03  0.7818608E-02  0.1169959E+00
         21   -1    0    0  501  502  0.00000000000E+00  0.00000000000E+00  0.49357344227E+03  0.49357344227E+03  0.00000000000E+00 0. -1.
         21   -1    0    0  502  503 -0.00000000000E+00 -0.00000000000E+00 -0.66339974507E+02  0.66339974507E+02  0.00000000000E+00 0. -1.
          6    1    1    2  501    0 -0.35315917978E+02 -0.27892534103E+02  0.26572642464E+03  0.31971822012E+03  0.17200000000E+03 0.  1.
         -6    1    1    2    0  503  0.35315917978E+02  0.27892534103E+02  0.16150704312E+03  0.24019519666E+03  0.17200000000E+03 0.  1.
</event>
<event>
 4    1  0.6129841E-001  0.2155550E+03  0.7818608E-02  0.1137241E+00
         21   -1    0    0  503  502  0.00000000000E+00  0.00000000000E+00  0.74229065463E+03  0.74229065463E+03  0.00000000000E+00 0.  1.
         21   -1    0    0  501  503 -0.00000000000E+00 -0.00000000000E+00 -0.12608815767E+03  0.12608815767E+03  0.00000000000E+00 0. -1.
          6    1    1    2  501    0  0.98739720643E+02  0.84441738258E+02 -0.77317451481E-02  0.21555495738E+03  0.17200000000E+03 0.  1.
         -6    1    1    2    0  502 -0.98739720643E+02 -0.84441738258E+02  0.61621022870E+03  0.65282385491E+03  0.17200000000E+03 0.  1.
</event>
<event>
 4    1  0.6129841E-001  0.2303173E+03  0.7818608E-02  0.1126417E+00
         21   -1    0    0  503  502  0.00000000000E+00  0.00000000000E+00  0.48309194494E+03  0.48309194494E+03  0.00000000000E+00 0.  1.
         21   -1    0    0  501  503 -0.00000000000E+00 -0.00000000000E+00 -0.22457012768E+03  0.22457012768E+03  0.00000000000E+00 0. -1.
          6    1    1    2  501    0  0.45192639848E+02  0.14635466743E+03 -0.12368304751E+03  0.26142601174E+03  0.17200000000E+03 0. -1.
         -6    1    1    2    0  502 -0.45192639848E+02 -0.14635466743E+03  0.38220486477E+03  0.44623606088E+03  0.17200000000E+03 0.  1.
</event>
<event>
 4    1  0.6129841E-001  0.2452459E+03  0.7818608E-02  0.1116347E+00
         21   -1    0    0  503  502  0.00000000000E+00  0.00000000000E+00  0.39192410989E+03  0.39192410989E+03  0.00000000000E+00 0. -1.
         21   -1    0    0  501  503 -0.00000000000E+00 -0.00000000000E+00 -0.17472773851E+03  0.17472773851E+03  0.00000000000E+00 0.  1.
          6    1    1    2  501    0 -0.84625904391E+02  0.15297061496E+03  0.20744055478E+03  0.32121198063E+03  0.17200000000E+03 0. -1.
         -6    1    1    2    0  502  0.84625904391E+02 -0.15297061496E+03  0.97558166088E+01  0.24543986777E+03  0.17200000000E+03 0.  1.
</event>
<event>
 4    1  0.6129841E-001  0.2080925E+03  0.7818608E-02  0.1143085E+00
         21   -1    0    0  503  502  0.00000000000E+00  0.00000000000E+00  0.14348014665E+03  0.14348014665E+03  0.00000000000E+00 0. -1.
         21   -1    0    0  501  503 -0.00000000000E+00 -0.00000000000E+00 -0.37096080841E+03  0.37096080841E+03  0.00000000000E+00 0. -1.
          6    1    1    2  501    0 -0.85344201127E+02 -0.80217676227E+02 -0.22480276301E+03  0.30633117781E+03  0.17200000000E+03 0. -1.
         -6    1    1    2    0  502  0.85344201127E+02  0.80217676227E+02 -0.26778987518E+01  0.20810977725E+03  0.17200000000E+03 0. -1.
</event>
<event>
 4    1  0.6129841E-001  0.2622440E+03  0.7818608E-02  0.1105802E+00
         21   -1    0    0  501  502  0.00000000000E+00  0.00000000000E+00  0.68008590056E+03  0.68008590056E+03  0.00000000000E+00 0.  1.
         21   -1    0    0  502  503 -0.00000000000E+00 -0.00000000000E+00 -0.11827607914E+03  0.11827607914E+03  0.00000000000E+00 0.  1.
          6    1    1    2  501    0 -0.17016482512E+03 -0.10115255903E+03  0.43292473593E+03  0.50615781619E+03  0.17200000000E+03 0.  1.
         -6    1    1    2    0  503  0.17016482512E+03  0.10115255903E+03  0.12888508549E+03  0.29220416350E+03  0.17200000000E+03 0.  1.
</event>
<event>
 4    1  0.6129841E-001  0.1872118E+03  0.7818608E-02  0.1161000E+00
         21   -1    0    0  501  502  0.00000000000E+00  0.00000000000E+00  0.62106927880E+03  0.62106927880E+03  0.00000000000E+00 0.  1.
         21   -1    0    0  502  503 -0.00000000000E+00 -0.00000000000E+00 -0.74135892331E+02  0.74135892331E+02  0.00000000000E+00 0.  1.
          6    1    1    2  501    0 -0.73603475145E+02  0.68392522529E+01  0.44333088112E+03  0.48123852411E+03  0.17200000000E+03 0.  1.
         -6    1    1    2    0  503  0.73603475145E+02 -0.68392522529E+01  0.10360250534E+03  0.21396664702E+03  0.17200000000E+03 0.  1.
</event>
<event>
 4    1  0.6129841E-001  0.1938267E+03  0.7818608E-02  0.1155054E+00
         21   -1    0    0  503  502  0.00000000000E+00  0.00000000000E+00  0.48755333135E+02  0.48755333135E+02  0.00000000000E+00 0.  1.
         21   -1    0    0  501  503 -0.00000000000E+00 -0.00000000000E+00 -0.80764961844E+03  0.80764961844E+03  0.00000000000E+00 0.  1.
          6    1    1    2  501    0  0.51867989147E+02 -0.72763427478E+02 -0.47121201140E+03  0.50951895388E+03  0.17200000000E+03 0. -1.
         -6    1    1    2    0  502 -0.51867989147E+02  0.72763427478E+02 -0.28768227391E+03  0.34688599769E+03  0.17200000000E+03 0. -1.
</event>
<event>
 4    1  0.6129841E-001  0.1721984E+03  0.7818608E-02  0.1175574E+00
         21   -1    0    0  503  502  0.00000000000E+00  0.00000000000E+00  0.32975190280E+03  0.32975190280E+03  0.00000000000E+00 0. -1.
         21   -1    0    0  501  503 -0.00000000000E+00 -0.00000000000E+00 -0.13267958130E+03  0.13267958130E+03  0.00000000000E+00 0. -1.
          6    1    1    2  501    0  0.41576783858E+01  0.71417417085E+01 -0.32719087943E+02  0.17527928993E+03  0.17200000000E+03 0. -1.
         -6    1    1    2    0  502 -0.41576783858E+01 -0.71417417085E+01  0.22979140944E+03  0.28715219417E+03  0.17200000000E+03 0. -1.
</event>
<event>
 4    1  0.6129841E-001  0.2023129E+03  0.7818608E-02  0.1147802E+00
         21   -1    0    0  503  502  0.00000000000E+00  0.00000000000E+00  0.17032882058E+03  0.17032882058E+03  0.00000000000E+00 0.  1.
         21   -1    0    0  501  503 -0.00000000000E+00 -0.00000000000E+00 -0.24188467086E+03  0.24188467086E+03  0.00000000000E+00 0. -1.
          6    1    1    2  501    0 -0.10486126237E+03 -0.18724699394E+02 -0.52445351486E+02  0.20900003255E+03  0.17200000000E+03 0. -1.
         -6    1    1    2    0  502  0.10486126237E+03  0.18724699394E+02 -0.19110498796E+02  0.20321345890E+03  0.17200000000E+03 0. -1.
</event>
<event>
 4    1  0.6129841E-001  0.2120755E+03  0.7818608E-02  0.1139933E+00
         21   -1    0    0  503  502  0.00000000000E+00  0.00000000000E+00  0.24617744659E+03  0.24617744659E+03  0.00000000000E+00 0. -1.
         21   -1    0    0  501  503 -0.00000000000E+00 -0.00000000000E+00 -0.20150537152E+03  0.20150537152E+03  0.00000000000E+00 0. -1.
          6    1    1    2  501    0 -0.25859273835E+02 -0.12133970660E+03 -0.46049756143E+02  0.21701752575E+03  0.17200000000E+03 0. -1.
         -6    1    1    2    0  502  0.25859273835E+02  0.12133970660E+03  0.90721831213E+02  0.23066529236E+03  0.17200000000E+03 0. -1.
</event>
<event>
 4    1  0.6129841E-001  0.1799052E+03  0.7818608E-02  0.1167895E+00
         21   -1    0    0  501  502  0.00000000000E+00  0.00000000000E+00  0.50161544623E+02  0.50161544623E+02  0.00000000000E+00 0. -1.
         21   -1    0    0  502  503 -0.00000000000E+00 -0.00000000000E+00 -0.70736852160E+03  0.70736852160E+03  0.00000000000E+00 0. -1.
          6    1    1    2  501    0  0.52337774743E+02  0.65304370138E+01 -0.21634566554E+03  0.28137401492E+03  0.17200000000E+03 0. -1.
         -6    1    1    2    0  503 -0.52337774743E+02 -0.65304370138E+01 -0.44086131143E+03  0.47615605130E+03  0.17200000000E+03 0. -1.
</event>
<event>
 4    1  0.6129841E-001  0.2135243E+03  0.7818608E-02  0.1138805E+00
         21   -1    0    0  501  502  0.00000000000E+00  0.00000000000E+00  0.23818039797E+03  0.23818039797E+03  0.00000000000E+00 0. -1.
         21   -1    0    0  502  503 -0.00000000000E+00 -0.00000000000E+00 -0.19755410425E+03  0.19755410425E+03  0.00000000000E+00 0. -1.
          6    1    1    2  501    0  0.49533255425E+02  0.11642636646E+03 -0.18075441629E+02  0.21428803931E+03  0.17200000000E+03 0.  1.
         -6    1    1    2    0  503 -0.49533255425E+02 -0.11642636646E+03  0.58701735350E+02  0.22144646291E+03  0.17200000000E+03 0.  1.
</event>
<event>
 4    1  0.6129841E-001  0.1796328E+03  0.7818608E-02  0.1168159E+00
         21   -1    0    0  501  502  0.00000000000E+00  0.00000000000E+00  0.19317844073E+03  0.19317844073E+03  0.00000000000E+00 0.  1.
         21   -1    0    0  502  503 -0.00000000000E+00 -0.00000000000E+00 -0.28652754798E+03  0.28652754798E+03  0.00000000000E+00 0.  1.
          6    1    1    2  501    0 -0.32146765545E+02  0.40626510756E+02  0.10821741905E+03  0.20971155833E+03  0.17200000000E+03 0.  1.
         -6    1    1    2    0  503  0.32146765545E+02 -0.40626510756E+02 -0.20156652630E+03  0.26999443038E+03  0.17200000000E+03 0.  1.
</event>
<event>
 4    1  0.6129841E-001  0.1738335E+03  0.7818608E-02  0.1173908E+00
         21   -1    0    0  503  502  0.00000000000E+00  0.00000000000E+00  0.58470511382E+02  0.58470511382E+02  0.00000000000E+00 0.  1.
         21   -1    0    0  501  503 -0.00000000000E+00 -0.00000000000E+00 -0.10515044152E+04  0.10515044152E+04  0.00000000000E+00 0.  1.
          6    1    1    2  501    0 -0.23754007525E+02  0.83574862885E+01 -0.89227591174E+03  0.90905137540E+03  0.17200000000E+03 0.  1.
         -6    1    1    2    0  502  0.23754007525E+02 -0.83574862885E+01 -0.10075799208E+03  0.20092355118E+03  0.17200000000E+03 0.  1.
</event>
<event>
 4    1  0.6129841E-001  0.1728682E+03  0.7818608E-02  0.1174889E+00
         21   -1    0    0  501  502  0.00000000000E+00  0.00000000000E+00  0.72854178133E+03  0.72854178133E+03  0.00000000000E+00 0. -1.
         21   -1    0    0  502  503 -0.00000000000E+00 -0.00000000000E+00 -0.19720678565E+03  0.19720678565E+03  0.00000000000E+00 0. -1.
          6    1    1    2  501    0 -0.16584279120E+02  0.49362674875E+01  0.67760079725E+03  0.69930411516E+03  0.17200000000E+03 0. -1.
         -6    1    1    2    0  503  0.16584279120E+02 -0.49362674875E+01 -0.14626580157E+03  0.22644445182E+03  0.17200000000E+03 0. -1.
</event>
<event>
 4    1  0.6129841E-001  0.1930461E+03  0.7818608E-02  0.1155742E+00
         21   -1    0    0  501  502  0.00000000000E+00  0.00000000000E+00  0.97243821294E+03  0.97243821294E+03  0.00000000000E+00 0.  1.
         21   -1    0    0  502  503 -0.00000000000E+00 -0.00000000000E+00 -0.85556061355E+02  0.85556061355E+02  0.00000000000E+00 0.  1.
          6    1    1    2  501    0  0.68189176800E+02  0.55072960591E+02  0.50388393968E+02  0.19951387187E+03  0.17200000000E+03 0.  1.
         -6    1    1    2    0  503 -0.68189176800E+02 -0.55072960591E+02  0.83649375762E+03  0.85848040243E+03  0.17200000000E+03 0.  1.
</event>
<event>
 4    1  0.6129841E-001  0.1765538E+03  0.7818608E-02  0.1171181E+00
         21   -1    0    0  501  502  0.00000000000E+00  0.00000000000E+00  0.90770757708E+02  0.90770757708E+02  0.00000000000E+00 0. -1.
         21   -1    0    0  502  503 -0.00000000000E+00 -0.00000000000E+00 -0.43462977423E+03  0.43462977423E+03  0.00000000000E+00 0. -1.
          6    1    1    2  501    0 -0.30134249876E+02  0.26060805755E+02 -0.51577212364E+02  0.18393326901E+03  0.17200000000E+03 0. -1.
         -6    1    1    2    0  503  0.30134249876E+02 -0.26060805755E+02 -0.29228180416E+03  0.34146726293E+03  0.17200000000E+03 0. -1.
</event>
<event>
 4    1  0.6129841E-001  0.1938080E+03  0.7818608E-02  0.1155071E+00
         21   -1    0    0  501  502  0.00000000000E+00  0.00000000000E+00  0.24073754092E+03  0.24073754092E+03  0.00000000000E+00 0. -1.
         21   -1    0    0  502  503 -0.00000000000E+00 -0.00000000000E+00 -0.15745228234E+03  0.15745228234E+03  0.00000000000E+00 0.  1.
          6    1    1    2  501    0  0.81617917572E+02 -0.36277400272E+02  0.60585687422E+02  0.20305703573E+03  0.17200000000E+03 0. -1.
         -6    1    1    2    0  503 -0.81617917572E+02  0.36277400272E+02  0.22699571158E+02  0.19513278753E+03  0.17200000000E+03 0. -1.
</event>
<event>
 4    1  0.6129841E-001  0.1933037E+03  0.7818608E-02  0.1155515E+00
         21   -1    0    0  503  502  0.00000000000E+00  0.00000000000E+00  0.30638958543E+03  0.30638958543E+03  0.00000000000E+00 0.  1.
         21   -1    0    0  501  503 -0.00000000000E+00 -0.00000000000E+00 -0.22974030270E+03  0.22974030270E+03  0.00000000000E+00 0.  1.
          6    1    1    2  501    0  0.74944402568E+02  0.46536510817E+02 -0.14528583782E+03  0.24181456736E+03  0.17200000000E+03 0.  1.
         -6    1    1    2    0  502 -0.74944402568E+02 -0.46536510817E+02  0.22193512055E+03  0.29431532078E+03  0.17200000000E+03 0.  1.
</event>
<event>
 4    1  0.6129841E-001  0.1720397E+03  0.7818608E-02  0.1175737E+00
         21   -1    0    0  501  502  0.00000000000E+00  0.00000000000E+00  0.26966111198E+03  0.26966111198E+03  0.00000000000E+00 0. -1.
         21   -1    0    0  502  503 -0.00000000000E+00 -0.00000000000E+00 -0.35114485461E+03  0.35114485461E+03  0.00000000000E+00 0. -1.
          6    1    1    2  501    0  0.24553563706E+01 -0.27634931290E+01  0.21661683708E+03  0.27662342594E+03  0.17200000000E+03 0. -1.
         -6    1    1    2    0  503 -0.24553563706E+01  0.27634931290E+01 -0.29810057971E+03  0.34418254065E+03  0.17200000000E+03 0. -1.
</event>
<event>
 4    1  0.6129841E-001  0.1726622E+03  0.7818608E-02  0.1175100E+00
         21   -1    0    0  503  502  0.00000000000E+00  0.00000000000E+00  0.78931835307E+02  0.78931835307E+02  0.00000000000E+00 0. -1.
         21   -1    0    0  501  503 -0.00000000000E+00 -0.00000000000E+00 -0.48380401818E+03  0.48380401818E+03  0.00000000000E+00 0. -1.
          6    1    1    2  501    0 -0.11283564243E+01 -0.15065526784E+02 -0.33420526789E+03  0.37617204092E+03  0.17200000000E+03 0. -1.
         -6    1    1    2    0  502  0.11283564243E+01  0.15065526784E+02 -0.70666914983E+02  0.18656381256E+03  0.17200000000E+03 0. -1.
</event>
<event>
 4    1  0.6129841E-001  0.1774222E+03  0.7818608E-02  0.1170321E+00
         21   -1    0    0  503  502  0.00000000000E+00  0.00000000000E+00  0.20681581643E+03  0.20681581643E+03  0.00000000000E+00 0.  1.
         21   -1    0    0  501  503 -0.00000000000E+00 -0.00000000000E+00 -0.16579434259E+03  0.16579434259E+03  0.00000000000E+00 0.  1.
          6    1    1    2  501    0  0.42428566773E+01 -0.43320221638E+02  0.73846726863E+02  0.19217695622E+03  0.17200000000E+03 0.  1.
         -6    1    1    2    0  502 -0.42428566773E+01  0.43320221638E+02 -0.32825253013E+02  0.18043320280E+03  0.17200000000E+03 0.  1.
</event>
<event>
 4    1  0.6129841E-001  0.1846610E+03  0.7818608E-02  0.1163367E+00
         21   -1    0    0  501  502  0.00000000000E+00  0.00000000000E+00  0.63120695016E+03  0.63120695016E+03  0.00000000000E+00 0.  1.
         21   -1    0    0  502  503 -0.00000000000E+00 -0.00000000000E+00 -0.74108232023E+02  0.74108232023E+02  0.00000000000E+00 0.  1.
          6    1    1    2  501    0 -0.43183601429E+00 -0.67197425065E+02  0.46214343074E+03  0.49767080585E+03  0.17200000000E+03 0.  1.
         -6    1    1    2    0  503  0.43183601429E+00  0.67197425065E+02  0.94955287395E+02  0.20764437633E+03  0.17200000000E+03 0.  1.
</event>
<event>
 4    1  0.6129841E-001  0.1955564E+03  0.7818608E-02  0.1153543E+00
         21   -1    0    0  503  502  0.00000000000E+00  0.00000000000E+00  0.34001472813E+03  0.34001472813E+03  0.00000000000E+00 0. -1.
         21   -1    0    0  501  503 -0.00000000000E+00 -0.00000000000E+00 -0.16451240399E+03  0.16451240399E+03  0.00000000000E+00 0. -1.
          6    1    1    2  501    0 -0.69851748882E+02 -0.61473755989E+02 -0.54129647692E+02  0.20290960612E+03  0.17200000000E+03 0. -1.
         -6    1    1    2    0  502  0.69851748882E+02  0.61473755989E+02  0.22963197184E+03  0.30161752600E+03  0.17200000000E+03 0. -1.
</event>
<event>
 4    1  0.6129841E-001  0.1773552E+03  0.7818608E-02  0.1170387E+00
         21   -1    0    0  503  502  0.00000000000E+00  0.00000000000E+00  0.71181575113E+03  0.71181575113E+03  0.00000000000E+00 0.  1.
         21   -1    0    0  501  503 -0.00000000000E+00 -0.00000000000E+00 -0.45229165309E+02  0.45229165309E+02  0.00000000000E+00 0.  1.
          6    1    1    2  501    0  0.13177893535E+02  0.41197280435E+02  0.39067884165E+03  0.42905108100E+03  0.17200000000E+03 0. -1.
         -6    1    1    2    0  502 -0.13177893535E+02 -0.41197280435E+02  0.27590774416E+03  0.32799383543E+03  0.17200000000E+03 0. -1.
</event>
<event>
 4    1  0.6129841E-001  0.1890159E+03  0.7818608E-02  0.1159352E+00
         21   -1    0    0  503  502  0.00000000000E+00  0.00000000000E+00  0.54392969051E+03  0.54392969051E+03  0.00000000000E+00 0.  1.
         21   -1    0    0  501  503 -0.00000000000E+00 -0.00000000000E+00 -0.69343594199E+02  0.69343594199E+02  0.00000000000E+00 0. -1.
          6    1    1    2  501    0  0.77410317664E+02  0.12273353308E+02  0.16684154281E+03  0.25211722054E+03  0.17200000000E+03 0.  1.
         -6    1    1    2    0  502 -0.77410317664E+02 -0.12273353308E+02  0.30774455350E+03  0.36115606418E+03  0.17200000000E+03 0. -1.
</event>
<event>
 4    1  0.6129841E-001  0.1846715E+03  0.7818608E-02  0.1163357E+00
         21   -1    0    0  501  502  0.00000000000E+00  0.00000000000E+00  0.30121931130E+03  0.30121931130E+03  0.00000000000E+00 0.  1.
         21   -1    0    0  502  503 -0.00000000000E+00 -0.00000000000E+00 -0.12160258700E+03  0.12160258700E+03  0.00000000000E+00 0.  1.
          6    1    1    2  501    0 -0.67170250462E+02 -0.27791403020E+01  0.14532034565E+03  0.23499269994E+03  0.17200000000E+03 0.  1.
         -6    1    1    2    0  503  0.67170250462E+02  0.27791403020E+01  0.34296378657E+02  0.18782919836E+03  0.17200000000E+03 0.  1.
</event>
<event>
 4    1  0.6129841E-001  0.2375092E+03  0.7818608E-02  0.1121463E+00
         21   -1    0    0  503  502  0.00000000000E+00  0.00000000000E+00  0.10317439334E+03  0.10317439334E+03  0.00000000000E+00 0. -1.
         21   -1    0    0  501  503 -0.00000000000E+00 -0.00000000000E+00 -0.60539549837E+03  0.60539549837E+03  0.00000000000E+00 0. -1.
          6    1    1    2  501    0  0.12824295002E+03 -0.10188401531E+03 -0.36137872724E+03  0.43244096858E+03  0.17200000000E+03 0. -1.
         -6    1    1    2    0  502 -0.12824295002E+03  0.10188401531E+03 -0.14084237780E+03  0.27612892313E+03  0.17200000000E+03 0. -1.
</event>
<event>
 4    1  0.6129841E-001  0.1726919E+03  0.7818608E-02  0.1175069E+00
         21   -1    0    0  501  502  0.00000000000E+00  0.00000000000E+00  0.10547112058E+03  0.10547112058E+03  0.00000000000E+00 0. -1.
         21   -1    0    0  502  503 -0.00000000000E+00 -0.00000000000E+00 -0.39980853606E+03  0.39980853606E+03  0.00000000000E+00 0. -1.
          6    1    1    2  501    0  0.31207301904E+01  0.15124663326E+02 -0.28386852057E+03  0.33227072000E+03  0.17200000000E+03 0. -1.
         -6    1    1    2    0  503 -0.31207301904E+01 -0.15124663326E+02 -0.10468894912E+02  0.17300893664E+03  0.17200000000E+03 0. -1.
</event>
<event>
 4    1  0.6129841E-001  0.2646547E+03  0.7818608E-02  0.1104378E+00
         21   -1    0    0  501  502  0.00000000000E+00  0.00000000000E+00  0.27260109250E+03  0.27260109250E+03  0.00000000000E+00 0. -1.
         21   -1    0    0  502  503 -0.00000000000E+00 -0.00000000000E+00 -0.70285712152E+03  0.70285712152E+03  0.00000000000E+00 0.  1.
          6    1    1    2  501    0  0.12239393680E+03  0.15961778559E+03  0.17335518700E+03  0.31637657009E+03  0.17200000000E+03 0.  1.
         -6    1    1    2    0  503 -0.12239393680E+03 -0.15961778559E+03 -0.60361121603E+03  0.65908164393E+03  0.17200000000E+03 0.  1.
</event>
<event>
 4    1  0.6129841E-001  0.1742772E+03  0.7818608E-02  0.1173459E+00
         21   -1    0    0  501  502  0.00000000000E+00  0.00000000000E+00  0.53676303728E+03  0.53676303728E+03  0.00000000000E+00 0. -1.
         21   -1    0    0  502  503 -0.00000000000E+00 -0.00000000000E+00 -0.72289380175E+02  0.72289380175E+02  0.00000000000E+00 0. -1.
          6    1    1    2  501    0  0.62457767183E+00  0.28074300210E+02  0.37417606446E+03  0.41277146660E+03  0.17200000000E+03 0. -1.
         -6    1    1    2    0  503 -0.62457767183E+00 -0.28074300210E+02  0.90297592650E+02  0.19628095085E+03  0.17200000000E+03 0. -1.
</event>
<event>
 4    1  0.6129841E-001  0.1726285E+03  0.7818608E-02  0.1175134E+00
         21   -1    0    0  503  502  0.00000000000E+00  0.00000000000E+00  0.14431819042E+03  0.14431819042E+03  0.00000000000E+00 0. -1.
         21   -1    0    0  501  503 -0.00000000000E+00 -0.00000000000E+00 -0.23982700640E+03  0.23982700640E+03  0.00000000000E+00 0. -1.
          6    1    1    2  501    0 -0.27475458276E+01  0.14458834796E+02 -0.11936283786E+03  0.20987637784E+03  0.17200000000E+03 0. -1.
         -6    1    1    2    0  502  0.27475458276E+01 -0.14458834796E+02  0.23854021875E+02  0.17426881899E+03  0.17200000000E+03 0. -1.
</event>
<event>
 4    1  0.6129841E-001  0.1792881E+03  0.7818608E-02  0.1168494E+00
         21   -1    0    0  503  502  0.00000000000E+00  0.00000000000E+00  0.19849740527E+03  0.19849740527E+03  0.00000000000E+00 0.  1.
         21   -1    0    0  501  503 -0.00000000000E+00 -0.00000000000E+00 -0.64223689981E+03  0.64223689981E+03  0.00000000000E+00 0.  1.
          6    1    1    2  501    0 -0.43514434497E+02 -0.25821070693E+02 -0.58539704717E+03  0.61223683043E+03  0.17200000000E+03 0.  1.
         -6    1    1    2    0  502  0.43514434497E+02  0.25821070693E+02  0.14165755263E+03  0.22849747465E+03  0.17200000000E+03 0.  1.
</event>
<event>
 4    1  0.6129841E-001  0.1759352E+03  0.7818608E-02  0.1171796E+00
         21   -1    0    0  503  502  0.00000000000E+00  0.00000000000E+00  0.24930512040E+03  0.24930512040E+03  0.00000000000E+00 0. -1.
         21   -1    0    0  501  503 -0.00000000000E+00 -0.00000000000E+00 -0.16404890351E+03  0.16404890351E+03  0.00000000000E+00 0. -1.
          6    1    1    2  501    0 -0.25800728957E+02  0.26524172875E+02 -0.59287989876E+02  0.18565633602E+03  0.17200000000E+03 0. -1.
         -6    1    1    2    0  502  0.25800728957E+02 -0.26524172875E+02  0.14454420676E+03  0.22769768789E+03  0.17200000000E+03 0. -1.
</event>
<event>
 4    1  0.6129841E-001  0.1843252E+03  0.7818608E-02  0.1163682E+00
         21   -1    0    0  503  502  0.00000000000E+00  0.00000000000E+00  0.18514982786E+04  0.18514982786E+04  0.00000000000E+00 0. -1.
         21   -1    0    0  501  503 -0.00000000000E+00 -0.00000000000E+00 -0.51742627748E+02  0.51742627748E+02  0.00000000000E+00 0.  1.
          6    1    1    2  501    0 -0.14507631734E+02  0.64662970050E+02  0.13540492615E+03  0.22871437450E+03  0.17200000000E+03 0.  1.
         -6    1    1    2    0  502  0.14507631734E+02 -0.64662970050E+02  0.16643507247E+04  0.16745265319E+04  0.17200000000E+03 0. -1.
</event>
<event>
 4    1  0.6129841E-001  0.1922858E+03  0.7818608E-02  0.1156416E+00
         21   -1    0    0  501  502  0.00000000000E+00  0.00000000000E+00  0.25721815938E+03  0.25721815938E+03  0.00000000000E+00 0. -1.
         21   -1    0    0  502  503 -0.00000000000E+00 -0.00000000000E+00 -0.19158618884E+03  0.19158618884E+03  0.00000000000E+00 0. -1.
          6    1    1    2  501    0  0.46629757971E+02 -0.72218374519E+02  0.14495219659E+03  0.24080067949E+03  0.17200000000E+03 0. -1.
         -6    1    1    2    0  503 -0.46629757971E+02  0.72218374519E+02 -0.79320226044E+02  0.20800366873E+03  0.17200000000E+03 0. -1.
</event>
<event>
 4    1  0.6129841E-001  0.1884959E+03  0.7818608E-02  0.1159825E+00
         21   -1    0    0  503  502  0.00000000000E+00  0.00000000000E+00  0.32122924870E+03  0.32122924870E+03  0.00000000000E+00 0. -1.
         21   -1    0    0  501  503 -0.00000000000E+00 -0.00000000000E+00 -0.18319269728E+03  0.18319269728E+03  0.00000000000E+00 0. -1.
          6    1    1    2  501    0  0.77836130155E+01 -0.76721098513E+02 -0.89737923845E+02  0.20876687133E+03  0.17200000000E+03 0. -1.
         -6    1    1    2    0  502 -0.77836130155E+01  0.76721098513E+02  0.22777447526E+03  0.29565507465E+03  0.17200000000E+03 0. -1.
</event>
<event>
 4    1  0.6129841E-001  0.2466109E+03  0.7818608E-02  0.1115466E+00
         21   -1    0    0  501  502  0.00000000000E+00  0.00000000000E+00  0.39290936255E+03  0.39290936255E+03  0.00000000000E+00 0. -1.
         21   -1    0    0  502  503 -0.00000000000E+00 -0.00000000000E+00 -0.15628231491E+03  0.15628231491E+03  0.00000000000E+00 0.  1.
          6    1    1    2  501    0 -0.17607741387E+03  0.15156006859E+02  0.91446677508E+02  0.26301987576E+03  0.17200000000E+03 0. -1.
         -6    1    1    2    0  503  0.17607741387E+03 -0.15156006859E+02  0.14518037013E+03  0.28617180170E+03  0.17200000000E+03 0. -1.
</event>
<event>
 4    1  0.6129841E-001  0.2284104E+03  0.7818608E-02  0.1127764E+00
         21   -1    0    0  503  502  0.00000000000E+00  0.00000000000E+00  0.10566871625E+03  0.10566871625E+03  0.00000000000E+00 0.  1.
         21   -1    0    0  501  503 -0.00000000000E+00 -0.00000000000E+00 -0.49819562592E+03  0.49819562592E+03  0.00000000000E+00 0.  1.
          6    1    1    2  501    0  0.56268763602E+02  0.13935971935E+03 -0.22486471932E+03  0.32052370759E+03  0.17200000000E+03 0.  1.
         -6    1    1    2    0  502 -0.56268763602E+02 -0.13935971935E+03 -0.16766219035E+03  0.28334063458E+03  0.17200000000E+03 0.  1.
</event>
<event>
 4    1  0.6129841E-001  0.1827122E+03  0.7818608E-02  0.1165204E+00
         21   -1    0    0  503  502  0.00000000000E+00  0.00000000000E+00  0.31928662073E+03  0.31928662073E+03  0.00000000000E+00 0. -1.
         21   -1    0    0  501  503 -0.00000000000E+00 -0.00000000000E+00 -0.19271880006E+03  0.19271880006E+03  0.00000000000E+00 0. -1.
          6    1    1    2  501    0  0.97053400477E+01 -0.60873344305E+02 -0.10986586207E+03  0.21320005938E+03  0.17200000000E+03 0. -1.
         -6    1    1    2    0  502 -0.97053400477E+01  0.60873344305E+02  0.23643368274E+03  0.29880536141E+03  0.17200000000E+03 0. -1.
</event>
<event>
 4    1  0.6129841E-001  0.2062166E+03  0.7818608E-02  0.1144598E+00
         21   -1    0    0  503  502  0.00000000000E+00  0.00000000000E+00  0.15691525607E+03  0.15691525607E+03  0.00000000000E+00 0.  1.
         21   -1    0    0  501  503 -0.00000000000E+00 -0.00000000000E+00 -0.75631499410E+03  0.75631499410E+03  0.00000000000E+00 0.  1.
          6    1    1    2  501    0 -0.15859352195E+02  0.11264878477E+03 -0.66546918962E+03  0.69668824455E+03  0.17200000000E+03 0.  1.
         -6    1    1    2    0  502  0.15859352195E+02 -0.11264878477E+03  0.66069451585E+02  0.21654200562E+03  0.17200000000E+03 0.  1.
</event>
<event>
 4    1  0.6129841E-001  0.1800441E+03  0.7818608E-02  0.1167760E+00
         21   -1    0    0  501  502  0.00000000000E+00  0.00000000000E+00  0.38195115935E+03  0.38195115935E+03  0.00000000000E+00 0. -1.
         21   -1    0    0  502  503 -0.00000000000E+00 -0.00000000000E+00 -0.92265831925E+02  0.92265831925E+02  0.00000000000E+00 0. -1.
          6    1    1    2  501    0  0.39226792311E+02  0.35960210332E+02  0.21197697561E+03  0.27811888852E+03  0.17200000000E+03 0.  1.
         -6    1    1    2    0  503 -0.39226792311E+02 -0.35960210332E+02  0.77708351809E+02  0.19609810275E+03  0.17200000000E+03 0.  1.
</event>
<event>
 4    1  0.6129841E-001  0.3158627E+03  0.7818608E-02  0.1077569E+00
         21   -1    0    0  503  502  0.00000000000E+00  0.00000000000E+00  0.10904363950E+04  0.10904363950E+04  0.00000000000E+00 0.  1.
         21   -1    0    0  501  503 -0.00000000000E+00 -0.00000000000E+00 -0.12024448290E+03  0.12024448290E+03  0.00000000000E+00 0.  1.
          6    1    1    2  501    0  0.14559522497E+03 -0.22133065570E+03  0.78109060048E+03  0.84253887438E+03  0.17200000000E+03 0.  1.
         -6    1    1    2    0  502 -0.14559522497E+03  0.22133065570E+03  0.18910131157E+03  0.36814200347E+03  0.17200000000E+03 0.  1.
</event>
<event>
 4    1  0.6129841E-001  0.2637467E+03  0.7818608E-02  0.1104913E+00
         21   -1    0    0  501  502  0.00000000000E+00  0.00000000000E+00  0.17154178343E+03  0.17154178343E+03  0.00000000000E+00 0.  1.
         21   -1    0    0  502  503 -0.00000000000E+00 -0.00000000000E+00 -0.93531991601E+03  0.93531991601E+03  0.00000000000E+00 0. -1.
          6    1    1    2  501    0  0.91445636181E+02  0.17780896589E+03  0.34637111455E+02  0.26601139490E+03  0.17200000000E+03 0.  1.
         -6    1    1    2    0  503 -0.91445636181E+02 -0.17780896589E+03 -0.79841524403E+03  0.84085030453E+03  0.17200000000E+03 0. -1.
</event>
<event>
 4    1  0.6129841E-001  0.1726160E+03  0.7818608E-02  0.1175147E+00
         21   -1    0    0  501  502  0.00000000000E+00  0.00000000000E+00  0.33588584102E+03  0.33588584102E+03  0.00000000000E+00 0.  1.
         21   -1    0    0  502  503 -0.00000000000E+00 -0.00000000000E+00 -0.10290211725E+03  0.10290211725E+03  0.00000000000E+00 0.  1.
          6    1    1    2  501    0  0.77617549803E+01 -0.12330296923E+02  0.19797036919E+03  0.26265671158E+03  0.17200000000E+03 0.  1.
         -6    1    1    2    0  503 -0.77617549803E+01  0.12330296923E+02  0.35013354583E+02  0.17613124669E+03  0.17200000000E+03 0.  1.
</event>
<event>
 4    1  0.6129841E-001  0.1953318E+03  0.7818608E-02  0.1153738E+00
         21   -1    0    0  503  502  0.00000000000E+00  0.00000000000E+00  0.43318880674E+03  0.43318880674E+03  0.00000000000E+00 0. -1.
         21   -1    0    0  501  503 -0.00000000000E+00 -0.00000000000E+00 -0.91192376798E+02  0.91192376798E+02  0.00000000000E+00 0.  1.
          6    1    1    2  501    0  0.92076377325E+02 -0.96143884508E+01  0.12254656129E+03  0.23059088319E+03  0.17200000000E+03 0. -1.
         -6    1    1    2    0  502 -0.92076377325E+02  0.96143884508E+01  0.21944986865E+03  0.29379030035E+03  0.17200000000E+03 0. -1.
</event>
<event>
 4    1  0.6129841E-001  0.1728150E+03  0.7818608E-02  0.1174944E+00
         21   -1    0    0  503  502  0.00000000000E+00  0.00000000000E+00  0.20071722628E+04  0.20071722628E+04  0.00000000000E+00 0.  1.
         21   -1    0    0  501  503 -0.00000000000E+00 -0.00000000000E+00 -0.16615144923E+02  0.16615144923E+02  0.00000000000E+00 0.  1.
          6    1    1    2  501    0 -0.13496914251E+02  0.99420414429E+01  0.66819595675E+03  0.69018174961E+03  0.17200000000E+03 0. -1.
         -6    1    1    2    0  502  0.13496914251E+02 -0.99420414429E+01  0.13223611611E+04  0.13336056581E+04  0.17200000000E+03 0. -1.
</event>
<event>
 4    1  0.6129841E-001  0.2052243E+03  0.7818608E-02  0.1145405E+00
         21   -1    0    0  503  502  0.00000000000E+00  0.00000000000E+00  0.13351605343E+04  0.13351605343E+04  0.00000000000E+00 0. -1.
         21   -1    0    0  501  503 -0.00000000000E+00 -0.00000000000E+00 -0.32466732241E+02  0.32466732241E+02  0.00000000000E+00 0.  1.
          6    1    1    2  501    0  0.25450368834E+02  0.10901976470E+03  0.53610027236E+03  0.57403878997E+03  0.17200000000E+03 0.  1.
         -6    1    1    2    0  502 -0.25450368834E+02 -0.10901976470E+03  0.76659352971E+03  0.79358847658E+03  0.17200000000E+03 0. -1.
</event>
<event>
 4    1  0.6129841E-001  0.1904144E+03  0.7818608E-02  0.1158088E+00
         21   -1    0    0  501  502  0.00000000000E+00  0.00000000000E+00  0.20698467709E+03  0.20698467709E+03  0.00000000000E+00 0. -1.
         21   -1    0    0  502  503 -0.00000000000E+00 -0.00000000000E+00 -0.24632356177E+03  0.24632356177E+03  0.00000000000E+00 0. -1.
          6    1    1    2  501    0  0.23003115457E+02  0.78386744321E+02  0.10214736272E+03  0.21608264326E+03  0.17200000000E+03 0. -1.
         -6    1    1    2    0  503 -0.23003115457E+02 -0.78386744321E+02 -0.14148624740E+03  0.23722559560E+03  0.17200000000E+03 0. -1.
</event>
<event>
 4    1  0.6129841E-001  0.2085402E+03  0.7818608E-02  0.1142727E+00
         21   -1    0    0  503  502  0.00000000000E+00  0.00000000000E+00  0.14436579404E+04  0.14436579404E+04  0.00000000000E+00 0.  1.
         21   -1    0    0  501  503 -0.00000000000E+00 -0.00000000000E+00 -0.33085050729E+02  0.33085050729E+02  0.00000000000E+00 0.  1.
          6    1    1    2  501    0 -0.94113303462E+02 -0.71047229772E+02  0.48440045026E+03  0.52738299078E+03  0.17200000000E+03 0.  1.
         -6    1    1    2    0  502  0.94113303462E+02  0.71047229772E+02  0.92617243938E+03  0.94936000032E+03  0.17200000000E+03 0.  1.
</event>
<event>
 4    1  0.6129841E-001  0.2050544E+03  0.7818608E-02  0.1145543E+00
         21   -1    0    0  503  502  0.00000000000E+00  0.00000000000E+00  0.10876228212E+03  0.10876228212E+03  0.00000000000E+00 0. -1.
         21   -1    0    0  501  503 -0.00000000000E+00 -0.00000000000E+00 -0.38689629437E+03  0.38689629437E+03  0.00000000000E+00 0. -1.
          6    1    1    2  501    0 -0.11114026247E+03 -0.10543026059E+02 -0.13218904733E+03  0.24396978824E+03  0.17200000000E+03 0. -1.
         -6    1    1    2    0  502  0.11114026247E+03  0.10543026059E+02 -0.14594496493E+03  0.25168878824E+03  0.17200000000E+03 0. -1.
</event>
<event>
 4    1  0.6129841E-001  0.2198593E+03  0.7818608E-02  0.1133988E+00
         21   -1    0    0  503  502  0.00000000000E+00  0.00000000000E+00  0.20102676384E+03  0.20102676384E+03  0.00000000000E+00 0.  1.
         21   -1    0    0  501  503 -0.00000000000E+00 -0.00000000000E+00 -0.27931225126E+03  0.27931225126E+03  0.00000000000E+00 0.  1.
          6    1    1    2  501    0  0.11949421266E+03  0.66897354730E+02 -0.12872096846E+03  0.25476893580E+03  0.17200000000E+03 0. -1.
         -6    1    1    2    0  502 -0.11949421266E+03 -0.66897354730E+02  0.50435481039E+02  0.22557007930E+03  0.17200000000E+03 0. -1.
</event>
<event>
 4    1  0.6129841E-001  0.1877708E+03  0.7818608E-02  0.1160487E+00
         21   -1    0    0  501  502  0.00000000000E+00  0.00000000000E+00  0.11149023288E+03  0.11149023288E+03  0.00000000000E+00 0. -1.
         21   -1    0    0  502  503 -0.00000000000E+00 -0.00000000000E+00 -0.32114388637E+03  0.32114388637E+03  0.00000000000E+00 0. -1.
          6    1    1    2  501    0 -0.89038745773E+01  0.74796976034E+02 -0.78100853147E+02  0.20336570475E+03  0.17200000000E+03 0.  1.
         -6    1    1    2    0  503  0.89038745773E+01 -0.74796976034E+02 -0.13155280035E+03  0.22926841450E+03  0.17200000000E+03 0.  1.
</event>
<event>
 4    1  0.6129841E-001  0.2359332E+03  0.7818608E-02  0.1122532E+00
         21   -1    0    0  501  502  0.00000000000E+00  0.00000000000E+00  0.74091058444E+03  0.74091058444E+03  0.00000000000E+00 0.  1.
         21   -1    0    0  502  503 -0.00000000000E+00 -0.00000000000E+00 -0.22263345143E+03  0.22263345143E+03  0.00000000000E+00 0.  1.
          6    1    1    2  501    0  0.12684606847E+03 -0.99952800657E+02  0.65128448708E+03  0.69270193486E+03  0.17200000000E+03 0.  1.
         -6    1    1    2    0  503 -0.12684606847E+03  0.99952800657E+02 -0.13300735406E+03  0.27084210101E+03  0.17200000000E+03 0.  1.
</event>
<event>
 4    1  0.6129841E-001  0.1726867E+03  0.7818608E-02  0.1175075E+00
         21   -1    0    0  501  502  0.00000000000E+00  0.00000000000E+00  0.17025990202E+03  0.17025990202E+03  0.00000000000E+00 0. -1.
         21   -1    0    0  502  503 -0.00000000000E+00 -0.00000000000E+00 -0.43258526131E+03  0.43258526131E+03  0.00000000000E+00 0. -1.
          6    1    1    2  501    0  0.99376576852E+01  0.11744791820E+02  0.10136547806E+03  0.20023900049E+03  0.17200000000E+03 0. -1.
         -6    1    1    2    0  503 -0.99376576852E+01 -0.11744791820E+02 -0.36369083736E+03  0.40260616284E+03  0.17200000000E+03 0. -1.
</event>
<event>
 4    1  0.6129841E-001  0.2588788E+03  0.7818608E-02  0.1107819E+00
         21   -1    0    0  501  502  0.00000000000E+00  0.00000000000E+00  0.17535908624E+03  0.17535908624E+03  0.00000000000E+00 0.  1.
         21   -1    0    0  502  503 -0.00000000000E+00 -0.00000000000E+00 -0.53030628076E+03  0.53030628076E+03  0.00000000000E+00 0.  1.
          6    1    1    2  501    0  0.19278869420E+03 -0.16333223688E+02  0.90035001898E+01  0.25903536018E+03  0.17200000000E+03 0.  1.
         -6    1    1    2    0  503 -0.19278869420E+03  0.16333223688E+02 -0.36395069471E+03  0.44663000681E+03  0.17200000000E+03 0.  1.
</event>
<event>
 4    1  0.6129841E-001  0.1723495E+03  0.7818608E-02  0.1175420E+00
         21   -1    0    0  503  502  0.00000000000E+00  0.00000000000E+00  0.83492621529E+02  0.83492621529E+02  0.00000000000E+00 0. -1.
         21   -1    0    0  501  503 -0.00000000000E+00 -0.00000000000E+00 -0.60609901694E+03  0.60609901694E+03  0.00000000000E+00 0. -1.
          6    1    1    2  501    0  0.54796718160E+01 -0.95030201913E+01 -0.48289010294E+03  0.51272525364E+03  0.17200000000E+03 0. -1.
         -6    1    1    2    0  502 -0.54796718160E+01  0.95030201913E+01 -0.39716292465E+02  0.17686638483E+03  0.17200000000E+03 0. -1.
</event>
<event>
 4    1  0.6129841E-001  0.1785138E+03  0.7818608E-02  0.1169249E+00
         21   -1    0    0  503  502  0.00000000000E+00  0.00000000000E+00  0.88987229006E+02  0.88987229006E+02  0.00000000000E+00 0. -1.
         21   -1    0    0  501  503 -0.00000000000E+00 -0.00000000000E+00 -0.39028613175E+03  0.39028613175E+03  0.00000000000E+00 0.  1.
          6    1    1    2  501    0  0.15473445276E+02 -0.45207882379E+02 -0.21945625990E+03  0.28289261240E+03  0.17200000000E+03 0.  1.
         -6    1    1    2    0  502 -0.15473445276E+02  0.45207882379E+02 -0.81842642836E+02  0.19638074835E+03  0.17200000000E+03 0. -1.
</event>
<event>
 4    1  0.6129841E-001  0.2058024E+03  0.7818608E-02  0.1144934E+00
         21   -1    0    0  501  502  0.00000000000E+00  0.00000000000E+00  0.92454404982E+02  0.92454404982E+02  0.00000000000E+00 0. -1.
         21   -1    0    0  502  503 -0.00000000000E+00 -0.00000000000E+00 -0.89832414992E+03  0.89832414992E+03  0.00000000000E+00 0.  1.
          6    1    1    2  501    0  0.11196936319E+03  0.15280992249E+02 -0.56149999192E+02  0.21332479796E+03  0.17200000000E+03 0.  1.
         -6    1    1    2    0  503 -0.11196936319E+03 -0.15280992249E+02 -0.74971974575E+03  0.77745375694E+03  0.17200000000E+03 0.  1.
</event>
<event>
 4    1  0.6129841E-001  0.2159251E+03  0.7818608E-02  0.1136958E+00
         21   -1    0    0  503  502  0.00000000000E+00  0.00000000000E+00  0.20075111915E+03  0.20075111915E+03  0.00000000000E+00 0.  1.
         21   -1    0    0  501  503 -0.00000000000E+00 -0.00000000000E+00 -0.32653029963E+03  0.32653029963E+03  0.00000000000E+00 0.  1.
          6    1    1    2  501    0  0.12732882452E+03 -0.28758262147E+02 -0.20455706626E+03  0.29743446430E+03  0.17200000000E+03 0.  1.
         -6    1    1    2    0  502 -0.12732882452E+03  0.28758262147E+02  0.78777885786E+02  0.22984695448E+03  0.17200000000E+03 0.  1.
</event>
<event>
 4    1  0.6129841E-001  0.2032773E+03  0.7818608E-02  0.1147003E+00
         21   -1    0    0  501  502  0.00000000000E+00  0.00000000000E+00  0.15360207030E+03  0.15360207030E+03  0.00000000000E+00 0. -1.
         21   -1    0    0  502  503 -0.00000000000E+00 -0.00000000000E+00 -0.32311324005E+03  0.32311324005E+03  0.00000000000E+00 0.  1.
          6    1    1    2  501    0 -0.56927373562E+02  0.92178872928E+02  0.12773150630E+02  0.20367823608E+03  0.17200000000E+03 0. -1.
         -6    1    1    2    0  503  0.56927373562E+02 -0.92178872928E+02 -0.18228432037E+03  0.27303707428E+03  0.17200000000E+03 0.  1.
</event>
<event>
 4    1  0.6129841E-001  0.1734273E+03  0.7818608E-02  0.1174320E+00
         21   -1    0    0  503  502  0.00000000000E+00  0.00000000000E+00  0.20220861255E+03  0.20220861255E+03  0.00000000000E+00 0. -1.
         21   -1    0    0  501  503 -0.00000000000E+00 -0.00000000000E+00 -0.15559204285E+03  0.15559204285E+03  0.00000000000E+00 0. -1.
          6    1    1    2  501    0  0.18197773481E+02 -0.12723200449E+02 -0.14227408120E+02  0.17400993630E+03  0.17200000000E+03 0. -1.
         -6    1    1    2    0  502 -0.18197773481E+02  0.12723200449E+02  0.60843977816E+02  0.18379071910E+03  0.17200000000E+03 0. -1.
</event>
<event>
 4    1  0.6129841E-001  0.1905529E+03  0.7818608E-02  0.1157964E+00
         21   -1    0    0  501  502  0.00000000000E+00  0.00000000000E+00  0.56566355478E+02  0.56566355478E+02  0.00000000000E+00 0. -1.
         21   -1    0    0  502  503 -0.00000000000E+00 -0.00000000000E+00 -0.11512418988E+04  0.11512418988E+04  0.00000000000E+00 0.  1.
          6    1    1    2  501    0  0.57975008288E+02 -0.58011216839E+02 -0.14565246671E+03  0.23984379067E+03  0.17200000000E+03 0. -1.
         -6    1    1    2    0  503 -0.57975008288E+02  0.58011216839E+02 -0.94902307659E+03  0.96796446359E+03  0.17200000000E+03 0.  1.
</event>
<event>
 4    1  0.6129841E-001  0.1826479E+03  0.7818608E-02  0.1165265E+00
         21   -1    0    0  503  502  0.00000000000E+00  0.00000000000E+00  0.73036750867E+03  0.73036750867E+03  0.00000000000E+00 0.  1.
         21   -1    0    0  501  503 -0.00000000000E+00 -0.00000000000E+00 -0.46236033988E+02  0.46236033988E+02  0.00000000000E+00 0.  1.
          6    1    1    2  501    0  0.17318799341E+02 -0.58960366888E+02  0.29933045055E+03  0.35065507882E+03  0.17200000000E+03 0.  1.
         -6    1    1    2    0  502 -0.17318799341E+02  0.58960366888E+02  0.38480102413E+03  0.42594846384E+03  0.17200000000E+03 0.  1.
</event>
<event>
 4    1  0.6129841E-001  0.1809007E+03  0.7818608E-02  0.1166934E+00
         21   -1    0    0  501  502  0.00000000000E+00  0.00000000000E+00  0.28254463662E+03  0.28254463662E+03  0.00000000000E+00 0. -1.
         21   -1    0    0  502  503 -0.00000000000E+00 -0.00000000000E+00 -0.11681828554E+03  0.11681828554E+03  0.00000000000E+00 0. -1.
          6    1    1    2  501    0 -0.29232934239E+02 -0.47817326374E+02  0.10129796775E+03  0.20733147232E+03  0.17200000000E+03 0. -1.
         -6    1    1    2    0  503  0.29232934239E+02  0.47817326374E+02  0.64428383337E+02  0.19203144983E+03  0.17200000000E+03 0. -1.
</event>
<event>
 4    1  0.6129841E-001  0.2454154E+03  0.7818608E-02  0.1116237E+00
         21   -1    0    0  501  502  0.00000000000E+00  0.00000000000E+00  0.23027587409E+03  0.23027587409E+03  0.00000000000E+00 0. -1.
         21   -1    0    0  502  503 -0.00000000000E+00 -0.00000000000E+00 -0.26422719351E+03  0.26422719351E+03  0.00000000000E+00 0.  1.
          6    1    1    2  501    0 -0.48526651433E+02 -0.16819602388E+03  0.79106620935E+01  0.24554290241E+03  0.17200000000E+03 0.  1.
         -6    1    1    2    0  503  0.48526651433E+02  0.16819602388E+03 -0.41861981514E+02  0.24896016518E+03  0.17200000000E+03 0. -1.
</event>
<event>
 4    1  0.6129841E-001  0.1789167E+03  0.7818608E-02  0.1168856E+00
         21   -1    0    0  501  502  0.00000000000E+00  0.00000000000E+00  0.20447043111E+03  0.20447043111E+03  0.00000000000E+00 0. -1.
         21   -1    0    0  502  503 -0.00000000000E+00 -0.00000000000E+00 -0.16397805091E+03  0.16397805091E+03  0.00000000000E+00 0. -1.
          6    1    1    2  501    0  0.48532756260E+02  0.84712820051E+01  0.59438328655E+02  0.18853144555E+03  0.17200000000E+03 0. -1.
         -6    1    1    2    0  503 -0.48532756260E+02 -0.84712820051E+01 -0.18945948452E+02  0.17991703647E+03  0.17200000000E+03 0. -1.
</event>
<event>
 4    1  0.6129841E-001  0.2471312E+03  0.7818608E-02  0.1115131E+00
         21   -1    0    0  503  502  0.00000000000E+00  0.00000000000E+00  0.82060429492E+02  0.82060429492E+02  0.00000000000E+00 0.  1.
         21   -1    0    0  501  503 -0.00000000000E+00 -0.00000000000E+00 -0.83271450003E+03  0.83271450003E+03  0.00000000000E+00 0.  1.
          6    1    1    2  501    0  0.14417052778E+03 -0.10346346876E+03 -0.52440383640E+03  0.57971821955E+03  0.17200000000E+03 0.  1.
         -6    1    1    2    0  502 -0.14417052778E+03  0.10346346876E+03 -0.22625023413E+03  0.33505670997E+03  0.17200000000E+03 0.  1.
</event>
<event>
 4    1  0.6129841E-001  0.1786696E+03  0.7818608E-02  0.1169097E+00
         21   -1    0    0  501  502  0.00000000000E+00  0.00000000000E+00  0.30922051988E+03  0.30922051988E+03  0.00000000000E+00 0. -1.
         21   -1    0    0  502  503 -0.00000000000E+00 -0.00000000000E+00 -0.13848731181E+03  0.13848731181E+03  0.00000000000E+00 0. -1.
          6    1    1    2  501    0  0.31570584461E+02  0.36635164506E+02  0.19830572588E+03  0.26692320618E+03  0.17200000000E+03 0. -1.
         -6    1    1    2    0  503 -0.31570584461E+02 -0.36635164506E+02 -0.27572517811E+02  0.18078462551E+03  0.17200000000E+03 0. -1.
</event>
<event>
 4    1  0.6129841E-001  0.2777637E+03  0.7818608E-02  0.1096917E+00
         21   -1    0    0  503  502  0.00000000000E+00  0.00000000000E+00  0.10340211868E+04  0.10340211868E+04  0.00000000000E+00 0. -1.
         21   -1    0    0  501  503 -0.00000000000E+00 -0.00000000000E+00 -0.94439702915E+02  0.94439702915E+02  0.00000000000E+00 0.  1.
          6    1    1    2  501    0  0.10195979720E+03 -0.19280264236E+03  0.21127239866E+03  0.34898235712E+03  0.17200000000E+03 0.  1.
         -6    1    1    2    0  502 -0.10195979720E+03  0.19280264236E+03  0.72830908522E+03  0.77947853259E+03  0.17200000000E+03 0. -1.
</event>
<event>
 4    1  0.6129841E-001  0.2030813E+03  0.7818608E-02  0.1147165E+00
         21   -1    0    0  503  502  0.00000000000E+00  0.00000000000E+00  0.16183147865E+03  0.16183147865E+03  0.00000000000E+00 0.  1.
         21   -1    0    0  501  503 -0.00000000000E+00 -0.00000000000E+00 -0.26583653303E+03  0.26583653303E+03  0.00000000000E+00 0.  1.
          6    1    1    2  501    0  0.10632990280E+03 -0.18761086797E+02 -0.95482412446E+02  0.22440792699E+03  0.17200000000E+03 0.  1.
         -6    1    1    2    0  502 -0.10632990280E+03  0.18761086797E+02 -0.85226419321E+01  0.20326008470E+03  0.17200000000E+03 0.  1.
</event>
<event>
 4    1  0.6129841E-001  0.1865086E+03  0.7818608E-02  0.1161649E+00
         21   -1    0    0  501  502  0.00000000000E+00  0.00000000000E+00  0.20254008148E+03  0.20254008148E+03  0.00000000000E+00 0.  1.
         21   -1    0    0  502  503 -0.00000000000E+00 -0.00000000000E+00 -0.21806652893E+03  0.21806652893E+03  0.00000000000E+00 0.  1.
          6    1    1    2  501    0 -0.27885479469E+02  0.66511971073E+02  0.89162376692E+02  0.20672535326E+03  0.17200000000E+03 0.  1.
         -6    1    1    2    0  503  0.27885479469E+02 -0.66511971073E+02 -0.10468882414E+03  0.21388125715E+03  0.17200000000E+03 0.  1.
</event>
<event>
 4    1  0.6129841E-001  0.2018144E+03  0.7818608E-02  0.1148217E+00
         21   -1    0    0  503  502  0.00000000000E+00  0.00000000000E+00  0.54532586901E+02  0.54532586901E+02  0.00000000000E+00 0. -1.
         21   -1    0    0  501  503 -0.00000000000E+00 -0.00000000000E+00 -0.84904748882E+03  0.84904748882E+03  0.00000000000E+00 0.  1.
          6    1    1    2  501    0  0.10339346513E+03 -0.21326751430E+02 -0.55398203812E+03  0.58959743683E+03  0.17200000000E+03 0.  1.
         -6    1    1    2    0  502 -0.10339346513E+03  0.21326751430E+02 -0.24053286380E+03  0.31398263889E+03  0.17200000000E+03 0.  1.
</event>
<event>
 4    1  0.6129841E-001  0.1751018E+03  0.7818608E-02  0.1172630E+00
         21   -1    0    0  503  502  0.00000000000E+00  0.00000000000E+00  0.69881224285E+03  0.69881224285E+03  0.00000000000E+00 0.  1.
         21   -1    0    0  501  503 -0.00000000000E+00 -0.00000000000E+00 -0.44786860856E+02  0.44786860856E+02  0.00000000000E+00 0.  1.
          6    1    1    2  501    0 -0.62247911128E+01 -0.32216136317E+02  0.38005420728E+03  0.41845170323E+03  0.17200000000E+03 0. -1.
         -6    1    1    2    0  502  0.62247911128E+01  0.32216136317E+02  0.27397117472E+03  0.32514740048E+03  0.17200000000E+03 0. -1.
</event>
<event>
 4    1  0.6129841E-001  0.2441652E+03  0.7818608E-02  0.1117049E+00
         21   -1    0    0  501  502  0.00000000000E+00  0.00000000000E+00  0.15851189555E+03  0.15851189555E+03  0.00000000000E+00 0.  1.
         21   -1    0    0  502  503 -0.00000000000E+00 -0.00000000000E+00 -0.69835519010E+03  0.69835519010E+03  0.00000000000E+00 0.  1.
          6    1    1    2  501    0 -0.12587477383E+03 -0.11911427008E+03  0.21112387426E+02  0.24507631654E+03  0.17200000000E+03 0.  1.
         -6    1    1    2    0  503  0.12587477383E+03  0.11911427008E+03 -0.56095568197E+03  0.61179076911E+03  0.17200000000E+03 0.  1.
</event>
<event>
 4    1  0.6129841E-001  0.1941018E+03  0.7818608E-02  0.1154813E+00
         21   -1    0    0  501  502  0.00000000000E+00  0.00000000000E+00  0.27318169476E+02  0.27318169476E+02  0.00000000000E+00 0. -1.
         21   -1    0    0  502  503 -0.00000000000E+00 -0.00000000000E+00 -0.14745192495E+04  0.14745192495E+04  0.00000000000E+00 0. -1.
          6    1    1    2  501    0  0.60039449227E+02 -0.66983424565E+02 -0.53261516089E+03  0.56688131407E+03  0.17200000000E+03 0.  1.
         -6    1    1    2    0  503 -0.60039449227E+02  0.66983424565E+02 -0.91458591918E+03  0.93495610495E+03  0.17200000000E+03 0.  1.
</event>
<event>
 4    1  0.6129841E-001  0.2022427E+03  0.7818608E-02  0.1147861E+00
         21   -1    0    0  503  502  0.00000000000E+00  0.00000000000E+00  0.70557318797E+03  0.70557318797E+03  0.00000000000E+00 0.  1.
         21   -1    0    0  501  503 -0.00000000000E+00 -0.00000000000E+00 -0.12342747526E+03  0.12342747526E+03  0.00000000000E+00 0. -1.
          6    1    1    2  501    0 -0.28433151981E+02 -0.10251660370E+03 -0.10782223244E+02  0.20252988546E+03  0.17200000000E+03 0. -1.
         -6    1    1    2    0  502  0.28433151981E+02  0.10251660370E+03  0.59292793595E+03  0.62647077777E+03  0.17200000000E+03 0.  1.
</event>
<event>
 4    1  0.6129841E-001  0.2753682E+03  0.7818608E-02  0.1098246E+00
         21   -1    0    0  503  502  0.00000000000E+00  0.00000000000E+00  0.26528725503E+03  0.26528725503E+03  0.00000000000E+00 0. -1.
         21   -1    0    0  501  503 -0.00000000000E+00 -0.00000000000E+00 -0.95648453968E+03  0.95648453968E+03  0.00000000000E+00 0.  1.
          6    1    1    2  501    0 -0.21097784860E+03  0.41617190375E+02 -0.85712714736E+03  0.90027473022E+03  0.17200000000E+03 0.  1.
         -6    1    1    2    0  502  0.21097784860E+03 -0.41617190375E+02  0.16592986271E+03  0.32149706449E+03  0.17200000000E+03 0. -1.
</event>
<event>
 4    1  0.6129841E-001  0.2656535E+03  0.7818608E-02  0.1103793E+00
         21   -1    0    0  501  502  0.00000000000E+00  0.00000000000E+00  0.16401812515E+04  0.16401812515E+04  0.00000000000E+00 0. -1.
         21   -1    0    0  502  503 -0.00000000000E+00 -0.00000000000E+00 -0.93327176743E+02  0.93327176743E+02  0.00000000000E+00 0. -1.
          6    1    1    2  501    0 -0.19823167489E+03 -0.41134055652E+02  0.14097496654E+04  0.14345612314E+04  0.17200000000E+03 0. -1.
         -6    1    1    2    0  503  0.19823167489E+03  0.41134055652E+02  0.13710440939E+03  0.29894719690E+03  0.17200000000E+03 0. -1.
</event>
<event>
 4    1  0.6129841E-001  0.2748478E+03  0.7818608E-02  0.1098537E+00
         21   -1    0    0  501  502  0.00000000000E+00  0.00000000000E+00  0.94289178486E+03  0.94289178486E+03  0.00000000000E+00 0.  1.
         21   -1    0    0  502  503 -0.00000000000E+00 -0.00000000000E+00 -0.80499635296E+02  0.80499635296E+02  0.00000000000E+00 0. -1.
          6    1    1    2  501    0 -0.20362061826E+03  0.67051918830E+02  0.46649121882E+03  0.54143824508E+03  0.17200000000E+03 0. -1.
         -6    1    1    2    0  503  0.20362061826E+03 -0.67051918830E+02  0.39590093074E+03  0.48195317507E+03  0.17200000000E+03 0.  1.
</event>
<event>
 4    1  0.6129841E-001  0.1738420E+03  0.7818608E-02  0.1173899E+00
         21   -1    0    0  503  502  0.00000000000E+00  0.00000000000E+00  0.11038800529E+04  0.11038800529E+04  0.00000000000E+00 0. -1.
         21   -1    0    0  501  503 -0.00000000000E+00 -0.00000000000E+00 -0.84180530743E+02  0.84180530743E+02  0.00000000000E+00 0. -1.
          6    1    1    2  501    0  0.82015335467E+01  0.23869936778E+02  0.21883236137E+02  0.17521391228E+03  0.17200000000E+03 0. -1.
         -6    1    1    2    0  502 -0.82015335467E+01 -0.23869936778E+02  0.99781628606E+03  0.10128466714E+04  0.17200000000E+03 0. -1.
</event>
<event>
 4    1  0.6129841E-001  0.1808180E+03  0.7818608E-02  0.1167014E+00
         21   -1    0    0  503  502  0.00000000000E+00  0.00000000000E+00  0.12101352447E+03  0.12101352447E+03  0.00000000000E+00 0. -1.
         21   -1    0    0  501  503 -0.00000000000E+00 -0.00000000000E+00 -0.32855644828E+03  0.32855644828E+03  0.00000000000E+00 0. -1.
          6    1    1    2  501    0 -0.53096785166E+02  0.17084761861E+02 -0.90191899644E+01  0.18104282220E+03  0.17200000000E+03 0. -1.
         -6    1    1    2    0  502  0.53096785166E+02 -0.17084761861E+02 -0.19852373385E+03  0.26852715055E+03  0.17200000000E+03 0. -1.
</event>
<event>
 4    1  0.6129841E-001  0.3462398E+03  0.7818608E-02  0.1064169E+00
         21   -1    0    0  503  502  0.00000000000E+00  0.00000000000E+00  0.17028173500E+04  0.17028173500E+04  0.00000000000E+00 0.  1.
         21   -1    0    0  501  503 -0.00000000000E+00 -0.00000000000E+00 -0.70432931524E+02  0.70432931524E+02  0.00000000000E+00 0. -1.
          6    1    1    2  501    0  0.89457250225E+02  0.28687179515E+03  0.83472316694E+03  0.90368401109E+03  0.17200000000E+03 0. -1.
         -6    1    1    2    0  502 -0.89457250225E+02 -0.28687179515E+03  0.79766125150E+03  0.86956627040E+03  0.17200000000E+03 0.  1.
</event>
<event>
 4    1  0.6129841E-001  0.3261731E+03  0.7818608E-02  0.1072843E+00
         21   -1    0    0  503  502  0.00000000000E+00  0.00000000000E+00  0.19135688342E+03  0.19135688342E+03  0.00000000000E+00 0. -1.
         21   -1    0    0  501  503 -0.00000000000E+00 -0.00000000000E+00 -0.62978709894E+03  0.62978709894E+03  0.00000000000E+00 0.  1.
          6    1    1    2  501    0 -0.24640883361E+03 -0.12683681311E+03 -0.35977706308E+03  0.48562168976E+03  0.17200000000E+03 0. -1.
         -6    1    1    2    0  502  0.24640883361E+03  0.12683681311E+03 -0.78653152439E+02  0.33552229260E+03  0.17200000000E+03 0. -1.
</event>
<event>
 4    1  0.6129841E-001  0.1939430E+03  0.7818608E-02  0.1154952E+00
         21   -1    0    0  503  502  0.00000000000E+00  0.00000000000E+00  0.82603053363E+03  0.82603053363E+03  0.00000000000E+00 0.  1.
         21   -1    0    0  501  503 -0.00000000000E+00 -0.00000000000E+00 -0.97381929107E+02  0.97381929107E+02  0.00000000000E+00 0. -1.
          6    1    1    2  501    0 -0.46360893836E+02  0.76684795523E+02  0.27436662775E+02  0.19587409427E+03  0.17200000000E+03 0.  1.
         -6    1    1    2    0  502  0.46360893836E+02 -0.76684795523E+02  0.70121194175E+03  0.72753836847E+03  0.17200000000E+03 0.  1.
</event>
<event>
 4    1  0.6129841E-001  0.2637341E+03  0.7818608E-02  0.1104920E+00
         21   -1    0    0  501  502  0.00000000000E+00  0.00000000000E+00  0.55881909442E+03  0.55881909442E+03  0.00000000000E+00 0. -1.
         21   -1    0    0  502  503 -0.00000000000E+00 -0.00000000000E+00 -0.12505034444E+03  0.12505034444E+03  0.00000000000E+00 0. -1.
          6    1    1    2  501    0 -0.19952455414E+03  0.12713158472E+02  0.19357099054E+03  0.32714736814E+03  0.17200000000E+03 0. -1.
         -6    1    1    2    0  503  0.19952455414E+03 -0.12713158472E+02  0.24019775943E+03  0.35672207072E+03  0.17200000000E+03 0. -1.
</event>
<event>
 4    1  0.6129841E-001  0.1737848E+03  0.7818608E-02  0.1173957E+00
         21   -1    0    0  503  502  0.00000000000E+00  0.00000000000E+00  0.71107425189E+03  0.71107425189E+03  0.00000000000E+00 0.  1.
         21   -1    0    0  501  503 -0.00000000000E+00 -0.00000000000E+00 -0.16556083961E+03  0.16556083961E+03  0.00000000000E+00 0.  1.
          6    1    1    2  501    0  0.11793614940E+02  0.21864945685E+02 -0.10517936447E+03  0.20313508784E+03  0.17200000000E+03 0.  1.
         -6    1    1    2    0  502 -0.11793614940E+02 -0.21864945685E+02  0.65069277676E+03  0.67350000366E+03  0.17200000000E+03 0.  1.
</event>
<event>
 4    1  0.6129841E-001  0.1760626E+03  0.7818608E-02  0.1171669E+00
         21   -1    0    0  501  502  0.00000000000E+00  0.00000000000E+00  0.47561262329E+03  0.47561262329E+03  0.00000000000E+00 0.  1.
         21   -1    0    0  502  503 -0.00000000000E+00 -0.00000000000E+00 -0.75238983862E+02  0.75238983862E+02  0.00000000000E+00 0.  1.
          6    1    1    2  501    0  0.27093450343E+02 -0.26076780272E+02  0.30091896753E+03  0.34864061516E+03  0.17200000000E+03 0.  1.
         -6    1    1    2    0  503 -0.27093450343E+02  0.26076780272E+02  0.99454671903E+02  0.20221099200E+03  0.17200000000E+03 0.  1.
</event>
<event>
 4    1  0.6129841E-001  0.1925333E+03  0.7818608E-02  0.1156196E+00
         21   -1    0    0  501  502  0.00000000000E+00  0.00000000000E+00  0.11662027890E+03  0.11662027890E+03  0.00000000000E+00 0. -1.
         21   -1    0    0  502  503 -0.00000000000E+00 -0.00000000000E+00 -0.57880159697E+03  0.57880159697E+03  0.00000000000E+00 0. -1.
          6    1    1    2  501    0  0.14358712571E+01 -0.86504472549E+02  0.23755236375E+01  0.19254799041E+03  0.17200000000E+03 0. -1.
         -6    1    1    2    0  503 -0.14358712571E+01  0.86504472549E+02 -0.46455684171E+03  0.50287388546E+03  0.17200000000E+03 0. -1.
</event>
<event>
 4    1  0.6129841E-001  0.2578301E+03  0.7818608E-02  0.1108454E+00
         21   -1    0    0  503  502  0.00000000000E+00  0.00000000000E+00  0.19349295881E+02  0.19349295881E+02  0.00000000000E+00 0. -1.
         21   -1    0    0  501  503 -0.00000000000E+00 -0.00000000000E+00 -0.35085729321E+04  0.35085729321E+04  0.00000000000E+00 0.  1.
          6    1    1    2  501    0 -0.14798473845E+03  0.12244532816E+03 -0.19990135055E+04  0.20155722107E+04  0.17200000000E+03 0.  1.
         -6    1    1    2    0  502  0.14798473845E+03 -0.12244532816E+03 -0.14902101307E+04  0.15123500173E+04  0.17200000000E+03 0. -1.
</event>
<event>
 4    1  0.6129841E-001  0.2936041E+03  0.7818608E-02  0.1088482E+00
         21   -1    0    0  501  502  0.00000000000E+00  0.00000000000E+00  0.27847353310E+03  0.27847353310E+03  0.00000000000E+00 0.  1.
         21   -1    0    0  502  503 -0.00000000000E+00 -0.00000000000E+00 -0.34114767920E+03  0.34114767920E+03  0.00000000000E+00 0. -1.
          6    1    1    2  501    0 -0.32350049797E+02  0.23573887112E+03  0.62940150505E+02  0.30027454708E+03  0.17200000000E+03 0. -1.
         -6    1    1    2    0  503  0.32350049797E+02 -0.23573887112E+03 -0.12561429660E+03  0.31934666522E+03  0.17200000000E+03 0. -1.
</event>
<event>
 4    1  0.6129841E-001  0.1770142E+03  0.7818608E-02  0.1170724E+00
         21   -1    0    0  501  502  0.00000000000E+00  0.00000000000E+00  0.51845412593E+03  0.51845412593E+03  0.00000000000E+00 0. -1.
         21   -1    0    0  502  503 -0.00000000000E+00 -0.00000000000E+00 -0.61281397349E+02  0.61281397349E+02  0.00000000000E+00 0. -1.
          6    1    1    2  501    0 -0.38938869012E+02 -0.15289838999E+02  0.26260433930E+03  0.31669394329E+03  0.17200000000E+03 0.  1.
         -6    1    1    2    0  503  0.38938869012E+02  0.15289838999E+02  0.19456838928E+03  0.26304157999E+03  0.17200000000E+03 0.  1.
</event>
<event>
 4    1  0.6129841E-001  0.1731219E+03  0.7818608E-02  0.1174631E+00
         21   -1    0    0  503  502  0.00000000000E+00  0.00000000000E+00  0.24011787070E+04  0.24011787070E+04  0.00000000000E+00 0. -1.
         21   -1    0    0  501  503 -0.00000000000E+00 -0.00000000000E+00 -0.28954155803E+02  0.28954155803E+02  0.00000000000E+00 0. -1.
          6    1    1    2  501    0 -0.54626350063E+01  0.18904078253E+02  0.26963546349E+03  0.32042860005E+03  0.17200000000E+03 0.  1.
         -6    1    1    2    0  502  0.54626350063E+01 -0.18904078253E+02  0.21025890877E+04  0.21097042628E+04  0.17200000000E+03 0.  1.
</event>
<event>
 4    1  0.6129841E-001  0.1737391E+03  0.7818608E-02  0.1174004E+00
         21   -1    0    0  501  502  0.00000000000E+00  0.00000000000E+00  0.10158125848E+04  0.10158125848E+04  0.00000000000E+00 0. -1.
         21   -1    0    0  502  503 -0.00000000000E+00 -0.00000000000E+00 -0.32068655705E+02  0.32068655705E+02  0.00000000000E+00 0. -1.
          6    1    1    2  501    0 -0.22044264099E+02 -0.10739680474E+02  0.63380224741E+03  0.65718382446E+03  0.17200000000E+03 0.  1.
         -6    1    1    2    0  503  0.22044264099E+02  0.10739680474E+02  0.34994168165E+03  0.39069741600E+03  0.17200000000E+03 0.  1.
</event>
<event>
 4    1  0.6129841E-001  0.1875580E+03  0.7818608E-02  0.1160682E+00
         21   -1    0    0  503  502  0.00000000000E+00  0.00000000000E+00  0.24459664049E+03  0.24459664049E+03  0.00000000000E+00 0.  1.
         21   -1    0    0  501  503 -0.00000000000E+00 -0.00000000000E+00 -0.15085828069E+03  0.15085828069E+03  0.00000000000E+00 0. -1.
          6    1    1    2  501    0 -0.29972599823E+02  0.68524902413E+02  0.41621582183E+01  0.18760421784E+03  0.17200000000E+03 0. -1.
         -6    1    1    2    0  502  0.29972599823E+02 -0.68524902413E+02  0.89576201576E+02  0.20785070334E+03  0.17200000000E+03 0.  1.
</event>
<event>
 4    1  0.6129841E-001  0.1933173E+03  0.7818608E-02  0.1155503E+00
         21   -1    0    0  501  502  0.00000000000E+00  0.00000000000E+00  0.96869699264E+02  0.96869699264E+02  0.00000000000E+00 0. -1.
         21   -1    0    0  502  503 -0.00000000000E+00 -0.00000000000E+00 -0.45968649047E+03  0.45968649047E+03  0.00000000000E+00 0. -1.
          6    1    1    2  501    0 -0.29400220032E+02 -0.83205890451E+02 -0.69836959289E+02  0.20554511433E+03  0.17200000000E+03 0. -1.
         -6    1    1    2    0  503  0.29400220032E+02  0.83205890451E+02 -0.29297983192E+03  0.35101107540E+03  0.17200000000E+03 0. -1.
</event>
<event>
 4    1  0.6129841E-001  0.1772174E+03  0.7818608E-02  0.1170524E+00
         21   -1    0    0  501  502  0.00000000000E+00  0.00000000000E+00  0.10387503124E+03  0.10387503124E+03  0.00000000000E+00 0. -1.
         21   -1    0    0  502  503 -0.00000000000E+00 -0.00000000000E+00 -0.30313330129E+03  0.30313330129E+03  0.00000000000E+00 0. -1.
          6    1    1    2  501    0 -0.41824781049E+02 -0.85252120266E+01 -0.89244762501E+02  0.19842030940E+03  0.17200000000E+03 0.  1.
         -6    1    1    2    0  503  0.41824781049E+02  0.85252120266E+01 -0.11001350754E+03  0.20858802313E+03  0.17200000000E+03 0.  1.
</event>
<event>
 4    1  0.6129841E-001  0.1759928E+03  0.7818608E-02  0.1171739E+00
         21   -1    0    0  503  502  0.00000000000E+00  0.00000000000E+00  0.35870203275E+03  0.35870203275E+03  0.00000000000E+00 0. -1.
         21   -1    0    0  501  503 -0.00000000000E+00 -0.00000000000E+00 -0.11900941829E+03  0.11900941829E+03  0.00000000000E+00 0. -1.
          6    1    1    2  501    0  0.36075185972E+02 -0.93830701383E+01 -0.52826222546E+01  0.17607205101E+03  0.17200000000E+03 0. -1.
         -6    1    1    2    0  502 -0.36075185972E+02  0.93830701383E+01  0.24497523671E+03  0.30163940003E+03  0.17200000000E+03 0. -1.
</event>
<event>
 4    1  0.6129841E-001  0.2734201E+03  0.7818608E-02  0.1099338E+00
         21   -1    0    0  501  502  0.00000000000E+00  0.00000000000E+00  0.10312807351E+03  0.10312807351E+03  0.00000000000E+00 0.  1.
         21   -1    0    0  502  503 -0.00000000000E+00 -0.00000000000E+00 -0.80632747408E+03  0.80632747408E+03  0.00000000000E+00 0. -1.
          6    1    1    2  501    0  0.71170865351E+02  0.20027297130E+03 -0.20710397644E+03  0.34300235009E+03  0.17200000000E+03 0. -1.
         -6    1    1    2    0  503 -0.71170865351E+02 -0.20027297130E+03 -0.49609542413E+03  0.56645319750E+03  0.17200000000E+03 0. -1.
</event>
<event>
 4    1  0.6129841E-001  0.1724610E+03  0.7818608E-02  0.1175305E+00
         21   -1    0    0  501  502  0.00000000000E+00  0.00000000000E+00  0.18196623908E+03  0.18196623908E+03  0.00000000000E+00 0.  1.
         21   -1    0    0  502  503 -0.00000000000E+00 -0.00000000000E+00 -0.16383280760E+03  0.16383280760E+03  0.00000000000E+00 0.  1.
          6    1    1    2  501    0  0.68836016936E+01 -0.10556006438E+02  0.17398431120E+02  0.17333643197E+03  0.17200000000E+03 0.  1.
         -6    1    1    2    0  503 -0.68836016936E+01  0.10556006438E+02  0.73500035938E+00  0.17246261470E+03  0.17200000000E+03 0.  1.
</event>
<event>
 4    1  0.6129841E-001  0.2023882E+03  0.7818608E-02  0.1147740E+00
         21   -1    0    0  503  502  0.00000000000E+00  0.00000000000E+00  0.46530367194E+02  0.46530367194E+02  0.00000000000E+00 0. -1.
         21   -1    0    0  501  503 -0.00000000000E+00 -0.00000000000E+00 -0.94538973551E+03  0.94538973551E+03  0.00000000000E+00 0. -1.
          6    1    1    2  501    0  0.68411330201E+02 -0.81834543646E+02 -0.31930055132E+03  0.37803947507E+03  0.17200000000E+03 0.  1.
         -6    1    1    2    0  502 -0.68411330201E+02  0.81834543646E+02 -0.57955881700E+03  0.61388062764E+03  0.17200000000E+03 0.  1.
</event>
<event>
 4    1  0.6129841E-001  0.1777295E+03  0.7818608E-02  0.1170019E+00
         21   -1    0    0  503  502  0.00000000000E+00  0.00000000000E+00  0.24322773443E+02  0.24322773443E+02  0.00000000000E+00 0.  1.
         21   -1    0    0  501  503 -0.00000000000E+00 -0.00000000000E+00 -0.14000475682E+04  0.14000475682E+04  0.00000000000E+00 0.  1.
          6    1    1    2  501    0  0.43629732921E+02  0.10010863651E+02 -0.87948517242E+03  0.89726358418E+03  0.17200000000E+03 0.  1.
         -6    1    1    2    0  502 -0.43629732921E+02 -0.10010863651E+02 -0.49623962231E+03  0.52710675744E+03  0.17200000000E+03 0.  1.
</event>
<event>
 4    1  0.6129841E-001  0.1732189E+03  0.7818608E-02  0.1174532E+00
         21   -1    0    0  501  502  0.00000000000E+00  0.00000000000E+00  0.33476923268E+02  0.33476923268E+02  0.00000000000E+00 0.  1.
         21   -1    0    0  502  503 -0.00000000000E+00 -0.00000000000E+00 -0.95326866136E+03  0.95326866136E+03  0.00000000000E+00 0.  1.
          6    1    1    2  501    0 -0.18887975438E+02  0.80011717485E+01 -0.33926653346E+03  0.38092854328E+03  0.17200000000E+03 0.  1.
         -6    1    1    2    0  503  0.18887975438E+02 -0.80011717485E+01 -0.58052520463E+03  0.60581704134E+03  0.17200000000E+03 0.  1.
</event>
<event>
 4    1  0.6129841E-001  0.2492856E+03  0.7818608E-02  0.1113757E+00
         21   -1    0    0  503  502  0.00000000000E+00  0.00000000000E+00  0.20577517645E+03  0.20577517645E+03  0.00000000000E+00 0. -1.
         21   -1    0    0  501  503 -0.00000000000E+00 -0.00000000000E+00 -0.30382268161E+03  0.30382268161E+03  0.00000000000E+00 0. -1.
          6    1    1    2  501    0  0.13647284184E+03 -0.11804430079E+03 -0.29267196855E+02  0.25099773370E+03  0.17200000000E+03 0. -1.
         -6    1    1    2    0  502 -0.13647284184E+03  0.11804430079E+03 -0.68780308313E+02  0.25860012436E+03  0.17200000000E+03 0. -1.
</event>
<event>
 4    1  0.6129841E-001  0.1807495E+03  0.7818608E-02  0.1167080E+00
         21   -1    0    0  501  502  0.00000000000E+00  0.00000000000E+00  0.22526963638E+03  0.22526963638E+03  0.00000000000E+00 0. -1.
         21   -1    0    0  502  503 -0.00000000000E+00 -0.00000000000E+00 -0.16936461938E+03  0.16936461938E+03  0.00000000000E+00 0. -1.
          6    1    1    2  501    0 -0.55455289543E+02 -0.33309749746E+01  0.10274954114E+03  0.20791308938E+03  0.17200000000E+03 0. -1.
         -6    1    1    2    0  503  0.55455289543E+02  0.33309749746E+01 -0.46844524134E+02  0.18672116638E+03  0.17200000000E+03 0. -1.
</event>
<event>
 4    1  0.6129841E-001  0.1790734E+03  0.7818608E-02  0.1168703E+00
         21   -1    0    0  501  502  0.00000000000E+00  0.00000000000E+00  0.54913577407E+03  0.54913577407E+03  0.00000000000E+00 0. -1.
         21   -1    0    0  502  503 -0.00000000000E+00 -0.00000000000E+00 -0.12479403748E+03  0.12479403748E+03  0.00000000000E+00 0. -1.
          6    1    1    2  501    0  0.49032599757E+02  0.88930381443E+01  0.45796169932E+03  0.49172777023E+03  0.17200000000E+03 0. -1.
         -6    1    1    2    0  503 -0.49032599757E+02 -0.88930381443E+01 -0.33619962728E+02  0.18220204132E+03  0.17200000000E+03 0. -1.
</event>
<event>
 4    1  0.6129841E-001  0.1870550E+03  0.7818608E-02  0.1161145E+00
         21   -1    0    0  503  502  0.00000000000E+00  0.00000000000E+00  0.71838452213E+03  0.71838452213E+03  0.00000000000E+00 0. -1.
         21   -1    0    0  501  503 -0.00000000000E+00 -0.00000000000E+00 -0.61460018276E+02  0.61460018276E+02  0.00000000000E+00 0. -1.
          6    1    1    2  501    0  0.42222207802E+02 -0.60190316006E+02  0.15083633101E+03  0.24029396107E+03  0.17200000000E+03 0. -1.
         -6    1    1    2    0  502 -0.42222207802E+02  0.60190316006E+02  0.50608817285E+03  0.53955057934E+03  0.17200000000E+03 0. -1.
</event>
<event>
 4    1  0.6129841E-001  0.2904551E+03  0.7818608E-02  0.1090112E+00
         21   -1    0    0  503  502  0.00000000000E+00  0.00000000000E+00  0.34110384450E+03  0.34110384450E+03  0.00000000000E+00 0.  1.
         21   -1    0    0  501  503 -0.00000000000E+00 -0.00000000000E+00 -0.28263743764E+03  0.28263743764E+03  0.00000000000E+00 0.  1.
          6    1    1    2  501    0  0.10540115125E+03  0.20897553687E+03 -0.80999746913E+02  0.30153795233E+03  0.17200000000E+03 0.  1.
         -6    1    1    2    0  502 -0.10540115125E+03 -0.20897553687E+03  0.13946615377E+03  0.32220332981E+03  0.17200000000E+03 0.  1.
</event>
<event>
 4    1  0.6129841E-001  0.3941385E+03  0.7818608E-02  0.1045828E+00
         21   -1    0    0  501  502  0.00000000000E+00  0.00000000000E+00  0.52741516073E+03  0.52741516073E+03  0.00000000000E+00 0. -1.
         21   -1    0    0  502  503 -0.00000000000E+00 -0.00000000000E+00 -0.33355818629E+03  0.33355818629E+03  0.00000000000E+00 0.  1.
          6    1    1    2  501    0  0.78643541039E+02 -0.34579808478E+03  0.24416133064E+03  0.46363765741E+03  0.17200000000E+03 0.  1.
         -6    1    1    2    0  503 -0.78643541039E+02  0.34579808478E+03 -0.50304356200E+02  0.39733568961E+03  0.17200000000E+03 0.  1.
</event>
<event>
 4    1  0.6129841E-001  0.1739400E+03  0.7818608E-02  0.1173800E+00
         21   -1    0    0  503  502  0.00000000000E+00  0.00000000000E+00  0.48222421217E+03  0.48222421217E+03  0.00000000000E+00 0. -1.
         21   -1    0    0  501  503 -0.00000000000E+00 -0.00000000000E+00 -0.89262614531E+02  0.89262614531E+02  0.00000000000E+00 0. -1.
          6    1    1    2  501    0 -0.10139994981E+02 -0.23839105552E+02  0.40725360242E+02  0.17864399631E+03  0.17200000000E+03 0. -1.
         -6    1    1    2    0  502  0.10139994981E+02  0.23839105552E+02  0.35223623739E+03  0.39284283039E+03  0.17200000000E+03 0. -1.
</event>
<event>
 4    1  0.6129841E-001  0.1727842E+03  0.7818608E-02  0.1174975E+00
         21   -1    0    0  503  502  0.00000000000E+00  0.00000000000E+00  0.36563686592E+02  0.36563686592E+02  0.00000000000E+00 0. -1.
         21   -1    0    0  501  503 -0.00000000000E+00 -0.00000000000E+00 -0.10789421657E+04  0.10789421657E+04  0.00000000000E+00 0. -1.
          6    1    1    2  501    0 -0.19332958039E+01  0.16328712970E+02 -0.79626795789E+03  0.81479876366E+03  0.17200000000E+03 0. -1.
         -6    1    1    2    0  502  0.19332958039E+01 -0.16328712970E+02 -0.24611052123E+03  0.30070708864E+03  0.17200000000E+03 0. -1.
</event>
<event>
 4    1  0.6129841E-001  0.1894773E+03  0.7818608E-02  0.1158934E+00
         21   -1    0    0  501  502  0.00000000000E+00  0.00000000000E+00  0.51057620489E+03  0.51057620489E+03  0.00000000000E+00 0. -1.
         21   -1    0    0  502  503 -0.00000000000E+00 -0.00000000000E+00 -0.15126936741E+03  0.15126936741E+03  0.00000000000E+00 0. -1.
          6    1    1    2  501    0 -0.41474049707E+02  0.67805113641E+02  0.42173897514E+03  0.46234769751E+03  0.17200000000E+03 0. -1.
         -6    1    1    2    0  503  0.41474049707E+02 -0.67805113641E+02 -0.62432137663E+02  0.19949787480E+03  0.17200000000E+03 0. -1.
</event>
<event>
 4    1  0.6129841E-001  0.2282562E+03  0.7818608E-02  0.1127873E+00
         21   -1    0    0  501  502  0.00000000000E+00  0.00000000000E+00  0.11405105536E+04  0.11405105536E+04  0.00000000000E+00 0. -1.
         21   -1    0    0  502  503 -0.00000000000E+00 -0.00000000000E+00 -0.54135542672E+02  0.54135542672E+02  0.00000000000E+00 0. -1.
          6    1    1    2  501    0 -0.86968710683E+02  0.12228390373E+03  0.77922717506E+03  0.81197038129E+03  0.17200000000E+03 0. -1.
         -6    1    1    2    0  503  0.86968710683E+02 -0.12228390373E+03  0.30714783585E+03  0.38267571496E+03  0.17200000000E+03 0. -1.
</event>
<event>
 4    1  0.6129841E-001  0.1777771E+03  0.7818608E-02  0.1169972E+00
         21   -1    0    0  501  502  0.00000000000E+00  0.00000000000E+00  0.82089329816E+03  0.82089329816E+03  0.00000000000E+00 0. -1.
         21   -1    0    0  502  503 -0.00000000000E+00 -0.00000000000E+00 -0.41888194598E+02  0.41888194598E+02  0.00000000000E+00 0. -1.
          6    1    1    2  501    0  0.29451085270E+02 -0.33960840175E+02  0.51218564855E+03  0.54216127090E+03  0.17200000000E+03 0. -1.
         -6    1    1    2    0  503 -0.29451085270E+02  0.33960840175E+02  0.26681945502E+03  0.32062022186E+03  0.17200000000E+03 0. -1.
</event>
<event>
 4    1  0.6129841E-001  0.1811226E+03  0.7818608E-02  0.1166721E+00
         21   -1    0    0  501  502  0.00000000000E+00  0.00000000000E+00  0.74785482169E+02  0.74785482169E+02  0.00000000000E+00 0.  1.
         21   -1    0    0  502  503 -0.00000000000E+00 -0.00000000000E+00 -0.48716581273E+03  0.48716581273E+03  0.00000000000E+00 0.  1.
          6    1    1    2  501    0 -0.56733957143E+02 -0.16296670007E+01 -0.11753025543E+03  0.21591377596E+03  0.17200000000E+03 0. -1.
         -6    1    1    2    0  503  0.56733957143E+02  0.16296670007E+01 -0.29485007513E+03  0.34603751894E+03  0.17200000000E+03 0. -1.
</event>
<event>
 4    1  0.6129841E-001  0.1922748E+03  0.7818608E-02  0.1156425E+00
         21   -1    0    0  503  502  0.00000000000E+00  0.00000000000E+00  0.24099880142E+03  0.24099880142E+03  0.00000000000E+00 0. -1.
         21   -1    0    0  501  503 -0.00000000000E+00 -0.00000000000E+00 -0.15369633882E+03  0.15369633882E+03  0.00000000000E+00 0. -1.
          6    1    1    2  501    0 -0.14756488050E+02  0.84663069861E+02  0.35008389013E+02  0.19543586324E+03  0.17200000000E+03 0. -1.
         -6    1    1    2    0  502  0.14756488050E+02 -0.84663069861E+02  0.52294073594E+02  0.19925927700E+03  0.17200000000E+03 0. -1.
</event>
<event>
 4    1  0.6129841E-001  0.2093141E+03  0.7818608E-02  0.1142110E+00
         21   -1    0    0  503  502  0.00000000000E+00  0.00000000000E+00  0.98182248531E+03  0.98182248531E+03  0.00000000000E+00 0.  1.
         21   -1    0    0  501  503 -0.00000000000E+00 -0.00000000000E+00 -0.61566281542E+02  0.61566281542E+02  0.00000000000E+00 0.  1.
          6    1    1    2  501    0 -0.11921843053E+03  0.39200640792E+01  0.18645226050E+03  0.28031561948E+03  0.17200000000E+03 0.  1.
         -6    1    1    2    0  502  0.11921843053E+03 -0.39200640792E+01  0.73380394327E+03  0.76307314737E+03  0.17200000000E+03 0.  1.
</event>
<event>
 4    1  0.6129841E-001  0.2349842E+03  0.7818608E-02  0.1123180E+00
         21   -1    0    0  501  502  0.00000000000E+00  0.00000000000E+00  0.32788411779E+03  0.32788411779E+03  0.00000000000E+00 0. -1.
         21   -1    0    0  502  503 -0.00000000000E+00 -0.00000000000E+00 -0.20302345837E+03  0.20302345837E+03  0.00000000000E+00 0.  1.
          6    1    1    2  501    0 -0.93789626201E+02 -0.12975769869E+03  0.17204414341E+03  0.29123313965E+03  0.17200000000E+03 0.  1.
         -6    1    1    2    0  503  0.93789626201E+02  0.12975769869E+03 -0.47183483994E+02  0.23967443650E+03  0.17200000000E+03 0.  1.
</event>
<event>
 4    1  0.6129841E-001  0.1978196E+03  0.7818608E-02  0.1151592E+00
         21   -1    0    0  501  502  0.00000000000E+00  0.00000000000E+00  0.21832530889E+03  0.21832530889E+03  0.00000000000E+00 0.  1.
         21   -1    0    0  502  503 -0.00000000000E+00 -0.00000000000E+00 -0.17939515574E+03  0.17939515574E+03  0.00000000000E+00 0.  1.
          6    1    1    2  501    0  0.59546887483E+02 -0.77477606842E+02  0.25314801187E+02  0.19943282210E+03  0.17200000000E+03 0.  1.
         -6    1    1    2    0  503 -0.59546887483E+02  0.77477606842E+02  0.13615351958E+02  0.19828764253E+03  0.17200000000E+03 0.  1.
</event>
<event>
 4    1  0.6129841E-001  0.2014355E+03  0.7818608E-02  0.1148534E+00
         21   -1    0    0  503  502  0.00000000000E+00  0.00000000000E+00  0.39261458976E+03  0.39261458976E+03  0.00000000000E+00 0. -1.
         21   -1    0    0  501  503 -0.00000000000E+00 -0.00000000000E+00 -0.17871706999E+03  0.17871706999E+03  0.00000000000E+00 0. -1.
          6    1    1    2  501    0 -0.10377665103E+03 -0.14921853113E+02 -0.78562164583E+02  0.21621347947E+03  0.17200000000E+03 0. -1.
         -6    1    1    2    0  502  0.10377665103E+03  0.14921853113E+02  0.29245968436E+03  0.35511818029E+03  0.17200000000E+03 0. -1.
</event>
<event>
 4    1  0.6129841E-001  0.1898948E+03  0.7818608E-02  0.1158556E+00
         21   -1    0    0  503  502  0.00000000000E+00  0.00000000000E+00  0.19192357017E+03  0.19192357017E+03  0.00000000000E+00 0.  1.
         21   -1    0    0  501  503 -0.00000000000E+00 -0.00000000000E+00 -0.20345756992E+03  0.20345756992E+03  0.00000000000E+00 0.  1.
          6    1    1    2  501    0  0.20236645325E+02  0.77887921498E+02 -0.60455190813E+02  0.19928592581E+03  0.17200000000E+03 0. -1.
         -6    1    1    2    0  502 -0.20236645325E+02 -0.77887921498E+02  0.48921191060E+02  0.19609521428E+03  0.17200000000E+03 0. -1.
</event>
<event>
 4    1  0.6129841E-001  0.2103059E+03  0.7818608E-02  0.1141324E+00
         21   -1    0    0  503  502  0.00000000000E+00  0.00000000000E+00  0.95352934536E+02  0.95352934536E+02  0.00000000000E+00 0.  1.
         21   -1    0    0  501  503 -0.00000000000E+00 -0.00000000000E+00 -0.46527571265E+03  0.46527571265E+03  0.00000000000E+00 0.  1.
          6    1    1    2  501    0 -0.35257647093E+02 -0.11576472766E+03 -0.20052874567E+03  0.29058622075E+03  0.17200000000E+03 0. -1.
         -6    1    1    2    0  502  0.35257647093E+02  0.11576472766E+03 -0.16939403245E+03  0.27004242644E+03  0.17200000000E+03 0. -1.
</event>
<event>
 4    1  0.6129841E-001  0.2160413E+03  0.7818608E-02  0.1136869E+00
         21   -1    0    0  501  502  0.00000000000E+00  0.00000000000E+00  0.43116226940E+03  0.43116226940E+03  0.00000000000E+00 0. -1.
         21   -1    0    0  502  503 -0.00000000000E+00 -0.00000000000E+00 -0.11450079311E+03  0.11450079311E+03  0.00000000000E+00 0.  1.
          6    1    1    2  501    0 -0.93823803562E+02  0.91032643307E+02  0.22207116375E+03  0.30982164229E+03  0.17200000000E+03 0. -1.
         -6    1    1    2    0  503  0.93823803562E+02 -0.91032643307E+02  0.94590312535E+02  0.23584142021E+03  0.17200000000E+03 0.  1.
</event>
<event>
 4    1  0.6129841E-001  0.1853622E+03  0.7818608E-02  0.1162712E+00
         21   -1    0    0  503  502  0.00000000000E+00  0.00000000000E+00  0.21462123099E+03  0.21462123099E+03  0.00000000000E+00 0. -1.
         21   -1    0    0  501  503 -0.00000000000E+00 -0.00000000000E+00 -0.66237452440E+03  0.66237452440E+03  0.00000000000E+00 0. -1.
          6    1    1    2  501    0  0.89386339718E+01 -0.68521791673E+02 -0.60572395510E+03  0.63345137532E+03  0.17200000000E+03 0. -1.
         -6    1    1    2    0  502 -0.89386339718E+01  0.68521791673E+02  0.15797066168E+03  0.24354438007E+03  0.17200000000E+03 0. -1.
</event>
<event>
 4    1  0.6129841E-001  0.2255519E+03  0.7818608E-02  0.1129810E+00
         21   -1    0    0  503  502  0.00000000000E+00  0.00000000000E+00  0.72096332917E+03  0.72096332917E+03  0.00000000000E+00 0.  1.
         21   -1    0    0  501  503 -0.00000000000E+00 -0.00000000000E+00 -0.27390742376E+03  0.27390742376E+03  0.00000000000E+00 0.  1.
          6    1    1    2  501    0  0.11231980247E+03  0.93133909613E+02 -0.20507031829E+03  0.30484011972E+03  0.17200000000E+03 0.  1.
         -6    1    1    2    0  502 -0.11231980247E+03 -0.93133909613E+02  0.65212622369E+03  0.69003063322E+03  0.17200000000E+03 0.  1.
</event>
<event>
 4    1  0.6129841E-001  0.2033197E+03  0.7818608E-02  0.1146968E+00
         21   -1    0    0  503  502  0.00000000000E+00  0.00000000000E+00  0.19812939005E+02  0.19812939005E+02  0.00000000000E+00 0. -1.
         21   -1    0    0  501  503 -0.00000000000E+00 -0.00000000000E+00 -0.22393418773E+04  0.22393418773E+04  0.00000000000E+00 0. -1.
          6    1    1    2  501    0  0.78913083272E+02  0.74348034820E+02 -0.14049083480E+04  0.14195444238E+04  0.17200000000E+03 0. -1.
         -6    1    1    2    0  502 -0.78913083272E+02 -0.74348034820E+02 -0.81462059031E+03  0.83961039248E+03  0.17200000000E+03 0. -1.
</event>
<event>
 4    1  0.6129841E-001  0.2006048E+03  0.7818608E-02  0.1149230E+00
         21   -1    0    0  501  502  0.00000000000E+00  0.00000000000E+00  0.29805530953E+02  0.29805530953E+02  0.00000000000E+00 0.  1.
         21   -1    0    0  502  503 -0.00000000000E+00 -0.00000000000E+00 -0.18746413179E+04  0.18746413179E+04  0.00000000000E+00 0.  1.
          6    1    1    2  501    0  0.96751980313E+02  0.36018373818E+02 -0.41874994168E+03  0.46432077555E+03  0.17200000000E+03 0.  1.
         -6    1    1    2    0  503 -0.96751980313E+02 -0.36018373818E+02 -0.14260858453E+04  0.14401260733E+04  0.17200000000E+03 0.  1.
</event>
<event>
 4    1  0.6129841E-001  0.2439380E+03  0.7818608E-02  0.1117197E+00
         21   -1    0    0  503  502  0.00000000000E+00  0.00000000000E+00  0.10196280988E+03  0.10196280988E+03  0.00000000000E+00 0. -1.
         21   -1    0    0  501  503 -0.00000000000E+00 -0.00000000000E+00 -0.58610610585E+03  0.58610610585E+03  0.00000000000E+00 0.  1.
          6    1    1    2  501    0 -0.10379911632E+03 -0.13837453184E+03 -0.26455610779E+03  0.35985511220E+03  0.17200000000E+03 0.  1.
         -6    1    1    2    0  502  0.10379911632E+03  0.13837453184E+03 -0.21958718818E+03  0.32821380352E+03  0.17200000000E+03 0. -1.
</event>
<event>
 4    1  0.6129841E-001  0.1925908E+03  0.7818608E-02  0.1156145E+00
         21   -1    0    0  501  502  0.00000000000E+00  0.00000000000E+00  0.56962205031E+03  0.56962205031E+03  0.00000000000E+00 0. -1.
         21   -1    0    0  502  503 -0.00000000000E+00 -0.00000000000E+00 -0.65183187713E+02  0.65183187713E+02  0.00000000000E+00 0. -1.
          6    1    1    2  501    0  0.81740038456E+02  0.28736216110E+02  0.26245032783E+03  0.32553245396E+03  0.17200000000E+03 0. -1.
         -6    1    1    2    0  503 -0.81740038456E+02 -0.28736216110E+02  0.24198853476E+03  0.30927278406E+03  0.17200000000E+03 0. -1.
</event>
<event>
 4    1  0.6129841E-001  0.2017059E+03  0.7818608E-02  0.1148308E+00
         21   -1    0    0  503  502  0.00000000000E+00  0.00000000000E+00  0.15785555678E+03  0.15785555678E+03  0.00000000000E+00 0. -1.
         21   -1    0    0  501  503 -0.00000000000E+00 -0.00000000000E+00 -0.42210428700E+03  0.42210428700E+03  0.00000000000E+00 0. -1.
          6    1    1    2  501    0 -0.49856154203E+02 -0.92820497790E+02 -0.31307712479E+03  0.37242793530E+03  0.17200000000E+03 0. -1.
         -6    1    1    2    0  502  0.49856154203E+02  0.92820497790E+02  0.48828394568E+02  0.20753190848E+03  0.17200000000E+03 0. -1.
</event>
<event>
 4    1  0.6129841E-001  0.2049791E+03  0.7818608E-02  0.1145605E+00
         21   -1    0    0  501  502  0.00000000000E+00  0.00000000000E+00  0.15587899227E+03  0.15587899227E+03  0.00000000000E+00 0.  1.
         21   -1    0    0  502  503 -0.00000000000E+00 -0.00000000000E+00 -0.26954551722E+03  0.26954551722E+03  0.00000000000E+00 0.  1.
          6    1    1    2  501    0 -0.11129920535E+03 -0.67033854622E+01 -0.57027703990E+02  0.21276420636E+03  0.17200000000E+03 0.  1.
         -6    1    1    2    0  503  0.11129920535E+03  0.67033854622E+01 -0.56638820964E+02  0.21266030313E+03  0.17200000000E+03 0.  1.
</event>
<event>
 4    1  0.6129841E-001  0.2418115E+03  0.7818608E-02  0.1118592E+00
         21   -1    0    0  501  502  0.00000000000E+00  0.00000000000E+00  0.55711566110E+03  0.55711566110E+03  0.00000000000E+00 0. -1.
         21   -1    0    0  502  503 -0.00000000000E+00 -0.00000000000E+00 -0.56072289247E+03  0.56072289247E+03  0.00000000000E+00 0.  1.
          6    1    1    2  501    0 -0.12548044484E+03  0.11464490601E+03  0.50209851027E+03  0.55729319979E+03  0.17200000000E+03 0. -1.
         -6    1    1    2    0  503  0.12548044484E+03 -0.11464490601E+03 -0.50570574164E+03  0.56054535378E+03  0.17200000000E+03 0.  1.
</event>
<event>
 4    1  0.6129841E-001  0.1764729E+03  0.7818608E-02  0.1171261E+00
         21   -1    0    0  503  502  0.00000000000E+00  0.00000000000E+00  0.20799495107E+03  0.20799495107E+03  0.00000000000E+00 0. -1.
         21   -1    0    0  501  503 -0.00000000000E+00 -0.00000000000E+00 -0.15445105593E+03  0.15445105593E+03  0.00000000000E+00 0. -1.
          6    1    1    2  501    0 -0.33911053744E+02  0.20217082268E+02  0.58462118069E+02  0.18590457022E+03  0.17200000000E+03 0. -1.
         -6    1    1    2    0  502  0.33911053744E+02 -0.20217082268E+02 -0.49182229286E+01  0.17654143677E+03  0.17200000000E+03 0. -1.
</event>
<event>
 4    1  0.6129841E-001  0.2048323E+03  0.7818608E-02  0.1145725E+00
         21   -1    0    0  503  502  0.00000000000E+00  0.00000000000E+00  0.42356894660E+03  0.42356894660E+03  0.00000000000E+00 0.  1.
         21   -1    0    0  501  503 -0.00000000000E+00 -0.00000000000E+00 -0.10214112562E+03  0.10214112562E+03  0.00000000000E+00 0.  1.
          6    1    1    2  501    0  0.10592765184E+03 -0.33935219374E+02  0.11501752767E+03  0.23491551291E+03  0.17200000000E+03 0.  1.
         -6    1    1    2    0  502 -0.10592765184E+03  0.33935219374E+02  0.20641029331E+03  0.29079455931E+03  0.17200000000E+03 0.  1.
</event>
<event>
 4    1  0.6129841E-001  0.2925940E+03  0.7818608E-02  0.1089003E+00
         21   -1    0    0  503  502  0.00000000000E+00  0.00000000000E+00  0.99816506397E+02  0.99816506397E+02  0.00000000000E+00 0.  1.
         21   -1    0    0  501  503 -0.00000000000E+00 -0.00000000000E+00 -0.99272583584E+03  0.99272583584E+03  0.00000000000E+00 0.  1.
          6    1    1    2  501    0 -0.22800001089E+03  0.63586518048E+02 -0.24497831003E+03  0.38160925385E+03  0.17200000000E+03 0.  1.
         -6    1    1    2    0  502  0.22800001089E+03 -0.63586518048E+02 -0.64793101942E+03  0.71093308839E+03  0.17200000000E+03 0.  1.
</event>
<event>
 4    1  0.6129841E-001  0.1875536E+03  0.7818608E-02  0.1160687E+00
         21   -1    0    0  501  502  0.00000000000E+00  0.00000000000E+00  0.56973674532E+02  0.56973674532E+02  0.00000000000E+00 0. -1.
         21   -1    0    0  502  503 -0.00000000000E+00 -0.00000000000E+00 -0.94443179559E+03  0.94443179559E+03  0.00000000000E+00 0. -1.
          6    1    1    2  501    0 -0.73808215770E+02 -0.12028937895E+02 -0.73836133146E+03  0.76180955878E+03  0.17200000000E+03 0. -1.
         -6    1    1    2    0  503  0.73808215770E+02  0.12028937895E+02 -0.14909678961E+03  0.23959591134E+03  0.17200000000E+03 0. -1.
</event>
<event>
 4    1  0.6129841E-001  0.2502803E+03  0.7818608E-02  0.1113128E+00
         21   -1    0    0  503  502  0.00000000000E+00  0.00000000000E+00  0.11917185352E+04  0.11917185352E+04  0.00000000000E+00 0.  1.
         21   -1    0    0  501  503 -0.00000000000E+00 -0.00000000000E+00 -0.48412554170E+03  0.48412554170E+03  0.00000000000E+00 0.  1.
          6    1    1    2  501    0  0.18179628855E+03  0.25165116703E+01 -0.43733107263E+03  0.50388360804E+03  0.17200000000E+03 0.  1.
         -6    1    1    2    0  502 -0.18179628855E+03 -0.25165116703E+01  0.11449240661E+04  0.11719604688E+04  0.17200000000E+03 0.  1.
</event>
<event>
 4    1  0.6129841E-001  0.1809435E+03  0.7818608E-02  0.1166893E+00
         21   -1    0    0  501  502  0.00000000000E+00  0.00000000000E+00  0.56570088285E+02  0.56570088285E+02  0.00000000000E+00 0.  1.
         21   -1    0    0  502  503 -0.00000000000E+00 -0.00000000000E+00 -0.18812587717E+04  0.18812587717E+04  0.00000000000E+00 0.  1.
          6    1    1    2  501    0  0.22339916979E+02  0.51550804468E+02 -0.10613159593E+03  0.20977243142E+03  0.17200000000E+03 0.  1.
         -6    1    1    2    0  503 -0.22339916979E+02 -0.51550804468E+02 -0.17185570875E+04  0.17280564285E+04  0.17200000000E+03 0.  1.
</event>
<event>
 4    1  0.6129841E-001  0.2127542E+03  0.7818608E-02  0.1139403E+00
         21   -1    0    0  501  502  0.00000000000E+00  0.00000000000E+00  0.32905233056E+03  0.32905233056E+03  0.00000000000E+00 0.  1.
         21   -1    0    0  502  503 -0.00000000000E+00 -0.00000000000E+00 -0.13776703054E+03  0.13776703054E+03  0.00000000000E+00 0.  1.
          6    1    1    2  501    0  0.92765396513E+02 -0.84112733805E+02  0.86589922051E+02  0.22970020762E+03  0.17200000000E+03 0.  1.
         -6    1    1    2    0  503 -0.92765396513E+02  0.84112733805E+02  0.10469537797E+03  0.23711915348E+03  0.17200000000E+03 0.  1.
</event>
<event>
 4    1  0.6129841E-001  0.2184027E+03  0.7818608E-02  0.1135080E+00
         21   -1    0    0  503  502  0.00000000000E+00  0.00000000000E+00  0.92316185472E+03  0.92316185472E+03  0.00000000000E+00 0.  1.
         21   -1    0    0  501  503 -0.00000000000E+00 -0.00000000000E+00 -0.69325947096E+02  0.69325947096E+02  0.00000000000E+00 0.  1.
          6    1    1    2  501    0 -0.11673633251E+03  0.66995341234E+02  0.17648404526E+03  0.28079594959E+03  0.17200000000E+03 0.  1.
         -6    1    1    2    0  502  0.11673633251E+03 -0.66995341234E+02  0.67735186236E+03  0.71169185222E+03  0.17200000000E+03 0.  1.
</event>
<event>
 4    1  0.6129841E-001  0.1762101E+03  0.7818608E-02  0.1171522E+00
         21   -1    0    0  501  502  0.00000000000E+00  0.00000000000E+00  0.30469453827E+03  0.30469453827E+03  0.00000000000E+00 0.  1.
         21   -1    0    0  502  503 -0.00000000000E+00 -0.00000000000E+00 -0.10524605886E+03  0.10524605886E+03  0.00000000000E+00 0. -1.
          6    1    1    2  501    0  0.22308451015E+02 -0.31118282055E+02  0.13624207302E+03  0.22273732719E+03  0.17200000000E+03 0.  1.
         -6    1    1    2    0  503 -0.22308451015E+02  0.31118282055E+02  0.63206406383E+02  0.18720326993E+03  0.17200000000E+03 0. -1.
</event>
<event>
 4    1  0.6129841E-001  0.2322430E+03  0.7818608E-02  0.1125071E+00
         21   -1    0    0  503  502  0.00000000000E+00  0.00000000000E+00  0.89427799034E+03  0.89427799034E+03  0.00000000000E+00 0.  1.
         21   -1    0    0  501  503 -0.00000000000E+00 -0.00000000000E+00 -0.68340820323E+02  0.68340820323E+02  0.00000000000E+00 0. -1.
          6    1    1    2  501    0  0.15517458846E+03 -0.16542584047E+02  0.57792772162E+03  0.62284609769E+03  0.17200000000E+03 0. -1.
         -6    1    1    2    0  502 -0.15517458846E+03  0.16542584047E+02  0.24800944840E+03  0.33977271298E+03  0.17200000000E+03 0. -1.
</event>
<event>
 4    1  0.6129841E-001  0.2654348E+03  0.7818608E-02  0.1103921E+00
         21   -1    0    0  503  502  0.00000000000E+00  0.00000000000E+00  0.61464861253E+03  0.61464861253E+03  0.00000000000E+00 0.  1.
         21   -1    0    0  501  503 -0.00000000000E+00 -0.00000000000E+00 -0.13803693294E+03  0.13803693294E+03  0.00000000000E+00 0. -1.
          6    1    1    2  501    0  0.22560414449E+02  0.20090454778E+03  0.83323668172E+02  0.27820575712E+03  0.17200000000E+03 0. -1.
         -6    1    1    2    0  502 -0.22560414449E+02 -0.20090454778E+03  0.39328801143E+03  0.47447978835E+03  0.17200000000E+03 0.  1.
</event>
<event>
 4    1  0.6129841E-001  0.1992950E+03  0.7818608E-02  0.1150335E+00
         21   -1    0    0  503  502  0.00000000000E+00  0.00000000000E+00  0.10979914068E+03  0.10979914068E+03  0.00000000000E+00 0. -1.
         21   -1    0    0  501  503 -0.00000000000E+00 -0.00000000000E+00 -0.38818637778E+03  0.38818637778E+03  0.00000000000E+00 0. -1.
          6    1    1    2  501    0 -0.58010124466E+02 -0.82275944065E+02 -0.20418672443E+03  0.28532564544E+03  0.17200000000E+03 0. -1.
         -6    1    1    2    0  502  0.58010124466E+02  0.82275944065E+02 -0.74200512661E+02  0.21265987302E+03  0.17200000000E+03 0. -1.
</event>
<event>
 4    1  0.6129841E-001  0.1782261E+03  0.7818608E-02  0.1169531E+00
         21   -1    0    0  501  502  0.00000000000E+00  0.00000000000E+00  0.34829992561E+03  0.34829992561E+03  0.00000000000E+00 0. -1.
         21   -1    0    0  502  503 -0.00000000000E+00 -0.00000000000E+00 -0.92537591025E+02  0.92537591025E+02  0.00000000000E+00 0. -1.
          6    1    1    2  501    0 -0.67944227478E+01  0.46199422495E+02  0.15439293009E+03  0.23580018592E+03  0.17200000000E+03 0. -1.
         -6    1    1    2    0  503  0.67944227478E+01 -0.46199422495E+02  0.10136940450E+03  0.20503733072E+03  0.17200000000E+03 0. -1.
</event>
<event>
 4    1  0.6129841E-001  0.1868068E+03  0.7818608E-02  0.1161373E+00
         21   -1    0    0  503  502  0.00000000000E+00  0.00000000000E+00  0.12097544492E+03  0.12097544492E+03  0.00000000000E+00 0.  1.
         21   -1    0    0  501  503 -0.00000000000E+00 -0.00000000000E+00 -0.40984953949E+03  0.40984953949E+03  0.00000000000E+00 0.  1.
          6    1    1    2  501    0 -0.51846080769E+02  0.51232300274E+02 -0.28888020984E+03  0.34401822672E+03  0.17200000000E+03 0.  1.
         -6    1    1    2    0  502  0.51846080769E+02 -0.51232300274E+02  0.61152625267E-02  0.18680675769E+03  0.17200000000E+03 0.  1.
</event>
<event>
 4    1  0.6129841E-001  0.4757087E+03  0.7818608E-02  0.1020321E+00
         21   -1    0    0  501  502  0.00000000000E+00  0.00000000000E+00  0.32093398203E+03  0.32093398203E+03  0.00000000000E+00 0. -1.
         21   -1    0    0  502  503 -0.00000000000E+00 -0.00000000000E+00 -0.76977033726E+03  0.76977033726E+03  0.00000000000E+00 0.  1.
          6    1    1    2  501    0 -0.19641733814E+03 -0.39766186071E+03 -0.38245688258E+03  0.61038675708E+03  0.17200000000E+03 0.  1.
         -6    1    1    2    0  503  0.19641733814E+03  0.39766186071E+03 -0.66379472651E+02  0.48031756222E+03  0.17200000000E+03 0.  1.
</event>
<event>
 4    1  0.6129841E-001  0.3892832E+03  0.7818608E-02  0.1047555E+00
         21   -1    0    0  503  502  0.00000000000E+00  0.00000000000E+00  0.44020186589E+03  0.44020186589E+03  0.00000000000E+00 0. -1.
         21   -1    0    0  501  503 -0.00000000000E+00 -0.00000000000E+00 -0.47034896615E+03  0.47034896615E+03  0.00000000000E+00 0.  1.
          6    1    1    2  501    0 -0.12054782648E+03 -0.32775847115E+03  0.22065513141E+03  0.44747075982E+03  0.17200000000E+03 0. -1.
         -6    1    1    2    0  502  0.12054782648E+03  0.32775847115E+03 -0.25080223167E+03  0.46308007222E+03  0.17200000000E+03 0.  1.
</event>
<event>
 4    1  0.6129841E-001  0.1840052E+03  0.7818608E-02  0.1163982E+00
         21   -1    0    0  501  502  0.00000000000E+00  0.00000000000E+00  0.19790944906E+03  0.19790944906E+03  0.00000000000E+00 0.  1.
         21   -1    0    0  502  503 -0.00000000000E+00 -0.00000000000E+00 -0.22711302596E+03  0.22711302596E+03  0.00000000000E+00 0.  1.
          6    1    1    2  501    0 -0.40416778037E+01  0.65250159653E+02  0.90956256378E+02  0.20525827406E+03  0.17200000000E+03 0.  1.
         -6    1    1    2    0  503  0.40416778037E+01 -0.65250159653E+02 -0.12015983328E+03  0.21976420097E+03  0.17200000000E+03 0.  1.
</event>
<event>
 4    1  0.6129841E-001  0.2130424E+03  0.7818608E-02  0.1139179E+00
         21   -1    0    0  501  502  0.00000000000E+00  0.00000000000E+00  0.50277647777E+03  0.50277647777E+03  0.00000000000E+00 0. -1.
         21   -1    0    0  502  503 -0.00000000000E+00 -0.00000000000E+00 -0.92468329294E+02  0.92468329294E+02  0.00000000000E+00 0. -1.
          6    1    1    2  501    0 -0.12094483860E+03  0.34284358765E+02  0.25101392845E+03  0.32923405583E+03  0.17200000000E+03 0. -1.
         -6    1    1    2    0  503  0.12094483860E+03 -0.34284358765E+02  0.15929422003E+03  0.26601075124E+03  0.17200000000E+03 0. -1.
</event>
<event>
 4    1  0.6129841E-001  0.1753418E+03  0.7818608E-02  0.1172389E+00
         21   -1    0    0  501  502  0.00000000000E+00  0.00000000000E+00  0.17390200597E+03  0.17390200597E+03  0.00000000000E+00 0.  1.
         21   -1    0    0  502  503 -0.00000000000E+00 -0.00000000000E+00 -0.21065087537E+03  0.21065087537E+03  0.00000000000E+00 0.  1.
          6    1    1    2  501    0 -0.82978426779E+01  0.33043831470E+02  0.58710748869E+02  0.18490998087E+03  0.17200000000E+03 0.  1.
         -6    1    1    2    0  503  0.82978426779E+01 -0.33043831470E+02 -0.95459618262E+02  0.19964290048E+03  0.17200000000E+03 0.  1.
</event>
<event>
 4    1  0.6129841E-001  0.2652004E+03  0.7818608E-02  0.1104058E+00
         21   -1    0    0  501  502  0.00000000000E+00  0.00000000000E+00  0.32327946708E+03  0.32327946708E+03  0.00000000000E+00 0. -1.
         21   -1    0    0  502  503 -0.00000000000E+00 -0.00000000000E+00 -0.22329818398E+03  0.22329818398E+03  0.00000000000E+00 0.  1.
          6    1    1    2  501    0 -0.53487609065E+02  0.19464416015E+03  0.93816578006E+02  0.28130557000E+03  0.17200000000E+03 0.  1.
         -6    1    1    2    0  503  0.53487609065E+02 -0.19464416015E+03  0.61647050954E+01  0.26527208107E+03  0.17200000000E+03 0.  1.
</event>
<event>
 4    1  0.6129841E-001  0.3036947E+03  0.7818608E-02  0.1083408E+00
         21   -1    0    0  501  502  0.00000000000E+00  0.00000000000E+00  0.44263704498E+03  0.44263704498E+03  0.00000000000E+00 0.  1.
         21   -1    0    0  502  503 -0.00000000000E+00 -0.00000000000E+00 -0.20860900067E+03  0.20860900067E+03  0.00000000000E+00 0. -1.
          6    1    1    2  501    0 -0.11166960088E+03  0.22400084619E+03  0.12812919520E+03  0.32961730767E+03  0.17200000000E+03 0. -1.
         -6    1    1    2    0  503  0.11166960088E+03 -0.22400084619E+03  0.10589884911E+03  0.32162873798E+03  0.17200000000E+03 0.  1.
</event>
<event>
 4    1  0.6129841E-001  0.1834801E+03  0.7818608E-02  0.1164477E+00
         21   -1    0    0  501  502  0.00000000000E+00  0.00000000000E+00  0.11251453804E+03  0.11251453804E+03  0.00000000000E+00 0. -1.
         21   -1    0    0  502  503 -0.00000000000E+00 -0.00000000000E+00 -0.30216604843E+03  0.30216604843E+03  0.00000000000E+00 0. -1.
          6    1    1    2  501    0  0.59570743840E+02 -0.23071192252E+02 -0.74301998630E+02  0.19795388461E+03  0.17200000000E+03 0.  1.
         -6    1    1    2    0  503 -0.59570743840E+02  0.23071192252E+02 -0.11534951176E+03  0.21672670185E+03  0.17200000000E+03 0.  1.
</event>
<event>
 4    1  0.6129841E-001  0.3065222E+03  0.7818608E-02  0.1082025E+00
         21   -1    0    0  503  502  0.00000000000E+00  0.00000000000E+00  0.29545954231E+03  0.29545954231E+03  0.00000000000E+00 0.  1.
         21   -1    0    0  501  503 -0.00000000000E+00 -0.00000000000E+00 -0.32357177414E+03  0.32357177414E+03  0.00000000000E+00 0. -1.
          6    1    1    2  501    0  0.70232255353E+02  0.24380168772E+03 -0.54675550197E+02  0.31136031927E+03  0.17200000000E+03 0. -1.
         -6    1    1    2    0  502 -0.70232255353E+02 -0.24380168772E+03  0.26563318370E+02  0.30767099719E+03  0.17200000000E+03 0. -1.
</event>
<event>
 4    1  0.6129841E-001  0.1738870E+03  0.7818608E-02  0.1173854E+00
         21   -1    0    0  501  502  0.00000000000E+00  0.00000000000E+00  0.51846609147E+02  0.51846609147E+02  0.00000000000E+00 0.  1.
         21   -1    0    0  502  503 -0.00000000000E+00 -0.00000000000E+00 -0.61041743035E+03  0.61041743035E+03  0.00000000000E+00 0.  1.
          6    1    1    2  501    0 -0.13680739379E+01 -0.25511293237E+02 -0.20935776057E+03  0.27215320983E+03  0.17200000000E+03 0. -1.
         -6    1    1    2    0  503  0.13680739379E+01  0.25511293237E+02 -0.34921306063E+03  0.39011082967E+03  0.17200000000E+03 0. -1.
</event>
<event>
 4    1  0.6129841E-001  0.1722173E+03  0.7818608E-02  0.1175555E+00
         21   -1    0    0  503  502  0.00000000000E+00  0.00000000000E+00  0.56535821910E+02  0.56535821910E+02  0.00000000000E+00 0. -1.
         21   -1    0    0  501  503 -0.00000000000E+00 -0.00000000000E+00 -0.79421304003E+03  0.79421304003E+03  0.00000000000E+00 0. -1.
          6    1    1    2  501    0  0.52957037729E+01 -0.68365832777E+01 -0.12099825420E+03  0.21047413349E+03  0.17200000000E+03 0. -1.
         -6    1    1    2    0  502 -0.52957037729E+01  0.68365832777E+01 -0.61667896391E+03  0.64027472844E+03  0.17200000000E+03 0. -1.
</event>
<event>
 4    1  0.6129841E-001  0.2327343E+03  0.7818608E-02  0.1124730E+00
         21   -1    0    0  501  502  0.00000000000E+00  0.00000000000E+00  0.28691703117E+03  0.28691703117E+03  0.00000000000E+00 0.  1.
         21   -1    0    0  502  503 -0.00000000000E+00 -0.00000000000E+00 -0.20801247175E+03  0.20801247175E+03  0.00000000000E+00 0. -1.
          6    1    1    2  501    0  0.93464974541E+02  0.12587919411E+03  0.11469142818E+03  0.25945981707E+03  0.17200000000E+03 0. -1.
         -6    1    1    2    0  503 -0.93464974541E+02 -0.12587919411E+03 -0.35786868755E+02  0.23546968584E+03  0.17200000000E+03 0.  1.
</event>
<event>
 4    1  0.6129841E-001  0.2088605E+03  0.7818608E-02  0.1142472E+00
         21   -1    0    0  501  502  0.00000000000E+00  0.00000000000E+00  0.57356835011E+03  0.57356835011E+03  0.00000000000E+00 0. -1.
         21   -1    0    0  502  503 -0.00000000000E+00 -0.00000000000E+00 -0.76642887104E+02  0.76642887104E+02  0.00000000000E+00 0. -1.
          6    1    1    2  501    0  0.69956433197E+02  0.95628523739E+02  0.27693688493E+03  0.34686705715E+03  0.17200000000E+03 0. -1.
         -6    1    1    2    0  503 -0.69956433197E+02 -0.95628523739E+02  0.21998857807E+03  0.30334418007E+03  0.17200000000E+03 0. -1.
</event>
<event>
 4    1  0.6129841E-001  0.1742734E+03  0.7818608E-02  0.1173463E+00
         21   -1    0    0  503  502  0.00000000000E+00  0.00000000000E+00  0.61848943547E+03  0.61848943547E+03  0.00000000000E+00 0.  1.
         21   -1    0    0  501  503 -0.00000000000E+00 -0.00000000000E+00 -0.49117421196E+02  0.49117421196E+02  0.00000000000E+00 0.  1.
          6    1    1    2  501    0 -0.15463976131E+02 -0.23411014687E+02  0.28989439826E+03  0.33824543206E+03  0.17200000000E+03 0.  1.
         -6    1    1    2    0  502  0.15463976131E+02  0.23411014687E+02  0.27947761602E+03  0.32936142461E+03  0.17200000000E+03 0.  1.
</event>
<event>
 4    1  0.6129841E-001  0.1945977E+03  0.7818608E-02  0.1154379E+00
         21   -1    0    0  503  502  0.00000000000E+00  0.00000000000E+00  0.23513737597E+03  0.23513737597E+03  0.00000000000E+00 0. -1.
         21   -1    0    0  501  503 -0.00000000000E+00 -0.00000000000E+00 -0.16446468687E+03  0.16446468687E+03  0.00000000000E+00 0. -1.
          6    1    1    2  501    0 -0.51529166513E+02  0.75026801180E+02  0.65359365535E+01  0.19470745842E+03  0.17200000000E+03 0. -1.
         -6    1    1    2    0  502  0.51529166513E+02 -0.75026801180E+02  0.64136752543E+02  0.20489460443E+03  0.17200000000E+03 0. -1.
</event>
<event>
 4    1  0.6129841E-001  0.1970193E+03  0.7818608E-02  0.1152278E+00
         21   -1    0    0  501  502  0.00000000000E+00  0.00000000000E+00  0.16100129830E+03  0.16100129830E+03  0.00000000000E+00 0. -1.
         21   -1    0    0  502  503 -0.00000000000E+00 -0.00000000000E+00 -0.37547337787E+03  0.37547337787E+03  0.00000000000E+00 0.  1.
          6    1    1    2  501    0 -0.82661690437E+02  0.48986255649E+02  0.53234143974E+02  0.20408449817E+03  0.17200000000E+03 0. -1.
         -6    1    1    2    0  503  0.82661690437E+02 -0.48986255649E+02 -0.26770622355E+03  0.33239017800E+03  0.17200000000E+03 0.  1.
</event>
<event>
 4    1  0.6129841E-001  0.1901419E+03  0.7818608E-02  0.1158333E+00
         21   -1    0    0  503  502  0.00000000000E+00  0.00000000000E+00  0.79326618528E+03  0.79326618528E+03  0.00000000000E+00 0. -1.
         21   -1    0    0  501  503 -0.00000000000E+00 -0.00000000000E+00 -0.48136935526E+02  0.48136935526E+02  0.00000000000E+00 0. -1.
          6    1    1    2  501    0  0.24795265990E+02 -0.77169557775E+02  0.46959982083E+03  0.50663392858E+03  0.17200000000E+03 0. -1.
         -6    1    1    2    0  502 -0.24795265990E+02  0.77169557775E+02  0.27552942893E+03  0.33476919223E+03  0.17200000000E+03 0. -1.
</event>
<event>
 4    1  0.6129841E-001  0.2241983E+03  0.7818608E-02  0.1130791E+00
         21   -1    0    0  503  502  0.00000000000E+00  0.00000000000E+00  0.10956469122E+03  0.10956469122E+03  0.00000000000E+00 0. -1.
         21   -1    0    0  501  503 -0.00000000000E+00 -0.00000000000E+00 -0.60875792098E+03  0.60875792098E+03  0.00000000000E+00 0.  1.
          6    1    1    2  501    0 -0.13539437909E+03 -0.48468930840E+02 -0.42787427884E+03  0.48305411046E+03  0.17200000000E+03 0.  1.
         -6    1    1    2    0  502  0.13539437909E+03  0.48468930840E+02 -0.71318950926E+02  0.23526850173E+03  0.17200000000E+03 0. -1.
</event>
<event>
 4    1  0.6129841E-001  0.1864252E+03  0.7818608E-02  0.1161726E+00
         21   -1    0    0  503  502  0.00000000000E+00  0.00000000000E+00  0.11974708439E+04  0.11974708439E+04  0.00000000000E+00 0.  1.
         21   -1    0    0  501  503 -0.00000000000E+00 -0.00000000000E+00 -0.18897893628E+03  0.18897893628E+03  0.00000000000E+00 0. -1.
          6    1    1    2  501    0  0.56467227941E+02 -0.44517655822E+02 -0.13352895931E+03  0.22931278309E+03  0.17200000000E+03 0. -1.
         -6    1    1    2    0  502 -0.56467227941E+02  0.44517655822E+02  0.11420208670E+04  0.11571369971E+04  0.17200000000E+03 0.  1.
</event>
<event>
 4    1  0.6129841E-001  0.2006724E+03  0.7818608E-02  0.1149173E+00
         21   -1    0    0  501  502  0.00000000000E+00  0.00000000000E+00  0.20993183283E+03  0.20993183283E+03  0.00000000000E+00 0. -1.
         21   -1    0    0  502  503 -0.00000000000E+00 -0.00000000000E+00 -0.53527114326E+03  0.53527114326E+03  0.00000000000E+00 0. -1.
          6    1    1    2  501    0 -0.89817987269E+02 -0.51167598768E+02  0.13579254764E+03  0.24229942219E+03  0.17200000000E+03 0. -1.
         -6    1    1    2    0  503  0.89817987269E+02  0.51167598768E+02 -0.46113185806E+03  0.50290355389E+03  0.17200000000E+03 0. -1.
</event>
<event>
 4    1  0.6129841E-001  0.1917856E+03  0.7818608E-02  0.1156861E+00
         21   -1    0    0  503  502  0.00000000000E+00  0.00000000000E+00  0.63873256877E+03  0.63873256877E+03  0.00000000000E+00 0.  1.
         21   -1    0    0  501  503 -0.00000000000E+00 -0.00000000000E+00 -0.11923092554E+03  0.11923092554E+03  0.00000000000E+00 0. -1.
          6    1    1    2  501    0  0.27864487581E+02 -0.80132981930E+02 -0.12754079657E+02  0.19220923757E+03  0.17200000000E+03 0. -1.
         -6    1    1    2    0  502 -0.27864487581E+02  0.80132981930E+02  0.53225572289E+03  0.56575425673E+03  0.17200000000E+03 0.  1.
</event>
<event>
 4    1  0.6129841E-001  0.3119655E+03  0.7818608E-02  0.1079408E+00
         21   -1    0    0  501  502  0.00000000000E+00  0.00000000000E+00  0.13302178445E+04  0.13302178445E+04  0.00000000000E+00 0. -1.
         21   -1    0    0  502  503 -0.00000000000E+00 -0.00000000000E+00 -0.10484911552E+03  0.10484911552E+03  0.00000000000E+00 0.  1.
          6    1    1    2  501    0 -0.20707058148E+03  0.15767132598E+03  0.10071376709E+04  0.10543475523E+04  0.17200000000E+03 0. -1.
         -6    1    1    2    0  503  0.20707058148E+03 -0.15767132598E+03  0.21823105807E+03  0.38071940778E+03  0.17200000000E+03 0. -1.
</event>
<event>
 4    1  0.6129841E-001  0.2531801E+03  0.7818608E-02  0.1111311E+00
         21   -1    0    0  503  502  0.00000000000E+00  0.00000000000E+00  0.14066266262E+03  0.14066266262E+03  0.00000000000E+00 0. -1.
         21   -1    0    0  501  503 -0.00000000000E+00 -0.00000000000E+00 -0.48835804402E+03  0.48835804402E+03  0.00000000000E+00 0. -1.
          6    1    1    2  501    0  0.18154623726E+03  0.39460485840E+02 -0.92517491319E+02  0.26955454440E+03  0.17200000000E+03 0.  1.
         -6    1    1    2    0  502 -0.18154623726E+03 -0.39460485840E+02 -0.25517789008E+03  0.35946616224E+03  0.17200000000E+03 0.  1.
</event>
<event>
 4    1  0.6129841E-001  0.1969630E+03  0.7818608E-02  0.1152327E+00
         21   -1    0    0  503  502  0.00000000000E+00  0.00000000000E+00  0.14722189460E+02  0.14722189460E+02  0.00000000000E+00 0.  1.
         21   -1    0    0  501  503 -0.00000000000E+00 -0.00000000000E+00 -0.34309806841E+04  0.34309806841E+04  0.00000000000E+00 0. -1.
          6    1    1    2  501    0 -0.62354988413E+02  0.72954077598E+02 -0.25379086773E+04  0.25455401974E+04  0.17200000000E+03 0. -1.
         -6    1    1    2    0  502  0.62354988413E+02 -0.72954077598E+02 -0.87834981735E+03  0.90016267622E+03  0.17200000000E+03 0.  1.
</event>
<event>
 4    1  0.6129841E-001  0.1824904E+03  0.7818608E-02  0.1165414E+00
         21   -1    0    0  501  502  0.00000000000E+00  0.00000000000E+00  0.80157090020E+03  0.80157090020E+03  0.00000000000E+00 0.  1.
         21   -1    0    0  502  503 -0.00000000000E+00 -0.00000000000E+00 -0.41619519886E+02  0.41619519886E+02  0.00000000000E+00 0.  1.
          6    1    1    2  501    0  0.42951794626E+01 -0.60829963425E+02  0.39759433906E+03  0.43747456094E+03  0.17200000000E+03 0. -1.
         -6    1    1    2    0  503 -0.42951794626E+01  0.60829963425E+02  0.36235704126E+03  0.40571585915E+03  0.17200000000E+03 0. -1.
</event>
<event>
 4    1  0.6129841E-001  0.1814526E+03  0.7818608E-02  0.1166405E+00
         21   -1    0    0  501  502  0.00000000000E+00  0.00000000000E+00  0.86215561641E+03  0.86215561641E+03  0.00000000000E+00 0. -1.
         21   -1    0    0  502  503 -0.00000000000E+00 -0.00000000000E+00 -0.39259875992E+02  0.39259875992E+02  0.00000000000E+00 0. -1.
          6    1    1    2  501    0  0.42827479212E+02 -0.38818367697E+02  0.48587711670E+03  0.51865367171E+03  0.17200000000E+03 0. -1.
         -6    1    1    2    0  503 -0.42827479212E+02  0.38818367697E+02  0.33701862372E+03  0.38276182070E+03  0.17200000000E+03 0. -1.
</event>
<event>
 4    1  0.6129841E-001  0.3199911E+03  0.7818608E-02  0.1075653E+00
         21   -1    0    0  501  502  0.00000000000E+00  0.00000000000E+00  0.57553279375E+03  0.57553279375E+03  0.00000000000E+00 0.  1.
         21   -1    0    0  502  503 -0.00000000000E+00 -0.00000000000E+00 -0.50825780718E+03  0.50825780718E+03  0.00000000000E+00 0. -1.
          6    1    1    2  501    0  0.15598503710E+03 -0.22017936980E+03  0.47051294787E+03  0.56901381424E+03  0.17200000000E+03 0.  1.
         -6    1    1    2    0  503 -0.15598503710E+03  0.22017936980E+03 -0.40323796130E+03  0.51477678669E+03  0.17200000000E+03 0. -1.
</event>
<event>
 4    1  0.6129841E-001  0.2392626E+03  0.7818608E-02  0.1120285E+00
         21   -1    0    0  501  502  0.00000000000E+00  0.00000000000E+00  0.68102568137E+03  0.68102568137E+03  0.00000000000E+00 0.  1.
         21   -1    0    0  502  503 -0.00000000000E+00 -0.00000000000E+00 -0.97180008148E+02  0.97180008148E+02  0.00000000000E+00 0.  1.
          6    1    1    2  501    0 -0.16622809160E+03  0.55514945099E+01  0.14895009997E+03  0.28183812696E+03  0.17200000000E+03 0.  1.
         -6    1    1    2    0  503  0.16622809160E+03 -0.55514945099E+01  0.43489557325E+03  0.49636756256E+03  0.17200000000E+03 0.  1.
</event>
<event>
 4    1  0.6129841E-001  0.1886808E+03  0.7818608E-02  0.1159657E+00
         21   -1    0    0  501  502  0.00000000000E+00  0.00000000000E+00  0.12547965967E+04  0.12547965967E+04  0.00000000000E+00 0. -1.
         21   -1    0    0  502  503 -0.00000000000E+00 -0.00000000000E+00 -0.38919023435E+02  0.38919023435E+02  0.00000000000E+00 0. -1.
          6    1    1    2  501    0 -0.36524550611E+02 -0.68428045755E+02  0.94468557281E+03  0.96334379726E+03  0.17200000000E+03 0. -1.
         -6    1    1    2    0  503  0.36524550611E+02  0.68428045755E+02  0.27119200049E+03  0.33037182291E+03  0.17200000000E+03 0. -1.
</event>
<event>
 4    1  0.6129841E-001  0.2264108E+03  0.7818608E-02  0.1129192E+00
         21   -1    0    0  503  502  0.00000000000E+00  0.00000000000E+00  0.43621502951E+02  0.43621502951E+02  0.00000000000E+00 0.  1.
         21   -1    0    0  501  503 -0.00000000000E+00 -0.00000000000E+00 -0.11851671073E+04  0.11851671073E+04  0.00000000000E+00 0. -1.
          6    1    1    2  501    0  0.94627184625E+02 -0.11279879369E+03 -0.62725315121E+03  0.66686459467E+03  0.17200000000E+03 0. -1.
         -6    1    1    2    0  502 -0.94627184625E+02  0.11279879369E+03 -0.51429245318E+03  0.56192401562E+03  0.17200000000E+03 0. -1.
</event>
<event>
 4    1  0.6129841E-001  0.1850073E+03  0.7818608E-02  0.1163043E+00
         21   -1    0    0  501  502  0.00000000000E+00  0.00000000000E+00  0.35762522716E+03  0.35762522716E+03  0.00000000000E+00 0. -1.
         21   -1    0    0  502  503 -0.00000000000E+00 -0.00000000000E+00 -0.10926818122E+03  0.10926818122E+03  0.00000000000E+00 0.  1.
          6    1    1    2  501    0 -0.59502187799E+02 -0.33214290949E+02  0.20641584680E+03  0.27719163278E+03  0.17200000000E+03 0. -1.
         -6    1    1    2    0  503  0.59502187799E+02  0.33214290949E+02  0.41941199145E+02  0.18970177559E+03  0.17200000000E+03 0.  1.
</event>
<event>
 4    1  0.6129841E-001  0.1888088E+03  0.7818608E-02  0.1159540E+00
         21   -1    0    0  501  502  0.00000000000E+00  0.00000000000E+00  0.60155387017E+02  0.60155387017E+02  0.00000000000E+00 0. -1.
         21   -1    0    0  502  503 -0.00000000000E+00 -0.00000000000E+00 -0.65199974111E+03  0.65199974111E+03  0.00000000000E+00 0. -1.
          6    1    1    2  501    0 -0.77680036927E+02  0.55297276558E+01 -0.18845604374E+03  0.26676665168E+03  0.17200000000E+03 0. -1.
         -6    1    1    2    0  503  0.77680036927E+02 -0.55297276558E+01 -0.40338831035E+03  0.44538847645E+03  0.17200000000E+03 0. -1.
</event>
<event>
 4    1  0.6129841E-001  0.2026308E+03  0.7818608E-02  0.1147538E+00
         21   -1    0    0  503  502  0.00000000000E+00  0.00000000000E+00  0.23225232417E+03  0.23225232417E+03  0.00000000000E+00 0. -1.
         21   -1    0    0  501  503 -0.00000000000E+00 -0.00000000000E+00 -0.24605787037E+03  0.24605787037E+03  0.00000000000E+00 0. -1.
          6    1    1    2  501    0  0.87422310119E+02  0.61907809852E+02  0.11998965803E+03  0.23549258006E+03  0.17200000000E+03 0. -1.
         -6    1    1    2    0  502 -0.87422310119E+02 -0.61907809852E+02 -0.13379520424E+03  0.24281761448E+03  0.17200000000E+03 0. -1.
</event>
<event>
 4    1  0.6129841E-001  0.1775529E+03  0.7818608E-02  0.1170193E+00
         21   -1    0    0  503  502  0.00000000000E+00  0.00000000000E+00  0.70751656167E+02  0.70751656167E+02  0.00000000000E+00 0. -1.
         21   -1    0    0  501  503 -0.00000000000E+00 -0.00000000000E+00 -0.45131732269E+03  0.45131732269E+03  0.00000000000E+00 0. -1.
          6    1    1    2  501    0 -0.40670912800E+02  0.16938701749E+02 -0.21973167734E+03  0.28250142087E+03  0.17200000000E+03 0. -1.
         -6    1    1    2    0  502  0.40670912800E+02 -0.16938701749E+02 -0.16083398918E+03  0.23956755799E+03  0.17200000000E+03 0. -1.
</event>
<event>
 4    1  0.6129841E-001  0.2580221E+03  0.7818608E-02  0.1108337E+00
         21   -1    0    0  501  502  0.00000000000E+00  0.00000000000E+00  0.15820574158E+04  0.15820574158E+04  0.00000000000E+00 0.  1.
         21   -1    0    0  502  503 -0.00000000000E+00 -0.00000000000E+00 -0.51445505082E+02  0.51445505082E+02  0.00000000000E+00 0.  1.
          6    1    1    2  501    0 -0.15118070732E+03 -0.11889398768E+03  0.41685113739E+03  0.49024509923E+03  0.17200000000E+03 0.  1.
         -6    1    1    2    0  503  0.15118070732E+03  0.11889398768E+03  0.11137607734E+04  0.11432578217E+04  0.17200000000E+03 0.  1.
</event>
<event>
 4    1  0.6129841E-001  0.2002099E+03  0.7818608E-02  0.1149562E+00
         21   -1    0    0  501  502  0.00000000000E+00  0.00000000000E+00  0.95043862416E+03  0.95043862416E+03  0.00000000000E+00 0. -1.
         21   -1    0    0  502  503 -0.00000000000E+00 -0.00000000000E+00 -0.10763730952E+03  0.10763730952E+03  0.00000000000E+00 0. -1.
          6    1    1    2  501    0 -0.41316533413E+02 -0.93770749105E+02  0.83397637791E+03  0.85767162028E+03  0.17200000000E+03 0. -1.
         -6    1    1    2    0  503  0.41316533413E+02  0.93770749105E+02  0.88249367299E+01  0.20040431340E+03  0.17200000000E+03 0. -1.
</event>
<event>
 4    1  0.6129841E-001  0.4060784E+03  0.7818608E-02  0.1041695E+00
         21   -1    0    0  503  502  0.00000000000E+00  0.00000000000E+00  0.10370052270E+04  0.10370052270E+04  0.00000000000E+00 0.  1.
         21   -1    0    0  501  503 -0.00000000000E+00 -0.00000000000E+00 -0.16040034214E+03  0.16040034214E+03  0.00000000000E+00 0. -1.
          6    1    1    2  501    0  0.32384602140E+03 -0.17446894373E+03  0.38266770039E+03  0.55797332089E+03  0.17200000000E+03 0.  1.
         -6    1    1    2    0  502 -0.32384602140E+03  0.17446894373E+03  0.49393718448E+03  0.63943224826E+03  0.17200000000E+03 0.  1.
</event>
<event>
 4    1  0.6129841E-001  0.2150796E+03  0.7818608E-02  0.1137606E+00
         21   -1    0    0  503  502  0.00000000000E+00  0.00000000000E+00  0.83776199498E+03  0.83776199498E+03  0.00000000000E+00 0.  1.
         21   -1    0    0  501  503 -0.00000000000E+00 -0.00000000000E+00 -0.92689330130E+02  0.92689330130E+02  0.00000000000E+00 0.  1.
          6    1    1    2  501    0  0.64581271407E+02  0.11182340302E+03  0.76734668037E+02  0.22835810333E+03  0.17200000000E+03 0.  1.
         -6    1    1    2    0  502 -0.64581271407E+02 -0.11182340302E+03  0.66833799681E+03  0.70209322177E+03  0.17200000000E+03 0.  1.
</event>
<event>
 4    1  0.6129841E-001  0.2680124E+03  0.7818608E-02  0.1102423E+00
         21   -1    0    0  503  502  0.00000000000E+00  0.00000000000E+00  0.26207897336E+03  0.26207897336E+03  0.00000000000E+00 0. -1.
         21   -1    0    0  501  503 -0.00000000000E+00 -0.00000000000E+00 -0.32360056527E+03  0.32360056527E+03  0.00000000000E+00 0. -1.
          6    1    1    2  501    0 -0.10594697764E+03  0.17613024249E+03 -0.14531680969E+03  0.30487308765E+03  0.17200000000E+03 0. -1.
         -6    1    1    2    0  502  0.10594697764E+03 -0.17613024249E+03  0.83795217775E+02  0.28080645098E+03  0.17200000000E+03 0. -1.
</event>
<event>
 4    1  0.6129841E-001  0.1788881E+03  0.7818608E-02  0.1168883E+00
         21   -1    0    0  501  502  0.00000000000E+00  0.00000000000E+00  0.14652656788E+03  0.14652656788E+03  0.00000000000E+00 0. -1.
         21   -1    0    0  502  503 -0.00000000000E+00 -0.00000000000E+00 -0.21839730947E+03  0.21839730947E+03  0.00000000000E+00 0. -1.
          6    1    1    2  501    0  0.25990102110E+02 -0.41730950019E+02 -0.36164794601E+02  0.18250712305E+03  0.17200000000E+03 0. -1.
         -6    1    1    2    0  503 -0.25990102110E+02  0.41730950019E+02 -0.35705946987E+02  0.18241675429E+03  0.17200000000E+03 0. -1.
</event>
<event>
 4    1  0.6129841E-001  0.1807400E+03  0.7818608E-02  0.1167089E+00
         21   -1    0    0  503  502  0.00000000000E+00  0.00000000000E+00  0.18179852316E+02  0.18179852316E+02  0.00000000000E+00 0.  1.
         21   -1    0    0  501  503 -0.00000000000E+00 -0.00000000000E+00 -0.19939735133E+04  0.19939735133E+04  0.00000000000E+00 0.  1.
          6    1    1    2  501    0  0.26417428861E+01  0.55461419316E+02 -0.13042058001E+04  0.13166699347E+04  0.17200000000E+03 0. -1.
         -6    1    1    2    0  502 -0.26417428861E+01 -0.55461419316E+02 -0.67158786082E+03  0.69548343088E+03  0.17200000000E+03 0. -1.
</event>
<event>
 4    1  0.6129841E-001  0.2373655E+03  0.7818608E-02  0.1121560E+00
         21   -1    0    0  501  502  0.00000000000E+00  0.00000000000E+00  0.78317745508E+03  0.78317745508E+03  0.00000000000E+00 0. -1.
         21   -1    0    0  502  503 -0.00000000000E+00 -0.00000000000E+00 -0.22254804558E+03  0.22254804558E+03  0.00000000000E+00 0. -1.
          6    1    1    2  501    0  0.56727285872E+02 -0.15342879178E+03  0.69399093652E+03  0.73346151847E+03  0.17200000000E+03 0. -1.
         -6    1    1    2    0  503 -0.56727285872E+02  0.15342879178E+03 -0.13336152702E+03  0.27226398219E+03  0.17200000000E+03 0. -1.
</event>
<event>
 4    1  0.6129841E-001  0.2477502E+03  0.7818608E-02  0.1114735E+00
         21   -1    0    0  503  502  0.00000000000E+00  0.00000000000E+00  0.49823260419E+03  0.49823260419E+03  0.00000000000E+00 0. -1.
         21   -1    0    0  501  503 -0.00000000000E+00 -0.00000000000E+00 -0.17422318765E+03  0.17422318765E+03  0.00000000000E+00 0.  1.
          6    1    1    2  501    0 -0.55726015709E+02 -0.16938343705E+03 -0.19958112506E+02  0.24855273853E+03  0.17200000000E+03 0.  1.
         -6    1    1    2    0  502  0.55726015709E+02  0.16938343705E+03  0.34396752905E+03  0.42390305332E+03  0.17200000000E+03 0. -1.
</event>
<event>
 4    1  0.6129841E-001  0.1854151E+03  0.7818608E-02  0.1162663E+00
         21   -1    0    0  501  502  0.00000000000E+00  0.00000000000E+00  0.34266687848E+03  0.34266687848E+03  0.00000000000E+00 0.  1.
         21   -1    0    0  502  503 -0.00000000000E+00 -0.00000000000E+00 -0.11254553263E+03  0.11254553263E+03  0.00000000000E+00 0.  1.
          6    1    1    2  501    0 -0.57151380835E+02  0.39095710204E+02  0.19005505281E+03  0.26551775456E+03  0.17200000000E+03 0.  1.
         -6    1    1    2    0  503  0.57151380835E+02 -0.39095710204E+02  0.40066293037E+02  0.18969465655E+03  0.17200000000E+03 0.  1.
</event>
<event>
 4    1  0.6129841E-001  0.1753500E+03  0.7818608E-02  0.1172381E+00
         21   -1    0    0  503  502  0.00000000000E+00  0.00000000000E+00  0.68790413751E+02  0.68790413751E+02  0.00000000000E+00 0. -1.
         21   -1    0    0  501  503 -0.00000000000E+00 -0.00000000000E+00 -0.45049113158E+03  0.45049113158E+03  0.00000000000E+00 0. -1.
          6    1    1    2  501    0  0.24843044777E+00  0.34111154884E+02 -0.21378694268E+03  0.27650043303E+03  0.17200000000E+03 0.  1.
         -6    1    1    2    0  502 -0.24843044777E+00 -0.34111154884E+02 -0.16791377515E+03  0.24278111230E+03  0.17200000000E+03 0.  1.
</event>
<event>
 4    1  0.6129841E-001  0.1768135E+03  0.7818608E-02  0.1170923E+00
         21   -1    0    0  503  502  0.00000000000E+00  0.00000000000E+00  0.54899223422E+03  0.54899223422E+03  0.00000000000E+00 0.  1.
         21   -1    0    0  501  503 -0.00000000000E+00 -0.00000000000E+00 -0.57113343563E+02  0.57113343563E+02  0.00000000000E+00 0.  1.
          6    1    1    2  501    0 -0.19477649674E+02  0.36050327362E+02  0.22954360549E+03  0.28974690984E+03  0.17200000000E+03 0. -1.
         -6    1    1    2    0  502  0.19477649674E+02 -0.36050327362E+02  0.26233528517E+03  0.31635866795E+03  0.17200000000E+03 0. -1.
</event>
<event>
 4    1  0.6129841E-001  0.1826209E+03  0.7818608E-02  0.1165290E+00
         21   -1    0    0  501  502  0.00000000000E+00  0.00000000000E+00  0.26273891056E+04  0.26273891056E+04  0.00000000000E+00 0. -1.
         21   -1    0    0  502  503 -0.00000000000E+00 -0.00000000000E+00 -0.16939588697E+02  0.16939588697E+02  0.00000000000E+00 0. -1.
          6    1    1    2  501    0  0.60181263050E+02  0.12025848070E+02  0.64325901746E+03  0.66867972078E+03  0.17200000000E+03 0. -1.
         -6    1    1    2    0  503 -0.60181263050E+02 -0.12025848070E+02  0.19671904995E+04  0.19756489736E+04  0.17200000000E+03 0. -1.
</event>
<event>
 4    1  0.6129841E-001  0.2402268E+03  0.7818608E-02  0.1119642E+00
         21   -1    0    0  503  502  0.00000000000E+00  0.00000000000E+00  0.51225524763E+03  0.51225524763E+03  0.00000000000E+00 0.  1.
         21   -1    0    0  501  503 -0.00000000000E+00 -0.00000000000E+00 -0.14376720368E+03  0.14376720368E+03  0.00000000000E+00 0.  1.
          6    1    1    2  501    0 -0.12448077190E+03  0.11238075467E+03  0.31658428840E+02  0.24230384378E+03  0.17200000000E+03 0.  1.
         -6    1    1    2    0  502  0.12448077190E+03 -0.11238075467E+03  0.33682961511E+03  0.41371860752E+03  0.17200000000E+03 0.  1.
</event>
<event>
 4    1  0.6129841E-001  0.1752041E+03  0.7818608E-02  0.1172527E+00
         21   -1    0    0  503  502  0.00000000000E+00  0.00000000000E+00  0.17296600096E+04  0.17296600096E+04  0.00000000000E+00 0.  1.
         21   -1    0    0  501  503 -0.00000000000E+00 -0.00000000000E+00 -0.27115398923E+02  0.27115398923E+02  0.00000000000E+00 0.  1.
          6    1    1    2  501    0 -0.79967737227E+01 -0.32381207539E+02  0.33496525205E+03  0.37801879724E+03  0.17200000000E+03 0.  1.
         -6    1    1    2    0  502  0.79967737227E+01  0.32381207539E+02  0.13675793586E+04  0.13787566113E+04  0.17200000000E+03 0.  1.
</event>
<event>
 4    1  0.6129841E-001  0.2940239E+03  0.7818608E-02  0.1088267E+00
         21   -1    0    0  501  502  0.00000000000E+00  0.00000000000E+00  0.14986168406E+03  0.14986168406E+03  0.00000000000E+00 0.  1.
         21   -1    0    0  502  503 -0.00000000000E+00 -0.00000000000E+00 -0.62149523441E+03  0.62149523441E+03  0.00000000000E+00 0. -1.
          6    1    1    2  501    0 -0.23247808668E+03 -0.53103418840E+02 -0.13246482410E+03  0.32248560201E+03  0.17200000000E+03 0. -1.
         -6    1    1    2    0  503  0.23247808668E+03  0.53103418840E+02 -0.33916872624E+03  0.44887131646E+03  0.17200000000E+03 0. -1.
</event>
<event>
 4    1  0.6129841E-001  0.3077064E+03  0.7818608E-02  0.1081450E+00
         21   -1    0    0  501  502  0.00000000000E+00  0.00000000000E+00  0.33741686195E+03  0.33741686195E+03  0.00000000000E+00 0.  1.
         21   -1    0    0  502  503 -0.00000000000E+00 -0.00000000000E+00 -0.55286687565E+03  0.55286687565E+03  0.00000000000E+00 0. -1.
          6    1    1    2  501    0 -0.11107245163E+03  0.22970004729E+03  0.20464982687E+03  0.36954668565E+03  0.17200000000E+03 0.  1.
         -6    1    1    2    0  503  0.11107245163E+03 -0.22970004729E+03 -0.42009984057E+03  0.52073705196E+03  0.17200000000E+03 0. -1.
</event>
<event>
 4    1  0.6129841E-001  0.1965109E+03  0.7818608E-02  0.1152717E+00
         21   -1    0    0  503  502  0.00000000000E+00  0.00000000000E+00  0.21150327305E+02  0.21150327305E+02  0.00000000000E+00 0.  1.
         21   -1    0    0  501  503 -0.00000000000E+00 -0.00000000000E+00 -0.33357866064E+04  0.33357866064E+04  0.00000000000E+00 0.  1.
          6    1    1    2  501    0 -0.49232523172E+02 -0.81293798971E+02 -0.27865909369E+04  0.27935113339E+04  0.17200000000E+03 0. -1.
         -6    1    1    2    0  502  0.49232523172E+02  0.81293798971E+02 -0.52804534221E+03  0.56342559981E+03  0.17200000000E+03 0. -1.
</event>
<event>
 4    1  0.6129841E-001  0.3159737E+03  0.7818608E-02  0.1077517E+00
         21   -1    0    0  501  502  0.00000000000E+00  0.00000000000E+00  0.22695790978E+03  0.22695790978E+03  0.00000000000E+00 0. -1.
         21   -1    0    0  502  503 -0.00000000000E+00 -0.00000000000E+00 -0.66415668793E+03  0.66415668793E+03  0.00000000000E+00 0.  1.
          6    1    1    2  501    0 -0.74937273142E+02  0.25424351630E+03  0.40304474747E+02  0.31853384619E+03  0.17200000000E+03 0. -1.
         -6    1    1    2    0  503  0.74937273142E+02 -0.25424351630E+03 -0.47750325289E+03  0.57258075152E+03  0.17200000000E+03 0. -1.
</event>
<event>
 4    1  0.6129841E-001  0.2376855E+03  0.7818608E-02  0.1121344E+00
         21   -1    0    0  501  502  0.00000000000E+00  0.00000000000E+00  0.58275607603E+02  0.58275607603E+02  0.00000000000E+00 0.  1.
         21   -1    0    0  502  503 -0.00000000000E+00 -0.00000000000E+00 -0.11741464815E+04  0.11741464815E+04  0.00000000000E+00 0. -1.
          6    1    1    2  501    0 -0.13551301675E+03  0.92448027700E+02 -0.30063566338E+03  0.38324433151E+03  0.17200000000E+03 0. -1.
         -6    1    1    2    0  503  0.13551301675E+03 -0.92448027700E+02 -0.81523521048E+03  0.84917775756E+03  0.17200000000E+03 0. -1.
</event>
<event>
 4    1  0.6129841E-001  0.1791450E+03  0.7818608E-02  0.1168633E+00
         21   -1    0    0  501  502  0.00000000000E+00  0.00000000000E+00  0.42895165708E+03  0.42895165708E+03  0.00000000000E+00 0.  1.
         21   -1    0    0  502  503 -0.00000000000E+00 -0.00000000000E+00 -0.74854936471E+02  0.74854936471E+02  0.00000000000E+00 0. -1.
          6    1    1    2  501    0 -0.45157508172E+02 -0.21672949234E+02  0.18271208790E+03  0.25588400563E+03  0.17200000000E+03 0.  1.
         -6    1    1    2    0  503  0.45157508172E+02  0.21672949234E+02  0.17138463271E+03  0.24792258792E+03  0.17200000000E+03 0. -1.
</event>
<event>
 4    1  0.6129841E-001  0.1778613E+03  0.7818608E-02  0.1169889E+00
         21   -1    0    0  501  502  0.00000000000E+00  0.00000000000E+00  0.35050878878E+03  0.35050878878E+03  0.00000000000E+00 0. -1.
         21   -1    0    0  502  503 -0.00000000000E+00 -0.00000000000E+00 -0.90351317780E+02  0.90351317780E+02  0.00000000000E+00 0. -1.
          6    1    1    2  501    0  0.38252393574E+02 -0.24236187063E+02  0.13733234545E+03  0.22471050595E+03  0.17200000000E+03 0.  1.
         -6    1    1    2    0  503 -0.38252393574E+02  0.24236187063E+02  0.12282512555E+03  0.21614960061E+03  0.17200000000E+03 0.  1.
</event>
<event>
 4    1  0.6129841E-001  0.2131484E+03  0.7818608E-02  0.1139097E+00
         21   -1    0    0  503  502  0.00000000000E+00  0.00000000000E+00  0.13637310017E+03  0.13637310017E+03  0.00000000000E+00 0.  1.
         21   -1    0    0  501  503 -0.00000000000E+00 -0.00000000000E+00 -0.38454992549E+03  0.38454992549E+03  0.00000000000E+00 0.  1.
          6    1    1    2  501    0 -0.10310321774E+02  0.12546693049E+03 -0.21931587712E+03  0.30582953968E+03  0.17200000000E+03 0.  1.
         -6    1    1    2    0  502  0.10310321774E+02 -0.12546693049E+03 -0.28860948191E+02  0.21509348598E+03  0.17200000000E+03 0.  1.
</event>
<event>
 4    1  0.6129841E-001  0.2632505E+03  0.7818608E-02  0.1105206E+00
         21   -1    0    0  503  502  0.00000000000E+00  0.00000000000E+00  0.61054189743E+03  0.61054189743E+03  0.00000000000E+00 0.  1.
         21   -1    0    0  501  503 -0.00000000000E+00 -0.00000000000E+00 -0.18992792282E+03  0.18992792282E+03  0.00000000000E+00 0.  1.
          6    1    1    2  501    0 -0.19588049155E+03 -0.36710534521E+02  0.46418579987E+03  0.53363778644E+03  0.17200000000E+03 0.  1.
         -6    1    1    2    0  502  0.19588049155E+03  0.36710534521E+02 -0.43571825252E+02  0.26683203382E+03  0.17200000000E+03 0.  1.
</event>
<event>
 4    1  0.6129841E-001  0.2166750E+03  0.7818608E-02  0.1136386E+00
         21   -1    0    0  503  502  0.00000000000E+00  0.00000000000E+00  0.13455517546E+03  0.13455517546E+03  0.00000000000E+00 0. -1.
         21   -1    0    0  501  503 -0.00000000000E+00 -0.00000000000E+00 -0.47997500284E+03  0.47997500284E+03  0.00000000000E+00 0. -1.
          6    1    1    2  501    0 -0.87527685962E+02 -0.98503683461E+02 -0.33327164578E+03  0.39751485676E+03  0.17200000000E+03 0. -1.
         -6    1    1    2    0  502  0.87527685962E+02  0.98503683461E+02 -0.12148181602E+02  0.21701532154E+03  0.17200000000E+03 0. -1.
</event>
<event>
 4    1  0.6129841E-001  0.7648023E+03  0.7818608E-02  0.9612410E-01
         21   -1    0    0  501  502  0.00000000000E+00  0.00000000000E+00  0.37420509297E+03  0.37420509297E+03  0.00000000000E+00 0.  1.
         21   -1    0    0  502  503 -0.00000000000E+00 -0.00000000000E+00 -0.15678242740E+04  0.15678242740E+04  0.00000000000E+00 0. -1.
          6    1    1    2  501    0 -0.57019669894E+02  0.74302579722E+03 -0.54354661972E+03  0.93827794704E+03  0.17200000000E+03 0. -1.
         -6    1    1    2    0  503  0.57019669894E+02 -0.74302579722E+03 -0.65007256136E+03  0.10037514200E+04  0.17200000000E+03 0. -1.
</event>
<event>
 4    1  0.6129841E-001  0.2089719E+03  0.7818608E-02  0.1142383E+00
         21   -1    0    0  501  502  0.00000000000E+00  0.00000000000E+00  0.16257868957E+02  0.16257868957E+02  0.00000000000E+00 0. -1.
         21   -1    0    0  502  503 -0.00000000000E+00 -0.00000000000E+00 -0.32655634952E+04  0.32655634952E+04  0.00000000000E+00 0.  1.
          6    1    1    2  501    0 -0.40132989368E+02 -0.11168975591E+03 -0.93339183191E+03  0.95649859921E+03  0.17200000000E+03 0.  1.
         -6    1    1    2    0  503  0.40132989368E+02  0.11168975591E+03 -0.23159137944E+04  0.23253227650E+04  0.17200000000E+03 0.  1.
</event>
<event>
 4    1  0.6129841E-001  0.2586080E+03  0.7818608E-02  0.1107982E+00
         21   -1    0    0  503  502  0.00000000000E+00  0.00000000000E+00  0.91466607405E+02  0.91466607405E+02  0.00000000000E+00 0.  1.
         21   -1    0    0  501  503 -0.00000000000E+00 -0.00000000000E+00 -0.87017152273E+03  0.87017152273E+03  0.00000000000E+00 0. -1.
          6    1    1    2  501    0  0.11066356259E+03  0.15826458382E+03 -0.58152047676E+03  0.63643080336E+03  0.17200000000E+03 0.  1.
         -6    1    1    2    0  502 -0.11066356259E+03 -0.15826458382E+03 -0.19718443857E+03  0.32520732678E+03  0.17200000000E+03 0.  1.
</event>
<event>
 4    1  0.6129841E-001  0.2601652E+03  0.7818608E-02  0.1107044E+00
         21   -1    0    0  501  502  0.00000000000E+00  0.00000000000E+00  0.38397427925E+04  0.38397427925E+04  0.00000000000E+00 0. -1.
         21   -1    0    0  502  503 -0.00000000000E+00 -0.00000000000E+00 -0.17640222720E+02  0.17640222720E+02  0.00000000000E+00 0.  1.
          6    1    1    2  501    0 -0.35342870347E+02 -0.19197084568E+03  0.19623909491E+04  0.19795616084E+04  0.17200000000E+03 0. -1.
         -6    1    1    2    0  503  0.35342870347E+02  0.19197084568E+03  0.18597116206E+04  0.18778214068E+04  0.17200000000E+03 0. -1.
</event>
<event>
 4    1  0.6129841E-001  0.2070011E+03  0.7818608E-02  0.1143963E+00
         21   -1    0    0  503  502  0.00000000000E+00  0.00000000000E+00  0.36155910033E+03  0.36155910033E+03  0.00000000000E+00 0.  1.
         21   -1    0    0  501  503 -0.00000000000E+00 -0.00000000000E+00 -0.39595064424E+03  0.39595064424E+03  0.00000000000E+00 0. -1.
          6    1    1    2  501    0  0.10018634807E+03 -0.56816717282E+02 -0.33424041313E+03  0.39314895074E+03  0.17200000000E+03 0. -1.
         -6    1    1    2    0  502 -0.10018634807E+03  0.56816717282E+02  0.29984886922E+03  0.36436079382E+03  0.17200000000E+03 0.  1.
</event>
<event>
 4    1  0.6129841E-001  0.2024170E+03  0.7818608E-02  0.1147716E+00
         21   -1    0    0  503  502  0.00000000000E+00  0.00000000000E+00  0.96568269205E+02  0.96568269205E+02  0.00000000000E+00 0. -1.
         21   -1    0    0  501  503 -0.00000000000E+00 -0.00000000000E+00 -0.64528164454E+03  0.64528164454E+03  0.00000000000E+00 0.  1.
          6    1    1    2  501    0  0.85289598871E+02 -0.64142998887E+02 -0.49142802910E+03  0.53148297035E+03  0.17200000000E+03 0.  1.
         -6    1    1    2    0  502 -0.85289598871E+02  0.64142998887E+02 -0.57285346234E+02  0.21036694340E+03  0.17200000000E+03 0. -1.
</event>
<event>
 4    1  0.6129841E-001  0.5239718E+03  0.7818608E-02  0.1007705E+00
         21   -1    0    0  501  502  0.00000000000E+00  0.00000000000E+00  0.31320227522E+04  0.31320227522E+04  0.00000000000E+00 0. -1.
         21   -1    0    0  502  503 -0.00000000000E+00 -0.00000000000E+00 -0.93722813063E+02  0.93722813063E+02  0.00000000000E+00 0.  1.
          6    1    1    2  501    0 -0.39375065855E+02 -0.49336804641E+03  0.19294400600E+04  0.19993212274E+04  0.17200000000E+03 0. -1.
         -6    1    1    2    0  503  0.39375065855E+02  0.49336804641E+03  0.11088598791E+04  0.12264243378E+04  0.17200000000E+03 0.  1.
</event>
<event>
 4    1  0.6129841E-001  0.2047907E+03  0.7818608E-02  0.1145759E+00
         21   -1    0    0  503  502  0.00000000000E+00  0.00000000000E+00  0.35348789088E+03  0.35348789088E+03  0.00000000000E+00 0. -1.
         21   -1    0    0  501  503 -0.00000000000E+00 -0.00000000000E+00 -0.11874284069E+03  0.11874284069E+03  0.00000000000E+00 0. -1.
          6    1    1    2  501    0 -0.99018318521E+02 -0.50503332938E+02  0.12418506146E+03  0.23950186540E+03  0.17200000000E+03 0.  1.
         -6    1    1    2    0  502  0.99018318521E+02  0.50503332938E+02  0.11055998874E+03  0.23272886617E+03  0.17200000000E+03 0.  1.
</event>
<event>
 4    1  0.6129841E-001  0.1749108E+03  0.7818608E-02  0.1172821E+00
         21   -1    0    0  501  502  0.00000000000E+00  0.00000000000E+00  0.19820119765E+03  0.19820119765E+03  0.00000000000E+00 0. -1.
         21   -1    0    0  502  503 -0.00000000000E+00 -0.00000000000E+00 -0.18841802539E+03  0.18841802539E+03  0.00000000000E+00 0. -1.
          6    1    1    2  501    0  0.13304739145E+01  0.31749423615E+02  0.87081656577E+02  0.19538938296E+03  0.17200000000E+03 0. -1.
         -6    1    1    2    0  503 -0.13304739145E+01 -0.31749423615E+02 -0.77298484321E+02  0.19122984009E+03  0.17200000000E+03 0. -1.
</event>
<event>
 4    1  0.6129841E-001  0.2279096E+03  0.7818608E-02  0.1128120E+00
         21   -1    0    0  501  502  0.00000000000E+00  0.00000000000E+00  0.76657085146E+02  0.76657085146E+02  0.00000000000E+00 0.  1.
         21   -1    0    0  502  503 -0.00000000000E+00 -0.00000000000E+00 -0.10419228400E+04  0.10419228400E+04  0.00000000000E+00 0. -1.
          6    1    1    2  501    0 -0.89768746432E+02  0.11958407739E+03 -0.15191100084E+03  0.27389730115E+03  0.17200000000E+03 0.  1.
         -6    1    1    2    0  503  0.89768746432E+02 -0.11958407739E+03 -0.81335475403E+03  0.84468262401E+03  0.17200000000E+03 0. -1.
</event>
<event>
 4    1  0.6129841E-001  0.1943263E+03  0.7818608E-02  0.1154616E+00
         21   -1    0    0  501  502  0.00000000000E+00  0.00000000000E+00  0.44718641257E+02  0.44718641257E+02  0.00000000000E+00 0. -1.
         21   -1    0    0  502  503 -0.00000000000E+00 -0.00000000000E+00 -0.84445445301E+03  0.84445445301E+03  0.00000000000E+00 0.  1.
          6    1    1    2  501    0  0.43269990673E+02 -0.79412919315E+02 -0.39897625432E+03  0.44378458216E+03  0.17200000000E+03 0. -1.
         -6    1    1    2    0  503 -0.43269990673E+02  0.79412919315E+02 -0.40075955743E+03  0.44538851211E+03  0.17200000000E+03 0.  1.
</event>
<event>
 4    1  0.6129841E-001  0.1791088E+03  0.7818608E-02  0.1168668E+00
         21   -1    0    0  501  502  0.00000000000E+00  0.00000000000E+00  0.32408855816E+03  0.32408855816E+03  0.00000000000E+00 0. -1.
         21   -1    0    0  502  503 -0.00000000000E+00 -0.00000000000E+00 -0.19939575652E+03  0.19939575652E+03  0.00000000000E+00 0. -1.
          6    1    1    2  501    0 -0.47884232175E+02 -0.14250447250E+02  0.24808637506E+03  0.30598500687E+03  0.17200000000E+03 0. -1.
         -6    1    1    2    0  503  0.47884232175E+02  0.14250447250E+02 -0.12339357342E+03  0.21749930782E+03  0.17200000000E+03 0. -1.
</event>
<event>
 4    1  0.6129841E-001  0.2707278E+03  0.7818608E-02  0.1100864E+00
         21   -1    0    0  501  502  0.00000000000E+00  0.00000000000E+00  0.55478935336E+02  0.55478935336E+02  0.00000000000E+00 0.  1.
         21   -1    0    0  502  503 -0.00000000000E+00 -0.00000000000E+00 -0.17396401917E+04  0.17396401917E+04  0.00000000000E+00 0.  1.
          6    1    1    2  501    0  0.99507712567E+02 -0.18386886891E+03 -0.40183088269E+03  0.48452203675E+03  0.17200000000E+03 0. -1.
         -6    1    1    2    0  503 -0.99507712567E+02  0.18386886891E+03 -0.12823303737E+04  0.13105970903E+04  0.17200000000E+03 0. -1.
</event>
<event>
 4    1  0.6129841E-001  0.2168188E+03  0.7818608E-02  0.1136277E+00
         21   -1    0    0  503  502  0.00000000000E+00  0.00000000000E+00  0.21680178341E+04  0.21680178341E+04  0.00000000000E+00 0.  1.
         21   -1    0    0  501  503 -0.00000000000E+00 -0.00000000000E+00 -0.36594648154E+02  0.36594648154E+02  0.00000000000E+00 0. -1.
          6    1    1    2  501    0  0.20027277717E+01  0.13199392345E+03  0.36207611143E+03  0.42203023258E+03  0.17200000000E+03 0. -1.
         -6    1    1    2    0  502 -0.20027277717E+01 -0.13199392345E+03  0.17693470745E+04  0.17825822497E+04  0.17200000000E+03 0.  1.
</event>
<event>
 4    1  0.6129841E-001  0.2332962E+03  0.7818608E-02  0.1124341E+00
         21   -1    0    0  503  502  0.00000000000E+00  0.00000000000E+00  0.10356255978E+03  0.10356255978E+03  0.00000000000E+00 0.  1.
         21   -1    0    0  501  503 -0.00000000000E+00 -0.00000000000E+00 -0.53200525512E+03  0.53200525512E+03  0.00000000000E+00 0. -1.
          6    1    1    2  501    0 -0.11333605805E+03  0.10953558497E+03 -0.24923154672E+03  0.34138463689E+03  0.17200000000E+03 0.  1.
         -6    1    1    2    0  502  0.11333605805E+03 -0.10953558497E+03 -0.17921114862E+03  0.29418317800E+03  0.17200000000E+03 0.  1.
</event>
<event>
 4    1  0.6129841E-001  0.1871095E+03  0.7818608E-02  0.1161095E+00
         21   -1    0    0  503  502  0.00000000000E+00  0.00000000000E+00  0.28658417579E+02  0.28658417579E+02  0.00000000000E+00 0. -1.
         21   -1    0    0  501  503 -0.00000000000E+00 -0.00000000000E+00 -0.12219380108E+04  0.12219380108E+04  0.00000000000E+00 0. -1.
          6    1    1    2  501    0 -0.73093149390E+02 -0.91292478998E+01 -0.58669474292E+03  0.61580895822E+03  0.17200000000E+03 0. -1.
         -6    1    1    2    0  502  0.73093149390E+02  0.91292478998E+01 -0.60658485030E+03  0.63478747016E+03  0.17200000000E+03 0. -1.
</event>
<event>
 4    1  0.6129841E-001  0.1917329E+03  0.7818608E-02  0.1156908E+00
         21   -1    0    0  501  502  0.00000000000E+00  0.00000000000E+00  0.36437578928E+02  0.36437578928E+02  0.00000000000E+00 0. -1.
         21   -1    0    0  502  503 -0.00000000000E+00 -0.00000000000E+00 -0.10285085153E+04  0.10285085153E+04  0.00000000000E+00 0. -1.
          6    1    1    2  501    0  0.72982364551E+02 -0.43023993548E+02 -0.56957699797E+03  0.60098206809E+03  0.17200000000E+03 0. -1.
         -6    1    1    2    0  503 -0.72982364551E+02  0.43023993548E+02 -0.42249393839E+03  0.46396402612E+03  0.17200000000E+03 0. -1.
</event>
<event>
 4    1  0.6129841E-001  0.2448489E+03  0.7818608E-02  0.1116604E+00
         21   -1    0    0  501  502  0.00000000000E+00  0.00000000000E+00  0.17175524259E+04  0.17175524259E+04  0.00000000000E+00 0. -1.
         21   -1    0    0  502  503 -0.00000000000E+00 -0.00000000000E+00 -0.49518264080E+02  0.49518264080E+02  0.00000000000E+00 0. -1.
          6    1    1    2  501    0  0.98213733394E+02 -0.14394798364E+03  0.13139898932E+04  0.13366077955E+04  0.17200000000E+03 0.  1.
         -6    1    1    2    0  503 -0.98213733394E+02  0.14394798364E+03  0.35404426860E+03  0.43046289451E+03  0.17200000000E+03 0.  1.
</event>
<event>
 4    1  0.6129841E-001  0.1734422E+03  0.7818608E-02  0.1174305E+00
         21   -1    0    0  503  502  0.00000000000E+00  0.00000000000E+00  0.13307807136E+03  0.13307807136E+03  0.00000000000E+00 0.  1.
         21   -1    0    0  501  503 -0.00000000000E+00 -0.00000000000E+00 -0.22617332978E+03  0.22617332978E+03  0.00000000000E+00 0.  1.
          6    1    1    2  501    0  0.14161874073E+01  0.22275142825E+02 -0.42339023411E+02  0.17853509593E+03  0.17200000000E+03 0.  1.
         -6    1    1    2    0  502 -0.14161874073E+01 -0.22275142825E+02 -0.50756235007E+02  0.18071630520E+03  0.17200000000E+03 0.  1.
</event>
<event>
 4    1  0.6129841E-001  0.1884560E+03  0.7818608E-02  0.1159861E+00
         21   -1    0    0  503  502  0.00000000000E+00  0.00000000000E+00  0.22583409289E+03  0.22583409289E+03  0.00000000000E+00 0.  1.
         21   -1    0    0  501  503 -0.00000000000E+00 -0.00000000000E+00 -0.15922756615E+03  0.15922756615E+03  0.00000000000E+00 0. -1.
          6    1    1    2  501    0  0.36521505820E+02 -0.67807526656E+02  0.11925567462E+02  0.18883299558E+03  0.17200000000E+03 0. -1.
         -6    1    1    2    0  502 -0.36521505820E+02  0.67807526656E+02  0.54680959282E+02  0.19622866347E+03  0.17200000000E+03 0.  1.
</event>
<event>
 4    1  0.6129841E-001  0.2138742E+03  0.7818608E-02  0.1138534E+00
         21   -1    0    0  503  502  0.00000000000E+00  0.00000000000E+00  0.76295799531E+03  0.76295799531E+03  0.00000000000E+00 0. -1.
         21   -1    0    0  501  503 -0.00000000000E+00 -0.00000000000E+00 -0.10119074516E+03  0.10119074516E+03  0.00000000000E+00 0. -1.
          6    1    1    2  501    0  0.21739289667E+02  0.12524214436E+03  0.55059896680E+02  0.22084787448E+03  0.17200000000E+03 0. -1.
         -6    1    1    2    0  502 -0.21739289667E+02 -0.12524214436E+03  0.60670735347E+03  0.64330086600E+03  0.17200000000E+03 0. -1.
</event>
<event>
 4    1  0.6129841E-001  0.2613448E+03  0.7818608E-02  0.1106338E+00
         21   -1    0    0  501  502  0.00000000000E+00  0.00000000000E+00  0.40069700207E+03  0.40069700207E+03  0.00000000000E+00 0. -1.
         21   -1    0    0  502  503 -0.00000000000E+00 -0.00000000000E+00 -0.60572598055E+03  0.60572598055E+03  0.00000000000E+00 0.  1.
          6    1    1    2  501    0  0.89169663846E+02  0.17540204315E+03  0.32405710778E+03  0.41631011854E+03  0.17200000000E+03 0. -1.
         -6    1    1    2    0  503 -0.89169663846E+02 -0.17540204315E+03 -0.52908608625E+03  0.59011286409E+03  0.17200000000E+03 0.  1.
</event>
<event>
 4    1  0.6129841E-001  0.2242876E+03  0.7818608E-02  0.1130726E+00
         21   -1    0    0  503  502  0.00000000000E+00  0.00000000000E+00  0.36121121686E+03  0.36121121686E+03  0.00000000000E+00 0.  1.
         21   -1    0    0  501  503 -0.00000000000E+00 -0.00000000000E+00 -0.40581231264E+03  0.40581231264E+03  0.00000000000E+00 0.  1.
          6    1    1    2  501    0 -0.91264050195E+02 -0.11131846565E+03 -0.33311508560E+03  0.40158509423E+03  0.17200000000E+03 0.  1.
         -6    1    1    2    0  502  0.91264050195E+02  0.11131846565E+03  0.28851398982E+03  0.36543843527E+03  0.17200000000E+03 0.  1.
</event>
<event>
 4    1  0.6129841E-001  0.1979419E+03  0.7818608E-02  0.1151487E+00
         21   -1    0    0  501  502  0.00000000000E+00  0.00000000000E+00  0.63288642394E+03  0.63288642394E+03  0.00000000000E+00 0. -1.
         21   -1    0    0  502  503 -0.00000000000E+00 -0.00000000000E+00 -0.75514864039E+02  0.75514864039E+02  0.00000000000E+00 0. -1.
          6    1    1    2  501    0  0.97931175188E+02 -0.25485663160E+01  0.42903637403E+03  0.47249679418E+03  0.17200000000E+03 0. -1.
         -6    1    1    2    0  503 -0.97931175188E+02  0.25485663160E+01  0.12833518587E+03  0.23590449380E+03  0.17200000000E+03 0. -1.
</event>
<event>
 4    1  0.6129841E-001  0.1760207E+03  0.7818608E-02  0.1171711E+00
         21   -1    0    0  501  502  0.00000000000E+00  0.00000000000E+00  0.95147912348E+02  0.95147912348E+02  0.00000000000E+00 0. -1.
         21   -1    0    0  502  503 -0.00000000000E+00 -0.00000000000E+00 -0.46135203209E+03  0.46135203209E+03  0.00000000000E+00 0. -1.
          6    1    1    2  501    0  0.12743093925E+02 -0.35169711862E+02 -0.32184639651E+02  0.17893894519E+03  0.17200000000E+03 0. -1.
         -6    1    1    2    0  503 -0.12743093925E+02  0.35169711862E+02 -0.33401948009E+03  0.37756099925E+03  0.17200000000E+03 0. -1.
</event>
<event>
 4    1  0.6129841E-001  0.2092838E+03  0.7818608E-02  0.1142134E+00
         21   -1    0    0  501  502  0.00000000000E+00  0.00000000000E+00  0.18128427452E+03  0.18128427452E+03  0.00000000000E+00 0. -1.
         21   -1    0    0  502  503 -0.00000000000E+00 -0.00000000000E+00 -0.27618400469E+03  0.27618400469E+03  0.00000000000E+00 0. -1.
          6    1    1    2  501    0 -0.11471413155E+03  0.32501868499E+02  0.33482100398E+02  0.21194516857E+03  0.17200000000E+03 0. -1.
         -6    1    1    2    0  503  0.11471413155E+03 -0.32501868499E+02 -0.12838183057E+03  0.24552311063E+03  0.17200000000E+03 0. -1.
</event>
<event>
 4    1  0.6129841E-001  0.1782493E+03  0.7818608E-02  0.1169508E+00
         21   -1    0    0  501  502  0.00000000000E+00  0.00000000000E+00  0.24310441216E+03  0.24310441216E+03  0.00000000000E+00 0. -1.
         21   -1    0    0  502  503 -0.00000000000E+00 -0.00000000000E+00 -0.13114059858E+03  0.13114059858E+03  0.00000000000E+00 0. -1.
          6    1    1    2  501    0 -0.42956594647E+02 -0.18534708986E+02  0.45088072187E+02  0.18386336969E+03  0.17200000000E+03 0.  1.
         -6    1    1    2    0  503  0.42956594647E+02  0.18534708986E+02  0.66875741392E+02  0.19038164105E+03  0.17200000000E+03 0.  1.
</event>
