<event>
 4    1  0.1054668E+000  0.2118552E+03  0.7818608E-02  0.1140105E+00
         -2   -1    0    0    0  501 -0.00000000000E+00  0.00000000000E+00  0.45342335543E+03  0.45342335543E+03  0.00000000000E+00 0.  1.
          2   -1    0    0  502    0  0.00000000000E+00 -0.00000000000E+00 -0.12567150036E+03  0.12567150036E+03  0.00000000000E+00 0. -1.
          6    1    1    2  502    0  0.28826057619E+02  0.12028173113E+03  0.30450780183E+02  0.21403244253E+03  0.17200000000E+03 0. -1.
         -6    1    1    2    0  501 -0.28826057619E+02 -0.12028173113E+03  0.29730107489E+03  0.36506241325E+03  0.17200000000E+03 0.  1.
</event>
<event>
 4    1  0.1054668E+000  0.2697354E+03  0.7818608E-02  0.1101431E+00
         -1   -1    0    0    0  501 -0.00000000000E+00  0.00000000000E+00  0.39768147759E+03  0.39768147759E+03  0.00000000000E+00 0. -1.
          1   -1    0    0  502    0  0.00000000000E+00 -0.00000000000E+00 -0.18555874933E+03  0.18555874933E+03  0.00000000000E+00 0.  1.
          6    1    1    2  502    0  0.28875406137E+02  0.20576540553E+03  0.14061605921E+03  0.30418755284E+03  0.17200000000E+03 0. -1.
         -6    1    1    2    0  501 -0.28875406137E+02 -0.20576540553E+03  0.71506669056E+02  0.27905267408E+03  0.17200000000E+03 0.  1.
</event>
<event>
 4    1  0.1054668E+000  0.1986222E+03  0.7818608E-02  0.1150907E+00
         -2   -1    0    0    0  501 -0.00000000000E+00  0.00000000000E+00  0.12831744610E+03  0.12831744610E+03  0.00000000000E+00 0.  1.
          2   -1    0    0  502    0  0.00000000000E+00 -0.00000000000E+00 -0.34844020642E+03  0.34844020642E+03  0.00000000000E+00 0. -1.
          6    1    1    2  502    0 -0.33076649504E+02 -0.93662668455E+02 -0.19182530027E+03  0.27612987167E+03  0.17200000000E+03 0. -1.
         -6    1    1    2    0  501  0.33076649504E+02  0.93662668455E+02 -0.28297460055E+02  0.20062778085E+03  0.17200000000E+03 0.  1.
</event>
<event>
 4    1  0.1054668E+000  0.2170257E+03  0.7818608E-02  0.1136120E+00
         -2   -1    0    0    0  501 -0.00000000000E+00  0.00000000000E+00  0.18068030720E+02  0.18068030720E+02  0.00000000000E+00 0. -1.
          2   -1    0    0  502    0  0.00000000000E+00 -0.00000000000E+00 -0.26069494176E+04  0.26069494176E+04  0.00000000000E+00 0.  1.
          6    1    1    2  502    0  0.13068580402E+03  0.20913133186E+02 -0.13036195524E+04  0.13215612267E+04  0.17200000000E+03 0.  1.
         -6    1    1    2    0  501 -0.13068580402E+03 -0.20913133186E+02 -0.12852618345E+04  0.13034562216E+04  0.17200000000E+03 0. -1.
</event>
<event>
 4    1  0.1054668E+000  0.1852732E+03  0.7818608E-02  0.1162795E+00
         -4   -1    0    0    0  501 -0.00000000000E+00  0.00000000000E+00  0.26051443678E+02  0.26051443678E+02  0.00000000000E+00 0.  1.
          4   -1    0    0  502    0  0.00000000000E+00 -0.00000000000E+00 -0.13924046763E+04  0.13924046763E+04  0.00000000000E+00 0. -1.
          6    1    1    2  502    0  0.50114331474E+02  0.47230395653E+02 -0.84753098444E+03  0.86754534525E+03  0.17200000000E+03 0.  1.
         -6    1    1    2    0  501 -0.50114331474E+02 -0.47230395653E+02 -0.51882224814E+03  0.55091077468E+03  0.17200000000E+03 0.  1.
</event>
<event>
 4    1  0.1054668E+000  0.1877358E+03  0.7818608E-02  0.1160519E+00
         -1   -1    0    0    0  501 -0.00000000000E+00  0.00000000000E+00  0.49417495927E+03  0.49417495927E+03  0.00000000000E+00 0. -1.
          1   -1    0    0  502    0  0.00000000000E+00 -0.00000000000E+00 -0.73021829565E+02  0.73021829565E+02  0.00000000000E+00 0.  1.
          6    1    1    2  502    0  0.58756379686E+02  0.46993803923E+02  0.25386691674E+03  0.31574220684E+03  0.17200000000E+03 0. -1.
         -6    1    1    2    0  501 -0.58756379686E+02 -0.46993803923E+02  0.16728621296E+03  0.25145458200E+03  0.17200000000E+03 0.  1.
</event>
<event>
 4    1  0.1054668E+000  0.1756649E+03  0.7818608E-02  0.1172066E+00
          1   -1    0    0  502    0  0.00000000000E+00  0.00000000000E+00  0.10275845895E+04  0.10275845895E+04  0.00000000000E+00 0.  1.
         -1   -1    0    0    0  501 -0.00000000000E+00 -0.00000000000E+00 -0.33715093854E+02  0.33715093854E+02  0.00000000000E+00 0. -1.
          6    1    1    2  502    0  0.35341903846E+02 -0.50096743254E+01  0.32149312244E+03  0.36635498466E+03  0.17200000000E+03 0. -1.
         -6    1    1    2    0  501 -0.35341903846E+02  0.50096743254E+01  0.67237637315E+03  0.69494469865E+03  0.17200000000E+03 0.  1.
</event>
<event>
 4    1  0.1054668E+000  0.2119109E+03  0.7818608E-02  0.1140062E+00
          1   -1    0    0  502    0  0.00000000000E+00  0.00000000000E+00  0.17247099146E+03  0.17247099146E+03  0.00000000000E+00 0. -1.
         -1   -1    0    0    0  501 -0.00000000000E+00 -0.00000000000E+00 -0.26039412759E+03  0.26039412759E+03  0.00000000000E+00 0.  1.
          6    1    1    2  502    0 -0.12189216609E+03  0.21553369145E+02 -0.41872168279E+02  0.21600816270E+03  0.17200000000E+03 0. -1.
         -6    1    1    2    0  501  0.12189216609E+03 -0.21553369145E+02 -0.46050967850E+02  0.21685695635E+03  0.17200000000E+03 0. -1.
</event>
<event>
 4    1  0.1054668E+000  0.1952077E+03  0.7818608E-02  0.1153846E+00
          1   -1    0    0  502    0  0.00000000000E+00  0.00000000000E+00  0.49792609370E+03  0.49792609370E+03  0.00000000000E+00 0.  1.
         -1   -1    0    0    0  501 -0.00000000000E+00 -0.00000000000E+00 -0.15529997107E+03  0.15529997107E+03  0.00000000000E+00 0. -1.
          6    1    1    2  502    0  0.30940750765E+02  0.86975346768E+02  0.40392366608E+03  0.44862051783E+03  0.17200000000E+03 0.  1.
         -6    1    1    2    0  501 -0.30940750765E+02 -0.86975346768E+02 -0.61297543450E+02  0.20460554693E+03  0.17200000000E+03 0. -1.
</event>
<event>
 4    1  0.1054668E+000  0.2082356E+03  0.7818608E-02  0.1142971E+00
          1   -1    0    0  502    0  0.00000000000E+00  0.00000000000E+00  0.20838413525E+04  0.20838413525E+04  0.00000000000E+00 0.  1.
         -1   -1    0    0    0  501 -0.00000000000E+00 -0.00000000000E+00 -0.29055999251E+02  0.29055999251E+02  0.00000000000E+00 0. -1.
          6    1    1    2  502    0 -0.76657526994E+02  0.88891520049E+02  0.46455164572E+03  0.50908772361E+03  0.17200000000E+03 0.  1.
         -6    1    1    2    0  501  0.76657526994E+02 -0.88891520049E+02  0.15902337075E+04  0.16038096282E+04  0.17200000000E+03 0.  1.
</event>
<event>
 4    1  0.1054668E+000  0.2225207E+03  0.7818608E-02  0.1132018E+00
          2   -1    0    0  502    0  0.00000000000E+00  0.00000000000E+00  0.10135517612E+04  0.10135517612E+04  0.00000000000E+00 0.  1.
         -2   -1    0    0    0  501 -0.00000000000E+00 -0.00000000000E+00 -0.54139235667E+02  0.54139235667E+02  0.00000000000E+00 0. -1.
          6    1    1    2  502    0 -0.11911655123E+03  0.75780553234E+02  0.64651413372E+03  0.68373676962E+03  0.17200000000E+03 0.  1.
         -6    1    1    2    0  501  0.11911655123E+03 -0.75780553234E+02  0.31289839182E+03  0.38395422726E+03  0.17200000000E+03 0. -1.
</event>
<event>
 4    1  0.1054668E+000  0.1760249E+03  0.7818608E-02  0.1171707E+00
          4   -1    0    0  502    0  0.00000000000E+00  0.00000000000E+00  0.64055842207E+02  0.64055842207E+02  0.00000000000E+00 0. -1.
         -4   -1    0    0    0  501 -0.00000000000E+00 -0.00000000000E+00 -0.48586542394E+03  0.48586542394E+03  0.00000000000E+00 0.  1.
          6    1    1    2  502    0 -0.24588566903E+02  0.28216669700E+02 -0.22919693195E+03  0.28899136957E+03  0.17200000000E+03 0.  1.
         -6    1    1    2    0  501  0.24588566903E+02 -0.28216669700E+02 -0.19261264979E+03  0.26092989658E+03  0.17200000000E+03 0. -1.
</event>
<event>
 4    1  0.1054668E+000  0.2255982E+03  0.7818608E-02  0.1129777E+00
         -2   -1    0    0    0  501 -0.00000000000E+00  0.00000000000E+00  0.11820060178E+03  0.11820060178E+03  0.00000000000E+00 0. -1.
          2   -1    0    0  502    0  0.00000000000E+00 -0.00000000000E+00 -0.79340503418E+03  0.79340503418E+03  0.00000000000E+00 0.  1.
          6    1    1    2  502    0 -0.14027906750E+03  0.40402118452E+02 -0.29368952261E+02  0.22750183145E+03  0.17200000000E+03 0. -1.
         -6    1    1    2    0  501  0.14027906750E+03 -0.40402118452E+02 -0.64583548014E+03  0.68410380452E+03  0.17200000000E+03 0.  1.
</event>
<event>
 4    1  0.1054668E+000  0.2407174E+03  0.7818608E-02  0.1119316E+00
         -2   -1    0    0    0  501 -0.00000000000E+00  0.00000000000E+00  0.77068291008E+03  0.77068291008E+03  0.00000000000E+00 0. -1.
          2   -1    0    0  502    0  0.00000000000E+00 -0.00000000000E+00 -0.82567500594E+02  0.82567500594E+02  0.00000000000E+00 0.  1.
          6    1    1    2  502    0 -0.87255251557E+02  0.14403956781E+03  0.21650125913E+03  0.32375557327E+03  0.17200000000E+03 0.  1.
         -6    1    1    2    0  501  0.87255251557E+02 -0.14403956781E+03  0.47161415036E+03  0.52949483741E+03  0.17200000000E+03 0. -1.
</event>
<event>
 4    1  0.1054668E+000  0.1969227E+03  0.7818608E-02  0.1152362E+00
          2   -1    0    0  502    0  0.00000000000E+00  0.00000000000E+00  0.12311064429E+04  0.12311064429E+04  0.00000000000E+00 0.  1.
         -2   -1    0    0    0  501 -0.00000000000E+00 -0.00000000000E+00 -0.31527937218E+02  0.31527937218E+02  0.00000000000E+00 0. -1.
          6    1    1    2  502    0 -0.25715605497E+02 -0.92375626749E+02  0.61893503467E+03  0.64950683285E+03  0.17200000000E+03 0.  1.
         -6    1    1    2    0  501  0.25715605497E+02  0.92375626749E+02  0.58064347102E+03  0.61312754727E+03  0.17200000000E+03 0. -1.
</event>
<event>
 4    1  0.1054668E+000  0.2383486E+03  0.7818608E-02  0.1120898E+00
         -1   -1    0    0    0  501 -0.00000000000E+00  0.00000000000E+00  0.11527981813E+03  0.11527981813E+03  0.00000000000E+00 0.  1.
          1   -1    0    0  502    0  0.00000000000E+00 -0.00000000000E+00 -0.15940080649E+04  0.15940080649E+04  0.00000000000E+00 0. -1.
          6    1    1    2  502    0  0.16463489487E+03  0.11018803240E+02 -0.29010884506E+02  0.24010767179E+03  0.17200000000E+03 0.  1.
         -6    1    1    2    0  501 -0.16463489487E+03 -0.11018803240E+02 -0.14497173622E+04  0.14691802112E+04  0.17200000000E+03 0. -1.
</event>
<event>
 4    1  0.1054668E+000  0.1766675E+03  0.7818608E-02  0.1171068E+00
         -2   -1    0    0    0  501 -0.00000000000E+00  0.00000000000E+00  0.16444247070E+02  0.16444247070E+02  0.00000000000E+00 0. -1.
          2   -1    0    0  502    0  0.00000000000E+00 -0.00000000000E+00 -0.23670242625E+04  0.23670242625E+04  0.00000000000E+00 0.  1.
          6    1    1    2  502    0  0.37051601990E+02 -0.15956184975E+02 -0.64481007195E+03  0.66857419180E+03  0.17200000000E+03 0. -1.
         -6    1    1    2    0  501 -0.37051601990E+02  0.15956184975E+02 -0.17057699435E+04  0.17148943178E+04  0.17200000000E+03 0.  1.
</event>
<event>
 4    1  0.1054668E+000  0.2830305E+03  0.7818608E-02  0.1094045E+00
         -1   -1    0    0    0  501 -0.00000000000E+00  0.00000000000E+00  0.14576370084E+03  0.14576370084E+03  0.00000000000E+00 0. -1.
          1   -1    0    0  502    0  0.00000000000E+00 -0.00000000000E+00 -0.59127326635E+03  0.59127326635E+03  0.00000000000E+00 0.  1.
          6    1    1    2  502    0  0.13732309341E+03  0.17794558415E+03 -0.32063372601E+03  0.42768241624E+03  0.17200000000E+03 0.  1.
         -6    1    1    2    0  501 -0.13732309341E+03 -0.17794558415E+03 -0.12487583950E+03  0.30935455095E+03  0.17200000000E+03 0. -1.
</event>
<event>
 4    1  0.1054668E+000  0.1777240E+03  0.7818608E-02  0.1170024E+00
          1   -1    0    0  502    0  0.00000000000E+00  0.00000000000E+00  0.31632362431E+03  0.31632362431E+03  0.00000000000E+00 0. -1.
         -1   -1    0    0    0  501 -0.00000000000E+00 -0.00000000000E+00 -0.10487326996E+03  0.10487326996E+03  0.00000000000E+00 0.  1.
          6    1    1    2  502    0 -0.38951122446E+02  0.22014046075E+02  0.15180319349E+03  0.23373065207E+03  0.17200000000E+03 0. -1.
         -6    1    1    2    0  501  0.38951122446E+02 -0.22014046075E+02  0.59647160863E+02  0.18746624220E+03  0.17200000000E+03 0.  1.
</event>
<event>
 4    1  0.1054668E+000  0.1938228E+03  0.7818608E-02  0.1155058E+00
          2   -1    0    0  502    0  0.00000000000E+00  0.00000000000E+00  0.57731688819E+03  0.57731688819E+03  0.00000000000E+00 0. -1.
         -2   -1    0    0    0  501 -0.00000000000E+00 -0.00000000000E+00 -0.67375155830E+02  0.67375155830E+02  0.00000000000E+00 0.  1.
          6    1    1    2  502    0  0.60572790177E+02  0.65682718793E+02  0.31456655288E+03  0.36948531588E+03  0.17200000000E+03 0. -1.
         -6    1    1    2    0  501 -0.60572790177E+02 -0.65682718793E+02  0.19537517948E+03  0.27520672814E+03  0.17200000000E+03 0.  1.
</event>
<event>
 4    1  0.1054668E+000  0.2259796E+03  0.7818608E-02  0.1129502E+00
          1   -1    0    0  502    0  0.00000000000E+00  0.00000000000E+00  0.13711374549E+04  0.13711374549E+04  0.00000000000E+00 0.  1.
         -1   -1    0    0    0  501 -0.00000000000E+00 -0.00000000000E+00 -0.41359040585E+02  0.41359040585E+02  0.00000000000E+00 0. -1.
          6    1    1    2  502    0  0.64761611300E+02 -0.13148658235E+03  0.44212076662E+03  0.49652548768E+03  0.17200000000E+03 0. -1.
         -6    1    1    2    0  501 -0.64761611300E+02  0.13148658235E+03  0.88765764770E+03  0.91597100782E+03  0.17200000000E+03 0. -1.
</event>
<event>
 4    1  0.1054668E+000  0.1755496E+03  0.7818608E-02  0.1172181E+00
          2   -1    0    0  502    0  0.00000000000E+00  0.00000000000E+00  0.58044102661E+02  0.58044102661E+02  0.00000000000E+00 0.  1.
         -2   -1    0    0    0  501 -0.00000000000E+00 -0.00000000000E+00 -0.53259537575E+03  0.53259537575E+03  0.00000000000E+00 0. -1.
          6    1    1    2  502    0 -0.22996773230E+02 -0.26548473276E+02 -0.25376239603E+03  0.30856608150E+03  0.17200000000E+03 0.  1.
         -6    1    1    2    0  501  0.22996773230E+02  0.26548473276E+02 -0.22078887706E+03  0.28207339691E+03  0.17200000000E+03 0.  1.
</event>
<event>
 4    1  0.1054668E+000  0.2073663E+03  0.7818608E-02  0.1143669E+00
         -3   -1    0    0    0  501 -0.00000000000E+00  0.00000000000E+00  0.23068068080E+03  0.23068068080E+03  0.00000000000E+00 0. -1.
          3   -1    0    0  502    0  0.00000000000E+00 -0.00000000000E+00 -0.19633893840E+03  0.19633893840E+03  0.00000000000E+00 0.  1.
          6    1    1    2  502    0  0.10584770422E+03 -0.47042914794E+02  0.65188997602E+02  0.21737152005E+03  0.17200000000E+03 0. -1.
         -6    1    1    2    0  501 -0.10584770422E+03  0.47042914794E+02 -0.30847255205E+02  0.20964809914E+03  0.17200000000E+03 0.  1.
</event>
<event>
 4    1  0.1054668E+000  0.1822790E+03  0.7818608E-02  0.1165615E+00
          1   -1    0    0  502    0  0.00000000000E+00  0.00000000000E+00  0.31608720621E+03  0.31608720621E+03  0.00000000000E+00 0.  1.
         -1   -1    0    0    0  501 -0.00000000000E+00 -0.00000000000E+00 -0.16758910229E+03  0.16758910229E+03  0.00000000000E+00 0. -1.
          6    1    1    2  502    0  0.24534258195E+02 -0.55133596585E+02 -0.73406724645E+02  0.19650493765E+03  0.17200000000E+03 0. -1.
         -6    1    1    2    0  501 -0.24534258195E+02  0.55133596585E+02  0.22190482857E+03  0.28717137086E+03  0.17200000000E+03 0.  1.
</event>
<event>
 4    1  0.1054668E+000  0.4212283E+03  0.7818608E-02  0.1036667E+00
         -2   -1    0    0    0  501 -0.00000000000E+00  0.00000000000E+00  0.17595546633E+03  0.17595546633E+03  0.00000000000E+00 0. -1.
          2   -1    0    0  502    0  0.00000000000E+00 -0.00000000000E+00 -0.10155394719E+04  0.10155394719E+04  0.00000000000E+00 0.  1.
          6    1    1    2  502    0 -0.40278677612E+01 -0.38449060935E+03 -0.46974807691E+03  0.63094889504E+03  0.17200000000E+03 0. -1.
         -6    1    1    2    0  501  0.40278677612E+01  0.38449060935E+03 -0.36983592863E+03  0.56054604316E+03  0.17200000000E+03 0. -1.
</event>
<event>
 4    1  0.1054668E+000  0.2324509E+03  0.7818608E-02  0.1124926E+00
         -1   -1    0    0    0  501 -0.00000000000E+00  0.00000000000E+00  0.94460956133E+02  0.94460956133E+02  0.00000000000E+00 0. -1.
          1   -1    0    0  502    0  0.00000000000E+00 -0.00000000000E+00 -0.18446268218E+04  0.18446268218E+04  0.00000000000E+00 0.  1.
          6    1    1    2  502    0 -0.13546008129E+03 -0.78102551167E+02 -0.69777659157E+02  0.24269809195E+03  0.17200000000E+03 0. -1.
         -6    1    1    2    0  501  0.13546008129E+03  0.78102551167E+02 -0.16803882065E+04  0.16963896860E+04  0.17200000000E+03 0.  1.
</event>
<event>
 4    1  0.1054668E+000  0.1845795E+03  0.7818608E-02  0.1163443E+00
         -1   -1    0    0    0  501 -0.00000000000E+00  0.00000000000E+00  0.10159538421E+03  0.10159538421E+03  0.00000000000E+00 0. -1.
          1   -1    0    0  502    0  0.00000000000E+00 -0.00000000000E+00 -0.45994694377E+03  0.45994694377E+03  0.00000000000E+00 0.  1.
          6    1    1    2  502    0  0.58321420021E+02  0.32927503991E+02 -0.32531246460E+03  0.37402915418E+03  0.17200000000E+03 0.  1.
         -6    1    1    2    0  501 -0.58321420021E+02 -0.32927503991E+02 -0.33039094971E+02  0.18751317380E+03  0.17200000000E+03 0. -1.
</event>
<event>
 4    1  0.1054668E+000  0.1928983E+03  0.7818608E-02  0.1155873E+00
          1   -1    0    0  502    0  0.00000000000E+00  0.00000000000E+00  0.20815506204E+03  0.20815506204E+03  0.00000000000E+00 0. -1.
         -1   -1    0    0    0  501 -0.00000000000E+00 -0.00000000000E+00 -0.17925359725E+03  0.17925359725E+03  0.00000000000E+00 0.  1.
          6    1    1    2  502    0  0.31940202424E+02 -0.81274649884E+02  0.42834449909E+01  0.19294582956E+03  0.17200000000E+03 0.  1.
         -6    1    1    2    0  501 -0.31940202424E+02  0.81274649884E+02  0.24618019804E+02  0.19446282972E+03  0.17200000000E+03 0.  1.
</event>
<event>
 4    1  0.1054668E+000  0.1774254E+03  0.7818608E-02  0.1170318E+00
         -2   -1    0    0    0  501 -0.00000000000E+00  0.00000000000E+00  0.60899654680E+02  0.60899654680E+02  0.00000000000E+00 0. -1.
          2   -1    0    0  502    0  0.00000000000E+00 -0.00000000000E+00 -0.52332392125E+03  0.52332392125E+03  0.00000000000E+00 0.  1.
          6    1    1    2  502    0  0.32101156072E+01  0.43421899071E+02 -0.19887840888E+03  0.26651901936E+03  0.17200000000E+03 0. -1.
         -6    1    1    2    0  501 -0.32101156072E+01 -0.43421899071E+02 -0.26354585768E+03  0.31770455657E+03  0.17200000000E+03 0.  1.
</event>
<event>
 4    1  0.1054668E+000  0.1901079E+03  0.7818608E-02  0.1158364E+00
         -3   -1    0    0    0  501 -0.00000000000E+00  0.00000000000E+00  0.16153843630E+03  0.16153843630E+03  0.00000000000E+00 0.  1.
          3   -1    0    0  502    0  0.00000000000E+00 -0.00000000000E+00 -0.22394335652E+03  0.22394335652E+03  0.00000000000E+00 0. -1.
          6    1    1    2  502    0  0.71388887336E+02  0.38218296719E+02 -0.25254746313E+02  0.19177803224E+03  0.17200000000E+03 0. -1.
         -6    1    1    2    0  501 -0.71388887336E+02 -0.38218296719E+02 -0.37150173903E+02  0.19370376057E+03  0.17200000000E+03 0.  1.
</event>
<event>
 4    1  0.1054668E+000  0.1936750E+03  0.7818608E-02  0.1155188E+00
          1   -1    0    0  502    0  0.00000000000E+00  0.00000000000E+00  0.42590479102E+03  0.42590479102E+03  0.00000000000E+00 0.  1.
         -1   -1    0    0    0  501 -0.00000000000E+00 -0.00000000000E+00 -0.90653252054E+02  0.90653252054E+02  0.00000000000E+00 0. -1.
          6    1    1    2  502    0  0.80195905772E+02  0.38660595340E+02  0.12403802924E+03  0.22999012508E+03  0.17200000000E+03 0. -1.
         -6    1    1    2    0  501 -0.80195905772E+02 -0.38660595340E+02  0.21121350973E+03  0.28656791800E+03  0.17200000000E+03 0. -1.
</event>
<event>
 4    1  0.1054668E+000  0.3172503E+03  0.7818608E-02  0.1076922E+00
         -1   -1    0    0    0  501 -0.00000000000E+00  0.00000000000E+00  0.18546311152E+03  0.18546311152E+03  0.00000000000E+00 0.  1.
          1   -1    0    0  502    0  0.00000000000E+00 -0.00000000000E+00 -0.58760063234E+03  0.58760063234E+03  0.00000000000E+00 0. -1.
          6    1    1    2  502    0 -0.25059660586E+03  0.90912426734E+02 -0.30793764969E+03  0.44212365273E+03  0.17200000000E+03 0.  1.
         -6    1    1    2    0  501  0.25059660586E+03 -0.90912426734E+02 -0.94199871128E+02  0.33094009114E+03  0.17200000000E+03 0. -1.
</event>
<event>
 4    1  0.1054668E+000  0.1916148E+03  0.7818608E-02  0.1157013E+00
         -3   -1    0    0    0  501 -0.00000000000E+00  0.00000000000E+00  0.37604170440E+03  0.37604170440E+03  0.00000000000E+00 0.  1.
          3   -1    0    0  502    0  0.00000000000E+00 -0.00000000000E+00 -0.98336767677E+02  0.98336767677E+02  0.00000000000E+00 0. -1.
          6    1    1    2  502    0 -0.79898444721E+02  0.27357919924E+02  0.11886808894E+03  0.22549022111E+03  0.17200000000E+03 0. -1.
         -6    1    1    2    0  501  0.79898444721E+02 -0.27357919924E+02  0.15883684779E+03  0.24888825096E+03  0.17200000000E+03 0.  1.
</event>
<event>
 4    1  0.1054668E+000  0.1981541E+03  0.7818608E-02  0.1151306E+00
          2   -1    0    0  502    0  0.00000000000E+00  0.00000000000E+00  0.27655557943E+04  0.27655557943E+04  0.00000000000E+00 0.  1.
         -2   -1    0    0    0  501 -0.00000000000E+00 -0.00000000000E+00 -0.19012999735E+02  0.19012999735E+02  0.00000000000E+00 0. -1.
          6    1    1    2  502    0 -0.84233905982E+02  0.50849649756E+02  0.20739293278E+04  0.20833741609E+04  0.17200000000E+03 0.  1.
         -6    1    1    2    0  501  0.84233905982E+02 -0.50849649756E+02  0.67261346679E+03  0.70119463311E+03  0.17200000000E+03 0.  1.
</event>
<event>
 4    1  0.1054668E+000  0.1813915E+03  0.7818608E-02  0.1166463E+00
         -1   -1    0    0    0  501 -0.00000000000E+00  0.00000000000E+00  0.27403107209E+03  0.27403107209E+03  0.00000000000E+00 0. -1.
          1   -1    0    0  502    0  0.00000000000E+00 -0.00000000000E+00 -0.22513561225E+03  0.22513561225E+03  0.00000000000E+00 0.  1.
          6    1    1    2  502    0  0.43205317433E+02  0.38107365521E+02 -0.14605215774E+03  0.23288216664E+03  0.17200000000E+03 0.  1.
         -6    1    1    2    0  501 -0.43205317433E+02 -0.38107365521E+02  0.19494761758E+03  0.26628451769E+03  0.17200000000E+03 0. -1.
</event>
<event>
 4    1  0.1054668E+000  0.2329467E+03  0.7818608E-02  0.1124583E+00
         -2   -1    0    0    0  501 -0.00000000000E+00  0.00000000000E+00  0.46114514820E+02  0.46114514820E+02  0.00000000000E+00 0. -1.
          2   -1    0    0  502    0  0.00000000000E+00 -0.00000000000E+00 -0.20459538996E+04  0.20459538996E+04  0.00000000000E+00 0.  1.
          6    1    1    2  502    0  0.12494452697E+03  0.95231419358E+02 -0.16817318523E+04  0.16977886149E+04  0.17200000000E+03 0.  1.
         -6    1    1    2    0  501 -0.12494452697E+03 -0.95231419358E+02 -0.31810753257E+03  0.39427979955E+03  0.17200000000E+03 0. -1.
</event>
<event>
 4    1  0.1054668E+000  0.3777791E+03  0.7818608E-02  0.1051758E+00
          2   -1    0    0  502    0  0.00000000000E+00  0.00000000000E+00  0.35433092358E+04  0.35433092358E+04  0.00000000000E+00 0. -1.
         -2   -1    0    0    0  501 -0.00000000000E+00 -0.00000000000E+00 -0.58621281108E+02  0.58621281108E+02  0.00000000000E+00 0.  1.
          6    1    1    2  502    0  0.22537894224E+03  0.24967459582E+03  0.27497796445E+04  0.27756089719E+04  0.17200000000E+03 0. -1.
         -6    1    1    2    0  501 -0.22537894224E+03 -0.24967459582E+03  0.73490831017E+03  0.82632154502E+03  0.17200000000E+03 0.  1.
</event>
<event>
 4    1  0.1054668E+000  0.1978253E+03  0.7818608E-02  0.1151587E+00
         -1   -1    0    0    0  501 -0.00000000000E+00  0.00000000000E+00  0.38381098297E+03  0.38381098297E+03  0.00000000000E+00 0. -1.
          1   -1    0    0  502    0  0.00000000000E+00 -0.00000000000E+00 -0.10210456403E+03  0.10210456403E+03  0.00000000000E+00 0.  1.
          6    1    1    2  502    0 -0.95192045892E+02  0.22120869376E+02  0.13183490721E+03  0.23772947066E+03  0.17200000000E+03 0.  1.
         -6    1    1    2    0  501  0.95192045892E+02 -0.22120869376E+02  0.14987151173E+03  0.24818607635E+03  0.17200000000E+03 0. -1.
</event>
<event>
 4    1  0.1054668E+000  0.3122904E+03  0.7818608E-02  0.1079253E+00
          2   -1    0    0  502    0  0.00000000000E+00  0.00000000000E+00  0.10921708014E+04  0.10921708014E+04  0.00000000000E+00 0.  1.
         -2   -1    0    0    0  501 -0.00000000000E+00 -0.00000000000E+00 -0.10300299068E+03  0.10300299068E+03  0.00000000000E+00 0. -1.
          6    1    1    2  502    0  0.22330129599E+03 -0.13445373012E+03  0.27657976044E+03  0.41715900831E+03  0.17200000000E+03 0.  1.
         -6    1    1    2    0  501 -0.22330129599E+03  0.13445373012E+03  0.71258805025E+03  0.77801478372E+03  0.17200000000E+03 0. -1.
</event>
<event>
 4    1  0.1054668E+000  0.3214838E+03  0.7818608E-02  0.1074968E+00
         -2   -1    0    0    0  501 -0.00000000000E+00  0.00000000000E+00  0.65943968218E+03  0.65943968218E+03  0.00000000000E+00 0. -1.
          2   -1    0    0  502    0  0.00000000000E+00 -0.00000000000E+00 -0.18478548570E+03  0.18478548570E+03  0.00000000000E+00 0.  1.
          6    1    1    2  502    0  0.94378562962E+02 -0.25467734537E+03  0.40181278981E+03  0.51459244208E+03  0.17200000000E+03 0. -1.
         -6    1    1    2    0  501 -0.94378562962E+02  0.25467734537E+03  0.72841406668E+02  0.32963272579E+03  0.17200000000E+03 0.  1.
</event>
<event>
 4    1  0.1054668E+000  0.1850693E+03  0.7818608E-02  0.1162985E+00
          1   -1    0    0  502    0  0.00000000000E+00  0.00000000000E+00  0.23550730704E+04  0.23550730704E+04  0.00000000000E+00 0. -1.
         -1   -1    0    0    0  501 -0.00000000000E+00 -0.00000000000E+00 -0.14729965619E+02  0.14729965619E+02  0.00000000000E+00 0.  1.
          6    1    1    2  502    0 -0.68068717353E+02  0.57688969068E+01  0.13035439624E+04  0.13166159244E+04  0.17200000000E+03 0. -1.
         -6    1    1    2    0  501  0.68068717353E+02 -0.57688969068E+01  0.10367991424E+04  0.10531871116E+04  0.17200000000E+03 0.  1.
</event>
<event>
 4    1  0.1054668E+000  0.2134579E+03  0.7818608E-02  0.1138857E+00
         -1   -1    0    0    0  501 -0.00000000000E+00  0.00000000000E+00  0.19231618441E+02  0.19231618441E+02  0.00000000000E+00 0. -1.
          1   -1    0    0  502    0  0.00000000000E+00 -0.00000000000E+00 -0.30511855165E+04  0.30511855165E+04  0.00000000000E+00 0.  1.
          6    1    1    2  502    0  0.20962308201E+02 -0.12466290045E+03 -0.79019033618E+03  0.81851391222E+03  0.17200000000E+03 0.  1.
         -6    1    1    2    0  501 -0.20962308201E+02  0.12466290045E+03 -0.22417635619E+04  0.22519032228E+04  0.17200000000E+03 0. -1.
</event>
<event>
 4    1  0.1054668E+000  0.3119976E+03  0.7818608E-02  0.1079392E+00
         -2   -1    0    0    0  501 -0.00000000000E+00  0.00000000000E+00  0.26570053903E+03  0.26570053903E+03  0.00000000000E+00 0.  1.
          2   -1    0    0  502    0  0.00000000000E+00 -0.00000000000E+00 -0.38777345663E+03  0.38777345663E+03  0.00000000000E+00 0. -1.
          6    1    1    2  502    0 -0.23494567689E+03  0.11206713706E+03  0.15741210348E+02  0.31239446218E+03  0.17200000000E+03 0.  1.
         -6    1    1    2    0  501  0.23494567689E+03 -0.11206713706E+03 -0.13781412795E+03  0.34107953348E+03  0.17200000000E+03 0.  1.
</event>
<event>
 4    1  0.1054668E+000  0.1789896E+03  0.7818608E-02  0.1168784E+00
         -2   -1    0    0    0  501 -0.00000000000E+00  0.00000000000E+00  0.10703051826E+02  0.10703051826E+02  0.00000000000E+00 0.  1.
          2   -1    0    0  502    0  0.00000000000E+00 -0.00000000000E+00 -0.30101941899E+04  0.30101941899E+04  0.00000000000E+00 0. -1.
          6    1    1    2  502    0 -0.35250605176E+01 -0.49405109363E+02 -0.16129497392E+04  0.16228506253E+04  0.17200000000E+03 0. -1.
         -6    1    1    2    0  501  0.35250605176E+01  0.49405109363E+02 -0.13865413989E+04  0.13980466165E+04  0.17200000000E+03 0. -1.
</event>
<event>
 4    1  0.1054668E+000  0.1830031E+03  0.7818608E-02  0.1164928E+00
         -2   -1    0    0    0  501 -0.00000000000E+00  0.00000000000E+00  0.34690549732E+02  0.34690549732E+02  0.00000000000E+00 0.  1.
          2   -1    0    0  502    0  0.00000000000E+00 -0.00000000000E+00 -0.12208015933E+04  0.12208015933E+04  0.00000000000E+00 0. -1.
          6    1    1    2  502    0 -0.17094030649E+02  0.60115809802E+02 -0.30592676006E+03  0.35648464062E+03  0.17200000000E+03 0.  1.
         -6    1    1    2    0  501  0.17094030649E+02 -0.60115809802E+02 -0.88018428350E+03  0.89900750241E+03  0.17200000000E+03 0. -1.
</event>
<event>
 4    1  0.1054668E+000  0.1869390E+03  0.7818608E-02  0.1161251E+00
          1   -1    0    0  502    0  0.00000000000E+00  0.00000000000E+00  0.88793238985E+03  0.88793238985E+03  0.00000000000E+00 0.  1.
         -1   -1    0    0    0  501 -0.00000000000E+00 -0.00000000000E+00 -0.70477443688E+02  0.70477443688E+02  0.00000000000E+00 0. -1.
          6    1    1    2  502    0  0.72924494918E+02  0.66502425812E+01  0.72716206681E+03  0.75080681876E+03  0.17200000000E+03 0.  1.
         -6    1    1    2    0  501 -0.72924494918E+02 -0.66502425812E+01  0.90292879356E+02  0.20760301479E+03  0.17200000000E+03 0. -1.
</event>
<event>
 4    1  0.1054668E+000  0.2830932E+03  0.7818608E-02  0.1094011E+00
          1   -1    0    0  502    0  0.00000000000E+00  0.00000000000E+00  0.62043718164E+03  0.62043718164E+03  0.00000000000E+00 0.  1.
         -1   -1    0    0    0  501 -0.00000000000E+00 -0.00000000000E+00 -0.14323261014E+03  0.14323261014E+03  0.00000000000E+00 0. -1.
          6    1    1    2  502    0 -0.18143370983E+03 -0.13281402825E+03  0.11895841406E+03  0.30707142726E+03  0.17200000000E+03 0. -1.
         -6    1    1    2    0  501  0.18143370983E+03  0.13281402825E+03  0.35824615745E+03  0.45659836453E+03  0.17200000000E+03 0. -1.
</event>
<event>
 4    1  0.1054668E+000  0.1881785E+03  0.7818608E-02  0.1160115E+00
          2   -1    0    0  502    0  0.00000000000E+00  0.00000000000E+00  0.82685138258E+03  0.82685138258E+03  0.00000000000E+00 0. -1.
         -2   -1    0    0    0  501 -0.00000000000E+00 -0.00000000000E+00 -0.43814590176E+02  0.43814590176E+02  0.00000000000E+00 0.  1.
          6    1    1    2  502    0  0.59233800245E+02 -0.48150918165E+02  0.32614370969E+03  0.37653801054E+03  0.17200000000E+03 0.  1.
         -6    1    1    2    0  501 -0.59233800245E+02  0.48150918165E+02  0.45689308270E+03  0.49412796221E+03  0.17200000000E+03 0.  1.
</event>
<event>
 4    1  0.1054668E+000  0.2404618E+03  0.7818608E-02  0.1119486E+00
          1   -1    0    0  502    0  0.00000000000E+00  0.00000000000E+00  0.74877698686E+02  0.74877698686E+02  0.00000000000E+00 0. -1.
         -1   -1    0    0    0  501 -0.00000000000E+00 -0.00000000000E+00 -0.13252965250E+04  0.13252965250E+04  0.00000000000E+00 0.  1.
          6    1    1    2  502    0  0.16733656221E+03  0.15373094104E+02 -0.17294833749E+03  0.29619754306E+03  0.17200000000E+03 0. -1.
         -6    1    1    2    0  501 -0.16733656221E+03 -0.15373094104E+02 -0.10774704888E+04  0.11039766806E+04  0.17200000000E+03 0.  1.
</event>
<event>
 4    1  0.1054668E+000  0.3289277E+03  0.7818608E-02  0.1071612E+00
          1   -1    0    0  502    0  0.00000000000E+00  0.00000000000E+00  0.11208924998E+04  0.11208924998E+04  0.00000000000E+00 0.  1.
         -1   -1    0    0    0  501 -0.00000000000E+00 -0.00000000000E+00 -0.18894413080E+03  0.18894413080E+03  0.00000000000E+00 0. -1.
          6    1    1    2  502    0 -0.22887886270E+03  0.16193786118E+03  0.92401368473E+03  0.98081328205E+03  0.17200000000E+03 0.  1.
         -6    1    1    2    0  501  0.22887886270E+03 -0.16193786118E+03  0.79346842640E+01  0.32902334855E+03  0.17200000000E+03 0. -1.
</event>
<event>
 4    1  0.1054668E+000  0.1786450E+03  0.7818608E-02  0.1169121E+00
          2   -1    0    0  502    0  0.00000000000E+00  0.00000000000E+00  0.19859970787E+03  0.19859970787E+03  0.00000000000E+00 0.  1.
         -2   -1    0    0    0  501 -0.00000000000E+00 -0.00000000000E+00 -0.16176467507E+03  0.16176467507E+03  0.00000000000E+00 0. -1.
          6    1    1    2  502    0  0.46119734940E+02 -0.14247687389E+02  0.37671519046E+01  0.17868468871E+03  0.17200000000E+03 0.  1.
         -6    1    1    2    0  501 -0.46119734940E+02  0.14247687389E+02  0.33067880891E+02  0.18167969422E+03  0.17200000000E+03 0.  1.
</event>
<event>
 4    1  0.1054668E+000  0.2550118E+03  0.7818608E-02  0.1110178E+00
         -2   -1    0    0    0  501 -0.00000000000E+00  0.00000000000E+00  0.45895307492E+03  0.45895307492E+03  0.00000000000E+00 0.  1.
          2   -1    0    0  502    0  0.00000000000E+00 -0.00000000000E+00 -0.16188632797E+03  0.16188632797E+03  0.00000000000E+00 0. -1.
          6    1    1    2  502    0 -0.43184284479E+02  0.18325426416E+03  0.38902016106E+02  0.25796196351E+03  0.17200000000E+03 0. -1.
         -6    1    1    2    0  501  0.43184284479E+02 -0.18325426416E+03  0.25816473084E+03  0.36287743938E+03  0.17200000000E+03 0. -1.
</event>
<event>
 4    1  0.1054668E+000  0.2256310E+03  0.7818608E-02  0.1129753E+00
          2   -1    0    0  502    0  0.00000000000E+00  0.00000000000E+00  0.83252317815E+02  0.83252317815E+02  0.00000000000E+00 0. -1.
         -2   -1    0    0    0  501 -0.00000000000E+00 -0.00000000000E+00 -0.61210051486E+03  0.61210051486E+03  0.00000000000E+00 0.  1.
          6    1    1    2  502    0  0.76650300465E+02 -0.12429841623E+03 -0.27525151366E+03  0.35591116955E+03  0.17200000000E+03 0.  1.
         -6    1    1    2    0  501 -0.76650300465E+02  0.12429841623E+03 -0.25359668338E+03  0.33944166312E+03  0.17200000000E+03 0. -1.
</event>
<event>
 4    1  0.1054668E+000  0.2000822E+03  0.7818608E-02  0.1149670E+00
         -1   -1    0    0    0  501 -0.00000000000E+00  0.00000000000E+00  0.17260634569E+02  0.17260634569E+02  0.00000000000E+00 0.  1.
          1   -1    0    0  502    0  0.00000000000E+00 -0.00000000000E+00 -0.23631341455E+04  0.23631341455E+04  0.00000000000E+00 0. -1.
          6    1    1    2  502    0  0.18456938955E+02  0.10053959011E+03 -0.13350062478E+04  0.13499164972E+04  0.17200000000E+03 0. -1.
         -6    1    1    2    0  501 -0.18456938955E+02 -0.10053959011E+03 -0.10108672632E+04  0.10304782829E+04  0.17200000000E+03 0.  1.
</event>
<event>
 4    1  0.1054668E+000  0.2728653E+03  0.7818608E-02  0.1099651E+00
         -2   -1    0    0    0  501 -0.00000000000E+00  0.00000000000E+00  0.43365346287E+03  0.43365346287E+03  0.00000000000E+00 0. -1.
          2   -1    0    0  502    0  0.00000000000E+00 -0.00000000000E+00 -0.29730227612E+03  0.29730227612E+03  0.00000000000E+00 0.  1.
          6    1    1    2  502    0 -0.21001114112E+03  0.27691339865E+02  0.30573483172E+03  0.40979174836E+03  0.17200000000E+03 0. -1.
         -6    1    1    2    0  501  0.21001114112E+03 -0.27691339865E+02 -0.16938364496E+03  0.32116399063E+03  0.17200000000E+03 0.  1.
</event>
<event>
 4    1  0.1054668E+000  0.2966110E+03  0.7818608E-02  0.1086947E+00
          2   -1    0    0  502    0  0.00000000000E+00  0.00000000000E+00  0.15568672357E+04  0.15568672357E+04  0.00000000000E+00 0.  1.
         -2   -1    0    0    0  501 -0.00000000000E+00 -0.00000000000E+00 -0.71359327543E+02  0.71359327543E+02  0.00000000000E+00 0. -1.
          6    1    1    2  502    0  0.22709011158E+03 -0.82608409295E+02  0.37137477661E+03  0.47528653754E+03  0.17200000000E+03 0. -1.
         -6    1    1    2    0  501 -0.22709011158E+03  0.82608409295E+02  0.11141331316E+04  0.11529400257E+04  0.17200000000E+03 0.  1.
</event>
<event>
 4    1  0.1054668E+000  0.3695669E+03  0.7818608E-02  0.1054859E+00
          2   -1    0    0  502    0  0.00000000000E+00  0.00000000000E+00  0.33235570516E+03  0.33235570516E+03  0.00000000000E+00 0.  1.
         -2   -1    0    0    0  501 -0.00000000000E+00 -0.00000000000E+00 -0.50640568376E+03  0.50640568376E+03  0.00000000000E+00 0. -1.
          6    1    1    2  502    0  0.52392243364E+02 -0.32287887444E+03 -0.26910941122E+03  0.45716472953E+03  0.17200000000E+03 0. -1.
         -6    1    1    2    0  501 -0.52392243364E+02  0.32287887444E+03  0.95059432618E+02  0.38159665938E+03  0.17200000000E+03 0.  1.
</event>
<event>
 4    1  0.1054668E+000  0.2044432E+03  0.7818608E-02  0.1146044E+00
         -2   -1    0    0    0  501 -0.00000000000E+00  0.00000000000E+00  0.92986420340E+02  0.92986420340E+02  0.00000000000E+00 0. -1.
          2   -1    0    0  502    0  0.00000000000E+00 -0.00000000000E+00 -0.58744104883E+03  0.58744104883E+03  0.00000000000E+00 0.  1.
          6    1    1    2  502    0  0.30032265938E+02  0.10635353748E+03 -0.41209022369E+03  0.46001670013E+03  0.17200000000E+03 0. -1.
         -6    1    1    2    0  501 -0.30032265938E+02 -0.10635353748E+03 -0.82364404799E+02  0.22041076904E+03  0.17200000000E+03 0. -1.
</event>
<event>
 4    1  0.1054668E+000  0.2805546E+03  0.7818608E-02  0.1095386E+00
         -2   -1    0    0    0  501 -0.00000000000E+00  0.00000000000E+00  0.39732867103E+02  0.39732867103E+02  0.00000000000E+00 0. -1.
          2   -1    0    0  502    0  0.00000000000E+00 -0.00000000000E+00 -0.21576951774E+04  0.21576951774E+04  0.00000000000E+00 0.  1.
          6    1    1    2  502    0 -0.21913390822E+03  0.33275208853E+02 -0.74456931556E+03  0.79567227860E+03  0.17200000000E+03 0. -1.
         -6    1    1    2    0  501  0.21913390822E+03 -0.33275208853E+02 -0.13733929948E+04  0.14017557659E+04  0.17200000000E+03 0.  1.
</event>
<event>
 4    1  0.1054668E+000  0.2178033E+03  0.7818608E-02  0.1135531E+00
          1   -1    0    0  502    0  0.00000000000E+00  0.00000000000E+00  0.22227700247E+04  0.22227700247E+04  0.00000000000E+00 0. -1.
         -1   -1    0    0    0  501 -0.00000000000E+00 -0.00000000000E+00 -0.50775700867E+02  0.50775700867E+02  0.00000000000E+00 0.  1.
          6    1    1    2  502    0 -0.51828750109E+02 -0.12315874389E+03  0.22049456177E+03  0.30992926178E+03  0.17200000000E+03 0.  1.
         -6    1    1    2    0  501  0.51828750109E+02  0.12315874389E+03  0.19514997621E+04  0.19636164638E+04  0.17200000000E+03 0. -1.
</event>
<event>
 4    1  0.1054668E+000  0.2167074E+03  0.7818608E-02  0.1136362E+00
         -1   -1    0    0    0  501 -0.00000000000E+00  0.00000000000E+00  0.15382842233E+03  0.15382842233E+03  0.00000000000E+00 0.  1.
          1   -1    0    0  502    0  0.00000000000E+00 -0.00000000000E+00 -0.31617856007E+03  0.31617856007E+03  0.00000000000E+00 0. -1.
          6    1    1    2  502    0  0.56928370019E+02 -0.11890011963E+03 -0.12478841677E+03  0.25006844407E+03  0.17200000000E+03 0.  1.
         -6    1    1    2    0  501 -0.56928370019E+02  0.11890011963E+03 -0.37561720970E+02  0.21993853833E+03  0.17200000000E+03 0.  1.
</event>
<event>
 4    1  0.1054668E+000  0.2304893E+03  0.7818608E-02  0.1126296E+00
         -1   -1    0    0    0  501 -0.00000000000E+00  0.00000000000E+00  0.64863638052E+03  0.64863638052E+03  0.00000000000E+00 0. -1.
          1   -1    0    0  502    0  0.00000000000E+00 -0.00000000000E+00 -0.97996331424E+02  0.97996331424E+02  0.00000000000E+00 0.  1.
          6    1    1    2  502    0 -0.95838312739E+02 -0.11981800261E+03  0.42660424119E+03  0.48488814642E+03  0.17200000000E+03 0.  1.
         -6    1    1    2    0  501  0.95838312739E+02  0.11981800261E+03  0.12403580791E+03  0.26174456553E+03  0.17200000000E+03 0.  1.
</event>
<event>
 4    1  0.1054668E+000  0.1937250E+03  0.7818608E-02  0.1155144E+00
          2   -1    0    0  502    0  0.00000000000E+00  0.00000000000E+00  0.10121992797E+04  0.10121992797E+04  0.00000000000E+00 0. -1.
         -2   -1    0    0    0  501 -0.00000000000E+00 -0.00000000000E+00 -0.37954310243E+02  0.37954310243E+02  0.00000000000E+00 0.  1.
          6    1    1    2  502    0 -0.60215868124E+02  0.65722332785E+02  0.40729481689E+03  0.45101933846E+03  0.17200000000E+03 0.  1.
         -6    1    1    2    0  501  0.60215868124E+02 -0.65722332785E+02  0.56695015254E+03  0.59913425145E+03  0.17200000000E+03 0. -1.
</event>
<event>
 4    1  0.1054668E+000  0.1878473E+03  0.7818608E-02  0.1160417E+00
          2   -1    0    0  502    0  0.00000000000E+00  0.00000000000E+00  0.11604337341E+04  0.11604337341E+04  0.00000000000E+00 0. -1.
         -2   -1    0    0    0  501 -0.00000000000E+00 -0.00000000000E+00 -0.47662599817E+02  0.47662599817E+02  0.00000000000E+00 0.  1.
          6    1    1    2  502    0 -0.75461779793E+02  0.28508778840E+01  0.19294479376E+03  0.26928479562E+03  0.17200000000E+03 0.  1.
         -6    1    1    2    0  501  0.75461779793E+02 -0.28508778840E+01  0.91982634050E+03  0.93881153827E+03  0.17200000000E+03 0. -1.
</event>
<event>
 4    1  0.1054668E+000  0.1755261E+03  0.7818608E-02  0.1172205E+00
          4   -1    0    0  502    0  0.00000000000E+00  0.00000000000E+00  0.43614444712E+02  0.43614444712E+02  0.00000000000E+00 0. -1.
         -4   -1    0    0    0  501 -0.00000000000E+00 -0.00000000000E+00 -0.72235808627E+03  0.72235808627E+03  0.00000000000E+00 0.  1.
          6    1    1    2  502    0 -0.27108773858E+02  0.22147820142E+02 -0.28245443140E+03  0.33255062377E+03  0.17200000000E+03 0. -1.
         -6    1    1    2    0  501  0.27108773858E+02 -0.22147820142E+02 -0.39628921016E+03  0.43342190721E+03  0.17200000000E+03 0. -1.
</event>
<event>
 4    1  0.1054668E+000  0.2459247E+03  0.7818608E-02  0.1115908E+00
         -2   -1    0    0    0  501 -0.00000000000E+00  0.00000000000E+00  0.83939897927E+02  0.83939897927E+02  0.00000000000E+00 0.  1.
          2   -1    0    0  502    0  0.00000000000E+00 -0.00000000000E+00 -0.11425313709E+04  0.11425313709E+04  0.00000000000E+00 0. -1.
          6    1    1    2  502    0 -0.16858456517E+03  0.49741148562E+02 -0.90199986746E+03  0.93492389977E+03  0.17200000000E+03 0. -1.
         -6    1    1    2    0  501  0.16858456517E+03 -0.49741148562E+02 -0.15659160548E+03  0.29154736901E+03  0.17200000000E+03 0.  1.
</event>
<event>
 4    1  0.1054668E+000  0.2814947E+03  0.7818608E-02  0.1094875E+00
          2   -1    0    0  502    0  0.00000000000E+00  0.00000000000E+00  0.11202068831E+04  0.11202068831E+04  0.00000000000E+00 0. -1.
         -2   -1    0    0    0  501 -0.00000000000E+00 -0.00000000000E+00 -0.73955927480E+02  0.73955927480E+02  0.00000000000E+00 0.  1.
          6    1    1    2  502    0  0.30496640781E+02 -0.22073794391E+03  0.64770600837E+03  0.70623109409E+03  0.17200000000E+03 0. -1.
         -6    1    1    2    0  501 -0.30496640781E+02  0.22073794391E+03  0.39854494726E+03  0.48793171650E+03  0.17200000000E+03 0.  1.
</event>
<event>
 4    1  0.1054668E+000  0.1725802E+03  0.7818608E-02  0.1175184E+00
         -2   -1    0    0    0  501 -0.00000000000E+00  0.00000000000E+00  0.56739726784E+02  0.56739726784E+02  0.00000000000E+00 0. -1.
          2   -1    0    0  502    0  0.00000000000E+00 -0.00000000000E+00 -0.52614853443E+03  0.52614853443E+03  0.00000000000E+00 0.  1.
          6    1    1    2  502    0  0.11440093431E+02  0.83095239561E+01 -0.22063218285E+03  0.28011155641E+03  0.17200000000E+03 0.  1.
         -6    1    1    2    0  501 -0.11440093431E+02 -0.83095239561E+01 -0.24877662480E+03  0.30277670480E+03  0.17200000000E+03 0.  1.
</event>
<event>
 4    1  0.1054668E+000  0.1978288E+03  0.7818608E-02  0.1151584E+00
         -2   -1    0    0    0  501 -0.00000000000E+00  0.00000000000E+00  0.30168647949E+03  0.30168647949E+03  0.00000000000E+00 0.  1.
          2   -1    0    0  502    0  0.00000000000E+00 -0.00000000000E+00 -0.15060383453E+03  0.15060383453E+03  0.00000000000E+00 0. -1.
          6    1    1    2  502    0 -0.97681357232E+02 -0.32510338735E+01 -0.86610896478E+01  0.19801825988E+03  0.17200000000E+03 0.  1.
         -6    1    1    2    0  501  0.97681357232E+02  0.32510338735E+01  0.15974373461E+03  0.25427205415E+03  0.17200000000E+03 0. -1.
</event>
<event>
 4    1  0.1054668E+000  0.2025898E+03  0.7818608E-02  0.1147572E+00
          2   -1    0    0  502    0  0.00000000000E+00  0.00000000000E+00  0.85869890680E+03  0.85869890680E+03  0.00000000000E+00 0.  1.
         -2   -1    0    0    0  501 -0.00000000000E+00 -0.00000000000E+00 -0.48214469506E+02  0.48214469506E+02  0.00000000000E+00 0. -1.
          6    1    1    2  502    0  0.65375149279E+02 -0.84762805252E+02  0.36301275246E+03  0.41571733395E+03  0.17200000000E+03 0. -1.
         -6    1    1    2    0  501 -0.65375149279E+02  0.84762805252E+02  0.44747168483E+03  0.49119604235E+03  0.17200000000E+03 0.  1.
</event>
<event>
 4    1  0.1054668E+000  0.2598761E+03  0.7818608E-02  0.1107218E+00
         -2   -1    0    0    0  501 -0.00000000000E+00  0.00000000000E+00  0.13682762764E+03  0.13682762764E+03  0.00000000000E+00 0.  1.
          2   -1    0    0  502    0  0.00000000000E+00 -0.00000000000E+00 -0.49424051508E+03  0.49424051508E+03  0.00000000000E+00 0. -1.
          6    1    1    2  502    0  0.16817862180E+03 -0.98323744594E+02 -0.19022696288E+03  0.32205885330E+03  0.17200000000E+03 0. -1.
         -6    1    1    2    0  501 -0.16817862180E+03  0.98323744594E+02 -0.16718592456E+03  0.30900928943E+03  0.17200000000E+03 0. -1.
</event>
<event>
 4    1  0.1054668E+000  0.1786865E+03  0.7818608E-02  0.1169080E+00
          2   -1    0    0  502    0  0.00000000000E+00  0.00000000000E+00  0.27151277951E+04  0.27151277951E+04  0.00000000000E+00 0. -1.
         -2   -1    0    0    0  501 -0.00000000000E+00 -0.00000000000E+00 -0.11761001866E+02  0.11761001866E+02  0.00000000000E+00 0.  1.
          6    1    1    2  502    0 -0.35151039611E+02 -0.33305480585E+02  0.13368639670E+04  0.13487528005E+04  0.17200000000E+03 0.  1.
         -6    1    1    2    0  501  0.35151039611E+02  0.33305480585E+02  0.13665028262E+04  0.13781359965E+04  0.17200000000E+03 0. -1.
</event>
<event>
 4    1  0.1054668E+000  0.1798907E+03  0.7818608E-02  0.1167909E+00
          2   -1    0    0  502    0  0.00000000000E+00  0.00000000000E+00  0.42305808284E+03  0.42305808284E+03  0.00000000000E+00 0.  1.
         -2   -1    0    0    0  501 -0.00000000000E+00 -0.00000000000E+00 -0.77445273104E+02  0.77445273104E+02  0.00000000000E+00 0. -1.
          6    1    1    2  502    0 -0.70581039302E+01  0.52219159944E+02  0.14504540520E+03  0.23108186226E+03  0.17200000000E+03 0. -1.
         -6    1    1    2    0  501  0.70581039302E+01 -0.52219159944E+02  0.20056740453E+03  0.26942149368E+03  0.17200000000E+03 0. -1.
</event>
<event>
 4    1  0.1054668E+000  0.1897777E+03  0.7818608E-02  0.1158662E+00
          1   -1    0    0  502    0  0.00000000000E+00  0.00000000000E+00  0.17790615446E+03  0.17790615446E+03  0.00000000000E+00 0.  1.
         -1   -1    0    0    0  501 -0.00000000000E+00 -0.00000000000E+00 -0.21056148109E+03  0.21056148109E+03  0.00000000000E+00 0. -1.
          6    1    1    2  502    0 -0.30404173686E+02 -0.74210285057E+02  0.21815278209E+02  0.19102744973E+03  0.17200000000E+03 0.  1.
         -6    1    1    2    0  501  0.30404173686E+02  0.74210285057E+02 -0.54470604835E+02  0.19744018582E+03  0.17200000000E+03 0. -1.
</event>
<event>
 4    1  0.1054668E+000  0.3066753E+03  0.7818608E-02  0.1081950E+00
         -2   -1    0    0    0  501 -0.00000000000E+00  0.00000000000E+00  0.85023684702E+02  0.85023684702E+02  0.00000000000E+00 0. -1.
          2   -1    0    0  502    0  0.00000000000E+00 -0.00000000000E+00 -0.11065691712E+04  0.11065691712E+04  0.00000000000E+00 0.  1.
          6    1    1    2  502    0 -0.25221307116E+03  0.29228708904E+02 -0.49930803762E+03  0.58596780382E+03  0.17200000000E+03 0. -1.
         -6    1    1    2    0  501  0.25221307116E+03 -0.29228708904E+02 -0.52223744884E+03  0.60562505204E+03  0.17200000000E+03 0.  1.
</event>
<event>
 4    1  0.1054668E+000  0.1892496E+03  0.7818608E-02  0.1159140E+00
          1   -1    0    0  502    0  0.00000000000E+00  0.00000000000E+00  0.20450923561E+03  0.20450923561E+03  0.00000000000E+00 0.  1.
         -1   -1    0    0    0  501 -0.00000000000E+00 -0.00000000000E+00 -0.20094927551E+03  0.20094927551E+03  0.00000000000E+00 0. -1.
          6    1    1    2  502    0  0.64315238712E+02  0.45770609478E+02 -0.70890448740E+02  0.20209120304E+03  0.17200000000E+03 0. -1.
         -6    1    1    2    0  501 -0.64315238712E+02 -0.45770609478E+02  0.74450408843E+02  0.20336730809E+03  0.17200000000E+03 0.  1.
</event>
<event>
 4    1  0.1054668E+000  0.2176539E+03  0.7818608E-02  0.1135644E+00
          2   -1    0    0  502    0  0.00000000000E+00  0.00000000000E+00  0.73209324752E+02  0.73209324752E+02  0.00000000000E+00 0.  1.
         -2   -1    0    0    0  501 -0.00000000000E+00 -0.00000000000E+00 -0.80360174445E+03  0.80360174445E+03  0.00000000000E+00 0. -1.
          6    1    1    2  502    0 -0.11328474831E+03 -0.70397476624E+02 -0.55867125071E+03  0.59957218522E+03  0.17200000000E+03 0.  1.
         -6    1    1    2    0  501  0.11328474831E+03  0.70397476624E+02 -0.17172116898E+03  0.27723888398E+03  0.17200000000E+03 0.  1.
</event>
<event>
 4    1  0.1054668E+000  0.2631974E+03  0.7818608E-02  0.1105237E+00
         -3   -1    0    0    0  501 -0.00000000000E+00  0.00000000000E+00  0.25438471641E+03  0.25438471641E+03  0.00000000000E+00 0. -1.
          3   -1    0    0  502    0  0.00000000000E+00 -0.00000000000E+00 -0.35162256527E+03  0.35162256527E+03  0.00000000000E+00 0.  1.
          6    1    1    2  502    0 -0.12807225557E+03 -0.15259868132E+03 -0.19252060286E+03  0.32609361035E+03  0.17200000000E+03 0.  1.
         -6    1    1    2    0  501  0.12807225557E+03  0.15259868132E+03  0.95282753996E+02  0.27991367132E+03  0.17200000000E+03 0. -1.
</event>
<event>
 4    1  0.1054668E+000  0.1949259E+03  0.7818608E-02  0.1154092E+00
          2   -1    0    0  502    0  0.00000000000E+00  0.00000000000E+00  0.10469151249E+04  0.10469151249E+04  0.00000000000E+00 0.  1.
         -2   -1    0    0    0  501 -0.00000000000E+00 -0.00000000000E+00 -0.46636748564E+02  0.46636748564E+02  0.00000000000E+00 0. -1.
          6    1    1    2  502    0  0.81494755534E+02  0.42079648185E+02  0.24263980645E+03  0.31123972697E+03  0.17200000000E+03 0. -1.
         -6    1    1    2    0  501 -0.81494755534E+02 -0.42079648185E+02  0.75763856991E+03  0.78231214652E+03  0.17200000000E+03 0.  1.
</event>
<event>
 4    1  0.1054668E+000  0.4192755E+03  0.7818608E-02  0.1037302E+00
          2   -1    0    0  502    0  0.00000000000E+00  0.00000000000E+00  0.53539108841E+03  0.53539108841E+03  0.00000000000E+00 0.  1.
         -2   -1    0    0    0  501 -0.00000000000E+00 -0.00000000000E+00 -0.50267723221E+03  0.50267723221E+03  0.00000000000E+00 0. -1.
          6    1    1    2  502    0 -0.51235405446E+02 -0.37892336457E+03  0.32201967773E+03  0.52866686660E+03  0.17200000000E+03 0.  1.
         -6    1    1    2    0  501  0.51235405446E+02  0.37892336457E+03 -0.28930582154E+03  0.50940145403E+03  0.17200000000E+03 0. -1.
</event>
<event>
 4    1  0.1054668E+000  0.2037502E+03  0.7818608E-02  0.1146613E+00
          2   -1    0    0  502    0  0.00000000000E+00  0.00000000000E+00  0.15200887054E+03  0.15200887054E+03  0.00000000000E+00 0. -1.
         -2   -1    0    0    0  501 -0.00000000000E+00 -0.00000000000E+00 -0.29484724209E+03  0.29484724209E+03  0.00000000000E+00 0.  1.
          6    1    1    2  502    0  0.83024556784E+02  0.70972161459E+02 -0.10744396421E+02  0.20403324922E+03  0.17200000000E+03 0. -1.
         -6    1    1    2    0  501 -0.83024556784E+02 -0.70972161459E+02 -0.13209397512E+03  0.24282286341E+03  0.17200000000E+03 0. -1.
</event>
<event>
 4    1  0.1054668E+000  0.1735945E+03  0.7818608E-02  0.1174150E+00
          1   -1    0    0  502    0  0.00000000000E+00  0.00000000000E+00  0.12200388319E+04  0.12200388319E+04  0.00000000000E+00 0.  1.
         -1   -1    0    0    0  501 -0.00000000000E+00 -0.00000000000E+00 -0.32464941334E+02  0.32464941334E+02  0.00000000000E+00 0. -1.
          6    1    1    2  502    0 -0.23375002505E+02 -0.21616342467E+01  0.90005975009E+03  0.91664748793E+03  0.17200000000E+03 0.  1.
         -6    1    1    2    0  501  0.23375002505E+02  0.21616342467E+01  0.28751414052E+03  0.33585628534E+03  0.17200000000E+03 0. -1.
</event>
<event>
 4    1  0.1054668E+000  0.1749844E+03  0.7818608E-02  0.1172747E+00
         -1   -1    0    0    0  501 -0.00000000000E+00  0.00000000000E+00  0.26750299778E+03  0.26750299778E+03  0.00000000000E+00 0. -1.
          1   -1    0    0  502    0  0.00000000000E+00 -0.00000000000E+00 -0.11451872322E+03  0.11451872322E+03  0.00000000000E+00 0.  1.
          6    1    1    2  502    0  0.18960415207E+02 -0.26000965486E+02  0.72328720871E+02  0.18934358033E+03  0.17200000000E+03 0. -1.
         -6    1    1    2    0  501 -0.18960415207E+02  0.26000965486E+02  0.80655553685E+02  0.19267814067E+03  0.17200000000E+03 0. -1.
</event>
<event>
 4    1  0.1054668E+000  0.2511228E+03  0.7818608E-02  0.1112597E+00
         -1   -1    0    0    0  501 -0.00000000000E+00  0.00000000000E+00  0.29363799884E+03  0.29363799884E+03  0.00000000000E+00 0. -1.
          1   -1    0    0  502    0  0.00000000000E+00 -0.00000000000E+00 -0.21691267096E+03  0.21691267096E+03  0.00000000000E+00 0.  1.
          6    1    1    2  502    0  0.12449945766E+03  0.13408409473E+03  0.12951519676E+02  0.25145655943E+03  0.17200000000E+03 0.  1.
         -6    1    1    2    0  501 -0.12449945766E+03 -0.13408409473E+03  0.63773808212E+02  0.25909411037E+03  0.17200000000E+03 0. -1.
</event>
<event>
 4    1  0.1054668E+000  0.1803860E+03  0.7818608E-02  0.1167430E+00
         -2   -1    0    0    0  501 -0.00000000000E+00  0.00000000000E+00  0.41659071946E+02  0.41659071946E+02  0.00000000000E+00 0.  1.
          2   -1    0    0  502    0  0.00000000000E+00 -0.00000000000E+00 -0.82481479721E+03  0.82481479721E+03  0.00000000000E+00 0. -1.
          6    1    1    2  502    0 -0.47534079149E+02  0.26374827309E+02 -0.29181829002E+03  0.34307001411E+03  0.17200000000E+03 0. -1.
         -6    1    1    2    0  501  0.47534079149E+02 -0.26374827309E+02 -0.49133743525E+03  0.52340385504E+03  0.17200000000E+03 0. -1.
</event>
<event>
 4    1  0.1054668E+000  0.2685500E+03  0.7818608E-02  0.1102112E+00
          2   -1    0    0  502    0  0.00000000000E+00  0.00000000000E+00  0.14985288320E+04  0.14985288320E+04  0.00000000000E+00 0. -1.
         -2   -1    0    0    0  501 -0.00000000000E+00 -0.00000000000E+00 -0.51105045218E+02  0.51105045218E+02  0.00000000000E+00 0.  1.
          6    1    1    2  502    0 -0.14660070150E+03 -0.14506321215E+03  0.53666010910E+03  0.60010263613E+03  0.17200000000E+03 0. -1.
         -6    1    1    2    0  501  0.14660070150E+03  0.14506321215E+03  0.91076367764E+03  0.94953124104E+03  0.17200000000E+03 0.  1.
</event>
<event>
 4    1  0.1054668E+000  0.1938841E+03  0.7818608E-02  0.1155004E+00
         -2   -1    0    0    0  501 -0.00000000000E+00  0.00000000000E+00  0.41361395763E+02  0.41361395763E+02  0.00000000000E+00 0. -1.
          2   -1    0    0  502    0  0.00000000000E+00 -0.00000000000E+00 -0.91011177035E+03  0.91011177035E+03  0.00000000000E+00 0.  1.
          6    1    1    2  502    0  0.53237928650E+02  0.71921965672E+02 -0.41661769552E+03  0.45952295962E+03  0.17200000000E+03 0. -1.
         -6    1    1    2    0  501 -0.53237928650E+02 -0.71921965672E+02 -0.45213267906E+03  0.49195020649E+03  0.17200000000E+03 0.  1.
</event>
<event>
 4    1  0.1054668E+000  0.1818599E+03  0.7818608E-02  0.1166015E+00
         -1   -1    0    0    0  501 -0.00000000000E+00  0.00000000000E+00  0.13552975186E+04  0.13552975186E+04  0.00000000000E+00 0. -1.
          1   -1    0    0  502    0  0.00000000000E+00 -0.00000000000E+00 -0.37751433403E+02  0.37751433403E+02  0.00000000000E+00 0.  1.
          6    1    1    2  502    0 -0.95117130989E+01 -0.58297174337E+02  0.10729522712E+04  0.10882553053E+04  0.17200000000E+03 0. -1.
         -6    1    1    2    0  501  0.95117130989E+01  0.58297174337E+02  0.24459381393E+03  0.30479364664E+03  0.17200000000E+03 0.  1.
</event>
<event>
 4    1  0.1054668E+000  0.1749874E+03  0.7818608E-02  0.1172744E+00
          2   -1    0    0  502    0  0.00000000000E+00  0.00000000000E+00  0.58659954031E+02  0.58659954031E+02  0.00000000000E+00 0.  1.
         -2   -1    0    0    0  501 -0.00000000000E+00 -0.00000000000E+00 -0.59090196577E+03  0.59090196577E+03  0.00000000000E+00 0. -1.
          6    1    1    2  502    0  0.30680624181E+02  0.97623280721E+01 -0.15521811647E+03  0.23390867327E+03  0.17200000000E+03 0.  1.
         -6    1    1    2    0  501 -0.30680624181E+02 -0.97623280721E+01 -0.37702389527E+03  0.41565324654E+03  0.17200000000E+03 0. -1.
</event>
<event>
 4    1  0.1054668E+000  0.2147481E+03  0.7818608E-02  0.1137860E+00
          2   -1    0    0  502    0  0.00000000000E+00  0.00000000000E+00  0.46011190622E+03  0.46011190622E+03  0.00000000000E+00 0. -1.
         -2   -1    0    0    0  501 -0.00000000000E+00 -0.00000000000E+00 -0.10050083446E+03  0.10050083446E+03  0.00000000000E+00 0.  1.
          6    1    1    2  502    0 -0.12471722671E+03  0.31278767988E+02  0.16523863111E+03  0.27096227261E+03  0.17200000000E+03 0. -1.
         -6    1    1    2    0  501  0.12471722671E+03 -0.31278767988E+02  0.19437244065E+03  0.28965046806E+03  0.17200000000E+03 0.  1.
</event>
<event>
 4    1  0.1054668E+000  0.1766170E+03  0.7818608E-02  0.1171118E+00
         -2   -1    0    0    0  501 -0.00000000000E+00  0.00000000000E+00  0.34490420111E+03  0.34490420111E+03  0.00000000000E+00 0.  1.
          2   -1    0    0  502    0  0.00000000000E+00 -0.00000000000E+00 -0.11210272510E+03  0.11210272510E+03  0.00000000000E+00 0. -1.
          6    1    1    2  502    0 -0.32283910827E+02  0.23818322703E+02  0.21684585350E+03  0.27967067700E+03  0.17200000000E+03 0.  1.
         -6    1    1    2    0  501  0.32283910827E+02 -0.23818322703E+02  0.15955622521E+02  0.17733624921E+03  0.17200000000E+03 0. -1.
</event>
<event>
 4    1  0.1054668E+000  0.3837397E+03  0.7818608E-02  0.1049560E+00
          1   -1    0    0  502    0  0.00000000000E+00  0.00000000000E+00  0.11878640811E+04  0.11878640811E+04  0.00000000000E+00 0. -1.
         -1   -1    0    0    0  501 -0.00000000000E+00 -0.00000000000E+00 -0.15268040552E+03  0.15268040552E+03  0.00000000000E+00 0.  1.
          6    1    1    2  502    0 -0.33277148559E+03 -0.83278202372E+02  0.80826225019E+03  0.89473123657E+03  0.17200000000E+03 0.  1.
         -6    1    1    2    0  501  0.33277148559E+03  0.83278202372E+02  0.22692142536E+03  0.44581325002E+03  0.17200000000E+03 0. -1.
</event>
<event>
 4    1  0.1054668E+000  0.1883976E+03  0.7818608E-02  0.1159915E+00
         -1   -1    0    0    0  501 -0.00000000000E+00  0.00000000000E+00  0.37821740946E+02  0.37821740946E+02  0.00000000000E+00 0.  1.
          1   -1    0    0  502    0  0.00000000000E+00 -0.00000000000E+00 -0.11089897656E+04  0.11089897656E+04  0.00000000000E+00 0. -1.
          6    1    1    2  502    0 -0.62560298650E+02  0.44675043881E+02 -0.31072175246E+03  0.36337536786E+03  0.17200000000E+03 0.  1.
         -6    1    1    2    0  501  0.62560298650E+02 -0.44675043881E+02 -0.76044627219E+03  0.78343613869E+03  0.17200000000E+03 0. -1.
</event>
<event>
 4    1  0.1054668E+000  0.2286689E+03  0.7818608E-02  0.1127580E+00
          1   -1    0    0  502    0  0.00000000000E+00  0.00000000000E+00  0.20418702636E+04  0.20418702636E+04  0.00000000000E+00 0.  1.
         -1   -1    0    0    0  501 -0.00000000000E+00 -0.00000000000E+00 -0.39758873509E+02  0.39758873509E+02  0.00000000000E+00 0. -1.
          6    1    1    2  502    0  0.12316009411E+03  0.86816338700E+02  0.38013177035E+03  0.44360979281E+03  0.17200000000E+03 0. -1.
         -6    1    1    2    0  501 -0.12316009411E+03 -0.86816338700E+02  0.16219796198E+04  0.16380193443E+04  0.17200000000E+03 0.  1.
</event>
<event>
 4    1  0.1054668E+000  0.2012884E+03  0.7818608E-02  0.1148657E+00
         -3   -1    0    0    0  501 -0.00000000000E+00  0.00000000000E+00  0.12012378225E+03  0.12012378225E+03  0.00000000000E+00 0. -1.
          3   -1    0    0  502    0  0.00000000000E+00 -0.00000000000E+00 -0.53172805748E+03  0.53172805748E+03  0.00000000000E+00 0.  1.
          6    1    1    2  502    0  0.60705655298E+02  0.85134187096E+02 -0.87139890615E+01  0.20147689695E+03  0.17200000000E+03 0. -1.
         -6    1    1    2    0  501 -0.60705655298E+02 -0.85134187096E+02 -0.40289028617E+03  0.45037494278E+03  0.17200000000E+03 0. -1.
</event>
<event>
 4    1  0.1054668E+000  0.2569418E+03  0.7818608E-02  0.1108995E+00
          2   -1    0    0  502    0  0.00000000000E+00  0.00000000000E+00  0.25151590956E+04  0.25151590956E+04  0.00000000000E+00 0.  1.
         -2   -1    0    0    0  501 -0.00000000000E+00 -0.00000000000E+00 -0.34470225438E+02  0.34470225438E+02  0.00000000000E+00 0. -1.
          6    1    1    2  502    0 -0.11131067672E+02 -0.19055491193E+03  0.61774704563E+03  0.66905193185E+03  0.17200000000E+03 0. -1.
         -6    1    1    2    0  501  0.11131067672E+02  0.19055491193E+03  0.18629418245E+04  0.18805773892E+04  0.17200000000E+03 0.  1.
</event>
<event>
 4    1  0.1054668E+000  0.3388448E+03  0.7818608E-02  0.1067289E+00
         -2   -1    0    0    0  501 -0.00000000000E+00  0.00000000000E+00  0.37453894499E+03  0.37453894499E+03  0.00000000000E+00 0.  1.
          2   -1    0    0  502    0  0.00000000000E+00 -0.00000000000E+00 -0.53231381477E+03  0.53231381477E+03  0.00000000000E+00 0. -1.
          6    1    1    2  502    0  0.22525667023E+03 -0.18571821694E+03 -0.37417675860E+03  0.50480102046E+03  0.17200000000E+03 0. -1.
         -6    1    1    2    0  501 -0.22525667023E+03  0.18571821694E+03  0.21640188881E+03  0.40205173929E+03  0.17200000000E+03 0.  1.
</event>
<event>
 4    1  0.1054668E+000  0.1935165E+03  0.7818608E-02  0.1155327E+00
          1   -1    0    0  502    0  0.00000000000E+00  0.00000000000E+00  0.43627219740E+03  0.43627219740E+03  0.00000000000E+00 0. -1.
         -1   -1    0    0    0  501 -0.00000000000E+00 -0.00000000000E+00 -0.92695917004E+02  0.92695917004E+02  0.00000000000E+00 0.  1.
          6    1    1    2  502    0  0.74703218270E+02  0.47791690787E+02  0.24372869002E+03  0.31121100699E+03  0.17200000000E+03 0. -1.
         -6    1    1    2    0  501 -0.74703218270E+02 -0.47791690787E+02  0.99847590372E+02  0.21775710742E+03  0.17200000000E+03 0.  1.
</event>
<event>
 4    1  0.1054668E+000  0.6466070E+03  0.7818608E-02  0.9813167E-01
         -2   -1    0    0    0  501 -0.00000000000E+00  0.00000000000E+00  0.29262520844E+03  0.29262520844E+03  0.00000000000E+00 0.  1.
          2   -1    0    0  502    0  0.00000000000E+00 -0.00000000000E+00 -0.14973746830E+04  0.14973746830E+04  0.00000000000E+00 0. -1.
          6    1    1    2  502    0  0.38836397764E+03  0.48753461879E+03 -0.41083243143E+03  0.76608346175E+03  0.17200000000E+03 0.  1.
         -6    1    1    2    0  501 -0.38836397764E+03 -0.48753461879E+03 -0.79391704317E+03  0.10239164297E+04  0.17200000000E+03 0. -1.
</event>
<event>
 4    1  0.1054668E+000  0.1741733E+03  0.7818608E-02  0.1173564E+00
         -3   -1    0    0    0  501 -0.00000000000E+00  0.00000000000E+00  0.90254848581E+02  0.90254848581E+02  0.00000000000E+00 0.  1.
          3   -1    0    0  502    0  0.00000000000E+00 -0.00000000000E+00 -0.55656401571E+03  0.55656401571E+03  0.00000000000E+00 0. -1.
          6    1    1    2  502    0 -0.99239976143E+01 -0.25570726237E+02 -0.29616585586E+02  0.17667339899E+03  0.17200000000E+03 0.  1.
         -6    1    1    2    0  501  0.99239976143E+01  0.25570726237E+02 -0.43669258154E+03  0.47014546530E+03  0.17200000000E+03 0. -1.
</event>
<event>
 4    1  0.1054668E+000  0.2895042E+03  0.7818608E-02  0.1090608E+00
          2   -1    0    0  502    0  0.00000000000E+00  0.00000000000E+00  0.17745599795E+04  0.17745599795E+04  0.00000000000E+00 0.  1.
         -2   -1    0    0    0  501 -0.00000000000E+00 -0.00000000000E+00 -0.50803851608E+02  0.50803851608E+02  0.00000000000E+00 0. -1.
          6    1    1    2  502    0  0.22692146093E+03  0.52300186326E+02  0.11039435328E+04  0.11412729658E+04  0.17200000000E+03 0.  1.
         -6    1    1    2    0  501 -0.22692146093E+03 -0.52300186326E+02  0.61981259507E+03  0.68409086525E+03  0.17200000000E+03 0. -1.
</event>
<event>
 4    1  0.1054668E+000  0.2459706E+03  0.7818608E-02  0.1115878E+00
          2   -1    0    0  502    0  0.00000000000E+00  0.00000000000E+00  0.16580619098E+04  0.16580619098E+04  0.00000000000E+00 0.  1.
         -2   -1    0    0    0  501 -0.00000000000E+00 -0.00000000000E+00 -0.37316532621E+02  0.37316532621E+02  0.00000000000E+00 0. -1.
          6    1    1    2  502    0  0.17169952919E+03 -0.37905511264E+02  0.93658272223E+03  0.96834330260E+03  0.17200000000E+03 0.  1.
         -6    1    1    2    0  501 -0.17169952919E+03  0.37905511264E+02  0.68416265495E+03  0.72703513983E+03  0.17200000000E+03 0.  1.
</event>
<event>
 4    1  0.1054668E+000  0.3079543E+03  0.7818608E-02  0.1081331E+00
         -2   -1    0    0    0  501 -0.00000000000E+00  0.00000000000E+00  0.70231155674E+02  0.70231155674E+02  0.00000000000E+00 0. -1.
          2   -1    0    0  502    0  0.00000000000E+00 -0.00000000000E+00 -0.15937966604E+04  0.15937966604E+04  0.00000000000E+00 0.  1.
          6    1    1    2  502    0  0.18153901036E+03 -0.17970928632E+03 -0.10869645411E+04  0.11297467652E+04  0.17200000000E+03 0. -1.
         -6    1    1    2    0  501 -0.18153901036E+03  0.17970928632E+03 -0.43660096358E+03  0.53428105082E+03  0.17200000000E+03 0.  1.
</event>
<event>
 4    1  0.1054668E+000  0.1955228E+03  0.7818608E-02  0.1153572E+00
          4   -1    0    0  502    0  0.00000000000E+00  0.00000000000E+00  0.42956122512E+02  0.42956122512E+02  0.00000000000E+00 0.  1.
         -4   -1    0    0    0  501 -0.00000000000E+00 -0.00000000000E+00 -0.10870991718E+04  0.10870991718E+04  0.00000000000E+00 0. -1.
          6    1    1    2  502    0 -0.83189334022E+02 -0.41529598745E+02 -0.28145632106E+03  0.34270516998E+03  0.17200000000E+03 0.  1.
         -6    1    1    2    0  501  0.83189334022E+02  0.41529598745E+02 -0.76268672820E+03  0.78735012430E+03  0.17200000000E+03 0. -1.
</event>
<event>
 4    1  0.1054668E+000  0.2129032E+03  0.7818608E-02  0.1139287E+00
         -1   -1    0    0    0  501 -0.00000000000E+00  0.00000000000E+00  0.23268785175E+03  0.23268785175E+03  0.00000000000E+00 0. -1.
          1   -1    0    0  502    0  0.00000000000E+00 -0.00000000000E+00 -0.20384175866E+03  0.20384175866E+03  0.00000000000E+00 0.  1.
          6    1    1    2  502    0  0.69581771533E+02  0.10441335252E+03  0.60389951051E+02  0.22130232105E+03  0.17200000000E+03 0.  1.
         -6    1    1    2    0  501 -0.69581771533E+02 -0.10441335252E+03 -0.31543857959E+02  0.21522728937E+03  0.17200000000E+03 0.  1.
</event>
<event>
 4    1  0.1054668E+000  0.1880590E+03  0.7818608E-02  0.1160224E+00
         -1   -1    0    0    0  501 -0.00000000000E+00  0.00000000000E+00  0.56018781302E+02  0.56018781302E+02  0.00000000000E+00 0.  1.
          1   -1    0    0  502    0  0.00000000000E+00 -0.00000000000E+00 -0.71817722028E+03  0.71817722028E+03  0.00000000000E+00 0. -1.
          6    1    1    2  502    0  0.27267678921E+02 -0.70983407835E+02 -0.19646513032E+03  0.27196455271E+03  0.17200000000E+03 0.  1.
         -6    1    1    2    0  501 -0.27267678921E+02  0.70983407835E+02 -0.46569330866E+03  0.50223144887E+03  0.17200000000E+03 0. -1.
</event>
<event>
 4    1  0.1054668E+000  0.2804327E+03  0.7818608E-02  0.1095453E+00
         -2   -1    0    0    0  501 -0.00000000000E+00  0.00000000000E+00  0.92695847874E+02  0.92695847874E+02  0.00000000000E+00 0.  1.
          2   -1    0    0  502    0  0.00000000000E+00 -0.00000000000E+00 -0.12849021619E+04  0.12849021619E+04  0.00000000000E+00 0. -1.
          6    1    1    2  502    0 -0.29142320921E+02  0.21956600865E+03 -0.19463216546E+03  0.34135639272E+03  0.17200000000E+03 0.  1.
         -6    1    1    2    0  501  0.29142320921E+02 -0.21956600865E+03 -0.99757414860E+03  0.10362416171E+04  0.17200000000E+03 0. -1.
</event>
<event>
 4    1  0.1054668E+000  0.1745040E+03  0.7818608E-02  0.1173231E+00
         -1   -1    0    0    0  501 -0.00000000000E+00  0.00000000000E+00  0.10346643224E+03  0.10346643224E+03  0.00000000000E+00 0. -1.
          1   -1    0    0  502    0  0.00000000000E+00 -0.00000000000E+00 -0.55454299491E+03  0.55454299491E+03  0.00000000000E+00 0.  1.
          6    1    1    2  502    0  0.17563370752E+02 -0.23646570977E+02 -0.45091665849E+03  0.48350539316E+03  0.17200000000E+03 0.  1.
         -6    1    1    2    0  501 -0.17563370752E+02  0.23646570977E+02 -0.15990417595E+00  0.17450403399E+03  0.17200000000E+03 0. -1.
</event>
<event>
 4    1  0.1054668E+000  0.2330291E+03  0.7818608E-02  0.1124526E+00
          2   -1    0    0  502    0  0.00000000000E+00  0.00000000000E+00  0.10130820299E+04  0.10130820299E+04  0.00000000000E+00 0. -1.
         -2   -1    0    0    0  501 -0.00000000000E+00 -0.00000000000E+00 -0.62124191152E+02  0.62124191152E+02  0.00000000000E+00 0.  1.
          6    1    1    2  502    0 -0.13487220192E+03 -0.80796247600E+02  0.67460314461E+03  0.71371699377E+03  0.17200000000E+03 0. -1.
         -6    1    1    2    0  501  0.13487220192E+03  0.80796247600E+02  0.27635469418E+03  0.36148922733E+03  0.17200000000E+03 0.  1.
</event>
<event>
 4    1  0.1054668E+000  0.1790498E+03  0.7818608E-02  0.1168726E+00
         -1   -1    0    0    0  501 -0.00000000000E+00  0.00000000000E+00  0.88646845898E+02  0.88646845898E+02  0.00000000000E+00 0.  1.
          1   -1    0    0  502    0  0.00000000000E+00 -0.00000000000E+00 -0.36164716367E+03  0.36164716367E+03  0.00000000000E+00 0. -1.
          6    1    1    2  502    0 -0.49747784417E+02  0.78140261461E-01 -0.13672589416E+03  0.22528386159E+03  0.17200000000E+03 0.  1.
         -6    1    1    2    0  501  0.49747784417E+02 -0.78140261461E-01 -0.13627442361E+03  0.22501014797E+03  0.17200000000E+03 0.  1.
</event>
<event>
 4    1  0.1054668E+000  0.2087956E+03  0.7818608E-02  0.1142523E+00
          2   -1    0    0  502    0  0.00000000000E+00  0.00000000000E+00  0.11047608957E+04  0.11047608957E+04  0.00000000000E+00 0. -1.
         -2   -1    0    0    0  501 -0.00000000000E+00 -0.00000000000E+00 -0.42112202671E+02  0.42112202671E+02  0.00000000000E+00 0.  1.
          6    1    1    2  502    0 -0.74626234034E+02  0.91883298667E+02  0.67518929052E+03  0.70673629694E+03  0.17200000000E+03 0.  1.
         -6    1    1    2    0  501  0.74626234034E+02 -0.91883298667E+02  0.38745940250E+03  0.44013680143E+03  0.17200000000E+03 0. -1.
</event>
<event>
 4    1  0.1054668E+000  0.3318412E+03  0.7818608E-02  0.1070325E+00
          2   -1    0    0  502    0  0.00000000000E+00  0.00000000000E+00  0.41038250747E+04  0.41038250747E+04  0.00000000000E+00 0. -1.
         -2   -1    0    0    0  501 -0.00000000000E+00 -0.00000000000E+00 -0.30476110986E+02  0.30476110986E+02  0.00000000000E+00 0.  1.
          6    1    1    2  502    0  0.27051101643E+03 -0.85781096840E+02  0.13219826206E+04  0.13629954716E+04  0.17200000000E+03 0.  1.
         -6    1    1    2    0  501 -0.27051101643E+03  0.85781096840E+02  0.27513663431E+04  0.27713057140E+04  0.17200000000E+03 0. -1.
</event>
<event>
 4    1  0.1054668E+000  0.1720255E+03  0.7818608E-02  0.1175752E+00
         -2   -1    0    0    0  501 -0.00000000000E+00  0.00000000000E+00  0.34209390823E+02  0.34209390823E+02  0.00000000000E+00 0. -1.
          2   -1    0    0  502    0  0.00000000000E+00 -0.00000000000E+00 -0.92872722549E+03  0.92872722549E+03  0.00000000000E+00 0.  1.
          6    1    1    2  502    0 -0.29575691269E+01 -0.10938115133E+00 -0.32118562484E+03  0.36435280263E+03  0.17200000000E+03 0. -1.
         -6    1    1    2    0  501  0.29575691269E+01  0.10938115133E+00 -0.57333220982E+03  0.59858381368E+03  0.17200000000E+03 0.  1.
</event>
<event>
 4    1  0.1054668E+000  0.3162818E+03  0.7818608E-02  0.1077373E+00
          2   -1    0    0  502    0  0.00000000000E+00  0.00000000000E+00  0.21178838564E+04  0.21178838564E+04  0.00000000000E+00 0.  1.
         -2   -1    0    0    0  501 -0.00000000000E+00 -0.00000000000E+00 -0.55891861946E+02  0.55891861946E+02  0.00000000000E+00 0. -1.
          6    1    1    2  502    0  0.25699564309E+03  0.66358106870E+02  0.14587943143E+04  0.14926871777E+04  0.17200000000E+03 0.  1.
         -6    1    1    2    0  501 -0.25699564309E+03 -0.66358106870E+02  0.60319768017E+03  0.68108854070E+03  0.17200000000E+03 0. -1.
</event>
<event>
 4    1  0.1054668E+000  0.2196576E+03  0.7818608E-02  0.1134139E+00
          1   -1    0    0  502    0  0.00000000000E+00  0.00000000000E+00  0.66475808160E+03  0.66475808160E+03  0.00000000000E+00 0.  1.
         -1   -1    0    0    0  501 -0.00000000000E+00 -0.00000000000E+00 -0.12708121893E+03  0.12708121893E+03  0.00000000000E+00 0. -1.
          6    1    1    2  502    0 -0.79722426252E+02  0.11094949282E+03  0.95628567020E+01  0.21986564859E+03  0.17200000000E+03 0. -1.
         -6    1    1    2    0  501  0.79722426252E+02 -0.11094949282E+03  0.52811400597E+03  0.57197365193E+03  0.17200000000E+03 0.  1.
</event>
<event>
 4    1  0.1054668E+000  0.2086401E+03  0.7818608E-02  0.1142647E+00
         -1   -1    0    0    0  501 -0.00000000000E+00  0.00000000000E+00  0.22911811310E+02  0.22911811310E+02  0.00000000000E+00 0. -1.
          1   -1    0    0  502    0  0.00000000000E+00 -0.00000000000E+00 -0.29447116956E+04  0.29447116956E+04  0.00000000000E+00 0.  1.
          6    1    1    2  502    0  0.10281861586E+03 -0.58094786846E+02 -0.23447359611E+04  0.23540002972E+04  0.17200000000E+03 0.  1.
         -6    1    1    2    0  501 -0.10281861586E+03  0.58094786846E+02 -0.57706392321E+03  0.61362320971E+03  0.17200000000E+03 0. -1.
</event>
<event>
 4    1  0.1054668E+000  0.2313683E+03  0.7818608E-02  0.1125680E+00
          1   -1    0    0  502    0  0.00000000000E+00  0.00000000000E+00  0.15244770636E+04  0.15244770636E+04  0.00000000000E+00 0. -1.
         -1   -1    0    0    0  501 -0.00000000000E+00 -0.00000000000E+00 -0.40662704688E+02  0.40662704688E+02  0.00000000000E+00 0.  1.
          6    1    1    2  502    0  0.11559443378E+02 -0.15431680958E+03  0.45283919827E+03  0.50852201323E+03  0.17200000000E+03 0.  1.
         -6    1    1    2    0  501 -0.11559443378E+02  0.15431680958E+03  0.10309751607E+04  0.10566177551E+04  0.17200000000E+03 0. -1.
</event>
<event>
 4    1  0.1054668E+000  0.1837688E+03  0.7818608E-02  0.1164205E+00
          1   -1    0    0  502    0  0.00000000000E+00  0.00000000000E+00  0.24280137684E+04  0.24280137684E+04  0.00000000000E+00 0.  1.
         -1   -1    0    0    0  501 -0.00000000000E+00 -0.00000000000E+00 -0.14089446090E+02  0.14089446090E+02  0.00000000000E+00 0. -1.
          6    1    1    2  502    0 -0.38480426897E+02  0.52021385869E+02  0.13451905930E+04  0.13576850516E+04  0.17200000000E+03 0.  1.
         -6    1    1    2    0  501  0.38480426897E+02 -0.52021385869E+02  0.10687337293E+04  0.10844181629E+04  0.17200000000E+03 0. -1.
</event>
<event>
 4    1  0.1054668E+000  0.1741564E+03  0.7818608E-02  0.1173581E+00
          2   -1    0    0  502    0  0.00000000000E+00  0.00000000000E+00  0.26409245029E+02  0.26409245029E+02  0.00000000000E+00 0. -1.
         -2   -1    0    0    0  501 -0.00000000000E+00 -0.00000000000E+00 -0.12027852338E+04  0.12027852338E+04  0.00000000000E+00 0.  1.
          6    1    1    2  502    0  0.86490383842E+01 -0.25915914481E+02 -0.45759350221E+03  0.48961439292E+03  0.17200000000E+03 0. -1.
         -6    1    1    2    0  501 -0.86490383842E+01  0.25915914481E+02 -0.71878248657E+03  0.73958008592E+03  0.17200000000E+03 0.  1.
</event>
<event>
 4    1  0.1054668E+000  0.1896082E+03  0.7818608E-02  0.1158815E+00
          2   -1    0    0  502    0  0.00000000000E+00  0.00000000000E+00  0.70154985166E+03  0.70154985166E+03  0.00000000000E+00 0. -1.
         -2   -1    0    0    0  501 -0.00000000000E+00 -0.00000000000E+00 -0.61448120388E+02  0.61448120388E+02  0.00000000000E+00 0.  1.
          6    1    1    2  502    0 -0.78142833193E+02  0.16154750901E+02  0.47550231863E+03  0.51191184141E+03  0.17200000000E+03 0. -1.
         -6    1    1    2    0  501  0.78142833193E+02 -0.16154750901E+02  0.16459941265E+03  0.25108613064E+03  0.17200000000E+03 0.  1.
</event>
<event>
 4    1  0.1054668E+000  0.2422564E+03  0.7818608E-02  0.1118299E+00
          2   -1    0    0  502    0  0.00000000000E+00  0.00000000000E+00  0.28755513245E+04  0.28755513245E+04  0.00000000000E+00 0. -1.
         -2   -1    0    0    0  501 -0.00000000000E+00 -0.00000000000E+00 -0.42726052876E+02  0.42726052876E+02  0.00000000000E+00 0.  1.
          6    1    1    2  502    0  0.13830622763E+03 -0.99877682289E+02  0.36186768135E+03  0.43547259711E+03  0.17200000000E+03 0.  1.
         -6    1    1    2    0  501 -0.13830622763E+03  0.99877682289E+02  0.24709575903E+04  0.24828047803E+04  0.17200000000E+03 0. -1.
</event>
<event>
 4    1  0.1054668E+000  0.1935740E+03  0.7818608E-02  0.1155277E+00
          1   -1    0    0  502    0  0.00000000000E+00  0.00000000000E+00  0.49170767361E+03  0.49170767361E+03  0.00000000000E+00 0.  1.
         -1   -1    0    0    0  501 -0.00000000000E+00 -0.00000000000E+00 -0.83002506843E+02  0.83002506843E+02  0.00000000000E+00 0. -1.
          6    1    1    2  502    0 -0.63356645956E+01 -0.88581814308E+02  0.28658232720E+03  0.34583277568E+03  0.17200000000E+03 0.  1.
         -6    1    1    2    0  501  0.63356645956E+01  0.88581814308E+02  0.12212283957E+03  0.22887740477E+03  0.17200000000E+03 0. -1.
</event>
<event>
 4    1  0.1054668E+000  0.1873750E+03  0.7818608E-02  0.1160850E+00
          2   -1    0    0  502    0  0.00000000000E+00  0.00000000000E+00  0.26304000702E+03  0.26304000702E+03  0.00000000000E+00 0.  1.
         -2   -1    0    0    0  501 -0.00000000000E+00 -0.00000000000E+00 -0.14619475436E+03  0.14619475436E+03  0.00000000000E+00 0. -1.
          6    1    1    2  502    0  0.25187165231E+02  0.69935781942E+02 -0.19314732520E+01  0.18738499800E+03  0.17200000000E+03 0.  1.
         -6    1    1    2    0  501 -0.25187165231E+02 -0.69935781942E+02  0.11877672591E+03  0.22184976337E+03  0.17200000000E+03 0.  1.
</event>
<event>
 4    1  0.1054668E+000  0.2126871E+03  0.7818608E-02  0.1139456E+00
          2   -1    0    0  502    0  0.00000000000E+00  0.00000000000E+00  0.44184832099E+03  0.44184832099E+03  0.00000000000E+00 0. -1.
         -2   -1    0    0    0  501 -0.00000000000E+00 -0.00000000000E+00 -0.10715496632E+03  0.10715496632E+03  0.00000000000E+00 0.  1.
          6    1    1    2  502    0  0.13566224309E+02  0.12436942532E+03  0.22530145839E+03  0.30983308982E+03  0.17200000000E+03 0. -1.
         -6    1    1    2    0  501 -0.13566224309E+02 -0.12436942532E+03  0.10939189628E+03  0.23917019749E+03  0.17200000000E+03 0. -1.
</event>
<event>
 4    1  0.1054668E+000  0.1790809E+03  0.7818608E-02  0.1168696E+00
         -3   -1    0    0    0  501 -0.00000000000E+00  0.00000000000E+00  0.24685401032E+03  0.24685401032E+03  0.00000000000E+00 0.  1.
          3   -1    0    0  502    0  0.00000000000E+00 -0.00000000000E+00 -0.13356207737E+03  0.13356207737E+03  0.00000000000E+00 0. -1.
          6    1    1    2  502    0  0.49403147172E+02 -0.67310865829E+01  0.25213799572E+02  0.18084721221E+03  0.17200000000E+03 0. -1.
         -6    1    1    2    0  501 -0.49403147172E+02  0.67310865829E+01  0.88078133378E+02  0.19956887547E+03  0.17200000000E+03 0.  1.
</event>
<event>
 4    1  0.1054668E+000  0.3520168E+03  0.7818608E-02  0.1061790E+00
          2   -1    0    0  502    0  0.00000000000E+00  0.00000000000E+00  0.26028915592E+04  0.26028915592E+04  0.00000000000E+00 0.  1.
         -2   -1    0    0    0  501 -0.00000000000E+00 -0.00000000000E+00 -0.57193077269E+02  0.57193077269E+02  0.00000000000E+00 0. -1.
          6    1    1    2  502    0 -0.81979052996E+02 -0.29599204742E+03  0.72832878427E+03  0.80893675603E+03  0.17200000000E+03 0. -1.
         -6    1    1    2    0  501  0.81979052996E+02  0.29599204742E+03  0.18173696976E+04  0.18511478804E+04  0.17200000000E+03 0.  1.
</event>
<event>
 4    1  0.1054668E+000  0.2155532E+03  0.7818608E-02  0.1137242E+00
          2   -1    0    0  502    0  0.00000000000E+00  0.00000000000E+00  0.58553641514E+03  0.58553641514E+03  0.00000000000E+00 0. -1.
         -2   -1    0    0    0  501 -0.00000000000E+00 -0.00000000000E+00 -0.82495874277E+02  0.82495874277E+02  0.00000000000E+00 0.  1.
          6    1    1    2  502    0  0.89778382898E+01 -0.12960932523E+03  0.18630938125E+03  0.28491115161E+03  0.17200000000E+03 0.  1.
         -6    1    1    2    0  501 -0.89778382898E+01  0.12960932523E+03  0.31673115961E+03  0.38312113781E+03  0.17200000000E+03 0. -1.
</event>
<event>
 4    1  0.1054668E+000  0.1965799E+03  0.7818608E-02  0.1152657E+00
          1   -1    0    0  502    0  0.00000000000E+00  0.00000000000E+00  0.90911088425E+03  0.90911088425E+03  0.00000000000E+00 0. -1.
         -1   -1    0    0    0  501 -0.00000000000E+00 -0.00000000000E+00 -0.63076314213E+02  0.63076314213E+02  0.00000000000E+00 0.  1.
          6    1    1    2  502    0  0.87909933885E+02  0.36489704506E+02  0.70060212337E+03  0.72765856710E+03  0.17200000000E+03 0. -1.
         -6    1    1    2    0  501 -0.87909933885E+02 -0.36489704506E+02  0.14543244667E+03  0.24452863136E+03  0.17200000000E+03 0.  1.
</event>
<event>
 4    1  0.1054668E+000  0.1788415E+03  0.7818608E-02  0.1168929E+00
          2   -1    0    0  502    0  0.00000000000E+00  0.00000000000E+00  0.15155674341E+04  0.15155674341E+04  0.00000000000E+00 0.  1.
         -2   -1    0    0    0  501 -0.00000000000E+00 -0.00000000000E+00 -0.21103823156E+02  0.21103823156E+02  0.00000000000E+00 0. -1.
          6    1    1    2  502    0  0.48917610770E+02 -0.27080717569E+01  0.74710924554E+03  0.76821643504E+03  0.17200000000E+03 0.  1.
         -6    1    1    2    0  501 -0.48917610770E+02  0.27080717569E+01  0.74735436540E+03  0.76845482221E+03  0.17200000000E+03 0.  1.
</event>
<event>
 4    1  0.1054668E+000  0.2094659E+03  0.7818608E-02  0.1141990E+00
         -2   -1    0    0    0  501 -0.00000000000E+00  0.00000000000E+00  0.10020488349E+03  0.10020488349E+03  0.00000000000E+00 0. -1.
          2   -1    0    0  502    0  0.00000000000E+00 -0.00000000000E+00 -0.50625129573E+03  0.50625129573E+03  0.00000000000E+00 0.  1.
          6    1    1    2  502    0  0.32430520747E+02  0.11506622438E+03 -0.91573636808E+02  0.22860819239E+03  0.17200000000E+03 0.  1.
         -6    1    1    2    0  501 -0.32430520747E+02 -0.11506622438E+03 -0.31447277543E+03  0.37784798684E+03  0.17200000000E+03 0.  1.
</event>
<event>
 4    1  0.1054668E+000  0.1858007E+03  0.7818608E-02  0.1162304E+00
          2   -1    0    0  502    0  0.00000000000E+00  0.00000000000E+00  0.10402129101E+03  0.10402129101E+03  0.00000000000E+00 0. -1.
         -2   -1    0    0    0  501 -0.00000000000E+00 -0.00000000000E+00 -0.42174746101E+03  0.42174746101E+03  0.00000000000E+00 0.  1.
          6    1    1    2  502    0 -0.68810637520E+02 -0.14247397750E+02 -0.37508583484E+02  0.18954890138E+03  0.17200000000E+03 0. -1.
         -6    1    1    2    0  501  0.68810637520E+02  0.14247397750E+02 -0.28021758651E+03  0.33621985065E+03  0.17200000000E+03 0.  1.
</event>
<event>
 4    1  0.1054668E+000  0.2204229E+03  0.7818608E-02  0.1133568E+00
         -2   -1    0    0    0  501 -0.00000000000E+00  0.00000000000E+00  0.10887205836E+03  0.10887205836E+03  0.00000000000E+00 0.  1.
          2   -1    0    0  502    0  0.00000000000E+00 -0.00000000000E+00 -0.50396895859E+03  0.50396895859E+03  0.00000000000E+00 0. -1.
          6    1    1    2  502    0  0.11385748278E+03  0.77709283564E+02 -0.93866658638E+02  0.23957714570E+03  0.17200000000E+03 0.  1.
         -6    1    1    2    0  501 -0.11385748278E+03 -0.77709283564E+02 -0.30123024159E+03  0.37326387126E+03  0.17200000000E+03 0. -1.
</event>
<event>
 4    1  0.1054668E+000  0.2380299E+03  0.7818608E-02  0.1121112E+00
          1   -1    0    0  502    0  0.00000000000E+00  0.00000000000E+00  0.12039639668E+04  0.12039639668E+04  0.00000000000E+00 0.  1.
         -1   -1    0    0    0  501 -0.00000000000E+00 -0.00000000000E+00 -0.47995828676E+02  0.47995828676E+02  0.00000000000E+00 0. -1.
          6    1    1    2  502    0  0.13563574314E+03 -0.93151271344E+02  0.49056213199E+03  0.54526087290E+03  0.17200000000E+03 0.  1.
         -6    1    1    2    0  501 -0.13563574314E+03  0.93151271344E+02  0.66540600612E+03  0.70669892256E+03  0.17200000000E+03 0.  1.
</event>
<event>
 4    1  0.1054668E+000  0.1934543E+03  0.7818608E-02  0.1155382E+00
         -3   -1    0    0    0  501 -0.00000000000E+00  0.00000000000E+00  0.37682418246E+03  0.37682418246E+03  0.00000000000E+00 0.  1.
          3   -1    0    0  502    0  0.00000000000E+00 -0.00000000000E+00 -0.10876546934E+03  0.10876546934E+03  0.00000000000E+00 0. -1.
          6    1    1    2  502    0  0.42253303659E+02  0.77815397491E+02  0.62463928316E+02  0.20328876038E+03  0.17200000000E+03 0. -1.
         -6    1    1    2    0  501 -0.42253303659E+02 -0.77815397491E+02  0.20559478481E+03  0.28230089142E+03  0.17200000000E+03 0.  1.
</event>
<event>
 4    1  0.1054668E+000  0.2143440E+03  0.7818608E-02  0.1138171E+00
          2   -1    0    0  502    0  0.00000000000E+00  0.00000000000E+00  0.24645086723E+03  0.24645086723E+03  0.00000000000E+00 0.  1.
         -2   -1    0    0    0  501 -0.00000000000E+00 -0.00000000000E+00 -0.18798338288E+03  0.18798338288E+03  0.00000000000E+00 0. -1.
          6    1    1    2  502    0  0.12447782158E+03  0.29404722836E+02  0.94244135685E+01  0.21455112529E+03  0.17200000000E+03 0. -1.
         -6    1    1    2    0  501 -0.12447782158E+03 -0.29404722836E+02  0.49043070778E+02  0.21988312482E+03  0.17200000000E+03 0. -1.
</event>
<event>
 4    1  0.1054668E+000  0.1773988E+03  0.7818608E-02  0.1170345E+00
         -1   -1    0    0    0  501 -0.00000000000E+00  0.00000000000E+00  0.91954982917E+02  0.91954982917E+02  0.00000000000E+00 0. -1.
          1   -1    0    0  502    0  0.00000000000E+00 -0.00000000000E+00 -0.41424805855E+03  0.41424805855E+03  0.00000000000E+00 0.  1.
          6    1    1    2  502    0 -0.83090601766E+01 -0.42629551444E+02 -0.55618787299E+02  0.18591333636E+03  0.17200000000E+03 0. -1.
         -6    1    1    2    0  501  0.83090601766E+01  0.42629551444E+02 -0.26667428834E+03  0.32028970511E+03  0.17200000000E+03 0. -1.
</event>
<event>
 4    1  0.1054668E+000  0.2289462E+03  0.7818608E-02  0.1127384E+00
         -2   -1    0    0    0  501 -0.00000000000E+00  0.00000000000E+00  0.49333025519E+02  0.49333025519E+02  0.00000000000E+00 0. -1.
          2   -1    0    0  502    0  0.00000000000E+00 -0.00000000000E+00 -0.10628164143E+04  0.10628164143E+04  0.00000000000E+00 0.  1.
          6    1    1    2  502    0 -0.10797880544E+03 -0.10570220692E+03 -0.49715908296E+03  0.54734224462E+03  0.17200000000E+03 0.  1.
         -6    1    1    2    0  501  0.10797880544E+03  0.10570220692E+03 -0.51632430585E+03  0.56480719523E+03  0.17200000000E+03 0.  1.
</event>
<event>
 4    1  0.1054668E+000  0.2419066E+03  0.7818608E-02  0.1118529E+00
          2   -1    0    0  502    0  0.00000000000E+00  0.00000000000E+00  0.39993801185E+03  0.39993801185E+03  0.00000000000E+00 0.  1.
         -2   -1    0    0    0  501 -0.00000000000E+00 -0.00000000000E+00 -0.14767925971E+03  0.14767925971E+03  0.00000000000E+00 0. -1.
          6    1    1    2  502    0 -0.16204555376E+03  0.51730540837E+02  0.15240096603E+03  0.28591058881E+03  0.17200000000E+03 0.  1.
         -6    1    1    2    0  501  0.16204555376E+03 -0.51730540837E+02  0.99857786110E+02  0.26170668275E+03  0.17200000000E+03 0. -1.
</event>
<event>
 4    1  0.1054668E+000  0.1938989E+03  0.7818608E-02  0.1154991E+00
         -1   -1    0    0    0  501 -0.00000000000E+00  0.00000000000E+00  0.83906479948E+03  0.83906479948E+03  0.00000000000E+00 0. -1.
          1   -1    0    0  502    0  0.00000000000E+00 -0.00000000000E+00 -0.53435931618E+02  0.53435931618E+02  0.00000000000E+00 0.  1.
          6    1    1    2  502    0  0.88310485389E+02 -0.14629779240E+02  0.21349946839E+03  0.28840734261E+03  0.17200000000E+03 0.  1.
         -6    1    1    2    0  501 -0.88310485389E+02  0.14629779240E+02  0.57212939947E+03  0.60409338848E+03  0.17200000000E+03 0. -1.
</event>
<event>
 4    1  0.1054668E+000  0.3549375E+03  0.7818608E-02  0.1060607E+00
          2   -1    0    0  502    0  0.00000000000E+00  0.00000000000E+00  0.14349918912E+04  0.14349918912E+04  0.00000000000E+00 0.  1.
         -2   -1    0    0    0  501 -0.00000000000E+00 -0.00000000000E+00 -0.91286851400E+02  0.91286851400E+02  0.00000000000E+00 0. -1.
          6    1    1    2  502    0  0.37322555448E+02  0.30822661237E+03  0.82117402076E+03  0.89459901078E+03  0.17200000000E+03 0.  1.
         -6    1    1    2    0  501 -0.37322555448E+02 -0.30822661237E+03  0.52253101899E+03  0.63167973177E+03  0.17200000000E+03 0. -1.
</event>
<event>
 4    1  0.1054668E+000  0.2732097E+03  0.7818608E-02  0.1099457E+00
         -2   -1    0    0    0  501 -0.00000000000E+00  0.00000000000E+00  0.13878263843E+03  0.13878263843E+03  0.00000000000E+00 0. -1.
          2   -1    0    0  502    0  0.00000000000E+00 -0.00000000000E+00 -0.54811255254E+03  0.54811255254E+03  0.00000000000E+00 0.  1.
          6    1    1    2  502    0 -0.17112670591E+03 -0.12559935940E+03 -0.15765833827E+03  0.31543573067E+03  0.17200000000E+03 0.  1.
         -6    1    1    2    0  501  0.17112670591E+03  0.12559935940E+03 -0.25167157585E+03  0.37145946030E+03  0.17200000000E+03 0. -1.
</event>
<event>
 4    1  0.1054668E+000  0.1942091E+03  0.7818608E-02  0.1154719E+00
          2   -1    0    0  502    0  0.00000000000E+00  0.00000000000E+00  0.23346231657E+03  0.23346231657E+03  0.00000000000E+00 0.  1.
         -2   -1    0    0    0  501 -0.00000000000E+00 -0.00000000000E+00 -0.25257192032E+03  0.25257192032E+03  0.00000000000E+00 0. -1.
          6    1    1    2  502    0  0.39440804695E+02  0.81102316440E+02  0.13632789550E+03  0.23728138970E+03  0.17200000000E+03 0.  1.
         -6    1    1    2    0  501 -0.39440804695E+02 -0.81102316440E+02 -0.15543749926E+03  0.24875284718E+03  0.17200000000E+03 0. -1.
</event>
<event>
 4    1  0.1054668E+000  0.2617217E+03  0.7818608E-02  0.1106113E+00
         -1   -1    0    0    0  501 -0.00000000000E+00  0.00000000000E+00  0.77525422276E+02  0.77525422276E+02  0.00000000000E+00 0.  1.
          1   -1    0    0  502    0  0.00000000000E+00 -0.00000000000E+00 -0.89247708147E+03  0.89247708147E+03  0.00000000000E+00 0. -1.
          6    1    1    2  502    0  0.68816249894E+02  0.18487441054E+03 -0.45595990211E+03  0.52573534811E+03  0.17200000000E+03 0.  1.
         -6    1    1    2    0  501 -0.68816249894E+02 -0.18487441054E+03 -0.35899175709E+03  0.44426715564E+03  0.17200000000E+03 0.  1.
</event>
<event>
 4    1  0.1054668E+000  0.1765741E+03  0.7818608E-02  0.1171160E+00
          2   -1    0    0  502    0  0.00000000000E+00  0.00000000000E+00  0.99160296545E+03  0.99160296545E+03  0.00000000000E+00 0. -1.
         -2   -1    0    0    0  501 -0.00000000000E+00 -0.00000000000E+00 -0.32325584840E+02  0.32325584840E+02  0.00000000000E+00 0.  1.
          6    1    1    2  502    0 -0.23624221890E+02 -0.32191820130E+02  0.39501687636E+03  0.43268550906E+03  0.17200000000E+03 0.  1.
         -6    1    1    2    0  501  0.23624221890E+02  0.32191820130E+02  0.56426050426E+03  0.59124304123E+03  0.17200000000E+03 0. -1.
</event>
<event>
 4    1  0.1054668E+000  0.3361691E+03  0.7818608E-02  0.1068439E+00
         -2   -1    0    0    0  501 -0.00000000000E+00  0.00000000000E+00  0.58528172925E+02  0.58528172925E+02  0.00000000000E+00 0. -1.
          2   -1    0    0  502    0  0.00000000000E+00 -0.00000000000E+00 -0.19510243177E+04  0.19510243177E+04  0.00000000000E+00 0.  1.
          6    1    1    2  502    0 -0.26626075322E+03 -0.11194152212E+03 -0.84409944765E+03  0.90857777356E+03  0.17200000000E+03 0. -1.
         -6    1    1    2    0  501  0.26626075322E+03  0.11194152212E+03 -0.10483966971E+04  0.11009747170E+04  0.17200000000E+03 0.  1.
</event>
<event>
 4    1  0.1054668E+000  0.1752497E+03  0.7818608E-02  0.1172481E+00
         -1   -1    0    0    0  501 -0.00000000000E+00  0.00000000000E+00  0.10617001757E+03  0.10617001757E+03  0.00000000000E+00 0.  1.
          1   -1    0    0  502    0  0.00000000000E+00 -0.00000000000E+00 -0.32431950870E+03  0.32431950870E+03  0.00000000000E+00 0. -1.
          6    1    1    2  502    0  0.56025961844E+01 -0.33121814280E+02 -0.38320986529E+02  0.17939047264E+03  0.17200000000E+03 0.  1.
         -6    1    1    2    0  501 -0.56025961844E+01  0.33121814280E+02 -0.17982850460E+03  0.25109905363E+03  0.17200000000E+03 0. -1.
</event>
<event>
 4    1  0.1054668E+000  0.3130494E+03  0.7818608E-02  0.1078893E+00
         -1   -1    0    0    0  501 -0.00000000000E+00  0.00000000000E+00  0.21469503031E+03  0.21469503031E+03  0.00000000000E+00 0.  1.
          1   -1    0    0  502    0  0.00000000000E+00 -0.00000000000E+00 -0.64759903880E+03  0.64759903880E+03  0.00000000000E+00 0. -1.
          6    1    1    2  502    0 -0.17669510306E+03  0.19285951257E+03  0.17779680350E+02  0.31355393168E+03  0.17200000000E+03 0.  1.
         -6    1    1    2    0  501  0.17669510306E+03 -0.19285951257E+03 -0.45068368885E+03  0.54874013743E+03  0.17200000000E+03 0. -1.
</event>
<event>
 4    1  0.1054668E+000  0.2023661E+03  0.7818608E-02  0.1147758E+00
         -3   -1    0    0    0  501 -0.00000000000E+00  0.00000000000E+00  0.15599366374E+04  0.15599366374E+04  0.00000000000E+00 0. -1.
          3   -1    0    0  502    0  0.00000000000E+00 -0.00000000000E+00 -0.32580794974E+02  0.32580794974E+02  0.00000000000E+00 0.  1.
          6    1    1    2  502    0  0.10116970797E+03 -0.33655996138E+02  0.41274740726E+03  0.45968734819E+03  0.17200000000E+03 0.  1.
         -6    1    1    2    0  501 -0.10116970797E+03  0.33655996138E+02  0.11146084352E+04  0.11328300842E+04  0.17200000000E+03 0. -1.
</event>
<event>
 4    1  0.1054668E+000  0.2679403E+03  0.7818608E-02  0.1102464E+00
          2   -1    0    0  502    0  0.00000000000E+00  0.00000000000E+00  0.22928053817E+04  0.22928053817E+04  0.00000000000E+00 0. -1.
         -2   -1    0    0    0  501 -0.00000000000E+00 -0.00000000000E+00 -0.37887365671E+02  0.37887365671E+02  0.00000000000E+00 0.  1.
          6    1    1    2  502    0  0.27212984228E+01 -0.20542779340E+03  0.64197754442E+03  0.69564872695E+03  0.17200000000E+03 0.  1.
         -6    1    1    2    0  501 -0.27212984228E+01  0.20542779340E+03  0.16129404716E+04  0.16350440204E+04  0.17200000000E+03 0. -1.
</event>
<event>
 4    1  0.1054668E+000  0.2170813E+03  0.7818608E-02  0.1136078E+00
         -2   -1    0    0    0  501 -0.00000000000E+00  0.00000000000E+00  0.12987095110E+04  0.12987095110E+04  0.00000000000E+00 0. -1.
          2   -1    0    0  502    0  0.00000000000E+00 -0.00000000000E+00 -0.55097731511E+02  0.55097731511E+02  0.00000000000E+00 0.  1.
          6    1    1    2  502    0 -0.89477935509E+02  0.97642168194E+02  0.10173367759E+04  0.10402395924E+04  0.17200000000E+03 0. -1.
         -6    1    1    2    0  501  0.89477935509E+02 -0.97642168194E+02  0.22627500354E+03  0.31356765009E+03  0.17200000000E+03 0.  1.
</event>
<event>
 4    1  0.1054668E+000  0.2290167E+03  0.7818608E-02  0.1127334E+00
         -1   -1    0    0    0  501 -0.00000000000E+00  0.00000000000E+00  0.12039066316E+03  0.12039066316E+03  0.00000000000E+00 0.  1.
          1   -1    0    0  502    0  0.00000000000E+00 -0.00000000000E+00 -0.43575897553E+03  0.43575897553E+03  0.00000000000E+00 0. -1.
          6    1    1    2  502    0 -0.50415430935E+02  0.14255845970E+03 -0.16200764995E+03  0.28052648493E+03  0.17200000000E+03 0. -1.
         -6    1    1    2    0  501  0.50415430935E+02 -0.14255845970E+03 -0.15336066242E+03  0.27562315375E+03  0.17200000000E+03 0. -1.
</event>
<event>
 4    1  0.1054668E+000  0.1802660E+03  0.7818608E-02  0.1167546E+00
         -1   -1    0    0    0  501 -0.00000000000E+00  0.00000000000E+00  0.12002663055E+03  0.12002663055E+03  0.00000000000E+00 0. -1.
          1   -1    0    0  502    0  0.00000000000E+00 -0.00000000000E+00 -0.57460825254E+03  0.57460825254E+03  0.00000000000E+00 0.  1.
          6    1    1    2  502    0 -0.29114171175E+02 -0.45433584848E+02 -0.47986228944E+03  0.51260478189E+03  0.17200000000E+03 0.  1.
         -6    1    1    2    0  501  0.29114171175E+02  0.45433584848E+02  0.25280667439E+02  0.18203010120E+03  0.17200000000E+03 0. -1.
</event>
<event>
 4    1  0.1054668E+000  0.1753616E+03  0.7818608E-02  0.1172369E+00
          2   -1    0    0  502    0  0.00000000000E+00  0.00000000000E+00  0.26208350775E+03  0.26208350775E+03  0.00000000000E+00 0.  1.
         -2   -1    0    0    0  501 -0.00000000000E+00 -0.00000000000E+00 -0.28514396038E+03  0.28514396038E+03  0.00000000000E+00 0. -1.
          6    1    1    2  502    0  0.14561094858E+02  0.30914118442E+02 -0.22143034661E+03  0.28245903526E+03  0.17200000000E+03 0. -1.
         -6    1    1    2    0  501 -0.14561094858E+02 -0.30914118442E+02  0.19836989399E+03  0.26476843287E+03  0.17200000000E+03 0.  1.
</event>
<event>
 4    1  0.1054668E+000  0.1855786E+03  0.7818608E-02  0.1162511E+00
         -2   -1    0    0    0  501 -0.00000000000E+00  0.00000000000E+00  0.36129164983E+02  0.36129164983E+02  0.00000000000E+00 0. -1.
          2   -1    0    0  502    0  0.00000000000E+00 -0.00000000000E+00 -0.11574324773E+04  0.11574324773E+04  0.00000000000E+00 0.  1.
          6    1    1    2  502    0 -0.50223495900E+02 -0.48301273642E+02 -0.81131872024E+03  0.83227247846E+03  0.17200000000E+03 0.  1.
         -6    1    1    2    0  501  0.50223495900E+02  0.48301273642E+02 -0.30998459207E+03  0.36128916382E+03  0.17200000000E+03 0. -1.
</event>
<event>
 4    1  0.1054668E+000  0.1882282E+03  0.7818608E-02  0.1160069E+00
         -1   -1    0    0    0  501 -0.00000000000E+00  0.00000000000E+00  0.41302393718E+02  0.41302393718E+02  0.00000000000E+00 0. -1.
          1   -1    0    0  502    0  0.00000000000E+00 -0.00000000000E+00 -0.86306243728E+03  0.86306243728E+03  0.00000000000E+00 0.  1.
          6    1    1    2  502    0  0.37938194349E+02  0.66381928747E+02 -0.44613430520E+03  0.48421656863E+03  0.17200000000E+03 0. -1.
         -6    1    1    2    0  501 -0.37938194349E+02 -0.66381928747E+02 -0.37562573836E+03  0.42014826237E+03  0.17200000000E+03 0. -1.
</event>
<event>
 4    1  0.1054668E+000  0.3172691E+03  0.7818608E-02  0.1076913E+00
          1   -1    0    0  502    0  0.00000000000E+00  0.00000000000E+00  0.15422633434E+04  0.15422633434E+04  0.00000000000E+00 0. -1.
         -1   -1    0    0    0  501 -0.00000000000E+00 -0.00000000000E+00 -0.88144954114E+02  0.88144954114E+02  0.00000000000E+00 0.  1.
          6    1    1    2  502    0  0.21270571419E+03  0.16072326366E+03  0.31175013604E+03  0.44480089439E+03  0.17200000000E+03 0.  1.
         -6    1    1    2    0  501 -0.21270571419E+03 -0.16072326366E+03  0.11423682532E+04  0.11856074031E+04  0.17200000000E+03 0. -1.
</event>
<event>
 4    1  0.1054668E+000  0.1886328E+03  0.7818608E-02  0.1159700E+00
          2   -1    0    0  502    0  0.00000000000E+00  0.00000000000E+00  0.13516921477E+04  0.13516921477E+04  0.00000000000E+00 0. -1.
         -2   -1    0    0    0  501 -0.00000000000E+00 -0.00000000000E+00 -0.37392604232E+02  0.37392604232E+02  0.00000000000E+00 0.  1.
          6    1    1    2  502    0  0.35141820641E+02 -0.69017276547E+02  0.27927604993E+03  0.33701252808E+03  0.17200000000E+03 0.  1.
         -6    1    1    2    0  501 -0.35141820641E+02  0.69017276547E+02  0.10350234936E+04  0.10520722239E+04  0.17200000000E+03 0. -1.
</event>
<event>
 4    1  0.1054668E+000  0.3005694E+03  0.7818608E-02  0.1084956E+00
          2   -1    0    0  502    0  0.00000000000E+00  0.00000000000E+00  0.24539638760E+03  0.24539638760E+03  0.00000000000E+00 0. -1.
         -2   -1    0    0    0  501 -0.00000000000E+00 -0.00000000000E+00 -0.36814925973E+03  0.36814925973E+03  0.00000000000E+00 0.  1.
          6    1    1    2  502    0 -0.24206256551E+03 -0.46515231970E+02 -0.60622265169E+02  0.30662193571E+03  0.17200000000E+03 0.  1.
         -6    1    1    2    0  501  0.24206256551E+03  0.46515231970E+02 -0.62130606967E+02  0.30692371161E+03  0.17200000000E+03 0. -1.
</event>
<event>
 4    1  0.1054668E+000  0.1807216E+03  0.7818608E-02  0.1167107E+00
         -2   -1    0    0    0  501 -0.00000000000E+00  0.00000000000E+00  0.59003694050E+02  0.59003694050E+02  0.00000000000E+00 0.  1.
          2   -1    0    0  502    0  0.00000000000E+00 -0.00000000000E+00 -0.55861249434E+03  0.55861249434E+03  0.00000000000E+00 0. -1.
          6    1    1    2  502    0  0.54658931666E+02  0.94170688110E+01 -0.27926197439E+03  0.33263723535E+03  0.17200000000E+03 0.  1.
         -6    1    1    2    0  501 -0.54658931666E+02 -0.94170688110E+01 -0.22034682590E+03  0.28497895305E+03  0.17200000000E+03 0. -1.
</event>
<event>
 4    1  0.1054668E+000  0.1763378E+03  0.7818608E-02  0.1171395E+00
          4   -1    0    0  502    0  0.00000000000E+00  0.00000000000E+00  0.26911000923E+03  0.26911000923E+03  0.00000000000E+00 0. -1.
         -4   -1    0    0    0  501 -0.00000000000E+00 -0.00000000000E+00 -0.17658616763E+03  0.17658616763E+03  0.00000000000E+00 0.  1.
          6    1    1    2  502    0 -0.28970004010E+02  0.25918497469E+02  0.17728040027E+03  0.25004673556E+03  0.17200000000E+03 0. -1.
         -6    1    1    2    0  501  0.28970004010E+02 -0.25918497469E+02 -0.84756558678E+02  0.19564944130E+03  0.17200000000E+03 0.  1.
</event>
<event>
 4    1  0.1054668E+000  0.2442559E+03  0.7818608E-02  0.1116990E+00
         -1   -1    0    0    0  501 -0.00000000000E+00  0.00000000000E+00  0.71621019801E+02  0.71621019801E+02  0.00000000000E+00 0. -1.
          1   -1    0    0  502    0  0.00000000000E+00 -0.00000000000E+00 -0.83381379561E+03  0.83381379561E+03  0.00000000000E+00 0.  1.
          6    1    1    2  502    0  0.54547294128E+02  0.16462548947E+03 -0.39516063981E+03  0.46455665999E+03  0.17200000000E+03 0.  1.
         -6    1    1    2    0  501 -0.54547294128E+02 -0.16462548947E+03 -0.36703213599E+03  0.44087815542E+03  0.17200000000E+03 0. -1.
</event>
<event>
 4    1  0.1054668E+000  0.2136580E+03  0.7818608E-02  0.1138702E+00
         -4   -1    0    0    0  501 -0.00000000000E+00  0.00000000000E+00  0.32568759450E+03  0.32568759450E+03  0.00000000000E+00 0.  1.
          4   -1    0    0  502    0  0.00000000000E+00 -0.00000000000E+00 -0.39494025929E+03  0.39494025929E+03  0.00000000000E+00 0. -1.
          6    1    1    2  502    0 -0.50191930738E+02 -0.11638956174E+03  0.25477105358E+03  0.33250270636E+03  0.17200000000E+03 0.  1.
         -6    1    1    2    0  501  0.50191930738E+02  0.11638956174E+03 -0.32402371837E+03  0.38812514742E+03  0.17200000000E+03 0. -1.
</event>
<event>
 4    1  0.1054668E+000  0.1899584E+03  0.7818608E-02  0.1158499E+00
          1   -1    0    0  502    0  0.00000000000E+00  0.00000000000E+00  0.13316558185E+03  0.13316558185E+03  0.00000000000E+00 0.  1.
         -1   -1    0    0    0  501 -0.00000000000E+00 -0.00000000000E+00 -0.27878948172E+03  0.27878948172E+03  0.00000000000E+00 0. -1.
          6    1    1    2  502    0 -0.21921786225E+02 -0.77586328156E+02 -0.10730271206E+03  0.21816983074E+03  0.17200000000E+03 0.  1.
         -6    1    1    2    0  501  0.21921786225E+02  0.77586328156E+02 -0.38321187811E+02  0.19378523283E+03  0.17200000000E+03 0.  1.
</event>
<event>
 4    1  0.1054668E+000  0.2153119E+03  0.7818608E-02  0.1137427E+00
          1   -1    0    0  502    0  0.00000000000E+00  0.00000000000E+00  0.18090993515E+03  0.18090993515E+03  0.00000000000E+00 0. -1.
         -1   -1    0    0    0  501 -0.00000000000E+00 -0.00000000000E+00 -0.31774432919E+03  0.31774432919E+03  0.00000000000E+00 0.  1.
          6    1    1    2  502    0  0.77762327831E+02 -0.10357713593E+03 -0.17809734567E+03  0.27942417084E+03  0.17200000000E+03 0.  1.
         -6    1    1    2    0  501 -0.77762327831E+02  0.10357713593E+03  0.41262951620E+02  0.21923009350E+03  0.17200000000E+03 0. -1.
</event>
<event>
 4    1  0.1054668E+000  0.1902720E+03  0.7818608E-02  0.1158216E+00
         -1   -1    0    0    0  501 -0.00000000000E+00  0.00000000000E+00  0.14833463604E+04  0.14833463604E+04  0.00000000000E+00 0. -1.
          1   -1    0    0  502    0  0.00000000000E+00 -0.00000000000E+00 -0.28420683490E+02  0.28420683490E+02  0.00000000000E+00 0.  1.
          6    1    1    2  502    0  0.40257699325E+02 -0.70701776908E+02  0.10115368236E+04  0.10292765271E+04  0.17200000000E+03 0. -1.
         -6    1    1    2    0  501 -0.40257699325E+02  0.70701776908E+02  0.44338885330E+03  0.48249051684E+03  0.17200000000E+03 0. -1.
</event>
<event>
 4    1  0.1054668E+000  0.1765111E+03  0.7818608E-02  0.1171223E+00
         -2   -1    0    0    0  501 -0.00000000000E+00  0.00000000000E+00  0.68183980482E+02  0.68183980482E+02  0.00000000000E+00 0. -1.
          2   -1    0    0  502    0  0.00000000000E+00 -0.00000000000E+00 -0.50957360265E+03  0.50957360265E+03  0.00000000000E+00 0.  1.
          6    1    1    2  502    0  0.13843478053E+02  0.37155540791E+02 -0.12785540205E+03  0.21795224231E+03  0.17200000000E+03 0. -1.
         -6    1    1    2    0  501 -0.13843478053E+02 -0.37155540791E+02 -0.31353422012E+03  0.35980534082E+03  0.17200000000E+03 0.  1.
</event>
<event>
 4    1  0.1054668E+000  0.2015256E+03  0.7818608E-02  0.1148458E+00
         -1   -1    0    0    0  501 -0.00000000000E+00  0.00000000000E+00  0.18807269395E+03  0.18807269395E+03  0.00000000000E+00 0.  1.
          1   -1    0    0  502    0  0.00000000000E+00 -0.00000000000E+00 -0.70773222356E+03  0.70773222356E+03  0.00000000000E+00 0. -1.
          6    1    1    2  502    0  0.10104415046E+03  0.28611747751E+02 -0.63319981094E+03  0.66449571333E+03  0.17200000000E+03 0. -1.
         -6    1    1    2    0  501 -0.10104415046E+03 -0.28611747751E+02  0.11354028134E+03  0.23130920418E+03  0.17200000000E+03 0.  1.
</event>
<event>
 4    1  0.1054668E+000  0.2890999E+03  0.7818608E-02  0.1090820E+00
          2   -1    0    0  502    0  0.00000000000E+00  0.00000000000E+00  0.15543904234E+04  0.15543904234E+04  0.00000000000E+00 0. -1.
         -2   -1    0    0    0  501 -0.00000000000E+00 -0.00000000000E+00 -0.80253562296E+02  0.80253562296E+02  0.00000000000E+00 0.  1.
          6    1    1    2  502    0 -0.21345093413E+03  0.91833928698E+02  0.12065877354E+04  0.12407387859E+04  0.17200000000E+03 0. -1.
         -6    1    1    2    0  501  0.21345093413E+03 -0.91833928698E+02  0.26754912577E+03  0.39390519981E+03  0.17200000000E+03 0.  1.
</event>
<event>
 4    1  0.1054668E+000  0.1737461E+03  0.7818608E-02  0.1173997E+00
          4   -1    0    0  502    0  0.00000000000E+00  0.00000000000E+00  0.36586189587E+03  0.36586189587E+03  0.00000000000E+00 0. -1.
         -4   -1    0    0    0  501 -0.00000000000E+00 -0.00000000000E+00 -0.85327483036E+02  0.85327483036E+02  0.00000000000E+00 0.  1.
          6    1    1    2  502    0  0.20228373517E+02 -0.13947386406E+02  0.18125173030E+03  0.25107749087E+03  0.17200000000E+03 0. -1.
         -6    1    1    2    0  501 -0.20228373517E+02  0.13947386406E+02  0.99282682525E+02  0.20011188803E+03  0.17200000000E+03 0.  1.
</event>
<event>
 4    1  0.1054668E+000  0.2194302E+03  0.7818608E-02  0.1134309E+00
         -2   -1    0    0    0  501 -0.00000000000E+00  0.00000000000E+00  0.21949780607E+02  0.21949780607E+02  0.00000000000E+00 0. -1.
          2   -1    0    0  502    0  0.00000000000E+00 -0.00000000000E+00 -0.22052920630E+04  0.22052920630E+04  0.00000000000E+00 0.  1.
          6    1    1    2  502    0  0.55383133447E+02  0.12449226826E+03 -0.10106756885E+04  0.10342219122E+04  0.17200000000E+03 0.  1.
         -6    1    1    2    0  501 -0.55383133447E+02 -0.12449226826E+03 -0.11726665938E+04  0.11930199314E+04  0.17200000000E+03 0.  1.
</event>
<event>
 4    1  0.1054668E+000  0.1816021E+03  0.7818608E-02  0.1166261E+00
         -2   -1    0    0    0  501 -0.00000000000E+00  0.00000000000E+00  0.46380789244E+03  0.46380789244E+03  0.00000000000E+00 0.  1.
          2   -1    0    0  502    0  0.00000000000E+00 -0.00000000000E+00 -0.13972318292E+03  0.13972318292E+03  0.00000000000E+00 0. -1.
          6    1    1    2  502    0 -0.42237160660E+02  0.40141540989E+02  0.37351452995E+03  0.41532207398E+03  0.17200000000E+03 0.  1.
         -6    1    1    2    0  501  0.42237160660E+02 -0.40141540989E+02 -0.49429820426E+02  0.18820900138E+03  0.17200000000E+03 0. -1.
</event>
<event>
 4    1  0.1054668E+000  0.1817971E+03  0.7818608E-02  0.1166075E+00
          2   -1    0    0  502    0  0.00000000000E+00  0.00000000000E+00  0.13740529795E+04  0.13740529795E+04  0.00000000000E+00 0. -1.
         -2   -1    0    0    0  501 -0.00000000000E+00 -0.00000000000E+00 -0.37611947356E+02  0.37611947356E+02  0.00000000000E+00 0.  1.
          6    1    1    2  502    0  0.26887882651E+02 -0.52375777496E+02  0.10920105385E+04  0.11070398351E+04  0.17200000000E+03 0. -1.
         -6    1    1    2    0  501 -0.26887882651E+02  0.52375777496E+02  0.24443049362E+03  0.30462509173E+03  0.17200000000E+03 0.  1.
</event>
<event>
 4    1  0.1054668E+000  0.3561535E+03  0.7818608E-02  0.1060117E+00
          2   -1    0    0  502    0  0.00000000000E+00  0.00000000000E+00  0.13153062092E+04  0.13153062092E+04  0.00000000000E+00 0. -1.
         -2   -1    0    0    0  501 -0.00000000000E+00 -0.00000000000E+00 -0.10739431743E+03  0.10739431743E+03  0.00000000000E+00 0.  1.
          6    1    1    2  502    0 -0.30099233007E+03  0.81639252830E+02  0.83116592753E+03  0.90425778927E+03  0.17200000000E+03 0.  1.
         -6    1    1    2    0  501  0.30099233007E+03 -0.81639252830E+02  0.37674596426E+03  0.51844273739E+03  0.17200000000E+03 0.  1.
</event>
<event>
 4    1  0.1054668E+000  0.2194146E+03  0.7818608E-02  0.1134320E+00
         -2   -1    0    0    0  501 -0.00000000000E+00  0.00000000000E+00  0.35579661870E+02  0.35579661870E+02  0.00000000000E+00 0.  1.
          2   -1    0    0  502    0  0.00000000000E+00 -0.00000000000E+00 -0.13620130613E+04  0.13620130613E+04  0.00000000000E+00 0. -1.
          6    1    1    2  502    0 -0.94031062496E+02 -0.98574511389E+02 -0.71975181337E+03  0.75245295391E+03  0.17200000000E+03 0. -1.
         -6    1    1    2    0  501  0.94031062496E+02  0.98574511389E+02 -0.60668158610E+03  0.64513976929E+03  0.17200000000E+03 0. -1.
</event>
<event>
 4    1  0.1054668E+000  0.1836220E+03  0.7818608E-02  0.1164343E+00
          1   -1    0    0  502    0  0.00000000000E+00  0.00000000000E+00  0.30113316911E+03  0.30113316911E+03  0.00000000000E+00 0.  1.
         -1   -1    0    0    0  501 -0.00000000000E+00 -0.00000000000E+00 -0.12870671662E+03  0.12870671662E+03  0.00000000000E+00 0. -1.
          6    1    1    2  502    0  0.39925178418E+02  0.50388671620E+02  0.16372140873E+03  0.24601166187E+03  0.17200000000E+03 0.  1.
         -6    1    1    2    0  501 -0.39925178418E+02 -0.50388671620E+02  0.87050437629E+01  0.18382822386E+03  0.17200000000E+03 0. -1.
</event>
<event>
 4    1  0.1054668E+000  0.2063818E+03  0.7818608E-02  0.1144464E+00
          2   -1    0    0  502    0  0.00000000000E+00  0.00000000000E+00  0.30852747673E+03  0.30852747673E+03  0.00000000000E+00 0.  1.
         -2   -1    0    0    0  501 -0.00000000000E+00 -0.00000000000E+00 -0.22880539692E+03  0.22880539692E+03  0.00000000000E+00 0. -1.
          6    1    1    2  502    0 -0.61429600644E+02  0.96103288686E+02 -0.12934156863E+03  0.24356247516E+03  0.17200000000E+03 0. -1.
         -6    1    1    2    0  501  0.61429600644E+02 -0.96103288686E+02  0.20906364843E+03  0.29377039849E+03  0.17200000000E+03 0.  1.
</event>
<event>
 4    1  0.1054668E+000  0.1912185E+03  0.7818608E-02  0.1157367E+00
         -2   -1    0    0    0  501 -0.00000000000E+00  0.00000000000E+00  0.12619570446E+03  0.12619570446E+03  0.00000000000E+00 0.  1.
          2   -1    0    0  502    0  0.00000000000E+00 -0.00000000000E+00 -0.46237319162E+03  0.46237319162E+03  0.00000000000E+00 0. -1.
          6    1    1    2  502    0 -0.75541416667E+02 -0.35693299335E+02 -0.34790436528E+03  0.39699113923E+03  0.17200000000E+03 0. -1.
         -6    1    1    2    0  501  0.75541416667E+02  0.35693299335E+02  0.11726878112E+02  0.19157775685E+03  0.17200000000E+03 0.  1.
</event>
<event>
 4    1  0.1054668E+000  0.2428800E+03  0.7818608E-02  0.1117889E+00
         -2   -1    0    0    0  501 -0.00000000000E+00  0.00000000000E+00  0.11427686187E+03  0.11427686187E+03  0.00000000000E+00 0. -1.
          2   -1    0    0  502    0  0.00000000000E+00 -0.00000000000E+00 -0.94751922205E+03  0.94751922205E+03  0.00000000000E+00 0.  1.
          6    1    1    2  502    0 -0.14816634364E+03  0.86333269284E+02 -0.77481013215E+03  0.81198610805E+03  0.17200000000E+03 0.  1.
         -6    1    1    2    0  501  0.14816634364E+03 -0.86333269284E+02 -0.58432228024E+02  0.24980997587E+03  0.17200000000E+03 0. -1.
</event>
<event>
 4    1  0.1054668E+000  0.2099274E+03  0.7818608E-02  0.1141624E+00
          2   -1    0    0  502    0  0.00000000000E+00  0.00000000000E+00  0.35452908642E+03  0.35452908642E+03  0.00000000000E+00 0.  1.
         -2   -1    0    0    0  501 -0.00000000000E+00 -0.00000000000E+00 -0.13416188626E+03  0.13416188626E+03  0.00000000000E+00 0. -1.
          6    1    1    2  502    0  0.61155155978E+02  0.10366074285E+03  0.43950628360E+02  0.21447881118E+03  0.17200000000E+03 0. -1.
         -6    1    1    2    0  501 -0.61155155978E+02 -0.10366074285E+03  0.17641657180E+03  0.27421216150E+03  0.17200000000E+03 0.  1.
</event>
<event>
 4    1  0.1054668E+000  0.2006227E+03  0.7818608E-02  0.1149215E+00
         -1   -1    0    0    0  501 -0.00000000000E+00  0.00000000000E+00  0.28769693100E+02  0.28769693100E+02  0.00000000000E+00 0.  1.
          1   -1    0    0  502    0  0.00000000000E+00 -0.00000000000E+00 -0.18016260711E+04  0.18016260711E+04  0.00000000000E+00 0. -1.
          6    1    1    2  502    0  0.99244553402E+02 -0.28565435084E+02 -0.45379367703E+03  0.49616344764E+03  0.17200000000E+03 0. -1.
         -6    1    1    2    0  501 -0.99244553402E+02  0.28565435084E+02 -0.13190627010E+04  0.13342323166E+04  0.17200000000E+03 0.  1.
</event>
<event>
 4    1  0.1054668E+000  0.2803527E+03  0.7818608E-02  0.1095496E+00
         -1   -1    0    0    0  501 -0.00000000000E+00  0.00000000000E+00  0.16024370977E+03  0.16024370977E+03  0.00000000000E+00 0. -1.
          1   -1    0    0  502    0  0.00000000000E+00 -0.00000000000E+00 -0.50403610755E+03  0.50403610755E+03  0.00000000000E+00 0.  1.
          6    1    1    2  502    0  0.22138153029E+03  0.19651301912E+01 -0.11744256620E+03  0.30395789189E+03  0.17200000000E+03 0. -1.
         -6    1    1    2    0  501 -0.22138153029E+03 -0.19651301912E+01 -0.22634983158E+03  0.36032192543E+03  0.17200000000E+03 0.  1.
</event>
<event>
 4    1  0.1054668E+000  0.1767822E+03  0.7818608E-02  0.1170954E+00
          4   -1    0    0  502    0  0.00000000000E+00  0.00000000000E+00  0.15196362359E+03  0.15196362359E+03  0.00000000000E+00 0.  1.
         -4   -1    0    0    0  501 -0.00000000000E+00 -0.00000000000E+00 -0.39544554317E+03  0.39544554317E+03  0.00000000000E+00 0. -1.
          6    1    1    2  502    0 -0.38540796657E+02  0.13510734778E+02  0.67875970455E+02  0.18936493954E+03  0.17200000000E+03 0.  1.
         -6    1    1    2    0  501  0.38540796657E+02 -0.13510734778E+02 -0.31135789004E+03  0.35804422723E+03  0.17200000000E+03 0. -1.
</event>
<event>
 4    1  0.1054668E+000  0.1935196E+03  0.7818608E-02  0.1155325E+00
          2   -1    0    0  502    0  0.00000000000E+00  0.00000000000E+00  0.87319606926E+02  0.87319606926E+02  0.00000000000E+00 0.  1.
         -2   -1    0    0    0  501 -0.00000000000E+00 -0.00000000000E+00 -0.45225032549E+03  0.45225032549E+03  0.00000000000E+00 0. -1.
          6    1    1    2  502    0 -0.73379480141E+02  0.49812448256E+02 -0.12114002542E+03  0.22830841830E+03  0.17200000000E+03 0. -1.
         -6    1    1    2    0  501  0.73379480141E+02 -0.49812448256E+02 -0.24379069315E+03  0.31126151412E+03  0.17200000000E+03 0.  1.
</event>
<event>
 4    1  0.1054668E+000  0.1723128E+03  0.7818608E-02  0.1175457E+00
         -1   -1    0    0    0  501 -0.00000000000E+00  0.00000000000E+00  0.69387618270E+03  0.69387618270E+03  0.00000000000E+00 0.  1.
          1   -1    0    0  502    0  0.00000000000E+00 -0.00000000000E+00 -0.49840746647E+02  0.49840746647E+02  0.00000000000E+00 0. -1.
          6    1    1    2  502    0 -0.73971457928E+01 -0.72779309303E+01  0.46187040385E+03  0.49296648567E+03  0.17200000000E+03 0.  1.
         -6    1    1    2    0  501  0.73971457928E+01  0.72779309303E+01  0.18216503220E+03  0.25075044367E+03  0.17200000000E+03 0. -1.
</event>
<event>
 4    1  0.1054668E+000  0.1850856E+03  0.7818608E-02  0.1162970E+00
          1   -1    0    0  502    0  0.00000000000E+00  0.00000000000E+00  0.15128299394E+04  0.15128299394E+04  0.00000000000E+00 0. -1.
         -1   -1    0    0    0  501 -0.00000000000E+00 -0.00000000000E+00 -0.32468809577E+02  0.32468809577E+02  0.00000000000E+00 0.  1.
          6    1    1    2  502    0  0.10779419893E+02  0.67501838348E+02  0.11652000284E+04  0.11798083744E+04  0.17200000000E+03 0. -1.
         -6    1    1    2    0  501 -0.10779419893E+02 -0.67501838348E+02  0.31516110143E+03  0.36549037460E+03  0.17200000000E+03 0.  1.
</event>
<event>
 4    1  0.1054668E+000  0.2949827E+03  0.7818608E-02  0.1087776E+00
         -1   -1    0    0    0  501 -0.00000000000E+00  0.00000000000E+00  0.60644242297E+02  0.60644242297E+02  0.00000000000E+00 0.  1.
          1   -1    0    0  502    0  0.00000000000E+00 -0.00000000000E+00 -0.18809071364E+04  0.18809071364E+04  0.00000000000E+00 0. -1.
          6    1    1    2  502    0 -0.92889368762E+02 -0.22091250943E+03 -0.13828856875E+04  0.14139970284E+04  0.17200000000E+03 0. -1.
         -6    1    1    2    0  501  0.92889368762E+02  0.22091250943E+03 -0.43737720659E+03  0.52755435027E+03  0.17200000000E+03 0.  1.
</event>
<event>
 4    1  0.1054668E+000  0.1773464E+03  0.7818608E-02  0.1170396E+00
         -2   -1    0    0    0  501 -0.00000000000E+00  0.00000000000E+00  0.88692760048E+02  0.88692760048E+02  0.00000000000E+00 0. -1.
          2   -1    0    0  502    0  0.00000000000E+00 -0.00000000000E+00 -0.48449186480E+03  0.48449186480E+03  0.00000000000E+00 0.  1.
          6    1    1    2  502    0  0.17891960618E+02 -0.39339874730E+02 -0.34628381813E+03  0.38905556248E+03  0.17200000000E+03 0.  1.
         -6    1    1    2    0  501 -0.17891960618E+02  0.39339874730E+02 -0.49515286620E+02  0.18412906237E+03  0.17200000000E+03 0. -1.
</event>
<event>
 4    1  0.1054668E+000  0.2013997E+03  0.7818608E-02  0.1148563E+00
         -1   -1    0    0    0  501 -0.00000000000E+00  0.00000000000E+00  0.53529170659E+03  0.53529170659E+03  0.00000000000E+00 0. -1.
          1   -1    0    0  502    0  0.00000000000E+00 -0.00000000000E+00 -0.20835784557E+03  0.20835784557E+03  0.00000000000E+00 0.  1.
          6    1    1    2  502    0 -0.10415183528E+03 -0.11411973436E+02 -0.13313688319E+03  0.24142756180E+03  0.17200000000E+03 0.  1.
         -6    1    1    2    0  501  0.10415183528E+03  0.11411973436E+02  0.46007074420E+03  0.50222199036E+03  0.17200000000E+03 0. -1.
</event>
<event>
 4    1  0.1054668E+000  0.3553647E+03  0.7818608E-02  0.1060434E+00
         -1   -1    0    0    0  501 -0.00000000000E+00  0.00000000000E+00  0.43672386484E+03  0.43672386484E+03  0.00000000000E+00 0. -1.
          1   -1    0    0  502    0  0.00000000000E+00 -0.00000000000E+00 -0.36080888328E+03  0.36080888328E+03  0.00000000000E+00 0.  1.
          6    1    1    2  502    0  0.21822183426E+03  0.22153841751E+03  0.21565360190E+03  0.41568078545E+03  0.17200000000E+03 0. -1.
         -6    1    1    2    0  501 -0.21822183426E+03 -0.22153841751E+03 -0.13973862034E+03  0.38185196267E+03  0.17200000000E+03 0.  1.
</event>
<event>
 4    1  0.1054668E+000  0.2030102E+03  0.7818608E-02  0.1147224E+00
          1   -1    0    0  502    0  0.00000000000E+00  0.00000000000E+00  0.50587772359E+03  0.50587772359E+03  0.00000000000E+00 0. -1.
         -1   -1    0    0    0  501 -0.00000000000E+00 -0.00000000000E+00 -0.82190549095E+02  0.82190549095E+02  0.00000000000E+00 0.  1.
          6    1    1    2  502    0 -0.43991107177E+02  0.98457759566E+02  0.23940118009E+03  0.31388863146E+03  0.17200000000E+03 0. -1.
         -6    1    1    2    0  501  0.43991107177E+02 -0.98457759566E+02  0.18428599440E+03  0.27417964122E+03  0.17200000000E+03 0.  1.
</event>
<event>
 4    1  0.1054668E+000  0.1738176E+03  0.7818608E-02  0.1173924E+00
         -2   -1    0    0    0  501 -0.00000000000E+00  0.00000000000E+00  0.83565873562E+02  0.83565873562E+02  0.00000000000E+00 0. -1.
          2   -1    0    0  502    0  0.00000000000E+00 -0.00000000000E+00 -0.42919386190E+03  0.42919386190E+03  0.00000000000E+00 0.  1.
          6    1    1    2  502    0 -0.13724308888E+02  0.20980918869E+02 -0.71025728413E+02  0.18776903288E+03  0.17200000000E+03 0. -1.
         -6    1    1    2    0  501  0.13724308888E+02 -0.20980918869E+02 -0.27460225992E+03  0.32499070258E+03  0.17200000000E+03 0.  1.
</event>
<event>
 4    1  0.1054668E+000  0.1749431E+03  0.7818608E-02  0.1172789E+00
          2   -1    0    0  502    0  0.00000000000E+00  0.00000000000E+00  0.74143272071E+02  0.74143272071E+02  0.00000000000E+00 0.  1.
         -2   -1    0    0    0  501 -0.00000000000E+00 -0.00000000000E+00 -0.41285311204E+03  0.41285311204E+03  0.00000000000E+00 0. -1.
          6    1    1    2  502    0 -0.12623873570E+02  0.29355176196E+02 -0.16618366010E+03  0.24129255570E+03  0.17200000000E+03 0.  1.
         -6    1    1    2    0  501  0.12623873570E+02 -0.29355176196E+02 -0.17252617987E+03  0.24570382841E+03  0.17200000000E+03 0.  1.
</event>
<event>
 4    1  0.1054668E+000  0.1817115E+03  0.7818608E-02  0.1166157E+00
         -2   -1    0    0    0  501 -0.00000000000E+00  0.00000000000E+00  0.18352871521E+02  0.18352871521E+02  0.00000000000E+00 0.  1.
          2   -1    0    0  502    0  0.00000000000E+00 -0.00000000000E+00 -0.20961194631E+04  0.20961194631E+04  0.00000000000E+00 0. -1.
          6    1    1    2  502    0  0.57018041407E+02  0.13564667703E+02 -0.14368440754E+04  0.14482886294E+04  0.17200000000E+03 0. -1.
         -6    1    1    2    0  501 -0.57018041407E+02 -0.13564667703E+02 -0.64092251618E+03  0.66618370515E+03  0.17200000000E+03 0.  1.
</event>
<event>
 4    1  0.1054668E+000  0.1752254E+03  0.7818608E-02  0.1172506E+00
         -2   -1    0    0    0  501 -0.00000000000E+00  0.00000000000E+00  0.97837624802E+03  0.97837624802E+03  0.00000000000E+00 0.  1.
          2   -1    0    0  502    0  0.00000000000E+00 -0.00000000000E+00 -0.31619695173E+02  0.31619695173E+02  0.00000000000E+00 0. -1.
          6    1    1    2  502    0 -0.20860927684E+02  0.26168051403E+02  0.42964475178E+03  0.46400275640E+03  0.17200000000E+03 0. -1.
         -6    1    1    2    0  501  0.20860927684E+02 -0.26168051403E+02  0.51711180107E+03  0.54599318680E+03  0.17200000000E+03 0.  1.
</event>
<event>
 4    1  0.1054668E+000  0.2526040E+03  0.7818608E-02  0.1111670E+00
         -2   -1    0    0    0  501 -0.00000000000E+00  0.00000000000E+00  0.29378136932E+02  0.29378136932E+02  0.00000000000E+00 0.  1.
          2   -1    0    0  502    0  0.00000000000E+00 -0.00000000000E+00 -0.21724316439E+04  0.21724316439E+04  0.00000000000E+00 0. -1.
          6    1    1    2  502    0  0.46046516302E+01  0.18494214156E+03 -0.10556967150E+04  0.10854972835E+04  0.17200000000E+03 0.  1.
         -6    1    1    2    0  501 -0.46046516302E+01 -0.18494214156E+03 -0.10873567920E+04  0.11163124973E+04  0.17200000000E+03 0.  1.
</event>
<event>
 4    1  0.1054668E+000  0.1772858E+03  0.7818608E-02  0.1170456E+00
          1   -1    0    0  502    0  0.00000000000E+00  0.00000000000E+00  0.67715792667E+03  0.67715792667E+03  0.00000000000E+00 0. -1.
         -1   -1    0    0    0  501 -0.00000000000E+00 -0.00000000000E+00 -0.47049472688E+02  0.47049472688E+02  0.00000000000E+00 0.  1.
          6    1    1    2  502    0 -0.35094957180E+02  0.24791209539E+02  0.35710507145E+03  0.39869072242E+03  0.17200000000E+03 0. -1.
         -6    1    1    2    0  501  0.35094957180E+02 -0.24791209539E+02  0.27300338254E+03  0.32551667694E+03  0.17200000000E+03 0.  1.
</event>
<event>
 4    1  0.1054668E+000  0.2098972E+03  0.7818608E-02  0.1141647E+00
         -1   -1    0    0    0  501 -0.00000000000E+00  0.00000000000E+00  0.18330377268E+02  0.18330377268E+02  0.00000000000E+00 0.  1.
          1   -1    0    0  502    0  0.00000000000E+00 -0.00000000000E+00 -0.27831229476E+04  0.27831229476E+04  0.00000000000E+00 0. -1.
          6    1    1    2  502    0  0.36900930670E+02  0.11450404656E+03 -0.18997289112E+04  0.19112893009E+04  0.17200000000E+03 0. -1.
         -6    1    1    2    0  501 -0.36900930670E+02 -0.11450404656E+03 -0.86506365904E+03  0.89016402396E+03  0.17200000000E+03 0.  1.
</event>
<event>
 4    1  0.1054668E+000  0.1759223E+03  0.7818608E-02  0.1171809E+00
          2   -1    0    0  502    0  0.00000000000E+00  0.00000000000E+00  0.12299586283E+03  0.12299586283E+03  0.00000000000E+00 0.  1.
         -2   -1    0    0    0  501 -0.00000000000E+00 -0.00000000000E+00 -0.26060541844E+03  0.26060541844E+03  0.00000000000E+00 0. -1.
          6    1    1    2  502    0  0.30131320017E+02  0.21372049716E+02 -0.33197347501E+02  0.17902716229E+03  0.17200000000E+03 0. -1.
         -6    1    1    2    0  501 -0.30131320017E+02 -0.21372049716E+02 -0.10441220811E+03  0.20457411898E+03  0.17200000000E+03 0.  1.
</event>
<event>
 4    1  0.1054668E+000  0.2043874E+03  0.7818608E-02  0.1146089E+00
          1   -1    0    0  502    0  0.00000000000E+00  0.00000000000E+00  0.93948090728E+02  0.93948090728E+02  0.00000000000E+00 0.  1.
         -1   -1    0    0    0  501 -0.00000000000E+00 -0.00000000000E+00 -0.67106287807E+03  0.67106287807E+03  0.00000000000E+00 0. -1.
          6    1    1    2  502    0  0.25172478451E+00  0.11040903275E+03 -0.51073720142E+03  0.55011517593E+03  0.17200000000E+03 0.  1.
         -6    1    1    2    0  501 -0.25172478451E+00 -0.11040903275E+03 -0.66377585924E+02  0.21489579287E+03  0.17200000000E+03 0.  1.
</event>
<event>
 4    1  0.1054668E+000  0.5080159E+03  0.7818608E-02  0.1011708E+00
         -2   -1    0    0    0  501 -0.00000000000E+00  0.00000000000E+00  0.60532267623E+03  0.60532267623E+03  0.00000000000E+00 0. -1.
          2   -1    0    0  502    0  0.00000000000E+00 -0.00000000000E+00 -0.43305189170E+03  0.43305189170E+03  0.00000000000E+00 0.  1.
          6    1    1    2  502    0 -0.45344460140E+03  0.15127520760E+03  0.21554193642E+02  0.50847298674E+03  0.17200000000E+03 0. -1.
         -6    1    1    2    0  501  0.45344460140E+03 -0.15127520760E+03  0.15071659089E+03  0.52990158119E+03  0.17200000000E+03 0.  1.
</event>
<event>
 4    1  0.1054668E+000  0.1725260E+03  0.7818608E-02  0.1175239E+00
         -1   -1    0    0    0  501 -0.00000000000E+00  0.00000000000E+00  0.69399115165E+02  0.69399115165E+02  0.00000000000E+00 0.  1.
          1   -1    0    0  502    0  0.00000000000E+00 -0.00000000000E+00 -0.48185434266E+03  0.48185434266E+03  0.00000000000E+00 0. -1.
          6    1    1    2  502    0  0.13246014347E+02 -0.24021029139E+01 -0.29760051066E+03  0.34399315537E+03  0.17200000000E+03 0.  1.
         -6    1    1    2    0  501 -0.13246014347E+02  0.24021029139E+01 -0.11485471683E+03  0.20726030245E+03  0.17200000000E+03 0.  1.
</event>
<event>
 4    1  0.1054668E+000  0.1943087E+03  0.7818608E-02  0.1154632E+00
         -2   -1    0    0    0  501 -0.00000000000E+00  0.00000000000E+00  0.27889364544E+03  0.27889364544E+03  0.00000000000E+00 0.  1.
          2   -1    0    0  502    0  0.00000000000E+00 -0.00000000000E+00 -0.14646526390E+03  0.14646526390E+03  0.00000000000E+00 0. -1.
          6    1    1    2  502    0  0.90226346667E+02  0.55756626325E+01  0.76970346258E+01  0.19446111691E+03  0.17200000000E+03 0. -1.
         -6    1    1    2    0  501 -0.90226346667E+02 -0.55756626325E+01  0.12473134691E+03  0.23089779243E+03  0.17200000000E+03 0.  1.
</event>
<event>
 4    1  0.1054668E+000  0.2649130E+03  0.7818608E-02  0.1104227E+00
          2   -1    0    0  502    0  0.00000000000E+00  0.00000000000E+00  0.29983603458E+04  0.29983603458E+04  0.00000000000E+00 0.  1.
         -2   -1    0    0    0  501 -0.00000000000E+00 -0.00000000000E+00 -0.24927700507E+02  0.24927700507E+02  0.00000000000E+00 0. -1.
          6    1    1    2  502    0 -0.31612465861E+01 -0.20145698654E+03  0.18602303077E+04  0.18789985919E+04  0.17200000000E+03 0. -1.
         -6    1    1    2    0  501  0.31612465861E+01  0.20145698654E+03  0.11132023376E+04  0.11442894544E+04  0.17200000000E+03 0. -1.
</event>
<event>
 4    1  0.1054668E+000  0.2898045E+03  0.7818608E-02  0.1090451E+00
         -2   -1    0    0    0  501 -0.00000000000E+00  0.00000000000E+00  0.92327231108E+03  0.92327231108E+03  0.00000000000E+00 0.  1.
          2   -1    0    0  502    0  0.00000000000E+00 -0.00000000000E+00 -0.92558833872E+02  0.92558833872E+02  0.00000000000E+00 0. -1.
          6    1    1    2  502    0  0.78271556174E+02 -0.21971848394E+03  0.34873292463E+03  0.45343279702E+03  0.17200000000E+03 0. -1.
         -6    1    1    2    0  501 -0.78271556174E+02  0.21971848394E+03  0.48198055257E+03  0.56239834793E+03  0.17200000000E+03 0. -1.
</event>
<event>
 4    1  0.1054668E+000  0.1894573E+03  0.7818608E-02  0.1158952E+00
         -2   -1    0    0    0  501 -0.00000000000E+00  0.00000000000E+00  0.87319857348E+02  0.87319857348E+02  0.00000000000E+00 0. -1.
          2   -1    0    0  502    0  0.00000000000E+00 -0.00000000000E+00 -0.43397013108E+03  0.43397013108E+03  0.00000000000E+00 0.  1.
          6    1    1    2  502    0 -0.34779120346E+02 -0.71417675766E+02 -0.23320667880E+03  0.30046535019E+03  0.17200000000E+03 0.  1.
         -6    1    1    2    0  501  0.34779120346E+02  0.71417675766E+02 -0.11344359492E+03  0.22082463824E+03  0.17200000000E+03 0. -1.
</event>
<event>
 4    1  0.1054668E+000  0.1948445E+03  0.7818608E-02  0.1154163E+00
          3   -1    0    0  502    0  0.00000000000E+00  0.00000000000E+00  0.10436861691E+03  0.10436861691E+03  0.00000000000E+00 0.  1.
         -3   -1    0    0    0  501 -0.00000000000E+00 -0.00000000000E+00 -0.38060223279E+03  0.38060223279E+03  0.00000000000E+00 0. -1.
          6    1    1    2  502    0  0.91346439039E+02  0.60169583063E+01 -0.87096540576E+02  0.21342488864E+03  0.17200000000E+03 0. -1.
         -6    1    1    2    0  501 -0.91346439039E+02 -0.60169583063E+01 -0.18913707530E+03  0.27154596106E+03  0.17200000000E+03 0. -1.
</event>
<event>
 4    1  0.1054668E+000  0.1898346E+03  0.7818608E-02  0.1158611E+00
          1   -1    0    0  502    0  0.00000000000E+00  0.00000000000E+00  0.89695595624E+02  0.89695595624E+02  0.00000000000E+00 0. -1.
         -1   -1    0    0    0  501 -0.00000000000E+00 -0.00000000000E+00 -0.40179267484E+03  0.40179267484E+03  0.00000000000E+00 0.  1.
          6    1    1    2  502    0 -0.61244016116E+02  0.51984122505E+02 -0.15428557587E+03  0.24462464599E+03  0.17200000000E+03 0. -1.
         -6    1    1    2    0  501  0.61244016116E+02 -0.51984122505E+02 -0.15781150335E+03  0.24686362448E+03  0.17200000000E+03 0. -1.
</event>
<event>
 4    1  0.1054668E+000  0.1935454E+03  0.7818608E-02  0.1155302E+00
          1   -1    0    0  502    0  0.00000000000E+00  0.00000000000E+00  0.59871372388E+02  0.59871372388E+02  0.00000000000E+00 0. -1.
         -1   -1    0    0    0  501 -0.00000000000E+00 -0.00000000000E+00 -0.10086239676E+04  0.10086239676E+04  0.00000000000E+00 0.  1.
          6    1    1    2  502    0 -0.87446954559E+02  0.15127621816E+02 -0.14518344415E+03  0.24194637269E+03  0.17200000000E+03 0. -1.
         -6    1    1    2    0  501  0.87446954559E+02 -0.15127621816E+02 -0.80356915110E+03  0.82654896734E+03  0.17200000000E+03 0.  1.
</event>
<event>
 4    1  0.1054668E+000  0.1872287E+03  0.7818608E-02  0.1160985E+00
         -2   -1    0    0    0  501 -0.00000000000E+00  0.00000000000E+00  0.47716028627E+02  0.47716028627E+02  0.00000000000E+00 0. -1.
          2   -1    0    0  502    0  0.00000000000E+00 -0.00000000000E+00 -0.76807734660E+03  0.76807734660E+03  0.00000000000E+00 0.  1.
          6    1    1    2  502    0  0.53583544146E+02 -0.50984179846E+02 -0.44527453974E+03  0.48303622901E+03  0.17200000000E+03 0.  1.
         -6    1    1    2    0  501 -0.53583544146E+02  0.50984179846E+02 -0.27508677823E+03  0.33275714622E+03  0.17200000000E+03 0. -1.
</event>
<event>
 4    1  0.1054668E+000  0.2111811E+03  0.7818608E-02  0.1140634E+00
         -1   -1    0    0    0  501 -0.00000000000E+00  0.00000000000E+00  0.22044968385E+02  0.22044968385E+02  0.00000000000E+00 0.  1.
          1   -1    0    0  502    0  0.00000000000E+00 -0.00000000000E+00 -0.21684900282E+04  0.21684900282E+04  0.00000000000E+00 0. -1.
          6    1    1    2  502    0  0.91792875740E+02 -0.81163486124E+02 -0.78954423417E+03  0.81729893016E+03  0.17200000000E+03 0. -1.
         -6    1    1    2    0  501 -0.91792875740E+02  0.81163486124E+02 -0.13569008256E+04  0.13732360664E+04  0.17200000000E+03 0. -1.
</event>
<event>
 4    1  0.1054668E+000  0.1996244E+03  0.7818608E-02  0.1150056E+00
         -2   -1    0    0    0  501 -0.00000000000E+00  0.00000000000E+00  0.12600314465E+03  0.12600314465E+03  0.00000000000E+00 0.  1.
          2   -1    0    0  502    0  0.00000000000E+00 -0.00000000000E+00 -0.43667213781E+03  0.43667213781E+03  0.00000000000E+00 0. -1.
          6    1    1    2  502    0  0.95980166380E+02  0.32460780185E+02 -0.75995533303E+01  0.19976898608E+03  0.17200000000E+03 0.  1.
         -6    1    1    2    0  501 -0.95980166380E+02 -0.32460780185E+02 -0.30306943984E+03  0.36290629638E+03  0.17200000000E+03 0. -1.
</event>
<event>
 4    1  0.1054668E+000  0.1895377E+03  0.7818608E-02  0.1158879E+00
         -3   -1    0    0    0  501 -0.00000000000E+00  0.00000000000E+00  0.59796758762E+02  0.59796758762E+02  0.00000000000E+00 0.  1.
          3   -1    0    0  502    0  0.00000000000E+00 -0.00000000000E+00 -0.62166606964E+03  0.62166606964E+03  0.00000000000E+00 0. -1.
          6    1    1    2  502    0 -0.73417348185E+02 -0.30829284429E+02 -0.21847678784E+03  0.28923460826E+03  0.17200000000E+03 0.  1.
         -6    1    1    2    0  501  0.73417348185E+02  0.30829284429E+02 -0.34339252304E+03  0.39222822014E+03  0.17200000000E+03 0.  1.
</event>
<event>
 4    1  0.1054668E+000  0.1959435E+03  0.7818608E-02  0.1153207E+00
          1   -1    0    0  502    0  0.00000000000E+00  0.00000000000E+00  0.10678949148E+04  0.10678949148E+04  0.00000000000E+00 0. -1.
         -1   -1    0    0    0  501 -0.00000000000E+00 -0.00000000000E+00 -0.39212825002E+02  0.39212825002E+02  0.00000000000E+00 0.  1.
          6    1    1    2  502    0  0.12995290343E+02 -0.92956887785E+02  0.35473355025E+03  0.40525270169E+03  0.17200000000E+03 0.  1.
         -6    1    1    2    0  501 -0.12995290343E+02  0.92956887785E+02  0.67394853953E+03  0.70185503809E+03  0.17200000000E+03 0. -1.
</event>
<event>
 4    1  0.1054668E+000  0.1893507E+03  0.7818608E-02  0.1159048E+00
         -2   -1    0    0    0  501 -0.00000000000E+00  0.00000000000E+00  0.33649987815E+02  0.33649987815E+02  0.00000000000E+00 0.  1.
          2   -1    0    0  502    0  0.00000000000E+00 -0.00000000000E+00 -0.12240328409E+04  0.12240328409E+04  0.00000000000E+00 0. -1.
          6    1    1    2  502    0 -0.76121185315E+02 -0.21800716516E+02 -0.36887362835E+03  0.41463412762E+03  0.17200000000E+03 0.  1.
         -6    1    1    2    0  501  0.76121185315E+02  0.21800716516E+02 -0.82150922475E+03  0.84304870111E+03  0.17200000000E+03 0. -1.
</event>
<event>
 4    1  0.1054668E+000  0.1912411E+03  0.7818608E-02  0.1157347E+00
         -1   -1    0    0    0  501 -0.00000000000E+00  0.00000000000E+00  0.16341002743E+03  0.16341002743E+03  0.00000000000E+00 0.  1.
          1   -1    0    0  502    0  0.00000000000E+00 -0.00000000000E+00 -0.25454592146E+03  0.25454592146E+03  0.00000000000E+00 0. -1.
          6    1    1    2  502    0  0.83559589245E+02 -0.26337679405E+01 -0.11818284198E+03  0.22481175643E+03  0.17200000000E+03 0. -1.
         -6    1    1    2    0  501 -0.83559589245E+02  0.26337679405E+01  0.27046947962E+02  0.19314419246E+03  0.17200000000E+03 0.  1.
</event>
<event>
 4    1  0.1054668E+000  0.2605899E+03  0.7818608E-02  0.1106789E+00
          2   -1    0    0  502    0  0.00000000000E+00  0.00000000000E+00  0.97460197811E+03  0.97460197811E+03  0.00000000000E+00 0.  1.
         -2   -1    0    0    0  501 -0.00000000000E+00 -0.00000000000E+00 -0.86165807139E+02  0.86165807139E+02  0.00000000000E+00 0. -1.
          6    1    1    2  502    0  0.19242836373E+03 -0.35977777282E+02  0.21220041342E+03  0.33605965405E+03  0.17200000000E+03 0.  1.
         -6    1    1    2    0  501 -0.19242836373E+03  0.35977777282E+02  0.67623575756E+03  0.72470813120E+03  0.17200000000E+03 0.  1.
</event>
<event>
 4    1  0.1054668E+000  0.3546525E+03  0.7818608E-02  0.1060722E+00
         -2   -1    0    0    0  501 -0.00000000000E+00  0.00000000000E+00  0.94678095389E+03  0.94678095389E+03  0.00000000000E+00 0. -1.
          2   -1    0    0  502    0  0.00000000000E+00 -0.00000000000E+00 -0.14705984770E+03  0.14705984770E+03  0.00000000000E+00 0.  1.
          6    1    1    2  502    0 -0.17695005728E+03  0.25472150092E+03  0.22984222978E+03  0.42261781362E+03  0.17200000000E+03 0.  1.
         -6    1    1    2    0  501  0.17695005728E+03 -0.25472150092E+03  0.56987887641E+03  0.67122298797E+03  0.17200000000E+03 0. -1.
</event>
<event>
 4    1  0.1054668E+000  0.2483885E+03  0.7818608E-02  0.1114327E+00
         -2   -1    0    0    0  501 -0.00000000000E+00  0.00000000000E+00  0.87222213101E+03  0.87222213101E+03  0.00000000000E+00 0. -1.
          2   -1    0    0  502    0  0.00000000000E+00 -0.00000000000E+00 -0.76397761835E+02  0.76397761835E+02  0.00000000000E+00 0.  1.
          6    1    1    2  502    0 -0.96089444738E+02 -0.15126030426E+03  0.26878252323E+03  0.36597937897E+03  0.17200000000E+03 0. -1.
         -6    1    1    2    0  501  0.96089444738E+02  0.15126030426E+03  0.52704184594E+03  0.58264051388E+03  0.17200000000E+03 0.  1.
</event>
<event>
 4    1  0.1054668E+000  0.2825442E+03  0.7818608E-02  0.1094307E+00
          1   -1    0    0  502    0  0.00000000000E+00  0.00000000000E+00  0.66618811157E+03  0.66618811157E+03  0.00000000000E+00 0.  1.
         -1   -1    0    0    0  501 -0.00000000000E+00 -0.00000000000E+00 -0.12216111769E+03  0.12216111769E+03  0.00000000000E+00 0. -1.
          6    1    1    2  502    0 -0.18428908512E+03  0.12761174414E+03  0.21759606591E+03  0.35662202965E+03  0.17200000000E+03 0.  1.
         -6    1    1    2    0  501  0.18428908512E+03 -0.12761174414E+03  0.32643092798E+03  0.43172719960E+03  0.17200000000E+03 0.  1.
</event>
<event>
 4    1  0.1054668E+000  0.2063019E+03  0.7818608E-02  0.1144528E+00
         -2   -1    0    0    0  501 -0.00000000000E+00  0.00000000000E+00  0.26938548825E+02  0.26938548825E+02  0.00000000000E+00 0. -1.
          2   -1    0    0  502    0  0.00000000000E+00 -0.00000000000E+00 -0.16121633084E+04  0.16121633084E+04  0.00000000000E+00 0.  1.
          6    1    1    2  502    0 -0.11359523861E+02 -0.11334647746E+03 -0.67669099823E+03  0.70743987011E+03  0.17200000000E+03 0. -1.
         -6    1    1    2    0  501  0.11359523861E+02  0.11334647746E+03 -0.90853376134E+03  0.93166198712E+03  0.17200000000E+03 0.  1.
</event>
<event>
 4    1  0.1054668E+000  0.1775019E+03  0.7818608E-02  0.1170243E+00
          1   -1    0    0  502    0  0.00000000000E+00  0.00000000000E+00  0.14184687779E+04  0.14184687779E+04  0.00000000000E+00 0. -1.
         -1   -1    0    0    0  501 -0.00000000000E+00 -0.00000000000E+00 -0.26562840781E+02  0.26562840781E+02  0.00000000000E+00 0.  1.
          6    1    1    2  502    0  0.42681565001E+02 -0.10060442167E+02  0.98836834688E+03  0.10041807196E+04  0.17200000000E+03 0. -1.
         -6    1    1    2    0  501 -0.42681565001E+02  0.10060442167E+02  0.40353759020E+03  0.44085089905E+03  0.17200000000E+03 0.  1.
</event>
<event>
 4    1  0.1054668E+000  0.2517599E+03  0.7818608E-02  0.1112198E+00
         -2   -1    0    0    0  501 -0.00000000000E+00  0.00000000000E+00  0.12505260088E+04  0.12505260088E+04  0.00000000000E+00 0. -1.
          2   -1    0    0  502    0  0.00000000000E+00 -0.00000000000E+00 -0.30315194600E+03  0.30315194600E+03  0.00000000000E+00 0.  1.
          6    1    1    2  502    0  0.14838310996E+03 -0.10854253209E+03 -0.23524240547E+03  0.34456061575E+03  0.17200000000E+03 0.  1.
         -6    1    1    2    0  501 -0.14838310996E+03  0.10854253209E+03  0.11826164682E+04  0.12091173390E+04  0.17200000000E+03 0. -1.
</event>
<event>
 4    1  0.1054668E+000  0.2826177E+03  0.7818608E-02  0.1094268E+00
         -2   -1    0    0    0  501 -0.00000000000E+00  0.00000000000E+00  0.40357551850E+02  0.40357551850E+02  0.00000000000E+00 0.  1.
          2   -1    0    0  502    0  0.00000000000E+00 -0.00000000000E+00 -0.21577158523E+04  0.21577158523E+04  0.00000000000E+00 0. -1.
          6    1    1    2  502    0 -0.20977881924E+03  0.79256695314E+02 -0.74249467028E+03  0.79446278211E+03  0.17200000000E+03 0.  1.
         -6    1    1    2    0  501  0.20977881924E+03 -0.79256695314E+02 -0.13748636301E+04  0.14036106220E+04  0.17200000000E+03 0. -1.
</event>
<event>
 4    1  0.1054668E+000  0.2178047E+03  0.7818608E-02  0.1135530E+00
         -2   -1    0    0    0  501 -0.00000000000E+00  0.00000000000E+00  0.57312467810E+03  0.57312467810E+03  0.00000000000E+00 0.  1.
          2   -1    0    0  502    0  0.00000000000E+00 -0.00000000000E+00 -0.85785087294E+02  0.85785087294E+02  0.00000000000E+00 0. -1.
          6    1    1    2  502    0  0.10858202613E+03  0.77876961171E+02  0.18192923716E+03  0.28379063553E+03  0.17200000000E+03 0.  1.
         -6    1    1    2    0  501 -0.10858202613E+03 -0.77876961171E+02  0.30541035364E+03  0.37511912986E+03  0.17200000000E+03 0.  1.
</event>
<event>
 4    1  0.1054668E+000  0.2046264E+03  0.7818608E-02  0.1145893E+00
         -1   -1    0    0    0  501 -0.00000000000E+00  0.00000000000E+00  0.38449950094E+03  0.38449950094E+03  0.00000000000E+00 0.  1.
          1   -1    0    0  502    0  0.00000000000E+00 -0.00000000000E+00 -0.10915549936E+03  0.10915549936E+03  0.00000000000E+00 0. -1.
          6    1    1    2  502    0  0.16282148729E+02  0.10964874492E+03  0.14961611888E+03  0.25348952377E+03  0.17200000000E+03 0. -1.
         -6    1    1    2    0  501 -0.16282148729E+02 -0.10964874492E+03  0.12572788270E+03  0.24016547653E+03  0.17200000000E+03 0. -1.
</event>
<event>
 4    1  0.1054668E+000  0.2043652E+03  0.7818608E-02  0.1146107E+00
          4   -1    0    0  502    0  0.00000000000E+00  0.00000000000E+00  0.24846619072E+03  0.24846619072E+03  0.00000000000E+00 0. -1.
         -4   -1    0    0    0  501 -0.00000000000E+00 -0.00000000000E+00 -0.22764332247E+03  0.22764332247E+03  0.00000000000E+00 0.  1.
          6    1    1    2  502    0  0.22213919119E+02  0.10810951867E+03  0.13216897957E+03  0.24337987877E+03  0.17200000000E+03 0. -1.
         -6    1    1    2    0  501 -0.22213919119E+02 -0.10810951867E+03 -0.11134611132E+03  0.23272963442E+03  0.17200000000E+03 0. -1.
</event>
<event>
 4    1  0.1054668E+000  0.1742723E+03  0.7818608E-02  0.1173464E+00
          2   -1    0    0  502    0  0.00000000000E+00  0.00000000000E+00  0.68127191737E+03  0.68127191737E+03  0.00000000000E+00 0.  1.
         -2   -1    0    0    0  501 -0.00000000000E+00 -0.00000000000E+00 -0.61008620588E+02  0.61008620588E+02  0.00000000000E+00 0. -1.
          6    1    1    2  502    0 -0.26703959985E+02  0.85863926985E+01  0.50272813044E+03  0.53207743868E+03  0.17200000000E+03 0.  1.
         -6    1    1    2    0  501  0.26703959985E+02 -0.85863926985E+01  0.11753516634E+03  0.21020309928E+03  0.17200000000E+03 0. -1.
</event>
<event>
 4    1  0.1054668E+000  0.1849214E+03  0.7818608E-02  0.1163123E+00
          2   -1    0    0  502    0  0.00000000000E+00  0.00000000000E+00  0.75582331667E+03  0.75582331667E+03  0.00000000000E+00 0. -1.
         -2   -1    0    0    0  501 -0.00000000000E+00 -0.00000000000E+00 -0.45300292809E+02  0.45300292809E+02  0.00000000000E+00 0.  1.
          6    1    1    2  502    0 -0.67909998106E+02  0.37660465230E+00  0.36947456034E+03  0.41316747260E+03  0.17200000000E+03 0.  1.
         -6    1    1    2    0  501  0.67909998106E+02 -0.37660465230E+00  0.34104846352E+03  0.38795613688E+03  0.17200000000E+03 0.  1.
</event>
<event>
 4    1  0.1054668E+000  0.4011953E+03  0.7818608E-02  0.1043367E+00
          2   -1    0    0  502    0  0.00000000000E+00  0.00000000000E+00  0.10099364135E+03  0.10099364135E+03  0.00000000000E+00 0. -1.
         -2   -1    0    0    0  501 -0.00000000000E+00 -0.00000000000E+00 -0.20146283365E+04  0.20146283365E+04  0.00000000000E+00 0.  1.
          6    1    1    2  502    0  0.32944954115E+03 -0.15111799157E+03 -0.47332028683E+03  0.62047541568E+03  0.17200000000E+03 0. -1.
         -6    1    1    2    0  501 -0.32944954115E+03  0.15111799157E+03 -0.14403144083E+04  0.14951465622E+04  0.17200000000E+03 0.  1.
</event>
<event>
 4    1  0.1054668E+000  0.1804579E+03  0.7818608E-02  0.1167361E+00
         -2   -1    0    0    0  501 -0.00000000000E+00  0.00000000000E+00  0.12437301552E+03  0.12437301552E+03  0.00000000000E+00 0.  1.
          2   -1    0    0  502    0  0.00000000000E+00 -0.00000000000E+00 -0.30128067270E+03  0.30128067270E+03  0.00000000000E+00 0. -1.
          6    1    1    2  502    0  0.76401464892E+01 -0.54061762008E+02 -0.11443735571E+02  0.18082036676E+03  0.17200000000E+03 0.  1.
         -6    1    1    2    0  501 -0.76401464892E+01  0.54061762008E+02 -0.16546392161E+03  0.24483332147E+03  0.17200000000E+03 0. -1.
</event>
<event>
 4    1  0.1054668E+000  0.1774663E+03  0.7818608E-02  0.1170278E+00
          2   -1    0    0  502    0  0.00000000000E+00  0.00000000000E+00  0.19964742067E+02  0.19964742067E+02  0.00000000000E+00 0.  1.
         -2   -1    0    0    0  501 -0.00000000000E+00 -0.00000000000E+00 -0.19152485540E+04  0.19152485540E+04  0.00000000000E+00 0. -1.
          6    1    1    2  502    0  0.40406118225E+02  0.16662480734E+02 -0.13539784229E+04  0.13655591757E+04  0.17200000000E+03 0.  1.
         -6    1    1    2    0  501 -0.40406118225E+02 -0.16662480734E+02 -0.54130538896E+03  0.56965412030E+03  0.17200000000E+03 0.  1.
</event>
<event>
 4    1  0.1054668E+000  0.1730839E+03  0.7818608E-02  0.1174669E+00
         -2   -1    0    0    0  501 -0.00000000000E+00  0.00000000000E+00  0.72388731070E+02  0.72388731070E+02  0.00000000000E+00 0.  1.
          2   -1    0    0  502    0  0.00000000000E+00 -0.00000000000E+00 -0.45975898476E+03  0.45975898476E+03  0.00000000000E+00 0. -1.
          6    1    1    2  502    0 -0.15901133314E+02  0.11009421180E+02 -0.27776410765E+03  0.32727809718E+03  0.17200000000E+03 0. -1.
         -6    1    1    2    0  501  0.15901133314E+02 -0.11009421180E+02 -0.10960614604E+03  0.20486961865E+03  0.17200000000E+03 0.  1.
</event>
<event>
 4    1  0.1054668E+000  0.2029198E+03  0.7818608E-02  0.1147299E+00
          2   -1    0    0  502    0  0.00000000000E+00  0.00000000000E+00  0.12544925960E+04  0.12544925960E+04  0.00000000000E+00 0.  1.
         -2   -1    0    0    0  501 -0.00000000000E+00 -0.00000000000E+00 -0.32869582194E+02  0.32869582194E+02  0.00000000000E+00 0. -1.
          6    1    1    2  502    0  0.99414797070E+02  0.41341850704E+02  0.63499337822E+03  0.66662811288E+03  0.17200000000E+03 0. -1.
         -6    1    1    2    0  501 -0.99414797070E+02 -0.41341850704E+02  0.58662963560E+03  0.62073406533E+03  0.17200000000E+03 0. -1.
</event>
<event>
 4    1  0.1054668E+000  0.2013685E+03  0.7818608E-02  0.1148590E+00
          3   -1    0    0  502    0  0.00000000000E+00  0.00000000000E+00  0.24868764625E+02  0.24868764625E+02  0.00000000000E+00 0. -1.
         -3   -1    0    0    0  501 -0.00000000000E+00 -0.00000000000E+00 -0.17116545894E+04  0.17116545894E+04  0.00000000000E+00 0.  1.
          6    1    1    2  502    0  0.62368910637E+02  0.84115362947E+02 -0.10324173295E+04  0.10518720538E+04  0.17200000000E+03 0.  1.
         -6    1    1    2    0  501 -0.62368910637E+02 -0.84115362947E+02 -0.65436849520E+03  0.68465130016E+03  0.17200000000E+03 0. -1.
</event>
<event>
 4    1  0.1054668E+000  0.2377850E+03  0.7818608E-02  0.1121277E+00
         -2   -1    0    0    0  501 -0.00000000000E+00  0.00000000000E+00  0.10774850986E+03  0.10774850986E+03  0.00000000000E+00 0.  1.
          2   -1    0    0  502    0  0.00000000000E+00 -0.00000000000E+00 -0.20471351463E+04  0.20471351463E+04  0.00000000000E+00 0. -1.
          6    1    1    2  502    0 -0.16318206469E+03 -0.18147625299E+02 -0.40551670609E+02  0.24121807671E+03  0.17200000000E+03 0.  1.
         -6    1    1    2    0  501  0.16318206469E+03  0.18147625299E+02 -0.18988349659E+04  0.19136655795E+04  0.17200000000E+03 0. -1.
</event>
<event>
 4    1  0.1054668E+000  0.1755830E+03  0.7818608E-02  0.1172148E+00
          4   -1    0    0  502    0  0.00000000000E+00  0.00000000000E+00  0.88200635177E+03  0.88200635177E+03  0.00000000000E+00 0. -1.
         -4   -1    0    0    0  501 -0.00000000000E+00 -0.00000000000E+00 -0.47496850967E+02  0.47496850967E+02  0.00000000000E+00 0.  1.
          6    1    1    2  502    0  0.33293715442E+02 -0.11701376103E+02  0.17842322706E+03  0.25032826777E+03  0.17200000000E+03 0.  1.
         -6    1    1    2    0  501 -0.33293715442E+02  0.11701376103E+02  0.65608627375E+03  0.67917493497E+03  0.17200000000E+03 0. -1.
</event>
<event>
 4    1  0.1054668E+000  0.1783674E+03  0.7818608E-02  0.1169392E+00
         -1   -1    0    0    0  501 -0.00000000000E+00  0.00000000000E+00  0.54731894538E+03  0.54731894538E+03  0.00000000000E+00 0.  1.
          1   -1    0    0  502    0  0.00000000000E+00 -0.00000000000E+00 -0.62988768378E+02  0.62988768378E+02  0.00000000000E+00 0. -1.
          6    1    1    2  502    0  0.18004290835E+01 -0.47198445622E+02  0.32692857633E+03  0.37242076854E+03  0.17200000000E+03 0.  1.
         -6    1    1    2    0  501 -0.18004290835E+01  0.47198445622E+02  0.15740160067E+03  0.23788694522E+03  0.17200000000E+03 0.  1.
</event>
<event>
 4    1  0.1054668E+000  0.1726888E+03  0.7818608E-02  0.1175073E+00
          2   -1    0    0  502    0  0.00000000000E+00  0.00000000000E+00  0.51452369557E+03  0.51452369557E+03  0.00000000000E+00 0.  1.
         -2   -1    0    0    0  501 -0.00000000000E+00 -0.00000000000E+00 -0.19508409801E+03  0.19508409801E+03  0.00000000000E+00 0. -1.
          6    1    1    2  502    0  0.64435182039E+01  0.13996083054E+02  0.45718455673E+03  0.48871170252E+03  0.17200000000E+03 0.  1.
         -6    1    1    2    0  501 -0.64435182039E+01 -0.13996083054E+02 -0.13774495917E+03  0.22089609106E+03  0.17200000000E+03 0. -1.
</event>
<event>
 4    1  0.1054668E+000  0.2260470E+03  0.7818608E-02  0.1129453E+00
          2   -1    0    0  502    0  0.00000000000E+00  0.00000000000E+00  0.42336817589E+03  0.42336817589E+03  0.00000000000E+00 0. -1.
         -2   -1    0    0    0  501 -0.00000000000E+00 -0.00000000000E+00 -0.15572471548E+03  0.15572471548E+03  0.00000000000E+00 0.  1.
          6    1    1    2  502    0  0.97005889726E+02  0.11001414687E+03 -0.35112530091E+01  0.22607428879E+03  0.17200000000E+03 0.  1.
         -6    1    1    2    0  501 -0.97005889726E+02 -0.11001414687E+03  0.27115471342E+03  0.35301860257E+03  0.17200000000E+03 0. -1.
</event>
<event>
 4    1  0.1054668E+000  0.1913611E+03  0.7818608E-02  0.1157239E+00
          2   -1    0    0  502    0  0.00000000000E+00  0.00000000000E+00  0.24055674086E+04  0.24055674086E+04  0.00000000000E+00 0. -1.
         -2   -1    0    0    0  501 -0.00000000000E+00 -0.00000000000E+00 -0.27921247106E+02  0.27921247106E+02  0.00000000000E+00 0.  1.
          6    1    1    2  502    0 -0.74526381182E+02  0.38482327836E+02  0.20093825817E+04  0.20184740352E+04  0.17200000000E+03 0. -1.
         -6    1    1    2    0  501  0.74526381182E+02 -0.38482327836E+02  0.36826357978E+03  0.41501462051E+03  0.17200000000E+03 0.  1.
</event>
<event>
 4    1  0.1054668E+000  0.3006793E+03  0.7818608E-02  0.1084902E+00
         -2   -1    0    0    0  501 -0.00000000000E+00  0.00000000000E+00  0.70715462086E+03  0.70715462086E+03  0.00000000000E+00 0.  1.
          2   -1    0    0  502    0  0.00000000000E+00 -0.00000000000E+00 -0.12849737927E+03  0.12849737927E+03  0.00000000000E+00 0. -1.
          6    1    1    2  502    0  0.24284468460E+03 -0.43017266587E+02  0.25961682444E+03  0.39725171063E+03  0.17200000000E+03 0.  1.
         -6    1    1    2    0  501 -0.24284468460E+03  0.43017266587E+02  0.31904041715E+03  0.43840028951E+03  0.17200000000E+03 0. -1.
</event>
<event>
 4    1  0.1054668E+000  0.3078159E+03  0.7818608E-02  0.1081398E+00
          2   -1    0    0  502    0  0.00000000000E+00  0.00000000000E+00  0.59012495677E+03  0.59012495677E+03  0.00000000000E+00 0. -1.
         -2   -1    0    0    0  501 -0.00000000000E+00 -0.00000000000E+00 -0.16108626769E+03  0.16108626769E+03  0.00000000000E+00 0.  1.
          6    1    1    2  502    0 -0.21229933149E+03  0.14175901363E+03  0.19305619069E+03  0.36334737767E+03  0.17200000000E+03 0. -1.
         -6    1    1    2    0  501  0.21229933149E+03 -0.14175901363E+03  0.23598249840E+03  0.38786384679E+03  0.17200000000E+03 0.  1.
</event>
<event>
 4    1  0.1054668E+000  0.1790473E+03  0.7818608E-02  0.1168728E+00
         -1   -1    0    0    0  501 -0.00000000000E+00  0.00000000000E+00  0.98876031634E+02  0.98876031634E+02  0.00000000000E+00 0. -1.
          1   -1    0    0  502    0  0.00000000000E+00 -0.00000000000E+00 -0.38691669108E+03  0.38691669108E+03  0.00000000000E+00 0.  1.
          6    1    1    2  502    0  0.48960108422E+02 -0.87668326653E+01 -0.46246666826E+02  0.18492350787E+03  0.17200000000E+03 0. -1.
         -6    1    1    2    0  501 -0.48960108422E+02  0.87668326653E+01 -0.24179399262E+03  0.30086921484E+03  0.17200000000E+03 0.  1.
</event>
<event>
 4    1  0.1054668E+000  0.1728505E+03  0.7818608E-02  0.1174907E+00
          2   -1    0    0  502    0  0.00000000000E+00  0.00000000000E+00  0.24252052653E+03  0.24252052653E+03  0.00000000000E+00 0.  1.
         -2   -1    0    0    0  501 -0.00000000000E+00 -0.00000000000E+00 -0.13900184587E+03  0.13900184587E+03  0.00000000000E+00 0. -1.
          6    1    1    2  502    0  0.13145772072E+02  0.10976269583E+02 -0.12569220882E+02  0.17330688137E+03  0.17200000000E+03 0. -1.
         -6    1    1    2    0  501 -0.13145772072E+02 -0.10976269583E+02  0.11608790155E+03  0.20821549103E+03  0.17200000000E+03 0.  1.
</event>
<event>
 4    1  0.1054668E+000  0.1829903E+03  0.7818608E-02  0.1164940E+00
          1   -1    0    0  502    0  0.00000000000E+00  0.00000000000E+00  0.27609802585E+03  0.27609802585E+03  0.00000000000E+00 0. -1.
         -1   -1    0    0    0  501 -0.00000000000E+00 -0.00000000000E+00 -0.15872223968E+03  0.15872223968E+03  0.00000000000E+00 0.  1.
          6    1    1    2  502    0 -0.36308096070E+01  0.62356021880E+02 -0.46905259554E+02  0.18890621911E+03  0.17200000000E+03 0.  1.
         -6    1    1    2    0  501  0.36308096070E+01 -0.62356021880E+02  0.16428104573E+03  0.24591404642E+03  0.17200000000E+03 0. -1.
</event>
<event>
 4    1  0.1054668E+000  0.1789122E+03  0.7818608E-02  0.1168860E+00
          1   -1    0    0  502    0  0.00000000000E+00  0.00000000000E+00  0.18135205667E+03  0.18135205667E+03  0.00000000000E+00 0. -1.
         -1   -1    0    0    0  501 -0.00000000000E+00 -0.00000000000E+00 -0.18806649401E+03  0.18806649401E+03  0.00000000000E+00 0.  1.
          6    1    1    2  502    0 -0.15472248132E+02  0.46756526797E+02  0.42439889314E+02  0.18387688127E+03  0.17200000000E+03 0. -1.
         -6    1    1    2    0  501  0.15472248132E+02 -0.46756526797E+02 -0.49154326658E+02  0.18554166942E+03  0.17200000000E+03 0.  1.
</event>
<event>
 4    1  0.1054668E+000  0.2100867E+03  0.7818608E-02  0.1141497E+00
         -2   -1    0    0    0  501 -0.00000000000E+00  0.00000000000E+00  0.40308650735E+03  0.40308650735E+03  0.00000000000E+00 0. -1.
          2   -1    0    0  502    0  0.00000000000E+00 -0.00000000000E+00 -0.11015902336E+03  0.11015902336E+03  0.00000000000E+00 0.  1.
          6    1    1    2  502    0  0.23332215816E+02 -0.11835554962E+03  0.12655727780E+03  0.24526143803E+03  0.17200000000E+03 0.  1.
         -6    1    1    2    0  501 -0.23332215816E+02  0.11835554962E+03  0.16637020619E+03  0.26798409268E+03  0.17200000000E+03 0. -1.
</event>
<event>
 4    1  0.1054668E+000  0.3102199E+03  0.7818608E-02  0.1080241E+00
          2   -1    0    0  502    0  0.00000000000E+00  0.00000000000E+00  0.97208332180E+03  0.97208332180E+03  0.00000000000E+00 0.  1.
         -2   -1    0    0    0  501 -0.00000000000E+00 -0.00000000000E+00 -0.10507397420E+03  0.10507397420E+03  0.00000000000E+00 0. -1.
          6    1    1    2  502    0  0.25569598842E+03 -0.35664268884E+02  0.56299378603E+03  0.64280508840E+03  0.17200000000E+03 0. -1.
         -6    1    1    2    0  501 -0.25569598842E+03  0.35664268884E+02  0.30401556157E+03  0.43435220760E+03  0.17200000000E+03 0.  1.
</event>
<event>
 4    1  0.1054668E+000  0.2758416E+03  0.7818608E-02  0.1097982E+00
          2   -1    0    0  502    0  0.00000000000E+00  0.00000000000E+00  0.66116418330E+03  0.66116418330E+03  0.00000000000E+00 0.  1.
         -2   -1    0    0    0  501 -0.00000000000E+00 -0.00000000000E+00 -0.12216922672E+03  0.12216922672E+03  0.00000000000E+00 0. -1.
          6    1    1    2  502    0 -0.21347124553E+03 -0.30571869331E+02  0.17516743731E+03  0.32676022242E+03  0.17200000000E+03 0.  1.
         -6    1    1    2    0  501  0.21347124553E+03  0.30571869331E+02  0.36382751927E+03  0.45657318760E+03  0.17200000000E+03 0. -1.
</event>
<event>
 4    1  0.1054668E+000  0.1965577E+03  0.7818608E-02  0.1152676E+00
          2   -1    0    0  502    0  0.00000000000E+00  0.00000000000E+00  0.18312407995E+03  0.18312407995E+03  0.00000000000E+00 0. -1.
         -2   -1    0    0    0  501 -0.00000000000E+00 -0.00000000000E+00 -0.47499840503E+03  0.47499840503E+03  0.00000000000E+00 0.  1.
          6    1    1    2  502    0 -0.55012937936E+02  0.77617760573E+02 -0.39126699168E+03  0.43786390451E+03  0.17200000000E+03 0.  1.
         -6    1    1    2    0  501  0.55012937936E+02 -0.77617760573E+02  0.99392666591E+02  0.22025858047E+03  0.17200000000E+03 0. -1.
</event>
<event>
 4    1  0.1054668E+000  0.2010231E+03  0.7818608E-02  0.1148879E+00
         -2   -1    0    0    0  501 -0.00000000000E+00  0.00000000000E+00  0.18296073265E+03  0.18296073265E+03  0.00000000000E+00 0.  1.
          2   -1    0    0  502    0  0.00000000000E+00 -0.00000000000E+00 -0.61727811309E+03  0.61727811309E+03  0.00000000000E+00 0. -1.
          6    1    1    2  502    0 -0.93837758670E+02 -0.44952885130E+02 -0.53780128234E+03  0.57414328013E+03  0.17200000000E+03 0. -1.
         -6    1    1    2    0  501  0.93837758670E+02  0.44952885130E+02  0.10348390190E+03  0.22609556561E+03  0.17200000000E+03 0.  1.
</event>
<event>
 4    1  0.1054668E+000  0.2991712E+03  0.7818608E-02  0.1085656E+00
          2   -1    0    0  502    0  0.00000000000E+00  0.00000000000E+00  0.93600779122E+03  0.93600779122E+03  0.00000000000E+00 0.  1.
         -2   -1    0    0    0  501 -0.00000000000E+00 -0.00000000000E+00 -0.98538592723E+02  0.98538592723E+02  0.00000000000E+00 0. -1.
          6    1    1    2  502    0  0.21120083496E+03  0.12374814529E+03  0.32974932085E+03  0.44523927360E+03  0.17200000000E+03 0.  1.
         -6    1    1    2    0  501 -0.21120083496E+03 -0.12374814529E+03  0.50771987765E+03  0.58930711035E+03  0.17200000000E+03 0. -1.
</event>
<event>
 4    1  0.1054668E+000  0.2287066E+03  0.7818608E-02  0.1127553E+00
         -2   -1    0    0    0  501 -0.00000000000E+00  0.00000000000E+00  0.30908944565E+02  0.30908944565E+02  0.00000000000E+00 0. -1.
          2   -1    0    0  502    0  0.00000000000E+00 -0.00000000000E+00 -0.16933526335E+04  0.16933526335E+04  0.00000000000E+00 0.  1.
          6    1    1    2  502    0  0.63561371243E+02 -0.13668459030E+03 -0.80956826496E+03  0.84125352943E+03  0.17200000000E+03 0. -1.
         -6    1    1    2    0  501 -0.63561371243E+02  0.13668459030E+03 -0.85287542393E+03  0.88300804859E+03  0.17200000000E+03 0. -1.
</event>
<event>
 4    1  0.1054668E+000  0.2176107E+03  0.7818608E-02  0.1135677E+00
          2   -1    0    0  502    0  0.00000000000E+00  0.00000000000E+00  0.16373064646E+04  0.16373064646E+04  0.00000000000E+00 0.  1.
         -2   -1    0    0    0  501 -0.00000000000E+00 -0.00000000000E+00 -0.28952276503E+02  0.28952276503E+02  0.00000000000E+00 0. -1.
          6    1    1    2  502    0  0.12347427998E+03  0.50244729581E+02  0.77730432485E+03  0.80719046333E+03  0.17200000000E+03 0.  1.
         -6    1    1    2    0  501 -0.12347427998E+03 -0.50244729581E+02  0.83104986323E+03  0.85906827775E+03  0.17200000000E+03 0. -1.
</event>
<event>
 4    1  0.1054668E+000  0.1744461E+03  0.7818608E-02  0.1173289E+00
         -1   -1    0    0    0  501 -0.00000000000E+00  0.00000000000E+00  0.16751493693E+02  0.16751493693E+02  0.00000000000E+00 0.  1.
          1   -1    0    0  502    0  0.00000000000E+00 -0.00000000000E+00 -0.22850749487E+04  0.22850749487E+04  0.00000000000E+00 0. -1.
          6    1    1    2  502    0  0.28488792409E+02  0.59869638400E+01 -0.61306733066E+03  0.63740333145E+03  0.17200000000E+03 0.  1.
         -6    1    1    2    0  501 -0.28488792409E+02 -0.59869638400E+01 -0.16552561243E+04  0.16644231109E+04  0.17200000000E+03 0. -1.
</event>
<event>
 4    1  0.1054668E+000  0.1739047E+03  0.7818608E-02  0.1173836E+00
          2   -1    0    0  502    0  0.00000000000E+00  0.00000000000E+00  0.57851211831E+03  0.57851211831E+03  0.00000000000E+00 0. -1.
         -2   -1    0    0    0  501 -0.00000000000E+00 -0.00000000000E+00 -0.56796113003E+02  0.56796113003E+02  0.00000000000E+00 0.  1.
          6    1    1    2  502    0  0.19264230711E+01  0.25595777538E+02  0.35046123910E+03  0.39123641835E+03  0.17200000000E+03 0. -1.
         -6    1    1    2    0  501 -0.19264230711E+01 -0.25595777538E+02  0.17125476621E+03  0.24407181296E+03  0.17200000000E+03 0.  1.
</event>
<event>
 4    1  0.1054668E+000  0.2521717E+03  0.7818608E-02  0.1111940E+00
          1   -1    0    0  502    0  0.00000000000E+00  0.00000000000E+00  0.12276197012E+03  0.12276197012E+03  0.00000000000E+00 0.  1.
         -1   -1    0    0    0  501 -0.00000000000E+00 -0.00000000000E+00 -0.57627225156E+03  0.57627225156E+03  0.00000000000E+00 0. -1.
          6    1    1    2  502    0 -0.98706715449E+02  0.15576766175E+03 -0.33789993898E+03  0.42162417967E+03  0.17200000000E+03 0.  1.
         -6    1    1    2    0  501  0.98706715449E+02 -0.15576766175E+03 -0.11561034246E+03  0.27741004201E+03  0.17200000000E+03 0.  1.
</event>
<event>
 4    1  0.1054668E+000  0.2362734E+03  0.7818608E-02  0.1122301E+00
         -2   -1    0    0    0  501 -0.00000000000E+00  0.00000000000E+00  0.29158529539E+02  0.29158529539E+02  0.00000000000E+00 0.  1.
          2   -1    0    0  502    0  0.00000000000E+00 -0.00000000000E+00 -0.22359250900E+04  0.22359250900E+04  0.00000000000E+00 0. -1.
          6    1    1    2  502    0 -0.16196996722E+03 -0.26156550786E+01 -0.15327613441E+04  0.15508650651E+04  0.17200000000E+03 0. -1.
         -6    1    1    2    0  501  0.16196996722E+03  0.26156550786E+01 -0.67400521629E+03  0.71421855445E+03  0.17200000000E+03 0.  1.
</event>
<event>
 4    1  0.1054668E+000  0.3719101E+03  0.7818608E-02  0.1053965E+00
          2   -1    0    0  502    0  0.00000000000E+00  0.00000000000E+00  0.29009162796E+03  0.29009162796E+03  0.00000000000E+00 0. -1.
         -2   -1    0    0    0  501 -0.00000000000E+00 -0.00000000000E+00 -0.54775123516E+03  0.54775123516E+03  0.00000000000E+00 0.  1.
          6    1    1    2  502    0  0.32616872323E+03 -0.48446667665E+02  0.21937030877E+02  0.37255650436E+03  0.17200000000E+03 0. -1.
         -6    1    1    2    0  501 -0.32616872323E+03  0.48446667665E+02 -0.27959663808E+03  0.46528635876E+03  0.17200000000E+03 0.  1.
</event>
<event>
 4    1  0.1054668E+000  0.3981304E+03  0.7818608E-02  0.1044429E+00
         -2   -1    0    0    0  501 -0.00000000000E+00  0.00000000000E+00  0.44215866255E+03  0.44215866255E+03  0.00000000000E+00 0. -1.
          2   -1    0    0  502    0  0.00000000000E+00 -0.00000000000E+00 -0.49851653086E+03  0.49851653086E+03  0.00000000000E+00 0.  1.
          6    1    1    2  502    0  0.59671560742E+02  0.35406656700E+03 -0.27745512216E+03  0.48527226775E+03  0.17200000000E+03 0.  1.
         -6    1    1    2    0  501 -0.59671560742E+02 -0.35406656700E+03  0.22109725385E+03  0.45540292565E+03  0.17200000000E+03 0. -1.
</event>
<event>
 4    1  0.1054668E+000  0.1766163E+03  0.7818608E-02  0.1171119E+00
          1   -1    0    0  502    0  0.00000000000E+00  0.00000000000E+00  0.59093418828E+02  0.59093418828E+02  0.00000000000E+00 0.  1.
         -1   -1    0    0    0  501 -0.00000000000E+00 -0.00000000000E+00 -0.57135517880E+03  0.57135517880E+03  0.00000000000E+00 0. -1.
          6    1    1    2  502    0  0.39968214808E+02  0.34428763820E+01 -0.16916172783E+03  0.24455878998E+03  0.17200000000E+03 0.  1.
         -6    1    1    2    0  501 -0.39968214808E+02 -0.34428763820E+01 -0.34310003214E+03  0.38588980765E+03  0.17200000000E+03 0. -1.
</event>
<event>
 4    1  0.1054668E+000  0.2196118E+03  0.7818608E-02  0.1134173E+00
          1   -1    0    0  502    0  0.00000000000E+00  0.00000000000E+00  0.15408533235E+03  0.15408533235E+03  0.00000000000E+00 0.  1.
         -1   -1    0    0    0  501 -0.00000000000E+00 -0.00000000000E+00 -0.33410262980E+03  0.33410262980E+03  0.00000000000E+00 0. -1.
          6    1    1    2  502    0 -0.88645464432E+01 -0.13625998111E+03 -0.28668932815E+02  0.22147521384E+03  0.17200000000E+03 0. -1.
         -6    1    1    2    0  501  0.88645464432E+01  0.13625998111E+03 -0.15134836464E+03  0.26671274831E+03  0.17200000000E+03 0. -1.
</event>
<event>
 4    1  0.1054668E+000  0.1754591E+03  0.7818608E-02  0.1172272E+00
          2   -1    0    0  502    0  0.00000000000E+00  0.00000000000E+00  0.79448352013E+02  0.79448352013E+02  0.00000000000E+00 0. -1.
         -2   -1    0    0    0  501 -0.00000000000E+00 -0.00000000000E+00 -0.41997253568E+03  0.41997253568E+03  0.00000000000E+00 0.  1.
          6    1    1    2  502    0  0.12621493999E+02  0.32289357340E+02 -0.10082168132E+03  0.20236332705E+03  0.17200000000E+03 0. -1.
         -6    1    1    2    0  501 -0.12621493999E+02 -0.32289357340E+02 -0.23970250234E+03  0.29705756065E+03  0.17200000000E+03 0.  1.
</event>
<event>
 4    1  0.1054668E+000  0.2233040E+03  0.7818608E-02  0.1131443E+00
          4   -1    0    0  502    0  0.00000000000E+00  0.00000000000E+00  0.24924213771E+02  0.24924213771E+02  0.00000000000E+00 0.  1.
         -4   -1    0    0    0  501 -0.00000000000E+00 -0.00000000000E+00 -0.20301660355E+04  0.20301660355E+04  0.00000000000E+00 0. -1.
          6    1    1    2  502    0  0.13823369067E+03  0.34236579864E+02 -0.11265131090E+04  0.11484321841E+04  0.17200000000E+03 0. -1.
         -6    1    1    2    0  501 -0.13823369067E+03 -0.34236579864E+02 -0.87872871272E+03  0.90665806520E+03  0.17200000000E+03 0.  1.
</event>
<event>
 4    1  0.1054668E+000  0.2292742E+03  0.7818608E-02  0.1127152E+00
         -2   -1    0    0    0  501 -0.00000000000E+00  0.00000000000E+00  0.23959838457E+03  0.23959838457E+03  0.00000000000E+00 0.  1.
          2   -1    0    0  502    0  0.00000000000E+00 -0.00000000000E+00 -0.22023741257E+03  0.22023741257E+03  0.00000000000E+00 0. -1.
          6    1    1    2  502    0 -0.76038713488E+02 -0.13115179870E+03 -0.45394466327E+01  0.22931918112E+03  0.17200000000E+03 0.  1.
         -6    1    1    2    0  501  0.76038713488E+02  0.13115179870E+03  0.23900418634E+02  0.23051661602E+03  0.17200000000E+03 0. -1.
</event>
<event>
 4    1  0.1054668E+000  0.1826242E+03  0.7818608E-02  0.1165287E+00
          1   -1    0    0  502    0  0.00000000000E+00  0.00000000000E+00  0.90254311268E+03  0.90254311268E+03  0.00000000000E+00 0.  1.
         -1   -1    0    0    0  501 -0.00000000000E+00 -0.00000000000E+00 -0.37576868274E+02  0.37576868274E+02  0.00000000000E+00 0. -1.
          6    1    1    2  502    0  0.49943147493E+02 -0.35683073814E+02  0.37191156803E+03  0.41433056147E+03  0.17200000000E+03 0. -1.
         -6    1    1    2    0  501 -0.49943147493E+02  0.35683073814E+02  0.49305467638E+03  0.52578941948E+03  0.17200000000E+03 0. -1.
</event>
<event>
 4    1  0.1054668E+000  0.1813512E+03  0.7818608E-02  0.1166502E+00
          2   -1    0    0  502    0  0.00000000000E+00  0.00000000000E+00  0.17281423236E+04  0.17281423236E+04  0.00000000000E+00 0. -1.
         -2   -1    0    0    0  501 -0.00000000000E+00 -0.00000000000E+00 -0.20490706401E+02  0.20490706401E+02  0.00000000000E+00 0.  1.
          6    1    1    2  502    0  0.18748316723E+02  0.54339132742E+02  0.10871856158E+04  0.11022072418E+04  0.17200000000E+03 0.  1.
         -6    1    1    2    0  501 -0.18748316723E+02 -0.54339132742E+02  0.62046600141E+03  0.64642578819E+03  0.17200000000E+03 0.  1.
</event>
<event>
 4    1  0.1054668E+000  0.1789828E+03  0.7818608E-02  0.1168791E+00
         -2   -1    0    0    0  501 -0.00000000000E+00  0.00000000000E+00  0.11930683913E+02  0.11930683913E+02  0.00000000000E+00 0. -1.
          2   -1    0    0  502    0  0.00000000000E+00 -0.00000000000E+00 -0.27625286485E+04  0.27625286485E+04  0.00000000000E+00 0.  1.
          6    1    1    2  502    0 -0.23402161673E+02  0.43625616795E+02 -0.16075718085E+04  0.16175048609E+04  0.17200000000E+03 0. -1.
         -6    1    1    2    0  501  0.23402161673E+02 -0.43625616795E+02 -0.11430261561E+04  0.11569544715E+04  0.17200000000E+03 0. -1.
</event>
<event>
 4    1  0.1054668E+000  0.2663957E+03  0.7818608E-02  0.1103360E+00
          1   -1    0    0  502    0  0.00000000000E+00  0.00000000000E+00  0.57880787381E+03  0.57880787381E+03  0.00000000000E+00 0.  1.
         -1   -1    0    0    0  501 -0.00000000000E+00 -0.00000000000E+00 -0.34244770658E+03  0.34244770658E+03  0.00000000000E+00 0. -1.
          6    1    1    2  502    0 -0.19959875062E+03  0.39281415365E+02 -0.25088733373E+03  0.36593871765E+03  0.17200000000E+03 0. -1.
         -6    1    1    2    0  501  0.19959875062E+03 -0.39281415365E+02  0.48724750097E+03  0.55531686274E+03  0.17200000000E+03 0.  1.
</event>
<event>
 4    1  0.1054668E+000  0.2135957E+03  0.7818608E-02  0.1138750E+00
          1   -1    0    0  502    0  0.00000000000E+00  0.00000000000E+00  0.65630002013E+02  0.65630002013E+02  0.00000000000E+00 0.  1.
         -1   -1    0    0    0  501 -0.00000000000E+00 -0.00000000000E+00 -0.70301323405E+03  0.70301323405E+03  0.00000000000E+00 0. -1.
          6    1    1    2  502    0 -0.45733331190E+00  0.12664491216E+03 -0.27806361230E+03  0.35063159501E+03  0.17200000000E+03 0.  1.
         -6    1    1    2    0  501  0.45733331190E+00 -0.12664491216E+03 -0.35931961973E+03  0.41801164105E+03  0.17200000000E+03 0. -1.
</event>
<event>
 4    1  0.1054668E+000  0.1730403E+03  0.7818608E-02  0.1174714E+00
          2   -1    0    0  502    0  0.00000000000E+00  0.00000000000E+00  0.11379877523E+04  0.11379877523E+04  0.00000000000E+00 0. -1.
         -2   -1    0    0    0  501 -0.00000000000E+00 -0.00000000000E+00 -0.59141351546E+02  0.59141351546E+02  0.00000000000E+00 0.  1.
          6    1    1    2  502    0  0.18817522783E+02  0.22041818902E+01  0.98538249743E+03  0.10004607058E+04  0.17200000000E+03 0. -1.
         -6    1    1    2    0  501 -0.18817522783E+02 -0.22041818902E+01  0.93463903377E+02  0.19666839811E+03  0.17200000000E+03 0.  1.
</event>
<event>
 4    1  0.1054668E+000  0.1745715E+03  0.7818608E-02  0.1173163E+00
          3   -1    0    0  502    0  0.00000000000E+00  0.00000000000E+00  0.27081730928E+03  0.27081730928E+03  0.00000000000E+00 0.  1.
         -3   -1    0    0    0  501 -0.00000000000E+00 -0.00000000000E+00 -0.11797247077E+03  0.11797247077E+03  0.00000000000E+00 0. -1.
          6    1    1    2  502    0  0.18985751006E+02 -0.23038097667E+02  0.34670946024E+02  0.17798114278E+03  0.17200000000E+03 0. -1.
         -6    1    1    2    0  501 -0.18985751006E+02  0.23038097667E+02  0.11817389249E+03  0.21080863728E+03  0.17200000000E+03 0.  1.
</event>
<event>
 4    1  0.1054668E+000  0.2114093E+03  0.7818608E-02  0.1140455E+00
          2   -1    0    0  502    0  0.00000000000E+00  0.00000000000E+00  0.20059976322E+04  0.20059976322E+04  0.00000000000E+00 0. -1.
         -2   -1    0    0    0  501 -0.00000000000E+00 -0.00000000000E+00 -0.22281251363E+02  0.22281251363E+02  0.00000000000E+00 0.  1.
          6    1    1    2  502    0  0.79521941675E+02 -0.93734451500E+02  0.98466141288E+03  0.10071007818E+04  0.17200000000E+03 0. -1.
         -6    1    1    2    0  501 -0.79521941675E+02  0.93734451500E+02  0.99905496798E+03  0.10211781018E+04  0.17200000000E+03 0.  1.
</event>
<event>
 4    1  0.1054668E+000  0.1768046E+03  0.7818608E-02  0.1170932E+00
         -2   -1    0    0    0  501 -0.00000000000E+00  0.00000000000E+00  0.15765504825E+02  0.15765504825E+02  0.00000000000E+00 0. -1.
          2   -1    0    0  502    0  0.00000000000E+00 -0.00000000000E+00 -0.33305810899E+04  0.33305810899E+04  0.00000000000E+00 0.  1.
          6    1    1    2  502    0 -0.15604831556E+02 -0.37846461356E+02 -0.27217722631E+04  0.27275087750E+04  0.17200000000E+03 0.  1.
         -6    1    1    2    0  501  0.15604831556E+02  0.37846461356E+02 -0.59304332191E+03  0.61883781968E+03  0.17200000000E+03 0. -1.
</event>
<event>
 4    1  0.1054668E+000  0.1925865E+03  0.7818608E-02  0.1156149E+00
         -1   -1    0    0    0  501 -0.00000000000E+00  0.00000000000E+00  0.10254890352E+03  0.10254890352E+03  0.00000000000E+00 0. -1.
          1   -1    0    0  502    0  0.00000000000E+00 -0.00000000000E+00 -0.36358428723E+03  0.36358428723E+03  0.00000000000E+00 0.  1.
          6    1    1    2  502    0  0.16890766500E+02 -0.84972103610E+02 -0.14739920996E+03  0.24252027437E+03  0.17200000000E+03 0.  1.
         -6    1    1    2    0  501 -0.16890766500E+02  0.84972103610E+02 -0.11363617375E+03  0.22361291638E+03  0.17200000000E+03 0. -1.
</event>
<event>
 4    1  0.1054668E+000  0.3060201E+03  0.7818608E-02  0.1082269E+00
         -1   -1    0    0    0  501 -0.00000000000E+00  0.00000000000E+00  0.28362698349E+03  0.28362698349E+03  0.00000000000E+00 0.  1.
          1   -1    0    0  502    0  0.00000000000E+00 -0.00000000000E+00 -0.40652937634E+03  0.40652937634E+03  0.00000000000E+00 0. -1.
          6    1    1    2  502    0 -0.15533531244E+03  0.19983810704E+03 -0.21099573581E+03  0.37170893028E+03  0.17200000000E+03 0.  1.
         -6    1    1    2    0  501  0.15533531244E+03 -0.19983810704E+03  0.88093342957E+02  0.31844742956E+03  0.17200000000E+03 0.  1.
</event>
<event>
 4    1  0.1054668E+000  0.1767799E+03  0.7818608E-02  0.1170956E+00
          2   -1    0    0  502    0  0.00000000000E+00  0.00000000000E+00  0.13614457299E+04  0.13614457299E+04  0.00000000000E+00 0.  1.
         -2   -1    0    0    0  501 -0.00000000000E+00 -0.00000000000E+00 -0.23451490641E+02  0.23451490641E+02  0.00000000000E+00 0. -1.
          6    1    1    2  502    0  0.59058074455E+01  0.40401332392E+02  0.76981271060E+03  0.78984983106E+03  0.17200000000E+03 0.  1.
         -6    1    1    2    0  501 -0.59058074455E+01 -0.40401332392E+02  0.56818152864E+03  0.59504738946E+03  0.17200000000E+03 0.  1.
</event>
<event>
 4    1  0.1054668E+000  0.2158352E+03  0.7818608E-02  0.1137027E+00
         -1   -1    0    0    0  501 -0.00000000000E+00  0.00000000000E+00  0.47420612491E+02  0.47420612491E+02  0.00000000000E+00 0. -1.
          1   -1    0    0  502    0  0.00000000000E+00 -0.00000000000E+00 -0.13411556729E+04  0.13411556729E+04  0.00000000000E+00 0.  1.
          6    1    1    2  502    0 -0.38246423914E+02  0.12465165929E+03 -0.28776814531E+03  0.35971562457E+03  0.17200000000E+03 0.  1.
         -6    1    1    2    0  501  0.38246423914E+02 -0.12465165929E+03 -0.10059669151E+04  0.10288606609E+04  0.17200000000E+03 0.  1.
</event>
<event>
 4    1  0.1054668E+000  0.2785704E+03  0.7818608E-02  0.1096472E+00
          2   -1    0    0  502    0  0.00000000000E+00  0.00000000000E+00  0.94889058416E+03  0.94889058416E+03  0.00000000000E+00 0.  1.
         -2   -1    0    0    0  501 -0.00000000000E+00 -0.00000000000E+00 -0.85406035988E+02  0.85406035988E+02  0.00000000000E+00 0. -1.
          6    1    1    2  502    0  0.64880504833E+01  0.21903283186E+03  0.32520272197E+03  0.42820355745E+03  0.17200000000E+03 0. -1.
         -6    1    1    2    0  501 -0.64880504833E+01 -0.21903283186E+03  0.53828182620E+03  0.60609306270E+03  0.17200000000E+03 0.  1.
</event>
<event>
 4    1  0.1054668E+000  0.1754496E+03  0.7818608E-02  0.1172281E+00
          2   -1    0    0  502    0  0.00000000000E+00  0.00000000000E+00  0.31645702364E+03  0.31645702364E+03  0.00000000000E+00 0.  1.
         -2   -1    0    0    0  501 -0.00000000000E+00 -0.00000000000E+00 -0.14998822999E+03  0.14998822999E+03  0.00000000000E+00 0. -1.
          6    1    1    2  502    0  0.31941192940E+02  0.13353976769E+02 -0.55030575225E+02  0.18387749376E+03  0.17200000000E+03 0. -1.
         -6    1    1    2    0  501 -0.31941192940E+02 -0.13353976769E+02  0.22149936888E+03  0.28256775987E+03  0.17200000000E+03 0.  1.
</event>
<event>
 4    1  0.1054668E+000  0.1952358E+03  0.7818608E-02  0.1153822E+00
         -2   -1    0    0    0  501 -0.00000000000E+00  0.00000000000E+00  0.84122905183E+02  0.84122905183E+02  0.00000000000E+00 0.  1.
          2   -1    0    0  502    0  0.00000000000E+00 -0.00000000000E+00 -0.45866706519E+03  0.45866706519E+03  0.00000000000E+00 0. -1.
          6    1    1    2  502    0 -0.12564276816E+02 -0.91515856584E+02 -0.21714220227E+03  0.29200641956E+03  0.17200000000E+03 0. -1.
         -6    1    1    2    0  501  0.12564276816E+02  0.91515856584E+02 -0.15740195774E+03  0.25078355081E+03  0.17200000000E+03 0.  1.
</event>
<event>
 4    1  0.1054668E+000  0.2169725E+03  0.7818608E-02  0.1136161E+00
          2   -1    0    0  502    0  0.00000000000E+00  0.00000000000E+00  0.22053200146E+04  0.22053200146E+04  0.00000000000E+00 0.  1.
         -2   -1    0    0    0  501 -0.00000000000E+00 -0.00000000000E+00 -0.21871769915E+02  0.21871769915E+02  0.00000000000E+00 0. -1.
          6    1    1    2  502    0 -0.84061102918E+02 -0.10211162149E+03  0.91923806357E+03  0.94449757532E+03  0.17200000000E+03 0.  1.
         -6    1    1    2    0  501  0.84061102918E+02  0.10211162149E+03  0.12642101811E+04  0.12826942092E+04  0.17200000000E+03 0.  1.
</event>
<event>
 4    1  0.1054668E+000  0.1760454E+03  0.7818608E-02  0.1171686E+00
          2   -1    0    0  502    0  0.00000000000E+00  0.00000000000E+00  0.62522601478E+03  0.62522601478E+03  0.00000000000E+00 0.  1.
         -2   -1    0    0    0  501 -0.00000000000E+00 -0.00000000000E+00 -0.50673997828E+02  0.50673997828E+02  0.00000000000E+00 0. -1.
          6    1    1    2  502    0  0.33074034428E+01  0.37376943139E+02  0.23737669787E+03  0.29553286025E+03  0.17200000000E+03 0.  1.
         -6    1    1    2    0  501 -0.33074034428E+01 -0.37376943139E+02  0.33717531908E+03  0.38036715236E+03  0.17200000000E+03 0.  1.
</event>
<event>
 4    1  0.1054668E+000  0.3710722E+03  0.7818608E-02  0.1054284E+00
          1   -1    0    0  502    0  0.00000000000E+00  0.00000000000E+00  0.82793729634E+03  0.82793729634E+03  0.00000000000E+00 0. -1.
         -1   -1    0    0    0  501 -0.00000000000E+00 -0.00000000000E+00 -0.17847593108E+03  0.17847593108E+03  0.00000000000E+00 0.  1.
          6    1    1    2  502    0 -0.48398173052E+02  0.32522027979E+03  0.45610830222E+03  0.58798758226E+03  0.17200000000E+03 0. -1.
         -6    1    1    2    0  501  0.48398173052E+02 -0.32522027979E+03  0.19335306304E+03  0.41842564516E+03  0.17200000000E+03 0.  1.
</event>
<event>
 4    1  0.1054668E+000  0.1926911E+03  0.7818608E-02  0.1156056E+00
         -1   -1    0    0    0  501 -0.00000000000E+00  0.00000000000E+00  0.53404850905E+02  0.53404850905E+02  0.00000000000E+00 0.  1.
          1   -1    0    0  502    0  0.00000000000E+00 -0.00000000000E+00 -0.69663555257E+03  0.69663555257E+03  0.00000000000E+00 0. -1.
          6    1    1    2  502    0  0.81740716286E+02  0.29399254155E+02 -0.33832461227E+03  0.38934997638E+03  0.17200000000E+03 0. -1.
         -6    1    1    2    0  501 -0.81740716286E+02 -0.29399254155E+02 -0.30490608940E+03  0.36069042709E+03  0.17200000000E+03 0. -1.
</event>
<event>
 4    1  0.1054668E+000  0.2563715E+03  0.7818608E-02  0.1109343E+00
         -2   -1    0    0    0  501 -0.00000000000E+00  0.00000000000E+00  0.36658053228E+02  0.36658053228E+02  0.00000000000E+00 0.  1.
          2   -1    0    0  502    0  0.00000000000E+00 -0.00000000000E+00 -0.20937838894E+04  0.20937838894E+04  0.00000000000E+00 0. -1.
          6    1    1    2  502    0 -0.12678719319E+03 -0.14165921190E+03 -0.14323309031E+04  0.14550938598E+04  0.17200000000E+03 0.  1.
         -6    1    1    2    0  501  0.12678719319E+03  0.14165921190E+03 -0.62479493305E+03  0.67534808287E+03  0.17200000000E+03 0.  1.
</event>
<event>
 4    1  0.1054668E+000  0.1790996E+03  0.7818608E-02  0.1168677E+00
         -2   -1    0    0    0  501 -0.00000000000E+00  0.00000000000E+00  0.12887053400E+02  0.12887053400E+02  0.00000000000E+00 0. -1.
          2   -1    0    0  502    0  0.00000000000E+00 -0.00000000000E+00 -0.24894731866E+04  0.24894731866E+04  0.00000000000E+00 0.  1.
          6    1    1    2  502    0  0.46664565074E+02  0.17750296786E+02 -0.12221824032E+04  0.12352353951E+04  0.17200000000E+03 0. -1.
         -6    1    1    2    0  501 -0.46664565074E+02 -0.17750296786E+02 -0.12544037300E+04  0.12671248449E+04  0.17200000000E+03 0. -1.
</event>
<event>
 4    1  0.1054668E+000  0.2042856E+03  0.7818608E-02  0.1146173E+00
         -1   -1    0    0    0  501 -0.00000000000E+00  0.00000000000E+00  0.87935464276E+02  0.87935464276E+02  0.00000000000E+00 0.  1.
          1   -1    0    0  502    0  0.00000000000E+00 -0.00000000000E+00 -0.77724278542E+03  0.77724278542E+03  0.00000000000E+00 0. -1.
          6    1    1    2  502    0 -0.10926214666E+03 -0.14504710447E+02 -0.61459860852E+03  0.64766044569E+03  0.17200000000E+03 0. -1.
         -6    1    1    2    0  501  0.10926214666E+03  0.14504710447E+02 -0.74708712623E+02  0.21751780400E+03  0.17200000000E+03 0.  1.
</event>
<event>
 4    1  0.1054668E+000  0.1849130E+03  0.7818608E-02  0.1163131E+00
          2   -1    0    0  502    0  0.00000000000E+00  0.00000000000E+00  0.19690616298E+04  0.19690616298E+04  0.00000000000E+00 0.  1.
         -2   -1    0    0    0  501 -0.00000000000E+00 -0.00000000000E+00 -0.27675070197E+02  0.27675070197E+02  0.00000000000E+00 0. -1.
          6    1    1    2  502    0  0.63553802314E+02 -0.23869257294E+02  0.36132971987E+03  0.40589653078E+03  0.17200000000E+03 0. -1.
         -6    1    1    2    0  501 -0.63553802314E+02  0.23869257294E+02  0.15800568397E+04  0.15908401692E+04  0.17200000000E+03 0.  1.
</event>
<event>
 4    1  0.1054668E+000  0.1928788E+03  0.7818608E-02  0.1155890E+00
         -2   -1    0    0    0  501 -0.00000000000E+00  0.00000000000E+00  0.12181485063E+02  0.12181485063E+02  0.00000000000E+00 0. -1.
          2   -1    0    0  502    0  0.00000000000E+00 -0.00000000000E+00 -0.30657345555E+04  0.30657345555E+04  0.00000000000E+00 0.  1.
          6    1    1    2  502    0 -0.37486841034E+02 -0.78822403138E+02 -0.14315573281E+04  0.14444925123E+04  0.17200000000E+03 0. -1.
         -6    1    1    2    0  501  0.37486841034E+02  0.78822403138E+02 -0.16219957424E+04  0.16334235283E+04  0.17200000000E+03 0.  1.
</event>
<event>
 4    1  0.1054668E+000  0.1801758E+03  0.7818608E-02  0.1167633E+00
         -1   -1    0    0    0  501 -0.00000000000E+00  0.00000000000E+00  0.30860208161E+03  0.30860208161E+03  0.00000000000E+00 0.  1.
          1   -1    0    0  502    0  0.00000000000E+00 -0.00000000000E+00 -0.10538222691E+03  0.10538222691E+03  0.00000000000E+00 0. -1.
          6    1    1    2  502    0  0.27217197792E+02  0.46244239699E+02  0.92878326752E+02  0.20270591787E+03  0.17200000000E+03 0. -1.
         -6    1    1    2    0  501 -0.27217197792E+02 -0.46244239699E+02  0.11034152795E+03  0.21127839064E+03  0.17200000000E+03 0. -1.
</event>
<event>
 4    1  0.1054668E+000  0.2663541E+03  0.7818608E-02  0.1103385E+00
         -2   -1    0    0    0  501 -0.00000000000E+00  0.00000000000E+00  0.45460534944E+02  0.45460534944E+02  0.00000000000E+00 0.  1.
          2   -1    0    0  502    0  0.00000000000E+00 -0.00000000000E+00 -0.18196447590E+04  0.18196447590E+04  0.00000000000E+00 0. -1.
          6    1    1    2  502    0 -0.17216767640E+03 -0.10825345392E+03 -0.53521628522E+03  0.59783023598E+03  0.17200000000E+03 0.  1.
         -6    1    1    2    0  501  0.17216767640E+03  0.10825345392E+03 -0.12389679388E+04  0.12672750580E+04  0.17200000000E+03 0. -1.
</event>
<event>
 4    1  0.1054668E+000  0.2181633E+03  0.7818608E-02  0.1135260E+00
         -2   -1    0    0    0  501 -0.00000000000E+00  0.00000000000E+00  0.45353766856E+02  0.45353766856E+02  0.00000000000E+00 0. -1.
          2   -1    0    0  502    0  0.00000000000E+00 -0.00000000000E+00 -0.12223457633E+04  0.12223457633E+04  0.00000000000E+00 0.  1.
          6    1    1    2  502    0 -0.13326724343E+03  0.15845444194E+02 -0.82690176717E+03  0.85519691815E+03  0.17200000000E+03 0.  1.
         -6    1    1    2    0  501  0.13326724343E+03 -0.15845444194E+02 -0.35009022927E+03  0.41250261200E+03  0.17200000000E+03 0.  1.
</event>
<event>
 4    1  0.1054668E+000  0.1738215E+03  0.7818608E-02  0.1173920E+00
         -1   -1    0    0    0  501 -0.00000000000E+00  0.00000000000E+00  0.65290896802E+02  0.65290896802E+02  0.00000000000E+00 0. -1.
          1   -1    0    0  502    0  0.00000000000E+00 -0.00000000000E+00 -0.53795303092E+03  0.53795303092E+03  0.00000000000E+00 0.  1.
          6    1    1    2  502    0 -0.10527934823E+01  0.25075884092E+02 -0.34909866120E+03  0.38997920918E+03  0.17200000000E+03 0.  1.
         -6    1    1    2    0  501  0.10527934823E+01 -0.25075884092E+02 -0.12356347291E+03  0.21326471854E+03  0.17200000000E+03 0. -1.
</event>
<event>
 4    1  0.1054668E+000  0.1730837E+03  0.7818608E-02  0.1174670E+00
         -1   -1    0    0    0  501 -0.00000000000E+00  0.00000000000E+00  0.22231971931E+03  0.22231971931E+03  0.00000000000E+00 0.  1.
          1   -1    0    0  502    0  0.00000000000E+00 -0.00000000000E+00 -0.16292659836E+03  0.16292659836E+03  0.00000000000E+00 0. -1.
          6    1    1    2  502    0  0.14070153177E+02 -0.13266494860E+02  0.10979856298E+03  0.20497242139E+03  0.17200000000E+03 0.  1.
         -6    1    1    2    0  501 -0.14070153177E+02  0.13266494860E+02 -0.50405442029E+02  0.18027389629E+03  0.17200000000E+03 0. -1.
</event>
<event>
 4    1  0.1054668E+000  0.2098625E+03  0.7818608E-02  0.1141675E+00
         -1   -1    0    0    0  501 -0.00000000000E+00  0.00000000000E+00  0.46007996611E+03  0.46007996611E+03  0.00000000000E+00 0. -1.
          1   -1    0    0  502    0  0.00000000000E+00 -0.00000000000E+00 -0.96716086370E+02  0.96716086370E+02  0.00000000000E+00 0.  1.
          6    1    1    2  502    0 -0.11936536591E+03 -0.14497611080E+02  0.15353441777E+03  0.26002901520E+03  0.17200000000E+03 0. -1.
         -6    1    1    2    0  501  0.11936536591E+03  0.14497611080E+02  0.20982946197E+03  0.29676703728E+03  0.17200000000E+03 0. -1.
</event>
<event>
 4    1  0.1054668E+000  0.3371155E+03  0.7818608E-02  0.1068031E+00
          2   -1    0    0  502    0  0.00000000000E+00  0.00000000000E+00  0.74760019062E+03  0.74760019062E+03  0.00000000000E+00 0.  1.
         -2   -1    0    0    0  501 -0.00000000000E+00 -0.00000000000E+00 -0.15239570244E+03  0.15239570244E+03  0.00000000000E+00 0. -1.
          6    1    1    2  502    0 -0.28936889903E+03 -0.18124550950E+02  0.32007722373E+03  0.46486157964E+03  0.17200000000E+03 0.  1.
         -6    1    1    2    0  501  0.28936889903E+03  0.18124550950E+02  0.27512726444E+03  0.43513431342E+03  0.17200000000E+03 0. -1.
</event>
<event>
 4    1  0.1054668E+000  0.2361550E+03  0.7818608E-02  0.1122381E+00
         -2   -1    0    0    0  501 -0.00000000000E+00  0.00000000000E+00  0.46183507252E+02  0.46183507252E+02  0.00000000000E+00 0.  1.
          2   -1    0    0  502    0  0.00000000000E+00 -0.00000000000E+00 -0.12194979059E+04  0.12194979059E+04  0.00000000000E+00 0. -1.
          6    1    1    2  502    0 -0.16107883458E+03 -0.15452233355E+02 -0.64928168488E+03  0.69089497667E+03  0.17200000000E+03 0. -1.
         -6    1    1    2    0  501  0.16107883458E+03  0.15452233355E+02 -0.52403271374E+03  0.57478643646E+03  0.17200000000E+03 0. -1.
</event>
<event>
 4    1  0.1054668E+000  0.1939708E+03  0.7818608E-02  0.1154928E+00
         -2   -1    0    0    0  501 -0.00000000000E+00  0.00000000000E+00  0.76433676887E+02  0.76433676887E+02  0.00000000000E+00 0.  1.
          2   -1    0    0  502    0  0.00000000000E+00 -0.00000000000E+00 -0.49307423398E+03  0.49307423398E+03  0.00000000000E+00 0. -1.
          6    1    1    2  502    0 -0.62049679141E+02 -0.64734055464E+02 -0.21994564340E+03  0.29325883903E+03  0.17200000000E+03 0. -1.
         -6    1    1    2    0  501  0.62049679141E+02  0.64734055464E+02 -0.19669491369E+03  0.27624907184E+03  0.17200000000E+03 0. -1.
</event>
<event>
 4    1  0.1054668E+000  0.1957182E+03  0.7818608E-02  0.1153403E+00
          2   -1    0    0  502    0  0.00000000000E+00  0.00000000000E+00  0.93521100464E+03  0.93521100464E+03  0.00000000000E+00 0.  1.
         -2   -1    0    0    0  501 -0.00000000000E+00 -0.00000000000E+00 -0.53000653708E+02  0.53000653708E+02  0.00000000000E+00 0. -1.
          6    1    1    2  502    0 -0.93323320675E+02 -0.35171261138E+01  0.67661908051E+03  0.70435714838E+03  0.17200000000E+03 0.  1.
         -6    1    1    2    0  501  0.93323320675E+02  0.35171261138E+01  0.20559127042E+03  0.28385450997E+03  0.17200000000E+03 0. -1.
</event>
<event>
 4    1  0.1054668E+000  0.2456927E+03  0.7818608E-02  0.1116058E+00
         -2   -1    0    0    0  501 -0.00000000000E+00  0.00000000000E+00  0.32028761116E+03  0.32028761116E+03  0.00000000000E+00 0. -1.
          2   -1    0    0  502    0  0.00000000000E+00 -0.00000000000E+00 -0.19710529019E+03  0.19710529019E+03  0.00000000000E+00 0.  1.
          6    1    1    2  502    0  0.16190551557E+03  0.67583484491E+02  0.11573572772E+03  0.27158733774E+03  0.17200000000E+03 0. -1.
         -6    1    1    2    0  501 -0.16190551557E+03 -0.67583484491E+02  0.74465932470E+01  0.24580556361E+03  0.17200000000E+03 0. -1.
</event>
<event>
 4    1  0.1054668E+000  0.2349451E+03  0.7818608E-02  0.1123207E+00
         -1   -1    0    0    0  501 -0.00000000000E+00  0.00000000000E+00  0.67009055443E+02  0.67009055443E+02  0.00000000000E+00 0.  1.
          1   -1    0    0  502    0  0.00000000000E+00 -0.00000000000E+00 -0.93197990754E+03  0.93197990754E+03  0.00000000000E+00 0. -1.
          6    1    1    2  502    0 -0.15958374007E+02 -0.15924985232E+03 -0.60269611063E+03  0.64687076525E+03  0.17200000000E+03 0. -1.
         -6    1    1    2    0  501  0.15958374007E+02  0.15924985232E+03 -0.26227474147E+03  0.35211819773E+03  0.17200000000E+03 0.  1.
</event>
<event>
 4    1  0.1054668E+000  0.2639944E+03  0.7818608E-02  0.1104767E+00
         -1   -1    0    0    0  501 -0.00000000000E+00  0.00000000000E+00  0.14825730507E+03  0.14825730507E+03  0.00000000000E+00 0.  1.
          1   -1    0    0  502    0  0.00000000000E+00 -0.00000000000E+00 -0.62807175831E+03  0.62807175831E+03  0.00000000000E+00 0. -1.
          6    1    1    2  502    0  0.37763898396E+02  0.19667981395E+03 -0.45225156675E+02  0.26784020615E+03  0.17200000000E+03 0.  1.
         -6    1    1    2    0  501 -0.37763898396E+02 -0.19667981395E+03 -0.43458929656E+03  0.50848885723E+03  0.17200000000E+03 0. -1.
</event>
<event>
 4    1  0.1054668E+000  0.3201596E+03  0.7818608E-02  0.1075576E+00
          3   -1    0    0  502    0  0.00000000000E+00  0.00000000000E+00  0.31612060525E+03  0.31612060525E+03  0.00000000000E+00 0.  1.
         -3   -1    0    0    0  501 -0.00000000000E+00 -0.00000000000E+00 -0.38400166915E+03  0.38400166915E+03  0.00000000000E+00 0. -1.
          6    1    1    2  502    0 -0.17866696457E+03  0.20247534564E+03 -0.17202723584E+03  0.36344947337E+03  0.17200000000E+03 0. -1.
         -6    1    1    2    0  501  0.17866696457E+03 -0.20247534564E+03  0.10414617194E+03  0.33667280103E+03  0.17200000000E+03 0.  1.
</event>
<event>
 4    1  0.1054668E+000  0.1748276E+03  0.7818608E-02  0.1172905E+00
          2   -1    0    0  502    0  0.00000000000E+00  0.00000000000E+00  0.20731710328E+04  0.20731710328E+04  0.00000000000E+00 0. -1.
         -2   -1    0    0    0  501 -0.00000000000E+00 -0.00000000000E+00 -0.17784987626E+02  0.17784987626E+02  0.00000000000E+00 0.  1.
          6    1    1    2  502    0  0.21886025765E+02 -0.22398200003E+02  0.14600771074E+04  0.14705066600E+04  0.17200000000E+03 0. -1.
         -6    1    1    2    0  501 -0.21886025765E+02  0.22398200003E+02  0.59530893779E+03  0.62044936046E+03  0.17200000000E+03 0.  1.
</event>
<event>
 4    1  0.1054668E+000  0.2370874E+03  0.7818608E-02  0.1121748E+00
          2   -1    0    0  502    0  0.00000000000E+00  0.00000000000E+00  0.56028278220E+03  0.56028278220E+03  0.00000000000E+00 0.  1.
         -2   -1    0    0    0  501 -0.00000000000E+00 -0.00000000000E+00 -0.12447132087E+03  0.12447132087E+03  0.00000000000E+00 0. -1.
          6    1    1    2  502    0  0.14574328539E+03  0.73384708111E+02  0.67108046621E+02  0.24640192885E+03  0.17200000000E+03 0. -1.
         -6    1    1    2    0  501 -0.14574328539E+03 -0.73384708111E+02  0.36870341471E+03  0.43835217421E+03  0.17200000000E+03 0.  1.
</event>
<event>
 4    1  0.1054668E+000  0.1814270E+03  0.7818608E-02  0.1166429E+00
          1   -1    0    0  502    0  0.00000000000E+00  0.00000000000E+00  0.74663145377E+03  0.74663145377E+03  0.00000000000E+00 0.  1.
         -1   -1    0    0    0  501 -0.00000000000E+00 -0.00000000000E+00 -0.44472058019E+02  0.44472058019E+02  0.00000000000E+00 0. -1.
          6    1    1    2  502    0  0.54116611877E+02 -0.20078934364E+02  0.38794806574E+03  0.42827499693E+03  0.17200000000E+03 0.  1.
         -6    1    1    2    0  501 -0.54116611877E+02  0.20078934364E+02  0.31421133001E+03  0.36282851486E+03  0.17200000000E+03 0. -1.
</event>
<event>
 4    1  0.1054668E+000  0.1935876E+03  0.7818608E-02  0.1155265E+00
          2   -1    0    0  502    0  0.00000000000E+00  0.00000000000E+00  0.11560645589E+03  0.11560645589E+03  0.00000000000E+00 0. -1.
         -2   -1    0    0    0  501 -0.00000000000E+00 -0.00000000000E+00 -0.35944720487E+03  0.35944720487E+03  0.00000000000E+00 0.  1.
          6    1    1    2  502    0 -0.49981040321E+02  0.73444145878E+02 -0.47508527027E+02  0.19933190185E+03  0.17200000000E+03 0. -1.
         -6    1    1    2    0  501  0.49981040321E+02 -0.73444145878E+02 -0.19633222196E+03  0.27572175890E+03  0.17200000000E+03 0. -1.
</event>
<event>
 4    1  0.1054668E+000  0.2222043E+03  0.7818608E-02  0.1132250E+00
         -1   -1    0    0    0  501 -0.00000000000E+00  0.00000000000E+00  0.11142088360E+03  0.11142088360E+03  0.00000000000E+00 0.  1.
          1   -1    0    0  502    0  0.00000000000E+00 -0.00000000000E+00 -0.63717499210E+03  0.63717499210E+03  0.00000000000E+00 0. -1.
          6    1    1    2  502    0 -0.17874774409E+02 -0.13953946986E+03 -0.46942976822E+03  0.51936410975E+03  0.17200000000E+03 0. -1.
         -6    1    1    2    0  501  0.17874774409E+02  0.13953946986E+03 -0.56324340285E+02  0.22923176594E+03  0.17200000000E+03 0.  1.
</event>
<event>
 4    1  0.1054668E+000  0.1868398E+03  0.7818608E-02  0.1161343E+00
          2   -1    0    0  502    0  0.00000000000E+00  0.00000000000E+00  0.98987952187E+03  0.98987952187E+03  0.00000000000E+00 0.  1.
         -2   -1    0    0    0  501 -0.00000000000E+00 -0.00000000000E+00 -0.37381838371E+02  0.37381838371E+02  0.00000000000E+00 0. -1.
          6    1    1    2  502    0 -0.81597479994E+01 -0.72515604872E+02  0.35405156146E+03  0.40032686971E+03  0.17200000000E+03 0.  1.
         -6    1    1    2    0  501  0.81597479994E+01  0.72515604872E+02  0.59844612203E+03  0.62693449053E+03  0.17200000000E+03 0. -1.
</event>
<event>
 4    1  0.1054668E+000  0.1854761E+03  0.7818608E-02  0.1162606E+00
         -2   -1    0    0    0  501 -0.00000000000E+00  0.00000000000E+00  0.23386102564E+02  0.23386102564E+02  0.00000000000E+00 0. -1.
          2   -1    0    0  502    0  0.00000000000E+00 -0.00000000000E+00 -0.26505573697E+04  0.26505573697E+04  0.00000000000E+00 0.  1.
          6    1    1    2  502    0  0.69403320019E+02  0.75811953281E+00 -0.22054723644E+04  0.22132577224E+04  0.17200000000E+03 0. -1.
         -6    1    1    2    0  501 -0.69403320019E+02 -0.75811953281E+00 -0.42169890279E+03  0.46068574993E+03  0.17200000000E+03 0. -1.
</event>
<event>
 4    1  0.1054668E+000  0.2189309E+03  0.7818608E-02  0.1134683E+00
         -2   -1    0    0    0  501 -0.00000000000E+00  0.00000000000E+00  0.15089292952E+03  0.15089292952E+03  0.00000000000E+00 0.  1.
          2   -1    0    0  502    0  0.00000000000E+00 -0.00000000000E+00 -0.33262698579E+03  0.33262698579E+03  0.00000000000E+00 0. -1.
          6    1    1    2  502    0 -0.65689653710E+01 -0.13529068904E+03 -0.14217181932E+03  0.26104319194E+03  0.17200000000E+03 0. -1.
         -6    1    1    2    0  501  0.65689653710E+01  0.13529068904E+03 -0.39562236943E+02  0.22247672337E+03  0.17200000000E+03 0.  1.
</event>
<event>
 4    1  0.1054668E+000  0.3702071E+03  0.7818608E-02  0.1054614E+00
         -2   -1    0    0    0  501 -0.00000000000E+00  0.00000000000E+00  0.46117204185E+02  0.46117204185E+02  0.00000000000E+00 0.  1.
          2   -1    0    0  502    0  0.00000000000E+00 -0.00000000000E+00 -0.31403363819E+04  0.31403363819E+04  0.00000000000E+00 0. -1.
          6    1    1    2  502    0  0.54784375429E+02  0.32321509878E+03 -0.19161503219E+04  0.19515853514E+04  0.17200000000E+03 0. -1.
         -6    1    1    2    0  501 -0.54784375429E+02 -0.32321509878E+03 -0.11780688558E+04  0.12348682346E+04  0.17200000000E+03 0.  1.
</event>
<event>
 4    1  0.1054668E+000  0.3064102E+03  0.7818608E-02  0.1082079E+00
          1   -1    0    0  502    0  0.00000000000E+00  0.00000000000E+00  0.84646213616E+03  0.84646213616E+03  0.00000000000E+00 0.  1.
         -1   -1    0    0    0  501 -0.00000000000E+00 -0.00000000000E+00 -0.12814148428E+03  0.12814148428E+03  0.00000000000E+00 0. -1.
          6    1    1    2  502    0  0.22108815070E+03 -0.12419037607E+03  0.53781878978E+03  0.61898002434E+03  0.17200000000E+03 0.  1.
         -6    1    1    2    0  501 -0.22108815070E+03  0.12419037607E+03  0.18050186209E+03  0.35562359611E+03  0.17200000000E+03 0. -1.
</event>
<event>
 4    1  0.1054668E+000  0.1905517E+03  0.7818608E-02  0.1157965E+00
         -2   -1    0    0    0  501 -0.00000000000E+00  0.00000000000E+00  0.88878231068E+02  0.88878231068E+02  0.00000000000E+00 0. -1.
          2   -1    0    0  502    0  0.00000000000E+00 -0.00000000000E+00 -0.42883025803E+03  0.42883025803E+03  0.00000000000E+00 0.  1.
          6    1    1    2  502    0 -0.77739402827E+02  0.26125086384E+02 -0.11366389945E+03  0.22187703110E+03  0.17200000000E+03 0. -1.
         -6    1    1    2    0  501  0.77739402827E+02 -0.26125086384E+02 -0.22628812752E+03  0.29583145801E+03  0.17200000000E+03 0. -1.
</event>
<event>
 4    1  0.1054668E+000  0.1909645E+03  0.7818608E-02  0.1157594E+00
          2   -1    0    0  502    0  0.00000000000E+00  0.00000000000E+00  0.63700028998E+03  0.63700028998E+03  0.00000000000E+00 0. -1.
         -2   -1    0    0    0  501 -0.00000000000E+00 -0.00000000000E+00 -0.58502573682E+02  0.58502573682E+02  0.00000000000E+00 0.  1.
          6    1    1    2  502    0  0.54097784636E+02 -0.62903656980E+02  0.23833830361E+03  0.30540561116E+03  0.17200000000E+03 0. -1.
         -6    1    1    2    0  501 -0.54097784636E+02  0.62903656980E+02  0.34015941269E+03  0.39009725250E+03  0.17200000000E+03 0.  1.
</event>
<event>
 4    1  0.1054668E+000  0.1898179E+03  0.7818608E-02  0.1158626E+00
         -2   -1    0    0    0  501 -0.00000000000E+00  0.00000000000E+00  0.69295677636E+02  0.69295677636E+02  0.00000000000E+00 0. -1.
          2   -1    0    0  502    0  0.00000000000E+00 -0.00000000000E+00 -0.94148179263E+03  0.94148179263E+03  0.00000000000E+00 0.  1.
          6    1    1    2  502    0  0.42615062007E+02 -0.68049903530E+02 -0.77425965567E+03  0.79718808777E+03  0.17200000000E+03 0.  1.
         -6    1    1    2    0  501 -0.42615062007E+02  0.68049903530E+02 -0.97926459325E+02  0.21358938250E+03  0.17200000000E+03 0.  1.
</event>
<event>
 4    1  0.1054668E+000  0.1953340E+03  0.7818608E-02  0.1153736E+00
         -2   -1    0    0    0  501 -0.00000000000E+00  0.00000000000E+00  0.17184576206E+03  0.17184576206E+03  0.00000000000E+00 0.  1.
          2   -1    0    0  502    0  0.00000000000E+00 -0.00000000000E+00 -0.24604545441E+03  0.24604545441E+03  0.00000000000E+00 0. -1.
          6    1    1    2  502    0 -0.63840109347E+02  0.67050872867E+02 -0.10237479400E+03  0.22053566052E+03  0.17200000000E+03 0.  1.
         -6    1    1    2    0  501  0.63840109347E+02 -0.67050872867E+02  0.28175101652E+02  0.19735555596E+03  0.17200000000E+03 0.  1.
</event>
<event>
 4    1  0.1054668E+000  0.2125409E+03  0.7818608E-02  0.1139570E+00
         -1   -1    0    0    0  501 -0.00000000000E+00  0.00000000000E+00  0.17524734388E+03  0.17524734388E+03  0.00000000000E+00 0.  1.
          1   -1    0    0  502    0  0.00000000000E+00 -0.00000000000E+00 -0.27573300773E+03  0.27573300773E+03  0.00000000000E+00 0. -1.
          6    1    1    2  502    0 -0.59172123966E+02 -0.10994673305E+03 -0.10779540383E+03  0.23831381296E+03  0.17200000000E+03 0.  1.
         -6    1    1    2    0  501  0.59172123966E+02  0.10994673305E+03  0.73097399808E+01  0.21266653865E+03  0.17200000000E+03 0. -1.
</event>
<event>
 4    1  0.1054668E+000  0.1747806E+03  0.7818608E-02  0.1172952E+00
         -2   -1    0    0    0  501 -0.00000000000E+00  0.00000000000E+00  0.53661145820E+02  0.53661145820E+02  0.00000000000E+00 0. -1.
          2   -1    0    0  502    0  0.00000000000E+00 -0.00000000000E+00 -0.58147530135E+03  0.58147530135E+03  0.00000000000E+00 0.  1.
          6    1    1    2  502    0  0.12613212018E+02  0.28375445843E+02 -0.30989605494E+03  0.35578620534E+03  0.17200000000E+03 0.  1.
         -6    1    1    2    0  501 -0.12613212018E+02 -0.28375445843E+02 -0.21791810059E+03  0.27935024182E+03  0.17200000000E+03 0. -1.
</event>
<event>
 4    1  0.1054668E+000  0.1726336E+03  0.7818608E-02  0.1175129E+00
         -2   -1    0    0    0  501 -0.00000000000E+00  0.00000000000E+00  0.17037073581E+03  0.17037073581E+03  0.00000000000E+00 0. -1.
          2   -1    0    0  502    0  0.00000000000E+00 -0.00000000000E+00 -0.17549523736E+03  0.17549523736E+03  0.00000000000E+00 0.  1.
          6    1    1    2  502    0  0.11876587338E+02  0.87917028709E+01  0.72828816223E+01  0.17278711680E+03  0.17200000000E+03 0. -1.
         -6    1    1    2    0  501 -0.11876587338E+02 -0.87917028709E+01 -0.12407383174E+02  0.17307885637E+03  0.17200000000E+03 0.  1.
</event>
<event>
 4    1  0.1054668E+000  0.2081249E+03  0.7818608E-02  0.1143059E+00
          2   -1    0    0  502    0  0.00000000000E+00  0.00000000000E+00  0.69362724650E+03  0.69362724650E+03  0.00000000000E+00 0.  1.
         -2   -1    0    0    0  501 -0.00000000000E+00 -0.00000000000E+00 -0.65280672098E+02  0.65280672098E+02  0.00000000000E+00 0. -1.
          6    1    1    2  502    0  0.98141962344E+02  0.64032409546E+02  0.39320932266E+03  0.44489275750E+03  0.17200000000E+03 0.  1.
         -6    1    1    2    0  501 -0.98141962344E+02 -0.64032409546E+02  0.23513725174E+03  0.31401516110E+03  0.17200000000E+03 0. -1.
</event>
<event>
 4    1  0.1054668E+000  0.1909261E+03  0.7818608E-02  0.1157629E+00
          2   -1    0    0  502    0  0.00000000000E+00  0.00000000000E+00  0.96361253561E+02  0.96361253561E+02  0.00000000000E+00 0.  1.
         -2   -1    0    0    0  501 -0.00000000000E+00 -0.00000000000E+00 -0.50139065640E+03  0.50139065640E+03  0.00000000000E+00 0. -1.
          6    1    1    2  502    0  0.15740836122E+02 -0.81369480674E+02 -0.35060552296E+03  0.39922048925E+03  0.17200000000E+03 0. -1.
         -6    1    1    2    0  501 -0.15740836122E+02  0.81369480674E+02 -0.54423879873E+02  0.19853142071E+03  0.17200000000E+03 0.  1.
</event>
<event>
 4    1  0.1054668E+000  0.1729951E+03  0.7818608E-02  0.1174760E+00
          2   -1    0    0  502    0  0.00000000000E+00  0.00000000000E+00  0.12409162825E+04  0.12409162825E+04  0.00000000000E+00 0. -1.
         -2   -1    0    0    0  501 -0.00000000000E+00 -0.00000000000E+00 -0.62295747681E+02  0.62295747681E+02  0.00000000000E+00 0.  1.
          6    1    1    2  502    0  0.14397465499E+02  0.11662579048E+02  0.79197550020E+02  0.19026180566E+03  0.17200000000E+03 0.  1.
         -6    1    1    2    0  501 -0.14397465499E+02 -0.11662579048E+02  0.10994229848E+04  0.11129502245E+04  0.17200000000E+03 0. -1.
</event>
<event>
 4    1  0.1054668E+000  0.1731944E+03  0.7818608E-02  0.1174557E+00
          2   -1    0    0  502    0  0.00000000000E+00  0.00000000000E+00  0.26130847400E+04  0.26130847400E+04  0.00000000000E+00 0.  1.
         -2   -1    0    0    0  501 -0.00000000000E+00 -0.00000000000E+00 -0.11806027995E+02  0.11806027995E+02  0.00000000000E+00 0. -1.
          6    1    1    2  502    0 -0.32391398050E+01  0.20044911252E+02  0.10822928721E+04  0.10960630235E+04  0.17200000000E+03 0. -1.
         -6    1    1    2    0  501  0.32391398050E+01 -0.20044911252E+02  0.15189858399E+04  0.15288277445E+04  0.17200000000E+03 0.  1.
</event>
<event>
 4    1  0.1054668E+000  0.2802547E+03  0.7818608E-02  0.1095550E+00
          1   -1    0    0  502    0  0.00000000000E+00  0.00000000000E+00  0.14826142467E+04  0.14826142467E+04  0.00000000000E+00 0.  1.
         -1   -1    0    0    0  501 -0.00000000000E+00 -0.00000000000E+00 -0.53238727969E+02  0.53238727969E+02  0.00000000000E+00 0. -1.
          6    1    1    2  502    0  0.41860774703E+02 -0.21727031583E+03  0.66072395025E+03  0.71770387559E+03  0.17200000000E+03 0. -1.
         -6    1    1    2    0  501 -0.41860774703E+02  0.21727031583E+03  0.76865156847E+03  0.81814909907E+03  0.17200000000E+03 0.  1.
</event>
<event>
 4    1  0.1054668E+000  0.2246272E+03  0.7818608E-02  0.1130480E+00
         -2   -1    0    0    0  501 -0.00000000000E+00  0.00000000000E+00  0.12449335213E+03  0.12449335213E+03  0.00000000000E+00 0. -1.
          2   -1    0    0  502    0  0.00000000000E+00 -0.00000000000E+00 -0.56550597005E+03  0.56550597005E+03  0.00000000000E+00 0.  1.
          6    1    1    2  502    0  0.76294660393E+02 -0.12268873544E+03 -0.40413339718E+03  0.46236479507E+03  0.17200000000E+03 0.  1.
         -6    1    1    2    0  501 -0.76294660393E+02  0.12268873544E+03 -0.36879220742E+02  0.22763452711E+03  0.17200000000E+03 0. -1.
</event>
<event>
 4    1  0.1054668E+000  0.2306639E+03  0.7818608E-02  0.1126173E+00
          2   -1    0    0  502    0  0.00000000000E+00  0.00000000000E+00  0.11316688928E+04  0.11316688928E+04  0.00000000000E+00 0. -1.
         -2   -1    0    0    0  501 -0.00000000000E+00 -0.00000000000E+00 -0.78407862684E+02  0.78407862684E+02  0.00000000000E+00 0.  1.
          6    1    1    2  502    0  0.13502597587E+03  0.73415241658E+02  0.14379154668E+03  0.27181210562E+03  0.17200000000E+03 0.  1.
         -6    1    1    2    0  501 -0.13502597587E+03 -0.73415241658E+02  0.90946948343E+03  0.93826464985E+03  0.17200000000E+03 0.  1.
</event>
<event>
 4    1  0.1054668E+000  0.1818456E+03  0.7818608E-02  0.1166029E+00
          2   -1    0    0  502    0  0.00000000000E+00  0.00000000000E+00  0.13667941379E+04  0.13667941379E+04  0.00000000000E+00 0. -1.
         -2   -1    0    0    0  501 -0.00000000000E+00 -0.00000000000E+00 -0.35795402902E+02  0.35795402902E+02  0.00000000000E+00 0.  1.
          6    1    1    2  502    0 -0.50694216547E+02 -0.30231200531E+02  0.26624695875E+03  0.32242095484E+03  0.17200000000E+03 0.  1.
         -6    1    1    2    0  501  0.50694216547E+02  0.30231200531E+02  0.10647517762E+04  0.10801685859E+04  0.17200000000E+03 0. -1.
</event>
<event>
 4    1  0.1054668E+000  0.1779012E+03  0.7818608E-02  0.1169850E+00
         -2   -1    0    0    0  501 -0.00000000000E+00  0.00000000000E+00  0.26233008911E+02  0.26233008911E+02  0.00000000000E+00 0. -1.
          2   -1    0    0  502    0  0.00000000000E+00 -0.00000000000E+00 -0.17102149614E+04  0.17102149614E+04  0.00000000000E+00 0.  1.
          6    1    1    2  502    0  0.15272417640E+02 -0.42797053316E+02 -0.13132070145E+04  0.13252024364E+04  0.17200000000E+03 0.  1.
         -6    1    1    2    0  501 -0.15272417640E+02  0.42797053316E+02 -0.37077493792E+03  0.41124553384E+03  0.17200000000E+03 0. -1.
</event>
<event>
 4    1  0.1054668E+000  0.1824336E+03  0.7818608E-02  0.1165468E+00
          2   -1    0    0  502    0  0.00000000000E+00  0.00000000000E+00  0.20736571148E+04  0.20736571148E+04  0.00000000000E+00 0.  1.
         -2   -1    0    0    0  501 -0.00000000000E+00 -0.00000000000E+00 -0.19678694169E+02  0.19678694169E+02  0.00000000000E+00 0. -1.
          6    1    1    2  502    0 -0.52701235579E+02 -0.30341066051E+02  0.57752862473E+03  0.60565775229E+03  0.17200000000E+03 0. -1.
         -6    1    1    2    0  501  0.52701235579E+02  0.30341066051E+02  0.14764497959E+04  0.14876780567E+04  0.17200000000E+03 0.  1.
</event>
<event>
 4    1  0.1054668E+000  0.1726050E+03  0.7818608E-02  0.1175158E+00
         -2   -1    0    0    0  501 -0.00000000000E+00  0.00000000000E+00  0.16445098163E+03  0.16445098163E+03  0.00000000000E+00 0.  1.
          2   -1    0    0  502    0  0.00000000000E+00 -0.00000000000E+00 -0.21082589626E+03  0.21082589626E+03  0.00000000000E+00 0. -1.
          6    1    1    2  502    0  0.13337354912E+01  0.14377651434E+02 -0.93569817566E+02  0.19633595308E+03  0.17200000000E+03 0. -1.
         -6    1    1    2    0  501 -0.13337354912E+01 -0.14377651434E+02  0.47194902933E+02  0.17894092482E+03  0.17200000000E+03 0.  1.
</event>
<event>
 4    1  0.1054668E+000  0.1972975E+03  0.7818608E-02  0.1152039E+00
          2   -1    0    0  502    0  0.00000000000E+00  0.00000000000E+00  0.95140677362E+03  0.95140677362E+03  0.00000000000E+00 0. -1.
         -2   -1    0    0    0  501 -0.00000000000E+00 -0.00000000000E+00 -0.41133695119E+02  0.41133695119E+02  0.00000000000E+00 0.  1.
          6    1    1    2  502    0 -0.68375640546E+02 -0.68315932395E+02  0.41890607054E+03  0.46304275264E+03  0.17200000000E+03 0.  1.
         -6    1    1    2    0  501  0.68375640546E+02  0.68315932395E+02  0.49136700797E+03  0.52949771610E+03  0.17200000000E+03 0. -1.
</event>
<event>
 4    1  0.1054668E+000  0.2259699E+03  0.7818608E-02  0.1129509E+00
         -2   -1    0    0    0  501 -0.00000000000E+00  0.00000000000E+00  0.16761187429E+04  0.16761187429E+04  0.00000000000E+00 0.  1.
          2   -1    0    0  502    0  0.00000000000E+00 -0.00000000000E+00 -0.36728503116E+02  0.36728503116E+02  0.00000000000E+00 0. -1.
          6    1    1    2  502    0 -0.97215521564E+02  0.10967007835E+03  0.11733727080E+04  0.11949334273E+04  0.17200000000E+03 0.  1.
         -6    1    1    2    0  501  0.97215521564E+02 -0.10967007835E+03  0.46601753177E+03  0.51791381873E+03  0.17200000000E+03 0. -1.
</event>
<event>
 4    1  0.1054668E+000  0.1748394E+03  0.7818608E-02  0.1172893E+00
         -2   -1    0    0    0  501 -0.00000000000E+00  0.00000000000E+00  0.21247697662E+02  0.21247697662E+02  0.00000000000E+00 0. -1.
          2   -1    0    0  502    0  0.00000000000E+00 -0.00000000000E+00 -0.14720496513E+04  0.14720496513E+04  0.00000000000E+00 0.  1.
          6    1    1    2  502    0 -0.30923275158E+02  0.53461377372E+01 -0.83780243671E+03  0.85585147841E+03  0.17200000000E+03 0.  1.
         -6    1    1    2    0  501  0.30923275158E+02 -0.53461377372E+01 -0.61299951696E+03  0.63744587058E+03  0.17200000000E+03 0. -1.
</event>
<event>
 4    1  0.1054668E+000  0.3494775E+03  0.7818608E-02  0.1062830E+00
          1   -1    0    0  502    0  0.00000000000E+00  0.00000000000E+00  0.96422902329E+03  0.96422902329E+03  0.00000000000E+00 0. -1.
         -1   -1    0    0    0  501 -0.00000000000E+00 -0.00000000000E+00 -0.34386147279E+03  0.34386147279E+03  0.00000000000E+00 0.  1.
          6    1    1    2  502    0 -0.30126072607E+03 -0.42337609846E+02  0.82999059659E+03  0.90056587138E+03  0.17200000000E+03 0. -1.
         -6    1    1    2    0  501  0.30126072607E+03  0.42337609846E+02 -0.20962304609E+03  0.40752462469E+03  0.17200000000E+03 0.  1.
</event>
<event>
 4    1  0.1054668E+000  0.2761353E+03  0.7818608E-02  0.1097819E+00
          1   -1    0    0  502    0  0.00000000000E+00  0.00000000000E+00  0.70648131468E+03  0.70648131468E+03  0.00000000000E+00 0.  1.
         -1   -1    0    0    0  501 -0.00000000000E+00 -0.00000000000E+00 -0.10795292842E+03  0.10795292842E+03  0.00000000000E+00 0. -1.
          6    1    1    2  502    0 -0.19140439607E+03  0.10015509198E+03  0.30517002497E+03  0.41155732216E+03  0.17200000000E+03 0. -1.
         -6    1    1    2    0  501  0.19140439607E+03 -0.10015509198E+03  0.29335836129E+03  0.40287692094E+03  0.17200000000E+03 0.  1.
</event>
<event>
 4    1  0.1054668E+000  0.2038566E+03  0.7818608E-02  0.1146525E+00
          2   -1    0    0  502    0  0.00000000000E+00  0.00000000000E+00  0.41230941432E+03  0.41230941432E+03  0.00000000000E+00 0. -1.
         -2   -1    0    0    0  501 -0.00000000000E+00 -0.00000000000E+00 -0.11562322145E+03  0.11562322145E+03  0.00000000000E+00 0.  1.
          6    1    1    2  502    0  0.10769572578E+03  0.19369046261E+02  0.24288254464E+03  0.31709534811E+03  0.17200000000E+03 0. -1.
         -6    1    1    2    0  501 -0.10769572578E+03 -0.19369046261E+02  0.53803648227E+02  0.21083728766E+03  0.17200000000E+03 0.  1.
</event>
<event>
 4    1  0.1054668E+000  0.2404125E+03  0.7818608E-02  0.1119518E+00
          1   -1    0    0  502    0  0.00000000000E+00  0.00000000000E+00  0.47718660761E+03  0.47718660761E+03  0.00000000000E+00 0. -1.
         -1   -1    0    0    0  501 -0.00000000000E+00 -0.00000000000E+00 -0.12112440368E+03  0.12112440368E+03  0.00000000000E+00 0.  1.
          6    1    1    2  502    0  0.13046062333E+03  0.10580273912E+03  0.17910832938E+03  0.29979657686E+03  0.17200000000E+03 0. -1.
         -6    1    1    2    0  501 -0.13046062333E+03 -0.10580273912E+03  0.17695387454E+03  0.29851443443E+03  0.17200000000E+03 0.  1.
</event>
<event>
 4    1  0.1054668E+000  0.1879355E+03  0.7818608E-02  0.1160337E+00
         -2   -1    0    0    0  501 -0.00000000000E+00  0.00000000000E+00  0.40767252964E+02  0.40767252964E+02  0.00000000000E+00 0.  1.
          2   -1    0    0  502    0  0.00000000000E+00 -0.00000000000E+00 -0.11191136397E+04  0.11191136397E+04  0.00000000000E+00 0. -1.
          6    1    1    2  502    0 -0.70358469355E+02 -0.28025759988E+02 -0.26357172817E+03  0.32371254736E+03  0.17200000000E+03 0.  1.
         -6    1    1    2    0  501  0.70358469355E+02  0.28025759988E+02 -0.81477465857E+03  0.83616834530E+03  0.17200000000E+03 0. -1.
</event>
<event>
 4    1  0.1054668E+000  0.4164546E+03  0.7818608E-02  0.1038226E+00
         -2   -1    0    0    0  501 -0.00000000000E+00  0.00000000000E+00  0.27613775094E+03  0.27613775094E+03  0.00000000000E+00 0.  1.
          2   -1    0    0  502    0  0.00000000000E+00 -0.00000000000E+00 -0.69521882175E+03  0.69521882175E+03  0.00000000000E+00 0. -1.
          6    1    1    2  502    0  0.37442728374E+03 -0.60453961192E+02 -0.36047891684E+03  0.55079898486E+03  0.17200000000E+03 0.  1.
         -6    1    1    2    0  501 -0.37442728374E+03  0.60453961192E+02 -0.58602153972E+02  0.42055758783E+03  0.17200000000E+03 0. -1.
</event>
<event>
 4    1  0.1054668E+000  0.1842398E+03  0.7818608E-02  0.1163762E+00
         -3   -1    0    0    0  501 -0.00000000000E+00  0.00000000000E+00  0.91795234524E+02  0.91795234524E+02  0.00000000000E+00 0. -1.
          3   -1    0    0  502    0  0.00000000000E+00 -0.00000000000E+00 -0.37697857742E+03  0.37697857742E+03  0.00000000000E+00 0.  1.
          6    1    1    2  502    0 -0.47663444581E+02 -0.45700297883E+02 -0.17497388490E+03  0.25408695671E+03  0.17200000000E+03 0.  1.
         -6    1    1    2    0  501  0.47663444581E+02  0.45700297883E+02 -0.11020945800E+03  0.21468685523E+03  0.17200000000E+03 0. -1.
</event>
<event>
 4    1  0.1054668E+000  0.2081537E+03  0.7818608E-02  0.1143036E+00
         -1   -1    0    0    0  501 -0.00000000000E+00  0.00000000000E+00  0.16741704694E+03  0.16741704694E+03  0.00000000000E+00 0. -1.
          1   -1    0    0  502    0  0.00000000000E+00 -0.00000000000E+00 -0.35753933084E+03  0.35753933084E+03  0.00000000000E+00 0.  1.
          6    1    1    2  502    0  0.27553933890E+02  0.11395066406E+03  0.42872626383E+02  0.21252302277E+03  0.17200000000E+03 0. -1.
         -6    1    1    2    0  501 -0.27553933890E+02 -0.11395066406E+03 -0.23299491028E+03  0.31243335502E+03  0.17200000000E+03 0.  1.
</event>
<event>
 4    1  0.1054668E+000  0.1838499E+03  0.7818608E-02  0.1164128E+00
          2   -1    0    0  502    0  0.00000000000E+00  0.00000000000E+00  0.39838013326E+03  0.39838013326E+03  0.00000000000E+00 0. -1.
         -2   -1    0    0    0  501 -0.00000000000E+00 -0.00000000000E+00 -0.97371162304E+02  0.97371162304E+02  0.00000000000E+00 0.  1.
          6    1    1    2  502    0  0.59522623183E+02 -0.25958729408E+02  0.23940769445E+03  0.30185566496E+03  0.17200000000E+03 0. -1.
         -6    1    1    2    0  501 -0.59522623183E+02  0.25958729408E+02  0.61601276508E+02  0.19389563061E+03  0.17200000000E+03 0. -1.
</event>
<event>
 4    1  0.1054668E+000  0.2425485E+03  0.7818608E-02  0.1118107E+00
         -2   -1    0    0    0  501 -0.00000000000E+00  0.00000000000E+00  0.30947104812E+04  0.30947104812E+04  0.00000000000E+00 0.  1.
          2   -1    0    0  502    0  0.00000000000E+00 -0.00000000000E+00 -0.19050663537E+02  0.19050663537E+02  0.00000000000E+00 0. -1.
          6    1    1    2  502    0 -0.40177640032E+02 -0.16622730643E+03  0.16099545199E+04  0.16281226355E+04  0.17200000000E+03 0. -1.
         -6    1    1    2    0  501  0.40177640032E+02  0.16622730643E+03  0.14657052977E+04  0.14856385092E+04  0.17200000000E+03 0. -1.
</event>
<event>
 4    1  0.1054668E+000  0.1876841E+03  0.7818608E-02  0.1160567E+00
         -2   -1    0    0    0  501 -0.00000000000E+00  0.00000000000E+00  0.40584348098E+02  0.40584348098E+02  0.00000000000E+00 0.  1.
          2   -1    0    0  502    0  0.00000000000E+00 -0.00000000000E+00 -0.86856239944E+03  0.86856239944E+03  0.00000000000E+00 0. -1.
          6    1    1    2  502    0 -0.47173317504E+02 -0.58446478717E+02 -0.40194972753E+03  0.44360894515E+03  0.17200000000E+03 0. -1.
         -6    1    1    2    0  501  0.47173317504E+02  0.58446478717E+02 -0.42602832381E+03  0.46553780238E+03  0.17200000000E+03 0. -1.
</event>
<event>
 4    1  0.1054668E+000  0.2782953E+03  0.7818608E-02  0.1096624E+00
          1   -1    0    0  502    0  0.00000000000E+00  0.00000000000E+00  0.14413207176E+04  0.14413207176E+04  0.00000000000E+00 0. -1.
         -1   -1    0    0    0  501 -0.00000000000E+00 -0.00000000000E+00 -0.61013413687E+02  0.61013413687E+02  0.00000000000E+00 0.  1.
          6    1    1    2  502    0 -0.21192133648E+03  0.54347063079E+02  0.43069672261E+03  0.51278448006E+03  0.17200000000E+03 0. -1.
         -6    1    1    2    0  501  0.21192133648E+03 -0.54347063079E+02  0.94961058127E+03  0.98954965120E+03  0.17200000000E+03 0. -1.
</event>
<event>
 4    1  0.1054668E+000  0.1738078E+03  0.7818608E-02  0.1173934E+00
          1   -1    0    0  502    0  0.00000000000E+00  0.00000000000E+00  0.21284349566E+04  0.21284349566E+04  0.00000000000E+00 0. -1.
         -1   -1    0    0    0  501 -0.00000000000E+00 -0.00000000000E+00 -0.16935981971E+02  0.16935981971E+02  0.00000000000E+00 0.  1.
          6    1    1    2  502    0 -0.26080538396E+01  0.24866302853E+02  0.62406235777E+03  0.64781398669E+03  0.17200000000E+03 0.  1.
         -6    1    1    2    0  501  0.26080538396E+01 -0.24866302853E+02  0.14874366168E+04  0.14975569518E+04  0.17200000000E+03 0. -1.
</event>
<event>
 4    1  0.1054668E+000  0.2039231E+03  0.7818608E-02  0.1146471E+00
         -2   -1    0    0    0  501 -0.00000000000E+00  0.00000000000E+00  0.25829909651E+03  0.25829909651E+03  0.00000000000E+00 0.  1.
          2   -1    0    0  502    0  0.00000000000E+00 -0.00000000000E+00 -0.25704771215E+03  0.25704771215E+03  0.00000000000E+00 0. -1.
          6    1    1    2  502    0  0.25402268014E+02 -0.10656151488E+03  0.15813983893E+03  0.25805588606E+03  0.17200000000E+03 0.  1.
         -6    1    1    2    0  501 -0.25402268014E+02  0.10656151488E+03 -0.15688845457E+03  0.25729092260E+03  0.17200000000E+03 0. -1.
</event>
<event>
 4    1  0.1054668E+000  0.2534435E+03  0.7818608E-02  0.1111148E+00
          2   -1    0    0  502    0  0.00000000000E+00  0.00000000000E+00  0.10348513641E+04  0.10348513641E+04  0.00000000000E+00 0.  1.
         -2   -1    0    0    0  501 -0.00000000000E+00 -0.00000000000E+00 -0.81215656999E+02  0.81215656999E+02  0.00000000000E+00 0. -1.
          6    1    1    2  502    0  0.46784411388E+02 -0.18016884694E+03  0.74775682411E+03  0.78954028558E+03  0.17200000000E+03 0.  1.
         -6    1    1    2    0  501 -0.46784411388E+02  0.18016884694E+03  0.20587888304E+03  0.32652673556E+03  0.17200000000E+03 0. -1.
</event>
<event>
 4    1  0.1054668E+000  0.1897736E+03  0.7818608E-02  0.1158666E+00
         -2   -1    0    0    0  501 -0.00000000000E+00  0.00000000000E+00  0.37473419107E+02  0.37473419107E+02  0.00000000000E+00 0.  1.
          2   -1    0    0  502    0  0.00000000000E+00 -0.00000000000E+00 -0.10585881738E+04  0.10585881738E+04  0.00000000000E+00 0. -1.
          6    1    1    2  502    0  0.79199262654E+02  0.12550179273E+02 -0.34420966710E+03  0.39305766133E+03  0.17200000000E+03 0.  1.
         -6    1    1    2    0  501 -0.79199262654E+02 -0.12550179273E+02 -0.67690508762E+03  0.70300393160E+03  0.17200000000E+03 0. -1.
</event>
<event>
 4    1  0.1054668E+000  0.1916776E+03  0.7818608E-02  0.1156957E+00
         -1   -1    0    0    0  501 -0.00000000000E+00  0.00000000000E+00  0.31485365690E+02  0.31485365690E+02  0.00000000000E+00 0. -1.
          1   -1    0    0  502    0  0.00000000000E+00 -0.00000000000E+00 -0.12200672414E+04  0.12200672414E+04  0.00000000000E+00 0.  1.
          6    1    1    2  502    0 -0.63881055092E+02  0.55457140750E+02 -0.46365942991E+03  0.50171740114E+03  0.17200000000E+03 0.  1.
         -6    1    1    2    0  501  0.63881055092E+02 -0.55457140750E+02 -0.72492244578E+03  0.74983520593E+03  0.17200000000E+03 0.  1.
</event>
<event>
 4    1  0.1054668E+000  0.1789766E+03  0.7818608E-02  0.1168797E+00
         -1   -1    0    0    0  501 -0.00000000000E+00  0.00000000000E+00  0.21519043336E+03  0.21519043336E+03  0.00000000000E+00 0.  1.
          1   -1    0    0  502    0  0.00000000000E+00 -0.00000000000E+00 -0.14896248449E+03  0.14896248449E+03  0.00000000000E+00 0. -1.
          6    1    1    2  502    0  0.33704341522E+02  0.36230215540E+02  0.37958210224E+02  0.18295747287E+03  0.17200000000E+03 0. -1.
         -6    1    1    2    0  501 -0.33704341522E+02 -0.36230215540E+02  0.28269738646E+02  0.18119544497E+03  0.17200000000E+03 0. -1.
</event>
<event>
 4    1  0.1054668E+000  0.1856335E+03  0.7818608E-02  0.1162460E+00
          2   -1    0    0  502    0  0.00000000000E+00  0.00000000000E+00  0.24581084979E+04  0.24581084979E+04  0.00000000000E+00 0.  1.
         -2   -1    0    0    0  501 -0.00000000000E+00 -0.00000000000E+00 -0.15535360599E+02  0.15535360599E+02  0.00000000000E+00 0. -1.
          6    1    1    2  502    0  0.14990703475E+02 -0.68198890980E+02  0.83485569339E+03  0.85524489985E+03  0.17200000000E+03 0. -1.
         -6    1    1    2    0  501 -0.14990703475E+02  0.68198890980E+02  0.16077174439E+04  0.16183989587E+04  0.17200000000E+03 0.  1.
</event>
<event>
 4    1  0.1054668E+000  0.1864386E+03  0.7818608E-02  0.1161713E+00
         -2   -1    0    0    0  501 -0.00000000000E+00  0.00000000000E+00  0.31058265239E+02  0.31058265239E+02  0.00000000000E+00 0.  1.
          2   -1    0    0  502    0  0.00000000000E+00 -0.00000000000E+00 -0.16111304629E+04  0.16111304629E+04  0.00000000000E+00 0. -1.
          6    1    1    2  502    0  0.68779455044E+02 -0.21089078764E+02 -0.12437629343E+04  0.12576587770E+04  0.17200000000E+03 0. -1.
         -6    1    1    2    0  501 -0.68779455044E+02  0.21089078764E+02 -0.33630926331E+03  0.38452995107E+03  0.17200000000E+03 0.  1.
</event>
<event>
 4    1  0.1054668E+000  0.2486286E+03  0.7818608E-02  0.1114175E+00
         -2   -1    0    0    0  501 -0.00000000000E+00  0.00000000000E+00  0.55532814177E+02  0.55532814177E+02  0.00000000000E+00 0.  1.
          2   -1    0    0  502    0  0.00000000000E+00 -0.00000000000E+00 -0.12995982713E+04  0.12995982713E+04  0.00000000000E+00 0. -1.
          6    1    1    2  502    0 -0.16724589328E+03 -0.65276159416E+02 -0.36538948402E+03  0.44195660516E+03  0.17200000000E+03 0. -1.
         -6    1    1    2    0  501  0.16724589328E+03  0.65276159416E+02 -0.87867597309E+03  0.91317448032E+03  0.17200000000E+03 0. -1.
</event>
<event>
 4    1  0.1054668E+000  0.1758893E+03  0.7818608E-02  0.1171842E+00
          2   -1    0    0  502    0  0.00000000000E+00  0.00000000000E+00  0.18790522873E+04  0.18790522873E+04  0.00000000000E+00 0. -1.
         -2   -1    0    0    0  501 -0.00000000000E+00 -0.00000000000E+00 -0.35299882928E+02  0.35299882928E+02  0.00000000000E+00 0.  1.
          6    1    1    2  502    0 -0.36783732040E+02 -0.11118362004E+00  0.22268473184E+03  0.28377023294E+03  0.17200000000E+03 0.  1.
         -6    1    1    2    0  501  0.36783732040E+02  0.11118362004E+00  0.16210676725E+04  0.16305819373E+04  0.17200000000E+03 0. -1.
</event>
<event>
 4    1  0.1054668E+000  0.3811645E+03  0.7818608E-02  0.1050504E+00
         -2   -1    0    0    0  501 -0.00000000000E+00  0.00000000000E+00  0.19980516296E+03  0.19980516296E+03  0.00000000000E+00 0. -1.
          2   -1    0    0  502    0  0.00000000000E+00 -0.00000000000E+00 -0.87952825298E+03  0.87952825298E+03  0.00000000000E+00 0.  1.
          6    1    1    2  502    0 -0.18269926460E+03  0.28692049128E+03 -0.11522726972E+03  0.39820059428E+03  0.17200000000E+03 0. -1.
         -6    1    1    2    0  501  0.18269926460E+03 -0.28692049128E+03 -0.56449582030E+03  0.68113282165E+03  0.17200000000E+03 0.  1.
</event>
<event>
 4    1  0.1054668E+000  0.1768982E+03  0.7818608E-02  0.1170839E+00
         -2   -1    0    0    0  501 -0.00000000000E+00  0.00000000000E+00  0.13599415602E+03  0.13599415602E+03  0.00000000000E+00 0.  1.
          2   -1    0    0  502    0  0.00000000000E+00 -0.00000000000E+00 -0.26042238473E+03  0.26042238473E+03  0.00000000000E+00 0. -1.
          6    1    1    2  502    0  0.27095573282E+02  0.31221761456E+02 -0.12984214401E+03  0.21943552776E+03  0.17200000000E+03 0. -1.
         -6    1    1    2    0  501 -0.27095573282E+02 -0.31221761456E+02  0.54139153004E+01  0.17698101299E+03  0.17200000000E+03 0.  1.
</event>
<event>
 4    1  0.1054668E+000  0.2167259E+03  0.7818608E-02  0.1136348E+00
         -1   -1    0    0    0  501 -0.00000000000E+00  0.00000000000E+00  0.48431986079E+02  0.48431986079E+02  0.00000000000E+00 0. -1.
          1   -1    0    0  502    0  0.00000000000E+00 -0.00000000000E+00 -0.10462142690E+04  0.10462142690E+04  0.00000000000E+00 0.  1.
          6    1    1    2  502    0  0.13162260769E+03  0.78493063763E+01 -0.35098888415E+03  0.41250856872E+03  0.17200000000E+03 0. -1.
         -6    1    1    2    0  501 -0.13162260769E+03 -0.78493063763E+01 -0.64679339872E+03  0.68213768632E+03  0.17200000000E+03 0.  1.
</event>
<event>
 4    1  0.1054668E+000  0.4537404E+03  0.7818608E-02  0.1026612E+00
         -1   -1    0    0    0  501 -0.00000000000E+00  0.00000000000E+00  0.15264211816E+03  0.15264211816E+03  0.00000000000E+00 0.  1.
          1   -1    0    0  502    0  0.00000000000E+00 -0.00000000000E+00 -0.13999666939E+04  0.13999666939E+04  0.00000000000E+00 0. -1.
          6    1    1    2  502    0  0.25065517271E+03  0.33685055287E+03 -0.77210565148E+03  0.89555985150E+03  0.17200000000E+03 0. -1.
         -6    1    1    2    0  501 -0.25065517271E+03 -0.33685055287E+03 -0.47521892421E+03  0.65704896051E+03  0.17200000000E+03 0.  1.
</event>
<event>
 4    1  0.1054668E+000  0.2132065E+03  0.7818608E-02  0.1139052E+00
         -1   -1    0    0    0  501 -0.00000000000E+00  0.00000000000E+00  0.70295768882E+02  0.70295768882E+02  0.00000000000E+00 0. -1.
          1   -1    0    0  502    0  0.00000000000E+00 -0.00000000000E+00 -0.72872566410E+03  0.72872566410E+03  0.00000000000E+00 0.  1.
          6    1    1    2  502    0 -0.17970262737E+02  0.12469989046E+03 -0.19514087745E+03  0.28902760262E+03  0.17200000000E+03 0. -1.
         -6    1    1    2    0  501  0.17970262737E+02 -0.12469989046E+03 -0.46328901777E+03  0.50999383037E+03  0.17200000000E+03 0.  1.
</event>
<event>
 4    1  0.1054668E+000  0.2071652E+03  0.7818608E-02  0.1143831E+00
          1   -1    0    0  502    0  0.00000000000E+00  0.00000000000E+00  0.11583775153E+03  0.11583775153E+03  0.00000000000E+00 0. -1.
         -1   -1    0    0    0  501 -0.00000000000E+00 -0.00000000000E+00 -0.54811090626E+03  0.54811090626E+03  0.00000000000E+00 0.  1.
          6    1    1    2  502    0 -0.10938055591E+03  0.37003986405E+02 -0.27159023379E+02  0.20893782227E+03  0.17200000000E+03 0. -1.
         -6    1    1    2    0  501  0.10938055591E+03 -0.37003986405E+02 -0.40511413136E+03  0.45501083553E+03  0.17200000000E+03 0.  1.
</event>
<event>
 4    1  0.1054668E+000  0.1780374E+03  0.7818608E-02  0.1169716E+00
          1   -1    0    0  502    0  0.00000000000E+00  0.00000000000E+00  0.57249822697E+03  0.57249822697E+03  0.00000000000E+00 0. -1.
         -1   -1    0    0    0  501 -0.00000000000E+00 -0.00000000000E+00 -0.55380822666E+02  0.55380822666E+02  0.00000000000E+00 0.  1.
          6    1    1    2  502    0 -0.33939292561E+02 -0.31007333771E+02  0.26357426218E+03  0.31807030985E+03  0.17200000000E+03 0.  1.
         -6    1    1    2    0  501  0.33939292561E+02  0.31007333771E+02  0.25354314212E+03  0.30980873978E+03  0.17200000000E+03 0. -1.
</event>
<event>
 4    1  0.1054668E+000  0.2009415E+03  0.7818608E-02  0.1148947E+00
         -2   -1    0    0    0  501 -0.00000000000E+00  0.00000000000E+00  0.24514742969E+02  0.24514742969E+02  0.00000000000E+00 0.  1.
          2   -1    0    0  502    0  0.00000000000E+00 -0.00000000000E+00 -0.16736160936E+04  0.16736160936E+04  0.00000000000E+00 0. -1.
          6    1    1    2  502    0 -0.85292767863E+02  0.59318076750E+02 -0.71761664093E+03  0.74521884961E+03  0.17200000000E+03 0.  1.
         -6    1    1    2    0  501  0.85292767863E+02 -0.59318076750E+02 -0.93148470970E+03  0.95291198696E+03  0.17200000000E+03 0. -1.
</event>
<event>
 4    1  0.1054668E+000  0.1930034E+03  0.7818608E-02  0.1155780E+00
         -1   -1    0    0    0  501 -0.00000000000E+00  0.00000000000E+00  0.34463143206E+03  0.34463143206E+03  0.00000000000E+00 0.  1.
          1   -1    0    0  502    0  0.00000000000E+00 -0.00000000000E+00 -0.19126166001E+03  0.19126166001E+03  0.00000000000E+00 0. -1.
          6    1    1    2  502    0  0.48818154748E+02 -0.72684886709E+02  0.25338171466E+03  0.31851624498E+03  0.17200000000E+03 0.  1.
         -6    1    1    2    0  501 -0.48818154748E+02  0.72684886709E+02 -0.10001194262E+03  0.21737684710E+03  0.17200000000E+03 0. -1.
</event>
<event>
 4    1  0.1054668E+000  0.1786714E+03  0.7818608E-02  0.1169095E+00
          1   -1    0    0  502    0  0.00000000000E+00  0.00000000000E+00  0.25340551793E+03  0.25340551793E+03  0.00000000000E+00 0. -1.
         -1   -1    0    0    0  501 -0.00000000000E+00 -0.00000000000E+00 -0.24148053040E+03  0.24148053040E+03  0.00000000000E+00 0.  1.
          6    1    1    2  502    0 -0.11785788089E+01 -0.48353879161E+02  0.17709407113E+03  0.25156668442E+03  0.17200000000E+03 0. -1.
         -6    1    1    2    0  501  0.11785788089E+01  0.48353879161E+02 -0.16516908360E+03  0.24331936391E+03  0.17200000000E+03 0.  1.
</event>
<event>
 4    1  0.1054668E+000  0.1954778E+03  0.7818608E-02  0.1153611E+00
         -1   -1    0    0    0  501 -0.00000000000E+00  0.00000000000E+00  0.18866408905E+03  0.18866408905E+03  0.00000000000E+00 0.  1.
          1   -1    0    0  502    0  0.00000000000E+00 -0.00000000000E+00 -0.31810537070E+03  0.31810537070E+03  0.00000000000E+00 0. -1.
          6    1    1    2  502    0 -0.38094401118E+02  0.84713491161E+02  0.88005519597E+02  0.21437474306E+03  0.17200000000E+03 0.  1.
         -6    1    1    2    0  501  0.38094401118E+02 -0.84713491161E+02 -0.21744680124E+03  0.29239471670E+03  0.17200000000E+03 0. -1.
</event>
<event>
 4    1  0.1054668E+000  0.1886941E+03  0.7818608E-02  0.1159644E+00
          2   -1    0    0  502    0  0.00000000000E+00  0.00000000000E+00  0.11698503620E+04  0.11698503620E+04  0.00000000000E+00 0. -1.
         -2   -1    0    0    0  501 -0.00000000000E+00 -0.00000000000E+00 -0.31589985753E+02  0.31589985753E+02  0.00000000000E+00 0.  1.
          6    1    1    2  502    0 -0.46609894637E+01 -0.77457914258E+02  0.45431065128E+03  0.49193863558E+03  0.17200000000E+03 0.  1.
         -6    1    1    2    0  501  0.46609894637E+01  0.77457914258E+02  0.68394972500E+03  0.70950171221E+03  0.17200000000E+03 0. -1.
</event>
<event>
 4    1  0.1054668E+000  0.1810275E+03  0.7818608E-02  0.1166812E+00
         -2   -1    0    0    0  501 -0.00000000000E+00  0.00000000000E+00  0.12698522153E+02  0.12698522153E+02  0.00000000000E+00 0.  1.
          2   -1    0    0  502    0  0.00000000000E+00 -0.00000000000E+00 -0.26538045383E+04  0.26538045383E+04  0.00000000000E+00 0. -1.
          6    1    1    2  502    0 -0.47884754380E+02  0.29900106314E+02 -0.15418500134E+04  0.15524407976E+04  0.17200000000E+03 0. -1.
         -6    1    1    2    0  501  0.47884754380E+02 -0.29900106314E+02 -0.10992560027E+04  0.11140622629E+04  0.17200000000E+03 0.  1.
</event>
<event>
 4    1  0.1054668E+000  0.1928729E+03  0.7818608E-02  0.1155895E+00
         -2   -1    0    0    0  501 -0.00000000000E+00  0.00000000000E+00  0.11651918178E+03  0.11651918178E+03  0.00000000000E+00 0. -1.
          2   -1    0    0  502    0  0.00000000000E+00 -0.00000000000E+00 -0.37455749487E+03  0.37455749487E+03  0.00000000000E+00 0.  1.
          6    1    1    2  502    0 -0.74016224651E+02  0.46233861925E+02 -0.34675901485E+02  0.19596527663E+03  0.17200000000E+03 0. -1.
         -6    1    1    2    0  501  0.74016224651E+02 -0.46233861925E+02 -0.22336241161E+03  0.29511140002E+03  0.17200000000E+03 0. -1.
</event>
<event>
 4    1  0.1054668E+000  0.1807627E+03  0.7818608E-02  0.1167067E+00
          1   -1    0    0  502    0  0.00000000000E+00  0.00000000000E+00  0.94876672679E+02  0.94876672679E+02  0.00000000000E+00 0.  1.
         -1   -1    0    0    0  501 -0.00000000000E+00 -0.00000000000E+00 -0.34847718630E+03  0.34847718630E+03  0.00000000000E+00 0. -1.
          6    1    1    2  502    0  0.45310215349E+02  0.32220356483E+02 -0.15078941886E+03  0.23539884415E+03  0.17200000000E+03 0.  1.
         -6    1    1    2    0  501 -0.45310215349E+02 -0.32220356483E+02 -0.10281109476E+03  0.20795501483E+03  0.17200000000E+03 0.  1.
</event>
<event>
 4    1  0.1054668E+000  0.3429120E+03  0.7818608E-02  0.1065562E+00
         -1   -1    0    0    0  501 -0.00000000000E+00  0.00000000000E+00  0.30168798291E+03  0.30168798291E+03  0.00000000000E+00 0. -1.
          1   -1    0    0  502    0  0.00000000000E+00 -0.00000000000E+00 -0.40907396792E+03  0.40907396792E+03  0.00000000000E+00 0.  1.
          6    1    1    2  502    0  0.16700391301E+03  0.24518229318E+03 -0.13089459012E+03  0.36704503480E+03  0.17200000000E+03 0. -1.
         -6    1    1    2    0  501 -0.16700391301E+03 -0.24518229318E+03  0.23508605107E+02  0.34371691603E+03  0.17200000000E+03 0.  1.
</event>
<event>
 4    1  0.1054668E+000  0.1882927E+03  0.7818608E-02  0.1160010E+00
          2   -1    0    0  502    0  0.00000000000E+00  0.00000000000E+00  0.18042501330E+04  0.18042501330E+04  0.00000000000E+00 0.  1.
         -2   -1    0    0    0  501 -0.00000000000E+00 -0.00000000000E+00 -0.20707243255E+02  0.20707243255E+02  0.00000000000E+00 0. -1.
          6    1    1    2  502    0  0.58128852343E+02  0.49911715322E+02  0.68562417711E+03  0.71100960264E+03  0.17200000000E+03 0. -1.
         -6    1    1    2    0  501 -0.58128852343E+02 -0.49911715322E+02  0.10979187126E+04  0.11139477736E+04  0.17200000000E+03 0.  1.
</event>
<event>
 4    1  0.1054668E+000  0.2058232E+03  0.7818608E-02  0.1144917E+00
         -2   -1    0    0    0  501 -0.00000000000E+00  0.00000000000E+00  0.29123355502E+02  0.29123355502E+02  0.00000000000E+00 0. -1.
          2   -1    0    0  502    0  0.00000000000E+00 -0.00000000000E+00 -0.15783351352E+04  0.15783351352E+04  0.00000000000E+00 0.  1.
          6    1    1    2  502    0  0.10592628567E+03  0.39481537101E+02 -0.99963379560E+03  0.10206032016E+04  0.17200000000E+03 0.  1.
         -6    1    1    2    0  501 -0.10592628567E+03 -0.39481537101E+02 -0.54957798414E+03  0.58685528916E+03  0.17200000000E+03 0. -1.
</event>
<event>
 4    1  0.1054668E+000  0.1992051E+03  0.7818608E-02  0.1150411E+00
         -2   -1    0    0    0  501 -0.00000000000E+00  0.00000000000E+00  0.47494903282E+02  0.47494903282E+02  0.00000000000E+00 0.  1.
          2   -1    0    0  502    0  0.00000000000E+00 -0.00000000000E+00 -0.90653673114E+03  0.90653673114E+03  0.00000000000E+00 0. -1.
          6    1    1    2  502    0 -0.59661344880E+01  0.10031492779E+03 -0.29600369157E+03  0.35679246757E+03  0.17200000000E+03 0.  1.
         -6    1    1    2    0  501  0.59661344880E+01 -0.10031492779E+03 -0.56303813629E+03  0.59723916685E+03  0.17200000000E+03 0. -1.
</event>
<event>
 4    1  0.1054668E+000  0.1770035E+03  0.7818608E-02  0.1170735E+00
          1   -1    0    0  502    0  0.00000000000E+00  0.00000000000E+00  0.29293865313E+02  0.29293865313E+02  0.00000000000E+00 0. -1.
         -1   -1    0    0    0  501 -0.00000000000E+00 -0.00000000000E+00 -0.14191837121E+04  0.14191837121E+04  0.00000000000E+00 0.  1.
          6    1    1    2  502    0 -0.28808843184E+02  0.30270241456E+02 -0.10544381206E+04  0.10691912772E+04  0.17200000000E+03 0.  1.
         -6    1    1    2    0  501  0.28808843184E+02 -0.30270241456E+02 -0.33545172619E+03  0.37928630026E+03  0.17200000000E+03 0. -1.
</event>
<event>
 4    1  0.1054668E+000  0.1965635E+03  0.7818608E-02  0.1152671E+00
          2   -1    0    0  502    0  0.00000000000E+00  0.00000000000E+00  0.31552783797E+04  0.31552783797E+04  0.00000000000E+00 0.  1.
         -2   -1    0    0    0  501 -0.00000000000E+00 -0.00000000000E+00 -0.12315284115E+02  0.12315284115E+02  0.00000000000E+00 0. -1.
          6    1    1    2  502    0 -0.88612895587E+02  0.34654681744E+02  0.14520517322E+04  0.14652956785E+04  0.17200000000E+03 0.  1.
         -6    1    1    2    0  501  0.88612895587E+02 -0.34654681744E+02  0.16909113633E+04  0.17022979853E+04  0.17200000000E+03 0. -1.
</event>
<event>
 4    1  0.1054668E+000  0.1772132E+03  0.7818608E-02  0.1170528E+00
          1   -1    0    0  502    0  0.00000000000E+00  0.00000000000E+00  0.11401827930E+04  0.11401827930E+04  0.00000000000E+00 0. -1.
         -1   -1    0    0    0  501 -0.00000000000E+00 -0.00000000000E+00 -0.31582640466E+02  0.31582640466E+02  0.00000000000E+00 0.  1.
          6    1    1    2  502    0 -0.30915756582E+02  0.29406567464E+02  0.76382486169E+03  0.78411284236E+03  0.17200000000E+03 0. -1.
         -6    1    1    2    0  501  0.30915756582E+02 -0.29406567464E+02  0.34477529083E+03  0.38765259109E+03  0.17200000000E+03 0.  1.
</event>
<event>
 4    1  0.1054668E+000  0.2057249E+03  0.7818608E-02  0.1144997E+00
         -2   -1    0    0    0  501 -0.00000000000E+00  0.00000000000E+00  0.51311937031E+03  0.51311937031E+03  0.00000000000E+00 0. -1.
          2   -1    0    0  502    0  0.00000000000E+00 -0.00000000000E+00 -0.11989144130E+03  0.11989144130E+03  0.00000000000E+00 0.  1.
          6    1    1    2  502    0 -0.13771061130E+02 -0.11202269582E+03  0.37341386337E+03  0.42633395345E+03  0.17200000000E+03 0. -1.
         -6    1    1    2    0  501  0.13771061130E+02  0.11202269582E+03  0.19814065629E+02  0.20667685816E+03  0.17200000000E+03 0.  1.
</event>
<event>
 4    1  0.1054668E+000  0.1788064E+03  0.7818608E-02  0.1168963E+00
         -2   -1    0    0    0  501 -0.00000000000E+00  0.00000000000E+00  0.67442479405E+02  0.67442479405E+02  0.00000000000E+00 0.  1.
          2   -1    0    0  502    0  0.00000000000E+00 -0.00000000000E+00 -0.47405927017E+03  0.47405927017E+03  0.00000000000E+00 0. -1.
          6    1    1    2  502    0 -0.44168942979E+02 -0.20900438251E+02 -0.20316697769E+03  0.27064468343E+03  0.17200000000E+03 0.  1.
         -6    1    1    2    0  501  0.44168942979E+02  0.20900438251E+02 -0.20344981308E+03  0.27085706615E+03  0.17200000000E+03 0.  1.
</event>
<event>
 4    1  0.1054668E+000  0.2080720E+03  0.7818608E-02  0.1143102E+00
         -2   -1    0    0    0  501 -0.00000000000E+00  0.00000000000E+00  0.18587891710E+02  0.18587891710E+02  0.00000000000E+00 0. -1.
          2   -1    0    0  502    0  0.00000000000E+00 -0.00000000000E+00 -0.26539543729E+04  0.26539543729E+04  0.00000000000E+00 0.  1.
          6    1    1    2  502    0  0.75515160564E+02  0.89484110705E+02 -0.17851603181E+04  0.17972454776E+04  0.17200000000E+03 0.  1.
         -6    1    1    2    0  501 -0.75515160564E+02 -0.89484110705E+02 -0.85020616315E+03  0.87529678704E+03  0.17200000000E+03 0. -1.
</event>
<event>
 4    1  0.1054668E+000  0.2138475E+03  0.7818608E-02  0.1138555E+00
         -1   -1    0    0    0  501 -0.00000000000E+00  0.00000000000E+00  0.74185234772E+02  0.74185234772E+02  0.00000000000E+00 0. -1.
          1   -1    0    0  502    0  0.00000000000E+00 -0.00000000000E+00 -0.82577629272E+03  0.82577629272E+03  0.00000000000E+00 0.  1.
          6    1    1    2  502    0  0.24316807179E+02 -0.12472143334E+03 -0.60235647561E+03  0.63919016478E+03  0.17200000000E+03 0.  1.
         -6    1    1    2    0  501 -0.24316807179E+02  0.12472143334E+03 -0.14923458234E+03  0.26077136271E+03  0.17200000000E+03 0. -1.
</event>
<event>
 4    1  0.1054668E+000  0.1991021E+03  0.7818608E-02  0.1150499E+00
         -2   -1    0    0    0  501 -0.00000000000E+00  0.00000000000E+00  0.62767883082E+02  0.62767883082E+02  0.00000000000E+00 0.  1.
          2   -1    0    0  502    0  0.00000000000E+00 -0.00000000000E+00 -0.63202744167E+03  0.63202744167E+03  0.00000000000E+00 0. -1.
          6    1    1    2  502    0 -0.72164205584E+02  0.69641657139E+02 -0.27517390482E+03  0.33965027730E+03  0.17200000000E+03 0. -1.
         -6    1    1    2    0  501  0.72164205584E+02 -0.69641657139E+02 -0.29408565377E+03  0.35514504745E+03  0.17200000000E+03 0.  1.
</event>
<event>
 4    1  0.1054668E+000  0.1727241E+03  0.7818608E-02  0.1175036E+00
          1   -1    0    0  502    0  0.00000000000E+00  0.00000000000E+00  0.42955843525E+02  0.42955843525E+02  0.00000000000E+00 0. -1.
         -1   -1    0    0    0  501 -0.00000000000E+00 -0.00000000000E+00 -0.93396081486E+03  0.93396081486E+03  0.00000000000E+00 0.  1.
          6    1    1    2  502    0 -0.14928903603E+02  0.51717707155E+01 -0.19817987311E+03  0.26288568139E+03  0.17200000000E+03 0. -1.
         -6    1    1    2    0  501  0.14928903603E+02 -0.51717707155E+01 -0.69282509822E+03  0.71403097699E+03  0.17200000000E+03 0.  1.
</event>
<event>
 4    1  0.1054668E+000  0.1762943E+03  0.7818608E-02  0.1171438E+00
         -2   -1    0    0    0  501 -0.00000000000E+00  0.00000000000E+00  0.42581278528E+02  0.42581278528E+02  0.00000000000E+00 0.  1.
          2   -1    0    0  502    0  0.00000000000E+00 -0.00000000000E+00 -0.75183874484E+03  0.75183874484E+03  0.00000000000E+00 0. -1.
          6    1    1    2  502    0  0.38400743952E+02  0.45906411497E+01 -0.42249484716E+03  0.45780081586E+03  0.17200000000E+03 0. -1.
         -6    1    1    2    0  501 -0.38400743952E+02 -0.45906411497E+01 -0.28676261915E+03  0.33661920751E+03  0.17200000000E+03 0.  1.
</event>
<event>
 4    1  0.1054668E+000  0.3293737E+03  0.7818608E-02  0.1071414E+00
          1   -1    0    0  502    0  0.00000000000E+00  0.00000000000E+00  0.15992109358E+03  0.15992109358E+03  0.00000000000E+00 0. -1.
         -1   -1    0    0    0  501 -0.00000000000E+00 -0.00000000000E+00 -0.69119940050E+03  0.69119940050E+03  0.00000000000E+00 0.  1.
          6    1    1    2  502    0  0.20097156502E+03 -0.19624855699E+03 -0.20768094025E+03  0.38938212467E+03  0.17200000000E+03 0. -1.
         -6    1    1    2    0  501 -0.20097156502E+03  0.19624855699E+03 -0.32359736667E+03  0.46173836941E+03  0.17200000000E+03 0.  1.
</event>
<event>
 4    1  0.1054668E+000  0.1914613E+03  0.7818608E-02  0.1157150E+00
          1   -1    0    0  502    0  0.00000000000E+00  0.00000000000E+00  0.52832860692E+03  0.52832860692E+03  0.00000000000E+00 0. -1.
         -1   -1    0    0    0  501 -0.00000000000E+00 -0.00000000000E+00 -0.78040102465E+02  0.78040102465E+02  0.00000000000E+00 0.  1.
          6    1    1    2  502    0 -0.29986205090E+02  0.78576466674E+02  0.12416905977E+03  0.22820032650E+03  0.17200000000E+03 0.  1.
         -6    1    1    2    0  501  0.29986205090E+02 -0.78576466674E+02  0.32611944469E+03  0.37816838288E+03  0.17200000000E+03 0.  1.
</event>
<event>
 4    1  0.1054668E+000  0.1910802E+03  0.7818608E-02  0.1157491E+00
         -2   -1    0    0    0  501 -0.00000000000E+00  0.00000000000E+00  0.82962229833E+02  0.82962229833E+02  0.00000000000E+00 0. -1.
          2   -1    0    0  502    0  0.00000000000E+00 -0.00000000000E+00 -0.82770661109E+03  0.82770661109E+03  0.00000000000E+00 0.  1.
          6    1    1    2  502    0 -0.62508334667E+02 -0.54957861385E+02 -0.68396540056E+03  0.71015514332E+03  0.17200000000E+03 0.  1.
         -6    1    1    2    0  501  0.62508334667E+02  0.54957861385E+02 -0.60778980704E+02  0.20051369760E+03  0.17200000000E+03 0. -1.
</event>
<event>
 4    1  0.1054668E+000  0.2349112E+03  0.7818608E-02  0.1123230E+00
          2   -1    0    0  502    0  0.00000000000E+00  0.00000000000E+00  0.13179674636E+03  0.13179674636E+03  0.00000000000E+00 0.  1.
         -2   -1    0    0    0  501 -0.00000000000E+00 -0.00000000000E+00 -0.59295870223E+03  0.59295870223E+03  0.00000000000E+00 0. -1.
          6    1    1    2  502    0  0.13594215910E+03 -0.84374212951E+02 -0.34133395023E+02  0.23737810996E+03  0.17200000000E+03 0.  1.
         -6    1    1    2    0  501 -0.13594215910E+03  0.84374212951E+02 -0.42702856084E+03  0.48737733863E+03  0.17200000000E+03 0. -1.
</event>
<event>
 4    1  0.1054668E+000  0.2791139E+03  0.7818608E-02  0.1096174E+00
         -2   -1    0    0    0  501 -0.00000000000E+00  0.00000000000E+00  0.52617083426E+02  0.52617083426E+02  0.00000000000E+00 0.  1.
          2   -1    0    0  502    0  0.00000000000E+00 -0.00000000000E+00 -0.16382376548E+04  0.16382376548E+04  0.00000000000E+00 0. -1.
          6    1    1    2  502    0  0.18650521407E+03  0.11634599980E+03 -0.53055465076E+03  0.59949380646E+03  0.17200000000E+03 0.  1.
         -6    1    1    2    0  501 -0.18650521407E+03 -0.11634599980E+03 -0.10550659206E+04  0.10913609318E+04  0.17200000000E+03 0. -1.
</event>
<event>
 4    1  0.1054668E+000  0.1786934E+03  0.7818608E-02  0.1169074E+00
          2   -1    0    0  502    0  0.00000000000E+00  0.00000000000E+00  0.13895133187E+04  0.13895133187E+04  0.00000000000E+00 0. -1.
         -2   -1    0    0    0  501 -0.00000000000E+00 -0.00000000000E+00 -0.23546168138E+02  0.23546168138E+02  0.00000000000E+00 0.  1.
          6    1    1    2  502    0  0.32311589946E+02 -0.36100900037E+02  0.79252057373E+03  0.81241625637E+03  0.17200000000E+03 0. -1.
         -6    1    1    2    0  501 -0.32311589946E+02  0.36100900037E+02  0.57344657685E+03  0.60064323049E+03  0.17200000000E+03 0. -1.
</event>
<event>
 4    1  0.1054668E+000  0.1840219E+03  0.7818608E-02  0.1163966E+00
         -2   -1    0    0    0  501 -0.00000000000E+00  0.00000000000E+00  0.10782575660E+03  0.10782575660E+03  0.00000000000E+00 0. -1.
          2   -1    0    0  502    0  0.00000000000E+00 -0.00000000000E+00 -0.34255202392E+03  0.34255202392E+03  0.00000000000E+00 0.  1.
          6    1    1    2  502    0  0.64640962988E+02  0.10080623888E+02 -0.52421530069E+02  0.19134285952E+03  0.17200000000E+03 0.  1.
         -6    1    1    2    0  501 -0.64640962988E+02 -0.10080623888E+02 -0.18230473725E+03  0.25903492100E+03  0.17200000000E+03 0.  1.
</event>
<event>
 4    1  0.1054668E+000  0.4780422E+03  0.7818608E-02  0.1019675E+00
          2   -1    0    0  502    0  0.00000000000E+00  0.00000000000E+00  0.29831440836E+03  0.29831440836E+03  0.00000000000E+00 0. -1.
         -2   -1    0    0    0  501 -0.00000000000E+00 -0.00000000000E+00 -0.78033640201E+03  0.78033640201E+03  0.00000000000E+00 0.  1.
          6    1    1    2  502    0 -0.40685615531E+03 -0.18277976227E+03 -0.31398022989E+03  0.57193352531E+03  0.17200000000E+03 0. -1.
         -6    1    1    2    0  501  0.40685615531E+03  0.18277976227E+03 -0.16804176377E+03  0.50671728506E+03  0.17200000000E+03 0.  1.
</event>
<event>
 4    1  0.1054668E+000  0.2735759E+03  0.7818608E-02  0.1099250E+00
         -4   -1    0    0    0  501 -0.00000000000E+00  0.00000000000E+00  0.11368477668E+03  0.11368477668E+03  0.00000000000E+00 0. -1.
          4   -1    0    0  502    0  0.00000000000E+00 -0.00000000000E+00 -0.65862218710E+03  0.65862218710E+03  0.00000000000E+00 0.  1.
          6    1    1    2  502    0  0.10651768461E+03 -0.18415693223E+03 -0.26454538158E+03  0.38056280919E+03  0.17200000000E+03 0.  1.
         -6    1    1    2    0  501 -0.10651768461E+03  0.18415693223E+03 -0.28039202883E+03  0.39174415459E+03  0.17200000000E+03 0. -1.
</event>
<event>
 4    1  0.1054668E+000  0.1913936E+03  0.7818608E-02  0.1157210E+00
         -2   -1    0    0    0  501 -0.00000000000E+00  0.00000000000E+00  0.20369606634E+02  0.20369606634E+02  0.00000000000E+00 0.  1.
          2   -1    0    0  502    0  0.00000000000E+00 -0.00000000000E+00 -0.20859644776E+04  0.20859644776E+04  0.00000000000E+00 0. -1.
          6    1    1    2  502    0  0.49193810159E+02 -0.68025493356E+02 -0.64172610919E+03  0.66965953881E+03  0.17200000000E+03 0.  1.
         -6    1    1    2    0  501 -0.49193810159E+02  0.68025493356E+02 -0.14238687618E+04  0.14366745454E+04  0.17200000000E+03 0. -1.
</event>
<event>
 4    1  0.1054668E+000  0.2216832E+03  0.7818608E-02  0.1132634E+00
          2   -1    0    0  502    0  0.00000000000E+00  0.00000000000E+00  0.98701008928E+03  0.98701008928E+03  0.00000000000E+00 0. -1.
         -2   -1    0    0    0  501 -0.00000000000E+00 -0.00000000000E+00 -0.76632032018E+02  0.76632032018E+02  0.00000000000E+00 0.  1.
          6    1    1    2  502    0  0.12881763708E+03  0.54455841454E+02  0.14043847755E+03  0.26242406191E+03  0.17200000000E+03 0.  1.
         -6    1    1    2    0  501 -0.12881763708E+03 -0.54455841454E+02  0.76993957971E+03  0.80121805939E+03  0.17200000000E+03 0. -1.
</event>
<event>
 4    1  0.1054668E+000  0.2352665E+03  0.7818608E-02  0.1122987E+00
          2   -1    0    0  502    0  0.00000000000E+00  0.00000000000E+00  0.21978101878E+04  0.21978101878E+04  0.00000000000E+00 0.  1.
         -2   -1    0    0    0  501 -0.00000000000E+00 -0.00000000000E+00 -0.12757838513E+03  0.12757838513E+03  0.00000000000E+00 0. -1.
          6    1    1    2  502    0 -0.16038177471E+03 -0.66357664708E+01  0.20767480811E+04  0.20900318035E+04  0.17200000000E+03 0.  1.
         -6    1    1    2    0  501  0.16038177471E+03  0.66357664708E+01 -0.65162784268E+01  0.23535676948E+03  0.17200000000E+03 0. -1.
</event>
<event>
 4    1  0.1054668E+000  0.2781394E+03  0.7818608E-02  0.1096710E+00
          3   -1    0    0  502    0  0.00000000000E+00  0.00000000000E+00  0.16333057472E+03  0.16333057472E+03  0.00000000000E+00 0.  1.
         -3   -1    0    0    0  501 -0.00000000000E+00 -0.00000000000E+00 -0.47643569997E+03  0.47643569997E+03  0.00000000000E+00 0. -1.
          6    1    1    2  502    0  0.14723410754E+03  0.16155385840E+03 -0.13209269833E+03  0.30791234554E+03  0.17200000000E+03 0.  1.
         -6    1    1    2    0  501 -0.14723410754E+03 -0.16155385840E+03 -0.18101242692E+03  0.33185392914E+03  0.17200000000E+03 0. -1.
</event>
<event>
 4    1  0.1054668E+000  0.2193991E+03  0.7818608E-02  0.1134332E+00
         -2   -1    0    0    0  501 -0.00000000000E+00  0.00000000000E+00  0.14289133787E+03  0.14289133787E+03  0.00000000000E+00 0. -1.
          2   -1    0    0  502    0  0.00000000000E+00 -0.00000000000E+00 -0.55282625855E+03  0.55282625855E+03  0.00000000000E+00 0.  1.
          6    1    1    2  502    0 -0.13078722612E+03  0.38034858373E+02 -0.42238298143E+03  0.47596568361E+03  0.17200000000E+03 0.  1.
         -6    1    1    2    0  501  0.13078722612E+03 -0.38034858373E+02  0.12448060753E+02  0.21975191281E+03  0.17200000000E+03 0. -1.
</event>
<event>
 4    1  0.1054668E+000  0.1789483E+03  0.7818608E-02  0.1168825E+00
          2   -1    0    0  502    0  0.00000000000E+00  0.00000000000E+00  0.12335382122E+04  0.12335382122E+04  0.00000000000E+00 0.  1.
         -2   -1    0    0    0  501 -0.00000000000E+00 -0.00000000000E+00 -0.26064936149E+02  0.26064936149E+02  0.00000000000E+00 0. -1.
          6    1    1    2  502    0  0.35869538711E+02  0.33939341839E+02  0.64372081977E+03  0.66813097259E+03  0.17200000000E+03 0.  1.
         -6    1    1    2    0  501 -0.35869538711E+02 -0.33939341839E+02  0.56375245628E+03  0.59147217575E+03  0.17200000000E+03 0. -1.
</event>
<event>
 4    1  0.1054668E+000  0.1767994E+03  0.7818608E-02  0.1170937E+00
         -2   -1    0    0    0  501 -0.00000000000E+00  0.00000000000E+00  0.17411463289E+02  0.17411463289E+02  0.00000000000E+00 0.  1.
          2   -1    0    0  502    0  0.00000000000E+00 -0.00000000000E+00 -0.17976617931E+04  0.17976617931E+04  0.00000000000E+00 0. -1.
          6    1    1    2  502    0 -0.36117320621E+02  0.19224047743E+02 -0.92332885498E+03  0.94010329183E+03  0.17200000000E+03 0. -1.
         -6    1    1    2    0  501  0.36117320621E+02 -0.19224047743E+02 -0.85692147478E+03  0.87496996451E+03  0.17200000000E+03 0. -1.
</event>
<event>
 4    1  0.1054668E+000  0.1956494E+03  0.7818608E-02  0.1153462E+00
          2   -1    0    0  502    0  0.00000000000E+00  0.00000000000E+00  0.13266094336E+04  0.13266094336E+04  0.00000000000E+00 0.  1.
         -2   -1    0    0    0  501 -0.00000000000E+00 -0.00000000000E+00 -0.28987585340E+02  0.28987585340E+02  0.00000000000E+00 0. -1.
          6    1    1    2  502    0  0.34979023914E+02  0.86435956093E+02  0.60289192763E+03  0.63384334265E+03  0.17200000000E+03 0. -1.
         -6    1    1    2    0  501 -0.34979023914E+02 -0.86435956093E+02  0.69472992061E+03  0.72175367627E+03  0.17200000000E+03 0.  1.
</event>
<event>
 4    1  0.1054668E+000  0.1720296E+03  0.7818608E-02  0.1175748E+00
         -3   -1    0    0    0  501 -0.00000000000E+00  0.00000000000E+00  0.16909030100E+03  0.16909030100E+03  0.00000000000E+00 0.  1.
          3   -1    0    0  502    0  0.00000000000E+00 -0.00000000000E+00 -0.17724790908E+03  0.17724790908E+03  0.00000000000E+00 0. -1.
          6    1    1    2  502    0  0.23395174910E+01  0.21664506946E+01 -0.23493864466E+02  0.17362640501E+03  0.17200000000E+03 0. -1.
         -6    1    1    2    0  501 -0.23395174910E+01 -0.21664506946E+01  0.15336256382E+02  0.17271180507E+03  0.17200000000E+03 0.  1.
</event>
<event>
 4    1  0.1054668E+000  0.1857921E+03  0.7818608E-02  0.1162312E+00
          1   -1    0    0  502    0  0.00000000000E+00  0.00000000000E+00  0.12340931429E+04  0.12340931429E+04  0.00000000000E+00 0.  1.
         -1   -1    0    0    0  501 -0.00000000000E+00 -0.00000000000E+00 -0.12170665350E+03  0.12170665350E+03  0.00000000000E+00 0. -1.
          6    1    1    2  502    0 -0.81753721597E+01  0.69770152510E+02  0.11511165984E+04  0.11660137795E+04  0.17200000000E+03 0.  1.
         -6    1    1    2    0  501  0.81753721597E+01 -0.69770152510E+02 -0.38730108947E+02  0.18978601695E+03  0.17200000000E+03 0. -1.
</event>
<event>
 4    1  0.1054668E+000  0.2077898E+03  0.7818608E-02  0.1143328E+00
         -1   -1    0    0    0  501 -0.00000000000E+00  0.00000000000E+00  0.18888347857E+03  0.18888347857E+03  0.00000000000E+00 0. -1.
          1   -1    0    0  502    0  0.00000000000E+00 -0.00000000000E+00 -0.28380980267E+03  0.28380980267E+03  0.00000000000E+00 0.  1.
          6    1    1    2  502    0 -0.66450119302E+02  0.95796550434E+02  0.56789926153E+02  0.21541052236E+03  0.17200000000E+03 0. -1.
         -6    1    1    2    0  501  0.66450119302E+02 -0.95796550434E+02 -0.15171625025E+03  0.25728275888E+03  0.17200000000E+03 0. -1.
</event>
<event>
 4    1  0.1054668E+000  0.2012247E+03  0.7818608E-02  0.1148710E+00
         -4   -1    0    0    0  501 -0.00000000000E+00  0.00000000000E+00  0.39787203703E+03  0.39787203703E+03  0.00000000000E+00 0.  1.
          4   -1    0    0  502    0  0.00000000000E+00 -0.00000000000E+00 -0.10676623648E+03  0.10676623648E+03  0.00000000000E+00 0. -1.
          6    1    1    2  502    0  0.50070676916E+01 -0.10431827141E+03  0.90969349136E+02  0.22083205148E+03  0.17200000000E+03 0. -1.
         -6    1    1    2    0  501 -0.50070676916E+01  0.10431827141E+03  0.20013645142E+03  0.28380622203E+03  0.17200000000E+03 0.  1.
</event>
<event>
 4    1  0.1054668E+000  0.1725363E+03  0.7818608E-02  0.1175228E+00
         -2   -1    0    0    0  501 -0.00000000000E+00  0.00000000000E+00  0.24891512806E+02  0.24891512806E+02  0.00000000000E+00 0.  1.
          2   -1    0    0  502    0  0.00000000000E+00 -0.00000000000E+00 -0.12833712345E+04  0.12833712345E+04  0.00000000000E+00 0. -1.
          6    1    1    2  502    0 -0.24791918775E+01 -0.13364792783E+02 -0.79997437011E+03  0.81836896136E+03  0.17200000000E+03 0. -1.
         -6    1    1    2    0  501  0.24791918775E+01  0.13364792783E+02 -0.45850535154E+03  0.48989378591E+03  0.17200000000E+03 0.  1.
</event>
<event>
 4    1  0.1054668E+000  0.2490561E+03  0.7818608E-02  0.1113903E+00
         -2   -1    0    0    0  501 -0.00000000000E+00  0.00000000000E+00  0.87810754316E+02  0.87810754316E+02  0.00000000000E+00 0. -1.
          2   -1    0    0  502    0  0.00000000000E+00 -0.00000000000E+00 -0.78553525982E+03  0.78553525982E+03  0.00000000000E+00 0.  1.
          6    1    1    2  502    0 -0.49760098073E+02 -0.17311518594E+03 -0.48746655275E+03  0.54740531146E+03  0.17200000000E+03 0.  1.
         -6    1    1    2    0  501  0.49760098073E+02  0.17311518594E+03 -0.21025795275E+03  0.32594070268E+03  0.17200000000E+03 0. -1.
</event>
<event>
 4    1  0.1054668E+000  0.1986191E+03  0.7818608E-02  0.1150909E+00
          3   -1    0    0  502    0  0.00000000000E+00  0.00000000000E+00  0.11902302802E+03  0.11902302802E+03  0.00000000000E+00 0.  1.
         -3   -1    0    0    0  501 -0.00000000000E+00 -0.00000000000E+00 -0.34048111529E+03  0.34048111529E+03  0.00000000000E+00 0. -1.
          6    1    1    2  502    0  0.83816898780E+02 -0.53294052451E+02 -0.14815868879E+03  0.24779129446E+03  0.17200000000E+03 0. -1.
         -6    1    1    2    0  501 -0.83816898780E+02  0.53294052451E+02 -0.73299398478E+02  0.21171284884E+03  0.17200000000E+03 0. -1.
</event>
<event>
 4    1  0.1054668E+000  0.1839070E+03  0.7818608E-02  0.1164075E+00
         -2   -1    0    0    0  501 -0.00000000000E+00  0.00000000000E+00  0.22320120544E+02  0.22320120544E+02  0.00000000000E+00 0.  1.
          2   -1    0    0  502    0  0.00000000000E+00 -0.00000000000E+00 -0.16077642312E+04  0.16077642312E+04  0.00000000000E+00 0. -1.
          6    1    1    2  502    0  0.27345296057E+02  0.59076349267E+02 -0.98817629387E+03  0.10051438544E+04  0.17200000000E+03 0. -1.
         -6    1    1    2    0  501 -0.27345296057E+02 -0.59076349267E+02 -0.59726781677E+03  0.62494049734E+03  0.17200000000E+03 0.  1.
</event>
<event>
 4    1  0.1054668E+000  0.2402046E+03  0.7818608E-02  0.1119657E+00
          2   -1    0    0  502    0  0.00000000000E+00  0.00000000000E+00  0.38059598738E+03  0.38059598738E+03  0.00000000000E+00 0.  1.
         -2   -1    0    0    0  501 -0.00000000000E+00 -0.00000000000E+00 -0.15702339796E+03  0.15702339796E+03  0.00000000000E+00 0. -1.
          6    1    1    2  502    0  0.14583655960E+03 -0.82740192753E+02  0.61827718240E+02  0.24803408708E+03  0.17200000000E+03 0. -1.
         -6    1    1    2    0  501 -0.14583655960E+03  0.82740192753E+02  0.16174487118E+03  0.28958529825E+03  0.17200000000E+03 0. -1.
</event>
<event>
 4    1  0.1054668E+000  0.1934728E+03  0.7818608E-02  0.1155366E+00
         -3   -1    0    0    0  501 -0.00000000000E+00  0.00000000000E+00  0.20956861331E+03  0.20956861331E+03  0.00000000000E+00 0. -1.
          3   -1    0    0  502    0  0.00000000000E+00 -0.00000000000E+00 -0.18157049266E+03  0.18157049266E+03  0.00000000000E+00 0.  1.
          6    1    1    2  502    0  0.81150466033E+01  0.88214859516E+02 -0.10959963159E+02  0.19378296162E+03  0.17200000000E+03 0.  1.
         -6    1    1    2    0  501 -0.81150466033E+01 -0.88214859516E+02  0.38958083815E+02  0.19735614436E+03  0.17200000000E+03 0. -1.
</event>
<event>
 4    1  0.1054668E+000  0.1833473E+03  0.7818608E-02  0.1164602E+00
         -2   -1    0    0    0  501 -0.00000000000E+00  0.00000000000E+00  0.24882149205E+02  0.24882149205E+02  0.00000000000E+00 0.  1.
          2   -1    0    0  502    0  0.00000000000E+00 -0.00000000000E+00 -0.14799277335E+04  0.14799277335E+04  0.00000000000E+00 0. -1.
          6    1    1    2  502    0 -0.17677743548E+02 -0.60989643464E+02 -0.94958451952E+03  0.96712305264E+03  0.17200000000E+03 0. -1.
         -6    1    1    2    0  501  0.17677743548E+02  0.60989643464E+02 -0.50546106477E+03  0.53768683007E+03  0.17200000000E+03 0.  1.
</event>
<event>
 4    1  0.1054668E+000  0.2298671E+03  0.7818608E-02  0.1126733E+00
         -3   -1    0    0    0  501 -0.00000000000E+00  0.00000000000E+00  0.33739209895E+02  0.33739209895E+02  0.00000000000E+00 0. -1.
          3   -1    0    0  502    0  0.00000000000E+00 -0.00000000000E+00 -0.15926373602E+04  0.15926373602E+04  0.00000000000E+00 0.  1.
          6    1    1    2  502    0 -0.86433318539E+02 -0.12563507135E+03 -0.88442328176E+03  0.91380710822E+03  0.17200000000E+03 0.  1.
         -6    1    1    2    0  501  0.86433318539E+02  0.12563507135E+03 -0.67447486856E+03  0.71256946190E+03  0.17200000000E+03 0. -1.
</event>
<event>
 4    1  0.1054668E+000  0.2016382E+03  0.7818608E-02  0.1148364E+00
          2   -1    0    0  502    0  0.00000000000E+00  0.00000000000E+00  0.19139406409E+04  0.19139406409E+04  0.00000000000E+00 0. -1.
         -2   -1    0    0    0  501 -0.00000000000E+00 -0.00000000000E+00 -0.13871905554E+03  0.13871905554E+03  0.00000000000E+00 0.  1.
          6    1    1    2  502    0  0.89997250679E+02 -0.54538744716E+02 -0.56870677176E+02  0.20950478211E+03  0.17200000000E+03 0.  1.
         -6    1    1    2    0  501 -0.89997250679E+02  0.54538744716E+02  0.18320922626E+04  0.18431549144E+04  0.17200000000E+03 0. -1.
</event>
<event>
 4    1  0.1054668E+000  0.1741131E+03  0.7818608E-02  0.1173625E+00
         -4   -1    0    0    0  501 -0.00000000000E+00  0.00000000000E+00  0.86554228456E+02  0.86554228456E+02  0.00000000000E+00 0. -1.
          4   -1    0    0  502    0  0.00000000000E+00 -0.00000000000E+00 -0.36302469108E+03  0.36302469108E+03  0.00000000000E+00 0.  1.
          6    1    1    2  502    0  0.21489943671E+02 -0.16417895215E+02 -0.18040807188E+03  0.25072382687E+03  0.17200000000E+03 0.  1.
         -6    1    1    2    0  501 -0.21489943671E+02  0.16417895215E+02 -0.96062390740E+02  0.19885509266E+03  0.17200000000E+03 0. -1.
</event>
<event>
 4    1  0.1054668E+000  0.2036114E+03  0.7818608E-02  0.1146727E+00
          1   -1    0    0  502    0  0.00000000000E+00  0.00000000000E+00  0.39093887376E+03  0.39093887376E+03  0.00000000000E+00 0. -1.
         -1   -1    0    0    0  501 -0.00000000000E+00 -0.00000000000E+00 -0.10687260413E+03  0.10687260413E+03  0.00000000000E+00 0.  1.
          6    1    1    2  502    0 -0.10725588157E+03 -0.19229768139E+02  0.12014642910E+03  0.23641652341E+03  0.17200000000E+03 0.  1.
         -6    1    1    2    0  501  0.10725588157E+03  0.19229768139E+02  0.16391984053E+03  0.26139495449E+03  0.17200000000E+03 0. -1.
</event>
<event>
 4    1  0.1054668E+000  0.2133273E+03  0.7818608E-02  0.1138958E+00
         -2   -1    0    0    0  501 -0.00000000000E+00  0.00000000000E+00  0.19141222956E+02  0.19141222956E+02  0.00000000000E+00 0. -1.
          2   -1    0    0  502    0  0.00000000000E+00 -0.00000000000E+00 -0.26086477934E+04  0.26086477934E+04  0.00000000000E+00 0.  1.
          6    1    1    2  502    0  0.32699714737E+02 -0.12188223285E+03 -0.16858492152E+04  0.16992928312E+04  0.17200000000E+03 0.  1.
         -6    1    1    2    0  501 -0.32699714737E+02  0.12188223285E+03 -0.90365735530E+03  0.92849618514E+03  0.17200000000E+03 0. -1.
</event>
<event>
 4    1  0.1054668E+000  0.1938850E+03  0.7818608E-02  0.1155003E+00
         -2   -1    0    0    0  501 -0.00000000000E+00  0.00000000000E+00  0.30792049293E+02  0.30792049293E+02  0.00000000000E+00 0. -1.
          2   -1    0    0  502    0  0.00000000000E+00 -0.00000000000E+00 -0.13326861617E+04  0.13326861617E+04  0.00000000000E+00 0.  1.
          6    1    1    2  502    0 -0.25387208197E+02 -0.85807333626E+02 -0.45342640666E+03  0.49313985349E+03  0.17200000000E+03 0.  1.
         -6    1    1    2    0  501  0.25387208197E+02  0.85807333626E+02 -0.84846770571E+03  0.87033835746E+03  0.17200000000E+03 0.  1.
</event>
<event>
 4    1  0.1054668E+000  0.2330273E+03  0.7818608E-02  0.1124527E+00
         -1   -1    0    0    0  501 -0.00000000000E+00  0.00000000000E+00  0.50449433048E+03  0.50449433048E+03  0.00000000000E+00 0.  1.
          1   -1    0    0  502    0  0.00000000000E+00 -0.00000000000E+00 -0.15254612096E+03  0.15254612096E+03  0.00000000000E+00 0. -1.
          6    1    1    2  502    0  0.14360466538E+03 -0.63995376767E+02 -0.22777503667E+01  0.23303840094E+03  0.17200000000E+03 0. -1.
         -6    1    1    2    0  501 -0.14360466538E+03  0.63995376767E+02  0.35422595989E+03  0.42400205049E+03  0.17200000000E+03 0.  1.
</event>
<event>
 4    1  0.1054668E+000  0.2332389E+03  0.7818608E-02  0.1124381E+00
          2   -1    0    0  502    0  0.00000000000E+00  0.00000000000E+00  0.87109063218E+03  0.87109063218E+03  0.00000000000E+00 0. -1.
         -2   -1    0    0    0  501 -0.00000000000E+00 -0.00000000000E+00 -0.62808231938E+02  0.62808231938E+02  0.00000000000E+00 0.  1.
          6    1    1    2  502    0  0.14870330263E+03  0.51997073664E+02  0.43936333518E+03  0.49743392343E+03  0.17200000000E+03 0.  1.
         -6    1    1    2    0  501 -0.14870330263E+03 -0.51997073664E+02  0.36891906507E+03  0.43646494069E+03  0.17200000000E+03 0.  1.
</event>
<event>
 4    1  0.1054668E+000  0.3119052E+03  0.7818608E-02  0.1079436E+00
          3   -1    0    0  502    0  0.00000000000E+00  0.00000000000E+00  0.44151242078E+03  0.44151242078E+03  0.00000000000E+00 0. -1.
         -3   -1    0    0    0  501 -0.00000000000E+00 -0.00000000000E+00 -0.26467757625E+03  0.26467757625E+03  0.00000000000E+00 0.  1.
          6    1    1    2  502    0  0.17254088349E+03 -0.19475748975E+03 -0.56092243151E+02  0.31690878188E+03  0.17200000000E+03 0.  1.
         -6    1    1    2    0  501 -0.17254088349E+03  0.19475748975E+03  0.23292708768E+03  0.38928121515E+03  0.17200000000E+03 0.  1.
</event>
<event>
 4    1  0.1054668E+000  0.1995742E+03  0.7818608E-02  0.1150099E+00
          2   -1    0    0  502    0  0.00000000000E+00  0.00000000000E+00  0.13073096701E+04  0.13073096701E+04  0.00000000000E+00 0. -1.
         -2   -1    0    0    0  501 -0.00000000000E+00 -0.00000000000E+00 -0.32658764756E+02  0.32658764756E+02  0.00000000000E+00 0.  1.
          6    1    1    2  502    0 -0.93550761511E+02  0.38653781211E+02  0.81088855958E+03  0.83508689119E+03  0.17200000000E+03 0. -1.
         -6    1    1    2    0  501  0.93550761511E+02 -0.38653781211E+02  0.46376234572E+03  0.50488154362E+03  0.17200000000E+03 0.  1.
</event>
<event>
 4    1  0.1054668E+000  0.2101564E+03  0.7818608E-02  0.1141442E+00
         -2   -1    0    0    0  501 -0.00000000000E+00  0.00000000000E+00  0.86515773404E+02  0.86515773404E+02  0.00000000000E+00 0.  1.
          2   -1    0    0  502    0  0.00000000000E+00 -0.00000000000E+00 -0.53903741259E+03  0.53903741259E+03  0.00000000000E+00 0. -1.
          6    1    1    2  502    0  0.13183351403E+02  0.12003296890E+03 -0.29823617069E+03  0.36484315518E+03  0.17200000000E+03 0.  1.
         -6    1    1    2    0  501 -0.13183351403E+02 -0.12003296890E+03 -0.15428546850E+03  0.26071003081E+03  0.17200000000E+03 0. -1.
</event>
<event>
 4    1  0.1054668E+000  0.1750643E+03  0.7818608E-02  0.1172667E+00
         -4   -1    0    0    0  501 -0.00000000000E+00  0.00000000000E+00  0.19375423241E+03  0.19375423241E+03  0.00000000000E+00 0.  1.
          4   -1    0    0  502    0  0.00000000000E+00 -0.00000000000E+00 -0.30690405673E+03  0.30690405673E+03  0.00000000000E+00 0. -1.
          6    1    1    2  502    0  0.32201442560E+02  0.51555000325E+01  0.11768790244E+03  0.21094538266E+03  0.17200000000E+03 0.  1.
         -6    1    1    2    0  501 -0.32201442560E+02 -0.51555000325E+01 -0.23083772676E+03  0.28971290648E+03  0.17200000000E+03 0. -1.
</event>
<event>
 4    1  0.1054668E+000  0.2316717E+03  0.7818608E-02  0.1125469E+00
         -2   -1    0    0    0  501 -0.00000000000E+00  0.00000000000E+00  0.27551836484E+03  0.27551836484E+03  0.00000000000E+00 0. -1.
          2   -1    0    0  502    0  0.00000000000E+00 -0.00000000000E+00 -0.27736684600E+03  0.27736684600E+03  0.00000000000E+00 0.  1.
          6    1    1    2  502    0 -0.14342079764E+03 -0.59314862635E+02 -0.15174909271E+03  0.27694686361E+03  0.17200000000E+03 0.  1.
         -6    1    1    2    0  501  0.14342079764E+03  0.59314862635E+02  0.14990061155E+03  0.27593834722E+03  0.17200000000E+03 0. -1.
</event>
<event>
 4    1  0.1054668E+000  0.2011184E+03  0.7818608E-02  0.1148799E+00
         -2   -1    0    0    0  501 -0.00000000000E+00  0.00000000000E+00  0.56555175722E+02  0.56555175722E+02  0.00000000000E+00 0. -1.
          2   -1    0    0  502    0  0.00000000000E+00 -0.00000000000E+00 -0.73232860413E+03  0.73232860413E+03  0.00000000000E+00 0.  1.
          6    1    1    2  502    0  0.38548642413E+02  0.96843137053E+02 -0.27757284659E+03  0.34277583957E+03  0.17200000000E+03 0. -1.
         -6    1    1    2    0  501 -0.38548642413E+02 -0.96843137053E+02 -0.39820058181E+03  0.44610794028E+03  0.17200000000E+03 0.  1.
</event>
<event>
 4    1  0.1054668E+000  0.1969549E+03  0.7818608E-02  0.1152334E+00
          2   -1    0    0  502    0  0.00000000000E+00  0.00000000000E+00  0.17764715718E+03  0.17764715718E+03  0.00000000000E+00 0. -1.
         -2   -1    0    0    0  501 -0.00000000000E+00 -0.00000000000E+00 -0.21845459423E+03  0.21845459423E+03  0.00000000000E+00 0.  1.
          6    1    1    2  502    0  0.88235990060E+02 -0.37704535677E+02 -0.24501758428E+02  0.19847306648E+03  0.17200000000E+03 0. -1.
         -6    1    1    2    0  501 -0.88235990060E+02  0.37704535677E+02 -0.16305678622E+02  0.19762868493E+03  0.17200000000E+03 0. -1.
</event>
<event>
 4    1  0.1054668E+000  0.1886229E+03  0.7818608E-02  0.1159709E+00
          2   -1    0    0  502    0  0.00000000000E+00  0.00000000000E+00  0.41509088020E+03  0.41509088020E+03  0.00000000000E+00 0. -1.
         -2   -1    0    0    0  501 -0.00000000000E+00 -0.00000000000E+00 -0.88178636743E+02  0.88178636743E+02  0.00000000000E+00 0.  1.
          6    1    1    2  502    0 -0.22910539440E+02  0.73957436369E+02  0.12137643922E+03  0.22430076952E+03  0.17200000000E+03 0. -1.
         -6    1    1    2    0  501  0.22910539440E+02 -0.73957436369E+02  0.20553580424E+03  0.27896874742E+03  0.17200000000E+03 0. -1.
</event>
<event>
 4    1  0.1054668E+000  0.2426541E+03  0.7818608E-02  0.1118037E+00
         -1   -1    0    0    0  501 -0.00000000000E+00  0.00000000000E+00  0.64464138962E+02  0.64464138962E+02  0.00000000000E+00 0.  1.
          1   -1    0    0  502    0  0.00000000000E+00 -0.00000000000E+00 -0.12645150312E+04  0.12645150312E+04  0.00000000000E+00 0. -1.
          6    1    1    2  502    0  0.11366549453E+03 -0.12797325878E+03 -0.95017704918E+03  0.98067192496E+03  0.17200000000E+03 0. -1.
         -6    1    1    2    0  501 -0.11366549453E+03  0.12797325878E+03 -0.24987384302E+03  0.34830724517E+03  0.17200000000E+03 0.  1.
</event>
<event>
 4    1  0.1054668E+000  0.2409900E+03  0.7818608E-02  0.1119135E+00
         -1   -1    0    0    0  501 -0.00000000000E+00  0.00000000000E+00  0.25555734679E+02  0.25555734679E+02  0.00000000000E+00 0. -1.
          1   -1    0    0  502    0  0.00000000000E+00 -0.00000000000E+00 -0.23215380564E+04  0.23215380564E+04  0.00000000000E+00 0.  1.
          6    1    1    2  502    0  0.26859891043E+02 -0.16664556095E+03 -0.97748412789E+03  0.10067529076E+04  0.17200000000E+03 0. -1.
         -6    1    1    2    0  501 -0.26859891043E+02  0.16664556095E+03 -0.13184981938E+04  0.13403408835E+04  0.17200000000E+03 0.  1.
</event>
<event>
 4    1  0.1054668E+000  0.1788345E+03  0.7818608E-02  0.1168936E+00
         -2   -1    0    0    0  501 -0.00000000000E+00  0.00000000000E+00  0.32956987102E+02  0.32956987102E+02  0.00000000000E+00 0.  1.
          2   -1    0    0  502    0  0.00000000000E+00 -0.00000000000E+00 -0.14959226583E+04  0.14959226583E+04  0.00000000000E+00 0. -1.
          6    1    1    2  502    0 -0.42150383655E+02 -0.24922159072E+02 -0.11845687772E+04  0.11979920520E+04  0.17200000000E+03 0. -1.
         -6    1    1    2    0  501  0.42150383655E+02  0.24922159072E+02 -0.27839689407E+03  0.33088759342E+03  0.17200000000E+03 0.  1.
</event>
<event>
 4    1  0.1054668E+000  0.1890736E+03  0.7818608E-02  0.1159300E+00
         -1   -1    0    0    0  501 -0.00000000000E+00  0.00000000000E+00  0.47194866241E+02  0.47194866241E+02  0.00000000000E+00 0.  1.
          1   -1    0    0  502    0  0.00000000000E+00 -0.00000000000E+00 -0.10085149309E+04  0.10085149309E+04  0.00000000000E+00 0. -1.
          6    1    1    2  502    0  0.59261661917E+02  0.51506094789E+02 -0.74401819886E+03  0.76766653087E+03  0.17200000000E+03 0. -1.
         -6    1    1    2    0  501 -0.59261661917E+02 -0.51506094789E+02 -0.21730186584E+03  0.28804326632E+03  0.17200000000E+03 0.  1.
</event>
<event>
 4    1  0.1054668E+000  0.2017481E+03  0.7818608E-02  0.1148272E+00
         -1   -1    0    0    0  501 -0.00000000000E+00  0.00000000000E+00  0.75718646901E+02  0.75718646901E+02  0.00000000000E+00 0.  1.
          1   -1    0    0  502    0  0.00000000000E+00 -0.00000000000E+00 -0.83195282971E+03  0.83195282971E+03  0.00000000000E+00 0. -1.
          6    1    1    2  502    0 -0.61151518288E+01  0.10526588680E+03 -0.10814253847E+03  0.22890415163E+03  0.17200000000E+03 0.  1.
         -6    1    1    2    0  501  0.61151518288E+01 -0.10526588680E+03 -0.64809164433E+03  0.67876732498E+03  0.17200000000E+03 0. -1.
</event>
<event>
 4    1  0.1054668E+000  0.1981001E+03  0.7818608E-02  0.1151352E+00
          4   -1    0    0  502    0  0.00000000000E+00  0.00000000000E+00  0.20444638391E+03  0.20444638391E+03  0.00000000000E+00 0.  1.
         -4   -1    0    0    0  501 -0.00000000000E+00 -0.00000000000E+00 -0.20390068445E+03  0.20390068445E+03  0.00000000000E+00 0. -1.
          6    1    1    2  502    0 -0.57272471017E+02 -0.79871974945E+02 -0.49154811125E+02  0.20410748094E+03  0.17200000000E+03 0. -1.
         -6    1    1    2    0  501  0.57272471017E+02  0.79871974945E+02  0.49700510578E+02  0.20423958742E+03  0.17200000000E+03 0.  1.
</event>
<event>
 4    1  0.1054668E+000  0.3157828E+03  0.7818608E-02  0.1077607E+00
         -3   -1    0    0    0  501 -0.00000000000E+00  0.00000000000E+00  0.16058793626E+04  0.16058793626E+04  0.00000000000E+00 0.  1.
          3   -1    0    0  502    0  0.00000000000E+00 -0.00000000000E+00 -0.78371047527E+02  0.78371047527E+02  0.00000000000E+00 0. -1.
          6    1    1    2  502    0 -0.12285988334E+03 -0.23460651905E+03  0.37999454381E+03  0.49407957157E+03  0.17200000000E+03 0.  1.
         -6    1    1    2    0  501  0.12285988334E+03  0.23460651905E+03  0.11475137712E+04  0.11901708385E+04  0.17200000000E+03 0.  1.
</event>
<event>
 4    1  0.1054668E+000  0.1914500E+03  0.7818608E-02  0.1157160E+00
         -1   -1    0    0    0  501 -0.00000000000E+00  0.00000000000E+00  0.16659276462E+02  0.16659276462E+02  0.00000000000E+00 0.  1.
          1   -1    0    0  502    0  0.00000000000E+00 -0.00000000000E+00 -0.22062719511E+04  0.22062719511E+04  0.00000000000E+00 0. -1.
          6    1    1    2  502    0 -0.15394467520E+01 -0.84063768319E+02 -0.11533025828E+04  0.11690850844E+04  0.17200000000E+03 0.  1.
         -6    1    1    2    0  501  0.15394467520E+01  0.84063768319E+02 -0.10363100918E+04  0.10538461431E+04  0.17200000000E+03 0.  1.
</event>
<event>
 4    1  0.1054668E+000  0.2124671E+03  0.7818608E-02  0.1139627E+00
          1   -1    0    0  502    0  0.00000000000E+00  0.00000000000E+00  0.16721314498E+04  0.16721314498E+04  0.00000000000E+00 0. -1.
         -1   -1    0    0    0  501 -0.00000000000E+00 -0.00000000000E+00 -0.34347153238E+02  0.34347153238E+02  0.00000000000E+00 0.  1.
          6    1    1    2  502    0  0.12071287365E+03 -0.31411406275E+02  0.42418204731E+03  0.47441825805E+03  0.17200000000E+03 0.  1.
         -6    1    1    2    0  501 -0.12071287365E+03  0.31411406275E+02  0.12136022493E+04  0.12320603450E+04  0.17200000000E+03 0.  1.
</event>
<event>
 4    1  0.1054668E+000  0.2488023E+03  0.7818608E-02  0.1114064E+00
         -1   -1    0    0    0  501 -0.00000000000E+00  0.00000000000E+00  0.19695290587E+03  0.19695290587E+03  0.00000000000E+00 0. -1.
          1   -1    0    0  502    0  0.00000000000E+00 -0.00000000000E+00 -0.48179147116E+03  0.48179147116E+03  0.00000000000E+00 0.  1.
          6    1    1    2  502    0  0.28911261782E+02 -0.17743372429E+03  0.57677976448E+02  0.25540034562E+03  0.17200000000E+03 0. -1.
         -6    1    1    2    0  501 -0.28911261782E+02  0.17743372429E+03 -0.34251654174E+03  0.42334403142E+03  0.17200000000E+03 0.  1.
</event>
<event>
 4    1  0.1054668E+000  0.1764541E+03  0.7818608E-02  0.1171280E+00
          1   -1    0    0  502    0  0.00000000000E+00  0.00000000000E+00  0.16705603477E+04  0.16705603477E+04  0.00000000000E+00 0.  1.
         -1   -1    0    0    0  501 -0.00000000000E+00 -0.00000000000E+00 -0.39383376541E+02  0.39383376541E+02  0.00000000000E+00 0. -1.
          6    1    1    2  502    0 -0.12891529520E+02  0.37227090779E+02  0.19506945346E+03  0.26303638435E+03  0.17200000000E+03 0. -1.
         -6    1    1    2    0  501  0.12891529520E+02 -0.37227090779E+02  0.14361075177E+04  0.14469073399E+04  0.17200000000E+03 0.  1.
</event>
<event>
 4    1  0.1054668E+000  0.3353970E+03  0.7818608E-02  0.1068774E+00
          2   -1    0    0  502    0  0.00000000000E+00  0.00000000000E+00  0.19201494373E+03  0.19201494373E+03  0.00000000000E+00 0.  1.
         -2   -1    0    0    0  501 -0.00000000000E+00 -0.00000000000E+00 -0.62199762207E+03  0.62199762207E+03  0.00000000000E+00 0. -1.
          6    1    1    2  502    0 -0.27529243957E+03 -0.84387203666E+02 -0.11686795903E+03  0.35517495305E+03  0.17200000000E+03 0.  1.
         -6    1    1    2    0  501  0.27529243957E+03  0.84387203666E+02 -0.31311471931E+03  0.45883761275E+03  0.17200000000E+03 0. -1.
</event>
<event>
 4    1  0.1054668E+000  0.1842973E+03  0.7818608E-02  0.1163708E+00
          1   -1    0    0  502    0  0.00000000000E+00  0.00000000000E+00  0.93659237950E+03  0.93659237950E+03  0.00000000000E+00 0.  1.
         -1   -1    0    0    0  501 -0.00000000000E+00 -0.00000000000E+00 -0.36614521273E+02  0.36614521273E+02  0.00000000000E+00 0. -1.
          6    1    1    2  502    0  0.52241203955E+02  0.40648922680E+02  0.49753500933E+03  0.53057192144E+03  0.17200000000E+03 0.  1.
         -6    1    1    2    0  501 -0.52241203955E+02 -0.40648922680E+02  0.40244284890E+03  0.44263497934E+03  0.17200000000E+03 0. -1.
</event>
<event>
 4    1  0.1054668E+000  0.1949344E+03  0.7818608E-02  0.1154085E+00
          2   -1    0    0  502    0  0.00000000000E+00  0.00000000000E+00  0.52386176575E+04  0.52386176575E+04  0.00000000000E+00 0. -1.
         -2   -1    0    0    0  501 -0.00000000000E+00 -0.00000000000E+00 -0.78050152047E+01  0.78050152047E+01  0.00000000000E+00 0.  1.
          6    1    1    2  502    0 -0.91568572811E+02 -0.55343058702E+01  0.19182325530E+04  0.19281119157E+04  0.17200000000E+03 0. -1.
         -6    1    1    2    0  501  0.91568572811E+02  0.55343058702E+01  0.33125800893E+04  0.33183107570E+04  0.17200000000E+03 0.  1.
</event>
<event>
 4    1  0.1054668E+000  0.4177532E+03  0.7818608E-02  0.1037800E+00
         -1   -1    0    0    0  501 -0.00000000000E+00  0.00000000000E+00  0.23389274598E+03  0.23389274598E+03  0.00000000000E+00 0. -1.
          1   -1    0    0  502    0  0.00000000000E+00 -0.00000000000E+00 -0.76973471608E+03  0.76973471608E+03  0.00000000000E+00 0.  1.
          6    1    1    2  502    0 -0.56774769605E+02  0.37644440006E+03 -0.18007155369E+03  0.45491045850E+03  0.17200000000E+03 0. -1.
         -6    1    1    2    0  501  0.56774769605E+02 -0.37644440006E+03 -0.35577041642E+03  0.54871700356E+03  0.17200000000E+03 0. -1.
</event>
<event>
 4    1  0.1054668E+000  0.2465177E+03  0.7818608E-02  0.1115526E+00
          2   -1    0    0  502    0  0.00000000000E+00  0.00000000000E+00  0.10809569507E+04  0.10809569507E+04  0.00000000000E+00 0.  1.
         -2   -1    0    0    0  501 -0.00000000000E+00 -0.00000000000E+00 -0.81348749054E+02  0.81348749054E+02  0.00000000000E+00 0. -1.
          6    1    1    2  502    0 -0.17198881432E+03  0.40085289540E+02  0.17680322402E+03  0.30336506508E+03  0.17200000000E+03 0. -1.
         -6    1    1    2    0  501  0.17198881432E+03 -0.40085289540E+02  0.82280497767E+03  0.85894063472E+03  0.17200000000E+03 0.  1.
</event>
<event>
 4    1  0.1054668E+000  0.2455016E+03  0.7818608E-02  0.1116181E+00
         -2   -1    0    0    0  501 -0.00000000000E+00  0.00000000000E+00  0.14827776583E+03  0.14827776583E+03  0.00000000000E+00 0.  1.
          2   -1    0    0  502    0  0.00000000000E+00 -0.00000000000E+00 -0.41753707368E+03  0.41753707368E+03  0.00000000000E+00 0. -1.
          6    1    1    2  502    0  0.17517596351E+03  0.63923297395E+00 -0.18068061095E+03  0.30482209563E+03  0.17200000000E+03 0. -1.
         -6    1    1    2    0  501 -0.17517596351E+03 -0.63923297395E+00 -0.88578696890E+02  0.26099274387E+03  0.17200000000E+03 0.  1.
</event>
<event>
 4    1  0.1054668E+000  0.2187476E+03  0.7818608E-02  0.1134820E+00
         -1   -1    0    0    0  501 -0.00000000000E+00  0.00000000000E+00  0.30120082414E+03  0.30120082414E+03  0.00000000000E+00 0.  1.
          1   -1    0    0  502    0  0.00000000000E+00 -0.00000000000E+00 -0.15910024510E+03  0.15910024510E+03  0.00000000000E+00 0. -1.
          6    1    1    2  502    0  0.10818790873E+03 -0.81005389545E+02  0.62214657783E+02  0.22742286687E+03  0.17200000000E+03 0.  1.
         -6    1    1    2    0  501 -0.10818790873E+03  0.81005389545E+02  0.79885921256E+02  0.23287820238E+03  0.17200000000E+03 0.  1.
</event>
<event>
 4    1  0.1054668E+000  0.1802140E+03  0.7818608E-02  0.1167596E+00
         -2   -1    0    0    0  501 -0.00000000000E+00  0.00000000000E+00  0.20481528276E+03  0.20481528276E+03  0.00000000000E+00 0.  1.
          2   -1    0    0  502    0  0.00000000000E+00 -0.00000000000E+00 -0.16215460745E+03  0.16215460745E+03  0.00000000000E+00 0. -1.
          6    1    1    2  502    0 -0.53785913473E+02 -0.39718892438E+00 -0.59592936405E+01  0.18031249382E+03  0.17200000000E+03 0. -1.
         -6    1    1    2    0  501  0.53785913473E+02  0.39718892438E+00  0.48619968950E+02  0.18665739639E+03  0.17200000000E+03 0.  1.
</event>
<event>
 4    1  0.1054668E+000  0.1846895E+03  0.7818608E-02  0.1163340E+00
          2   -1    0    0  502    0  0.00000000000E+00  0.00000000000E+00  0.25817800503E+04  0.25817800503E+04  0.00000000000E+00 0.  1.
         -2   -1    0    0    0  501 -0.00000000000E+00 -0.00000000000E+00 -0.13213381226E+02  0.13213381226E+02  0.00000000000E+00 0. -1.
          6    1    1    2  502    0 -0.55891840707E+02  0.37447413019E+02  0.12705219923E+04  0.12838755156E+04  0.17200000000E+03 0.  1.
         -6    1    1    2    0  501  0.55891840707E+02 -0.37447413019E+02  0.12980446768E+04  0.13111179160E+04  0.17200000000E+03 0.  1.
</event>
<event>
 4    1  0.1054668E+000  0.1871920E+03  0.7818608E-02  0.1161019E+00
         -2   -1    0    0    0  501 -0.00000000000E+00  0.00000000000E+00  0.26790022902E+02  0.26790022902E+02  0.00000000000E+00 0. -1.
          2   -1    0    0  502    0  0.00000000000E+00 -0.00000000000E+00 -0.13392977555E+04  0.13392977555E+04  0.00000000000E+00 0.  1.
          6    1    1    2  502    0 -0.42337288990E+01  0.73748969475E+02 -0.76070182812E+03  0.78339524269E+03  0.17200000000E+03 0.  1.
         -6    1    1    2    0  501  0.42337288990E+01 -0.73748969475E+02 -0.55180590443E+03  0.58269253567E+03  0.17200000000E+03 0. -1.
</event>
<event>
 4    1  0.1054668E+000  0.1729236E+03  0.7818608E-02  0.1174833E+00
         -2   -1    0    0    0  501 -0.00000000000E+00  0.00000000000E+00  0.49863140351E+02  0.49863140351E+02  0.00000000000E+00 0.  1.
          2   -1    0    0  502    0  0.00000000000E+00 -0.00000000000E+00 -0.65185053907E+03  0.65185053907E+03  0.00000000000E+00 0. -1.
          6    1    1    2  502    0  0.67274415391E+01 -0.16532335016E+02 -0.40024002797E+03  0.43599845936E+03  0.17200000000E+03 0. -1.
         -6    1    1    2    0  501 -0.67274415391E+01  0.16532335016E+02 -0.20174737075E+03  0.26571522007E+03  0.17200000000E+03 0.  1.
</event>
<event>
 4    1  0.1054668E+000  0.1920313E+03  0.7818608E-02  0.1156642E+00
         -2   -1    0    0    0  501 -0.00000000000E+00  0.00000000000E+00  0.59822845017E+02  0.59822845017E+02  0.00000000000E+00 0.  1.
          2   -1    0    0  502    0  0.00000000000E+00 -0.00000000000E+00 -0.10304276787E+04  0.10304276787E+04  0.00000000000E+00 0. -1.
          6    1    1    2  502    0 -0.11911670341E+02  0.84558468290E+02 -0.83083701154E+03  0.85274038381E+03  0.17200000000E+03 0. -1.
         -6    1    1    2    0  501  0.11911670341E+02 -0.84558468290E+02 -0.13976782215E+03  0.23751013991E+03  0.17200000000E+03 0.  1.
</event>
<event>
 4    1  0.1054668E+000  0.2275156E+03  0.7818608E-02  0.1128401E+00
         -2   -1    0    0    0  501 -0.00000000000E+00  0.00000000000E+00  0.45656789685E+02  0.45656789685E+02  0.00000000000E+00 0.  1.
          2   -1    0    0  502    0  0.00000000000E+00 -0.00000000000E+00 -0.11339831383E+04  0.11339831383E+04  0.00000000000E+00 0. -1.
          6    1    1    2  502    0 -0.14739956001E+03 -0.21277269152E+02 -0.53569301196E+03  0.58200546006E+03  0.17200000000E+03 0.  1.
         -6    1    1    2    0  501  0.14739956001E+03  0.21277269152E+02 -0.55263333669E+03  0.59763446796E+03  0.17200000000E+03 0. -1.
</event>
<event>
 4    1  0.1054668E+000  0.2210573E+03  0.7818608E-02  0.1133097E+00
         -1   -1    0    0    0  501 -0.00000000000E+00  0.00000000000E+00  0.16464208912E+02  0.16464208912E+02  0.00000000000E+00 0. -1.
          1   -1    0    0  502    0  0.00000000000E+00 -0.00000000000E+00 -0.29705761191E+04  0.29705761191E+04  0.00000000000E+00 0.  1.
          6    1    1    2  502    0 -0.11994318592E+03  0.69970995933E+02 -0.14333529113E+04  0.14502988921E+04  0.17200000000E+03 0. -1.
         -6    1    1    2    0  501  0.11994318592E+03 -0.69970995933E+02 -0.15207589990E+04  0.15367414360E+04  0.17200000000E+03 0.  1.
</event>
<event>
 4    1  0.1054668E+000  0.1762240E+03  0.7818608E-02  0.1171508E+00
         -1   -1    0    0    0  501 -0.00000000000E+00  0.00000000000E+00  0.11866101896E+04  0.11866101896E+04  0.00000000000E+00 0. -1.
          1   -1    0    0  502    0  0.00000000000E+00 -0.00000000000E+00 -0.28045047700E+02  0.28045047700E+02  0.00000000000E+00 0.  1.
          6    1    1    2  502    0 -0.24819297948E+02 -0.29238848164E+02  0.73627269027E+03  0.75706828109E+03  0.17200000000E+03 0. -1.
         -6    1    1    2    0  501  0.24819297948E+02  0.29238848164E+02  0.42229245164E+03  0.45758695622E+03  0.17200000000E+03 0.  1.
</event>
<event>
 4    1  0.1054668E+000  0.2258920E+03  0.7818608E-02  0.1129565E+00
         -1   -1    0    0    0  501 -0.00000000000E+00  0.00000000000E+00  0.10503660274E+04  0.10503660274E+04  0.00000000000E+00 0.  1.
          1   -1    0    0  502    0  0.00000000000E+00 -0.00000000000E+00 -0.60408707793E+02  0.60408707793E+02  0.00000000000E+00 0. -1.
          6    1    1    2  502    0  0.34840995489E+02  0.14222968873E+03  0.24922051205E+03  0.33635999012E+03  0.17200000000E+03 0. -1.
         -6    1    1    2    0  501 -0.34840995489E+02 -0.14222968873E+03  0.74073680753E+03  0.77441474505E+03  0.17200000000E+03 0.  1.
</event>
<event>
 4    1  0.1054668E+000  0.3502038E+03  0.7818608E-02  0.1062531E+00
          2   -1    0    0  502    0  0.00000000000E+00  0.00000000000E+00  0.54964377652E+03  0.54964377652E+03  0.00000000000E+00 0.  1.
         -2   -1    0    0    0  501 -0.00000000000E+00 -0.00000000000E+00 -0.23474365953E+03  0.23474365953E+03  0.00000000000E+00 0. -1.
          6    1    1    2  502    0 -0.18282946067E+03 -0.24419688324E+03  0.70220441473E+02  0.35717452299E+03  0.17200000000E+03 0. -1.
         -6    1    1    2    0  501  0.18282946067E+03  0.24419688324E+03  0.24467967551E+03  0.42721291306E+03  0.17200000000E+03 0.  1.
</event>
<event>
 4    1  0.1054668E+000  0.1899369E+03  0.7818608E-02  0.1158518E+00
         -1   -1    0    0    0  501 -0.00000000000E+00  0.00000000000E+00  0.10462414997E+03  0.10462414997E+03  0.00000000000E+00 0. -1.
          1   -1    0    0  502    0  0.00000000000E+00 -0.00000000000E+00 -0.39371239671E+03  0.39371239671E+03  0.00000000000E+00 0.  1.
          6    1    1    2  502    0  0.53538787343E+02 -0.60213092120E+02 -0.23235418595E+03  0.30010745732E+03  0.17200000000E+03 0. -1.
         -6    1    1    2    0  501 -0.53538787343E+02  0.60213092120E+02 -0.56734060796E+02  0.19822908936E+03  0.17200000000E+03 0. -1.
</event>
<event>
 4    1  0.1054668E+000  0.1841033E+03  0.7818608E-02  0.1163890E+00
          1   -1    0    0  502    0  0.00000000000E+00  0.00000000000E+00  0.24412918538E+03  0.24412918538E+03  0.00000000000E+00 0. -1.
         -1   -1    0    0    0  501 -0.00000000000E+00 -0.00000000000E+00 -0.13986886464E+03  0.13986886464E+03  0.00000000000E+00 0.  1.
          6    1    1    2  502    0 -0.63015039551E+02  0.18415686786E+02  0.68625556188E+02  0.19647773332E+03  0.17200000000E+03 0.  1.
         -6    1    1    2    0  501  0.63015039551E+02 -0.18415686786E+02  0.35634764557E+02  0.18752031670E+03  0.17200000000E+03 0.  1.
</event>
<event>
 4    1  0.1054668E+000  0.1784076E+03  0.7818608E-02  0.1169353E+00
         -2   -1    0    0    0  501 -0.00000000000E+00  0.00000000000E+00  0.11582817746E+02  0.11582817746E+02  0.00000000000E+00 0.  1.
          2   -1    0    0  502    0  0.00000000000E+00 -0.00000000000E+00 -0.32006903757E+04  0.32006903757E+04  0.00000000000E+00 0. -1.
          6    1    1    2  502    0 -0.43817352236E+02  0.18036791762E+02 -0.99050282574E+03  0.10064418185E+04  0.17200000000E+03 0.  1.
         -6    1    1    2    0  501  0.43817352236E+02 -0.18036791762E+02 -0.21986047323E+04  0.22058313750E+04  0.17200000000E+03 0. -1.
</event>
<event>
 4    1  0.1054668E+000  0.2336564E+03  0.7818608E-02  0.1124092E+00
         -1   -1    0    0    0  501 -0.00000000000E+00  0.00000000000E+00  0.41438365864E+02  0.41438365864E+02  0.00000000000E+00 0.  1.
          1   -1    0    0  502    0  0.00000000000E+00 -0.00000000000E+00 -0.13429939636E+04  0.13429939636E+04  0.00000000000E+00 0. -1.
          6    1    1    2  502    0 -0.15793127656E+03  0.83094632889E+01 -0.74613733412E+03  0.78186716049E+03  0.17200000000E+03 0. -1.
         -6    1    1    2    0  501  0.15793127656E+03 -0.83094632889E+01 -0.55541826366E+03  0.60256516901E+03  0.17200000000E+03 0.  1.
</event>
<event>
 4    1  0.1054668E+000  0.1918773E+03  0.7818608E-02  0.1156779E+00
          1   -1    0    0  502    0  0.00000000000E+00  0.00000000000E+00  0.98797209084E+02  0.98797209084E+02  0.00000000000E+00 0.  1.
         -1   -1    0    0    0  501 -0.00000000000E+00 -0.00000000000E+00 -0.44620067249E+03  0.44620067249E+03  0.00000000000E+00 0. -1.
          6    1    1    2  502    0  0.23191936750E+02 -0.81823113448E+02 -0.63067427451E+02  0.20197620709E+03  0.17200000000E+03 0.  1.
         -6    1    1    2    0  501 -0.23191936750E+02  0.81823113448E+02 -0.28433603595E+03  0.34302167449E+03  0.17200000000E+03 0. -1.
</event>
<event>
 4    1  0.1054668E+000  0.2425162E+03  0.7818608E-02  0.1118128E+00
         -2   -1    0    0    0  501 -0.00000000000E+00  0.00000000000E+00  0.75994586867E+02  0.75994586867E+02  0.00000000000E+00 0.  1.
          2   -1    0    0  502    0  0.00000000000E+00 -0.00000000000E+00 -0.83443036777E+03  0.83443036777E+03  0.00000000000E+00 0. -1.
          6    1    1    2  502    0 -0.13760993023E+03 -0.10145755651E+03 -0.50179664601E+03  0.55732755415E+03  0.17200000000E+03 0. -1.
         -6    1    1    2    0  501  0.13760993023E+03  0.10145755651E+03 -0.25663913490E+03  0.35309740049E+03  0.17200000000E+03 0.  1.
</event>
<event>
 4    1  0.1054668E+000  0.2027558E+03  0.7818608E-02  0.1147435E+00
          1   -1    0    0  502    0  0.00000000000E+00  0.00000000000E+00  0.36568144795E+02  0.36568144795E+02  0.00000000000E+00 0.  1.
         -1   -1    0    0    0  501 -0.00000000000E+00 -0.00000000000E+00 -0.12128042192E+04  0.12128042192E+04  0.00000000000E+00 0. -1.
          6    1    1    2  502    0 -0.48844124188E+02 -0.95604304599E+02 -0.75696459057E+03  0.78364872417E+03  0.17200000000E+03 0.  1.
         -6    1    1    2    0  501  0.48844124188E+02  0.95604304599E+02 -0.41927148380E+03  0.46572363978E+03  0.17200000000E+03 0.  1.
</event>
<event>
 4    1  0.1054668E+000  0.2245871E+03  0.7818608E-02  0.1130509E+00
         -2   -1    0    0    0  501 -0.00000000000E+00  0.00000000000E+00  0.44924894828E+03  0.44924894828E+03  0.00000000000E+00 0.  1.
          2   -1    0    0  502    0  0.00000000000E+00 -0.00000000000E+00 -0.13403089722E+03  0.13403089722E+03  0.00000000000E+00 0. -1.
          6    1    1    2  502    0 -0.64634125319E+02 -0.12914251039E+03  0.27510811779E+03  0.35513917641E+03  0.17200000000E+03 0. -1.
         -6    1    1    2    0  501  0.64634125319E+02  0.12914251039E+03  0.40109933268E+02  0.22814066909E+03  0.17200000000E+03 0. -1.
</event>
<event>
 4    1  0.1054668E+000  0.1854881E+03  0.7818608E-02  0.1162595E+00
          2   -1    0    0  502    0  0.00000000000E+00  0.00000000000E+00  0.33552690372E+03  0.33552690372E+03  0.00000000000E+00 0.  1.
         -2   -1    0    0    0  501 -0.00000000000E+00 -0.00000000000E+00 -0.22128705837E+03  0.22128705837E+03  0.00000000000E+00 0. -1.
          6    1    1    2  502    0 -0.66549937057E+02  0.19822955408E+02 -0.14682296130E+03  0.23656463313E+03  0.17200000000E+03 0. -1.
         -6    1    1    2    0  501  0.66549937057E+02 -0.19822955408E+02  0.26106280664E+03  0.32024932896E+03  0.17200000000E+03 0.  1.
</event>
<event>
 4    1  0.1054668E+000  0.1876014E+03  0.7818608E-02  0.1160643E+00
          1   -1    0    0  502    0  0.00000000000E+00  0.00000000000E+00  0.21498399914E+03  0.21498399914E+03  0.00000000000E+00 0.  1.
         -1   -1    0    0    0  501 -0.00000000000E+00 -0.00000000000E+00 -0.16383381866E+03  0.16383381866E+03  0.00000000000E+00 0. -1.
          6    1    1    2  502    0  0.66727442815E+02  0.34025580501E+02  0.20296281098E+02  0.18869613345E+03  0.17200000000E+03 0.  1.
         -6    1    1    2    0  501 -0.66727442815E+02 -0.34025580501E+02  0.30853899382E+02  0.19012168435E+03  0.17200000000E+03 0. -1.
</event>
<event>
 4    1  0.1054668E+000  0.2567530E+03  0.7818608E-02  0.1109110E+00
          2   -1    0    0  502    0  0.00000000000E+00  0.00000000000E+00  0.77475726557E+03  0.77475726557E+03  0.00000000000E+00 0.  1.
         -2   -1    0    0    0  501 -0.00000000000E+00 -0.00000000000E+00 -0.11312475467E+03  0.11312475467E+03  0.00000000000E+00 0. -1.
          6    1    1    2  502    0  0.49276055832E+02 -0.18414662788E+03  0.55182765245E+03  0.60863442906E+03  0.17200000000E+03 0.  1.
         -6    1    1    2    0  501 -0.49276055832E+02  0.18414662788E+03  0.10980485845E+03  0.27924759118E+03  0.17200000000E+03 0. -1.
</event>
<event>
 4    1  0.1054668E+000  0.1985092E+03  0.7818608E-02  0.1151003E+00
          1   -1    0    0  502    0  0.00000000000E+00  0.00000000000E+00  0.20851122462E+02  0.20851122462E+02  0.00000000000E+00 0. -1.
         -1   -1    0    0    0  501 -0.00000000000E+00 -0.00000000000E+00 -0.19810084439E+04  0.19810084439E+04  0.00000000000E+00 0.  1.
          6    1    1    2  502    0  0.98167571808E+02 -0.13601885229E+02 -0.76538739276E+03  0.79071091079E+03  0.17200000000E+03 0.  1.
         -6    1    1    2    0  501 -0.98167571808E+02  0.13601885229E+02 -0.11947699286E+04  0.12111486555E+04  0.17200000000E+03 0. -1.
</event>
<event>
 4    1  0.1054668E+000  0.1777374E+03  0.7818608E-02  0.1170011E+00
          1   -1    0    0  502    0  0.00000000000E+00  0.00000000000E+00  0.11527536066E+04  0.11527536066E+04  0.00000000000E+00 0. -1.
         -1   -1    0    0    0  501 -0.00000000000E+00 -0.00000000000E+00 -0.35581928074E+02  0.35581928074E+02  0.00000000000E+00 0.  1.
          6    1    1    2  502    0 -0.25305854190E+02 -0.36962037033E+02  0.84342785263E+03  0.86195192501E+03  0.17200000000E+03 0. -1.
         -6    1    1    2    0  501  0.25305854190E+02  0.36962037033E+02  0.27374382587E+03  0.32638360963E+03  0.17200000000E+03 0.  1.
</event>
<event>
 4    1  0.1054668E+000  0.2004723E+03  0.7818608E-02  0.1149341E+00
         -2   -1    0    0    0  501 -0.00000000000E+00  0.00000000000E+00  0.32854785736E+02  0.32854785736E+02  0.00000000000E+00 0.  1.
          2   -1    0    0  502    0  0.00000000000E+00 -0.00000000000E+00 -0.12846081450E+04  0.12846081450E+04  0.00000000000E+00 0. -1.
          6    1    1    2  502    0  0.91420418944E+02 -0.47407118405E+02 -0.76985988139E+03  0.79553338387E+03  0.17200000000E+03 0. -1.
         -6    1    1    2    0  501 -0.91420418944E+02  0.47407118405E+02 -0.48189347787E+03  0.52192954687E+03  0.17200000000E+03 0.  1.
</event>
<event>
 4    1  0.1054668E+000  0.1840200E+03  0.7818608E-02  0.1163968E+00
          1   -1    0    0  502    0  0.00000000000E+00  0.00000000000E+00  0.64486970401E+03  0.64486970401E+03  0.00000000000E+00 0.  1.
         -1   -1    0    0    0  501 -0.00000000000E+00 -0.00000000000E+00 -0.53720342445E+02  0.53720342445E+02  0.00000000000E+00 0. -1.
          6    1    1    2  502    0  0.64539871082E+02 -0.10675149253E+02  0.34796250039E+03  0.39362578097E+03  0.17200000000E+03 0. -1.
         -6    1    1    2    0  501 -0.64539871082E+02  0.10675149253E+02  0.24318686117E+03  0.30496426548E+03  0.17200000000E+03 0. -1.
</event>
<event>
 4    1  0.1054668E+000  0.1958409E+03  0.7818608E-02  0.1153296E+00
          2   -1    0    0  502    0  0.00000000000E+00  0.00000000000E+00  0.87323625838E+03  0.87323625838E+03  0.00000000000E+00 0.  1.
         -2   -1    0    0    0  501 -0.00000000000E+00 -0.00000000000E+00 -0.70486281600E+02  0.70486281600E+02  0.00000000000E+00 0. -1.
          6    1    1    2  502    0 -0.87120512939E+02 -0.34346180777E+02  0.69105401440E+03  0.71826826098E+03  0.17200000000E+03 0.  1.
         -6    1    1    2    0  501  0.87120512939E+02  0.34346180777E+02  0.11169596238E+03  0.22545427900E+03  0.17200000000E+03 0. -1.
</event>
<event>
 4    1  0.1054668E+000  0.1863520E+03  0.7818608E-02  0.1161793E+00
         -1   -1    0    0    0  501 -0.00000000000E+00  0.00000000000E+00  0.10531550171E+03  0.10531550171E+03  0.00000000000E+00 0.  1.
          1   -1    0    0  502    0  0.00000000000E+00 -0.00000000000E+00 -0.33784011913E+03  0.33784011913E+03  0.00000000000E+00 0. -1.
          6    1    1    2  502    0 -0.45865286640E+02 -0.55131279055E+02 -0.15056494709E+03  0.23957647159E+03  0.17200000000E+03 0.  1.
         -6    1    1    2    0  501  0.45865286640E+02  0.55131279055E+02 -0.81959670331E+02  0.20357914925E+03  0.17200000000E+03 0.  1.
</event>
<event>
 4    1  0.1054668E+000  0.1868752E+03  0.7818608E-02  0.1161310E+00
         -3   -1    0    0    0  501 -0.00000000000E+00  0.00000000000E+00  0.14258649083E+03  0.14258649083E+03  0.00000000000E+00 0. -1.
          3   -1    0    0  502    0  0.00000000000E+00 -0.00000000000E+00 -0.46427848757E+03  0.46427848757E+03  0.00000000000E+00 0.  1.
          6    1    1    2  502    0 -0.72616235799E+02  0.80753325485E+01 -0.36941497293E+03  0.41399245273E+03  0.17200000000E+03 0.  1.
         -6    1    1    2    0  501  0.72616235799E+02 -0.80753325485E+01  0.47722976191E+02  0.19287252566E+03  0.17200000000E+03 0. -1.
</event>
<event>
 4    1  0.1054668E+000  0.1843451E+03  0.7818608E-02  0.1163663E+00
          2   -1    0    0  502    0  0.00000000000E+00  0.00000000000E+00  0.83320590474E+03  0.83320590474E+03  0.00000000000E+00 0.  1.
         -2   -1    0    0    0  501 -0.00000000000E+00 -0.00000000000E+00 -0.40809806885E+02  0.40809806885E+02  0.00000000000E+00 0. -1.
          6    1    1    2  502    0  0.54293353048E+01  0.66103147475E+02  0.38563447349E+03  0.42743075572E+03  0.17200000000E+03 0.  1.
         -6    1    1    2    0  501 -0.54293353048E+01 -0.66103147475E+02  0.40676162437E+03  0.44658495591E+03  0.17200000000E+03 0. -1.
</event>
<event>
 4    1  0.1054668E+000  0.2096918E+03  0.7818608E-02  0.1141810E+00
         -1   -1    0    0    0  501 -0.00000000000E+00  0.00000000000E+00  0.13004569113E+03  0.13004569113E+03  0.00000000000E+00 0.  1.
          1   -1    0    0  502    0  0.00000000000E+00 -0.00000000000E+00 -0.34917281306E+03  0.34917281306E+03  0.00000000000E+00 0. -1.
          6    1    1    2  502    0 -0.11994220342E+03  0.71510538246E+00 -0.15220001160E+03  0.25910516604E+03  0.17200000000E+03 0. -1.
         -6    1    1    2    0  501  0.11994220342E+03 -0.71510538246E+00 -0.66927110331E+02  0.22011333815E+03  0.17200000000E+03 0. -1.
</event>
<event>
 4    1  0.1054668E+000  0.2185033E+03  0.7818608E-02  0.1135004E+00
         -2   -1    0    0    0  501 -0.00000000000E+00  0.00000000000E+00  0.69677498829E+03  0.69677498829E+03  0.00000000000E+00 0.  1.
          2   -1    0    0  502    0  0.00000000000E+00 -0.00000000000E+00 -0.75274765050E+02  0.75274765050E+02  0.00000000000E+00 0. -1.
          6    1    1    2  502    0 -0.98590056903E+02 -0.91867914424E+02  0.42637833090E+03  0.47910561892E+03  0.17200000000E+03 0.  1.
         -6    1    1    2    0  501  0.98590056903E+02  0.91867914424E+02  0.19512189234E+03  0.29294413442E+03  0.17200000000E+03 0. -1.
</event>
<event>
 4    1  0.1054668E+000  0.1999502E+03  0.7818608E-02  0.1149781E+00
          1   -1    0    0  502    0  0.00000000000E+00  0.00000000000E+00  0.21340363455E+03  0.21340363455E+03  0.00000000000E+00 0.  1.
         -1   -1    0    0    0  501 -0.00000000000E+00 -0.00000000000E+00 -0.18734524589E+03  0.18734524589E+03  0.00000000000E+00 0. -1.
          6    1    1    2  502    0  0.67287116338E+02 -0.76606247961E+02  0.12740245637E+02  0.20035565156E+03  0.17200000000E+03 0. -1.
         -6    1    1    2    0  501 -0.67287116338E+02  0.76606247961E+02  0.13318143024E+02  0.20039322889E+03  0.17200000000E+03 0. -1.
</event>
<event>
 4    1  0.1054668E+000  0.3568962E+03  0.7818608E-02  0.1059820E+00
         -2   -1    0    0    0  501 -0.00000000000E+00  0.00000000000E+00  0.68169288454E+02  0.68169288454E+02  0.00000000000E+00 0.  1.
          2   -1    0    0  502    0  0.00000000000E+00 -0.00000000000E+00 -0.18892844899E+04  0.18892844899E+04  0.00000000000E+00 0. -1.
          6    1    1    2  502    0  0.29935129317E+03 -0.90441770585E+02 -0.10131916112E+04  0.10742123401E+04  0.17200000000E+03 0.  1.
         -6    1    1    2    0  501 -0.29935129317E+03  0.90441770585E+02 -0.80792359024E+03  0.88324143826E+03  0.17200000000E+03 0. -1.
</event>
<event>
 4    1  0.1054668E+000  0.1728980E+03  0.7818608E-02  0.1174859E+00
         -1   -1    0    0    0  501 -0.00000000000E+00  0.00000000000E+00  0.19455238067E+02  0.19455238067E+02  0.00000000000E+00 0. -1.
          1   -1    0    0  502    0  0.00000000000E+00 -0.00000000000E+00 -0.18589530127E+04  0.18589530127E+04  0.00000000000E+00 0.  1.
          6    1    1    2  502    0  0.14061910841E+02 -0.10581481565E+02 -0.52860758920E+03  0.55616516292E+03  0.17200000000E+03 0. -1.
         -6    1    1    2    0  501 -0.14061910841E+02  0.10581481565E+02 -0.13108901855E+04  0.13222430879E+04  0.17200000000E+03 0.  1.
</event>
<event>
 4    1  0.1054668E+000  0.3362266E+03  0.7818608E-02  0.1068415E+00
         -2   -1    0    0    0  501 -0.00000000000E+00  0.00000000000E+00  0.16040179496E+03  0.16040179496E+03  0.00000000000E+00 0.  1.
          2   -1    0    0  502    0  0.00000000000E+00 -0.00000000000E+00 -0.11112217153E+04  0.11112217153E+04  0.00000000000E+00 0. -1.
          6    1    1    2  502    0 -0.13158258769E+03 -0.25719713029E+03 -0.85993632119E+03  0.92333028637E+03  0.17200000000E+03 0. -1.
         -6    1    1    2    0  501  0.13158258769E+03  0.25719713029E+03 -0.90883599135E+02  0.34829322388E+03  0.17200000000E+03 0.  1.
</event>
<event>
 4    1  0.1054668E+000  0.1991162E+03  0.7818608E-02  0.1150487E+00
         -2   -1    0    0    0  501 -0.00000000000E+00  0.00000000000E+00  0.25577715231E+03  0.25577715231E+03  0.00000000000E+00 0.  1.
          2   -1    0    0  502    0  0.00000000000E+00 -0.00000000000E+00 -0.16977406810E+03  0.16977406810E+03  0.00000000000E+00 0. -1.
          6    1    1    2  502    0  0.52672407747E+02  0.85374941644E+02  0.10575425306E+03  0.22545781255E+03  0.17200000000E+03 0.  1.
         -6    1    1    2    0  501 -0.52672407747E+02 -0.85374941644E+02 -0.19751168855E+02  0.20009340786E+03  0.17200000000E+03 0. -1.
</event>
<event>
 4    1  0.1054668E+000  0.2290455E+03  0.7818608E-02  0.1127313E+00
         -1   -1    0    0    0  501 -0.00000000000E+00  0.00000000000E+00  0.33949579253E+03  0.33949579253E+03  0.00000000000E+00 0.  1.
          1   -1    0    0  502    0  0.00000000000E+00 -0.00000000000E+00 -0.15803835632E+03  0.15803835632E+03  0.00000000000E+00 0. -1.
          6    1    1    2  502    0  0.11976341153E+03 -0.92382649387E+02  0.12780077167E+03  0.26228775398E+03  0.17200000000E+03 0. -1.
         -6    1    1    2    0  501 -0.11976341153E+03  0.92382649387E+02  0.53656664529E+02  0.23524639487E+03  0.17200000000E+03 0.  1.
</event>
<event>
 4    1  0.1054668E+000  0.1849027E+03  0.7818608E-02  0.1163141E+00
          2   -1    0    0  502    0  0.00000000000E+00  0.00000000000E+00  0.22657532901E+04  0.22657532901E+04  0.00000000000E+00 0. -1.
         -2   -1    0    0    0  501 -0.00000000000E+00 -0.00000000000E+00 -0.20138020970E+02  0.20138020970E+02  0.00000000000E+00 0.  1.
          6    1    1    2  502    0  0.65332043230E+02  0.18349795756E+02  0.55053755230E+03  0.58075863090E+03  0.17200000000E+03 0.  1.
         -6    1    1    2    0  501 -0.65332043230E+02 -0.18349795756E+02  0.16950777168E+04  0.17051326801E+04  0.17200000000E+03 0. -1.
</event>
<event>
 4    1  0.1054668E+000  0.5252733E+03  0.7818608E-02  0.1007385E+00
          2   -1    0    0  502    0  0.00000000000E+00  0.00000000000E+00  0.34048035748E+03  0.34048035748E+03  0.00000000000E+00 0.  1.
         -2   -1    0    0    0  501 -0.00000000000E+00 -0.00000000000E+00 -0.82735053036E+03  0.82735053036E+03  0.00000000000E+00 0. -1.
          6    1    1    2  502    0 -0.41287226657E+03  0.27543510558E+03 -0.15976007807E+03  0.54903122719E+03  0.17200000000E+03 0. -1.
         -6    1    1    2    0  501  0.41287226657E+03 -0.27543510558E+03 -0.32711009481E+03  0.61879966064E+03  0.17200000000E+03 0. -1.
</event>
<event>
 4    1  0.1054668E+000  0.1770353E+03  0.7818608E-02  0.1170704E+00
         -2   -1    0    0    0  501 -0.00000000000E+00  0.00000000000E+00  0.10119249754E+03  0.10119249754E+03  0.00000000000E+00 0.  1.
          2   -1    0    0  502    0  0.00000000000E+00 -0.00000000000E+00 -0.31023496009E+03  0.31023496009E+03  0.00000000000E+00 0. -1.
          6    1    1    2  502    0  0.40553679417E+02 -0.10625633910E+02 -0.11288914897E+03  0.20996538992E+03  0.17200000000E+03 0.  1.
         -6    1    1    2    0  501 -0.40553679417E+02  0.10625633910E+02 -0.96153313589E+02  0.20146206771E+03  0.17200000000E+03 0. -1.
</event>
<event>
 4    1  0.1054668E+000  0.1947748E+03  0.7818608E-02  0.1154224E+00
          2   -1    0    0  502    0  0.00000000000E+00  0.00000000000E+00  0.22437500972E+04  0.22437500972E+04  0.00000000000E+00 0. -1.
         -2   -1    0    0    0  501 -0.00000000000E+00 -0.00000000000E+00 -0.19834970700E+02  0.19834970700E+02  0.00000000000E+00 0.  1.
          6    1    1    2  502    0  0.19200370532E+02 -0.89356349675E+02  0.67718308842E+03  0.70463759955E+03  0.17200000000E+03 0. -1.
         -6    1    1    2    0  501 -0.19200370532E+02  0.89356349675E+02  0.15467320380E+04  0.15589474683E+04  0.17200000000E+03 0. -1.
</event>
<event>
 4    1  0.1054668E+000  0.1833382E+03  0.7818608E-02  0.1164611E+00
          2   -1    0    0  502    0  0.00000000000E+00  0.00000000000E+00  0.30639411102E+03  0.30639411102E+03  0.00000000000E+00 0. -1.
         -2   -1    0    0    0  501 -0.00000000000E+00 -0.00000000000E+00 -0.13507717770E+03  0.13507717770E+03  0.00000000000E+00 0.  1.
          6    1    1    2  502    0 -0.14776717718E+01  0.63456366760E+02  0.18132551215E+03  0.25786010811E+03  0.17200000000E+03 0. -1.
         -6    1    1    2    0  501  0.14776717718E+01 -0.63456366760E+02 -0.10008578827E+02  0.18361118061E+03  0.17200000000E+03 0.  1.
</event>
<event>
 4    1  0.1054668E+000  0.2407697E+03  0.7818608E-02  0.1119281E+00
         -2   -1    0    0    0  501 -0.00000000000E+00  0.00000000000E+00  0.61480838528E+03  0.61480838528E+03  0.00000000000E+00 0. -1.
          2   -1    0    0  502    0  0.00000000000E+00 -0.00000000000E+00 -0.94515038028E+02  0.94515038028E+02  0.00000000000E+00 0.  1.
          6    1    1    2  502    0  0.16846331424E+03 -0.24798472502E+01  0.24282556773E+03  0.34195656775E+03  0.17200000000E+03 0. -1.
         -6    1    1    2    0  501 -0.16846331424E+03  0.24798472502E+01  0.27746777952E+03  0.36736685555E+03  0.17200000000E+03 0.  1.
</event>
<event>
 4    1  0.1054668E+000  0.1873285E+03  0.7818608E-02  0.1160893E+00
         -2   -1    0    0    0  501 -0.00000000000E+00  0.00000000000E+00  0.74175501186E+02  0.74175501186E+02  0.00000000000E+00 0. -1.
          2   -1    0    0  502    0  0.00000000000E+00 -0.00000000000E+00 -0.48555837048E+03  0.48555837048E+03  0.00000000000E+00 0.  1.
          6    1    1    2  502    0 -0.52569197346E+02  0.52387373734E+02 -0.16085073144E+03  0.24691074347E+03  0.17200000000E+03 0. -1.
         -6    1    1    2    0  501  0.52569197346E+02 -0.52387373734E+02 -0.25053213786E+03  0.31282312820E+03  0.17200000000E+03 0.  1.
</event>
<event>
 4    1  0.1054668E+000  0.1778913E+03  0.7818608E-02  0.1169860E+00
         -2   -1    0    0    0  501 -0.00000000000E+00  0.00000000000E+00  0.57118881056E+02  0.57118881056E+02  0.00000000000E+00 0.  1.
          2   -1    0    0  502    0  0.00000000000E+00 -0.00000000000E+00 -0.60309500340E+03  0.60309500340E+03  0.00000000000E+00 0. -1.
          6    1    1    2  502    0  0.44447388628E+02 -0.92598071991E+01 -0.36714835356E+03  0.40797454321E+03  0.17200000000E+03 0.  1.
         -6    1    1    2    0  501 -0.44447388628E+02  0.92598071991E+01 -0.17882776879E+03  0.25223934125E+03  0.17200000000E+03 0.  1.
</event>
<event>
 4    1  0.1054668E+000  0.2076071E+03  0.7818608E-02  0.1143475E+00
          2   -1    0    0  502    0  0.00000000000E+00  0.00000000000E+00  0.44896057003E+03  0.44896057003E+03  0.00000000000E+00 0. -1.
         -2   -1    0    0    0  501 -0.00000000000E+00 -0.00000000000E+00 -0.96035643885E+02  0.96035643885E+02  0.00000000000E+00 0.  1.
          6    1    1    2  502    0 -0.80031629667E+02  0.84330536842E+02  0.18163181708E+03  0.27584564192E+03  0.17200000000E+03 0. -1.
         -6    1    1    2    0  501  0.80031629667E+02 -0.84330536842E+02  0.17129310906E+03  0.26915057199E+03  0.17200000000E+03 0. -1.
</event>
<event>
 4    1  0.1054668E+000  0.2087723E+03  0.7818608E-02  0.1142542E+00
         -2   -1    0    0    0  501 -0.00000000000E+00  0.00000000000E+00  0.14898154748E+03  0.14898154748E+03  0.00000000000E+00 0.  1.
          2   -1    0    0  502    0  0.00000000000E+00 -0.00000000000E+00 -0.36978467976E+03  0.36978467976E+03  0.00000000000E+00 0. -1.
          6    1    1    2  502    0  0.11082215264E+03 -0.41476566229E+02 -0.22893717082E+03  0.30983557453E+03  0.17200000000E+03 0. -1.
         -6    1    1    2    0  501 -0.11082215264E+03  0.41476566229E+02  0.81340385399E+01  0.20893065272E+03  0.17200000000E+03 0.  1.
</event>
<event>
 4    1  0.1054668E+000  0.1786414E+03  0.7818608E-02  0.1169124E+00
          1   -1    0    0  502    0  0.00000000000E+00  0.00000000000E+00  0.16543937016E+03  0.16543937016E+03  0.00000000000E+00 0.  1.
         -1   -1    0    0    0  501 -0.00000000000E+00 -0.00000000000E+00 -0.19300815808E+03  0.19300815808E+03  0.00000000000E+00 0. -1.
          6    1    1    2  502    0 -0.16326657434E+02 -0.45411256497E+02 -0.94814092002E+01  0.17889281450E+03  0.17200000000E+03 0.  1.
         -6    1    1    2    0  501  0.16326657434E+02  0.45411256497E+02 -0.18087378722E+02  0.17955471375E+03  0.17200000000E+03 0. -1.
</event>
<event>
 4    1  0.1054668E+000  0.2942430E+03  0.7818608E-02  0.1088154E+00
         -2   -1    0    0    0  501 -0.00000000000E+00  0.00000000000E+00  0.26544394060E+03  0.26544394060E+03  0.00000000000E+00 0. -1.
          2   -1    0    0  502    0  0.00000000000E+00 -0.00000000000E+00 -0.34617640535E+03  0.34617640535E+03  0.00000000000E+00 0.  1.
          6    1    1    2  502    0  0.15590238479E+03 -0.18080214282E+03  0.33156861927E+02  0.29610529533E+03  0.17200000000E+03 0. -1.
         -6    1    1    2    0  501 -0.15590238479E+03  0.18080214282E+03 -0.11388932669E+03  0.31551505062E+03  0.17200000000E+03 0.  1.
</event>
<event>
 4    1  0.1054668E+000  0.1725455E+03  0.7818608E-02  0.1175219E+00
          1   -1    0    0  502    0  0.00000000000E+00  0.00000000000E+00  0.79604151892E+02  0.79604151892E+02  0.00000000000E+00 0. -1.
         -1   -1    0    0    0  501 -0.00000000000E+00 -0.00000000000E+00 -0.37401253161E+03  0.37401253161E+03  0.00000000000E+00 0.  1.
          6    1    1    2  502    0  0.12274660378E+02 -0.61063724062E+01 -0.14851556235E+03  0.22765945474E+03  0.17200000000E+03 0. -1.
         -6    1    1    2    0  501 -0.12274660378E+02  0.61063724062E+01 -0.14589281737E+03  0.22595722876E+03  0.17200000000E+03 0.  1.
</event>
<event>
 4    1  0.1054668E+000  0.2526781E+03  0.7818608E-02  0.1111624E+00
          2   -1    0    0  502    0  0.00000000000E+00  0.00000000000E+00  0.11679288394E+04  0.11679288394E+04  0.00000000000E+00 0. -1.
         -2   -1    0    0    0  501 -0.00000000000E+00 -0.00000000000E+00 -0.57054498965E+02  0.57054498965E+02  0.00000000000E+00 0.  1.
          6    1    1    2  502    0 -0.18436348491E+03 -0.16502951209E+02  0.43012340760E+03  0.49885106768E+03  0.17200000000E+03 0.  1.
         -6    1    1    2    0  501  0.18436348491E+03  0.16502951209E+02  0.68075093286E+03  0.72613227070E+03  0.17200000000E+03 0.  1.
</event>
<event>
 4    1  0.1054668E+000  0.1783858E+03  0.7818608E-02  0.1169374E+00
         -2   -1    0    0    0  501 -0.00000000000E+00  0.00000000000E+00  0.59376969120E+02  0.59376969120E+02  0.00000000000E+00 0. -1.
          2   -1    0    0  502    0  0.00000000000E+00 -0.00000000000E+00 -0.54846918341E+03  0.54846918341E+03  0.00000000000E+00 0.  1.
          6    1    1    2  502    0  0.13740840501E+02  0.45262462265E+02 -0.19857994993E+03  0.26693725424E+03  0.17200000000E+03 0. -1.
         -6    1    1    2    0  501 -0.13740840501E+02 -0.45262462265E+02 -0.29051226436E+03  0.34090889829E+03  0.17200000000E+03 0.  1.
</event>
<event>
 4    1  0.1054668E+000  0.2107648E+03  0.7818608E-02  0.1140962E+00
          2   -1    0    0  502    0  0.00000000000E+00  0.00000000000E+00  0.39075878401E+03  0.39075878401E+03  0.00000000000E+00 0.  1.
         -2   -1    0    0    0  501 -0.00000000000E+00 -0.00000000000E+00 -0.13830041547E+03  0.13830041547E+03  0.00000000000E+00 0. -1.
          6    1    1    2  502    0  0.11111358490E+03  0.49915451537E+02  0.23783914163E+03  0.31778803996E+03  0.17200000000E+03 0.  1.
         -6    1    1    2    0  501 -0.11111358490E+03 -0.49915451537E+02  0.14619226906E+02  0.21127115952E+03  0.17200000000E+03 0. -1.
</event>
<event>
 4    1  0.1054668E+000  0.2252050E+03  0.7818608E-02  0.1130061E+00
         -2   -1    0    0    0  501 -0.00000000000E+00  0.00000000000E+00  0.88039773503E+02  0.88039773503E+02  0.00000000000E+00 0.  1.
          2   -1    0    0  502    0  0.00000000000E+00 -0.00000000000E+00 -0.61622961732E+03  0.61622961732E+03  0.00000000000E+00 0. -1.
          6    1    1    2  502    0 -0.46602283312E+02  0.13770086172E+03 -0.17420348445E+03  0.28471767441E+03  0.17200000000E+03 0.  1.
         -6    1    1    2    0  501  0.46602283312E+02 -0.13770086172E+03 -0.35398635937E+03  0.41955171641E+03  0.17200000000E+03 0. -1.
</event>
<event>
 4    1  0.1054668E+000  0.1914234E+03  0.7818608E-02  0.1157184E+00
         -2   -1    0    0    0  501 -0.00000000000E+00  0.00000000000E+00  0.57000124103E+02  0.57000124103E+02  0.00000000000E+00 0.  1.
          2   -1    0    0  502    0  0.00000000000E+00 -0.00000000000E+00 -0.82230266872E+03  0.82230266872E+03  0.00000000000E+00 0. -1.
          6    1    1    2  502    0  0.63276764612E+01  0.83778716630E+02 -0.58803188039E+03  0.61840472605E+03  0.17200000000E+03 0.  1.
         -6    1    1    2    0  501 -0.63276764612E+01 -0.83778716630E+02 -0.17727066423E+03  0.26089806677E+03  0.17200000000E+03 0.  1.
</event>
<event>
 4    1  0.1054668E+000  0.2010782E+03  0.7818608E-02  0.1148833E+00
         -1   -1    0    0    0  501 -0.00000000000E+00  0.00000000000E+00  0.71063166314E+02  0.71063166314E+02  0.00000000000E+00 0.  1.
          1   -1    0    0  502    0  0.00000000000E+00 -0.00000000000E+00 -0.57117495806E+03  0.57117495806E+03  0.00000000000E+00 0. -1.
          6    1    1    2  502    0  0.35333184201E+02  0.97979586387E+02 -0.27003163185E+03  0.33667419778E+03  0.17200000000E+03 0. -1.
         -6    1    1    2    0  501 -0.35333184201E+02 -0.97979586387E+02 -0.23008015989E+03  0.30556392659E+03  0.17200000000E+03 0.  1.
</event>
<event>
 4    1  0.1054668E+000  0.1986597E+03  0.7818608E-02  0.1150875E+00
         -1   -1    0    0    0  501 -0.00000000000E+00  0.00000000000E+00  0.16375993269E+02  0.16375993269E+02  0.00000000000E+00 0.  1.
          1   -1    0    0  502    0  0.00000000000E+00 -0.00000000000E+00 -0.25705879153E+04  0.25705879153E+04  0.00000000000E+00 0. -1.
          6    1    1    2  502    0 -0.51819581015E+02  0.84831728054E+02 -0.95378195428E+03  0.97425135739E+03  0.17200000000E+03 0.  1.
         -6    1    1    2    0  501  0.51819581015E+02 -0.84831728054E+02 -0.16004299677E+04  0.16127125512E+04  0.17200000000E+03 0. -1.
</event>
<event>
 4    1  0.1054668E+000  0.1827626E+03  0.7818608E-02  0.1165156E+00
         -1   -1    0    0    0  501 -0.00000000000E+00  0.00000000000E+00  0.84924916702E+03  0.84924916702E+03  0.00000000000E+00 0.  1.
          1   -1    0    0  502    0  0.00000000000E+00 -0.00000000000E+00 -0.39497760498E+02  0.39497760498E+02  0.00000000000E+00 0. -1.
          6    1    1    2  502    0  0.40746355103E+02  0.46453294304E+02  0.43371359069E+03  0.47064811989E+03  0.17200000000E+03 0.  1.
         -6    1    1    2    0  501 -0.40746355103E+02 -0.46453294304E+02  0.37603781584E+03  0.41809880764E+03  0.17200000000E+03 0. -1.
</event>
<event>
 4    1  0.1054668E+000  0.1953724E+03  0.7818608E-02  0.1153703E+00
          2   -1    0    0  502    0  0.00000000000E+00  0.00000000000E+00  0.29027909974E+03  0.29027909974E+03  0.00000000000E+00 0. -1.
         -2   -1    0    0    0  501 -0.00000000000E+00 -0.00000000000E+00 -0.13950100141E+03  0.13950100141E+03  0.00000000000E+00 0.  1.
          6    1    1    2  502    0 -0.10508516775E+02 -0.92064813346E+02  0.23910614505E+02  0.19683006952E+03  0.17200000000E+03 0.  1.
         -6    1    1    2    0  501  0.10508516775E+02  0.92064813346E+02  0.12686748383E+03  0.23295003163E+03  0.17200000000E+03 0. -1.
</event>
<event>
 4    1  0.1054668E+000  0.3485064E+03  0.7818608E-02  0.1063230E+00
          2   -1    0    0  502    0  0.00000000000E+00  0.00000000000E+00  0.91540895515E+03  0.91540895515E+03  0.00000000000E+00 0.  1.
         -2   -1    0    0    0  501 -0.00000000000E+00 -0.00000000000E+00 -0.13406675010E+03  0.13406675010E+03  0.00000000000E+00 0. -1.
          6    1    1    2  502    0  0.10444058151E+03  0.28454325336E+03  0.44403410432E+03  0.56446699098E+03  0.17200000000E+03 0.  1.
         -6    1    1    2    0  501 -0.10444058151E+03 -0.28454325336E+03  0.33730810073E+03  0.48500871427E+03  0.17200000000E+03 0. -1.
</event>
<event>
 4    1  0.1054668E+000  0.2057480E+03  0.7818608E-02  0.1144978E+00
          1   -1    0    0  502    0  0.00000000000E+00  0.00000000000E+00  0.29129540844E+03  0.29129540844E+03  0.00000000000E+00 0.  1.
         -1   -1    0    0    0  501 -0.00000000000E+00 -0.00000000000E+00 -0.14795216981E+03  0.14795216981E+03  0.00000000000E+00 0. -1.
          6    1    1    2  502    0  0.35484274544E+02 -0.10718722860E+03  0.42400505777E+02  0.21007150831E+03  0.17200000000E+03 0.  1.
         -6    1    1    2    0  501 -0.35484274544E+02  0.10718722860E+03  0.10094273286E+03  0.22917606994E+03  0.17200000000E+03 0. -1.
</event>
<event>
 4    1  0.1054668E+000  0.1771115E+03  0.7818608E-02  0.1170628E+00
          2   -1    0    0  502    0  0.00000000000E+00  0.00000000000E+00  0.39220262752E+03  0.39220262752E+03  0.00000000000E+00 0.  1.
         -2   -1    0    0    0  501 -0.00000000000E+00 -0.00000000000E+00 -0.91812454341E+02  0.91812454341E+02  0.00000000000E+00 0. -1.
          6    1    1    2  502    0  0.41381091264E+02  0.84897821662E+01  0.63316928024E+02  0.18808908658E+03  0.17200000000E+03 0. -1.
         -6    1    1    2    0  501 -0.41381091264E+02 -0.84897821662E+01  0.23707324515E+03  0.29592599528E+03  0.17200000000E+03 0.  1.
</event>
<event>
 4    1  0.1054668E+000  0.1805355E+03  0.7818608E-02  0.1167286E+00
         -2   -1    0    0    0  501 -0.00000000000E+00  0.00000000000E+00  0.18390701376E+02  0.18390701376E+02  0.00000000000E+00 0.  1.
          2   -1    0    0  502    0  0.00000000000E+00 -0.00000000000E+00 -0.19571561336E+04  0.19571561336E+04  0.00000000000E+00 0. -1.
          6    1    1    2  502    0  0.45625463308E+02  0.30453247006E+02 -0.12729883810E+04  0.12857264489E+04  0.17200000000E+03 0.  1.
         -6    1    1    2    0  501 -0.45625463308E+02 -0.30453247006E+02 -0.66577705125E+03  0.68982038614E+03  0.17200000000E+03 0.  1.
</event>
<event>
 4    1  0.1054668E+000  0.3450017E+03  0.7818608E-02  0.1064685E+00
          2   -1    0    0  502    0  0.00000000000E+00  0.00000000000E+00  0.17799972383E+04  0.17799972383E+04  0.00000000000E+00 0. -1.
         -2   -1    0    0    0  501 -0.00000000000E+00 -0.00000000000E+00 -0.12518904310E+03  0.12518904310E+03  0.00000000000E+00 0.  1.
          6    1    1    2  502    0 -0.24861555178E+03  0.16623011224E+03  0.14775850441E+04  0.15173278174E+04  0.17200000000E+03 0. -1.
         -6    1    1    2    0  501  0.24861555178E+03 -0.16623011224E+03  0.17722315103E+03  0.38785846396E+03  0.17200000000E+03 0.  1.
</event>
<event>
 4    1  0.1054668E+000  0.2087581E+03  0.7818608E-02  0.1142553E+00
          2   -1    0    0  502    0  0.00000000000E+00  0.00000000000E+00  0.48102980871E+03  0.48102980871E+03  0.00000000000E+00 0. -1.
         -2   -1    0    0    0  501 -0.00000000000E+00 -0.00000000000E+00 -0.91076537916E+02  0.91076537916E+02  0.00000000000E+00 0.  1.
          6    1    1    2  502    0 -0.60843844101E+02 -0.10145916037E+03  0.21572971172E+03  0.30019867273E+03  0.17200000000E+03 0. -1.
         -6    1    1    2    0  501  0.60843844101E+02  0.10145916037E+03  0.17422355907E+03  0.27190767390E+03  0.17200000000E+03 0.  1.
</event>
<event>
 4    1  0.1054668E+000  0.1745821E+03  0.7818608E-02  0.1173152E+00
          2   -1    0    0  502    0  0.00000000000E+00  0.00000000000E+00  0.10118508388E+04  0.10118508388E+04  0.00000000000E+00 0.  1.
         -2   -1    0    0    0  501 -0.00000000000E+00 -0.00000000000E+00 -0.40679197509E+02  0.40679197509E+02  0.00000000000E+00 0. -1.
          6    1    1    2  502    0 -0.23788041148E+02 -0.18139358182E+02  0.21748759893E+03  0.27889023451E+03  0.17200000000E+03 0. -1.
         -6    1    1    2    0  501  0.23788041148E+02  0.18139358182E+02  0.75368404234E+03  0.77363980178E+03  0.17200000000E+03 0.  1.
</event>
<event>
 4    1  0.1054668E+000  0.2293623E+03  0.7818608E-02  0.1127089E+00
         -1   -1    0    0    0  501 -0.00000000000E+00  0.00000000000E+00  0.51207539638E+02  0.51207539638E+02  0.00000000000E+00 0.  1.
          1   -1    0    0  502    0  0.00000000000E+00 -0.00000000000E+00 -0.19441674778E+04  0.19441674778E+04  0.00000000000E+00 0. -1.
          6    1    1    2  502    0 -0.48835847683E+02  0.14365979519E+03 -0.26134881755E+03  0.34772155701E+03  0.17200000000E+03 0.  1.
         -6    1    1    2    0  501  0.48835847683E+02 -0.14365979519E+03 -0.16316111206E+04  0.16476534605E+04  0.17200000000E+03 0. -1.
</event>
<event>
 4    1  0.1054668E+000  0.1758004E+03  0.7818608E-02  0.1171930E+00
         -1   -1    0    0    0  501 -0.00000000000E+00  0.00000000000E+00  0.98209696169E+02  0.98209696169E+02  0.00000000000E+00 0. -1.
          1   -1    0    0  502    0  0.00000000000E+00 -0.00000000000E+00 -0.31767529106E+03  0.31767529106E+03  0.00000000000E+00 0.  1.
          6    1    1    2  502    0  0.36315616242E+02  0.17233753765E+01 -0.12988432697E+03  0.21857660533E+03  0.17200000000E+03 0. -1.
         -6    1    1    2    0  501 -0.36315616242E+02 -0.17233753765E+01 -0.89581267923E+02  0.19730838190E+03  0.17200000000E+03 0.  1.
</event>
<event>
 4    1  0.1054668E+000  0.2325055E+03  0.7818608E-02  0.1124889E+00
         -2   -1    0    0    0  501 -0.00000000000E+00  0.00000000000E+00  0.39956471967E+03  0.39956471967E+03  0.00000000000E+00 0. -1.
          2   -1    0    0  502    0  0.00000000000E+00 -0.00000000000E+00 -0.30004805813E+03  0.30004805813E+03  0.00000000000E+00 0.  1.
          6    1    1    2  502    0  0.88424858764E+02  0.12905759701E+03 -0.20945063851E+03  0.31293511942E+03  0.17200000000E+03 0.  1.
         -6    1    1    2    0  501 -0.88424858764E+02 -0.12905759701E+03  0.30896730005E+03  0.38667765838E+03  0.17200000000E+03 0. -1.
</event>
<event>
 4    1  0.1054668E+000  0.1967853E+03  0.7818608E-02  0.1152480E+00
          1   -1    0    0  502    0  0.00000000000E+00  0.00000000000E+00  0.94828407765E+03  0.94828407765E+03  0.00000000000E+00 0. -1.
         -1   -1    0    0    0  501 -0.00000000000E+00 -0.00000000000E+00 -0.73910853021E+02  0.73910853021E+02  0.00000000000E+00 0.  1.
          6    1    1    2  502    0 -0.86975404871E+02 -0.39695630668E+02  0.95288850160E+02  0.21864224000E+03  0.17200000000E+03 0.  1.
         -6    1    1    2    0  501  0.86975404871E+02  0.39695630668E+02  0.77908437446E+03  0.80355269067E+03  0.17200000000E+03 0. -1.
</event>
<event>
 4    1  0.1054668E+000  0.2251709E+03  0.7818608E-02  0.1130086E+00
          2   -1    0    0  502    0  0.00000000000E+00  0.00000000000E+00  0.14662927824E+04  0.14662927824E+04  0.00000000000E+00 0.  1.
         -2   -1    0    0    0  501 -0.00000000000E+00 -0.00000000000E+00 -0.19583572897E+03  0.19583572897E+03  0.00000000000E+00 0. -1.
          6    1    1    2  502    0 -0.74933103675E+02 -0.12451086141E+03  0.13893624773E+04  0.14074906813E+04  0.17200000000E+03 0.  1.
         -6    1    1    2    0  501  0.74933103675E+02  0.12451086141E+03 -0.11890542392E+03  0.25463783001E+03  0.17200000000E+03 0. -1.
</event>
<event>
 4    1  0.1054668E+000  0.2083386E+03  0.7818608E-02  0.1142888E+00
         -1   -1    0    0    0  501 -0.00000000000E+00  0.00000000000E+00  0.17073369203E+03  0.17073369203E+03  0.00000000000E+00 0.  1.
          1   -1    0    0  502    0  0.00000000000E+00 -0.00000000000E+00 -0.29223614465E+03  0.29223614465E+03  0.00000000000E+00 0. -1.
          6    1    1    2  502    0 -0.11589426075E+03  0.19735573365E+02 -0.14423547231E+03  0.25339464084E+03  0.17200000000E+03 0. -1.
         -6    1    1    2    0  501  0.11589426075E+03 -0.19735573365E+02  0.22733019691E+02  0.20957519585E+03  0.17200000000E+03 0.  1.
</event>
<event>
 4    1  0.1054668E+000  0.2063869E+03  0.7818608E-02  0.1144460E+00
         -2   -1    0    0    0  501 -0.00000000000E+00  0.00000000000E+00  0.38154647143E+02  0.38154647143E+02  0.00000000000E+00 0. -1.
          2   -1    0    0  502    0  0.00000000000E+00 -0.00000000000E+00 -0.11543877170E+04  0.11543877170E+04  0.00000000000E+00 0.  1.
          6    1    1    2  502    0 -0.44605570188E+02 -0.10498530992E+03 -0.66629252948E+03  0.69752513003E+03  0.17200000000E+03 0.  1.
         -6    1    1    2    0  501  0.44605570188E+02  0.10498530992E+03 -0.44994054040E+03  0.49501723413E+03  0.17200000000E+03 0. -1.
</event>
<event>
 4    1  0.1054668E+000  0.2009750E+03  0.7818608E-02  0.1148919E+00
         -1   -1    0    0    0  501 -0.00000000000E+00  0.00000000000E+00  0.43223798631E+03  0.43223798631E+03  0.00000000000E+00 0.  1.
          1   -1    0    0  502    0  0.00000000000E+00 -0.00000000000E+00 -0.93569683950E+02  0.93569683950E+02  0.00000000000E+00 0. -1.
          6    1    1    2  502    0 -0.93964882746E+02  0.44469606474E+02  0.17888950940E+03  0.26905836107E+03  0.17200000000E+03 0.  1.
         -6    1    1    2    0  501  0.93964882746E+02 -0.44469606474E+02  0.15977879297E+03  0.25674930919E+03  0.17200000000E+03 0.  1.
</event>
<event>
 4    1  0.1054668E+000  0.1733877E+03  0.7818608E-02  0.1174360E+00
         -2   -1    0    0    0  501 -0.00000000000E+00  0.00000000000E+00  0.33412390459E+02  0.33412390459E+02  0.00000000000E+00 0.  1.
          2   -1    0    0  502    0  0.00000000000E+00 -0.00000000000E+00 -0.92852194519E+03  0.92852194519E+03  0.00000000000E+00 0. -1.
          6    1    1    2  502    0 -0.19531745473E+02  0.98898196470E+01 -0.53219779660E+03  0.55973010668E+03  0.17200000000E+03 0. -1.
         -6    1    1    2    0  501  0.19531745473E+02 -0.98898196470E+01 -0.36291175813E+03  0.40220422897E+03  0.17200000000E+03 0.  1.
</event>
<event>
 4    1  0.1054668E+000  0.1934873E+03  0.7818608E-02  0.1155353E+00
          1   -1    0    0  502    0  0.00000000000E+00  0.00000000000E+00  0.73813224078E+03  0.73813224078E+03  0.00000000000E+00 0.  1.
         -1   -1    0    0    0  501 -0.00000000000E+00 -0.00000000000E+00 -0.11837022815E+03  0.11837022815E+03  0.00000000000E+00 0. -1.
          6    1    1    2  502    0  0.42946002536E+02  0.77517632163E+02 -0.13873010883E+02  0.19398402733E+03  0.17200000000E+03 0. -1.
         -6    1    1    2    0  501 -0.42946002536E+02 -0.77517632163E+02  0.63363502352E+03  0.66251844160E+03  0.17200000000E+03 0.  1.
</event>
<event>
 4    1  0.1054668E+000  0.2254186E+03  0.7818608E-02  0.1129907E+00
          1   -1    0    0  502    0  0.00000000000E+00  0.00000000000E+00  0.35437745822E+03  0.35437745822E+03  0.00000000000E+00 0. -1.
         -1   -1    0    0    0  501 -0.00000000000E+00 -0.00000000000E+00 -0.23917342871E+03  0.23917342871E+03  0.00000000000E+00 0.  1.
          6    1    1    2  502    0 -0.14553798776E+03 -0.69438952861E+01  0.24541296531E+03  0.33322822075E+03  0.17200000000E+03 0. -1.
         -6    1    1    2    0  501  0.14553798776E+03  0.69438952861E+01 -0.13020893580E+03  0.26032266618E+03  0.17200000000E+03 0.  1.
</event>
<event>
 4    1  0.1054668E+000  0.1733490E+03  0.7818608E-02  0.1174400E+00
         -2   -1    0    0    0  501 -0.00000000000E+00  0.00000000000E+00  0.31010539116E+03  0.31010539116E+03  0.00000000000E+00 0. -1.
          2   -1    0    0  502    0  0.00000000000E+00 -0.00000000000E+00 -0.10482800256E+03  0.10482800256E+03  0.00000000000E+00 0.  1.
          6    1    1    2  502    0 -0.64731571831E+01 -0.20590418702E+02  0.15968582346E+03  0.23568926433E+03  0.17200000000E+03 0. -1.
         -6    1    1    2    0  501  0.64731571831E+01  0.20590418702E+02  0.45591565135E+02  0.17924412938E+03  0.17200000000E+03 0.  1.
</event>
<event>
 4    1  0.1054668E+000  0.2086332E+03  0.7818608E-02  0.1142653E+00
          2   -1    0    0  502    0  0.00000000000E+00  0.00000000000E+00  0.22309957610E+04  0.22309957610E+04  0.00000000000E+00 0.  1.
         -2   -1    0    0    0  501 -0.00000000000E+00 -0.00000000000E+00 -0.34575783461E+02  0.34575783461E+02  0.00000000000E+00 0. -1.
          6    1    1    2  502    0  0.11079837790E+03  0.40835506151E+02  0.18459499268E+04  0.18577026003E+04  0.17200000000E+03 0.  1.
         -6    1    1    2    0  501 -0.11079837790E+03 -0.40835506151E+02  0.35047005079E+03  0.40786894416E+03  0.17200000000E+03 0. -1.
</event>
<event>
 4    1  0.1054668E+000  0.2106782E+03  0.7818608E-02  0.1141030E+00
         -2   -1    0    0    0  501 -0.00000000000E+00  0.00000000000E+00  0.53519947506E+02  0.53519947506E+02  0.00000000000E+00 0.  1.
          2   -1    0    0  502    0  0.00000000000E+00 -0.00000000000E+00 -0.15669864484E+04  0.15669864484E+04  0.00000000000E+00 0. -1.
          6    1    1    2  502    0  0.11273753725E+03  0.45733596771E+02 -0.20080682721E+03  0.29104758380E+03  0.17200000000E+03 0.  1.
         -6    1    1    2    0  501 -0.11273753725E+03 -0.45733596771E+02 -0.13126596737E+04  0.13294588121E+04  0.17200000000E+03 0. -1.
</event>
<event>
 4    1  0.1054668E+000  0.1829390E+03  0.7818608E-02  0.1164989E+00
          1   -1    0    0  502    0  0.00000000000E+00  0.00000000000E+00  0.12778519267E+04  0.12778519267E+04  0.00000000000E+00 0.  1.
         -1   -1    0    0    0  501 -0.00000000000E+00 -0.00000000000E+00 -0.27223457090E+02  0.27223457090E+02  0.00000000000E+00 0. -1.
          6    1    1    2  502    0 -0.62165750332E+02  0.42520003829E+01  0.49816125453E+03  0.53068945301E+03  0.17200000000E+03 0. -1.
         -6    1    1    2    0  501  0.62165750332E+02 -0.42520003829E+01  0.75246721511E+03  0.77438593081E+03  0.17200000000E+03 0.  1.
</event>
<event>
 4    1  0.1054668E+000  0.1915658E+03  0.7818608E-02  0.1157057E+00
         -2   -1    0    0    0  501 -0.00000000000E+00  0.00000000000E+00  0.79347145608E+02  0.79347145608E+02  0.00000000000E+00 0. -1.
          2   -1    0    0  502    0  0.00000000000E+00 -0.00000000000E+00 -0.63940839286E+03  0.63940839286E+03  0.00000000000E+00 0.  1.
          6    1    1    2  502    0 -0.81807988195E+01 -0.83943628887E+02 -0.46906704575E+03  0.50667677242E+03  0.17200000000E+03 0.  1.
         -6    1    1    2    0  501  0.81807988195E+01  0.83943628887E+02 -0.90994201494E+02  0.21207876604E+03  0.17200000000E+03 0. -1.
</event>
<event>
 4    1  0.1054668E+000  0.2005997E+03  0.7818608E-02  0.1149234E+00
         -2   -1    0    0    0  501 -0.00000000000E+00  0.00000000000E+00  0.36764518605E+02  0.36764518605E+02  0.00000000000E+00 0.  1.
          2   -1    0    0  502    0  0.00000000000E+00 -0.00000000000E+00 -0.10962816441E+04  0.10962816441E+04  0.00000000000E+00 0. -1.
          6    1    1    2  502    0 -0.99901995473E+02  0.25996848941E+02 -0.50717944983E+03  0.54540924010E+03  0.17200000000E+03 0.  1.
         -6    1    1    2    0  501  0.99901995473E+02 -0.25996848941E+02 -0.55233767569E+03  0.58763692263E+03  0.17200000000E+03 0. -1.
</event>
<event>
 4    1  0.1054668E+000  0.2203451E+03  0.7818608E-02  0.1133626E+00
         -1   -1    0    0    0  501 -0.00000000000E+00  0.00000000000E+00  0.56520235087E+02  0.56520235087E+02  0.00000000000E+00 0.  1.
          1   -1    0    0  502    0  0.00000000000E+00 -0.00000000000E+00 -0.87486429441E+03  0.87486429441E+03  0.00000000000E+00 0. -1.
          6    1    1    2  502    0 -0.26284996934E+02 -0.13519273024E+03 -0.47184410765E+03  0.52075794502E+03  0.17200000000E+03 0. -1.
         -6    1    1    2    0  501  0.26284996934E+02  0.13519273024E+03 -0.34649995167E+03  0.41062658448E+03  0.17200000000E+03 0.  1.
</event>
<event>
 4    1  0.1054668E+000  0.1823604E+03  0.7818608E-02  0.1165538E+00
         -1   -1    0    0    0  501 -0.00000000000E+00  0.00000000000E+00  0.12010022017E+03  0.12010022017E+03  0.00000000000E+00 0. -1.
          1   -1    0    0  502    0  0.00000000000E+00 -0.00000000000E+00 -0.40808879380E+03  0.40808879380E+03  0.00000000000E+00 0.  1.
          6    1    1    2  502    0 -0.54679124759E+02  0.26105545918E+02  0.57452662998E+01  0.18245085447E+03  0.17200000000E+03 0. -1.
         -6    1    1    2    0  501  0.54679124759E+02 -0.26105545918E+02 -0.29373383993E+03  0.34573815949E+03  0.17200000000E+03 0.  1.
</event>
<event>
 4    1  0.1054668E+000  0.2482964E+03  0.7818608E-02  0.1114386E+00
         -1   -1    0    0    0  501 -0.00000000000E+00  0.00000000000E+00  0.62012171666E+03  0.62012171666E+03  0.00000000000E+00 0.  1.
          1   -1    0    0  502    0  0.00000000000E+00 -0.00000000000E+00 -0.21916578177E+03  0.21916578177E+03  0.00000000000E+00 0. -1.
          6    1    1    2  502    0  0.12611209254E+03  0.12713324177E+03 -0.10971256008E+03  0.27145527603E+03  0.17200000000E+03 0. -1.
         -6    1    1    2    0  501 -0.12611209254E+03 -0.12713324177E+03  0.51066849497E+03  0.56783222240E+03  0.17200000000E+03 0.  1.
</event>
<event>
 4    1  0.1054668E+000  0.2003153E+03  0.7818608E-02  0.1149473E+00
          2   -1    0    0  502    0  0.00000000000E+00  0.00000000000E+00  0.23842831149E+03  0.23842831149E+03  0.00000000000E+00 0. -1.
         -2   -1    0    0    0  501 -0.00000000000E+00 -0.00000000000E+00 -0.16835368895E+03  0.16835368895E+03  0.00000000000E+00 0.  1.
          6    1    1    2  502    0 -0.95852538279E+02 -0.36803742676E+02  0.31230573159E+02  0.20273522947E+03  0.17200000000E+03 0.  1.
         -6    1    1    2    0  501  0.95852538279E+02  0.36803742676E+02  0.38844049385E+02  0.20404677097E+03  0.17200000000E+03 0. -1.
</event>
<event>
 4    1  0.1054668E+000  0.2088423E+03  0.7818608E-02  0.1142486E+00
          2   -1    0    0  502    0  0.00000000000E+00  0.00000000000E+00  0.11217521140E+03  0.11217521140E+03  0.00000000000E+00 0.  1.
         -2   -1    0    0    0  501 -0.00000000000E+00 -0.00000000000E+00 -0.47749040334E+03  0.47749040334E+03  0.00000000000E+00 0. -1.
          6    1    1    2  502    0  0.91594876389E+02  0.75109685270E+02 -0.30971559910E+03  0.37354897742E+03  0.17200000000E+03 0. -1.
         -6    1    1    2    0  501 -0.91594876389E+02 -0.75109685270E+02 -0.55599592844E+02  0.21611663732E+03  0.17200000000E+03 0.  1.
</event>
<event>
 4    1  0.1054668E+000  0.1785401E+03  0.7818608E-02  0.1169223E+00
          1   -1    0    0  502    0  0.00000000000E+00  0.00000000000E+00  0.16052171232E+04  0.16052171232E+04  0.00000000000E+00 0. -1.
         -1   -1    0    0    0  501 -0.00000000000E+00 -0.00000000000E+00 -0.21594794642E+02  0.21594794642E+02  0.00000000000E+00 0.  1.
          6    1    1    2  502    0  0.47377454883E+02  0.69245649613E+01  0.56113978580E+03  0.58885858408E+03  0.17200000000E+03 0.  1.
         -6    1    1    2    0  501 -0.47377454883E+02 -0.69245649613E+01  0.10224825427E+04  0.10379533337E+04  0.17200000000E+03 0. -1.
</event>
<event>
 4    1  0.1054668E+000  0.1965601E+03  0.7818608E-02  0.1152674E+00
         -1   -1    0    0    0  501 -0.00000000000E+00  0.00000000000E+00  0.17755625773E+03  0.17755625773E+03  0.00000000000E+00 0. -1.
          1   -1    0    0  502    0  0.00000000000E+00 -0.00000000000E+00 -0.32905204337E+03  0.32905204337E+03  0.00000000000E+00 0.  1.
          6    1    1    2  502    0  0.43136552909E+02 -0.84800438432E+02 -0.22316844522E+03  0.29738868757E+03  0.17200000000E+03 0.  1.
         -6    1    1    2    0  501 -0.43136552909E+02  0.84800438432E+02  0.71672659574E+02  0.20921961353E+03  0.17200000000E+03 0. -1.
</event>
<event>
 4    1  0.1054668E+000  0.1746805E+03  0.7818608E-02  0.1173053E+00
         -2   -1    0    0    0  501 -0.00000000000E+00  0.00000000000E+00  0.40328447746E+02  0.40328447746E+02  0.00000000000E+00 0. -1.
          2   -1    0    0  502    0  0.00000000000E+00 -0.00000000000E+00 -0.98312661651E+03  0.98312661651E+03  0.00000000000E+00 0.  1.
          6    1    1    2  502    0 -0.29088585498E+02 -0.91167614117E+01 -0.22577233119E+03  0.28545823981E+03  0.17200000000E+03 0. -1.
         -6    1    1    2    0  501  0.29088585498E+02  0.91167614117E+01 -0.71702583757E+03  0.73799682444E+03  0.17200000000E+03 0.  1.
</event>
<event>
 4    1  0.1054668E+000  0.1955828E+03  0.7818608E-02  0.1153520E+00
         -1   -1    0    0    0  501 -0.00000000000E+00  0.00000000000E+00  0.64413015508E+02  0.64413015508E+02  0.00000000000E+00 0.  1.
          1   -1    0    0  502    0  0.00000000000E+00 -0.00000000000E+00 -0.72347335228E+03  0.72347335228E+03  0.00000000000E+00 0. -1.
          6    1    1    2  502    0 -0.92162339119E+02  0.13219096092E+02 -0.16279060313E+03  0.25446693640E+03  0.17200000000E+03 0.  1.
         -6    1    1    2    0  501  0.92162339119E+02 -0.13219096092E+02 -0.49626973365E+03  0.53341943139E+03  0.17200000000E+03 0. -1.
</event>
<event>
 4    1  0.1054668E+000  0.1754242E+03  0.7818608E-02  0.1172306E+00
         -1   -1    0    0    0  501 -0.00000000000E+00  0.00000000000E+00  0.84619072513E+02  0.84619072513E+02  0.00000000000E+00 0.  1.
          1   -1    0    0  502    0  0.00000000000E+00 -0.00000000000E+00 -0.36481233019E+03  0.36481233019E+03  0.00000000000E+00 0. -1.
          6    1    1    2  502    0  0.33696629268E+02  0.73620572602E+01 -0.12753794021E+03  0.21688611967E+03  0.17200000000E+03 0. -1.
         -6    1    1    2    0  501 -0.33696629268E+02 -0.73620572602E+01 -0.15265531746E+03  0.23254528303E+03  0.17200000000E+03 0. -1.
</event>
<event>
 4    1  0.1054668E+000  0.5656077E+03  0.7818608E-02  0.9979446E-01
          2   -1    0    0  502    0  0.00000000000E+00  0.00000000000E+00  0.14697795235E+04  0.14697795235E+04  0.00000000000E+00 0. -1.
         -2   -1    0    0    0  501 -0.00000000000E+00 -0.00000000000E+00 -0.49701710255E+03  0.49701710255E+03  0.00000000000E+00 0.  1.
          6    1    1    2  502    0  0.46277961084E+03  0.27597657041E+03 -0.25088400460E+03  0.61875263182E+03  0.17200000000E+03 0.  1.
         -6    1    1    2    0  501 -0.46277961084E+03 -0.27597657041E+03  0.12236464256E+04  0.13480439943E+04  0.17200000000E+03 0. -1.
</event>
<event>
 4    1  0.1054668E+000  0.2622573E+03  0.7818608E-02  0.1105795E+00
          2   -1    0    0  502    0  0.00000000000E+00  0.00000000000E+00  0.13335925493E+04  0.13335925493E+04  0.00000000000E+00 0. -1.
         -2   -1    0    0    0  501 -0.00000000000E+00 -0.00000000000E+00 -0.91584370783E+02  0.91584370783E+02  0.00000000000E+00 0.  1.
          6    1    1    2  502    0 -0.14339721494E+03 -0.13649956125E+03  0.10919961857E+04  0.11230469986E+04  0.17200000000E+03 0. -1.
         -6    1    1    2    0  501  0.14339721494E+03  0.13649956125E+03  0.15001199283E+03  0.30212992150E+03  0.17200000000E+03 0.  1.
</event>
<event>
 4    1  0.1054668E+000  0.2067130E+03  0.7818608E-02  0.1144196E+00
          1   -1    0    0  502    0  0.00000000000E+00  0.00000000000E+00  0.29272331208E+03  0.29272331208E+03  0.00000000000E+00 0. -1.
         -1   -1    0    0    0  501 -0.00000000000E+00 -0.00000000000E+00 -0.15369131075E+03  0.15369131075E+03  0.00000000000E+00 0.  1.
          6    1    1    2  502    0 -0.43217912180E+02  0.10620016324E+03  0.11952991120E+03  0.23878371443E+03  0.17200000000E+03 0. -1.
         -6    1    1    2    0  501  0.43217912180E+02 -0.10620016324E+03  0.19502090136E+02  0.20763090840E+03  0.17200000000E+03 0. -1.
</event>
<event>
 4    1  0.1054668E+000  0.2767485E+03  0.7818608E-02  0.1097478E+00
          1   -1    0    0  502    0  0.00000000000E+00  0.00000000000E+00  0.77469513055E+03  0.77469513055E+03  0.00000000000E+00 0.  1.
         -1   -1    0    0    0  501 -0.00000000000E+00 -0.00000000000E+00 -0.10183482245E+03  0.10183482245E+03  0.00000000000E+00 0. -1.
          6    1    1    2  502    0 -0.19055736751E+03 -0.10340984555E+03  0.26157811324E+03  0.38080548288E+03  0.17200000000E+03 0.  1.
         -6    1    1    2    0  501  0.19055736751E+03  0.10340984555E+03  0.41128219486E+03  0.49572447012E+03  0.17200000000E+03 0. -1.
</event>
<event>
 4    1  0.1054668E+000  0.1741942E+03  0.7818608E-02  0.1173543E+00
         -3   -1    0    0    0  501 -0.00000000000E+00  0.00000000000E+00  0.42933989909E+02  0.42933989909E+02  0.00000000000E+00 0.  1.
          3   -1    0    0  502    0  0.00000000000E+00 -0.00000000000E+00 -0.77184190617E+03  0.77184190617E+03  0.00000000000E+00 0. -1.
          6    1    1    2  502    0  0.19242037744E+02  0.19732234228E+02 -0.24614817829E+03  0.30155023256E+03  0.17200000000E+03 0.  1.
         -6    1    1    2    0  501 -0.19242037744E+02 -0.19732234228E+02 -0.48275973797E+03  0.51322566352E+03  0.17200000000E+03 0. -1.
</event>
<event>
 4    1  0.1054668E+000  0.2189574E+03  0.7818608E-02  0.1134663E+00
         -1   -1    0    0    0  501 -0.00000000000E+00  0.00000000000E+00  0.46688951231E+03  0.46688951231E+03  0.00000000000E+00 0.  1.
          1   -1    0    0  502    0  0.00000000000E+00 -0.00000000000E+00 -0.10475119359E+03  0.10475119359E+03  0.00000000000E+00 0. -1.
          6    1    1    2  502    0 -0.10628843241E+03  0.84030552636E+02  0.14092329716E+03  0.26038767314E+03  0.17200000000E+03 0. -1.
         -6    1    1    2    0  501  0.10628843241E+03 -0.84030552636E+02  0.22121502156E+03  0.31125303276E+03  0.17200000000E+03 0.  1.
</event>
<event>
 4    1  0.1054668E+000  0.1934468E+03  0.7818608E-02  0.1155389E+00
         -2   -1    0    0    0  501 -0.00000000000E+00  0.00000000000E+00  0.22418796488E+03  0.22418796488E+03  0.00000000000E+00 0.  1.
          2   -1    0    0  502    0  0.00000000000E+00 -0.00000000000E+00 -0.17493513175E+03  0.17493513175E+03  0.00000000000E+00 0. -1.
          6    1    1    2  502    0 -0.41227623141E+02 -0.78345071175E+02 -0.18087368684E+02  0.19429055559E+03  0.17200000000E+03 0. -1.
         -6    1    1    2    0  501  0.41227623141E+02  0.78345071175E+02  0.67340201810E+02  0.20483254104E+03  0.17200000000E+03 0.  1.
</event>
<event>
 4    1  0.1054668E+000  0.1807903E+03  0.7818608E-02  0.1167040E+00
         -2   -1    0    0    0  501 -0.00000000000E+00  0.00000000000E+00  0.57451554023E+02  0.57451554023E+02  0.00000000000E+00 0. -1.
          2   -1    0    0  502    0  0.00000000000E+00 -0.00000000000E+00 -0.65785117811E+03  0.65785117811E+03  0.00000000000E+00 0.  1.
          6    1    1    2  502    0 -0.44678405410E+02  0.33241356674E+02 -0.43170145387E+03  0.46802915826E+03  0.17200000000E+03 0.  1.
         -6    1    1    2    0  501  0.44678405410E+02 -0.33241356674E+02 -0.16869817021E+03  0.24727357388E+03  0.17200000000E+03 0. -1.
</event>
<event>
 4    1  0.1054668E+000  0.2031264E+03  0.7818608E-02  0.1147128E+00
         -2   -1    0    0    0  501 -0.00000000000E+00  0.00000000000E+00  0.16967141256E+02  0.16967141256E+02  0.00000000000E+00 0.  1.
          2   -1    0    0  502    0  0.00000000000E+00 -0.00000000000E+00 -0.24584936568E+04  0.24584936568E+04  0.00000000000E+00 0. -1.
          6    1    1    2  502    0  0.10778343771E+03  0.76866431058E+01 -0.10917427987E+04  0.11104785871E+04  0.17200000000E+03 0.  1.
         -6    1    1    2    0  501 -0.10778343771E+03 -0.76866431058E+01 -0.13497837168E+04  0.13649822109E+04  0.17200000000E+03 0. -1.
</event>
<event>
 4    1  0.1054668E+000  0.2393011E+03  0.7818608E-02  0.1120259E+00
         -1   -1    0    0    0  501 -0.00000000000E+00  0.00000000000E+00  0.18248172609E+03  0.18248172609E+03  0.00000000000E+00 0.  1.
          1   -1    0    0  502    0  0.00000000000E+00 -0.00000000000E+00 -0.33004573273E+03  0.33004573273E+03  0.00000000000E+00 0. -1.
          6    1    1    2  502    0  0.31798330472E+02 -0.16330915535E+03 -0.13061557901E+03  0.27262693103E+03  0.17200000000E+03 0. -1.
         -6    1    1    2    0  501 -0.31798330472E+02  0.16330915535E+03 -0.16948427632E+02  0.23990052780E+03  0.17200000000E+03 0.  1.
</event>
<event>
 4    1  0.1054668E+000  0.4586986E+03  0.7818608E-02  0.1025159E+00
          1   -1    0    0  502    0  0.00000000000E+00  0.00000000000E+00  0.25455297485E+03  0.25455297485E+03  0.00000000000E+00 0.  1.
         -1   -1    0    0    0  501 -0.00000000000E+00 -0.00000000000E+00 -0.94976842374E+03  0.94976842374E+03  0.00000000000E+00 0. -1.
          6    1    1    2  502    0  0.20670967171E+03  0.37160663383E+03 -0.13072931284E+03  0.47696386857E+03  0.17200000000E+03 0. -1.
         -6    1    1    2    0  501 -0.20670967171E+03 -0.37160663383E+03 -0.56448613604E+03  0.72735753002E+03  0.17200000000E+03 0. -1.
</event>
<event>
 4    1  0.1054668E+000  0.2467604E+03  0.7818608E-02  0.1115369E+00
          1   -1    0    0  502    0  0.00000000000E+00  0.00000000000E+00  0.90985335638E+03  0.90985335638E+03  0.00000000000E+00 0. -1.
         -1   -1    0    0    0  501 -0.00000000000E+00 -0.00000000000E+00 -0.66972223072E+02  0.66972223072E+02  0.00000000000E+00 0.  1.
          6    1    1    2  502    0  0.46008632714E+02  0.17085046358E+03  0.40828236582E+03  0.47705886998E+03  0.17200000000E+03 0.  1.
         -6    1    1    2    0  501 -0.46008632714E+02 -0.17085046358E+03  0.43459876748E+03  0.49976670947E+03  0.17200000000E+03 0. -1.
</event>
<event>
 4    1  0.1054668E+000  0.2466729E+03  0.7818608E-02  0.1115426E+00
          2   -1    0    0  502    0  0.00000000000E+00  0.00000000000E+00  0.26606089073E+03  0.26606089073E+03  0.00000000000E+00 0.  1.
         -2   -1    0    0    0  501 -0.00000000000E+00 -0.00000000000E+00 -0.27441607031E+03  0.27441607031E+03  0.00000000000E+00 0. -1.
          6    1    1    2  502    0  0.13956273658E+03  0.10856220990E+03  0.10612554173E+03  0.26853331538E+03  0.17200000000E+03 0. -1.
         -6    1    1    2    0  501 -0.13956273658E+03 -0.10856220990E+03 -0.11448072131E+03  0.27194364565E+03  0.17200000000E+03 0.  1.
</event>
<event>
 4    1  0.1054668E+000  0.2509882E+03  0.7818608E-02  0.1112682E+00
          1   -1    0    0  502    0  0.00000000000E+00  0.00000000000E+00  0.53041814631E+03  0.53041814631E+03  0.00000000000E+00 0.  1.
         -1   -1    0    0    0  501 -0.00000000000E+00 -0.00000000000E+00 -0.15415508828E+03  0.15415508828E+03  0.00000000000E+00 0. -1.
          6    1    1    2  502    0  0.41330055173E+02 -0.17805309944E+03  0.35213467324E+03  0.43242792206E+03  0.17200000000E+03 0.  1.
         -6    1    1    2    0  501 -0.41330055173E+02  0.17805309944E+03  0.24128384786E+02  0.25214531253E+03  0.17200000000E+03 0. -1.
</event>
<event>
 4    1  0.1054668E+000  0.2097426E+03  0.7818608E-02  0.1141770E+00
          1   -1    0    0  502    0  0.00000000000E+00  0.00000000000E+00  0.44808000050E+04  0.44808000050E+04  0.00000000000E+00 0. -1.
         -1   -1    0    0    0  501 -0.00000000000E+00 -0.00000000000E+00 -0.98422639946E+01  0.98422639946E+01  0.00000000000E+00 0.  1.
          6    1    1    2  502    0 -0.53971783056E+01 -0.11991167583E+03  0.23472469036E+04  0.23565992374E+04  0.17200000000E+03 0. -1.
         -6    1    1    2    0  501  0.53971783056E+01  0.11991167583E+03  0.21237108375E+04  0.21340430316E+04  0.17200000000E+03 0. -1.
</event>
<event>
 4    1  0.1054668E+000  0.1853426E+03  0.7818608E-02  0.1162730E+00
         -1   -1    0    0    0  501 -0.00000000000E+00  0.00000000000E+00  0.23537737673E+03  0.23537737673E+03  0.00000000000E+00 0.  1.
          1   -1    0    0  502    0  0.00000000000E+00 -0.00000000000E+00 -0.16456495697E+03  0.16456495697E+03  0.00000000000E+00 0. -1.
          6    1    1    2  502    0 -0.58030136280E+01  0.68805452691E+02  0.10267323242E+03  0.21188123546E+03  0.17200000000E+03 0.  1.
         -6    1    1    2    0  501  0.58030136280E+01 -0.68805452691E+02 -0.31860812649E+02  0.18806109824E+03  0.17200000000E+03 0.  1.
</event>
<event>
 4    1  0.1054668E+000  0.3902502E+03  0.7818608E-02  0.1047209E+00
          2   -1    0    0  502    0  0.00000000000E+00  0.00000000000E+00  0.18300444807E+04  0.18300444807E+04  0.00000000000E+00 0.  1.
         -2   -1    0    0    0  501 -0.00000000000E+00 -0.00000000000E+00 -0.83486949754E+02  0.83486949754E+02  0.00000000000E+00 0. -1.
          6    1    1    2  502    0  0.21943468054E+03 -0.27305615350E+03  0.92743913089E+03  0.10062000713E+04  0.17200000000E+03 0. -1.
         -6    1    1    2    0  501 -0.21943468054E+03  0.27305615350E+03  0.81911840003E+03  0.90733135913E+03  0.17200000000E+03 0.  1.
</event>
<event>
 4    1  0.1054668E+000  0.2649244E+03  0.7818608E-02  0.1104220E+00
          1   -1    0    0  502    0  0.00000000000E+00  0.00000000000E+00  0.25252654887E+03  0.25252654887E+03  0.00000000000E+00 0. -1.
         -1   -1    0    0    0  501 -0.00000000000E+00 -0.00000000000E+00 -0.46393814547E+03  0.46393814547E+03  0.00000000000E+00 0.  1.
          6    1    1    2  502    0 -0.74792924238E+02 -0.18710149650E+03  0.12112373199E+03  0.29130037755E+03  0.17200000000E+03 0.  1.
         -6    1    1    2    0  501  0.74792924238E+02  0.18710149650E+03 -0.33253532859E+03  0.42516431678E+03  0.17200000000E+03 0.  1.
</event>
<event>
 4    1  0.1054668E+000  0.1858149E+03  0.7818608E-02  0.1162291E+00
          2   -1    0    0  502    0  0.00000000000E+00  0.00000000000E+00  0.12107383031E+04  0.12107383031E+04  0.00000000000E+00 0.  1.
         -2   -1    0    0    0  501 -0.00000000000E+00 -0.00000000000E+00 -0.31459055968E+02  0.31459055968E+02  0.00000000000E+00 0. -1.
          6    1    1    2  502    0 -0.10980028168E+02  0.69445086017E+02  0.77956337592E+03  0.80140266911E+03  0.17200000000E+03 0.  1.
         -6    1    1    2    0  501  0.10980028168E+02 -0.69445086017E+02  0.39971587120E+03  0.44079468994E+03  0.17200000000E+03 0. -1.
</event>
<event>
 4    1  0.1054668E+000  0.1751730E+03  0.7818608E-02  0.1172558E+00
         -2   -1    0    0    0  501 -0.00000000000E+00  0.00000000000E+00  0.14381917910E+03  0.14381917910E+03  0.00000000000E+00 0.  1.
          2   -1    0    0  502    0  0.00000000000E+00 -0.00000000000E+00 -0.24005922701E+03  0.24005922701E+03  0.00000000000E+00 0. -1.
          6    1    1    2  502    0 -0.19812986020E+02  0.26627598580E+02 -0.11212821328E+03  0.20798634483E+03  0.17200000000E+03 0. -1.
         -6    1    1    2    0  501  0.19812986020E+02 -0.26627598580E+02  0.15888165372E+02  0.17589206128E+03  0.17200000000E+03 0.  1.
</event>
<event>
 4    1  0.1054668E+000  0.2772479E+03  0.7818608E-02  0.1097202E+00
         -1   -1    0    0    0  501 -0.00000000000E+00  0.00000000000E+00  0.35220406112E+03  0.35220406112E+03  0.00000000000E+00 0.  1.
          1   -1    0    0  502    0  0.00000000000E+00 -0.00000000000E+00 -0.21916790492E+03  0.21916790492E+03  0.00000000000E+00 0. -1.
          6    1    1    2  502    0 -0.21163835864E+03 -0.49915723107E+02  0.47967959499E+02  0.28136684133E+03  0.17200000000E+03 0. -1.
         -6    1    1    2    0  501  0.21163835864E+03  0.49915723107E+02  0.85068196701E+02  0.29000512470E+03  0.17200000000E+03 0.  1.
</event>
<event>
 4    1  0.1054668E+000  0.1746625E+03  0.7818608E-02  0.1173071E+00
         -1   -1    0    0    0  501 -0.00000000000E+00  0.00000000000E+00  0.79598318688E+02  0.79598318688E+02  0.00000000000E+00 0.  1.
          1   -1    0    0  502    0  0.00000000000E+00 -0.00000000000E+00 -0.39077399031E+03  0.39077399031E+03  0.00000000000E+00 0. -1.
          6    1    1    2  502    0  0.29998873228E+02 -0.48009818498E+01 -0.18819679712E+03  0.25675867321E+03  0.17200000000E+03 0. -1.
         -6    1    1    2    0  501 -0.29998873228E+02  0.48009818498E+01 -0.12297887451E+03  0.21361363579E+03  0.17200000000E+03 0.  1.
</event>
<event>
 4    1  0.1054668E+000  0.1928404E+03  0.7818608E-02  0.1155924E+00
          1   -1    0    0  502    0  0.00000000000E+00  0.00000000000E+00  0.73599767524E+03  0.73599767524E+03  0.00000000000E+00 0. -1.
         -1   -1    0    0    0  501 -0.00000000000E+00 -0.00000000000E+00 -0.59869546977E+02  0.59869546977E+02  0.00000000000E+00 0.  1.
          6    1    1    2  502    0 -0.84104043085E+02  0.23019843564E+02  0.18086448637E+03  0.26438488174E+03  0.17200000000E+03 0.  1.
         -6    1    1    2    0  501  0.84104043085E+02 -0.23019843564E+02  0.49526364190E+03  0.53148234048E+03  0.17200000000E+03 0. -1.
</event>
<event>
 4    1  0.1054668E+000  0.2274649E+03  0.7818608E-02  0.1128437E+00
         -2   -1    0    0    0  501 -0.00000000000E+00  0.00000000000E+00  0.80084696163E+02  0.80084696163E+02  0.00000000000E+00 0.  1.
          2   -1    0    0  502    0  0.00000000000E+00 -0.00000000000E+00 -0.64858612457E+03  0.64858612457E+03  0.00000000000E+00 0. -1.
          6    1    1    2  502    0 -0.14706038747E+03  0.23011500039E+02 -0.30694513665E+03  0.38204136374E+03  0.17200000000E+03 0.  1.
         -6    1    1    2    0  501  0.14706038747E+03 -0.23011500039E+02 -0.26155629176E+03  0.34662945699E+03  0.17200000000E+03 0. -1.
</event>
<event>
 4    1  0.1054668E+000  0.2035969E+03  0.7818608E-02  0.1146739E+00
          2   -1    0    0  502    0  0.00000000000E+00  0.00000000000E+00  0.58907010578E+03  0.58907010578E+03  0.00000000000E+00 0.  1.
         -2   -1    0    0    0  501 -0.00000000000E+00 -0.00000000000E+00 -0.71269996322E+02  0.71269996322E+02  0.00000000000E+00 0. -1.
          6    1    1    2  502    0 -0.10759472182E+03 -0.17060342637E+02  0.22175602301E+03  0.30104387254E+03  0.17200000000E+03 0. -1.
         -6    1    1    2    0  501  0.10759472182E+03  0.17060342637E+02  0.29604408645E+03  0.35929622956E+03  0.17200000000E+03 0. -1.
</event>
<event>
 4    1  0.1054668E+000  0.1738617E+03  0.7818608E-02  0.1173880E+00
          2   -1    0    0  502    0  0.00000000000E+00  0.00000000000E+00  0.12927735117E+04  0.12927735117E+04  0.00000000000E+00 0. -1.
         -2   -1    0    0    0  501 -0.00000000000E+00 -0.00000000000E+00 -0.25834204651E+02  0.25834204651E+02  0.00000000000E+00 0.  1.
          6    1    1    2  502    0  0.15377032062E+02 -0.20184787793E+02  0.83658811643E+03  0.85446331421E+03  0.17200000000E+03 0. -1.
         -6    1    1    2    0  501 -0.15377032062E+02  0.20184787793E+02  0.43035119059E+03  0.46414440211E+03  0.17200000000E+03 0.  1.
</event>
<event>
 4    1  0.1054668E+000  0.1805038E+03  0.7818608E-02  0.1167316E+00
         -2   -1    0    0    0  501 -0.00000000000E+00  0.00000000000E+00  0.17348319242E+03  0.17348319242E+03  0.00000000000E+00 0.  1.
          2   -1    0    0  502    0  0.00000000000E+00 -0.00000000000E+00 -0.21392774277E+03  0.21392774277E+03  0.00000000000E+00 0. -1.
          6    1    1    2  502    0  0.48733447584E+02 -0.24953279487E+02  0.47462152864E+02  0.18663941445E+03  0.17200000000E+03 0.  1.
         -6    1    1    2    0  501 -0.48733447584E+02  0.24953279487E+02 -0.87906703222E+02  0.20077152074E+03  0.17200000000E+03 0. -1.
</event>
<event>
 4    1  0.1054668E+000  0.1983046E+03  0.7818608E-02  0.1151177E+00
         -2   -1    0    0    0  501 -0.00000000000E+00  0.00000000000E+00  0.78261184856E+02  0.78261184856E+02  0.00000000000E+00 0.  1.
          2   -1    0    0  502    0  0.00000000000E+00 -0.00000000000E+00 -0.51462130770E+03  0.51462130770E+03  0.00000000000E+00 0. -1.
          6    1    1    2  502    0 -0.89666832355E+02 -0.41238047568E+02 -0.17264782588E+03  0.26292962779E+03  0.17200000000E+03 0.  1.
         -6    1    1    2    0  501  0.89666832355E+02  0.41238047568E+02 -0.26371229696E+03  0.32995286476E+03  0.17200000000E+03 0. -1.
</event>
<event>
 4    1  0.1054668E+000  0.2064845E+03  0.7818608E-02  0.1144380E+00
         -1   -1    0    0    0  501 -0.00000000000E+00  0.00000000000E+00  0.89695343528E+02  0.89695343528E+02  0.00000000000E+00 0. -1.
          1   -1    0    0  502    0  0.00000000000E+00 -0.00000000000E+00 -0.65157348849E+03  0.65157348849E+03  0.00000000000E+00 0.  1.
          6    1    1    2  502    0 -0.11266519998E+03  0.18931812961E+02 -0.88183379675E+02  0.22452654471E+03  0.17200000000E+03 0. -1.
         -6    1    1    2    0  501  0.11266519998E+03 -0.18931812961E+02 -0.47369476529E+03  0.51674228731E+03  0.17200000000E+03 0.  1.
</event>
<event>
 4    1  0.1054668E+000  0.1727561E+03  0.7818608E-02  0.1175004E+00
         -2   -1    0    0    0  501 -0.00000000000E+00  0.00000000000E+00  0.46504343536E+02  0.46504343536E+02  0.00000000000E+00 0. -1.
          2   -1    0    0  502    0  0.00000000000E+00 -0.00000000000E+00 -0.68049301420E+03  0.68049301420E+03  0.00000000000E+00 0.  1.
          6    1    1    2  502    0 -0.14541421216E+02 -0.70164700171E+01 -0.23027321805E+03  0.28787226114E+03  0.17200000000E+03 0.  1.
         -6    1    1    2    0  501  0.14541421216E+02  0.70164700171E+01 -0.40371545261E+03  0.43912509659E+03  0.17200000000E+03 0.  1.
</event>
<event>
 4    1  0.1054668E+000  0.1823524E+03  0.7818608E-02  0.1165546E+00
         -2   -1    0    0    0  501 -0.00000000000E+00  0.00000000000E+00  0.54383558985E+02  0.54383558985E+02  0.00000000000E+00 0. -1.
          2   -1    0    0  502    0  0.00000000000E+00 -0.00000000000E+00 -0.79185292421E+03  0.79185292421E+03  0.00000000000E+00 0.  1.
          6    1    1    2  502    0 -0.18094054250E+02 -0.57801404262E+02 -0.57069720699E+03  0.59912244091E+03  0.17200000000E+03 0.  1.
         -6    1    1    2    0  501  0.18094054250E+02  0.57801404262E+02 -0.16677215824E+03  0.24711404229E+03  0.17200000000E+03 0. -1.
</event>
<event>
 4    1  0.1054668E+000  0.2127531E+03  0.7818608E-02  0.1139404E+00
         -2   -1    0    0    0  501 -0.00000000000E+00  0.00000000000E+00  0.65255017131E+02  0.65255017131E+02  0.00000000000E+00 0.  1.
          2   -1    0    0  502    0  0.00000000000E+00 -0.00000000000E+00 -0.11059508095E+04  0.11059508095E+04  0.00000000000E+00 0. -1.
          6    1    1    2  502    0  0.29339814253E+02  0.12173354315E+03 -0.16279151364E+03  0.26788982277E+03  0.17200000000E+03 0.  1.
         -6    1    1    2    0  501 -0.29339814253E+02 -0.12173354315E+03 -0.87790427873E+03  0.90331600386E+03  0.17200000000E+03 0. -1.
</event>
<event>
 4    1  0.1054668E+000  0.1723367E+03  0.7818608E-02  0.1175433E+00
         -1   -1    0    0    0  501 -0.00000000000E+00  0.00000000000E+00  0.15557152313E+03  0.15557152313E+03  0.00000000000E+00 0.  1.
          1   -1    0    0  502    0  0.00000000000E+00 -0.00000000000E+00 -0.19714522915E+03  0.19714522915E+03  0.00000000000E+00 0. -1.
          6    1    1    2  502    0 -0.25501807290E+01  0.10461052896E+02 -0.52154284085E+02  0.18005556475E+03  0.17200000000E+03 0. -1.
         -6    1    1    2    0  501  0.25501807290E+01 -0.10461052896E+02  0.10580578063E+02  0.17266118754E+03  0.17200000000E+03 0.  1.
</event>
<event>
 4    1  0.1054668E+000  0.2250365E+03  0.7818608E-02  0.1130183E+00
         -2   -1    0    0    0  501 -0.00000000000E+00  0.00000000000E+00  0.13354344021E+04  0.13354344021E+04  0.00000000000E+00 0.  1.
          2   -1    0    0  502    0  0.00000000000E+00 -0.00000000000E+00 -0.39841372662E+02  0.39841372662E+02  0.00000000000E+00 0. -1.
          6    1    1    2  502    0 -0.15039622712E+01 -0.14510400033E+03  0.49684084422E+03  0.54542850796E+03  0.17200000000E+03 0. -1.
         -6    1    1    2    0  501  0.15039622712E+01  0.14510400033E+03  0.79875218518E+03  0.82984726676E+03  0.17200000000E+03 0.  1.
</event>
<event>
 4    1  0.1054668E+000  0.1853159E+03  0.7818608E-02  0.1162755E+00
          2   -1    0    0  502    0  0.00000000000E+00  0.00000000000E+00  0.32093909815E+03  0.32093909815E+03  0.00000000000E+00 0. -1.
         -2   -1    0    0    0  501 -0.00000000000E+00 -0.00000000000E+00 -0.10819938933E+03  0.10819938933E+03  0.00000000000E+00 0.  1.
          6    1    1    2  502    0  0.62888567464E+02  0.28337506300E+02  0.83823007986E+02  0.20339194391E+03  0.17200000000E+03 0.  1.
         -6    1    1    2    0  501 -0.62888567464E+02 -0.28337506300E+02  0.12891670083E+03  0.22574654357E+03  0.17200000000E+03 0. -1.
</event>
<event>
 4    1  0.1054668E+000  0.2228369E+03  0.7818608E-02  0.1131786E+00
          2   -1    0    0  502    0  0.00000000000E+00  0.00000000000E+00  0.99791552173E+03  0.99791552173E+03  0.00000000000E+00 0. -1.
         -2   -1    0    0    0  501 -0.00000000000E+00 -0.00000000000E+00 -0.56129466763E+02  0.56129466763E+02  0.00000000000E+00 0.  1.
          6    1    1    2  502    0 -0.55823001802E+02 -0.13021554963E+03  0.29335780441E+03  0.36839530168E+03  0.17200000000E+03 0. -1.
         -6    1    1    2    0  501  0.55823001802E+02  0.13021554963E+03  0.64842825056E+03  0.68564968680E+03  0.17200000000E+03 0.  1.
</event>
<event>
 4    1  0.1054668E+000  0.2087127E+03  0.7818608E-02  0.1142589E+00
         -2   -1    0    0    0  501 -0.00000000000E+00  0.00000000000E+00  0.45175838255E+02  0.45175838255E+02  0.00000000000E+00 0. -1.
          2   -1    0    0  502    0  0.00000000000E+00 -0.00000000000E+00 -0.12619396194E+04  0.12619396194E+04  0.00000000000E+00 0.  1.
          6    1    1    2  502    0  0.11681499409E+03  0.18200017041E+02 -0.29095509636E+03  0.35807241106E+03  0.17200000000E+03 0.  1.
         -6    1    1    2    0  501 -0.11681499409E+03 -0.18200017041E+02 -0.92580868474E+03  0.94904304655E+03  0.17200000000E+03 0.  1.
</event>
<event>
 4    1  0.1054668E+000  0.1857689E+03  0.7818608E-02  0.1162334E+00
         -3   -1    0    0    0  501 -0.00000000000E+00  0.00000000000E+00  0.12948531892E+03  0.12948531892E+03  0.00000000000E+00 0.  1.
          3   -1    0    0  502    0  0.00000000000E+00 -0.00000000000E+00 -0.41082045405E+03  0.41082045405E+03  0.00000000000E+00 0. -1.
          6    1    1    2  502    0 -0.29009604525E+02 -0.63910196841E+02  0.19443582931E+02  0.18678362705E+03  0.17200000000E+03 0.  1.
         -6    1    1    2    0  501  0.29009604525E+02  0.63910196841E+02 -0.30077871806E+03  0.35352214592E+03  0.17200000000E+03 0. -1.
</event>
<event>
 4    1  0.1054668E+000  0.2888775E+03  0.7818608E-02  0.1090937E+00
          2   -1    0    0  502    0  0.00000000000E+00  0.00000000000E+00  0.28782809761E+04  0.28782809761E+04  0.00000000000E+00 0. -1.
         -2   -1    0    0    0  501 -0.00000000000E+00 -0.00000000000E+00 -0.29347986133E+02  0.29347986133E+02  0.00000000000E+00 0.  1.
          6    1    1    2  502    0 -0.17186065294E+03 -0.15598126231E+03  0.12645935517E+04  0.12971688746E+04  0.17200000000E+03 0.  1.
         -6    1    1    2    0  501  0.17186065294E+03  0.15598126231E+03  0.15843394383E+04  0.16104600877E+04  0.17200000000E+03 0. -1.
</event>
<event>
 4    1  0.1054668E+000  0.2291110E+03  0.7818608E-02  0.1127267E+00
         -2   -1    0    0    0  501 -0.00000000000E+00  0.00000000000E+00  0.40381386990E+02  0.40381386990E+02  0.00000000000E+00 0. -1.
          2   -1    0    0  502    0  0.00000000000E+00 -0.00000000000E+00 -0.13082002091E+04  0.13082002091E+04  0.00000000000E+00 0.  1.
          6    1    1    2  502    0 -0.65135085748E+02  0.13662092035E+03 -0.58020671166E+03  0.62380420288E+03  0.17200000000E+03 0.  1.
         -6    1    1    2    0  501  0.65135085748E+02 -0.13662092035E+03 -0.68761211042E+03  0.72477739318E+03  0.17200000000E+03 0.  1.
</event>
<event>
 4    1  0.1054668E+000  0.2712949E+03  0.7818608E-02  0.1100541E+00
          1   -1    0    0  502    0  0.00000000000E+00  0.00000000000E+00  0.30459780895E+03  0.30459780895E+03  0.00000000000E+00 0. -1.
         -1   -1    0    0    0  501 -0.00000000000E+00 -0.00000000000E+00 -0.80678901863E+03  0.80678901863E+03  0.00000000000E+00 0.  1.
          6    1    1    2  502    0 -0.18210819878E+03  0.10418029315E+03 -0.71618815096E+03  0.76585011401E+03  0.17200000000E+03 0.  1.
         -6    1    1    2    0  501  0.18210819878E+03 -0.10418029315E+03  0.21399694128E+03  0.34553671357E+03  0.17200000000E+03 0. -1.
</event>
<event>
 4    1  0.1054668E+000  0.1800772E+03  0.7818608E-02  0.1167728E+00
         -2   -1    0    0    0  501 -0.00000000000E+00  0.00000000000E+00  0.32931805384E+02  0.32931805384E+02  0.00000000000E+00 0. -1.
          2   -1    0    0  502    0  0.00000000000E+00 -0.00000000000E+00 -0.11549713811E+04  0.11549713811E+04  0.00000000000E+00 0.  1.
          6    1    1    2  502    0 -0.52496275673E+02  0.93776181923E+01 -0.33296348404E+03  0.37853993235E+03  0.17200000000E+03 0. -1.
         -6    1    1    2    0  501  0.52496275673E+02 -0.93776181923E+01 -0.78907609169E+03  0.80936325415E+03  0.17200000000E+03 0.  1.
</event>
<event>
 4    1  0.1054668E+000  0.2061739E+03  0.7818608E-02  0.1144632E+00
         -2   -1    0    0    0  501 -0.00000000000E+00  0.00000000000E+00  0.15123806433E+03  0.15123806433E+03  0.00000000000E+00 0. -1.
          2   -1    0    0  502    0  0.00000000000E+00 -0.00000000000E+00 -0.74986400676E+03  0.74986400676E+03  0.00000000000E+00 0.  1.
          6    1    1    2  502    0  0.88415980366E+02 -0.71458214361E+02 -0.65555592030E+03  0.68721265022E+03  0.17200000000E+03 0.  1.
         -6    1    1    2    0  501 -0.88415980366E+02  0.71458214361E+02  0.56929977868E+02  0.21388942088E+03  0.17200000000E+03 0. -1.
</event>
<event>
 4    1  0.1054668E+000  0.1757353E+03  0.7818608E-02  0.1171995E+00
         -3   -1    0    0    0  501 -0.00000000000E+00  0.00000000000E+00  0.61948617431E+02  0.61948617431E+02  0.00000000000E+00 0. -1.
          3   -1    0    0  502    0  0.00000000000E+00 -0.00000000000E+00 -0.56084604136E+03  0.56084604136E+03  0.00000000000E+00 0.  1.
          6    1    1    2  502    0 -0.35403395508E+02  0.67448770345E+01 -0.14564504501E+03  0.22824410817E+03  0.17200000000E+03 0. -1.
         -6    1    1    2    0  501  0.35403395508E+02 -0.67448770345E+01 -0.35325237892E+03  0.39455055062E+03  0.17200000000E+03 0.  1.
</event>
<event>
 4    1  0.1054668E+000  0.1828604E+03  0.7818608E-02  0.1165063E+00
          2   -1    0    0  502    0  0.00000000000E+00  0.00000000000E+00  0.12983815033E+04  0.12983815033E+04  0.00000000000E+00 0. -1.
         -2   -1    0    0    0  501 -0.00000000000E+00 -0.00000000000E+00 -0.26402828858E+02  0.26402828858E+02  0.00000000000E+00 0.  1.
          6    1    1    2  502    0 -0.34710742950E+02  0.51469483091E+02  0.73986239310E+03  0.76212486122E+03  0.17200000000E+03 0. -1.
         -6    1    1    2    0  501  0.34710742950E+02 -0.51469483091E+02  0.53211628133E+03  0.56265947092E+03  0.17200000000E+03 0.  1.
</event>
<event>
 4    1  0.1054668E+000  0.2174522E+03  0.7818608E-02  0.1135797E+00
         -2   -1    0    0    0  501 -0.00000000000E+00  0.00000000000E+00  0.26192663203E+02  0.26192663203E+02  0.00000000000E+00 0. -1.
          2   -1    0    0  502    0  0.00000000000E+00 -0.00000000000E+00 -0.25039653125E+04  0.25039653125E+04  0.00000000000E+00 0.  1.
          6    1    1    2  502    0 -0.12416449899E+03  0.47798038135E+02 -0.19071375072E+04  0.19194944508E+04  0.17200000000E+03 0.  1.
         -6    1    1    2    0  501  0.12416449899E+03 -0.47798038135E+02 -0.57063514210E+03  0.61066352492E+03  0.17200000000E+03 0.  1.
</event>
<event>
 4    1  0.1054668E+000  0.2266658E+03  0.7818608E-02  0.1129009E+00
         -2   -1    0    0    0  501 -0.00000000000E+00  0.00000000000E+00  0.13485447971E+03  0.13485447971E+03  0.00000000000E+00 0. -1.
          2   -1    0    0  502    0  0.00000000000E+00 -0.00000000000E+00 -0.68190616191E+03  0.68190616191E+03  0.00000000000E+00 0.  1.
          6    1    1    2  502    0  0.15301476284E+02 -0.14683064606E+03 -0.54481330182E+03  0.59008381408E+03  0.17200000000E+03 0.  1.
         -6    1    1    2    0  501 -0.15301476284E+02  0.14683064606E+03 -0.22383803788E+01  0.22667682755E+03  0.17200000000E+03 0. -1.
</event>
<event>
 4    1  0.1054668E+000  0.1901624E+03  0.7818608E-02  0.1158315E+00
         -3   -1    0    0    0  501 -0.00000000000E+00  0.00000000000E+00  0.25924961147E+03  0.25924961147E+03  0.00000000000E+00 0. -1.
          3   -1    0    0  502    0  0.00000000000E+00 -0.00000000000E+00 -0.15095464727E+03  0.15095464727E+03  0.00000000000E+00 0.  1.
          6    1    1    2  502    0 -0.81100601930E+02 -0.65036230693E+00 -0.23852732454E+01  0.19017733864E+03  0.17200000000E+03 0.  1.
         -6    1    1    2    0  501  0.81100601930E+02  0.65036230693E+00  0.11068023745E+03  0.22002692009E+03  0.17200000000E+03 0. -1.
</event>
<event>
 4    1  0.1054668E+000  0.1733473E+03  0.7818608E-02  0.1174401E+00
         -2   -1    0    0    0  501 -0.00000000000E+00  0.00000000000E+00  0.45095073624E+02  0.45095073624E+02  0.00000000000E+00 0.  1.
          2   -1    0    0  502    0  0.00000000000E+00 -0.00000000000E+00 -0.68691155868E+03  0.68691155868E+03  0.00000000000E+00 0. -1.
          6    1    1    2  502    0  0.10493665328E+02  0.18845886130E+02 -0.25759129519E+03  0.31048761617E+03  0.17200000000E+03 0.  1.
         -6    1    1    2    0  501 -0.10493665328E+02 -0.18845886130E+02 -0.38422518986E+03  0.42151901613E+03  0.17200000000E+03 0.  1.
</event>
<event>
 4    1  0.1054668E+000  0.1784168E+03  0.7818608E-02  0.1169344E+00
          2   -1    0    0  502    0  0.00000000000E+00  0.00000000000E+00  0.43666686503E+04  0.43666686503E+04  0.00000000000E+00 0.  1.
         -2   -1    0    0    0  501 -0.00000000000E+00 -0.00000000000E+00 -0.75488741341E+01  0.75488741341E+01  0.00000000000E+00 0. -1.
          6    1    1    2  502    0 -0.76394606666E+01 -0.46799682400E+02  0.17744632244E+04  0.17834103023E+04  0.17200000000E+03 0. -1.
         -6    1    1    2    0  501  0.76394606666E+01  0.46799682400E+02  0.25846565518E+04  0.25908072221E+04  0.17200000000E+03 0.  1.
</event>
<event>
 4    1  0.1054668E+000  0.1911061E+03  0.7818608E-02  0.1157467E+00
          1   -1    0    0  502    0  0.00000000000E+00  0.00000000000E+00  0.12614989742E+03  0.12614989742E+03  0.00000000000E+00 0. -1.
         -1   -1    0    0    0  501 -0.00000000000E+00 -0.00000000000E+00 -0.41215700793E+03  0.41215700793E+03  0.00000000000E+00 0.  1.
          6    1    1    2  502    0 -0.50661054667E+02 -0.66113498667E+02 -0.28982813584E+03  0.34716262110E+03  0.17200000000E+03 0.  1.
         -6    1    1    2    0  501  0.50661054667E+02  0.66113498667E+02  0.38210253346E+01  0.19114428425E+03  0.17200000000E+03 0. -1.
</event>
<event>
 4    1  0.1054668E+000  0.2153106E+03  0.7818608E-02  0.1137428E+00
          1   -1    0    0  502    0  0.00000000000E+00  0.00000000000E+00  0.18933140066E+04  0.18933140066E+04  0.00000000000E+00 0. -1.
         -1   -1    0    0    0  501 -0.00000000000E+00 -0.00000000000E+00 -0.26270652713E+02  0.26270652713E+02  0.00000000000E+00 0.  1.
          6    1    1    2  502    0 -0.88118095313E+02 -0.94920366220E+02  0.11837196207E+04  0.12031420594E+04  0.17200000000E+03 0. -1.
         -6    1    1    2    0  501  0.88118095313E+02  0.94920366220E+02  0.68332373313E+03  0.71644259987E+03  0.17200000000E+03 0.  1.
</event>
<event>
 4    1  0.1054668E+000  0.1867856E+03  0.7818608E-02  0.1161393E+00
          4   -1    0    0  502    0  0.00000000000E+00  0.00000000000E+00  0.19535499042E+03  0.19535499042E+03  0.00000000000E+00 0.  1.
         -4   -1    0    0    0  501 -0.00000000000E+00 -0.00000000000E+00 -0.18641361160E+03  0.18641361160E+03  0.00000000000E+00 0. -1.
          6    1    1    2  502    0  0.63196584633E+02 -0.36208698683E+02 -0.34629051526E+02  0.18996854839E+03  0.17200000000E+03 0. -1.
         -6    1    1    2    0  501 -0.63196584633E+02  0.36208698683E+02  0.43570430343E+02  0.19180005362E+03  0.17200000000E+03 0.  1.
</event>
<event>
 4    1  0.1054668E+000  0.3991109E+03  0.7818608E-02  0.1044088E+00
          1   -1    0    0  502    0  0.00000000000E+00  0.00000000000E+00  0.54870572536E+03  0.54870572536E+03  0.00000000000E+00 0. -1.
         -1   -1    0    0    0  501 -0.00000000000E+00 -0.00000000000E+00 -0.29267753010E+03  0.29267753010E+03  0.00000000000E+00 0.  1.
          6    1    1    2  502    0  0.20759046430E+03 -0.29429871454E+03  0.90101063151E+02  0.40915490445E+03  0.17200000000E+03 0. -1.
         -6    1    1    2    0  501 -0.20759046430E+03  0.29429871454E+03  0.16592713212E+03  0.43222835102E+03  0.17200000000E+03 0.  1.
</event>
<event>
 4    1  0.1054668E+000  0.2384585E+03  0.7818608E-02  0.1120824E+00
          2   -1    0    0  502    0  0.00000000000E+00  0.00000000000E+00  0.80702107953E+03  0.80702107953E+03  0.00000000000E+00 0.  1.
         -2   -1    0    0    0  501 -0.00000000000E+00 -0.00000000000E+00 -0.70515369432E+02  0.70515369432E+02  0.00000000000E+00 0. -1.
          6    1    1    2  502    0 -0.16171677503E+03  0.33557940161E+02  0.35592288567E+03  0.42841983056E+03  0.17200000000E+03 0.  1.
         -6    1    1    2    0  501  0.16171677503E+03 -0.33557940161E+02  0.38058282442E+03  0.44911661840E+03  0.17200000000E+03 0. -1.
</event>
<event>
 4    1  0.1054668E+000  0.1974091E+03  0.7818608E-02  0.1151944E+00
         -2   -1    0    0    0  501 -0.00000000000E+00  0.00000000000E+00  0.35883516649E+03  0.35883516649E+03  0.00000000000E+00 0. -1.
          2   -1    0    0  502    0  0.00000000000E+00 -0.00000000000E+00 -0.12662322502E+03  0.12662322502E+03  0.00000000000E+00 0.  1.
          6    1    1    2  502    0  0.96879857722E+02  0.80361985591E+00  0.24536032051E+02  0.19892805108E+03  0.17200000000E+03 0. -1.
         -6    1    1    2    0  501 -0.96879857722E+02 -0.80361985591E+00  0.20767590942E+03  0.28653034043E+03  0.17200000000E+03 0. -1.
</event>
<event>
 4    1  0.1054668E+000  0.2434681E+03  0.7818608E-02  0.1117504E+00
          1   -1    0    0  502    0  0.00000000000E+00  0.00000000000E+00  0.17137714553E+03  0.17137714553E+03  0.00000000000E+00 0.  1.
         -1   -1    0    0    0  501 -0.00000000000E+00 -0.00000000000E+00 -0.48770925884E+03  0.48770925884E+03  0.00000000000E+00 0. -1.
          6    1    1    2  502    0  0.15559957884E+03 -0.74037057243E+02  0.19542253360E+02  0.24425112988E+03  0.17200000000E+03 0.  1.
         -6    1    1    2    0  501 -0.15559957884E+03  0.74037057243E+02 -0.33587436667E+03  0.41483527449E+03  0.17200000000E+03 0. -1.
</event>
<event>
 4    1  0.1054668E+000  0.2797026E+03  0.7818608E-02  0.1095852E+00
          1   -1    0    0  502    0  0.00000000000E+00  0.00000000000E+00  0.43033670926E+03  0.43033670926E+03  0.00000000000E+00 0.  1.
         -1   -1    0    0    0  501 -0.00000000000E+00 -0.00000000000E+00 -0.20375548253E+03  0.20375548253E+03  0.00000000000E+00 0. -1.
          6    1    1    2  502    0  0.15666367466E+03  0.15526113200E+03  0.92080366521E+01  0.27985409414E+03  0.17200000000E+03 0. -1.
         -6    1    1    2    0  501 -0.15666367466E+03 -0.15526113200E+03  0.21737319007E+03  0.35423809765E+03  0.17200000000E+03 0.  1.
</event>
<event>
 4    1  0.1054668E+000  0.3150846E+03  0.7818608E-02  0.1077934E+00
          2   -1    0    0  502    0  0.00000000000E+00  0.00000000000E+00  0.39595288514E+03  0.39595288514E+03  0.00000000000E+00 0. -1.
         -2   -1    0    0    0  501 -0.00000000000E+00 -0.00000000000E+00 -0.27345823888E+03  0.27345823888E+03  0.00000000000E+00 0.  1.
          6    1    1    2  502    0  0.57699042332E+01  0.26393374011E+03 -0.35241080571E+02  0.31704927807E+03  0.17200000000E+03 0.  1.
         -6    1    1    2    0  501 -0.57699042332E+01 -0.26393374011E+03  0.15773572684E+03  0.35236184595E+03  0.17200000000E+03 0.  1.
</event>
<event>
 4    1  0.1054668E+000  0.2132281E+03  0.7818608E-02  0.1139035E+00
          2   -1    0    0  502    0  0.00000000000E+00  0.00000000000E+00  0.39450935939E+04  0.39450935939E+04  0.00000000000E+00 0. -1.
         -2   -1    0    0    0  501 -0.00000000000E+00 -0.00000000000E+00 -0.11735394228E+02  0.11735394228E+02  0.00000000000E+00 0.  1.
          6    1    1    2  502    0 -0.12578727869E+03  0.77317177025E+01  0.22317382626E+04  0.22419014010E+04  0.17200000000E+03 0.  1.
         -6    1    1    2    0  501  0.12578727869E+03 -0.77317177025E+01  0.17016199370E+04  0.17149275871E+04  0.17200000000E+03 0.  1.
</event>
<event>
 4    1  0.1054668E+000  0.2363228E+03  0.7818608E-02  0.1122267E+00
         -1   -1    0    0    0  501 -0.00000000000E+00  0.00000000000E+00  0.11724282255E+03  0.11724282255E+03  0.00000000000E+00 0.  1.
          1   -1    0    0  502    0  0.00000000000E+00 -0.00000000000E+00 -0.67683585606E+03  0.67683585606E+03  0.00000000000E+00 0. -1.
          6    1    1    2  502    0  0.25553085660E+02  0.16003591230E+03 -0.49588680833E+03  0.54931974304E+03  0.17200000000E+03 0. -1.
         -6    1    1    2    0  501 -0.25553085660E+02 -0.16003591230E+03 -0.63706225176E+02  0.24475893557E+03  0.17200000000E+03 0.  1.
</event>
<event>
 4    1  0.1054668E+000  0.1817346E+03  0.7818608E-02  0.1166135E+00
         -2   -1    0    0    0  501 -0.00000000000E+00  0.00000000000E+00  0.12237194860E+02  0.12237194860E+02  0.00000000000E+00 0. -1.
          2   -1    0    0  502    0  0.00000000000E+00 -0.00000000000E+00 -0.33597471042E+04  0.33597471042E+04  0.00000000000E+00 0.  1.
          6    1    1    2  502    0  0.49136786806E+02 -0.32078709911E+02 -0.92603449691E+03  0.94369876386E+03  0.17200000000E+03 0. -1.
         -6    1    1    2    0  501 -0.49136786806E+02  0.32078709911E+02 -0.24214754125E+04  0.24282855352E+04  0.17200000000E+03 0.  1.
</event>
<event>
 4    1  0.1054668E+000  0.1859086E+03  0.7818608E-02  0.1162204E+00
         -2   -1    0    0    0  501 -0.00000000000E+00  0.00000000000E+00  0.50191427608E+02  0.50191427608E+02  0.00000000000E+00 0. -1.
          2   -1    0    0  502    0  0.00000000000E+00 -0.00000000000E+00 -0.84874753785E+03  0.84874753785E+03  0.00000000000E+00 0.  1.
          6    1    1    2  502    0  0.37295306095E+02 -0.59892215090E+02 -0.20403946174E+03  0.27603282275E+03  0.17200000000E+03 0.  1.
         -6    1    1    2    0  501 -0.37295306095E+02  0.59892215090E+02 -0.59451664850E+03  0.62290614271E+03  0.17200000000E+03 0.  1.
</event>
<event>
 4    1  0.1054668E+000  0.2344454E+03  0.7818608E-02  0.1123549E+00
         -2   -1    0    0    0  501 -0.00000000000E+00  0.00000000000E+00  0.12718483023E+03  0.12718483023E+03  0.00000000000E+00 0. -1.
          2   -1    0    0  502    0  0.00000000000E+00 -0.00000000000E+00 -0.43243356076E+03  0.43243356076E+03  0.00000000000E+00 0.  1.
          6    1    1    2  502    0 -0.12575777461E+03 -0.97804104820E+02 -0.14563383296E+03  0.27599614870E+03  0.17200000000E+03 0.  1.
         -6    1    1    2    0  501  0.12575777461E+03  0.97804104820E+02 -0.15961489756E+03  0.28362224228E+03  0.17200000000E+03 0. -1.
</event>
<event>
 4    1  0.1054668E+000  0.2111249E+03  0.7818608E-02  0.1140678E+00
          2   -1    0    0  502    0  0.00000000000E+00  0.00000000000E+00  0.84567732815E+03  0.84567732815E+03  0.00000000000E+00 0. -1.
         -2   -1    0    0    0  501 -0.00000000000E+00 -0.00000000000E+00 -0.59642076264E+02  0.59642076264E+02  0.00000000000E+00 0.  1.
          6    1    1    2  502    0  0.11989492575E+03  0.24797549624E+02  0.54736490616E+03  0.58667030961E+03  0.17200000000E+03 0.  1.
         -6    1    1    2    0  501 -0.11989492575E+03 -0.24797549624E+02  0.23867034573E+03  0.31864909480E+03  0.17200000000E+03 0.  1.
</event>
<event>
 4    1  0.1054668E+000  0.1906049E+03  0.7818608E-02  0.1157917E+00
          1   -1    0    0  502    0  0.00000000000E+00  0.00000000000E+00  0.14883412905E+03  0.14883412905E+03  0.00000000000E+00 0.  1.
         -1   -1    0    0    0  501 -0.00000000000E+00 -0.00000000000E+00 -0.24678572722E+03  0.24678572722E+03  0.00000000000E+00 0. -1.
          6    1    1    2  502    0 -0.77682658453E+02  0.26676287168E+02 -0.69616424244E+02  0.20292034458E+03  0.17200000000E+03 0. -1.
         -6    1    1    2    0  501  0.77682658453E+02 -0.26676287168E+02 -0.28335173932E+02  0.19269951168E+03  0.17200000000E+03 0. -1.
</event>
<event>
 4    1  0.1054668E+000  0.1941232E+03  0.7818608E-02  0.1154794E+00
          2   -1    0    0  502    0  0.00000000000E+00  0.00000000000E+00  0.24012600027E+03  0.24012600027E+03  0.00000000000E+00 0.  1.
         -2   -1    0    0    0  501 -0.00000000000E+00 -0.00000000000E+00 -0.18017339130E+03  0.18017339130E+03  0.00000000000E+00 0. -1.
          6    1    1    2  502    0 -0.77390553079E+02 -0.45940589417E+02  0.10545069890E+03  0.22091556161E+03  0.17200000000E+03 0. -1.
         -6    1    1    2    0  501  0.77390553079E+02  0.45940589417E+02 -0.45498089932E+02  0.19938382996E+03  0.17200000000E+03 0. -1.
</event>
<event>
 4    1  0.1054668E+000  0.1770356E+03  0.7818608E-02  0.1170703E+00
         -2   -1    0    0    0  501 -0.00000000000E+00  0.00000000000E+00  0.90218858446E+03  0.90218858446E+03  0.00000000000E+00 0. -1.
          2   -1    0    0  502    0  0.00000000000E+00 -0.00000000000E+00 -0.88331450882E+02  0.88331450882E+02  0.00000000000E+00 0.  1.
          6    1    1    2  502    0 -0.32415431566E+02 -0.26586818522E+02  0.21161458146E+02  0.17829589573E+03  0.17200000000E+03 0.  1.
         -6    1    1    2    0  501  0.32415431566E+02  0.26586818522E+02  0.79269567543E+03  0.81222413962E+03  0.17200000000E+03 0. -1.
</event>
<event>
 4    1  0.1054668E+000  0.2352817E+03  0.7818608E-02  0.1122977E+00
         -2   -1    0    0    0  501 -0.00000000000E+00  0.00000000000E+00  0.33154027536E+03  0.33154027536E+03  0.00000000000E+00 0.  1.
          2   -1    0    0  502    0  0.00000000000E+00 -0.00000000000E+00 -0.24438930325E+03  0.24438930325E+03  0.00000000000E+00 0. -1.
          6    1    1    2  502    0 -0.11990977444E+03 -0.10674796723E+03 -0.11850144528E+03  0.26343893989E+03  0.17200000000E+03 0. -1.
         -6    1    1    2    0  501  0.11990977444E+03  0.10674796723E+03  0.20565241739E+03  0.31249063873E+03  0.17200000000E+03 0.  1.
</event>
<event>
 4    1  0.1054668E+000  0.2070740E+03  0.7818608E-02  0.1143904E+00
         -2   -1    0    0    0  501 -0.00000000000E+00  0.00000000000E+00  0.79751598162E+03  0.79751598162E+03  0.00000000000E+00 0. -1.
          2   -1    0    0  502    0  0.00000000000E+00 -0.00000000000E+00 -0.55028531160E+02  0.55028531160E+02  0.00000000000E+00 0.  1.
          6    1    1    2  502    0 -0.10417012316E+03  0.49439196091E+02  0.43579828574E+03  0.48249331034E+03  0.17200000000E+03 0.  1.
         -6    1    1    2    0  501  0.10417012316E+03 -0.49439196091E+02  0.30668916472E+03  0.37005120244E+03  0.17200000000E+03 0.  1.
</event>
<event>
 4    1  0.1054668E+000  0.1835618E+03  0.7818608E-02  0.1164400E+00
          1   -1    0    0  502    0  0.00000000000E+00  0.00000000000E+00  0.15555758442E+04  0.15555758442E+04  0.00000000000E+00 0.  1.
         -1   -1    0    0    0  501 -0.00000000000E+00 -0.00000000000E+00 -0.22186514231E+02  0.22186514231E+02  0.00000000000E+00 0. -1.
          6    1    1    2  502    0 -0.57139305504E+02 -0.29086797519E+02  0.88813470374E+03  0.90690583525E+03  0.17200000000E+03 0.  1.
         -6    1    1    2    0  501  0.57139305504E+02  0.29086797519E+02  0.64525462623E+03  0.67085652318E+03  0.17200000000E+03 0. -1.
</event>
<event>
 4    1  0.1054668E+000  0.1894512E+03  0.7818608E-02  0.1158957E+00
         -2   -1    0    0    0  501 -0.00000000000E+00  0.00000000000E+00  0.40017666181E+02  0.40017666181E+02  0.00000000000E+00 0. -1.
          2   -1    0    0  502    0  0.00000000000E+00 -0.00000000000E+00 -0.95941577040E+03  0.95941577040E+03  0.00000000000E+00 0.  1.
          6    1    1    2  502    0  0.41127801660E+02  0.67943035694E+02 -0.58726162977E+03  0.61706399503E+03  0.17200000000E+03 0.  1.
         -6    1    1    2    0  501 -0.41127801660E+02 -0.67943035694E+02 -0.33213647446E+03  0.38236944155E+03  0.17200000000E+03 0. -1.
</event>
<event>
 4    1  0.1054668E+000  0.2373015E+03  0.7818608E-02  0.1121604E+00
         -1   -1    0    0    0  501 -0.00000000000E+00  0.00000000000E+00  0.57444590874E+02  0.57444590874E+02  0.00000000000E+00 0.  1.
          1   -1    0    0  502    0  0.00000000000E+00 -0.00000000000E+00 -0.98787951465E+03  0.98787951465E+03  0.00000000000E+00 0. -1.
          6    1    1    2  502    0 -0.44278660787E+02 -0.15737658323E+03 -0.51104851224E+03  0.56345591719E+03  0.17200000000E+03 0.  1.
         -6    1    1    2    0  501  0.44278660787E+02  0.15737658323E+03 -0.41938641154E+03  0.48186818834E+03  0.17200000000E+03 0.  1.
</event>
<event>
 4    1  0.1054668E+000  0.1804560E+03  0.7818608E-02  0.1167362E+00
          2   -1    0    0  502    0  0.00000000000E+00  0.00000000000E+00  0.13677422452E+04  0.13677422452E+04  0.00000000000E+00 0.  1.
         -2   -1    0    0    0  501 -0.00000000000E+00 -0.00000000000E+00 -0.28970704434E+02  0.28970704434E+02  0.00000000000E+00 0. -1.
          6    1    1    2  502    0 -0.44177535743E+02 -0.32073310278E+02  0.96416784316E+03  0.98090977245E+03  0.17200000000E+03 0. -1.
         -6    1    1    2    0  501  0.44177535743E+02  0.32073310278E+02  0.37460369757E+03  0.41580317715E+03  0.17200000000E+03 0.  1.
</event>
<event>
 4    1  0.1054668E+000  0.4044119E+03  0.7818608E-02  0.1042263E+00
         -2   -1    0    0    0  501 -0.00000000000E+00  0.00000000000E+00  0.10987492142E+03  0.10987492142E+03  0.00000000000E+00 0.  1.
          2   -1    0    0  502    0  0.00000000000E+00 -0.00000000000E+00 -0.14909191759E+04  0.14909191759E+04  0.00000000000E+00 0. -1.
          6    1    1    2  502    0 -0.32115311556E+02  0.36460055089E+03 -0.72275524549E+03  0.82820534883E+03  0.17200000000E+03 0. -1.
         -6    1    1    2    0  501  0.32115311556E+02 -0.36460055089E+03 -0.65828900898E+03  0.77258874848E+03  0.17200000000E+03 0.  1.
</event>
<event>
 4    1  0.1054668E+000  0.2177120E+03  0.7818608E-02  0.1135600E+00
         -2   -1    0    0    0  501 -0.00000000000E+00  0.00000000000E+00  0.13824932757E+03  0.13824932757E+03  0.00000000000E+00 0.  1.
          2   -1    0    0  502    0  0.00000000000E+00 -0.00000000000E+00 -0.38628690423E+03  0.38628690423E+03  0.00000000000E+00 0. -1.
          6    1    1    2  502    0  0.12609605961E+03 -0.43752906139E+02 -0.36070187020E+02  0.22067983921E+03  0.17200000000E+03 0. -1.
         -6    1    1    2    0  501 -0.12609605961E+03  0.43752906139E+02 -0.21196738964E+03  0.30385639259E+03  0.17200000000E+03 0.  1.
</event>
<event>
 4    1  0.1054668E+000  0.1868368E+03  0.7818608E-02  0.1161346E+00
          2   -1    0    0  502    0  0.00000000000E+00  0.00000000000E+00  0.43040330186E+03  0.43040330186E+03  0.00000000000E+00 0. -1.
         -2   -1    0    0    0  501 -0.00000000000E+00 -0.00000000000E+00 -0.10279361297E+03  0.10279361297E+03  0.00000000000E+00 0.  1.
          6    1    1    2  502    0 -0.34234722357E+02 -0.64435800040E+02  0.28626292879E+03  0.34183980597E+03  0.17200000000E+03 0. -1.
         -6    1    1    2    0  501  0.34234722357E+02  0.64435800040E+02  0.41346760102E+02  0.19135710886E+03  0.17200000000E+03 0.  1.
</event>
<event>
 4    1  0.1054668E+000  0.1730827E+03  0.7818608E-02  0.1174671E+00
          2   -1    0    0  502    0  0.00000000000E+00  0.00000000000E+00  0.95872253372E+03  0.95872253372E+03  0.00000000000E+00 0.  1.
         -2   -1    0    0    0  501 -0.00000000000E+00 -0.00000000000E+00 -0.32819512694E+02  0.32819512694E+02  0.00000000000E+00 0. -1.
          6    1    1    2  502    0 -0.12837947786E+02  0.14450021926E+02  0.57145723653E+03  0.59709378595E+03  0.17200000000E+03 0.  1.
         -6    1    1    2    0  501  0.12837947786E+02 -0.14450021926E+02  0.35444578450E+03  0.39444826047E+03  0.17200000000E+03 0. -1.
</event>
<event>
 4    1  0.1054668E+000  0.1728889E+03  0.7818608E-02  0.1174868E+00
         -2   -1    0    0    0  501 -0.00000000000E+00  0.00000000000E+00  0.16836139074E+03  0.16836139074E+03  0.00000000000E+00 0. -1.
          2   -1    0    0  502    0  0.00000000000E+00 -0.00000000000E+00 -0.18758397795E+03  0.18758397795E+03  0.00000000000E+00 0.  1.
          6    1    1    2  502    0 -0.13101633049E+02 -0.11615842454E+02  0.31574455449E+02  0.17574847601E+03  0.17200000000E+03 0. -1.
         -6    1    1    2    0  501  0.13101633049E+02  0.11615842454E+02 -0.50797042659E+02  0.18019689267E+03  0.17200000000E+03 0.  1.
</event>
<event>
 4    1  0.1054668E+000  0.2005304E+03  0.7818608E-02  0.1149292E+00
          1   -1    0    0  502    0  0.00000000000E+00  0.00000000000E+00  0.11370084804E+03  0.11370084804E+03  0.00000000000E+00 0. -1.
         -1   -1    0    0    0  501 -0.00000000000E+00 -0.00000000000E+00 -0.62778008739E+03  0.62778008739E+03  0.00000000000E+00 0.  1.
          6    1    1    2  502    0 -0.10050050781E+03  0.22980312839E+02 -0.12060170003E+02  0.20089274389E+03  0.17200000000E+03 0. -1.
         -6    1    1    2    0  501  0.10050050781E+03 -0.22980312839E+02 -0.50201906934E+03  0.54058819154E+03  0.17200000000E+03 0.  1.
</event>
<event>
 4    1  0.1054668E+000  0.1736212E+03  0.7818608E-02  0.1174123E+00
          2   -1    0    0  502    0  0.00000000000E+00  0.00000000000E+00  0.22622730974E+04  0.22622730974E+04  0.00000000000E+00 0. -1.
         -2   -1    0    0    0  501 -0.00000000000E+00 -0.00000000000E+00 -0.15887262180E+02  0.15887262180E+02  0.00000000000E+00 0.  1.
          6    1    1    2  502    0 -0.42726699296E+01 -0.23281980909E+02  0.15806597670E+04  0.15901665339E+04  0.17200000000E+03 0. -1.
         -6    1    1    2    0  501  0.42726699296E+01  0.23281980909E+02  0.66572606823E+03  0.68799382574E+03  0.17200000000E+03 0.  1.
</event>
<event>
 4    1  0.1054668E+000  0.1878258E+03  0.7818608E-02  0.1160437E+00
          2   -1    0    0  502    0  0.00000000000E+00  0.00000000000E+00  0.14432991846E+04  0.14432991846E+04  0.00000000000E+00 0.  1.
         -2   -1    0    0    0  501 -0.00000000000E+00 -0.00000000000E+00 -0.24473949435E+02  0.24473949435E+02  0.00000000000E+00 0. -1.
          6    1    1    2  502    0  0.70887997987E+02  0.25873210184E+02  0.68330588706E+03  0.70865045442E+03  0.17200000000E+03 0. -1.
         -6    1    1    2    0  501 -0.70887997987E+02 -0.25873210184E+02  0.73551934811E+03  0.75912267962E+03  0.17200000000E+03 0. -1.
</event>
<event>
 4    1  0.1054668E+000  0.2518596E+03  0.7818608E-02  0.1112135E+00
         -2   -1    0    0    0  501 -0.00000000000E+00  0.00000000000E+00  0.83054418410E+02  0.83054418410E+02  0.00000000000E+00 0. -1.
          2   -1    0    0  502    0  0.00000000000E+00 -0.00000000000E+00 -0.14281442545E+04  0.14281442545E+04  0.00000000000E+00 0.  1.
          6    1    1    2  502    0 -0.59679128017E+02  0.17403356328E+03 -0.11879119391E+04  0.12143179380E+04  0.17200000000E+03 0.  1.
         -6    1    1    2    0  501  0.59679128017E+02 -0.17403356328E+03 -0.15717789701E+03  0.29688073494E+03  0.17200000000E+03 0. -1.
</event>
<event>
 4    1  0.1054668E+000  0.1852084E+03  0.7818608E-02  0.1162855E+00
          2   -1    0    0  502    0  0.00000000000E+00  0.00000000000E+00  0.84429957022E+03  0.84429957022E+03  0.00000000000E+00 0. -1.
         -2   -1    0    0    0  501 -0.00000000000E+00 -0.00000000000E+00 -0.57926742934E+02  0.57926742934E+02  0.00000000000E+00 0.  1.
          6    1    1    2  502    0 -0.68157758880E+02  0.85244241344E+01  0.14666533526E+03  0.23624746871E+03  0.17200000000E+03 0.  1.
         -6    1    1    2    0  501  0.68157758880E+02 -0.85244241344E+01  0.63970749203E+03  0.66597884445E+03  0.17200000000E+03 0. -1.
</event>
<event>
 4    1  0.1054668E+000  0.2046415E+03  0.7818608E-02  0.1145881E+00
          2   -1    0    0  502    0  0.00000000000E+00  0.00000000000E+00  0.50393069973E+03  0.50393069973E+03  0.00000000000E+00 0. -1.
         -2   -1    0    0    0  501 -0.00000000000E+00 -0.00000000000E+00 -0.85443993167E+02  0.85443993167E+02  0.00000000000E+00 0.  1.
          6    1    1    2  502    0 -0.55483006025E+02 -0.95998866372E+02  0.16046557507E+03  0.26005258523E+03  0.17200000000E+03 0.  1.
         -6    1    1    2    0  501  0.55483006025E+02  0.95998866372E+02  0.25802113149E+03  0.32932210766E+03  0.17200000000E+03 0. -1.
</event>
<event>
 4    1  0.1054668E+000  0.1955560E+03  0.7818608E-02  0.1153543E+00
          1   -1    0    0  502    0  0.00000000000E+00  0.00000000000E+00  0.10984055263E+03  0.10984055263E+03  0.00000000000E+00 0. -1.
         -1   -1    0    0    0  501 -0.00000000000E+00 -0.00000000000E+00 -0.35062007384E+03  0.35062007384E+03  0.00000000000E+00 0.  1.
          6    1    1    2  502    0  0.92884254362E+02  0.55386459265E+01 -0.10110748398E+03  0.22014741567E+03  0.17200000000E+03 0. -1.
         -6    1    1    2    0  501 -0.92884254362E+02 -0.55386459265E+01 -0.13967203722E+03  0.24031321081E+03  0.17200000000E+03 0. -1.
</event>
<event>
 4    1  0.1054668E+000  0.1987127E+03  0.7818608E-02  0.1150830E+00
          1   -1    0    0  502    0  0.00000000000E+00  0.00000000000E+00  0.26335297082E+03  0.26335297082E+03  0.00000000000E+00 0.  1.
         -1   -1    0    0    0  501 -0.00000000000E+00 -0.00000000000E+00 -0.15200521083E+03  0.15200521083E+03  0.00000000000E+00 0. -1.
          6    1    1    2  502    0 -0.31893181262E+02 -0.94263315207E+02  0.79889975213E+02  0.21417085643E+03  0.17200000000E+03 0.  1.
         -6    1    1    2    0  501  0.31893181262E+02  0.94263315207E+02  0.31457784786E+02  0.20118732522E+03  0.17200000000E+03 0.  1.
</event>
<event>
 4    1  0.1054668E+000  0.2100669E+03  0.7818608E-02  0.1141513E+00
          1   -1    0    0  502    0  0.00000000000E+00  0.00000000000E+00  0.72698125315E+03  0.72698125315E+03  0.00000000000E+00 0. -1.
         -1   -1    0    0    0  501 -0.00000000000E+00 -0.00000000000E+00 -0.74523038081E+02  0.74523038081E+02  0.00000000000E+00 0.  1.
          6    1    1    2  502    0  0.81630374937E+02 -0.88772672923E+02  0.15363541912E+03  0.26025362164E+03  0.17200000000E+03 0.  1.
         -6    1    1    2    0  501 -0.81630374937E+02  0.88772672923E+02  0.49882279595E+03  0.54125066959E+03  0.17200000000E+03 0. -1.
</event>
<event>
 4    1  0.1054668E+000  0.2764037E+03  0.7818608E-02  0.1097670E+00
         -2   -1    0    0    0  501 -0.00000000000E+00  0.00000000000E+00  0.11918165506E+03  0.11918165506E+03  0.00000000000E+00 0. -1.
          2   -1    0    0  502    0  0.00000000000E+00 -0.00000000000E+00 -0.23097136156E+04  0.23097136156E+04  0.00000000000E+00 0.  1.
          6    1    1    2  502    0 -0.26384375312E+02  0.21475302553E+03 -0.21275203930E+04  0.21454002004E+04  0.17200000000E+03 0.  1.
         -6    1    1    2    0  501  0.26384375312E+02 -0.21475302553E+03 -0.63011567582E+02  0.28349507030E+03  0.17200000000E+03 0. -1.
</event>
<event>
 4    1  0.1054668E+000  0.1743460E+03  0.7818608E-02  0.1173390E+00
          2   -1    0    0  502    0  0.00000000000E+00  0.00000000000E+00  0.45229875471E+03  0.45229875471E+03  0.00000000000E+00 0.  1.
         -2   -1    0    0    0  501 -0.00000000000E+00 -0.00000000000E+00 -0.80085793858E+02  0.80085793858E+02  0.00000000000E+00 0. -1.
          6    1    1    2  502    0  0.13419446648E+01  0.28473250298E+02  0.79349351878E+02  0.19155376906E+03  0.17200000000E+03 0. -1.
         -6    1    1    2    0  501 -0.13419446648E+01 -0.28473250298E+02  0.29286360898E+03  0.34083077951E+03  0.17200000000E+03 0. -1.
</event>
<event>
 4    1  0.1054668E+000  0.1840276E+03  0.7818608E-02  0.1163961E+00
          1   -1    0    0  502    0  0.00000000000E+00  0.00000000000E+00  0.51594807976E+03  0.51594807976E+03  0.00000000000E+00 0. -1.
         -1   -1    0    0    0  501 -0.00000000000E+00 -0.00000000000E+00 -0.75306777101E+02  0.75306777101E+02  0.00000000000E+00 0.  1.
          6    1    1    2  502    0 -0.63289537352E+02 -0.16631432362E+02  0.32624538040E+03  0.37456937717E+03  0.17200000000E+03 0. -1.
         -6    1    1    2    0  501  0.63289537352E+02  0.16631432362E+02  0.11439592226E+03  0.21668547970E+03  0.17200000000E+03 0.  1.
</event>
<event>
 4    1  0.1054668E+000  0.2295130E+03  0.7818608E-02  0.1126983E+00
          2   -1    0    0  502    0  0.00000000000E+00  0.00000000000E+00  0.55840204546E+02  0.55840204546E+02  0.00000000000E+00 0.  1.
         -2   -1    0    0    0  501 -0.00000000000E+00 -0.00000000000E+00 -0.95090503250E+03  0.95090503250E+03  0.00000000000E+00 0. -1.
          6    1    1    2  502    0  0.68489341874E+02 -0.13565185021E+03 -0.49243482505E+03  0.54329390879E+03  0.17200000000E+03 0. -1.
         -6    1    1    2    0  501 -0.68489341874E+02  0.13565185021E+03 -0.40263000291E+03  0.46345132825E+03  0.17200000000E+03 0. -1.
</event>
<event>
 4    1  0.1054668E+000  0.2753995E+03  0.7818608E-02  0.1098228E+00
          2   -1    0    0  502    0  0.00000000000E+00  0.00000000000E+00  0.85453723050E+03  0.85453723050E+03  0.00000000000E+00 0. -1.
         -2   -1    0    0    0  501 -0.00000000000E+00 -0.00000000000E+00 -0.91274716840E+02  0.91274716840E+02  0.00000000000E+00 0.  1.
          6    1    1    2  502    0  0.95164126500E+02 -0.19288518430E+03  0.46019636123E+03  0.53630737100E+03  0.17200000000E+03 0.  1.
         -6    1    1    2    0  501 -0.95164126500E+02  0.19288518430E+03  0.30306615243E+03  0.40950457634E+03  0.17200000000E+03 0. -1.
</event>
<event>
 4    1  0.1054668E+000  0.2511465E+03  0.7818608E-02  0.1112582E+00
          2   -1    0    0  502    0  0.00000000000E+00  0.00000000000E+00  0.22788974647E+04  0.22788974647E+04  0.00000000000E+00 0.  1.
         -2   -1    0    0    0  501 -0.00000000000E+00 -0.00000000000E+00 -0.28536771476E+02  0.28536771476E+02  0.00000000000E+00 0. -1.
          6    1    1    2  502    0  0.12604559126E+03  0.13267664599E+03  0.92500164056E+03  0.95848975921E+03  0.17200000000E+03 0. -1.
         -6    1    1    2    0  501 -0.12604559126E+03 -0.13267664599E+03  0.13253590526E+04  0.13489444769E+04  0.17200000000E+03 0. -1.
</event>
<event>
 4    1  0.1054668E+000  0.2470587E+03  0.7818608E-02  0.1115178E+00
          2   -1    0    0  502    0  0.00000000000E+00  0.00000000000E+00  0.11278161538E+04  0.11278161538E+04  0.00000000000E+00 0.  1.
         -2   -1    0    0    0  501 -0.00000000000E+00 -0.00000000000E+00 -0.54937008439E+02  0.54937008439E+02  0.00000000000E+00 0. -1.
          6    1    1    2  502    0 -0.17734313408E+03 -0.18477152706E+01  0.60853464224E+03  0.65677424741E+03  0.17200000000E+03 0. -1.
         -6    1    1    2    0  501  0.17734313408E+03  0.18477152706E+01  0.46434450308E+03  0.52597891478E+03  0.17200000000E+03 0. -1.
</event>
<event>
 4    1  0.1054668E+000  0.1747110E+03  0.7818608E-02  0.1173022E+00
         -2   -1    0    0    0  501 -0.00000000000E+00  0.00000000000E+00  0.84607821717E+01  0.84607821717E+01  0.00000000000E+00 0. -1.
          2   -1    0    0  502    0  0.00000000000E+00 -0.00000000000E+00 -0.37047346550E+04  0.37047346550E+04  0.00000000000E+00 0.  1.
          6    1    1    2  502    0 -0.83149173424E+01  0.29509094705E+02 -0.21486152211E+04  0.21557066806E+04  0.17200000000E+03 0.  1.
         -6    1    1    2    0  501  0.83149173424E+01 -0.29509094705E+02 -0.15476586518E+04  0.15574887566E+04  0.17200000000E+03 0. -1.
</event>
<event>
 4    1  0.1054668E+000  0.1936394E+03  0.7818608E-02  0.1155219E+00
          2   -1    0    0  502    0  0.00000000000E+00  0.00000000000E+00  0.10094396813E+04  0.10094396813E+04  0.00000000000E+00 0.  1.
         -2   -1    0    0    0  501 -0.00000000000E+00 -0.00000000000E+00 -0.54454248983E+02  0.54454248983E+02  0.00000000000E+00 0. -1.
          6    1    1    2  502    0 -0.86348578575E+02 -0.21357822545E+02  0.17758741220E+03  0.26274231212E+03  0.17200000000E+03 0. -1.
         -6    1    1    2    0  501  0.86348578575E+02  0.21357822545E+02  0.77739802015E+03  0.80115161820E+03  0.17200000000E+03 0.  1.
</event>
<event>
 4    1  0.1054668E+000  0.1793893E+03  0.7818608E-02  0.1168395E+00
          2   -1    0    0  502    0  0.00000000000E+00  0.00000000000E+00  0.94409834825E+03  0.94409834825E+03  0.00000000000E+00 0.  1.
         -2   -1    0    0    0  501 -0.00000000000E+00 -0.00000000000E+00 -0.96044163763E+02  0.96044163763E+02  0.00000000000E+00 0. -1.
          6    1    1    2  502    0  0.46220177423E+02  0.21452266635E+02  0.84173889665E+03  0.86064212927E+03  0.17200000000E+03 0.  1.
         -6    1    1    2    0  501 -0.46220177423E+02 -0.21452266635E+02  0.63152878414E+01  0.17950038274E+03  0.17200000000E+03 0. -1.
</event>
<event>
 4    1  0.1054668E+000  0.2955660E+03  0.7818608E-02  0.1087478E+00
          1   -1    0    0  502    0  0.00000000000E+00  0.00000000000E+00  0.73642579479E+03  0.73642579479E+03  0.00000000000E+00 0.  1.
         -1   -1    0    0    0  501 -0.00000000000E+00 -0.00000000000E+00 -0.21017078793E+03  0.21017078793E+03  0.00000000000E+00 0. -1.
          6    1    1    2  502    0  0.20947518396E+03 -0.11787871467E+03 -0.49239807717E+02  0.29963945457E+03  0.17200000000E+03 0. -1.
         -6    1    1    2    0  501 -0.20947518396E+03  0.11787871467E+03  0.57549481457E+03  0.64695712815E+03  0.17200000000E+03 0.  1.
</event>
<event>
 4    1  0.1054668E+000  0.2326702E+03  0.7818608E-02  0.1124774E+00
          2   -1    0    0  502    0  0.00000000000E+00  0.00000000000E+00  0.13068371277E+04  0.13068371277E+04  0.00000000000E+00 0. -1.
         -2   -1    0    0    0  501 -0.00000000000E+00 -0.00000000000E+00 -0.65507657981E+02  0.65507657981E+02  0.00000000000E+00 0.  1.
          6    1    1    2  502    0 -0.15439173955E+03 -0.26732277087E+02  0.20461858074E+03  0.30984542511E+03  0.17200000000E+03 0.  1.
         -6    1    1    2    0  501  0.15439173955E+03  0.26732277087E+02  0.10367108890E+04  0.10624993606E+04  0.17200000000E+03 0. -1.
</event>
<event>
 4    1  0.1054668E+000  0.1833677E+03  0.7818608E-02  0.1164583E+00
         -2   -1    0    0    0  501 -0.00000000000E+00  0.00000000000E+00  0.95289244472E+02  0.95289244472E+02  0.00000000000E+00 0. -1.
          2   -1    0    0  502    0  0.00000000000E+00 -0.00000000000E+00 -0.72422065830E+03  0.72422065830E+03  0.00000000000E+00 0.  1.
          6    1    1    2  502    0  0.58086895212E+02  0.25800080387E+02 -0.21047611275E+02  0.18457175700E+03  0.17200000000E+03 0. -1.
         -6    1    1    2    0  501 -0.58086895212E+02 -0.25800080387E+02 -0.60788380255E+03  0.63493814576E+03  0.17200000000E+03 0.  1.
</event>
<event>
 4    1  0.1054668E+000  0.2138381E+03  0.7818608E-02  0.1138562E+00
          2   -1    0    0  502    0  0.00000000000E+00  0.00000000000E+00  0.45924341077E+03  0.45924341077E+03  0.00000000000E+00 0. -1.
         -2   -1    0    0    0  501 -0.00000000000E+00 -0.00000000000E+00 -0.11948454784E+03  0.11948454784E+03  0.00000000000E+00 0.  1.
          6    1    1    2  502    0  0.12568451105E+03  0.18604572442E+02  0.28801403946E+03  0.35871829248E+03  0.17200000000E+03 0.  1.
         -6    1    1    2    0  501 -0.12568451105E+03 -0.18604572442E+02  0.51744823473E+02  0.22000966613E+03  0.17200000000E+03 0.  1.
</event>
<event>
 4    1  0.1054668E+000  0.1729866E+03  0.7818608E-02  0.1174769E+00
         -2   -1    0    0    0  501 -0.00000000000E+00  0.00000000000E+00  0.15959189379E+02  0.15959189379E+02  0.00000000000E+00 0.  1.
          2   -1    0    0  502    0  0.00000000000E+00 -0.00000000000E+00 -0.19608899024E+04  0.19608899024E+04  0.00000000000E+00 0. -1.
          6    1    1    2  502    0 -0.27715249309E+01  0.18239214784E+02 -0.76566557767E+03  0.78496377441E+03  0.17200000000E+03 0.  1.
         -6    1    1    2    0  501  0.27715249309E+01 -0.18239214784E+02 -0.11792651354E+04  0.11918853174E+04  0.17200000000E+03 0. -1.
</event>
<event>
 4    1  0.1054668E+000  0.2013309E+03  0.7818608E-02  0.1148621E+00
          2   -1    0    0  502    0  0.00000000000E+00  0.00000000000E+00  0.35325780049E+03  0.35325780049E+03  0.00000000000E+00 0. -1.
         -2   -1    0    0    0  501 -0.00000000000E+00 -0.00000000000E+00 -0.11986613502E+03  0.11986613502E+03  0.00000000000E+00 0.  1.
          6    1    1    2  502    0 -0.10268088562E+03 -0.20168660053E+02  0.67793333236E+02  0.21243840319E+03  0.17200000000E+03 0.  1.
         -6    1    1    2    0  501  0.10268088562E+03  0.20168660053E+02  0.16559833224E+03  0.26068553232E+03  0.17200000000E+03 0. -1.
</event>
<event>
 4    1  0.1054668E+000  0.1837637E+03  0.7818608E-02  0.1164209E+00
          1   -1    0    0  502    0  0.00000000000E+00  0.00000000000E+00  0.13068279140E+03  0.13068279140E+03  0.00000000000E+00 0.  1.
         -1   -1    0    0    0  501 -0.00000000000E+00 -0.00000000000E+00 -0.30531541598E+03  0.30531541598E+03  0.00000000000E+00 0. -1.
          6    1    1    2  502    0 -0.62994482203E+02  0.14723454292E+02 -0.17276689876E+03  0.25222507052E+03  0.17200000000E+03 0. -1.
         -6    1    1    2    0  501  0.62994482203E+02 -0.14723454292E+02 -0.18657258223E+01  0.18377313685E+03  0.17200000000E+03 0.  1.
</event>
<event>
 4    1  0.1054668E+000  0.2357105E+03  0.7818608E-02  0.1122684E+00
         -2   -1    0    0    0  501 -0.00000000000E+00  0.00000000000E+00  0.10785322940E+03  0.10785322940E+03  0.00000000000E+00 0. -1.
          2   -1    0    0  502    0  0.00000000000E+00 -0.00000000000E+00 -0.56233600168E+03  0.56233600168E+03  0.00000000000E+00 0.  1.
          6    1    1    2  502    0  0.10687997951E+03 -0.12063222033E+03 -0.32432015091E+03  0.40092770282E+03  0.17200000000E+03 0. -1.
         -6    1    1    2    0  501 -0.10687997951E+03  0.12063222033E+03 -0.13016262137E+03  0.26926152826E+03  0.17200000000E+03 0. -1.
</event>
<event>
 4    1  0.1054668E+000  0.1738811E+03  0.7818608E-02  0.1173860E+00
          2   -1    0    0  502    0  0.00000000000E+00  0.00000000000E+00  0.54875808628E+03  0.54875808628E+03  0.00000000000E+00 0.  1.
         -2   -1    0    0    0  501 -0.00000000000E+00 -0.00000000000E+00 -0.65345883468E+02  0.65345883468E+02  0.00000000000E+00 0. -1.
          6    1    1    2  502    0  0.11657330250E+02  0.22687844228E+02  0.12010083912E+03  0.21132639017E+03  0.17200000000E+03 0. -1.
         -6    1    1    2    0  501 -0.11657330250E+02 -0.22687844228E+02  0.36331136369E+03  0.40277757958E+03  0.17200000000E+03 0.  1.
</event>
<event>
 4    1  0.1054668E+000  0.2471039E+03  0.7818608E-02  0.1115149E+00
         -2   -1    0    0    0  501 -0.00000000000E+00  0.00000000000E+00  0.95853997256E+02  0.95853997256E+02  0.00000000000E+00 0.  1.
          2   -1    0    0  502    0  0.00000000000E+00 -0.00000000000E+00 -0.66662718742E+03  0.66662718742E+03  0.00000000000E+00 0. -1.
          6    1    1    2  502    0  0.16824005626E+03  0.56317106320E+02 -0.20503387164E+03  0.32109067491E+03  0.17200000000E+03 0.  1.
         -6    1    1    2    0  501 -0.16824005626E+03 -0.56317106320E+02 -0.36573931853E+03  0.44139050977E+03  0.17200000000E+03 0. -1.
</event>
<event>
 4    1  0.1054668E+000  0.1863413E+03  0.7818608E-02  0.1161803E+00
         -1   -1    0    0    0  501 -0.00000000000E+00  0.00000000000E+00  0.30920022864E+03  0.30920022864E+03  0.00000000000E+00 0. -1.
          1   -1    0    0  502    0  0.00000000000E+00 -0.00000000000E+00 -0.11293628977E+03  0.11293628977E+03  0.00000000000E+00 0.  1.
          6    1    1    2  502    0  0.38978714808E+02 -0.60164373895E+02  0.82285339990E+02  0.20370068550E+03  0.17200000000E+03 0. -1.
         -6    1    1    2    0  501 -0.38978714808E+02  0.60164373895E+02  0.11397859888E+03  0.21843583291E+03  0.17200000000E+03 0.  1.
</event>
<event>
 4    1  0.1054668E+000  0.1819627E+03  0.7818608E-02  0.1165917E+00
          2   -1    0    0  502    0  0.00000000000E+00  0.00000000000E+00  0.57725244388E+03  0.57725244388E+03  0.00000000000E+00 0.  1.
         -2   -1    0    0    0  501 -0.00000000000E+00 -0.00000000000E+00 -0.57405735543E+02  0.57405735543E+02  0.00000000000E+00 0. -1.
          6    1    1    2  502    0 -0.31621328434E+02 -0.50264479444E+02  0.26901061021E+03  0.32477243527E+03  0.17200000000E+03 0. -1.
         -6    1    1    2    0  501  0.31621328434E+02  0.50264479444E+02  0.25083609813E+03  0.30988574415E+03  0.17200000000E+03 0. -1.
</event>
<event>
 4    1  0.1054668E+000  0.1726545E+03  0.7818608E-02  0.1175108E+00
         -2   -1    0    0    0  501 -0.00000000000E+00  0.00000000000E+00  0.16970557038E+03  0.16970557038E+03  0.00000000000E+00 0. -1.
          2   -1    0    0  502    0  0.00000000000E+00 -0.00000000000E+00 -0.18024796328E+03  0.18024796328E+03  0.00000000000E+00 0.  1.
          6    1    1    2  502    0  0.52565805331E+01  0.14069167785E+02  0.22661192682E+02  0.17413530020E+03  0.17200000000E+03 0. -1.
         -6    1    1    2    0  501 -0.52565805331E+01 -0.14069167785E+02 -0.33203585580E+02  0.17581823346E+03  0.17200000000E+03 0.  1.
</event>
<event>
 4    1  0.1054668E+000  0.1839189E+03  0.7818608E-02  0.1164063E+00
          1   -1    0    0  502    0  0.00000000000E+00  0.00000000000E+00  0.11542561861E+03  0.11542561861E+03  0.00000000000E+00 0.  1.
         -1   -1    0    0    0  501 -0.00000000000E+00 -0.00000000000E+00 -0.42456214091E+03  0.42456214091E+03  0.00000000000E+00 0. -1.
          6    1    1    2  502    0 -0.64127184095E+02  0.11395912217E+02 -0.43037537968E+01  0.18396924975E+03  0.17200000000E+03 0.  1.
         -6    1    1    2    0  501  0.64127184095E+02 -0.11395912217E+02 -0.30483276850E+03  0.35601850978E+03  0.17200000000E+03 0. -1.
</event>
<event>
 4    1  0.1054668E+000  0.1902946E+03  0.7818608E-02  0.1158196E+00
         -1   -1    0    0    0  501 -0.00000000000E+00  0.00000000000E+00  0.22015731939E+03  0.22015731939E+03  0.00000000000E+00 0. -1.
          1   -1    0    0  502    0  0.00000000000E+00 -0.00000000000E+00 -0.16593057364E+03  0.16593057364E+03  0.00000000000E+00 0.  1.
          6    1    1    2  502    0 -0.27642140108E+02 -0.76576324242E+02  0.45147356519E+02  0.19557685227E+03  0.17200000000E+03 0.  1.
         -6    1    1    2    0  501  0.27642140108E+02  0.76576324242E+02  0.90793892294E+01  0.19051104076E+03  0.17200000000E+03 0. -1.
</event>
<event>
 4    1  0.1054668E+000  0.1839891E+03  0.7818608E-02  0.1163997E+00
          2   -1    0    0  502    0  0.00000000000E+00  0.00000000000E+00  0.40670359471E+03  0.40670359471E+03  0.00000000000E+00 0. -1.
         -2   -1    0    0    0  501 -0.00000000000E+00 -0.00000000000E+00 -0.12224602401E+03  0.12224602401E+03  0.00000000000E+00 0.  1.
          6    1    1    2  502    0  0.44009130720E+02  0.48282348483E+02  0.29163216112E+03  0.34482068696E+03  0.17200000000E+03 0. -1.
         -6    1    1    2    0  501 -0.44009130720E+02 -0.48282348483E+02 -0.71745904182E+01  0.18412893176E+03  0.17200000000E+03 0. -1.
</event>
<event>
 4    1  0.1054668E+000  0.3970523E+03  0.7818608E-02  0.1044805E+00
         -1   -1    0    0    0  501 -0.00000000000E+00  0.00000000000E+00  0.48018860175E+03  0.48018860175E+03  0.00000000000E+00 0.  1.
          1   -1    0    0  502    0  0.00000000000E+00 -0.00000000000E+00 -0.14440801118E+04  0.14440801118E+04  0.00000000000E+00 0. -1.
          6    1    1    2  502    0 -0.35733947730E+03 -0.19365987754E+02  0.36377602079E+03  0.53850119482E+03  0.17200000000E+03 0.  1.
         -6    1    1    2    0  501  0.35733947730E+03  0.19365987754E+02 -0.13276675309E+04  0.13857675187E+04  0.17200000000E+03 0. -1.
</event>
<event>
 4    1  0.1054668E+000  0.2273651E+03  0.7818608E-02  0.1128508E+00
         -2   -1    0    0    0  501 -0.00000000000E+00  0.00000000000E+00  0.66557799304E+03  0.66557799304E+03  0.00000000000E+00 0.  1.
          2   -1    0    0  502    0  0.00000000000E+00 -0.00000000000E+00 -0.17578180661E+03  0.17578180661E+03  0.00000000000E+00 0. -1.
          6    1    1    2  502    0 -0.46878688266E+02 -0.14111439439E+03  0.55918572845E+03  0.60364191589E+03  0.17200000000E+03 0.  1.
         -6    1    1    2    0  501  0.46878688266E+02  0.14111439439E+03 -0.69389542023E+02  0.23771788376E+03  0.17200000000E+03 0. -1.
</event>
<event>
 4    1  0.1054668E+000  0.1816729E+03  0.7818608E-02  0.1166194E+00
         -2   -1    0    0    0  501 -0.00000000000E+00  0.00000000000E+00  0.52324992805E+02  0.52324992805E+02  0.00000000000E+00 0. -1.
          2   -1    0    0  502    0  0.00000000000E+00 -0.00000000000E+00 -0.63113499303E+03  0.63113499303E+03  0.00000000000E+00 0.  1.
          6    1    1    2  502    0 -0.36986723506E+00  0.58488595730E+02 -0.28119067705E+03  0.33477343009E+03  0.17200000000E+03 0. -1.
         -6    1    1    2    0  501  0.36986723506E+00 -0.58488595730E+02 -0.29761932318E+03  0.34868655575E+03  0.17200000000E+03 0. -1.
</event>
<event>
 4    1  0.1054668E+000  0.1970732E+03  0.7818608E-02  0.1152232E+00
          3   -1    0    0  502    0  0.00000000000E+00  0.00000000000E+00  0.28895921133E+03  0.28895921133E+03  0.00000000000E+00 0. -1.
         -3   -1    0    0    0  501 -0.00000000000E+00 -0.00000000000E+00 -0.16016538854E+03  0.16016538854E+03  0.00000000000E+00 0.  1.
          6    1    1    2  502    0  0.31608642312E+02  0.90855559005E+02  0.15445457230E+03  0.25038780676E+03  0.17200000000E+03 0. -1.
         -6    1    1    2    0  501 -0.31608642312E+02 -0.90855559005E+02 -0.25660749513E+02  0.19873679311E+03  0.17200000000E+03 0. -1.
</event>
<event>
 4    1  0.1054668E+000  0.4556816E+03  0.7818608E-02  0.1026041E+00
          2   -1    0    0  502    0  0.00000000000E+00  0.00000000000E+00  0.13716882646E+04  0.13716882646E+04  0.00000000000E+00 0.  1.
         -2   -1    0    0    0  501 -0.00000000000E+00 -0.00000000000E+00 -0.15525134417E+03  0.15525134417E+03  0.00000000000E+00 0. -1.
          6    1    1    2  502    0 -0.41795450686E+03  0.58100870824E+02  0.48765240621E+03  0.66742081948E+03  0.17200000000E+03 0. -1.
         -6    1    1    2    0  501  0.41795450686E+03 -0.58100870824E+02  0.72878451424E+03  0.85951878932E+03  0.17200000000E+03 0.  1.
</event>
<event>
 4    1  0.1054668E+000  0.1746054E+03  0.7818608E-02  0.1173128E+00
         -2   -1    0    0    0  501 -0.00000000000E+00  0.00000000000E+00  0.32810794040E+03  0.32810794040E+03  0.00000000000E+00 0.  1.
          2   -1    0    0  502    0  0.00000000000E+00 -0.00000000000E+00 -0.99273430215E+02  0.99273430215E+02  0.00000000000E+00 0. -1.
          6    1    1    2  502    0 -0.18156718440E+02  0.23945350815E+02  0.60347967005E+02  0.18474015095E+03  0.17200000000E+03 0. -1.
         -6    1    1    2    0  501  0.18156718440E+02 -0.23945350815E+02  0.16848654318E+03  0.24264121967E+03  0.17200000000E+03 0.  1.
</event>
<event>
 4    1  0.1054668E+000  0.2157082E+03  0.7818608E-02  0.1137124E+00
          2   -1    0    0  502    0  0.00000000000E+00  0.00000000000E+00  0.22583651859E+04  0.22583651859E+04  0.00000000000E+00 0. -1.
         -2   -1    0    0    0  501 -0.00000000000E+00 -0.00000000000E+00 -0.22509530255E+02  0.22509530255E+02  0.00000000000E+00 0.  1.
          6    1    1    2  502    0  0.56750749158E+02 -0.11715533575E+03  0.14497944314E+04  0.14657537016E+04  0.17200000000E+03 0. -1.
         -6    1    1    2    0  501 -0.56750749158E+02  0.11715533575E+03  0.78606122426E+03  0.81512101464E+03  0.17200000000E+03 0.  1.
</event>
<event>
 4    1  0.1054668E+000  0.1774418E+03  0.7818608E-02  0.1170302E+00
          1   -1    0    0  502    0  0.00000000000E+00  0.00000000000E+00  0.16823021202E+04  0.16823021202E+04  0.00000000000E+00 0. -1.
         -1   -1    0    0    0  501 -0.00000000000E+00 -0.00000000000E+00 -0.25436598603E+02  0.25436598603E+02  0.00000000000E+00 0.  1.
          6    1    1    2  502    0 -0.28989299880E+02 -0.32576239874E+02  0.12673403627E+04  0.12797019911E+04  0.17200000000E+03 0. -1.
         -6    1    1    2    0  501  0.28989299880E+02  0.32576239874E+02  0.38952515890E+03  0.42803672778E+03  0.17200000000E+03 0.  1.
</event>
<event>
 4    1  0.1054668E+000  0.2190740E+03  0.7818608E-02  0.1134575E+00
          1   -1    0    0  502    0  0.00000000000E+00  0.00000000000E+00  0.49686936582E+03  0.49686936582E+03  0.00000000000E+00 0. -1.
         -1   -1    0    0    0  501 -0.00000000000E+00 -0.00000000000E+00 -0.99056457931E+02  0.99056457931E+02  0.00000000000E+00 0.  1.
          6    1    1    2  502    0 -0.61782648250E+02  0.12079875074E+03  0.15190492209E+03  0.26658683231E+03  0.17200000000E+03 0.  1.
         -6    1    1    2    0  501  0.61782648250E+02 -0.12079875074E+03  0.24590798580E+03  0.32933899144E+03  0.17200000000E+03 0. -1.
</event>
<event>
 4    1  0.1054668E+000  0.2408457E+03  0.7818608E-02  0.1119231E+00
         -2   -1    0    0    0  501 -0.00000000000E+00  0.00000000000E+00  0.23006574650E+03  0.23006574650E+03  0.00000000000E+00 0. -1.
          2   -1    0    0  502    0  0.00000000000E+00 -0.00000000000E+00 -0.25347015540E+03  0.25347015540E+03  0.00000000000E+00 0.  1.
          6    1    1    2  502    0 -0.13257793295E+03 -0.10414281204E+03  0.58730789107E+01  0.24091726103E+03  0.17200000000E+03 0.  1.
         -6    1    1    2    0  501  0.13257793295E+03  0.10414281204E+03 -0.29277487810E+02  0.24261864087E+03  0.17200000000E+03 0. -1.
</event>
<event>
 4    1  0.1054668E+000  0.3842418E+03  0.7818608E-02  0.1049377E+00
          1   -1    0    0  502    0  0.00000000000E+00  0.00000000000E+00  0.41827044290E+03  0.41827044290E+03  0.00000000000E+00 0.  1.
         -1   -1    0    0    0  501 -0.00000000000E+00 -0.00000000000E+00 -0.35424333206E+03  0.35424333206E+03  0.00000000000E+00 0. -1.
          6    1    1    2  502    0  0.33954163520E+03  0.52623736546E+02  0.89617445485E+01  0.38434631850E+03  0.17200000000E+03 0.  1.
         -6    1    1    2    0  501 -0.33954163520E+03 -0.52623736546E+02  0.55065366292E+02  0.38816745645E+03  0.17200000000E+03 0. -1.
</event>
<event>
 4    1  0.1054668E+000  0.1951598E+03  0.7818608E-02  0.1153888E+00
         -2   -1    0    0    0  501 -0.00000000000E+00  0.00000000000E+00  0.15954717227E+02  0.15954717227E+02  0.00000000000E+00 0. -1.
          2   -1    0    0  502    0  0.00000000000E+00 -0.00000000000E+00 -0.26190494742E+04  0.26190494742E+04  0.00000000000E+00 0.  1.
          6    1    1    2  502    0 -0.24602372291E+02 -0.88871039215E+02 -0.90956315628E+03  0.93026473307E+03  0.17200000000E+03 0. -1.
         -6    1    1    2    0  501  0.24602372291E+02  0.88871039215E+02 -0.16935316007E+04  0.17047394584E+04  0.17200000000E+03 0.  1.
</event>
<event>
 4    1  0.1054668E+000  0.1770455E+03  0.7818608E-02  0.1170693E+00
         -2   -1    0    0    0  501 -0.00000000000E+00  0.00000000000E+00  0.22540224217E+03  0.22540224217E+03  0.00000000000E+00 0. -1.
          2   -1    0    0  502    0  0.00000000000E+00 -0.00000000000E+00 -0.13928521179E+03  0.13928521179E+03  0.00000000000E+00 0.  1.
          6    1    1    2  502    0 -0.16956347405E+01  0.41931373692E+02  0.35775559321E+02  0.18062393507E+03  0.17200000000E+03 0.  1.
         -6    1    1    2    0  501  0.16956347405E+01 -0.41931373692E+02  0.50341471051E+02  0.18406351889E+03  0.17200000000E+03 0. -1.
</event>
<event>
 4    1  0.1054668E+000  0.2210953E+03  0.7818608E-02  0.1133069E+00
         -1   -1    0    0    0  501 -0.00000000000E+00  0.00000000000E+00  0.23045143783E+02  0.23045143783E+02  0.00000000000E+00 0.  1.
          1   -1    0    0  502    0  0.00000000000E+00 -0.00000000000E+00 -0.26281090953E+04  0.26281090953E+04  0.00000000000E+00 0. -1.
          6    1    1    2  502    0 -0.13867926437E+03 -0.81970949893E+01 -0.72035826586E+03  0.75352449325E+03  0.17200000000E+03 0. -1.
         -6    1    1    2    0  501  0.13867926437E+03  0.81970949893E+01 -0.18847056856E+04  0.18976297458E+04  0.17200000000E+03 0.  1.
</event>
<event>
 4    1  0.1054668E+000  0.2403794E+03  0.7818608E-02  0.1119540E+00
         -3   -1    0    0    0  501 -0.00000000000E+00  0.00000000000E+00  0.37710315675E+02  0.37710315675E+02  0.00000000000E+00 0. -1.
          3   -1    0    0  502    0  0.00000000000E+00 -0.00000000000E+00 -0.16379683533E+04  0.16379683533E+04  0.00000000000E+00 0.  1.
          6    1    1    2  502    0 -0.17894005450E+02 -0.16696722693E+03 -0.10129671627E+04  0.10410978451E+04  0.17200000000E+03 0.  1.
         -6    1    1    2    0  501  0.17894005450E+02  0.16696722693E+03 -0.58729087490E+03  0.63458082388E+03  0.17200000000E+03 0. -1.
</event>
<event>
 4    1  0.1054668E+000  0.2107601E+03  0.7818608E-02  0.1140966E+00
         -2   -1    0    0    0  501 -0.00000000000E+00  0.00000000000E+00  0.19318405123E+03  0.19318405123E+03  0.00000000000E+00 0. -1.
          2   -1    0    0  502    0  0.00000000000E+00 -0.00000000000E+00 -0.23086959067E+03  0.23086959067E+03  0.00000000000E+00 0.  1.
          6    1    1    2  502    0  0.95836736971E+02 -0.75173967456E+02 -0.53537245824E+01  0.21082805293E+03  0.17200000000E+03 0. -1.
         -6    1    1    2    0  501 -0.95836736971E+02  0.75173967456E+02 -0.32331814859E+02  0.21322558896E+03  0.17200000000E+03 0. -1.
</event>
<event>
 4    1  0.1054668E+000  0.2383028E+03  0.7818608E-02  0.1120929E+00
          2   -1    0    0  502    0  0.00000000000E+00  0.00000000000E+00  0.15319329313E+04  0.15319329313E+04  0.00000000000E+00 0.  1.
         -2   -1    0    0    0  501 -0.00000000000E+00 -0.00000000000E+00 -0.60301109908E+02  0.60301109908E+02  0.00000000000E+00 0. -1.
          6    1    1    2  502    0  0.95395780559E+02  0.13455057389E+03  0.12299587908E+04  0.12528315285E+04  0.17200000000E+03 0.  1.
         -6    1    1    2    0  501 -0.95395780559E+02 -0.13455057389E+03  0.24167303063E+03  0.33940251268E+03  0.17200000000E+03 0. -1.
</event>
<event>
 4    1  0.1054668E+000  0.1960553E+03  0.7818608E-02  0.1153110E+00
          2   -1    0    0  502    0  0.00000000000E+00  0.00000000000E+00  0.25035981138E+03  0.25035981138E+03  0.00000000000E+00 0. -1.
         -2   -1    0    0    0  501 -0.00000000000E+00 -0.00000000000E+00 -0.20089216685E+03  0.20089216685E+03  0.00000000000E+00 0.  1.
          6    1    1    2  502    0  0.64959333720E+02  0.68073360050E+02 -0.84819163254E+02  0.21361645030E+03  0.17200000000E+03 0.  1.
         -6    1    1    2    0  501 -0.64959333720E+02 -0.68073360050E+02  0.13428680778E+03  0.23763552792E+03  0.17200000000E+03 0. -1.
</event>
<event>
 4    1  0.1054668E+000  0.1896661E+03  0.7818608E-02  0.1158763E+00
         -2   -1    0    0    0  501 -0.00000000000E+00  0.00000000000E+00  0.40351391766E+02  0.40351391766E+02  0.00000000000E+00 0.  1.
          2   -1    0    0  502    0  0.00000000000E+00 -0.00000000000E+00 -0.21474533402E+04  0.21474533402E+04  0.00000000000E+00 0. -1.
          6    1    1    2  502    0 -0.49336890018E+02 -0.62889480254E+02 -0.18901236235E+04  0.18996158894E+04  0.17200000000E+03 0. -1.
         -6    1    1    2    0  501  0.49336890018E+02  0.62889480254E+02 -0.21697832493E+03  0.28818884248E+03  0.17200000000E+03 0.  1.
</event>
<event>
 4    1  0.1054668E+000  0.1771720E+03  0.7818608E-02  0.1170568E+00
          2   -1    0    0  502    0  0.00000000000E+00  0.00000000000E+00  0.12793992228E+03  0.12793992228E+03  0.00000000000E+00 0.  1.
         -2   -1    0    0    0  501 -0.00000000000E+00 -0.00000000000E+00 -0.32002367917E+03  0.32002367917E+03  0.00000000000E+00 0. -1.
          6    1    1    2  502    0  0.25039212410E+02 -0.34336150326E+02 -0.20423716118E+03  0.27037520483E+03  0.17200000000E+03 0. -1.
         -6    1    1    2    0  501 -0.25039212410E+02  0.34336150326E+02  0.12153404294E+02  0.17758839662E+03  0.17200000000E+03 0.  1.
</event>
<event>
 4    1  0.1054668E+000  0.2023600E+03  0.7818608E-02  0.1147763E+00
         -2   -1    0    0    0  501 -0.00000000000E+00  0.00000000000E+00  0.34036020589E+03  0.34036020589E+03  0.00000000000E+00 0. -1.
          2   -1    0    0  502    0  0.00000000000E+00 -0.00000000000E+00 -0.12252117012E+03  0.12252117012E+03  0.00000000000E+00 0.  1.
          6    1    1    2  502    0  0.10593160843E+03 -0.12002392505E+02  0.77844845651E+02  0.21681647328E+03  0.17200000000E+03 0. -1.
         -6    1    1    2    0  501 -0.10593160843E+03  0.12002392505E+02  0.13999419012E+03  0.24606490273E+03  0.17200000000E+03 0. -1.
</event>
<event>
 4    1  0.1054668E+000  0.1804567E+03  0.7818608E-02  0.1167362E+00
         -1   -1    0    0    0  501 -0.00000000000E+00  0.00000000000E+00  0.11568712615E+03  0.11568712615E+03  0.00000000000E+00 0.  1.
          1   -1    0    0  502    0  0.00000000000E+00 -0.00000000000E+00 -0.30463770622E+03  0.30463770622E+03  0.00000000000E+00 0. -1.
          6    1    1    2  502    0 -0.36309976394E+02 -0.40770194488E+02 -0.15240869357E+03  0.23620548897E+03  0.17200000000E+03 0. -1.
         -6    1    1    2    0  501  0.36309976394E+02  0.40770194488E+02 -0.36541886495E+02  0.18411934340E+03  0.17200000000E+03 0.  1.
</event>
<event>
 4    1  0.1054668E+000  0.2418135E+03  0.7818608E-02  0.1118591E+00
         -2   -1    0    0    0  501 -0.00000000000E+00  0.00000000000E+00  0.20309302114E+03  0.20309302114E+03  0.00000000000E+00 0. -1.
          2   -1    0    0  502    0  0.00000000000E+00 -0.00000000000E+00 -0.29634209072E+03  0.29634209072E+03  0.00000000000E+00 0.  1.
          6    1    1    2  502    0 -0.30401217157E+02 -0.16722902097E+03 -0.45170568738E+01  0.24185570753E+03  0.17200000000E+03 0.  1.
         -6    1    1    2    0  501  0.30401217157E+02  0.16722902097E+03 -0.88732012701E+02  0.25757940434E+03  0.17200000000E+03 0.  1.
</event>
<event>
 4    1  0.1054668E+000  0.2277985E+03  0.7818608E-02  0.1128199E+00
          2   -1    0    0  502    0  0.00000000000E+00  0.00000000000E+00  0.35267058109E+03  0.35267058109E+03  0.00000000000E+00 0. -1.
         -2   -1    0    0    0  501 -0.00000000000E+00 -0.00000000000E+00 -0.14770283040E+03  0.14770283040E+03  0.00000000000E+00 0.  1.
          6    1    1    2  502    0 -0.14822862537E+03 -0.18341541011E+02  0.11792050923E+03  0.25651000761E+03  0.17200000000E+03 0. -1.
         -6    1    1    2    0  501  0.14822862537E+03  0.18341541011E+02  0.87047241455E+02  0.24386340388E+03  0.17200000000E+03 0. -1.
</event>
<event>
 4    1  0.1054668E+000  0.1761706E+03  0.7818608E-02  0.1171561E+00
          2   -1    0    0  502    0  0.00000000000E+00  0.00000000000E+00  0.51790482921E+02  0.51790482921E+02  0.00000000000E+00 0. -1.
         -2   -1    0    0    0  501 -0.00000000000E+00 -0.00000000000E+00 -0.72646518289E+03  0.72646518289E+03  0.00000000000E+00 0.  1.
          6    1    1    2  502    0 -0.72762846532E+01 -0.37405144904E+02 -0.50016689013E+03  0.53028577877E+03  0.17200000000E+03 0.  1.
         -6    1    1    2    0  501  0.72762846532E+01  0.37405144904E+02 -0.17450780984E+03  0.24796988704E+03  0.17200000000E+03 0. -1.
</event>
<event>
 4    1  0.1054668E+000  0.1971048E+03  0.7818608E-02  0.1152205E+00
         -2   -1    0    0    0  501 -0.00000000000E+00  0.00000000000E+00  0.61419865195E+02  0.61419865195E+02  0.00000000000E+00 0. -1.
          2   -1    0    0  502    0  0.00000000000E+00 -0.00000000000E+00 -0.63829473943E+03  0.63829473943E+03  0.00000000000E+00 0.  1.
          6    1    1    2  502    0 -0.27838600507E+02 -0.92148329398E+02 -0.25520763210E+03  0.32246121902E+03  0.17200000000E+03 0.  1.
         -6    1    1    2    0  501  0.27838600507E+02  0.92148329398E+02 -0.32166724213E+03  0.37725338561E+03  0.17200000000E+03 0. -1.
</event>
<event>
 4    1  0.1054668E+000  0.1870298E+03  0.7818608E-02  0.1161168E+00
          1   -1    0    0  502    0  0.00000000000E+00  0.00000000000E+00  0.53095575393E+03  0.53095575393E+03  0.00000000000E+00 0.  1.
         -1   -1    0    0    0  501 -0.00000000000E+00 -0.00000000000E+00 -0.10453355664E+03  0.10453355664E+03  0.00000000000E+00 0. -1.
          6    1    1    2  502    0  0.48728492669E+02 -0.54969666653E+02  0.19997795638E+02  0.18809583217E+03  0.17200000000E+03 0. -1.
         -6    1    1    2    0  501 -0.48728492669E+02  0.54969666653E+02  0.40642440166E+03  0.44739347840E+03  0.17200000000E+03 0.  1.
</event>
<event>
 4    1  0.1054668E+000  0.2400791E+03  0.7818608E-02  0.1119740E+00
         -2   -1    0    0    0  501 -0.00000000000E+00  0.00000000000E+00  0.41361353172E+02  0.41361353172E+02  0.00000000000E+00 0. -1.
          2   -1    0    0  502    0  0.00000000000E+00 -0.00000000000E+00 -0.14843723381E+04  0.14843723381E+04  0.00000000000E+00 0.  1.
          6    1    1    2  502    0  0.16670110779E+03  0.16270117509E+02 -0.91023482567E+03  0.94136359284E+03  0.17200000000E+03 0. -1.
         -6    1    1    2    0  501 -0.16670110779E+03 -0.16270117509E+02 -0.53277615921E+03  0.58437009838E+03  0.17200000000E+03 0. -1.
</event>
<event>
 4    1  0.1054668E+000  0.2170684E+03  0.7818608E-02  0.1136088E+00
          2   -1    0    0  502    0  0.00000000000E+00  0.00000000000E+00  0.79880838682E+03  0.79880838682E+03  0.00000000000E+00 0. -1.
         -2   -1    0    0    0  501 -0.00000000000E+00 -0.00000000000E+00 -0.59828532242E+02  0.59828532242E+02  0.00000000000E+00 0.  1.
          6    1    1    2  502    0  0.92093371687E+02  0.95149862351E+02  0.42043034883E+03  0.47315997679E+03  0.17200000000E+03 0. -1.
         -6    1    1    2    0  501 -0.92093371687E+02 -0.95149862351E+02  0.31854950574E+03  0.38547694227E+03  0.17200000000E+03 0.  1.
</event>
<event>
 4    1  0.1054668E+000  0.4075177E+03  0.7818608E-02  0.1041207E+00
          2   -1    0    0  502    0  0.00000000000E+00  0.00000000000E+00  0.86815160458E+03  0.86815160458E+03  0.00000000000E+00 0.  1.
         -2   -1    0    0    0  501 -0.00000000000E+00 -0.00000000000E+00 -0.19890487258E+03  0.19890487258E+03  0.00000000000E+00 0. -1.
          6    1    1    2  502    0  0.34412590208E+03 -0.13440247060E+03  0.23024697345E+03  0.46806445002E+03  0.17200000000E+03 0. -1.
         -6    1    1    2    0  501 -0.34412590208E+03  0.13440247060E+03  0.43899975855E+03  0.59899202715E+03  0.17200000000E+03 0.  1.
</event>
<event>
 4    1  0.1054668E+000  0.3098199E+03  0.7818608E-02  0.1080432E+00
         -1   -1    0    0    0  501 -0.00000000000E+00  0.00000000000E+00  0.23416419546E+03  0.23416419546E+03  0.00000000000E+00 0.  1.
          1   -1    0    0  502    0  0.00000000000E+00 -0.00000000000E+00 -0.45533187912E+03  0.45533187912E+03  0.00000000000E+00 0. -1.
          6    1    1    2  502    0  0.47012021032E+02  0.25336576860E+03 -0.17090102182E+01  0.30982456897E+03  0.17200000000E+03 0.  1.
         -6    1    1    2    0  501 -0.47012021032E+02 -0.25336576860E+03 -0.21945867344E+03  0.37967150561E+03  0.17200000000E+03 0. -1.
</event>
<event>
 4    1  0.1054668E+000  0.2264553E+03  0.7818608E-02  0.1129160E+00
          2   -1    0    0  502    0  0.00000000000E+00  0.00000000000E+00  0.24872801500E+04  0.24872801500E+04  0.00000000000E+00 0.  1.
         -2   -1    0    0    0  501 -0.00000000000E+00 -0.00000000000E+00 -0.22193644683E+02  0.22193644683E+02  0.00000000000E+00 0. -1.
          6    1    1    2  502    0  0.74148871708E+02 -0.12727908009E+03  0.89818846967E+03  0.92629614404E+03  0.17200000000E+03 0. -1.
         -6    1    1    2    0  501 -0.74148871708E+02  0.12727908009E+03  0.15668980357E+04  0.15831776507E+04  0.17200000000E+03 0.  1.
</event>
<event>
 4    1  0.1054668E+000  0.2257548E+03  0.7818608E-02  0.1129664E+00
         -2   -1    0    0    0  501 -0.00000000000E+00  0.00000000000E+00  0.50733408607E+02  0.50733408607E+02  0.00000000000E+00 0.  1.
          2   -1    0    0  502    0  0.00000000000E+00 -0.00000000000E+00 -0.15018569949E+04  0.15018569949E+04  0.00000000000E+00 0. -1.
          6    1    1    2  502    0 -0.15715517182E+02  0.14537628274E+03 -0.11722621787E+04  0.11938022686E+04  0.17200000000E+03 0.  1.
         -6    1    1    2    0  501  0.15715517182E+02 -0.14537628274E+03 -0.27886140763E+03  0.35878813487E+03  0.17200000000E+03 0.  1.
</event>
<event>
 4    1  0.1054668E+000  0.2050497E+03  0.7818608E-02  0.1145547E+00
         -2   -1    0    0    0  501 -0.00000000000E+00  0.00000000000E+00  0.35596942509E+02  0.35596942509E+02  0.00000000000E+00 0.  1.
          2   -1    0    0  502    0  0.00000000000E+00 -0.00000000000E+00 -0.15182621841E+04  0.15182621841E+04  0.00000000000E+00 0. -1.
          6    1    1    2  502    0 -0.98114134139E+02 -0.53244818403E+02 -0.37523719572E+03  0.42760770229E+03  0.17200000000E+03 0.  1.
         -6    1    1    2    0  501  0.98114134139E+02  0.53244818403E+02 -0.11074280459E+04  0.11262514243E+04  0.17200000000E+03 0. -1.
</event>
<event>
 4    1  0.1054668E+000  0.2202569E+03  0.7818608E-02  0.1133692E+00
          1   -1    0    0  502    0  0.00000000000E+00  0.00000000000E+00  0.15879996950E+04  0.15879996950E+04  0.00000000000E+00 0.  1.
         -1   -1    0    0    0  501 -0.00000000000E+00 -0.00000000000E+00 -0.59171526755E+02  0.59171526755E+02  0.00000000000E+00 0. -1.
          6    1    1    2  502    0  0.12007850046E+03 -0.67158358255E+02  0.19161780113E+03  0.29194258522E+03  0.17200000000E+03 0. -1.
         -6    1    1    2    0  501 -0.12007850046E+03  0.67158358255E+02  0.13372103671E+04  0.13552286365E+04  0.17200000000E+03 0.  1.
</event>
<event>
 4    1  0.1054668E+000  0.1806685E+03  0.7818608E-02  0.1167158E+00
         -2   -1    0    0    0  501 -0.00000000000E+00  0.00000000000E+00  0.28220705243E+02  0.28220705243E+02  0.00000000000E+00 0.  1.
          2   -1    0    0  502    0  0.00000000000E+00 -0.00000000000E+00 -0.11632405123E+04  0.11632405123E+04  0.00000000000E+00 0. -1.
          6    1    1    2  502    0 -0.16329576837E+02 -0.52824619181E+02 -0.61239702289E+03  0.63849135398E+03  0.17200000000E+03 0. -1.
         -6    1    1    2    0  501  0.16329576837E+02  0.52824619181E+02 -0.52262278419E+03  0.55296986357E+03  0.17200000000E+03 0. -1.
</event>
<event>
 4    1  0.1054668E+000  0.2187905E+03  0.7818608E-02  0.1134788E+00
         -2   -1    0    0    0  501 -0.00000000000E+00  0.00000000000E+00  0.51110364032E+02  0.51110364032E+02  0.00000000000E+00 0. -1.
          2   -1    0    0  502    0  0.00000000000E+00 -0.00000000000E+00 -0.12109354520E+04  0.12109354520E+04  0.00000000000E+00 0.  1.
          6    1    1    2  502    0  0.13088008749E+03  0.33995586585E+02 -0.27955678192E+03  0.35499477676E+03  0.17200000000E+03 0. -1.
         -6    1    1    2    0  501 -0.13088008749E+03 -0.33995586585E+02 -0.88026830602E+03  0.90705103924E+03  0.17200000000E+03 0.  1.
</event>
<event>
 4    1  0.1054668E+000  0.1990641E+03  0.7818608E-02  0.1150531E+00
          2   -1    0    0  502    0  0.00000000000E+00  0.00000000000E+00  0.14308354244E+04  0.14308354244E+04  0.00000000000E+00 0.  1.
         -2   -1    0    0    0  501 -0.00000000000E+00 -0.00000000000E+00 -0.30197855020E+02  0.30197855020E+02  0.00000000000E+00 0. -1.
          6    1    1    2  502    0  0.97115456315E+02  0.24720818014E+02  0.91064217942E+03  0.93214575558E+03  0.17200000000E+03 0. -1.
         -6    1    1    2    0  501 -0.97115456315E+02 -0.24720818014E+02  0.48999538998E+03  0.52888752387E+03  0.17200000000E+03 0. -1.
</event>
<event>
 4    1  0.1054668E+000  0.1803916E+03  0.7818608E-02  0.1167425E+00
         -2   -1    0    0    0  501 -0.00000000000E+00  0.00000000000E+00  0.22540422450E+02  0.22540422450E+02  0.00000000000E+00 0. -1.
          2   -1    0    0  502    0  0.00000000000E+00 -0.00000000000E+00 -0.14447494948E+04  0.14447494948E+04  0.00000000000E+00 0.  1.
          6    1    1    2  502    0  0.52784517493E+02 -0.13074191814E+02 -0.69113652465E+03  0.71429044197E+03  0.17200000000E+03 0. -1.
         -6    1    1    2    0  501 -0.52784517493E+02  0.13074191814E+02 -0.73107254773E+03  0.75299947532E+03  0.17200000000E+03 0. -1.
</event>
<event>
 4    1  0.1054668E+000  0.1817819E+03  0.7818608E-02  0.1166090E+00
         -2   -1    0    0    0  501 -0.00000000000E+00  0.00000000000E+00  0.30750083723E+02  0.30750083723E+02  0.00000000000E+00 0. -1.
          2   -1    0    0  502    0  0.00000000000E+00 -0.00000000000E+00 -0.10746593623E+04  0.10746593623E+04  0.00000000000E+00 0.  1.
          6    1    1    2  502    0 -0.24645626247E+02 -0.53415835346E+02 -0.51861431089E+03  0.54955023593E+03  0.17200000000E+03 0.  1.
         -6    1    1    2    0  501  0.24645626247E+02  0.53415835346E+02 -0.52529496767E+03  0.55585921006E+03  0.17200000000E+03 0. -1.
</event>
<event>
 4    1  0.1054668E+000  0.1855585E+03  0.7818608E-02  0.1162529E+00
          1   -1    0    0  502    0  0.00000000000E+00  0.00000000000E+00  0.82663268255E+03  0.82663268255E+03  0.00000000000E+00 0. -1.
         -1   -1    0    0    0  501 -0.00000000000E+00 -0.00000000000E+00 -0.43247391449E+02  0.43247391449E+02  0.00000000000E+00 0.  1.
          6    1    1    2  502    0 -0.61788680262E+02 -0.32095494856E+02  0.30818833431E+03  0.35973880970E+03  0.17200000000E+03 0.  1.
         -6    1    1    2    0  501  0.61788680262E+02  0.32095494856E+02  0.47519695679E+03  0.51014126430E+03  0.17200000000E+03 0. -1.
</event>
<event>
 4    1  0.1054668E+000  0.1960605E+03  0.7818608E-02  0.1153106E+00
         -1   -1    0    0    0  501 -0.00000000000E+00  0.00000000000E+00  0.13518572367E+03  0.13518572367E+03  0.00000000000E+00 0. -1.
          1   -1    0    0  502    0  0.00000000000E+00 -0.00000000000E+00 -0.28608579949E+03  0.28608579949E+03  0.00000000000E+00 0.  1.
          6    1    1    2  502    0  0.74428592874E+02 -0.57585519134E+02 -0.59030526839E+02  0.20475426870E+03  0.17200000000E+03 0.  1.
         -6    1    1    2    0  501 -0.74428592874E+02  0.57585519134E+02 -0.91869548984E+02  0.21651725447E+03  0.17200000000E+03 0. -1.
</event>
<event>
 4    1  0.1054668E+000  0.2364077E+03  0.7818608E-02  0.1122209E+00
         -2   -1    0    0    0  501 -0.00000000000E+00  0.00000000000E+00  0.30315590182E+02  0.30315590182E+02  0.00000000000E+00 0. -1.
          2   -1    0    0  502    0  0.00000000000E+00 -0.00000000000E+00 -0.22096618546E+04  0.22096618546E+04  0.00000000000E+00 0.  1.
          6    1    1    2  502    0 -0.13217433877E+03  0.93992376403E+02 -0.15455540840E+04  0.15635299962E+04  0.17200000000E+03 0. -1.
         -6    1    1    2    0  501  0.13217433877E+03 -0.93992376403E+02 -0.63379218048E+03  0.67644744858E+03  0.17200000000E+03 0. -1.
</event>
<event>
 4    1  0.1054668E+000  0.1842714E+03  0.7818608E-02  0.1163732E+00
          1   -1    0    0  502    0  0.00000000000E+00  0.00000000000E+00  0.96980017536E+03  0.96980017536E+03  0.00000000000E+00 0. -1.
         -1   -1    0    0    0  501 -0.00000000000E+00 -0.00000000000E+00 -0.35013515742E+02  0.35013515742E+02  0.00000000000E+00 0.  1.
          6    1    1    2  502    0  0.43037660150E+02  0.50196814789E+02  0.46846083184E+03  0.50339995170E+03  0.17200000000E+03 0.  1.
         -6    1    1    2    0  501 -0.43037660150E+02 -0.50196814789E+02  0.46632582778E+03  0.50141373940E+03  0.17200000000E+03 0.  1.
</event>
<event>
 4    1  0.1054668E+000  0.2180142E+03  0.7818608E-02  0.1135372E+00
          2   -1    0    0  502    0  0.00000000000E+00  0.00000000000E+00  0.65009453642E+03  0.65009453642E+03  0.00000000000E+00 0.  1.
         -2   -1    0    0    0  501 -0.00000000000E+00 -0.00000000000E+00 -0.91399952870E+02  0.91399952870E+02  0.00000000000E+00 0. -1.
          6    1    1    2  502    0  0.13380427201E+03  0.65278690671E+01  0.11351135703E+03  0.24579467947E+03  0.17200000000E+03 0. -1.
         -6    1    1    2    0  501 -0.13380427201E+03 -0.65278690671E+01  0.44518322651E+03  0.49569980982E+03  0.17200000000E+03 0.  1.
</event>
<event>
 4    1  0.1054668E+000  0.2663576E+03  0.7818608E-02  0.1103383E+00
          2   -1    0    0  502    0  0.00000000000E+00  0.00000000000E+00  0.25478435158E+04  0.25478435158E+04  0.00000000000E+00 0. -1.
         -2   -1    0    0    0  501 -0.00000000000E+00 -0.00000000000E+00 -0.36937909230E+02  0.36937909230E+02  0.00000000000E+00 0.  1.
          6    1    1    2  502    0  0.13225362417E+03  0.15450351526E+03  0.18966529189E+04  0.19152646428E+04  0.17200000000E+03 0. -1.
         -6    1    1    2    0  501 -0.13225362417E+03 -0.15450351526E+03  0.61425268774E+03  0.66951678226E+03  0.17200000000E+03 0. -1.
</event>
<event>
 4    1  0.1054668E+000  0.2866731E+03  0.7818608E-02  0.1092099E+00
         -1   -1    0    0    0  501 -0.00000000000E+00  0.00000000000E+00  0.12818031872E+03  0.12818031872E+03  0.00000000000E+00 0.  1.
          1   -1    0    0  502    0  0.00000000000E+00 -0.00000000000E+00 -0.10780650354E+04  0.10780650354E+04  0.00000000000E+00 0. -1.
          6    1    1    2  502    0 -0.20485462058E+03 -0.10311192192E+03 -0.90981619134E+02  0.30076425824E+03  0.17200000000E+03 0.  1.
         -6    1    1    2    0  501  0.20485462058E+03  0.10311192192E+03 -0.85890309753E+03  0.90548109586E+03  0.17200000000E+03 0. -1.
</event>
<event>
 4    1  0.1054668E+000  0.1966989E+03  0.7818608E-02  0.1152554E+00
         -2   -1    0    0    0  501 -0.00000000000E+00  0.00000000000E+00  0.77422267624E+02  0.77422267624E+02  0.00000000000E+00 0. -1.
          2   -1    0    0  502    0  0.00000000000E+00 -0.00000000000E+00 -0.59766206788E+03  0.59766206788E+03  0.00000000000E+00 0.  1.
          6    1    1    2  502    0 -0.93466539771E+02 -0.19247546178E+02 -0.39675302415E+03  0.44283566282E+03  0.17200000000E+03 0.  1.
         -6    1    1    2    0  501  0.93466539771E+02  0.19247546178E+02 -0.12348677610E+03  0.23224867268E+03  0.17200000000E+03 0. -1.
</event>
<event>
 4    1  0.1054668E+000  0.2564729E+03  0.7818608E-02  0.1109281E+00
         -1   -1    0    0    0  501 -0.00000000000E+00  0.00000000000E+00  0.12478375244E+03  0.12478375244E+03  0.00000000000E+00 0. -1.
          1   -1    0    0  502    0  0.00000000000E+00 -0.00000000000E+00 -0.57237477391E+03  0.57237477391E+03  0.00000000000E+00 0.  1.
          6    1    1    2  502    0 -0.13465149574E+03  0.13439993597E+03 -0.32179027460E+03  0.41149404482E+03  0.17200000000E+03 0.  1.
         -6    1    1    2    0  501  0.13465149574E+03 -0.13439993597E+03 -0.12580074687E+03  0.28566448153E+03  0.17200000000E+03 0. -1.
</event>
<event>
 4    1  0.1054668E+000  0.1918755E+03  0.7818608E-02  0.1156781E+00
          1   -1    0    0  502    0  0.00000000000E+00  0.00000000000E+00  0.52934311993E+03  0.52934311993E+03  0.00000000000E+00 0.  1.
         -1   -1    0    0    0  501 -0.00000000000E+00 -0.00000000000E+00 -0.73754604758E+02  0.73754604758E+02  0.00000000000E+00 0. -1.
          6    1    1    2  502    0 -0.83797762626E+02 -0.14495809021E+02  0.15580152084E+03  0.24716453507E+03  0.17200000000E+03 0. -1.
         -6    1    1    2    0  501  0.83797762626E+02  0.14495809021E+02  0.29978699433E+03  0.35593318962E+03  0.17200000000E+03 0.  1.
</event>
<event>
 4    1  0.1054668E+000  0.4054233E+03  0.7818608E-02  0.1041918E+00
          2   -1    0    0  502    0  0.00000000000E+00  0.00000000000E+00  0.17190276813E+04  0.17190276813E+04  0.00000000000E+00 0. -1.
         -2   -1    0    0    0  501 -0.00000000000E+00 -0.00000000000E+00 -0.10853833733E+03  0.10853833733E+03  0.00000000000E+00 0.  1.
          6    1    1    2  502    0  0.17243365028E+03 -0.32411521492E+03  0.48995662127E+03  0.63594459430E+03  0.17200000000E+03 0.  1.
         -6    1    1    2    0  501 -0.17243365028E+03  0.32411521492E+03  0.11205327227E+04  0.11916214243E+04  0.17200000000E+03 0. -1.
</event>
<event>
 4    1  0.1054668E+000  0.1840744E+03  0.7818608E-02  0.1163917E+00
          2   -1    0    0  502    0  0.00000000000E+00  0.00000000000E+00  0.46593020430E+03  0.46593020430E+03  0.00000000000E+00 0. -1.
         -2   -1    0    0    0  501 -0.00000000000E+00 -0.00000000000E+00 -0.82226474044E+02  0.82226474044E+02  0.00000000000E+00 0.  1.
          6    1    1    2  502    0 -0.61492873429E+02  0.22759958769E+02  0.28503392198E+03  0.33930476844E+03  0.17200000000E+03 0. -1.
         -6    1    1    2    0  501  0.61492873429E+02 -0.22759958769E+02  0.98669808276E+02  0.20885190991E+03  0.17200000000E+03 0.  1.
</event>
<event>
 4    1  0.1054668E+000  0.1844416E+03  0.7818608E-02  0.1163572E+00
         -2   -1    0    0    0  501 -0.00000000000E+00  0.00000000000E+00  0.10634217779E+03  0.10634217779E+03  0.00000000000E+00 0. -1.
          2   -1    0    0  502    0  0.00000000000E+00 -0.00000000000E+00 -0.32949533069E+03  0.32949533069E+03  0.00000000000E+00 0.  1.
          6    1    1    2  502    0 -0.45174299853E+02 -0.48928563549E+02 -0.14876689924E+03  0.23696057058E+03  0.17200000000E+03 0.  1.
         -6    1    1    2    0  501  0.45174299853E+02  0.48928563549E+02 -0.74386253651E+02  0.19887693790E+03  0.17200000000E+03 0. -1.
</event>
<event>
 4    1  0.1054668E+000  0.2055415E+03  0.7818608E-02  0.1145146E+00
          2   -1    0    0  502    0  0.00000000000E+00  0.00000000000E+00  0.10429276717E+04  0.10429276717E+04  0.00000000000E+00 0. -1.
         -2   -1    0    0    0  501 -0.00000000000E+00 -0.00000000000E+00 -0.48737244470E+02  0.48737244470E+02  0.00000000000E+00 0.  1.
          6    1    1    2  502    0  0.11221199364E+03 -0.84717736990E+01  0.27281083380E+03  0.34157437478E+03  0.17200000000E+03 0. -1.
         -6    1    1    2    0  501 -0.11221199364E+03  0.84717736990E+01  0.72137959343E+03  0.75009054139E+03  0.17200000000E+03 0. -1.
</event>
<event>
 4    1  0.1054668E+000  0.2861798E+03  0.7818608E-02  0.1092361E+00
          2   -1    0    0  502    0  0.00000000000E+00  0.00000000000E+00  0.26242397889E+04  0.26242397889E+04  0.00000000000E+00 0. -1.
         -2   -1    0    0    0  501 -0.00000000000E+00 -0.00000000000E+00 -0.31288956918E+02  0.31288956918E+02  0.00000000000E+00 0.  1.
          6    1    1    2  502    0 -0.15727666591E+03  0.16606903687E+03  0.13637593838E+04  0.13934627844E+04  0.17200000000E+03 0.  1.
         -6    1    1    2    0  501  0.15727666591E+03 -0.16606903687E+03  0.12291914481E+04  0.12620659613E+04  0.17200000000E+03 0.  1.
</event>
<event>
 4    1  0.1054668E+000  0.1921075E+03  0.7818608E-02  0.1156574E+00
          1   -1    0    0  502    0  0.00000000000E+00  0.00000000000E+00  0.12337527586E+03  0.12337527586E+03  0.00000000000E+00 0. -1.
         -1   -1    0    0    0  501 -0.00000000000E+00 -0.00000000000E+00 -0.30371668735E+03  0.30371668735E+03  0.00000000000E+00 0.  1.
          6    1    1    2  502    0 -0.39893949010E+02 -0.75695181175E+02 -0.11641233389E+03  0.22462662153E+03  0.17200000000E+03 0.  1.
         -6    1    1    2    0  501  0.39893949010E+02  0.75695181175E+02 -0.63929077602E+02  0.20246534169E+03  0.17200000000E+03 0.  1.
</event>
<event>
 4    1  0.1054668E+000  0.2172540E+03  0.7818608E-02  0.1135947E+00
         -2   -1    0    0    0  501 -0.00000000000E+00  0.00000000000E+00  0.19596156839E+02  0.19596156839E+02  0.00000000000E+00 0. -1.
          2   -1    0    0  502    0  0.00000000000E+00 -0.00000000000E+00 -0.25870574391E+04  0.25870574391E+04  0.00000000000E+00 0.  1.
          6    1    1    2  502    0  0.10458065412E+03  0.81720141010E+02 -0.94142176715E+03  0.96616470559E+03  0.17200000000E+03 0. -1.
         -6    1    1    2    0  501 -0.10458065412E+03 -0.81720141010E+02 -0.16260395151E+04  0.16404888903E+04  0.17200000000E+03 0. -1.
</event>
<event>
 4    1  0.1054668E+000  0.2162516E+03  0.7818608E-02  0.1136709E+00
         -1   -1    0    0    0  501 -0.00000000000E+00  0.00000000000E+00  0.72644748521E+03  0.72644748521E+03  0.00000000000E+00 0. -1.
          1   -1    0    0  502    0  0.00000000000E+00 -0.00000000000E+00 -0.65932405696E+02  0.65932405696E+02  0.00000000000E+00 0.  1.
          6    1    1    2  502    0 -0.22589160789E+02 -0.12911423937E+03  0.39115685571E+03  0.44695463166E+03  0.17200000000E+03 0.  1.
         -6    1    1    2    0  501  0.22589160789E+02  0.12911423937E+03  0.26935822381E+03  0.34542525925E+03  0.17200000000E+03 0. -1.
</event>
<event>
 4    1  0.1054668E+000  0.2182859E+03  0.7818608E-02  0.1135167E+00
         -2   -1    0    0    0  501 -0.00000000000E+00  0.00000000000E+00  0.56709330644E+02  0.56709330644E+02  0.00000000000E+00 0.  1.
          2   -1    0    0  502    0  0.00000000000E+00 -0.00000000000E+00 -0.16295733073E+04  0.16295733073E+04  0.00000000000E+00 0. -1.
          6    1    1    2  502    0  0.12151285925E+03  0.57439991010E+02 -0.19962249501E+03  0.29580038548E+03  0.17200000000E+03 0.  1.
         -6    1    1    2    0  501 -0.12151285925E+03 -0.57439991010E+02 -0.13732414816E+04  0.13904822525E+04  0.17200000000E+03 0. -1.
</event>
<event>
 4    1  0.1054668E+000  0.1994478E+03  0.7818608E-02  0.1150206E+00
         -2   -1    0    0    0  501 -0.00000000000E+00  0.00000000000E+00  0.33494386250E+02  0.33494386250E+02  0.00000000000E+00 0.  1.
          2   -1    0    0  502    0  0.00000000000E+00 -0.00000000000E+00 -0.12631672580E+04  0.12631672580E+04  0.00000000000E+00 0. -1.
          6    1    1    2  502    0  0.92250229616E+02 -0.41052624727E+02 -0.45630871207E+03  0.49799303566E+03  0.17200000000E+03 0.  1.
         -6    1    1    2    0  501 -0.92250229616E+02  0.41052624727E+02 -0.77336415973E+03  0.79866860863E+03  0.17200000000E+03 0.  1.
</event>
<event>
 4    1  0.1054668E+000  0.2032475E+03  0.7818608E-02  0.1147028E+00
          1   -1    0    0  502    0  0.00000000000E+00  0.00000000000E+00  0.32748705330E+03  0.32748705330E+03  0.00000000000E+00 0. -1.
         -1   -1    0    0    0  501 -0.00000000000E+00 -0.00000000000E+00 -0.13394847156E+03  0.13394847156E+03  0.00000000000E+00 0.  1.
          6    1    1    2  502    0  0.99020143225E+02 -0.43823998413E+02  0.15247098979E+03  0.25408056661E+03  0.17200000000E+03 0. -1.
         -6    1    1    2    0  501 -0.99020143225E+02  0.43823998413E+02  0.41067591953E+02  0.20735495825E+03  0.17200000000E+03 0.  1.
</event>
<event>
 4    1  0.1054668E+000  0.3065404E+03  0.7818608E-02  0.1082016E+00
         -2   -1    0    0    0  501 -0.00000000000E+00  0.00000000000E+00  0.18322877240E+04  0.18322877240E+04  0.00000000000E+00 0. -1.
          2   -1    0    0  502    0  0.00000000000E+00 -0.00000000000E+00 -0.52129122701E+02  0.52129122701E+02  0.00000000000E+00 0.  1.
          6    1    1    2  502    0 -0.24922003621E+03 -0.47669296884E+02  0.77010881521E+03  0.82887548858E+03  0.17200000000E+03 0.  1.
         -6    1    1    2    0  501  0.24922003621E+03  0.47669296884E+02  0.10100497861E+04  0.10555413581E+04  0.17200000000E+03 0. -1.
</event>
<event>
 4    1  0.1054668E+000  0.2821520E+03  0.7818608E-02  0.1094519E+00
         -1   -1    0    0    0  501 -0.00000000000E+00  0.00000000000E+00  0.31569667293E+03  0.31569667293E+03  0.00000000000E+00 0. -1.
          1   -1    0    0  502    0  0.00000000000E+00 -0.00000000000E+00 -0.46834983729E+03  0.46834983729E+03  0.00000000000E+00 0.  1.
          6    1    1    2  502    0  0.22030737156E+03  0.38605507876E+02 -0.34266429579E+03  0.44387897316E+03  0.17200000000E+03 0.  1.
         -6    1    1    2    0  501 -0.22030737156E+03 -0.38605507876E+02  0.19001113143E+03  0.34016753706E+03  0.17200000000E+03 0. -1.
</event>
<event>
 4    1  0.1054668E+000  0.1859323E+03  0.7818608E-02  0.1162182E+00
          2   -1    0    0  502    0  0.00000000000E+00  0.00000000000E+00  0.13823961994E+04  0.13823961994E+04  0.00000000000E+00 0. -1.
         -2   -1    0    0    0  501 -0.00000000000E+00 -0.00000000000E+00 -0.27050368476E+02  0.27050368476E+02  0.00000000000E+00 0.  1.
          6    1    1    2  502    0 -0.22484192128E+01  0.70581617934E+02  0.48402619321E+03  0.51850957165E+03  0.17200000000E+03 0.  1.
         -6    1    1    2    0  501  0.22484192128E+01 -0.70581617934E+02  0.87131963770E+03  0.89093699622E+03  0.17200000000E+03 0. -1.
</event>
<event>
 4    1  0.1054668E+000  0.2329997E+03  0.7818608E-02  0.1124546E+00
          2   -1    0    0  502    0  0.00000000000E+00  0.00000000000E+00  0.30192519001E+03  0.30192519001E+03  0.00000000000E+00 0.  1.
         -2   -1    0    0    0  501 -0.00000000000E+00 -0.00000000000E+00 -0.18318973891E+03  0.18318973891E+03  0.00000000000E+00 0. -1.
          6    1    1    2  502    0  0.14761257697E+03 -0.53994515149E+02  0.92318596524E+02  0.25062243277E+03  0.17200000000E+03 0.  1.
         -6    1    1    2    0  501 -0.14761257697E+03  0.53994515149E+02  0.26416854569E+02  0.23449249615E+03  0.17200000000E+03 0. -1.
</event>
<event>
 4    1  0.1054668E+000  0.1887523E+03  0.7818608E-02  0.1159592E+00
         -2   -1    0    0    0  501 -0.00000000000E+00  0.00000000000E+00  0.13195715587E+03  0.13195715587E+03  0.00000000000E+00 0.  1.
          2   -1    0    0  502    0  0.00000000000E+00 -0.00000000000E+00 -0.27011907967E+03  0.27011907967E+03  0.00000000000E+00 0. -1.
          6    1    1    2  502    0 -0.39934337122E+02  0.66698311555E+02 -0.64725590564E+02  0.19954151979E+03  0.17200000000E+03 0. -1.
         -6    1    1    2    0  501  0.39934337122E+02 -0.66698311555E+02 -0.73436333229E+02  0.20253471575E+03  0.17200000000E+03 0.  1.
</event>
<event>
 4    1  0.1054668E+000  0.2443895E+03  0.7818608E-02  0.1116903E+00
          1   -1    0    0  502    0  0.00000000000E+00  0.00000000000E+00  0.82935547670E+03  0.82935547670E+03  0.00000000000E+00 0.  1.
         -1   -1    0    0    0  501 -0.00000000000E+00 -0.00000000000E+00 -0.83704522529E+02  0.83704522529E+02  0.00000000000E+00 0. -1.
          6    1    1    2  502    0  0.12027274810E+03  0.12520651724E+03  0.20222139824E+03  0.31720608411E+03  0.17200000000E+03 0. -1.
         -6    1    1    2    0  501 -0.12027274810E+03 -0.12520651724E+03  0.54342955593E+03  0.59585391511E+03  0.17200000000E+03 0.  1.
</event>
<event>
 4    1  0.1054668E+000  0.1785744E+03  0.7818608E-02  0.1169190E+00
          2   -1    0    0  502    0  0.00000000000E+00  0.00000000000E+00  0.10506618069E+03  0.10506618069E+03  0.00000000000E+00 0. -1.
         -2   -1    0    0    0  501 -0.00000000000E+00 -0.00000000000E+00 -0.66296895397E+03  0.66296895397E+03  0.00000000000E+00 0.  1.
          6    1    1    2  502    0 -0.62372031994E+01  0.47601531614E+02 -0.56171801958E+03  0.58942000478E+03  0.17200000000E+03 0.  1.
         -6    1    1    2    0  501  0.62372031994E+01 -0.47601531614E+02  0.38152463000E+01  0.17861512987E+03  0.17200000000E+03 0. -1.
</event>
<event>
 4    1  0.1054668E+000  0.1760745E+03  0.7818608E-02  0.1171657E+00
         -1   -1    0    0    0  501 -0.00000000000E+00  0.00000000000E+00  0.12758172589E+02  0.12758172589E+02  0.00000000000E+00 0.  1.
          1   -1    0    0  502    0  0.00000000000E+00 -0.00000000000E+00 -0.26819835068E+04  0.26819835068E+04  0.00000000000E+00 0. -1.
          6    1    1    2  502    0  0.10347290144E+02 -0.36209841395E+02 -0.92160831227E+03  0.93827719800E+03  0.17200000000E+03 0.  1.
         -6    1    1    2    0  501 -0.10347290144E+02  0.36209841395E+02 -0.17476170219E+04  0.17564644814E+04  0.17200000000E+03 0. -1.
</event>
<event>
 4    1  0.1054668E+000  0.2507660E+03  0.7818608E-02  0.1112822E+00
         -1   -1    0    0    0  501 -0.00000000000E+00  0.00000000000E+00  0.12335383376E+03  0.12335383376E+03  0.00000000000E+00 0.  1.
          1   -1    0    0  502    0  0.00000000000E+00 -0.00000000000E+00 -0.11400334437E+04  0.11400334437E+04  0.00000000000E+00 0. -1.
          6    1    1    2  502    0 -0.73533407932E+02 -0.16701028512E+03 -0.97802247805E+03  0.10096591331E+04  0.17200000000E+03 0. -1.
         -6    1    1    2    0  501  0.73533407932E+02  0.16701028512E+03 -0.38657131907E+02  0.25372814441E+03  0.17200000000E+03 0.  1.
</event>
<event>
 4    1  0.1054668E+000  0.1868612E+03  0.7818608E-02  0.1161323E+00
         -2   -1    0    0    0  501 -0.00000000000E+00  0.00000000000E+00  0.32979393021E+02  0.32979393021E+02  0.00000000000E+00 0.  1.
          2   -1    0    0  502    0  0.00000000000E+00 -0.00000000000E+00 -0.12057802042E+04  0.12057802042E+04  0.00000000000E+00 0. -1.
          6    1    1    2  502    0  0.27746159118E+02  0.67551945668E+02 -0.37011955155E+03  0.41461499870E+03  0.17200000000E+03 0.  1.
         -6    1    1    2    0  501 -0.27746159118E+02 -0.67551945668E+02 -0.80268125964E+03  0.82414459853E+03  0.17200000000E+03 0. -1.
</event>
<event>
 4    1  0.1054668E+000  0.1723331E+03  0.7818608E-02  0.1175436E+00
         -2   -1    0    0    0  501 -0.00000000000E+00  0.00000000000E+00  0.24546371346E+02  0.24546371346E+02  0.00000000000E+00 0.  1.
          2   -1    0    0  502    0  0.00000000000E+00 -0.00000000000E+00 -0.12167306865E+04  0.12167306865E+04  0.00000000000E+00 0. -1.
          6    1    1    2  502    0  0.86627020189E+01  0.62971683934E+01 -0.64258854585E+03  0.66529597624E+03  0.17200000000E+03 0. -1.
         -6    1    1    2    0  501 -0.86627020189E+01 -0.62971683934E+01 -0.54959576928E+03  0.57598108159E+03  0.17200000000E+03 0.  1.
</event>
<event>
 4    1  0.1054668E+000  0.1826566E+03  0.7818608E-02  0.1165256E+00
          2   -1    0    0  502    0  0.00000000000E+00  0.00000000000E+00  0.56920039905E+03  0.56920039905E+03  0.00000000000E+00 0.  1.
         -2   -1    0    0    0  501 -0.00000000000E+00 -0.00000000000E+00 -0.66495333685E+02  0.66495333685E+02  0.00000000000E+00 0. -1.
          6    1    1    2  502    0  0.44912005638E+02  0.41980242580E+02  0.36077543675E+03  0.40437896184E+03  0.17200000000E+03 0.  1.
         -6    1    1    2    0  501 -0.44912005638E+02 -0.41980242580E+02  0.14192962861E+03  0.23131677089E+03  0.17200000000E+03 0. -1.
</event>
<event>
 4    1  0.1054668E+000  0.2139802E+03  0.7818608E-02  0.1138452E+00
          2   -1    0    0  502    0  0.00000000000E+00  0.00000000000E+00  0.10214502002E+04  0.10214502002E+04  0.00000000000E+00 0. -1.
         -2   -1    0    0    0  501 -0.00000000000E+00 -0.00000000000E+00 -0.58958733331E+02  0.58958733331E+02  0.00000000000E+00 0.  1.
          6    1    1    2  502    0 -0.10969868806E+03  0.64573484859E+02  0.21676318322E+03  0.30458794249E+03  0.17200000000E+03 0.  1.
         -6    1    1    2    0  501  0.10969868806E+03 -0.64573484859E+02  0.74572828366E+03  0.77582099105E+03  0.17200000000E+03 0. -1.
</event>
<event>
 4    1  0.1054668E+000  0.1743359E+03  0.7818608E-02  0.1173400E+00
          2   -1    0    0  502    0  0.00000000000E+00  0.00000000000E+00  0.21436767382E+03  0.21436767382E+03  0.00000000000E+00 0. -1.
         -2   -1    0    0    0  501 -0.00000000000E+00 -0.00000000000E+00 -0.17785966393E+03  0.17785966393E+03  0.00000000000E+00 0.  1.
          6    1    1    2  502    0 -0.25145136533E+02  0.13293891069E+02 -0.70074644491E+02  0.18789215319E+03  0.17200000000E+03 0.  1.
         -6    1    1    2    0  501  0.25145136533E+02 -0.13293891069E+02  0.10658265438E+03  0.20433518455E+03  0.17200000000E+03 0. -1.
</event>
<event>
 4    1  0.1054668E+000  0.2286353E+03  0.7818608E-02  0.1127604E+00
          3   -1    0    0  502    0  0.00000000000E+00  0.00000000000E+00  0.43216625861E+03  0.43216625861E+03  0.00000000000E+00 0.  1.
         -3   -1    0    0    0  501 -0.00000000000E+00 -0.00000000000E+00 -0.17567292182E+03  0.17567292182E+03  0.00000000000E+00 0. -1.
          6    1    1    2  502    0  0.40631331283E+02  0.14504899092E+03 -0.41365813873E+02  0.23234725177E+03  0.17200000000E+03 0. -1.
         -6    1    1    2    0  501 -0.40631331283E+02 -0.14504899092E+03  0.29785915067E+03  0.37549192866E+03  0.17200000000E+03 0.  1.
</event>
<event>
 4    1  0.1054668E+000  0.2260530E+03  0.7818608E-02  0.1129449E+00
          1   -1    0    0  502    0  0.00000000000E+00  0.00000000000E+00  0.10429982425E+04  0.10429982425E+04  0.00000000000E+00 0. -1.
         -1   -1    0    0    0  501 -0.00000000000E+00 -0.00000000000E+00 -0.51081913526E+02  0.51081913526E+02  0.00000000000E+00 0.  1.
          6    1    1    2  502    0 -0.14406683276E+03 -0.27581106761E+02  0.38534413124E+03  0.44675504388E+03  0.17200000000E+03 0.  1.
         -6    1    1    2    0  501  0.14406683276E+03  0.27581106761E+02  0.60657219776E+03  0.64732511217E+03  0.17200000000E+03 0. -1.
</event>
<event>
 4    1  0.1054668E+000  0.2648589E+03  0.7818608E-02  0.1104259E+00
          2   -1    0    0  502    0  0.00000000000E+00  0.00000000000E+00  0.57924525872E+03  0.57924525872E+03  0.00000000000E+00 0.  1.
         -2   -1    0    0    0  501 -0.00000000000E+00 -0.00000000000E+00 -0.12251109890E+03  0.12251109890E+03  0.00000000000E+00 0. -1.
          6    1    1    2  502    0 -0.19873971323E+03  0.32692226580E+02  0.26593994640E+03  0.37533226664E+03  0.17200000000E+03 0.  1.
         -6    1    1    2    0  501  0.19873971323E+03 -0.32692226580E+02  0.19079421343E+03  0.32642409098E+03  0.17200000000E+03 0. -1.
</event>
<event>
 4    1  0.1054668E+000  0.1940278E+03  0.7818608E-02  0.1154878E+00
         -1   -1    0    0    0  501 -0.00000000000E+00  0.00000000000E+00  0.53205344713E+02  0.53205344713E+02  0.00000000000E+00 0. -1.
          1   -1    0    0  502    0  0.00000000000E+00 -0.00000000000E+00 -0.70802249790E+03  0.70802249790E+03  0.00000000000E+00 0.  1.
          6    1    1    2  502    0  0.62085797182E+02 -0.64870145991E+02 -0.31784185841E+03  0.37238451768E+03  0.17200000000E+03 0. -1.
         -6    1    1    2    0  501 -0.62085797182E+02  0.64870145991E+02 -0.33697529478E+03  0.38884332493E+03  0.17200000000E+03 0. -1.
</event>
<event>
 4    1  0.1054668E+000  0.1861582E+03  0.7818608E-02  0.1161973E+00
          1   -1    0    0  502    0  0.00000000000E+00  0.00000000000E+00  0.11926399388E+04  0.11926399388E+04  0.00000000000E+00 0. -1.
         -1   -1    0    0    0  501 -0.00000000000E+00 -0.00000000000E+00 -0.58538995416E+02  0.58538995416E+02  0.00000000000E+00 0.  1.
          6    1    1    2  502    0 -0.70103899754E+02 -0.12502386541E+02  0.10110098234E+04  0.10280057050E+04  0.17200000000E+03 0. -1.
         -6    1    1    2    0  501  0.70103899754E+02  0.12502386541E+02  0.12309111996E+03  0.22317322922E+03  0.17200000000E+03 0.  1.
</event>
<event>
 4    1  0.1054668E+000  0.2557268E+03  0.7818608E-02  0.1109738E+00
         -1   -1    0    0    0  501 -0.00000000000E+00  0.00000000000E+00  0.89860942098E+03  0.89860942098E+03  0.00000000000E+00 0.  1.
          1   -1    0    0  502    0  0.00000000000E+00 -0.00000000000E+00 -0.78283899332E+02  0.78283899332E+02  0.00000000000E+00 0. -1.
          6    1    1    2  502    0 -0.18923352506E+03 -0.16939895579E+01  0.28058875069E+03  0.37963962335E+03  0.17200000000E+03 0. -1.
         -6    1    1    2    0  501  0.18923352506E+03  0.16939895579E+01  0.53973677095E+03  0.59725369695E+03  0.17200000000E+03 0.  1.
</event>
<event>
 4    1  0.1054668E+000  0.3456470E+03  0.7818608E-02  0.1064416E+00
         -2   -1    0    0    0  501 -0.00000000000E+00  0.00000000000E+00  0.87852766947E+02  0.87852766947E+02  0.00000000000E+00 0.  1.
          2   -1    0    0  502    0  0.00000000000E+00 -0.00000000000E+00 -0.16411310247E+04  0.16411310247E+04  0.00000000000E+00 0. -1.
          6    1    1    2  502    0 -0.26696859629E+03 -0.13643918304E+03 -0.11344989702E+04  0.11859847367E+04  0.17200000000E+03 0. -1.
         -6    1    1    2    0  501  0.26696859629E+03  0.13643918304E+03 -0.41877928747E+03  0.54299905496E+03  0.17200000000E+03 0.  1.
</event>
<event>
 4    1  0.1054668E+000  0.3228274E+03  0.7818608E-02  0.1074355E+00
          2   -1    0    0  502    0  0.00000000000E+00  0.00000000000E+00  0.46080457094E+03  0.46080457094E+03  0.00000000000E+00 0.  1.
         -2   -1    0    0    0  501 -0.00000000000E+00 -0.00000000000E+00 -0.23414983569E+03  0.23414983569E+03  0.00000000000E+00 0. -1.
          6    1    1    2  502    0  0.51802129187E+02 -0.26823514518E+03  0.17749718422E+03  0.36840576014E+03  0.17200000000E+03 0. -1.
         -6    1    1    2    0  501 -0.51802129187E+02  0.26823514518E+03  0.49157551033E+02  0.32654864649E+03  0.17200000000E+03 0. -1.
</event>
<event>
 4    1  0.1054668E+000  0.1967724E+03  0.7818608E-02  0.1152491E+00
          2   -1    0    0  502    0  0.00000000000E+00  0.00000000000E+00  0.10014649645E+03  0.10014649645E+03  0.00000000000E+00 0. -1.
         -2   -1    0    0    0  501 -0.00000000000E+00 -0.00000000000E+00 -0.84695691546E+03  0.84695691546E+03  0.00000000000E+00 0.  1.
          6    1    1    2  502    0  0.65178732031E+02 -0.69907982506E+02 -0.72252228689E+03  0.74883766477E+03  0.17200000000E+03 0.  1.
         -6    1    1    2    0  501 -0.65178732031E+02  0.69907982506E+02 -0.24288132122E+02  0.19826574714E+03  0.17200000000E+03 0. -1.
</event>
<event>
 4    1  0.1054668E+000  0.2052610E+03  0.7818608E-02  0.1145375E+00
         -2   -1    0    0    0  501 -0.00000000000E+00  0.00000000000E+00  0.32582991900E+02  0.32582991900E+02  0.00000000000E+00 0.  1.
          2   -1    0    0  502    0  0.00000000000E+00 -0.00000000000E+00 -0.15906406758E+04  0.15906406758E+04  0.00000000000E+00 0. -1.
          6    1    1    2  502    0  0.80585441638E+02 -0.77807884419E+02 -0.42798804072E+03  0.47466392667E+03  0.17200000000E+03 0.  1.
         -6    1    1    2    0  501 -0.80585441638E+02  0.77807884419E+02 -0.11300696432E+04  0.11485597411E+04  0.17200000000E+03 0. -1.
</event>
<event>
 4    1  0.1054668E+000  0.1874540E+03  0.7818608E-02  0.1160778E+00
          1   -1    0    0  502    0  0.00000000000E+00  0.00000000000E+00  0.15519558875E+04  0.15519558875E+04  0.00000000000E+00 0.  1.
         -1   -1    0    0    0  501 -0.00000000000E+00 -0.00000000000E+00 -0.25569778093E+02  0.25569778093E+02  0.00000000000E+00 0. -1.
          6    1    1    2  502    0 -0.67218092439E+02  0.32198003633E+02  0.10301069842E+04  0.10470240601E+04  0.17200000000E+03 0.  1.
         -6    1    1    2    0  501  0.67218092439E+02 -0.32198003633E+02  0.49627912523E+03  0.53050160559E+03  0.17200000000E+03 0. -1.
</event>
<event>
 4    1  0.1054668E+000  0.1817975E+03  0.7818608E-02  0.1166075E+00
         -1   -1    0    0    0  501 -0.00000000000E+00  0.00000000000E+00  0.43662859373E+03  0.43662859373E+03  0.00000000000E+00 0. -1.
          1   -1    0    0  502    0  0.00000000000E+00 -0.00000000000E+00 -0.19391082510E+03  0.19391082510E+03  0.00000000000E+00 0.  1.
          6    1    1    2  502    0  0.47472730487E+02 -0.34823629563E+02  0.36752037065E+03  0.41002630179E+03  0.17200000000E+03 0. -1.
         -6    1    1    2    0  501 -0.47472730487E+02  0.34823629563E+02 -0.12480260203E+03  0.22051311704E+03  0.17200000000E+03 0.  1.
</event>
<event>
 4    1  0.1054668E+000  0.2311794E+03  0.7818608E-02  0.1125812E+00
          1   -1    0    0  502    0  0.00000000000E+00  0.00000000000E+00  0.37506764196E+03  0.37506764196E+03  0.00000000000E+00 0.  1.
         -1   -1    0    0    0  501 -0.00000000000E+00 -0.00000000000E+00 -0.22876765028E+03  0.22876765028E+03  0.00000000000E+00 0. -1.
          6    1    1    2  502    0 -0.44456401028E+02  0.14793091599E+03 -0.11226152975E+03  0.25699528898E+03  0.17200000000E+03 0. -1.
         -6    1    1    2    0  501  0.44456401028E+02 -0.14793091599E+03  0.25856152143E+03  0.34684000326E+03  0.17200000000E+03 0.  1.
</event>
<event>
 4    1  0.1054668E+000  0.2562508E+03  0.7818608E-02  0.1109417E+00
          2   -1    0    0  502    0  0.00000000000E+00  0.00000000000E+00  0.35195135817E+03  0.35195135817E+03  0.00000000000E+00 0. -1.
         -2   -1    0    0    0  501 -0.00000000000E+00 -0.00000000000E+00 -0.22555864832E+03  0.22555864832E+03  0.00000000000E+00 0.  1.
          6    1    1    2  502    0 -0.15816064792E+03 -0.10519348181E+03  0.18324429542E+03  0.31502846057E+03  0.17200000000E+03 0. -1.
         -6    1    1    2    0  501  0.15816064792E+03  0.10519348181E+03 -0.56851585568E+02  0.26248154592E+03  0.17200000000E+03 0.  1.
</event>
<event>
 4    1  0.1054668E+000  0.4208866E+03  0.7818608E-02  0.1036778E+00
         -1   -1    0    0    0  501 -0.00000000000E+00  0.00000000000E+00  0.31350021438E+03  0.31350021438E+03  0.00000000000E+00 0.  1.
          1   -1    0    0  502    0  0.00000000000E+00 -0.00000000000E+00 -0.78828902387E+03  0.78828902387E+03  0.00000000000E+00 0. -1.
          6    1    1    2  502    0  0.98428300977E+02  0.37131307288E+03 -0.53055387041E+03  0.67722443690E+03  0.17200000000E+03 0. -1.
         -6    1    1    2    0  501 -0.98428300977E+02 -0.37131307288E+03  0.55765060920E+02  0.42456480135E+03  0.17200000000E+03 0.  1.
</event>
<event>
 4    1  0.1054668E+000  0.1971744E+03  0.7818608E-02  0.1152145E+00
         -1   -1    0    0    0  501 -0.00000000000E+00  0.00000000000E+00  0.31355413421E+02  0.31355413421E+02  0.00000000000E+00 0. -1.
          1   -1    0    0  502    0  0.00000000000E+00 -0.00000000000E+00 -0.13291503304E+04  0.13291503304E+04  0.00000000000E+00 0.  1.
          6    1    1    2  502    0 -0.54866165449E+01 -0.96247809224E+02 -0.47262871135E+03  0.51210901431E+03  0.17200000000E+03 0.  1.
         -6    1    1    2    0  501  0.54866165449E+01  0.96247809224E+02 -0.82516620564E+03  0.84839672953E+03  0.17200000000E+03 0.  1.
</event>
<event>
 4    1  0.1054668E+000  0.2086420E+03  0.7818608E-02  0.1142646E+00
          1   -1    0    0  502    0  0.00000000000E+00  0.00000000000E+00  0.76264139565E+03  0.76264139565E+03  0.00000000000E+00 0. -1.
         -1   -1    0    0    0  501 -0.00000000000E+00 -0.00000000000E+00 -0.90722065212E+02  0.90722065212E+02  0.00000000000E+00 0.  1.
          6    1    1    2  502    0 -0.77579010246E+02 -0.89044798034E+02  0.59578990035E+03  0.63126625464E+03  0.17200000000E+03 0. -1.
         -6    1    1    2    0  501  0.77579010246E+02  0.89044798034E+02  0.76129430095E+02  0.22209720623E+03  0.17200000000E+03 0.  1.
</event>
<event>
 4    1  0.1054668E+000  0.2478793E+03  0.7818608E-02  0.1114652E+00
          2   -1    0    0  502    0  0.00000000000E+00  0.00000000000E+00  0.30679280148E+04  0.30679280148E+04  0.00000000000E+00 0.  1.
         -2   -1    0    0    0  501 -0.00000000000E+00 -0.00000000000E+00 -0.20331753265E+02  0.20331753265E+02  0.00000000000E+00 0. -1.
          6    1    1    2  502    0 -0.17818606774E+03 -0.10481386146E+02  0.13350279780E+04  0.13578452917E+04  0.17200000000E+03 0.  1.
         -6    1    1    2    0  501  0.17818606774E+03  0.10481386146E+02  0.17125682836E+04  0.17304144764E+04  0.17200000000E+03 0. -1.
</event>
<event>
 4    1  0.1054668E+000  0.2294867E+03  0.7818608E-02  0.1127002E+00
          1   -1    0    0  502    0  0.00000000000E+00  0.00000000000E+00  0.10770222244E+04  0.10770222244E+04  0.00000000000E+00 0. -1.
         -1   -1    0    0    0  501 -0.00000000000E+00 -0.00000000000E+00 -0.51748691820E+02  0.51748691820E+02  0.00000000000E+00 0.  1.
          6    1    1    2  502    0  0.10758295971E+03  0.10726618159E+03  0.64510408473E+03  0.68470680373E+03  0.17200000000E+03 0. -1.
         -6    1    1    2    0  501 -0.10758295971E+03 -0.10726618159E+03  0.38016944789E+03  0.44406411254E+03  0.17200000000E+03 0.  1.
</event>
<event>
 4    1  0.1054668E+000  0.1947183E+03  0.7818608E-02  0.1154273E+00
          2   -1    0    0  502    0  0.00000000000E+00  0.00000000000E+00  0.13009302361E+04  0.13009302361E+04  0.00000000000E+00 0. -1.
         -2   -1    0    0    0  501 -0.00000000000E+00 -0.00000000000E+00 -0.31047230820E+02  0.31047230820E+02  0.00000000000E+00 0.  1.
          6    1    1    2  502    0  0.36026802137E+02 -0.83864657119E+02  0.79980412290E+03  0.82316574649E+03  0.17200000000E+03 0. -1.
         -6    1    1    2    0  501 -0.36026802137E+02  0.83864657119E+02  0.47007888235E+03  0.50881172040E+03  0.17200000000E+03 0.  1.
</event>
<event>
 4    1  0.1054668E+000  0.2225044E+03  0.7818608E-02  0.1132030E+00
         -1   -1    0    0    0  501 -0.00000000000E+00  0.00000000000E+00  0.17158314018E+04  0.17158314018E+04  0.00000000000E+00 0. -1.
          1   -1    0    0  502    0  0.00000000000E+00 -0.00000000000E+00 -0.45563640885E+02  0.45563640885E+02  0.00000000000E+00 0.  1.
          6    1    1    2  502    0 -0.13905314656E+03 -0.24257151109E+02  0.30179377199E+03  0.37495022037E+03  0.17200000000E+03 0.  1.
         -6    1    1    2    0  501  0.13905314656E+03  0.24257151109E+02  0.13684739890E+04  0.13864448224E+04  0.17200000000E+03 0. -1.
</event>
<event>
 4    1  0.1054668E+000  0.1725358E+03  0.7818608E-02  0.1175229E+00
         -2   -1    0    0    0  501 -0.00000000000E+00  0.00000000000E+00  0.14352974574E+02  0.14352974574E+02  0.00000000000E+00 0.  1.
          2   -1    0    0  502    0  0.00000000000E+00 -0.00000000000E+00 -0.20765538673E+04  0.20765538673E+04  0.00000000000E+00 0. -1.
          6    1    1    2  502    0  0.15878099978E+00  0.13586091402E+02 -0.10674938424E+04  0.10813471740E+04  0.17200000000E+03 0. -1.
         -6    1    1    2    0  501 -0.15878099978E+00 -0.13586091402E+02 -0.99470705031E+03  0.10095596679E+04  0.17200000000E+03 0. -1.
</event>
<event>
 4    1  0.1054668E+000  0.2102527E+03  0.7818608E-02  0.1141366E+00
         -2   -1    0    0    0  501 -0.00000000000E+00  0.00000000000E+00  0.11602089681E+03  0.11602089681E+03  0.00000000000E+00 0. -1.
          2   -1    0    0  502    0  0.00000000000E+00 -0.00000000000E+00 -0.39417902453E+03  0.39417902453E+03  0.00000000000E+00 0.  1.
          6    1    1    2  502    0  0.39954377632E+02 -0.11413077272E+03 -0.18569014901E+03  0.28051206215E+03  0.17200000000E+03 0.  1.
         -6    1    1    2    0  501 -0.39954377632E+02  0.11413077272E+03 -0.92467978703E+02  0.22968785919E+03  0.17200000000E+03 0.  1.
</event>
<event>
 4    1  0.1054668E+000  0.1818125E+03  0.7818608E-02  0.1166060E+00
          1   -1    0    0  502    0  0.00000000000E+00  0.00000000000E+00  0.20267703445E+04  0.20267703445E+04  0.00000000000E+00 0. -1.
         -1   -1    0    0    0  501 -0.00000000000E+00 -0.00000000000E+00 -0.33655708361E+02  0.33655708361E+02  0.00000000000E+00 0.  1.
          6    1    1    2  502    0 -0.57361096627E+02 -0.13472340056E+02  0.17361605236E+04  0.17456543653E+04  0.17200000000E+03 0. -1.
         -6    1    1    2    0  501  0.57361096627E+02  0.13472340056E+02  0.25695411260E+03  0.31477168764E+03  0.17200000000E+03 0.  1.
</event>
<event>
 4    1  0.1054668E+000  0.1995315E+03  0.7818608E-02  0.1150135E+00
          2   -1    0    0  502    0  0.00000000000E+00  0.00000000000E+00  0.10327507255E+04  0.10327507255E+04  0.00000000000E+00 0. -1.
         -2   -1    0    0    0  501 -0.00000000000E+00 -0.00000000000E+00 -0.63610679196E+02  0.63610679196E+02  0.00000000000E+00 0.  1.
          6    1    1    2  502    0  0.83818147174E+02 -0.56597947014E+02  0.82864484113E+03  0.85232920995E+03  0.17200000000E+03 0. -1.
         -6    1    1    2    0  501 -0.83818147174E+02  0.56597947014E+02  0.14049520520E+03  0.24403219478E+03  0.17200000000E+03 0.  1.
</event>
<event>
 4    1  0.1054668E+000  0.1740750E+03  0.7818608E-02  0.1173664E+00
         -2   -1    0    0    0  501 -0.00000000000E+00  0.00000000000E+00  0.92000028051E+02  0.92000028051E+02  0.00000000000E+00 0. -1.
          2   -1    0    0  502    0  0.00000000000E+00 -0.00000000000E+00 -0.36977660891E+03  0.36977660891E+03  0.00000000000E+00 0.  1.
          6    1    1    2  502    0  0.25907278464E+02 -0.68497660312E+01 -0.62565347507E+02  0.18497710421E+03  0.17200000000E+03 0. -1.
         -6    1    1    2    0  501 -0.25907278464E+02  0.68497660312E+01 -0.21521123335E+03  0.27679953275E+03  0.17200000000E+03 0. -1.
</event>
<event>
 4    1  0.1054668E+000  0.2022146E+03  0.7818608E-02  0.1147884E+00
         -2   -1    0    0    0  501 -0.00000000000E+00  0.00000000000E+00  0.84165652544E+02  0.84165652544E+02  0.00000000000E+00 0. -1.
          2   -1    0    0  502    0  0.00000000000E+00 -0.00000000000E+00 -0.48645979738E+03  0.48645979738E+03  0.00000000000E+00 0.  1.
          6    1    1    2  502    0  0.41730237321E+01  0.10625116827E+03 -0.21136194388E+03  0.29251426668E+03  0.17200000000E+03 0. -1.
         -6    1    1    2    0  501 -0.41730237321E+01 -0.10625116827E+03 -0.19093220095E+03  0.27811118324E+03  0.17200000000E+03 0. -1.
</event>
<event>
 4    1  0.1054668E+000  0.2452089E+03  0.7818608E-02  0.1116371E+00
         -1   -1    0    0    0  501 -0.00000000000E+00  0.00000000000E+00  0.92011983113E+02  0.92011983113E+02  0.00000000000E+00 0.  1.
          1   -1    0    0  502    0  0.00000000000E+00 -0.00000000000E+00 -0.70534284175E+03  0.70534284175E+03  0.00000000000E+00 0. -1.
          6    1    1    2  502    0 -0.13901592871E+03 -0.10591497877E+03 -0.41477795794E+03  0.48183831890E+03  0.17200000000E+03 0. -1.
         -6    1    1    2    0  501  0.13901592871E+03  0.10591497877E+03 -0.19855290069E+03  0.31551650596E+03  0.17200000000E+03 0.  1.
</event>
<event>
 4    1  0.1054668E+000  0.1914424E+03  0.7818608E-02  0.1157167E+00
         -2   -1    0    0    0  501 -0.00000000000E+00  0.00000000000E+00  0.29271655279E+03  0.29271655279E+03  0.00000000000E+00 0. -1.
          2   -1    0    0  502    0  0.00000000000E+00 -0.00000000000E+00 -0.12582485682E+03  0.12582485682E+03  0.00000000000E+00 0.  1.
          6    1    1    2  502    0  0.66250947369E+02  0.51739604494E+02  0.68781822843E+02  0.20342348403E+03  0.17200000000E+03 0.  1.
         -6    1    1    2    0  501 -0.66250947369E+02 -0.51739604494E+02  0.98109873127E+02  0.21511792558E+03  0.17200000000E+03 0. -1.
</event>
<event>
 4    1  0.1054668E+000  0.1864891E+03  0.7818608E-02  0.1161667E+00
          1   -1    0    0  502    0  0.00000000000E+00  0.00000000000E+00  0.10365518342E+04  0.10365518342E+04  0.00000000000E+00 0. -1.
         -1   -1    0    0    0  501 -0.00000000000E+00 -0.00000000000E+00 -0.42109056418E+02  0.42109056418E+02  0.00000000000E+00 0.  1.
          6    1    1    2  502    0 -0.25388182323E+02  0.67450843807E+02  0.74034914701E+03  0.76347562869E+03  0.17200000000E+03 0.  1.
         -6    1    1    2    0  501  0.25388182323E+02 -0.67450843807E+02  0.25409363074E+03  0.31518526190E+03  0.17200000000E+03 0.  1.
</event>
<event>
 4    1  0.1054668E+000  0.2097504E+03  0.7818608E-02  0.1141764E+00
         -2   -1    0    0    0  501 -0.00000000000E+00  0.00000000000E+00  0.16006212846E+03  0.16006212846E+03  0.00000000000E+00 0. -1.
          2   -1    0    0  502    0  0.00000000000E+00 -0.00000000000E+00 -0.48313745140E+03  0.48313745140E+03  0.00000000000E+00 0.  1.
          6    1    1    2  502    0 -0.11431548152E+03  0.36649645804E+02  0.49615677972E+02  0.21553872356E+03  0.17200000000E+03 0. -1.
         -6    1    1    2    0  501  0.11431548152E+03 -0.36649645804E+02 -0.37269100092E+03  0.42766085630E+03  0.17200000000E+03 0.  1.
</event>
<event>
 4    1  0.1054668E+000  0.1984953E+03  0.7818608E-02  0.1151015E+00
         -2   -1    0    0    0  501 -0.00000000000E+00  0.00000000000E+00  0.54363325499E+02  0.54363325499E+02  0.00000000000E+00 0. -1.
          2   -1    0    0  502    0  0.00000000000E+00 -0.00000000000E+00 -0.73027760712E+03  0.73027760712E+03  0.00000000000E+00 0.  1.
          6    1    1    2  502    0  0.98162812394E+02  0.13432496060E+02 -0.37205821731E+03  0.42169620197E+03  0.17200000000E+03 0. -1.
         -6    1    1    2    0  501 -0.98162812394E+02 -0.13432496060E+02 -0.30385606432E+03  0.36294473065E+03  0.17200000000E+03 0.  1.
</event>
<event>
 4    1  0.1054668E+000  0.1811856E+03  0.7818608E-02  0.1166661E+00
         -2   -1    0    0    0  501 -0.00000000000E+00  0.00000000000E+00  0.23662638083E+03  0.23662638083E+03  0.00000000000E+00 0.  1.
          2   -1    0    0  502    0  0.00000000000E+00 -0.00000000000E+00 -0.14408425414E+03  0.14408425414E+03  0.00000000000E+00 0. -1.
          6    1    1    2  502    0 -0.14465637097E+02 -0.55090595051E+02  0.82950792357E+02  0.19927132827E+03  0.17200000000E+03 0. -1.
         -6    1    1    2    0  501  0.14465637097E+02  0.55090595051E+02  0.95913343297E+01  0.18143930669E+03  0.17200000000E+03 0. -1.
</event>
<event>
 4    1  0.1054668E+000  0.1932203E+03  0.7818608E-02  0.1155588E+00
          2   -1    0    0  502    0  0.00000000000E+00  0.00000000000E+00  0.13870905785E+04  0.13870905785E+04  0.00000000000E+00 0. -1.
         -2   -1    0    0    0  501 -0.00000000000E+00 -0.00000000000E+00 -0.15177345512E+03  0.15177345512E+03  0.00000000000E+00 0.  1.
          6    1    1    2  502    0 -0.81498352235E+02 -0.33288304582E+02  0.13155383691E+04  0.13296523205E+04  0.17200000000E+03 0. -1.
         -6    1    1    2    0  501  0.81498352235E+02  0.33288304582E+02 -0.80221245780E+02  0.20921171314E+03  0.17200000000E+03 0.  1.
</event>
<event>
 4    1  0.1054668E+000  0.2379038E+03  0.7818608E-02  0.1121197E+00
         -2   -1    0    0    0  501 -0.00000000000E+00  0.00000000000E+00  0.16848371454E+03  0.16848371454E+03  0.00000000000E+00 0.  1.
          2   -1    0    0  502    0  0.00000000000E+00 -0.00000000000E+00 -0.59828104570E+03  0.59828104570E+03  0.00000000000E+00 0. -1.
          6    1    1    2  502    0  0.11044733096E+03 -0.12171928642E+03  0.38978454549E+02  0.24107575059E+03  0.17200000000E+03 0.  1.
         -6    1    1    2    0  501 -0.11044733096E+03  0.12171928642E+03 -0.46877578570E+03  0.52568900965E+03  0.17200000000E+03 0. -1.
</event>
<event>
 4    1  0.1054668E+000  0.2410800E+03  0.7818608E-02  0.1119075E+00
         -1   -1    0    0    0  501 -0.00000000000E+00  0.00000000000E+00  0.10708265813E+03  0.10708265813E+03  0.00000000000E+00 0.  1.
          1   -1    0    0  502    0  0.00000000000E+00 -0.00000000000E+00 -0.83794072719E+03  0.83794072719E+03  0.00000000000E+00 0. -1.
          6    1    1    2  502    0 -0.16482486453E+03 -0.36991072787E+02 -0.64587815794E+03  0.68940421404E+03  0.17200000000E+03 0. -1.
         -6    1    1    2    0  501  0.16482486453E+03  0.36991072787E+02 -0.84979911111E+02  0.25561917128E+03  0.17200000000E+03 0.  1.
</event>
<event>
 4    1  0.1054668E+000  0.2008020E+03  0.7818608E-02  0.1149064E+00
         -1   -1    0    0    0  501 -0.00000000000E+00  0.00000000000E+00  0.32427325103E+02  0.32427325103E+02  0.00000000000E+00 0.  1.
          1   -1    0    0  502    0  0.00000000000E+00 -0.00000000000E+00 -0.22815059706E+04  0.22815059706E+04  0.00000000000E+00 0. -1.
          6    1    1    2  502    0 -0.93425603634E+02  0.44823030774E+02 -0.34413005309E+03  0.39843059740E+03  0.17200000000E+03 0.  1.
         -6    1    1    2    0  501  0.93425603634E+02 -0.44823030774E+02 -0.19049485924E+04  0.19155026983E+04  0.17200000000E+03 0. -1.
</event>
<event>
 4    1  0.1054668E+000  0.2250610E+03  0.7818608E-02  0.1130165E+00
         -1   -1    0    0    0  501 -0.00000000000E+00  0.00000000000E+00  0.18417518546E+03  0.18417518546E+03  0.00000000000E+00 0.  1.
          1   -1    0    0  502    0  0.00000000000E+00 -0.00000000000E+00 -0.27796830246E+03  0.27796830246E+03  0.00000000000E+00 0. -1.
          6    1    1    2  502    0  0.20236058493E+02 -0.14373222469E+03 -0.70681317971E+02  0.23589891731E+03  0.17200000000E+03 0. -1.
         -6    1    1    2    0  501 -0.20236058493E+02  0.14373222469E+03 -0.23111799034E+02  0.22624457061E+03  0.17200000000E+03 0. -1.
</event>
<event>
 4    1  0.1054668E+000  0.1900682E+03  0.7818608E-02  0.1158400E+00
          2   -1    0    0  502    0  0.00000000000E+00  0.00000000000E+00  0.47124382510E+03  0.47124382510E+03  0.00000000000E+00 0.  1.
         -2   -1    0    0    0  501 -0.00000000000E+00 -0.00000000000E+00 -0.93198879462E+02  0.93198879462E+02  0.00000000000E+00 0. -1.
          6    1    1    2  502    0 -0.71018645911E+02 -0.38707719913E+02  0.30790741875E+03  0.36184653400E+03  0.17200000000E+03 0.  1.
         -6    1    1    2    0  501  0.71018645911E+02  0.38707719913E+02  0.70137526889E+02  0.20259617056E+03  0.17200000000E+03 0. -1.
</event>
<event>
 4    1  0.1054668E+000  0.1868533E+03  0.7818608E-02  0.1161330E+00
         -3   -1    0    0    0  501 -0.00000000000E+00  0.00000000000E+00  0.20166247679E+03  0.20166247679E+03  0.00000000000E+00 0. -1.
          3   -1    0    0  502    0  0.00000000000E+00 -0.00000000000E+00 -0.19668009080E+03  0.19668009080E+03  0.00000000000E+00 0.  1.
          6    1    1    2  502    0  0.61620541948E+01 -0.72747291015E+02 -0.66426134535E+02  0.19830928019E+03  0.17200000000E+03 0.  1.
         -6    1    1    2    0  501 -0.61620541948E+01  0.72747291015E+02  0.71408520525E+02  0.20003328739E+03  0.17200000000E+03 0. -1.
</event>
<event>
 4    1  0.1054668E+000  0.1798745E+03  0.7818608E-02  0.1167925E+00
         -2   -1    0    0    0  501 -0.00000000000E+00  0.00000000000E+00  0.41011179687E+02  0.41011179687E+02  0.00000000000E+00 0.  1.
          2   -1    0    0  502    0  0.00000000000E+00 -0.00000000000E+00 -0.79684560123E+03  0.79684560123E+03  0.00000000000E+00 0. -1.
          6    1    1    2  502    0 -0.27057683785E+02 -0.45152185969E+02 -0.33615634863E+03  0.38125572635E+03  0.17200000000E+03 0. -1.
         -6    1    1    2    0  501  0.27057683785E+02  0.45152185969E+02 -0.41967807291E+03  0.45660105457E+03  0.17200000000E+03 0. -1.
</event>
<event>
 4    1  0.1054668E+000  0.1995575E+03  0.7818608E-02  0.1150113E+00
          2   -1    0    0  502    0  0.00000000000E+00  0.00000000000E+00  0.28237511555E+03  0.28237511555E+03  0.00000000000E+00 0. -1.
         -2   -1    0    0    0  501 -0.00000000000E+00 -0.00000000000E+00 -0.17892956424E+03  0.17892956424E+03  0.00000000000E+00 0.  1.
          6    1    1    2  502    0 -0.68121002253E+02 -0.74824728664E+02  0.15787693038E+03  0.25445694354E+03  0.17200000000E+03 0. -1.
         -6    1    1    2    0  501  0.68121002253E+02  0.74824728664E+02 -0.54431379073E+02  0.20684773626E+03  0.17200000000E+03 0.  1.
</event>
<event>
 4    1  0.1054668E+000  0.2035643E+03  0.7818608E-02  0.1146766E+00
          2   -1    0    0  502    0  0.00000000000E+00  0.00000000000E+00  0.25189318471E+04  0.25189318471E+04  0.00000000000E+00 0.  1.
         -2   -1    0    0    0  501 -0.00000000000E+00 -0.00000000000E+00 -0.16566076225E+02  0.16566076225E+02  0.00000000000E+00 0. -1.
          6    1    1    2  502    0 -0.10394874030E+03 -0.32389302415E+02  0.13569426827E+04  0.13721267623E+04  0.17200000000E+03 0.  1.
         -6    1    1    2    0  501  0.10394874030E+03  0.32389302415E+02  0.11454230882E+04  0.11633711611E+04  0.17200000000E+03 0. -1.
</event>
<event>
 4    1  0.1054668E+000  0.3524569E+03  0.7818608E-02  0.1061611E+00
          3   -1    0    0  502    0  0.00000000000E+00  0.00000000000E+00  0.16653949982E+04  0.16653949982E+04  0.00000000000E+00 0. -1.
         -3   -1    0    0    0  501 -0.00000000000E+00 -0.00000000000E+00 -0.94894325131E+02  0.94894325131E+02  0.00000000000E+00 0.  1.
          6    1    1    2  502    0  0.21642258728E+03 -0.21863931834E+03  0.37814944943E+03  0.51693606366E+03  0.17200000000E+03 0. -1.
         -6    1    1    2    0  501 -0.21642258728E+03  0.21863931834E+03  0.11923512237E+04  0.12433532597E+04  0.17200000000E+03 0. -1.
</event>
<event>
 4    1  0.1054668E+000  0.2328311E+03  0.7818608E-02  0.1124663E+00
          2   -1    0    0  502    0  0.00000000000E+00  0.00000000000E+00  0.86749937794E+03  0.86749937794E+03  0.00000000000E+00 0.  1.
         -2   -1    0    0    0  501 -0.00000000000E+00 -0.00000000000E+00 -0.62706888509E+02  0.62706888509E+02  0.00000000000E+00 0. -1.
          6    1    1    2  502    0 -0.15250910553E+03  0.36976975432E+02  0.42972862418E+03  0.48875046232E+03  0.17200000000E+03 0.  1.
         -6    1    1    2    0  501  0.15250910553E+03 -0.36976975432E+02  0.37506386525E+03  0.44145580413E+03  0.17200000000E+03 0. -1.
</event>
