<event>
 4    1  0.4336176E+000  0.2131556E+03  0.7546771E-02  0.1139091E+00
         21   -1    0    0  501  502  0.00000000000E+00  0.00000000000E+00  0.13810809068E+04  0.13810809068E+04  0.00000000000E+00 0. -1.
         21   -1    0    0  502  503 -0.00000000000E+00 -0.00000000000E+00 -0.33183050225E+02  0.33183050225E+02  0.00000000000E+00 0.  1.
          6    1    1    2  501    0 -0.11651559619E+03 -0.43936758600E+02  0.73944484337E+03  0.76955441607E+03  0.17300000000E+03 0.  1.
         -6    1    1    2    0  503  0.11651559619E+03  0.43936758600E+02  0.60845301317E+03  0.64470954091E+03  0.17300000000E+03 0.  1.
<mgrwt>
<rscale>  2 0.21315563E+03</rscale>
<asrwt>0</asrwt>
<pdfrwt beam="1">  1       21 0.21247394E+00 0.21315563E+03</pdfrwt>
<pdfrwt beam="2">  1       21 0.51050857E-02 0.21315563E+03</pdfrwt>
<totfact> 0.28646846E+04</totfact>
</mgrwt>
</event>
<event>
 4    1  0.4336176E+000  0.1948601E+03  0.7546771E-02  0.1154149E+00
         21   -1    0    0  501  502  0.00000000000E+00  0.00000000000E+00  0.18158863216E+03  0.18158863216E+03  0.00000000000E+00 0. -1.
         21   -1    0    0  502  503 -0.00000000000E+00 -0.00000000000E+00 -0.30606333756E+03  0.30606333756E+03  0.00000000000E+00 0. -1.
          6    1    1    2  501    0 -0.81132801416E+02  0.38196089586E+02  0.75000696731E+02  0.20879553931E+03  0.17300000000E+03 0. -1.
         -6    1    1    2    0  503  0.81132801416E+02 -0.38196089586E+02 -0.19947540213E+03  0.27885643041E+03  0.17300000000E+03 0. -1.
<mgrwt>
<rscale>  2 0.19486014E+03</rscale>
<asrwt>0</asrwt>
<pdfrwt beam="1">  1       21 0.27936713E-01 0.19486014E+03</pdfrwt>
<pdfrwt beam="2">  1       21 0.47086667E-01 0.19486014E+03</pdfrwt>
<totfact> 0.52763086E+04</totfact>
</mgrwt>
</event>
<event>
 4    1  0.4336176E+000  0.2080762E+03  0.7546771E-02  0.1143099E+00
         21   -1    0    0  503  502  0.00000000000E+00  0.00000000000E+00  0.27819279522E+03  0.27819279522E+03  0.00000000000E+00 0.  1.
         21   -1    0    0  501  503 -0.00000000000E+00 -0.00000000000E+00 -0.15624978174E+03  0.15624978174E+03  0.00000000000E+00 0.  1.
          6    1    1    2  501    0 -0.61804676286E+02  0.97708270292E+02  0.74629319677E+02  0.22105487882E+03  0.17300000000E+03 0.  1.
         -6    1    1    2    0  502  0.61804676286E+02 -0.97708270292E+02  0.47313693802E+02  0.21338769813E+03  0.17300000000E+03 0.  1.
<mgrwt>
<rscale>  2 0.20807625E+03</rscale>
<asrwt>0</asrwt>
<pdfrwt beam="1">  1       21 0.42798891E-01 0.20807625E+03</pdfrwt>
<pdfrwt beam="2">  1       21 0.24038428E-01 0.20807625E+03</pdfrwt>
<totfact> 0.85149598E+04</totfact>
</mgrwt>
</event>
<event>
 4    1  0.4336176E+000  0.1776590E+03  0.7546771E-02  0.1170088E+00
         21   -1    0    0  503  502  0.00000000000E+00  0.00000000000E+00  0.15825861261E+03  0.15825861261E+03  0.00000000000E+00 0.  1.
         21   -1    0    0  501  503 -0.00000000000E+00 -0.00000000000E+00 -0.44356537821E+03  0.44356537821E+03  0.00000000000E+00 0. -1.
          6    1    1    2  501    0  0.39039117267E+02 -0.10471396889E+02 -0.36589202080E+03  0.40674276111E+03  0.17300000000E+03 0. -1.
         -6    1    1    2    0  502 -0.39039117267E+02  0.10471396889E+02  0.80585255200E+02  0.19508122971E+03  0.17300000000E+03 0.  1.
<mgrwt>
<rscale>  2 0.17765895E+03</rscale>
<asrwt>0</asrwt>
<pdfrwt beam="1">  1       21 0.24347479E-01 0.17765895E+03</pdfrwt>
<pdfrwt beam="2">  1       21 0.68240827E-01 0.17765895E+03</pdfrwt>
<totfact> 0.31471585E+04</totfact>
</mgrwt>
</event>
<event>
 4    1  0.4336176E+000  0.2169048E+03  0.7546771E-02  0.1136212E+00
         21   -1    0    0  501  502  0.00000000000E+00  0.00000000000E+00  0.73314801084E+02  0.73314801084E+02  0.00000000000E+00 0.  1.
         21   -1    0    0  502  503 -0.00000000000E+00 -0.00000000000E+00 -0.71929601349E+03  0.71929601349E+03  0.00000000000E+00 0. -1.
          6    1    1    2  501    0 -0.63461065050E+02 -0.11441768595E+03 -0.19284348239E+03  0.29023494334E+03  0.17300000000E+03 0.  1.
         -6    1    1    2    0  503  0.63461065050E+02  0.11441768595E+03 -0.45313773002E+03  0.50237587124E+03  0.17300000000E+03 0. -1.
<mgrwt>
<rscale>  2 0.21690485E+03</rscale>
<asrwt>0</asrwt>
<pdfrwt beam="1">  1       21 0.11279200E-01 0.21690485E+03</pdfrwt>
<pdfrwt beam="2">  1       21 0.11066093E+00 0.21690485E+03</pdfrwt>
<totfact> 0.41650284E+04</totfact>
</mgrwt>
</event>
<event>
 4    1  0.4336176E+000  0.1734268E+03  0.7546771E-02  0.1174321E+00
         21   -1    0    0  503  502  0.00000000000E+00  0.00000000000E+00  0.10594359860E+03  0.10594359860E+03  0.00000000000E+00 0. -1.
         21   -1    0    0  501  503 -0.00000000000E+00 -0.00000000000E+00 -0.29692919609E+03  0.29692919609E+03  0.00000000000E+00 0. -1.
          6    1    1    2  501    0 -0.95259027228E+01  0.75577855167E+01 -0.13769672253E+03  0.22144356017E+03  0.17300000000E+03 0.  1.
         -6    1    1    2    0  502  0.95259027228E+01 -0.75577855167E+01 -0.53288874955E+02  0.18142923452E+03  0.17300000000E+03 0.  1.
<mgrwt>
<rscale>  2 0.17342682E+03</rscale>
<asrwt>0</asrwt>
<pdfrwt beam="1">  1       21 0.16299015E-01 0.17342682E+03</pdfrwt>
<pdfrwt beam="2">  1       21 0.45681414E-01 0.17342682E+03</pdfrwt>
<totfact> 0.15582342E+05</totfact>
</mgrwt>
</event>
<event>
 4    1  0.4336176E+000  0.2335785E+03  0.7546771E-02  0.1124146E+00
         21   -1    0    0  501  502  0.00000000000E+00  0.00000000000E+00  0.39099161252E+03  0.39099161252E+03  0.00000000000E+00 0. -1.
         21   -1    0    0  502  503 -0.00000000000E+00 -0.00000000000E+00 -0.14136947434E+03  0.14136947434E+03  0.00000000000E+00 0.  1.
          6    1    1    2  501    0 -0.24833603940E+02  0.15496200241E+03  0.94529829568E+02  0.25198178258E+03  0.17300000000E+03 0.  1.
         -6    1    1    2    0  503  0.24833603940E+02 -0.15496200241E+03  0.15509230862E+03  0.28037930428E+03  0.17300000000E+03 0. -1.
<mgrwt>
<rscale>  2 0.23357853E+03</rscale>
<asrwt>0</asrwt>
<pdfrwt beam="1">  1       21 0.60152555E-01 0.23357853E+03</pdfrwt>
<pdfrwt beam="2">  1       21 0.21749150E-01 0.23357853E+03</pdfrwt>
<totfact> 0.49876457E+04</totfact>
</mgrwt>
</event>
<event>
 4    1  0.4336176E+000  0.2485705E+03  0.7546771E-02  0.1114212E+00
         21   -1    0    0  501  502  0.00000000000E+00  0.00000000000E+00  0.14482679443E+04  0.14482679443E+04  0.00000000000E+00 0.  1.
         21   -1    0    0  502  503 -0.00000000000E+00 -0.00000000000E+00 -0.60417229928E+02  0.60417229928E+02  0.00000000000E+00 0.  1.
          6    1    1    2  501    0 -0.10246227331E+03  0.14614990256E+03  0.11028472448E+04  0.11305128734E+04  0.17300000000E+03 0.  1.
         -6    1    1    2    0  503  0.10246227331E+03 -0.14614990256E+03  0.28500346955E+03  0.37817230085E+03  0.17300000000E+03 0.  1.
<mgrwt>
<rscale>  2 0.24857054E+03</rscale>
<asrwt>0</asrwt>
<pdfrwt beam="1">  1       21 0.22281043E+00 0.24857054E+03</pdfrwt>
<pdfrwt beam="2">  1       21 0.92949596E-02 0.24857054E+03</pdfrwt>
<totfact> 0.85266699E+03</totfact>
</mgrwt>
</event>
<event>
 4    1  0.4336176E+000  0.1764588E+03  0.7546771E-02  0.1171275E+00
         21   -1    0    0  503  502  0.00000000000E+00  0.00000000000E+00  0.25562572038E+02  0.25562572038E+02  0.00000000000E+00 0.  1.
         21   -1    0    0  501  503 -0.00000000000E+00 -0.00000000000E+00 -0.12189591726E+04  0.12189591726E+04  0.00000000000E+00 0.  1.
          6    1    1    2  501    0  0.26803982284E+02 -0.22141886652E+02 -0.61323829900E+03  0.63812140535E+03  0.17300000000E+03 0. -1.
         -6    1    1    2    0  502 -0.26803982284E+02  0.22141886652E+02 -0.58015830153E+03  0.60640033925E+03  0.17300000000E+03 0. -1.
<mgrwt>
<rscale>  2 0.17645882E+03</rscale>
<asrwt>0</asrwt>
<pdfrwt beam="1">  1       21 0.39327027E-02 0.17645882E+03</pdfrwt>
<pdfrwt beam="2">  1       21 0.18753221E+00 0.17645882E+03</pdfrwt>
<totfact> 0.65928392E+04</totfact>
</mgrwt>
</event>
<event>
 4    1  0.4336176E+000  0.2005667E+03  0.7546771E-02  0.1149262E+00
         21   -1    0    0  503  502  0.00000000000E+00  0.00000000000E+00  0.38896190886E+03  0.38896190886E+03  0.00000000000E+00 0.  1.
         21   -1    0    0  501  503 -0.00000000000E+00 -0.00000000000E+00 -0.13830925080E+03  0.13830925080E+03  0.00000000000E+00 0. -1.
          6    1    1    2  501    0  0.26450914548E+02 -0.97971131237E+02 -0.70820238035E+01  0.20069167521E+03  0.17300000000E+03 0. -1.
         -6    1    1    2    0  502 -0.26450914548E+02  0.97971131237E+02  0.25773468186E+03  0.32657948446E+03  0.17300000000E+03 0.  1.
<mgrwt>
<rscale>  2 0.20056668E+03</rscale>
<asrwt>0</asrwt>
<pdfrwt beam="1">  1       21 0.59840293E-01 0.20056668E+03</pdfrwt>
<pdfrwt beam="2">  1       21 0.21278346E-01 0.20056668E+03</pdfrwt>
<totfact> 0.53359166E+04</totfact>
</mgrwt>
</event>
<event>
 4    1  0.4336176E+000  0.2590737E+03  0.7546771E-02  0.1107701E+00
         21   -1    0    0  501  502  0.00000000000E+00  0.00000000000E+00  0.38495029851E+03  0.38495029851E+03  0.00000000000E+00 0. -1.
         21   -1    0    0  502  503 -0.00000000000E+00 -0.00000000000E+00 -0.17467407247E+03  0.17467407247E+03  0.00000000000E+00 0.  1.
          6    1    1    2  501    0  0.13086471432E+02  0.19240303985E+03  0.11703977630E+03  0.28428417950E+03  0.17300000000E+03 0. -1.
         -6    1    1    2    0  503 -0.13086471432E+02 -0.19240303985E+03  0.93236449739E+02  0.27534019147E+03  0.17300000000E+03 0.  1.
<mgrwt>
<rscale>  2 0.25907371E+03</rscale>
<asrwt>0</asrwt>
<pdfrwt beam="1">  1       21 0.59223123E-01 0.25907371E+03</pdfrwt>
<pdfrwt beam="2">  1       21 0.26872934E-01 0.25907371E+03</pdfrwt>
<totfact> 0.34041929E+04</totfact>
</mgrwt>
</event>
<event>
 4    1  0.4336176E+000  0.1972773E+03  0.7546771E-02  0.1152057E+00
         21   -1    0    0  503  502  0.00000000000E+00  0.00000000000E+00  0.12275972633E+02  0.12275972633E+02  0.00000000000E+00 0.  1.
         21   -1    0    0  501  503 -0.00000000000E+00 -0.00000000000E+00 -0.32747793060E+04  0.32747793060E+04  0.00000000000E+00 0.  1.
          6    1    1    2  501    0  0.89220556259E+02 -0.32078561017E+02 -0.19248344889E+04  0.19349176084E+04  0.17300000000E+03 0.  1.
         -6    1    1    2    0  502 -0.89220556259E+02  0.32078561017E+02 -0.13376688445E+04  0.13521376703E+04  0.17300000000E+03 0.  1.
<mgrwt>
<rscale>  2 0.19727732E+03</rscale>
<asrwt>0</asrwt>
<pdfrwt beam="1">  1       21 0.18886103E-02 0.19727732E+03</pdfrwt>
<pdfrwt beam="2">  1       21 0.50381244E+00 0.19727732E+03</pdfrwt>
<totfact> 0.23876525E+03</totfact>
</mgrwt>
</event>
<event>
 4    1  0.4336176E+000  0.1770939E+03  0.7546771E-02  0.1170646E+00
         21   -1    0    0  503  502  0.00000000000E+00  0.00000000000E+00  0.13079590989E+03  0.13079590989E+03  0.00000000000E+00 0.  1.
         21   -1    0    0  501  503 -0.00000000000E+00 -0.00000000000E+00 -0.14048797594E+04  0.14048797594E+04  0.00000000000E+00 0.  1.
          6    1    1    2  501    0 -0.37772753449E+02  0.25467868429E+01 -0.13362902784E+04  0.13479740262E+04  0.17300000000E+03 0.  1.
         -6    1    1    2    0  502  0.37772753449E+02 -0.25467868429E+01  0.62206428926E+02  0.18770164311E+03  0.17300000000E+03 0.  1.
<mgrwt>
<rscale>  2 0.17709395E+03</rscale>
<asrwt>0</asrwt>
<pdfrwt beam="1">  1       21 0.20122447E-01 0.17709395E+03</pdfrwt>
<pdfrwt beam="2">  1       21 0.21613536E+00 0.17709395E+03</pdfrwt>
<totfact> 0.24664618E+03</totfact>
</mgrwt>
</event>
<event>
 4    1  0.4336176E+000  0.1783780E+03  0.7546771E-02  0.1169382E+00
         21   -1    0    0  503  502  0.00000000000E+00  0.00000000000E+00  0.41712138854E+03  0.41712138854E+03  0.00000000000E+00 0. -1.
         21   -1    0    0  501  503 -0.00000000000E+00 -0.00000000000E+00 -0.81693402514E+02  0.81693402514E+02  0.00000000000E+00 0. -1.
          6    1    1    2  501    0  0.36861251103E+02  0.23042639908E+02  0.10352152186E+03  0.20624117090E+03  0.17300000000E+03 0. -1.
         -6    1    1    2    0  502 -0.36861251103E+02 -0.23042639908E+02  0.23190646417E+03  0.29257362015E+03  0.17300000000E+03 0. -1.
<mgrwt>
<rscale>  2 0.17837801E+03</rscale>
<asrwt>0</asrwt>
<pdfrwt beam="1">  1       21 0.64172520E-01 0.17837801E+03</pdfrwt>
<pdfrwt beam="2">  1       21 0.12568216E-01 0.17837801E+03</pdfrwt>
<totfact> 0.12167021E+05</totfact>
</mgrwt>
</event>
<event>
 4    1  0.4336176E+000  0.1993161E+03  0.7546771E-02  0.1150317E+00
         21   -1    0    0  501  502  0.00000000000E+00  0.00000000000E+00  0.14791532317E+03  0.14791532317E+03  0.00000000000E+00 0. -1.
         21   -1    0    0  502  503 -0.00000000000E+00 -0.00000000000E+00 -0.28460929366E+03  0.28460929366E+03  0.00000000000E+00 0. -1.
          6    1    1    2  501    0  0.98723456251E+02  0.71833751081E+01 -0.17021910677E+02  0.20004166350E+03  0.17300000000E+03 0. -1.
         -6    1    1    2    0  503 -0.98723456251E+02 -0.71833751081E+01 -0.11967205981E+03  0.23248295334E+03  0.17300000000E+03 0. -1.
<mgrwt>
<rscale>  2 0.19931614E+03</rscale>
<asrwt>0</asrwt>
<pdfrwt beam="1">  1       21 0.22756204E-01 0.19931614E+03</pdfrwt>
<pdfrwt beam="2">  1       21 0.43786045E-01 0.19931614E+03</pdfrwt>
<totfact> 0.90513781E+04</totfact>
</mgrwt>
</event>
<event>
 4    1  0.4336176E+000  0.3197375E+03  0.7546771E-02  0.1075770E+00
         21   -1    0    0  503  502  0.00000000000E+00  0.00000000000E+00  0.47948442090E+03  0.47948442090E+03  0.00000000000E+00 0. -1.
         21   -1    0    0  501  503 -0.00000000000E+00 -0.00000000000E+00 -0.63632559953E+03  0.63632559953E+03  0.00000000000E+00 0.  1.
          6    1    1    2  501    0  0.40158683390E+02  0.26587651205E+03 -0.53335504903E+03  0.62185178929E+03  0.17300000000E+03 0.  1.
         -6    1    1    2    0  502 -0.40158683390E+02 -0.26587651205E+03  0.37651387040E+03  0.49395823114E+03  0.17300000000E+03 0. -1.
<mgrwt>
<rscale>  2 0.31973745E+03</rscale>
<asrwt>0</asrwt>
<pdfrwt beam="1">  1       21 0.73766834E-01 0.31973745E+03</pdfrwt>
<pdfrwt beam="2">  1       21 0.97896246E-01 0.31973745E+03</pdfrwt>
<totfact> 0.12946035E+03</totfact>
</mgrwt>
</event>
<event>
 4    1  0.4336176E+000  0.2089020E+03  0.7546771E-02  0.1142438E+00
         21   -1    0    0  501  502  0.00000000000E+00  0.00000000000E+00  0.13317199981E+04  0.13317199981E+04  0.00000000000E+00 0.  1.
         21   -1    0    0  502  503 -0.00000000000E+00 -0.00000000000E+00 -0.33372135386E+02  0.33372135386E+02  0.00000000000E+00 0. -1.
          6    1    1    2  501    0  0.37351241647E+02 -0.11097720819E+03  0.74087989881E+03  0.76976819917E+03  0.17300000000E+03 0.  1.
         -6    1    1    2    0  503 -0.37351241647E+02  0.11097720819E+03  0.55746796388E+03  0.59532393429E+03  0.17300000000E+03 0. -1.
<mgrwt>
<rscale>  2 0.20890202E+03</rscale>
<asrwt>0</asrwt>
<pdfrwt beam="1">  1       21 0.20487996E+00 0.20890202E+03</pdfrwt>
<pdfrwt beam="2">  1       21 0.51341757E-02 0.20890202E+03</pdfrwt>
<totfact> 0.31775300E+04</totfact>
</mgrwt>
</event>
<event>
 4    1  0.4336176E+000  0.2098817E+03  0.7546771E-02  0.1141660E+00
         21   -1    0    0  503  502  0.00000000000E+00  0.00000000000E+00  0.37178951931E+02  0.37178951931E+02  0.00000000000E+00 0.  1.
         21   -1    0    0  501  503 -0.00000000000E+00 -0.00000000000E+00 -0.22749768494E+04  0.22749768494E+04  0.00000000000E+00 0. -1.
          6    1    1    2  501    0  0.80048231965E+02 -0.87827204257E+02 -0.19191813298E+04  0.19306235557E+04  0.17300000000E+03 0. -1.
         -6    1    1    2    0  502 -0.80048231965E+02  0.87827204257E+02 -0.31861656767E+03  0.38153224561E+03  0.17300000000E+03 0.  1.
<mgrwt>
<rscale>  2 0.20988172E+03</rscale>
<asrwt>0</asrwt>
<pdfrwt beam="1">  1       21 0.57198381E-02 0.20988172E+03</pdfrwt>
<pdfrwt beam="2">  1       21 0.34999648E+00 0.20988172E+03</pdfrwt>
<totfact> 0.36618596E+03</totfact>
</mgrwt>
</event>
<event>
 4    1  0.4336176E+000  0.2144438E+03  0.7546771E-02  0.1138095E+00
         21   -1    0    0  501  502  0.00000000000E+00  0.00000000000E+00  0.36278974132E+03  0.36278974132E+03  0.00000000000E+00 0. -1.
         21   -1    0    0  502  503 -0.00000000000E+00 -0.00000000000E+00 -0.13753594183E+03  0.13753594183E+03  0.00000000000E+00 0.  1.
          6    1    1    2  501    0  0.25969338371E+02 -0.12402709474E+03  0.18266001661E+03  0.28169275538E+03  0.17300000000E+03 0.  1.
         -6    1    1    2    0  503 -0.25969338371E+02  0.12402709474E+03  0.42593782872E+02  0.21863292777E+03  0.17300000000E+03 0.  1.
<mgrwt>
<rscale>  2 0.21444376E+03</rscale>
<asrwt>0</asrwt>
<pdfrwt beam="1">  1       21 0.55813806E-01 0.21444376E+03</pdfrwt>
<pdfrwt beam="2">  1       21 0.21159376E-01 0.21444376E+03</pdfrwt>
<totfact> 0.62183752E+04</totfact>
</mgrwt>
</event>
<event>
 4    1  0.4336176E+000  0.2226312E+03  0.7546771E-02  0.1131936E+00
         21   -1    0    0  501  502  0.00000000000E+00  0.00000000000E+00  0.96007995546E+02  0.96007995546E+02  0.00000000000E+00 0.  1.
         21   -1    0    0  502  503 -0.00000000000E+00 -0.00000000000E+00 -0.52028651179E+03  0.52028651179E+03  0.00000000000E+00 0.  1.
          6    1    1    2  501    0  0.11436113335E+03  0.80976488467E+02 -0.23926248646E+03  0.32681982488E+03  0.17300000000E+03 0.  1.
         -6    1    1    2    0  503 -0.11436113335E+03 -0.80976488467E+02 -0.18501602979E+03  0.28947468246E+03  0.17300000000E+03 0.  1.
<mgrwt>
<rscale>  2 0.22263122E+03</rscale>
<asrwt>0</asrwt>
<pdfrwt beam="1">  1       21 0.14770461E-01 0.22263122E+03</pdfrwt>
<pdfrwt beam="2">  1       21 0.80044079E-01 0.22263122E+03</pdfrwt>
<totfact> 0.54639396E+04</totfact>
</mgrwt>
</event>
<event>
 4    1  0.4336176E+000  0.2141238E+03  0.7546771E-02  0.1138341E+00
         21   -1    0    0  501  502  0.00000000000E+00  0.00000000000E+00  0.25317439189E+02  0.25317439189E+02  0.00000000000E+00 0.  1.
         21   -1    0    0  502  503 -0.00000000000E+00 -0.00000000000E+00 -0.18162312988E+04  0.18162312988E+04  0.00000000000E+00 0.  1.
          6    1    1    2  501    0 -0.11231785160E+03  0.57486552114E+02 -0.84587668549E+03  0.87255737377E+03  0.17300000000E+03 0.  1.
         -6    1    1    2    0  503  0.11231785160E+03 -0.57486552114E+02 -0.94503717410E+03  0.96899136420E+03  0.17300000000E+03 0.  1.
<mgrwt>
<rscale>  2 0.21412380E+03</rscale>
<asrwt>0</asrwt>
<pdfrwt beam="1">  1       21 0.38949915E-02 0.21412380E+03</pdfrwt>
<pdfrwt beam="2">  1       21 0.27942014E+00 0.21412380E+03</pdfrwt>
<totfact> 0.18013144E+04</totfact>
</mgrwt>
</event>
<event>
 4    1  0.4336176E+000  0.1807646E+03  0.7546771E-02  0.1167065E+00
         21   -1    0    0  503  502  0.00000000000E+00  0.00000000000E+00  0.11502189735E+03  0.11502189735E+03  0.00000000000E+00 0.  1.
         21   -1    0    0  501  503 -0.00000000000E+00 -0.00000000000E+00 -0.37238405847E+03  0.37238405847E+03  0.00000000000E+00 0.  1.
          6    1    1    2  501    0  0.50409011447E+02  0.14345270896E+02 -0.24735255422E+03  0.30636439302E+03  0.17300000000E+03 0.  1.
         -6    1    1    2    0  502 -0.50409011447E+02 -0.14345270896E+02 -0.10009606901E+02  0.18104156280E+03  0.17300000000E+03 0.  1.
<mgrwt>
<rscale>  2 0.18076464E+03</rscale>
<asrwt>0</asrwt>
<pdfrwt beam="1">  1       21 0.17695676E-01 0.18076464E+03</pdfrwt>
<pdfrwt beam="2">  1       21 0.57289856E-01 0.18076464E+03</pdfrwt>
<totfact> 0.83280643E+04</totfact>
</mgrwt>
</event>
<event>
 4    1  0.4336176E+000  0.1916152E+03  0.7546771E-02  0.1157013E+00
         21   -1    0    0  501  502  0.00000000000E+00  0.00000000000E+00  0.57018099684E+03  0.57018099684E+03  0.00000000000E+00 0. -1.
         21   -1    0    0  502  503 -0.00000000000E+00 -0.00000000000E+00 -0.73140799303E+02  0.73140799303E+02  0.00000000000E+00 0. -1.
          6    1    1    2  501    0  0.31314942142E+02  0.76202124410E+02  0.35975377314E+03  0.40760172553E+03  0.17300000000E+03 0. -1.
         -6    1    1    2    0  503 -0.31314942142E+02 -0.76202124410E+02  0.13728642439E+03  0.23572007061E+03  0.17300000000E+03 0. -1.
<mgrwt>
<rscale>  2 0.19161521E+03</rscale>
<asrwt>0</asrwt>
<pdfrwt beam="1">  1       21 0.87720151E-01 0.19161521E+03</pdfrwt>
<pdfrwt beam="2">  1       21 0.11252431E-01 0.19161521E+03</pdfrwt>
<totfact> 0.73406704E+04</totfact>
</mgrwt>
</event>
<event>
 4    1  0.4336176E+000  0.2077675E+03  0.7546771E-02  0.1143346E+00
         21   -1    0    0  501  502  0.00000000000E+00  0.00000000000E+00  0.16552958627E+03  0.16552958627E+03  0.00000000000E+00 0.  1.
         21   -1    0    0  502  503 -0.00000000000E+00 -0.00000000000E+00 -0.41850168829E+03  0.41850168829E+03  0.00000000000E+00 0. -1.
          6    1    1    2  501    0 -0.15989441423E+02 -0.11394148556E+03  0.52780347745E+02  0.21436671728E+03  0.17300000000E+03 0.  1.
         -6    1    1    2    0  503  0.15989441423E+02  0.11394148556E+03 -0.30575244977E+03  0.36966455728E+03  0.17300000000E+03 0.  1.
<mgrwt>
<rscale>  2 0.20776748E+03</rscale>
<asrwt>0</asrwt>
<pdfrwt beam="1">  1       21 0.25466091E-01 0.20776748E+03</pdfrwt>
<pdfrwt beam="2">  1       21 0.64384874E-01 0.20776748E+03</pdfrwt>
<totfact> 0.32267719E+04</totfact>
</mgrwt>
</event>
<event>
 4    1  0.4336176E+000  0.2135858E+03  0.7546771E-02  0.1138758E+00
         21   -1    0    0  501  502  0.00000000000E+00  0.00000000000E+00  0.14255391307E+03  0.14255391307E+03  0.00000000000E+00 0. -1.
         21   -1    0    0  502  503 -0.00000000000E+00 -0.00000000000E+00 -0.59257444771E+03  0.59257444771E+03  0.00000000000E+00 0.  1.
          6    1    1    2  501    0 -0.12172975068E+03 -0.29525316200E+02  0.24274197682E+02  0.21496072471E+03  0.17300000000E+03 0. -1.
         -6    1    1    2    0  503  0.12172975068E+03  0.29525316200E+02 -0.47429473232E+03  0.52016763606E+03  0.17300000000E+03 0.  1.
<mgrwt>
<rscale>  2 0.21358576E+03</rscale>
<asrwt>0</asrwt>
<pdfrwt beam="1">  1       21 0.21931371E-01 0.21358576E+03</pdfrwt>
<pdfrwt beam="2">  1       21 0.91165300E-01 0.21358576E+03</pdfrwt>
<totfact> 0.19550082E+04</totfact>
</mgrwt>
</event>
<event>
 4    1  0.4336176E+000  0.2139593E+03  0.7546771E-02  0.1138468E+00
         21   -1    0    0  501  502  0.00000000000E+00  0.00000000000E+00  0.28758755037E+02  0.28758755037E+02  0.00000000000E+00 0.  1.
         21   -1    0    0  502  503 -0.00000000000E+00 -0.00000000000E+00 -0.16838363649E+04  0.16838363649E+04  0.00000000000E+00 0.  1.
          6    1    1    2  501    0 -0.81710154252E+02 -0.95776034450E+02 -0.62735879565E+03  0.66284059664E+03  0.17300000000E+03 0.  1.
         -6    1    1    2    0  503  0.81710154252E+02  0.95776034450E+02 -0.10277188142E+04  0.10497545233E+04  0.17300000000E+03 0.  1.
<mgrwt>
<rscale>  2 0.21395934E+03</rscale>
<asrwt>0</asrwt>
<pdfrwt beam="1">  1       21 0.44244224E-02 0.21395934E+03</pdfrwt>
<pdfrwt beam="2">  1       21 0.25905183E+00 0.21395934E+03</pdfrwt>
<totfact> 0.19108238E+04</totfact>
</mgrwt>
</event>
<event>
 4    1  0.4336176E+000  0.1970141E+03  0.7546771E-02  0.1152283E+00
         21   -1    0    0  503  502  0.00000000000E+00  0.00000000000E+00  0.22346241255E+03  0.22346241255E+03  0.00000000000E+00 0.  1.
         21   -1    0    0  501  503 -0.00000000000E+00 -0.00000000000E+00 -0.17498476106E+03  0.17498476106E+03  0.00000000000E+00 0.  1.
          6    1    1    2  501    0  0.89157052475E+02  0.30603367471E+02  0.41335537704E+02  0.20130368299E+03  0.17300000000E+03 0.  1.
         -6    1    1    2    0  502 -0.89157052475E+02 -0.30603367471E+02  0.71421137844E+01  0.19714349063E+03  0.17300000000E+03 0.  1.
<mgrwt>
<rscale>  2 0.19701408E+03</rscale>
<asrwt>0</asrwt>
<pdfrwt beam="1">  1       21 0.34378833E-01 0.19701408E+03</pdfrwt>
<pdfrwt beam="2">  1       21 0.26920733E-01 0.19701408E+03</pdfrwt>
<totfact> 0.10698758E+05</totfact>
</mgrwt>
</event>
<event>
 4    1  0.4336176E+000  0.2568208E+03  0.7546771E-02  0.1109069E+00
         21   -1    0    0  501  502  0.00000000000E+00  0.00000000000E+00  0.10046070219E+03  0.10046070219E+03  0.00000000000E+00 0. -1.
         21   -1    0    0  502  503 -0.00000000000E+00 -0.00000000000E+00 -0.66450564263E+03  0.66450564263E+03  0.00000000000E+00 0. -1.
          6    1    1    2  501    0  0.11065999452E+03 -0.15421514773E+03 -0.32388678588E+03  0.41335166172E+03  0.17300000000E+03 0. -1.
         -6    1    1    2    0  503 -0.11065999452E+03  0.15421514773E+03 -0.24015815456E+03  0.35161468311E+03  0.17300000000E+03 0. -1.
<mgrwt>
<rscale>  2 0.25682084E+03</rscale>
<asrwt>0</asrwt>
<pdfrwt beam="1">  1       21 0.15455492E-01 0.25682084E+03</pdfrwt>
<pdfrwt beam="2">  1       21 0.10223164E+00 0.25682084E+03</pdfrwt>
<totfact> 0.27979319E+04</totfact>
</mgrwt>
</event>
<event>
 4    1  0.4336176E+000  0.2316319E+03  0.7546771E-02  0.1125496E+00
         21   -1    0    0  501  502  0.00000000000E+00  0.00000000000E+00  0.12564957699E+04  0.12564957699E+04  0.00000000000E+00 0.  1.
         21   -1    0    0  502  503 -0.00000000000E+00 -0.00000000000E+00 -0.47188350257E+02  0.47188350257E+02  0.00000000000E+00 0.  1.
          6    1    1    2  501    0 -0.79106022592E+02 -0.13216125490E+03  0.40363790626E+03  0.46537825419E+03  0.17300000000E+03 0.  1.
         -6    1    1    2    0  503  0.79106022592E+02  0.13216125490E+03  0.80566951338E+03  0.83830586596E+03  0.17300000000E+03 0.  1.
<mgrwt>
<rscale>  2 0.23163195E+03</rscale>
<asrwt>0</asrwt>
<pdfrwt beam="1">  1       21 0.19330702E+00 0.23163195E+03</pdfrwt>
<pdfrwt beam="2">  1       21 0.72597471E-02 0.23163195E+03</pdfrwt>
<totfact> 0.20503394E+04</totfact>
</mgrwt>
</event>
<event>
 4    1  0.4336176E+000  0.2261405E+03  0.7546771E-02  0.1129386E+00
         21   -1    0    0  503  502  0.00000000000E+00  0.00000000000E+00  0.44435871229E+02  0.44435871229E+02  0.00000000000E+00 0.  1.
         21   -1    0    0  501  503 -0.00000000000E+00 -0.00000000000E+00 -0.12202818912E+04  0.12202818912E+04  0.00000000000E+00 0.  1.
          6    1    1    2  501    0 -0.11957357899E+03 -0.83142523502E+02 -0.73874963445E+03  0.77258691577E+03  0.17300000000E+03 0.  1.
         -6    1    1    2    0  502  0.11957357899E+03  0.83142523502E+02 -0.43709638554E+03  0.49213084669E+03  0.17300000000E+03 0.  1.
<mgrwt>
<rscale>  2 0.22614049E+03</rscale>
<asrwt>0</asrwt>
<pdfrwt beam="1">  1       21 0.68362880E-02 0.22614049E+03</pdfrwt>
<pdfrwt beam="2">  1       21 0.18773567E+00 0.22614049E+03</pdfrwt>
<totfact> 0.24866045E+04</totfact>
</mgrwt>
</event>
<event>
 4    1  0.4336176E+000  0.1902884E+03  0.7546771E-02  0.1158202E+00
         21   -1    0    0  501  502  0.00000000000E+00  0.00000000000E+00  0.35886077607E+02  0.35886077607E+02  0.00000000000E+00 0. -1.
         21   -1    0    0  502  503 -0.00000000000E+00 -0.00000000000E+00 -0.10350373461E+04  0.10350373461E+04  0.00000000000E+00 0. -1.
          6    1    1    2  501    0 -0.64267531526E+02  0.46371822485E+02 -0.41467574142E+03  0.45625172006E+03  0.17300000000E+03 0. -1.
         -6    1    1    2    0  503  0.64267531526E+02 -0.46371822485E+02 -0.58447552712E+03  0.61467170370E+03  0.17300000000E+03 0. -1.
<mgrwt>
<rscale>  2 0.19028836E+03</rscale>
<asrwt>0</asrwt>
<pdfrwt beam="1">  1       21 0.55209346E-02 0.19028836E+03</pdfrwt>
<pdfrwt beam="2">  1       21 0.15923653E+00 0.19028836E+03</pdfrwt>
<totfact> 0.58026391E+04</totfact>
</mgrwt>
</event>
<event>
 4    1  0.4336176E+000  0.3456345E+03  0.7546771E-02  0.1064421E+00
         21   -1    0    0  503  502  0.00000000000E+00  0.00000000000E+00  0.13810590545E+04  0.13810590545E+04  0.00000000000E+00 0.  1.
         21   -1    0    0  501  503 -0.00000000000E+00 -0.00000000000E+00 -0.13079033337E+03  0.13079033337E+03  0.00000000000E+00 0.  1.
          6    1    1    2  501    0  0.10290335394E+03 -0.28097173574E+03  0.18524903501E+03  0.39214846871E+03  0.17300000000E+03 0.  1.
         -6    1    1    2    0  502 -0.10290335394E+03  0.28097173574E+03  0.10650196861E+04  0.11197009192E+04  0.17300000000E+03 0.  1.
<mgrwt>
<rscale>  2 0.34563451E+03</rscale>
<asrwt>0</asrwt>
<pdfrwt beam="1">  1       21 0.21247061E+00 0.34563451E+03</pdfrwt>
<pdfrwt beam="2">  1       21 0.20121591E-01 0.34563451E+03</pdfrwt>
<totfact> 0.22707403E+03</totfact>
</mgrwt>
</event>
<event>
 4    1  0.4336176E+000  0.1740337E+03  0.7546771E-02  0.1173705E+00
         21   -1    0    0  503  502  0.00000000000E+00  0.00000000000E+00  0.60284634433E+03  0.60284634433E+03  0.00000000000E+00 0. -1.
         21   -1    0    0  501  503 -0.00000000000E+00 -0.00000000000E+00 -0.89272629661E+02  0.89272629661E+02  0.00000000000E+00 0. -1.
          6    1    1    2  501    0 -0.42043118615E+01  0.18467296877E+02  0.27964273677E+02  0.17626604294E+03  0.17300000000E+03 0. -1.
         -6    1    1    2    0  502  0.42043118615E+01 -0.18467296877E+02  0.48560944099E+03  0.51585293105E+03  0.17300000000E+03 0. -1.
<mgrwt>
<rscale>  2 0.17403367E+03</rscale>
<asrwt>0</asrwt>
<pdfrwt beam="1">  1       21 0.92745589E-01 0.17403367E+03</pdfrwt>
<pdfrwt beam="2">  1       21 0.13734251E-01 0.17403367E+03</pdfrwt>
<totfact> 0.45534482E+04</totfact>
</mgrwt>
</event>
<event>
 4    1  0.4336176E+000  0.1773693E+03  0.7546771E-02  0.1170374E+00
         21   -1    0    0  501  502  0.00000000000E+00  0.00000000000E+00  0.12871679703E+04  0.12871679703E+04  0.00000000000E+00 0.  1.
         21   -1    0    0  502  503 -0.00000000000E+00 -0.00000000000E+00 -0.24833618746E+02  0.24833618746E+02  0.00000000000E+00 0.  1.
          6    1    1    2  501    0  0.38704032640E+02 -0.57332549755E+01  0.54869946742E+03  0.57665499036E+03  0.17300000000E+03 0.  1.
         -6    1    1    2    0  503 -0.38704032640E+02  0.57332549755E+01  0.71363488416E+03  0.73534659872E+03  0.17300000000E+03 0.  1.
<mgrwt>
<rscale>  2 0.17736931E+03</rscale>
<asrwt>0</asrwt>
<pdfrwt beam="1">  1       21 0.19802579E+00 0.17736931E+03</pdfrwt>
<pdfrwt beam="2">  1       21 0.38205577E-02 0.17736931E+03</pdfrwt>
<totfact> 0.59077852E+04</totfact>
</mgrwt>
</event>
<event>
 4    1  0.4336176E+000  0.2330474E+03  0.7546771E-02  0.1124513E+00
         21   -1    0    0  501  502  0.00000000000E+00  0.00000000000E+00  0.74536179269E+03  0.74536179269E+03  0.00000000000E+00 0. -1.
         21   -1    0    0  502  503 -0.00000000000E+00 -0.00000000000E+00 -0.88037028933E+02  0.88037028933E+02  0.00000000000E+00 0. -1.
          6    1    1    2  501    0  0.12420724139E+03  0.94629062572E+02  0.50164642822E+03  0.55313672563E+03  0.17300000000E+03 0. -1.
         -6    1    1    2    0  503 -0.12420724139E+03 -0.94629062572E+02  0.15567833554E+03  0.28026209600E+03  0.17300000000E+03 0. -1.
<mgrwt>
<rscale>  2 0.23304742E+03</rscale>
<asrwt>0</asrwt>
<pdfrwt beam="1">  1       21 0.11467104E+00 0.23304742E+03</pdfrwt>
<pdfrwt beam="2">  1       21 0.13544159E-01 0.23304742E+03</pdfrwt>
<totfact> 0.27242078E+04</totfact>
</mgrwt>
</event>
<event>
 4    1  0.4336176E+000  0.1952748E+03  0.7546771E-02  0.1153788E+00
         21   -1    0    0  501  502  0.00000000000E+00  0.00000000000E+00  0.11926201037E+03  0.11926201037E+03  0.00000000000E+00 0.  1.
         21   -1    0    0  502  503 -0.00000000000E+00 -0.00000000000E+00 -0.48484422908E+03  0.48484422908E+03  0.00000000000E+00 0.  1.
          6    1    1    2  501    0 -0.38342196366E+02 -0.82055618443E+02 -0.65254221091E+01  0.19538380095E+03  0.17300000000E+03 0.  1.
         -6    1    1    2    0  503  0.38342196366E+02  0.82055618443E+02 -0.35905679661E+03  0.40872243850E+03  0.17300000000E+03 0.  1.
<mgrwt>
<rscale>  2 0.19527480E+03</rscale>
<asrwt>0</asrwt>
<pdfrwt beam="1">  1       21 0.18348002E-01 0.19527480E+03</pdfrwt>
<pdfrwt beam="2">  1       21 0.74591420E-01 0.19527480E+03</pdfrwt>
<totfact> 0.43555571E+04</totfact>
</mgrwt>
</event>
<event>
 4    1  0.4336176E+000  0.2125697E+03  0.7546771E-02  0.1139547E+00
         21   -1    0    0  503  502  0.00000000000E+00  0.00000000000E+00  0.36243841858E+03  0.36243841858E+03  0.00000000000E+00 0. -1.
         21   -1    0    0  501  503 -0.00000000000E+00 -0.00000000000E+00 -0.17207473280E+03  0.17207473280E+03  0.00000000000E+00 0. -1.
          6    1    1    2  501    0  0.12293391714E+03 -0.12006088314E+02 -0.45090450076E+02  0.21729943127E+03  0.17300000000E+03 0. -1.
         -6    1    1    2    0  502 -0.12293391714E+03  0.12006088314E+02  0.23545413585E+03  0.31721372011E+03  0.17300000000E+03 0. -1.
<mgrwt>
<rscale>  2 0.21256974E+03</rscale>
<asrwt>0</asrwt>
<pdfrwt beam="1">  1       21 0.55759757E-01 0.21256974E+03</pdfrwt>
<pdfrwt beam="2">  1       21 0.26473036E-01 0.21256974E+03</pdfrwt>
<totfact> 0.40714091E+04</totfact>
</mgrwt>
</event>
<event>
 4    1  0.4336176E+000  0.1776938E+03  0.7546771E-02  0.1170054E+00
         21   -1    0    0  501  502  0.00000000000E+00  0.00000000000E+00  0.46207009834E+03  0.46207009834E+03  0.00000000000E+00 0. -1.
         21   -1    0    0  502  503 -0.00000000000E+00 -0.00000000000E+00 -0.88023755078E+02  0.88023755078E+02  0.00000000000E+00 0. -1.
          6    1    1    2  501    0  0.80630277422E+01  0.39762541183E+02  0.31710829359E+03  0.36350067670E+03  0.17300000000E+03 0. -1.
         -6    1    1    2    0  503 -0.80630277422E+01 -0.39762541183E+02  0.56938049674E+02  0.18659317672E+03  0.17300000000E+03 0. -1.
<mgrwt>
<rscale>  2 0.17769376E+03</rscale>
<asrwt>0</asrwt>
<pdfrwt beam="1">  1       21 0.71087706E-01 0.17769376E+03</pdfrwt>
<pdfrwt beam="2">  1       21 0.13542116E-01 0.17769376E+03</pdfrwt>
<totfact> 0.85088339E+04</totfact>
</mgrwt>
</event>
<event>
 4    1  0.4336176E+000  0.2010870E+03  0.7546771E-02  0.1148825E+00
         21   -1    0    0  503  502  0.00000000000E+00  0.00000000000E+00  0.47178138905E+03  0.47178138905E+03  0.00000000000E+00 0. -1.
         21   -1    0    0  501  503 -0.00000000000E+00 -0.00000000000E+00 -0.92216768591E+02  0.92216768591E+02  0.00000000000E+00 0.  1.
          6    1    1    2  501    0 -0.78946193991E+02  0.65379593300E+02  0.11487003069E+03  0.23158393018E+03  0.17300000000E+03 0.  1.
         -6    1    1    2    0  502  0.78946193991E+02 -0.65379593300E+02  0.26469458977E+03  0.33241422746E+03  0.17300000000E+03 0. -1.
<mgrwt>
<rscale>  2 0.20108703E+03</rscale>
<asrwt>0</asrwt>
<pdfrwt beam="1">  1       21 0.72581751E-01 0.20108703E+03</pdfrwt>
<pdfrwt beam="2">  1       21 0.14187195E-01 0.20108703E+03</pdfrwt>
<totfact> 0.73955258E+04</totfact>
</mgrwt>
</event>
<event>
 4    1  0.4336176E+000  0.2257551E+03  0.7546771E-02  0.1129664E+00
         21   -1    0    0  501  502  0.00000000000E+00  0.00000000000E+00  0.37641325689E+03  0.37641325689E+03  0.00000000000E+00 0.  1.
         21   -1    0    0  502  503 -0.00000000000E+00 -0.00000000000E+00 -0.15509041095E+03  0.15509041095E+03  0.00000000000E+00 0.  1.
          6    1    1    2  501    0  0.13824231142E+03  0.43879591287E+02  0.20535935093E+03  0.30518489185E+03  0.17300000000E+03 0.  1.
         -6    1    1    2    0  503 -0.13824231142E+03 -0.43879591287E+02  0.15963495012E+02  0.22631877600E+03  0.17300000000E+03 0.  1.
<mgrwt>
<rscale>  2 0.22575508E+03</rscale>
<asrwt>0</asrwt>
<pdfrwt beam="1">  1       21 0.57909732E-01 0.22575508E+03</pdfrwt>
<pdfrwt beam="2">  1       21 0.23860063E-01 0.22575508E+03</pdfrwt>
<totfact> 0.45548547E+04</totfact>
</mgrwt>
</event>
<event>
 4    1  0.4336176E+000  0.1752073E+03  0.7546771E-02  0.1172524E+00
         21   -1    0    0  503  502  0.00000000000E+00  0.00000000000E+00  0.15376449838E+03  0.15376449838E+03  0.00000000000E+00 0. -1.
         21   -1    0    0  501  503 -0.00000000000E+00 -0.00000000000E+00 -0.62539087116E+03  0.62539087116E+03  0.00000000000E+00 0. -1.
          6    1    1    2  501    0  0.39966186888E+01 -0.27434248388E+02 -0.55725017861E+03  0.58414499271E+03  0.17300000000E+03 0. -1.
         -6    1    1    2    0  502 -0.39966186888E+01  0.27434248388E+02  0.85623805835E+02  0.19501037683E+03  0.17300000000E+03 0. -1.
<mgrwt>
<rscale>  2 0.17520734E+03</rscale>
<asrwt>0</asrwt>
<pdfrwt beam="1">  1       21 0.23656077E-01 0.17520734E+03</pdfrwt>
<pdfrwt beam="2">  1       21 0.96213979E-01 0.17520734E+03</pdfrwt>
<totfact> 0.15305326E+04</totfact>
</mgrwt>
</event>
<event>
 4    1  0.4336176E+000  0.2020923E+03  0.7546771E-02  0.1147986E+00
         21   -1    0    0  501  502  0.00000000000E+00  0.00000000000E+00  0.53279495994E+03  0.53279495994E+03  0.00000000000E+00 0. -1.
         21   -1    0    0  502  503 -0.00000000000E+00 -0.00000000000E+00 -0.18716284084E+03  0.18716284084E+03  0.00000000000E+00 0. -1.
          6    1    1    2  501    0 -0.77241976345E+02  0.70327657399E+02  0.44942367336E+03  0.49277067738E+03  0.17300000000E+03 0. -1.
         -6    1    1    2    0  503  0.77241976345E+02 -0.70327657399E+02 -0.10379155425E+03  0.22718712340E+03  0.17300000000E+03 0. -1.
<mgrwt>
<rscale>  2 0.20209231E+03</rscale>
<asrwt>0</asrwt>
<pdfrwt beam="1">  1       21 0.81968455E-01 0.20209231E+03</pdfrwt>
<pdfrwt beam="2">  1       21 0.28794283E-01 0.20209231E+03</pdfrwt>
<totfact> 0.14931086E+04</totfact>
</mgrwt>
</event>
<event>
 4    1  0.4336176E+000  0.2576331E+03  0.7546771E-02  0.1108574E+00
         21   -1    0    0  503  502  0.00000000000E+00  0.00000000000E+00  0.53374330471E+03  0.53374330471E+03  0.00000000000E+00 0.  1.
         21   -1    0    0  501  503 -0.00000000000E+00 -0.00000000000E+00 -0.12518724316E+03  0.12518724316E+03  0.00000000000E+00 0.  1.
          6    1    1    2  501    0 -0.18922244213E+03 -0.25311491816E+02  0.17744998147E+03  0.31283110483E+03  0.17300000000E+03 0.  1.
         -6    1    1    2    0  502  0.18922244213E+03  0.25311491816E+02  0.23110608008E+03  0.34609944304E+03  0.17300000000E+03 0.  1.
<mgrwt>
<rscale>  2 0.25763308E+03</rscale>
<asrwt>0</asrwt>
<pdfrwt beam="1">  1       21 0.82114353E-01 0.25763308E+03</pdfrwt>
<pdfrwt beam="2">  1       21 0.19259576E-01 0.25763308E+03</pdfrwt>
<totfact> 0.31083024E+04</totfact>
</mgrwt>
</event>
<event>
 4    1  0.4336176E+000  0.1833926E+03  0.7546771E-02  0.1164559E+00
         21   -1    0    0  503  502  0.00000000000E+00  0.00000000000E+00  0.17469839581E+03  0.17469839581E+03  0.00000000000E+00 0. -1.
         21   -1    0    0  501  503 -0.00000000000E+00 -0.00000000000E+00 -0.19966740743E+03  0.19966740743E+03  0.00000000000E+00 0. -1.
          6    1    1    2  501    0 -0.39234399364E+01  0.60732614992E+02 -0.47900768072E+02  0.18954505398E+03  0.17300000000E+03 0. -1.
         -6    1    1    2    0  502  0.39234399364E+01 -0.60732614992E+02  0.22931756444E+02  0.18482074926E+03  0.17300000000E+03 0. -1.
<mgrwt>
<rscale>  2 0.18339260E+03</rscale>
<asrwt>0</asrwt>
<pdfrwt beam="1">  1       21 0.26876676E-01 0.18339260E+03</pdfrwt>
<pdfrwt beam="2">  1       21 0.30718063E-01 0.18339260E+03</pdfrwt>
<totfact> 0.13457799E+05</totfact>
</mgrwt>
</event>
<event>
 4    1  0.4336176E+000  0.2111898E+03  0.7546771E-02  0.1140627E+00
         21   -1    0    0  503  502  0.00000000000E+00  0.00000000000E+00  0.52424421682E+02  0.52424421682E+02  0.00000000000E+00 0.  1.
         21   -1    0    0  501  503 -0.00000000000E+00 -0.00000000000E+00 -0.90069940706E+03  0.90069940706E+03  0.00000000000E+00 0. -1.
          6    1    1    2  501    0  0.11257022572E+03 -0.44722423811E+02 -0.53634075067E+03  0.57642219921E+03  0.17300000000E+03 0.  1.
         -6    1    1    2    0  502 -0.11257022572E+03  0.44722423811E+02 -0.31193423471E+03  0.37670162954E+03  0.17300000000E+03 0.  1.
<mgrwt>
<rscale>  2 0.21118985E+03</rscale>
<asrwt>0</asrwt>
<pdfrwt beam="1">  1       21 0.80652956E-02 0.21118985E+03</pdfrwt>
<pdfrwt beam="2">  1       21 0.13856914E+00 0.21118985E+03</pdfrwt>
<totfact> 0.43023298E+04</totfact>
</mgrwt>
</event>
<event>
 4    1  0.4336176E+000  0.2103058E+03  0.7546771E-02  0.1141324E+00
         21   -1    0    0  503  502  0.00000000000E+00  0.00000000000E+00  0.75012206364E+03  0.75012206364E+03  0.00000000000E+00 0.  1.
         21   -1    0    0  501  503 -0.00000000000E+00 -0.00000000000E+00 -0.63264246866E+02  0.63264246866E+02  0.00000000000E+00 0.  1.
          6    1    1    2  501    0  0.27867185887E+02 -0.11628815809E+03  0.23736990108E+03  0.31713244189E+03  0.17300000000E+03 0.  1.
         -6    1    1    2    0  502 -0.27867185887E+02  0.11628815809E+03  0.44948791570E+03  0.49625386862E+03  0.17300000000E+03 0.  1.
<mgrwt>
<rscale>  2 0.21030577E+03</rscale>
<asrwt>0</asrwt>
<pdfrwt beam="1">  1       21 0.11540339E+00 0.21030577E+03</pdfrwt>
<pdfrwt beam="2">  1       21 0.97329616E-02 0.21030577E+03</pdfrwt>
<totfact> 0.49020527E+04</totfact>
</mgrwt>
</event>
<event>
 4    1  0.4336176E+000  0.1861932E+03  0.7546771E-02  0.1161940E+00
         21   -1    0    0  503  502  0.00000000000E+00  0.00000000000E+00  0.18954517182E+03  0.18954517182E+03  0.00000000000E+00 0.  1.
         21   -1    0    0  501  503 -0.00000000000E+00 -0.00000000000E+00 -0.18703072649E+03  0.18703072649E+03  0.00000000000E+00 0.  1.
          6    1    1    2  501    0  0.67406555667E+02 -0.13973688308E+02 -0.26723098644E+02  0.18810112098E+03  0.17300000000E+03 0.  1.
         -6    1    1    2    0  502 -0.67406555667E+02  0.13973688308E+02  0.29237543970E+02  0.18847477733E+03  0.17300000000E+03 0.  1.
<mgrwt>
<rscale>  2 0.18619320E+03</rscale>
<asrwt>0</asrwt>
<pdfrwt beam="1">  1       21 0.29160796E-01 0.18619320E+03</pdfrwt>
<pdfrwt beam="2">  1       21 0.28773958E-01 0.18619320E+03</pdfrwt>
<totfact> 0.13042656E+05</totfact>
</mgrwt>
</event>
<event>
 4    1  0.4336176E+000  0.1758036E+03  0.7546771E-02  0.1171927E+00
         21   -1    0    0  501  502  0.00000000000E+00  0.00000000000E+00  0.13717965350E+04  0.13717965350E+04  0.00000000000E+00 0.  1.
         21   -1    0    0  502  503 -0.00000000000E+00 -0.00000000000E+00 -0.24845569557E+02  0.24845569557E+02  0.00000000000E+00 0.  1.
          6    1    1    2  501    0  0.17634773775E+02  0.25824695375E+02  0.88665104062E+03  0.90391203553E+03  0.17300000000E+03 0.  1.
         -6    1    1    2    0  503 -0.17634773775E+02 -0.25824695375E+02  0.46029992485E+03  0.49273006906E+03  0.17300000000E+03 0.  1.
<mgrwt>
<rscale>  2 0.17580358E+03</rscale>
<asrwt>0</asrwt>
<pdfrwt beam="1">  1       21 0.21104556E+00 0.17580358E+03</pdfrwt>
<pdfrwt beam="2">  1       21 0.38223964E-02 0.17580358E+03</pdfrwt>
<totfact> 0.48898663E+04</totfact>
</mgrwt>
</event>
<event>
 4    1  0.4336176E+000  0.1965352E+03  0.7546771E-02  0.1152696E+00
         21   -1    0    0  501  502  0.00000000000E+00  0.00000000000E+00  0.29663855670E+03  0.29663855670E+03  0.00000000000E+00 0.  1.
         21   -1    0    0  502  503 -0.00000000000E+00 -0.00000000000E+00 -0.51413370209E+03  0.51413370209E+03  0.00000000000E+00 0. -1.
          6    1    1    2  501    0  0.20420895373E+02  0.90994929249E+02  0.24156184773E+03  0.31141325662E+03  0.17300000000E+03 0.  1.
         -6    1    1    2    0  503 -0.20420895373E+02 -0.90994929249E+02 -0.45905699312E+03  0.49935900217E+03  0.17300000000E+03 0. -1.
<mgrwt>
<rscale>  2 0.19653521E+03</rscale>
<asrwt>0</asrwt>
<pdfrwt beam="1">  1       21 0.45636702E-01 0.19653521E+03</pdfrwt>
<pdfrwt beam="2">  1       21 0.79097492E-01 0.19653521E+03</pdfrwt>
<totfact> 0.64772793E+03</totfact>
</mgrwt>
</event>
<event>
 4    1  0.4336176E+000  0.1859765E+03  0.7546771E-02  0.1162141E+00
         21   -1    0    0  501  502  0.00000000000E+00  0.00000000000E+00  0.18339261888E+04  0.18339261888E+04  0.00000000000E+00 0. -1.
         21   -1    0    0  502  503 -0.00000000000E+00 -0.00000000000E+00 -0.79836492486E+02  0.79836492486E+02  0.00000000000E+00 0. -1.
          6    1    1    2  501    0  0.21453831636E+01 -0.68217786533E+02  0.17133017308E+04  0.17233659187E+04  0.17300000000E+03 0. -1.
         -6    1    1    2    0  503 -0.21453831636E+01  0.68217786533E+02  0.40787965536E+02  0.19039676258E+03  0.17300000000E+03 0. -1.
<mgrwt>
<rscale>  2 0.18597653E+03</rscale>
<asrwt>0</asrwt>
<pdfrwt beam="1">  1       21 0.28214246E+00 0.18597653E+03</pdfrwt>
<pdfrwt beam="2">  1       21 0.12282539E-01 0.18597653E+03</pdfrwt>
<totfact> 0.24546365E+03</totfact>
</mgrwt>
</event>
<event>
 4    1  0.4336176E+000  0.1763331E+03  0.7546771E-02  0.1171400E+00
         21   -1    0    0  501  502  0.00000000000E+00  0.00000000000E+00  0.18507801369E+03  0.18507801369E+03  0.00000000000E+00 0.  1.
         21   -1    0    0  502  503 -0.00000000000E+00 -0.00000000000E+00 -0.16904998369E+03  0.16904998369E+03  0.00000000000E+00 0.  1.
          6    1    1    2  501    0  0.19080072610E+02  0.28289789134E+02  0.21959345228E+02  0.17769517209E+03  0.17300000000E+03 0. -1.
         -6    1    1    2    0  503 -0.19080072610E+02 -0.28289789134E+02 -0.59313152318E+01  0.17643282529E+03  0.17300000000E+03 0. -1.
<mgrwt>
<rscale>  2 0.17633310E+03</rscale>
<asrwt>0</asrwt>
<pdfrwt beam="1">  1       21 0.28473541E-01 0.17633310E+03</pdfrwt>
<pdfrwt beam="2">  1       21 0.26007690E-01 0.17633310E+03</pdfrwt>
<totfact> 0.16647465E+05</totfact>
</mgrwt>
</event>
<event>
 4    1  0.4336176E+000  0.2611630E+03  0.7546771E-02  0.1106446E+00
         21   -1    0    0  503  502  0.00000000000E+00  0.00000000000E+00  0.13838942549E+03  0.13838942549E+03  0.00000000000E+00 0.  1.
         21   -1    0    0  501  503 -0.00000000000E+00 -0.00000000000E+00 -0.55729756113E+03  0.55729756113E+03  0.00000000000E+00 0.  1.
          6    1    1    2  501    0 -0.35058728511E+02  0.19247860438E+03 -0.32773688549E+03  0.41906752881E+03  0.17300000000E+03 0.  1.
         -6    1    1    2    0  502  0.35058728511E+02 -0.19247860438E+03 -0.91171250139E+02  0.27661945781E+03  0.17300000000E+03 0.  1.
<mgrwt>
<rscale>  2 0.26116303E+03</rscale>
<asrwt>0</asrwt>
<pdfrwt beam="1">  1       21 0.21290681E-01 0.26116303E+03</pdfrwt>
<pdfrwt beam="2">  1       21 0.85738086E-01 0.26116303E+03</pdfrwt>
<totfact> 0.23264653E+04</totfact>
</mgrwt>
</event>
<event>
 4    1  0.4336176E+000  0.2964770E+03  0.7546771E-02  0.1087015E+00
         21   -1    0    0  501  502  0.00000000000E+00  0.00000000000E+00  0.73061471282E+03  0.73061471282E+03  0.00000000000E+00 0. -1.
         21   -1    0    0  502  503 -0.00000000000E+00 -0.00000000000E+00 -0.13287467451E+03  0.13287467451E+03  0.00000000000E+00 0.  1.
          6    1    1    2  501    0 -0.17076103293E+03  0.16973585622E+03  0.43164642263E+03  0.52365754594E+03  0.17300000000E+03 0. -1.
         -6    1    1    2    0  503  0.17076103293E+03 -0.16973585622E+03  0.16609361568E+03  0.33983184139E+03  0.17300000000E+03 0.  1.
<mgrwt>
<rscale>  2 0.29647697E+03</rscale>
<asrwt>0</asrwt>
<pdfrwt beam="1">  1       21 0.11240226E+00 0.29647697E+03</pdfrwt>
<pdfrwt beam="2">  1       21 0.20442258E-01 0.29647697E+03</pdfrwt>
<totfact> 0.12953280E+04</totfact>
</mgrwt>
</event>
<event>
 4    1  0.4336176E+000  0.1755457E+03  0.7546771E-02  0.1172185E+00
         21   -1    0    0  503  502  0.00000000000E+00  0.00000000000E+00  0.86151555050E+03  0.86151555050E+03  0.00000000000E+00 0. -1.
         21   -1    0    0  501  503 -0.00000000000E+00 -0.00000000000E+00 -0.11220493275E+03  0.11220493275E+03  0.00000000000E+00 0. -1.
          6    1    1    2  501    0  0.29388293129E+02  0.48594251276E+01 -0.27176852174E+02  0.17763689673E+03  0.17300000000E+03 0. -1.
         -6    1    1    2    0  502 -0.29388293129E+02 -0.48594251276E+01  0.77648746993E+03  0.79608358653E+03  0.17300000000E+03 0. -1.
<mgrwt>
<rscale>  2 0.17554568E+03</rscale>
<asrwt>0</asrwt>
<pdfrwt beam="1">  1       21 0.13254085E+00 0.17554568E+03</pdfrwt>
<pdfrwt beam="2">  1       21 0.17262298E-01 0.17554568E+03</pdfrwt>
<totfact> 0.12638753E+04</totfact>
</mgrwt>
</event>
<event>
 4    1  0.4336176E+000  0.3209091E+03  0.7546771E-02  0.1075232E+00
         21   -1    0    0  503  502  0.00000000000E+00  0.00000000000E+00  0.26856881676E+03  0.26856881676E+03  0.00000000000E+00 0.  1.
         21   -1    0    0  501  503 -0.00000000000E+00 -0.00000000000E+00 -0.49631088079E+03  0.49631088079E+03  0.00000000000E+00 0. -1.
          6    1    1    2  501    0 -0.74923781810E+02 -0.25969229847E+03 -0.29624309635E+03  0.43674092447E+03  0.17300000000E+03 0. -1.
         -6    1    1    2    0  502  0.74923781810E+02  0.25969229847E+03  0.68501032326E+02  0.32813877308E+03  0.17300000000E+03 0.  1.
<mgrwt>
<rscale>  2 0.32090912E+03</rscale>
<asrwt>0</asrwt>
<pdfrwt beam="1">  1       21 0.41318280E-01 0.32090912E+03</pdfrwt>
<pdfrwt beam="2">  1       21 0.76355519E-01 0.32090912E+03</pdfrwt>
<totfact> 0.80140728E+03</totfact>
</mgrwt>
</event>
<event>
 4    1  0.4336176E+000  0.2675652E+03  0.7546771E-02  0.1102681E+00
         21   -1    0    0  501  502  0.00000000000E+00  0.00000000000E+00  0.31575356866E+03  0.31575356866E+03  0.00000000000E+00 0.  1.
         21   -1    0    0  502  503 -0.00000000000E+00 -0.00000000000E+00 -0.29864606313E+03  0.29864606313E+03  0.00000000000E+00 0.  1.
          6    1    1    2  501    0  0.17840566779E+03  0.99164263100E+02  0.15930203839E+03  0.31139729095E+03  0.17300000000E+03 0.  1.
         -6    1    1    2    0  503 -0.17840566779E+03 -0.99164263100E+02 -0.14219453286E+03  0.30300234083E+03  0.17300000000E+03 0.  1.
<mgrwt>
<rscale>  2 0.26756519E+03</rscale>
<asrwt>0</asrwt>
<pdfrwt beam="1">  1       21 0.48577472E-01 0.26756519E+03</pdfrwt>
<pdfrwt beam="2">  1       21 0.45945548E-01 0.26756519E+03</pdfrwt>
<totfact> 0.17644839E+04</totfact>
</mgrwt>
</event>
<event>
 4    1  0.4336176E+000  0.2653317E+03  0.7546771E-02  0.1103981E+00
         21   -1    0    0  503  502  0.00000000000E+00  0.00000000000E+00  0.12479090372E+03  0.12479090372E+03  0.00000000000E+00 0. -1.
         21   -1    0    0  501  503 -0.00000000000E+00 -0.00000000000E+00 -0.56967817917E+03  0.56967817917E+03  0.00000000000E+00 0. -1.
          6    1    1    2  501    0 -0.17991409346E+03 -0.90015777223E+02 -0.25664609946E+03  0.36914514969E+03  0.17300000000E+03 0. -1.
         -6    1    1    2    0  502  0.17991409346E+03  0.90015777223E+02 -0.18824117599E+03  0.32532393320E+03  0.17300000000E+03 0. -1.
<mgrwt>
<rscale>  2 0.26533172E+03</rscale>
<asrwt>0</asrwt>
<pdfrwt beam="1">  1       21 0.19198600E-01 0.26533172E+03</pdfrwt>
<pdfrwt beam="2">  1       21 0.87642798E-01 0.26533172E+03</pdfrwt>
<totfact> 0.26815640E+04</totfact>
</mgrwt>
</event>
<event>
 4    1  0.4336176E+000  0.2899276E+03  0.7546771E-02  0.1090387E+00
         21   -1    0    0  503  502  0.00000000000E+00  0.00000000000E+00  0.65693015514E+03  0.65693015514E+03  0.00000000000E+00 0. -1.
         21   -1    0    0  501  503 -0.00000000000E+00 -0.00000000000E+00 -0.13456308492E+03  0.13456308492E+03  0.00000000000E+00 0.  1.
          6    1    1    2  501    0 -0.16715179662E+03 -0.16183100396E+03  0.17349009760E+03  0.33787099746E+03  0.17300000000E+03 0.  1.
         -6    1    1    2    0  502  0.16715179662E+03  0.16183100396E+03  0.34887697262E+03  0.45362224260E+03  0.17300000000E+03 0. -1.
<mgrwt>
<rscale>  2 0.28992757E+03</rscale>
<asrwt>0</asrwt>
<pdfrwt beam="1">  1       21 0.10106618E+00 0.28992757E+03</pdfrwt>
<pdfrwt beam="2">  1       21 0.20702013E-01 0.28992757E+03</pdfrwt>
<totfact> 0.16437059E+04</totfact>
</mgrwt>
</event>
<event>
 4    1  0.4336176E+000  0.2171477E+03  0.7546771E-02  0.1136028E+00
         21   -1    0    0  501  502  0.00000000000E+00  0.00000000000E+00  0.45605076274E+02  0.45605076274E+02  0.00000000000E+00 0.  1.
         21   -1    0    0  502  503 -0.00000000000E+00 -0.00000000000E+00 -0.10346166059E+04  0.10346166059E+04  0.00000000000E+00 0.  1.
          6    1    1    2  501    0 -0.12654047238E+03  0.34808346221E+02 -0.48073835659E+03  0.52750590482E+03  0.17300000000E+03 0.  1.
         -6    1    1    2    0  503  0.12654047238E+03 -0.34808346221E+02 -0.50827317305E+03  0.55271577737E+03  0.17300000000E+03 0.  1.
<mgrwt>
<rscale>  2 0.21714767E+03</rscale>
<asrwt>0</asrwt>
<pdfrwt beam="1">  1       21 0.70161666E-02 0.21714767E+03</pdfrwt>
<pdfrwt beam="2">  1       21 0.15917176E+00 0.21714767E+03</pdfrwt>
<totfact> 0.37895799E+04</totfact>
</mgrwt>
</event>
<event>
 4    1  0.4336176E+000  0.2571409E+03  0.7546771E-02  0.1108873E+00
         21   -1    0    0  501  502  0.00000000000E+00  0.00000000000E+00  0.30114745284E+03  0.30114745284E+03  0.00000000000E+00 0.  1.
         21   -1    0    0  502  503 -0.00000000000E+00 -0.00000000000E+00 -0.23826456296E+03  0.23826456296E+03  0.00000000000E+00 0.  1.
          6    1    1    2  501    0 -0.18851169902E+03 -0.25608217696E+02  0.10699877154E+03  0.27851423410E+03  0.17300000000E+03 0.  1.
         -6    1    1    2    0  503  0.18851169902E+03  0.25608217696E+02 -0.44115881664E+02  0.26089778170E+03  0.17300000000E+03 0.  1.
<mgrwt>
<rscale>  2 0.25714090E+03</rscale>
<asrwt>0</asrwt>
<pdfrwt beam="1">  1       21 0.46330377E-01 0.25714090E+03</pdfrwt>
<pdfrwt beam="2">  1       21 0.36656087E-01 0.25714090E+03</pdfrwt>
<totfact> 0.31038515E+04</totfact>
</mgrwt>
</event>
<event>
 4    1  0.4336176E+000  0.3179136E+03  0.7546771E-02  0.1076614E+00
         21   -1    0    0  503  502  0.00000000000E+00  0.00000000000E+00  0.65030354026E+02  0.65030354026E+02  0.00000000000E+00 0. -1.
         21   -1    0    0  501  503 -0.00000000000E+00 -0.00000000000E+00 -0.18985346639E+04  0.18985346639E+04  0.00000000000E+00 0.  1.
          6    1    1    2  501    0  0.16035602708E+02 -0.26623843169E+03 -0.13348783593E+04  0.13722132769E+04  0.17300000000E+03 0.  1.
         -6    1    1    2    0  502 -0.16035602708E+02  0.26623843169E+03 -0.49862595049E+03  0.59135174099E+03  0.17300000000E+03 0. -1.
<mgrwt>
<rscale>  2 0.31791358E+03</rscale>
<asrwt>0</asrwt>
<pdfrwt beam="1">  1       21 0.10004671E-01 0.31791358E+03</pdfrwt>
<pdfrwt beam="2">  1       21 0.29208224E+00 0.31791358E+03</pdfrwt>
<totfact> 0.27366411E+03</totfact>
</mgrwt>
</event>
<event>
 4    1  0.4336176E+000  0.1834086E+03  0.7546771E-02  0.1164544E+00
         21   -1    0    0  501  502  0.00000000000E+00  0.00000000000E+00  0.47520427698E+03  0.47520427698E+03  0.00000000000E+00 0. -1.
         21   -1    0    0  502  503 -0.00000000000E+00 -0.00000000000E+00 -0.77754524960E+02  0.77754524960E+02  0.00000000000E+00 0. -1.
          6    1    1    2  501    0  0.58755370866E+02 -0.16047225113E+02  0.28148317198E+03  0.33596351460E+03  0.17300000000E+03 0. -1.
         -6    1    1    2    0  503 -0.58755370866E+02  0.16047225113E+02  0.11596658005E+03  0.21699528734E+03  0.17300000000E+03 0. -1.
<mgrwt>
<rscale>  2 0.18340858E+03</rscale>
<asrwt>0</asrwt>
<pdfrwt beam="1">  1       21 0.73108349E-01 0.18340858E+03</pdfrwt>
<pdfrwt beam="2">  1       21 0.11962235E-01 0.18340858E+03</pdfrwt>
<totfact> 0.99678489E+04</totfact>
</mgrwt>
</event>
<event>
 4    1  0.4336176E+000  0.2126618E+03  0.7546771E-02  0.1139475E+00
         21   -1    0    0  501  502  0.00000000000E+00  0.00000000000E+00  0.12030206289E+03  0.12030206289E+03  0.00000000000E+00 0.  1.
         21   -1    0    0  502  503 -0.00000000000E+00 -0.00000000000E+00 -0.73727298298E+03  0.73727298298E+03  0.00000000000E+00 0. -1.
          6    1    1    2  501    0 -0.69096932499E+02  0.10257504387E+03 -0.83008410823E+01  0.21282370561E+03  0.17300000000E+03 0.  1.
         -6    1    1    2    0  503  0.69096932499E+02 -0.10257504387E+03 -0.60867007901E+03  0.64475134027E+03  0.17300000000E+03 0. -1.
<mgrwt>
<rscale>  2 0.21266176E+03</rscale>
<asrwt>0</asrwt>
<pdfrwt beam="1">  1       21 0.18508010E-01 0.21266176E+03</pdfrwt>
<pdfrwt beam="2">  1       21 0.11342661E+00 0.21266176E+03</pdfrwt>
<totfact> 0.15958164E+04</totfact>
</mgrwt>
</event>
<event>
 4    1  0.4336176E+000  0.2151453E+03  0.7546771E-02  0.1137555E+00
         21   -1    0    0  503  502  0.00000000000E+00  0.00000000000E+00  0.41411180262E+03  0.41411180262E+03  0.00000000000E+00 0.  1.
         21   -1    0    0  501  503 -0.00000000000E+00 -0.00000000000E+00 -0.30323072737E+03  0.30323072737E+03  0.00000000000E+00 0. -1.
          6    1    1    2  501    0  0.87992177397E+02  0.92821700551E+02 -0.22955874437E+03  0.31461835371E+03  0.17300000000E+03 0. -1.
         -6    1    1    2    0  502 -0.87992177397E+02 -0.92821700551E+02  0.34043981962E+03  0.40272417628E+03  0.17300000000E+03 0.  1.
<mgrwt>
<rscale>  2 0.21514528E+03</rscale>
<asrwt>0</asrwt>
<pdfrwt beam="1">  1       21 0.63709509E-01 0.21514528E+03</pdfrwt>
<pdfrwt beam="2">  1       21 0.46650881E-01 0.21514528E+03</pdfrwt>
<totfact> 0.98654775E+03</totfact>
</mgrwt>
</event>
<event>
 4    1  0.4336176E+000  0.3217003E+03  0.7546771E-02  0.1074869E+00
         21   -1    0    0  503  502  0.00000000000E+00  0.00000000000E+00  0.20773839059E+04  0.20773839059E+04  0.00000000000E+00 0. -1.
         21   -1    0    0  501  503 -0.00000000000E+00 -0.00000000000E+00 -0.66805531098E+02  0.66805531098E+02  0.00000000000E+00 0. -1.
          6    1    1    2  501    0  0.27097114327E+03 -0.11692933545E+02  0.46466902340E+03  0.56516226562E+03  0.17300000000E+03 0. -1.
         -6    1    1    2    0  502 -0.27097114327E+03  0.11692933545E+02  0.15459093514E+04  0.15790271713E+04  0.17300000000E+03 0. -1.
<mgrwt>
<rscale>  2 0.32170030E+03</rscale>
<asrwt>0</asrwt>
<pdfrwt beam="1">  1       21 0.31959748E+00 0.32170030E+03</pdfrwt>
<pdfrwt beam="2">  1       21 0.10277776E-01 0.32170030E+03</pdfrwt>
<totfact> 0.17870677E+03</totfact>
</mgrwt>
</event>
<event>
 4    1  0.4336176E+000  0.2804003E+03  0.7546771E-02  0.1095471E+00
         21   -1    0    0  501  502  0.00000000000E+00  0.00000000000E+00  0.14003019197E+03  0.14003019197E+03  0.00000000000E+00 0.  1.
         21   -1    0    0  502  503 -0.00000000000E+00 -0.00000000000E+00 -0.68642325423E+03  0.68642325423E+03  0.00000000000E+00 0.  1.
          6    1    1    2  501    0  0.51916954411E+02 -0.21447601066E+03 -0.96898844430E+02  0.29667105581E+03  0.17300000000E+03 0. -1.
         -6    1    1    2    0  503 -0.51916954411E+02  0.21447601066E+03 -0.44949421783E+03  0.52978239039E+03  0.17300000000E+03 0. -1.
<mgrwt>
<rscale>  2 0.28040030E+03</rscale>
<asrwt>0</asrwt>
<pdfrwt beam="1">  1       21 0.21543107E-01 0.28040030E+03</pdfrwt>
<pdfrwt beam="2">  1       21 0.10560358E+00 0.28040030E+03</pdfrwt>
<totfact> 0.13763777E+04</totfact>
</mgrwt>
</event>
<event>
 4    1  0.4336176E+000  0.1923656E+03  0.7546771E-02  0.1156345E+00
         21   -1    0    0  503  502  0.00000000000E+00  0.00000000000E+00  0.46437204562E+03  0.46437204562E+03  0.00000000000E+00 0.  1.
         21   -1    0    0  501  503 -0.00000000000E+00 -0.00000000000E+00 -0.15186939406E+03  0.15186939406E+03  0.00000000000E+00 0.  1.
          6    1    1    2  501    0  0.10562449426E+02  0.83450333394E+02 -0.56171270843E+02  0.20039893999E+03  0.17300000000E+03 0.  1.
         -6    1    1    2    0  502 -0.10562449426E+02 -0.83450333394E+02  0.36867392240E+03  0.41584249968E+03  0.17300000000E+03 0.  1.
<mgrwt>
<rscale>  2 0.19236560E+03</rscale>
<asrwt>0</asrwt>
<pdfrwt beam="1">  1       21 0.71441853E-01 0.19236560E+03</pdfrwt>
<pdfrwt beam="2">  1       21 0.23364522E-01 0.19236560E+03</pdfrwt>
<totfact> 0.30521825E+04</totfact>
</mgrwt>
</event>
<event>
 4    1  0.4336176E+000  0.1822424E+03  0.7546771E-02  0.1165650E+00
         21   -1    0    0  503  502  0.00000000000E+00  0.00000000000E+00  0.66265501883E+02  0.66265501883E+02  0.00000000000E+00 0.  1.
         21   -1    0    0  501  503 -0.00000000000E+00 -0.00000000000E+00 -0.63494713327E+03  0.63494713327E+03  0.00000000000E+00 0.  1.
          6    1    1    2  501    0 -0.56951983107E+02  0.63044535237E+01 -0.44525453508E+03  0.48110692733E+03  0.17300000000E+03 0.  1.
         -6    1    1    2    0  502  0.56951983107E+02 -0.63044535237E+01 -0.12342709630E+03  0.22010570782E+03  0.17300000000E+03 0.  1.
<mgrwt>
<rscale>  2 0.18224235E+03</rscale>
<asrwt>0</asrwt>
<pdfrwt beam="1">  1       21 0.10194692E-01 0.18224235E+03</pdfrwt>
<pdfrwt beam="2">  1       21 0.97684177E-01 0.18224235E+03</pdfrwt>
<totfact> 0.68371883E+04</totfact>
</mgrwt>
</event>
<event>
 4    1  0.4336176E+000  0.3954055E+03  0.7546771E-02  0.1045382E+00
         21   -1    0    0  501  502  0.00000000000E+00  0.00000000000E+00  0.13462336454E+04  0.13462336454E+04  0.00000000000E+00 0.  1.
         21   -1    0    0  502  503 -0.00000000000E+00 -0.00000000000E+00 -0.16866703991E+03  0.16866703991E+03  0.00000000000E+00 0. -1.
          6    1    1    2  501    0 -0.10090648718E+03 -0.34093168663E+03  0.10114996760E+04  0.10860373514E+04  0.17300000000E+03 0.  1.
         -6    1    1    2    0  503  0.10090648718E+03  0.34093168663E+03  0.16606692949E+03  0.42886333391E+03  0.17300000000E+03 0. -1.
<mgrwt>
<rscale>  2 0.39540553E+03</rscale>
<asrwt>0</asrwt>
<pdfrwt beam="1">  1       21 0.20711286E+00 0.39540553E+03</pdfrwt>
<pdfrwt beam="2">  1       21 0.25948776E-01 0.39540553E+03</pdfrwt>
<totfact> 0.14687765E+03</totfact>
</mgrwt>
</event>
<event>
 4    1  0.4336176E+000  0.1838716E+03  0.7546771E-02  0.1164108E+00
         21   -1    0    0  503  502  0.00000000000E+00  0.00000000000E+00  0.46281801596E+03  0.46281801596E+03  0.00000000000E+00 0.  1.
         21   -1    0    0  501  503 -0.00000000000E+00 -0.00000000000E+00 -0.10628560289E+03  0.10628560289E+03  0.00000000000E+00 0.  1.
          6    1    1    2  501    0 -0.57610521865E+02 -0.23681169175E+02  0.19145343022E+02  0.18486566518E+03  0.17300000000E+03 0.  1.
         -6    1    1    2    0  502  0.57610521865E+02  0.23681169175E+02  0.33738707005E+03  0.38423795367E+03  0.17300000000E+03 0.  1.
<mgrwt>
<rscale>  2 0.18387161E+03</rscale>
<asrwt>0</asrwt>
<pdfrwt beam="1">  1       21 0.71202770E-01 0.18387161E+03</pdfrwt>
<pdfrwt beam="2">  1       21 0.16351632E-01 0.18387161E+03</pdfrwt>
<totfact> 0.60030816E+04</totfact>
</mgrwt>
</event>
<event>
 4    1  0.4336176E+000  0.1789735E+03  0.7546771E-02  0.1168800E+00
         21   -1    0    0  501  502  0.00000000000E+00  0.00000000000E+00  0.24080569242E+03  0.24080569242E+03  0.00000000000E+00 0. -1.
         21   -1    0    0  502  503 -0.00000000000E+00 -0.00000000000E+00 -0.13369091192E+03  0.13369091192E+03  0.00000000000E+00 0. -1.
          6    1    1    2  501    0  0.43200040700E+02 -0.15371605523E+02  0.40274429541E+02  0.18344906500E+03  0.17300000000E+03 0. -1.
         -6    1    1    2    0  503 -0.43200040700E+02  0.15371605523E+02  0.66840350955E+02  0.19104753934E+03  0.17300000000E+03 0. -1.
<mgrwt>
<rscale>  2 0.17897354E+03</rscale>
<asrwt>0</asrwt>
<pdfrwt beam="1">  1       21 0.37047030E-01 0.17897354E+03</pdfrwt>
<pdfrwt beam="2">  1       21 0.20567833E-01 0.17897354E+03</pdfrwt>
<totfact> 0.15460116E+05</totfact>
</mgrwt>
</event>
<event>
 4    1  0.4336176E+000  0.2140239E+03  0.7546771E-02  0.1138419E+00
         21   -1    0    0  503  502  0.00000000000E+00  0.00000000000E+00  0.25636580463E+02  0.25636580463E+02  0.00000000000E+00 0.  1.
         21   -1    0    0  501  503 -0.00000000000E+00 -0.00000000000E+00 -0.18612558328E+04  0.18612558328E+04  0.00000000000E+00 0. -1.
          6    1    1    2  501    0 -0.83666186270E+02  0.94218946368E+02 -0.11065653363E+04  0.11270727945E+04  0.17300000000E+03 0. -1.
         -6    1    1    2    0  502  0.83666186270E+02 -0.94218946368E+02 -0.72905391596E+03  0.75981961870E+03  0.17300000000E+03 0.  1.
<mgrwt>
<rscale>  2 0.21402393E+03</rscale>
<asrwt>0</asrwt>
<pdfrwt beam="1">  1       21 0.39440884E-02 0.21402393E+03</pdfrwt>
<pdfrwt beam="2">  1       21 0.28634712E+00 0.21402393E+03</pdfrwt>
<totfact> 0.16082028E+04</totfact>
</mgrwt>
</event>
<event>
 4    1  0.4336176E+000  0.1895552E+03  0.7546771E-02  0.1158863E+00
         21   -1    0    0  503  502  0.00000000000E+00  0.00000000000E+00  0.11956228491E+03  0.11956228491E+03  0.00000000000E+00 0. -1.
         21   -1    0    0  501  503 -0.00000000000E+00 -0.00000000000E+00 -0.30579669210E+03  0.30579669210E+03  0.00000000000E+00 0. -1.
          6    1    1    2  501    0  0.56096045243E+02 -0.53436012609E+02 -0.12104787300E+03  0.22490833976E+03  0.17300000000E+03 0. -1.
         -6    1    1    2    0  502 -0.56096045243E+02  0.53436012609E+02 -0.65186534182E+02  0.20045063725E+03  0.17300000000E+03 0. -1.
<mgrwt>
<rscale>  2 0.18955520E+03</rscale>
<asrwt>0</asrwt>
<pdfrwt beam="1">  1       21 0.18394198E-01 0.18955520E+03</pdfrwt>
<pdfrwt beam="2">  1       21 0.47045645E-01 0.18955520E+03</pdfrwt>
<totfact> 0.11675861E+05</totfact>
</mgrwt>
</event>
<event>
 4    1  0.4336176E+000  0.1824187E+03  0.7546771E-02  0.1165483E+00
         21   -1    0    0  503  502  0.00000000000E+00  0.00000000000E+00  0.32308618241E+02  0.32308618241E+02  0.00000000000E+00 0.  1.
         21   -1    0    0  501  503 -0.00000000000E+00 -0.00000000000E+00 -0.10599235507E+04  0.10599235507E+04  0.00000000000E+00 0. -1.
          6    1    1    2  501    0  0.51264622378E+02  0.26823807962E+02 -0.42198567949E+03  0.45972654032E+03  0.17300000000E+03 0.  1.
         -6    1    1    2    0  502 -0.51264622378E+02 -0.26823807962E+02 -0.60562925294E+03  0.63250562859E+03  0.17300000000E+03 0. -1.
<mgrwt>
<rscale>  2 0.18241869E+03</rscale>
<asrwt>0</asrwt>
<pdfrwt beam="1">  1       21 0.49705573E-02 0.18241869E+03</pdfrwt>
<pdfrwt beam="2">  1       21 0.16306514E+00 0.18241869E+03</pdfrwt>
<totfact> 0.65328783E+04</totfact>
</mgrwt>
</event>
<event>
 4    1  0.4336176E+000  0.2161786E+03  0.7546771E-02  0.1136765E+00
         21   -1    0    0  501  502  0.00000000000E+00  0.00000000000E+00  0.11054449169E+04  0.11054449169E+04  0.00000000000E+00 0.  1.
         21   -1    0    0  502  503 -0.00000000000E+00 -0.00000000000E+00 -0.51637712591E+02  0.51637712591E+02  0.00000000000E+00 0.  1.
          6    1    1    2  501    0 -0.10958268804E+03 -0.69251870700E+02  0.77324713616E+03  0.80289745341E+03  0.17300000000E+03 0.  1.
         -6    1    1    2    0  503  0.10958268804E+03  0.69251870700E+02  0.28056006814E+03  0.35418517607E+03  0.17300000000E+03 0.  1.
<mgrwt>
<rscale>  2 0.21617860E+03</rscale>
<asrwt>0</asrwt>
<pdfrwt beam="1">  1       21 0.17006843E+00 0.21617860E+03</pdfrwt>
<pdfrwt beam="2">  1       21 0.79442643E-02 0.21617860E+03</pdfrwt>
<totfact> 0.25491855E+04</totfact>
</mgrwt>
</event>
<event>
 4    1  0.4336176E+000  0.2161771E+03  0.7546771E-02  0.1136766E+00
         21   -1    0    0  503  502  0.00000000000E+00  0.00000000000E+00  0.21671363406E+03  0.21671363406E+03  0.00000000000E+00 0. -1.
         21   -1    0    0  501  503 -0.00000000000E+00 -0.00000000000E+00 -0.21573494381E+03  0.21573494381E+03  0.00000000000E+00 0.  1.
          6    1    1    2  501    0  0.11982625695E+03  0.49448906737E+02 -0.40025962514E+01  0.21621412306E+03  0.17300000000E+03 0. -1.
         -6    1    1    2    0  502 -0.11982625695E+03 -0.49448906737E+02  0.49812865022E+01  0.21623445481E+03  0.17300000000E+03 0. -1.
<mgrwt>
<rscale>  2 0.21617707E+03</rscale>
<asrwt>0</asrwt>
<pdfrwt beam="1">  1       21 0.33340559E-01 0.21617707E+03</pdfrwt>
<pdfrwt beam="2">  1       21 0.33189991E-01 0.21617707E+03</pdfrwt>
<totfact> 0.74968003E+04</totfact>
</mgrwt>
</event>
<event>
 4    1  0.4336176E+000  0.2068775E+03  0.7546771E-02  0.1144063E+00
         21   -1    0    0  501  502  0.00000000000E+00  0.00000000000E+00  0.14611641035E+03  0.14611641035E+03  0.00000000000E+00 0. -1.
         21   -1    0    0  502  503 -0.00000000000E+00 -0.00000000000E+00 -0.34147712656E+03  0.34147712656E+03  0.00000000000E+00 0.  1.
          6    1    1    2  501    0 -0.90743888298E+02 -0.68079833273E+02 -0.57332769062E+01  0.20695696999E+03  0.17300000000E+03 0. -1.
         -6    1    1    2    0  503  0.90743888298E+02  0.68079833273E+02 -0.18962743930E+03  0.28063656693E+03  0.17300000000E+03 0.  1.
<mgrwt>
<rscale>  2 0.20687754E+03</rscale>
<asrwt>0</asrwt>
<pdfrwt beam="1">  1       21 0.22479448E-01 0.20687754E+03</pdfrwt>
<pdfrwt beam="2">  1       21 0.52534942E-01 0.20687754E+03</pdfrwt>
<totfact> 0.63262686E+04</totfact>
</mgrwt>
</event>
<event>
 4    1  0.4336176E+000  0.2052414E+03  0.7546771E-02  0.1145391E+00
         21   -1    0    0  503  502  0.00000000000E+00  0.00000000000E+00  0.18706954865E+03  0.18706954865E+03  0.00000000000E+00 0. -1.
         21   -1    0    0  501  503 -0.00000000000E+00 -0.00000000000E+00 -0.34906333423E+03  0.34906333423E+03  0.00000000000E+00 0.  1.
          6    1    1    2  501    0  0.75346549812E+02  0.80733765649E+02 -0.24069485541E+03  0.31631954872E+03  0.17300000000E+03 0.  1.
         -6    1    1    2    0  502 -0.75346549812E+02 -0.80733765649E+02  0.78701069830E+02  0.21981333416E+03  0.17300000000E+03 0. -1.
<mgrwt>
<rscale>  2 0.20524143E+03</rscale>
<asrwt>0</asrwt>
<pdfrwt beam="1">  1       21 0.28779931E-01 0.20524143E+03</pdfrwt>
<pdfrwt beam="2">  1       21 0.53702051E-01 0.20524143E+03</pdfrwt>
<totfact> 0.37648517E+04</totfact>
</mgrwt>
</event>
<event>
 4    1  0.4336176E+000  0.2775173E+03  0.7546771E-02  0.1097053E+00
         21   -1    0    0  501  502  0.00000000000E+00  0.00000000000E+00  0.16252203349E+03  0.16252203349E+03  0.00000000000E+00 0. -1.
         21   -1    0    0  502  503 -0.00000000000E+00 -0.00000000000E+00 -0.83393890266E+03  0.83393890266E+03  0.00000000000E+00 0.  1.
          6    1    1    2  501    0 -0.13283076693E+02  0.21658815726E+03 -0.83298954247E+01  0.27764231873E+03  0.17300000000E+03 0. -1.
         -6    1    1    2    0  503  0.13283076693E+02 -0.21658815726E+03 -0.66308697375E+03  0.71881861741E+03  0.17300000000E+03 0.  1.
<mgrwt>
<rscale>  2 0.27751733E+03</rscale>
<asrwt>0</asrwt>
<pdfrwt beam="1">  1       21 0.25003390E-01 0.27751733E+03</pdfrwt>
<pdfrwt beam="2">  1       21 0.12829829E+00 0.27751733E+03</pdfrwt>
<totfact> 0.63933515E+03</totfact>
</mgrwt>
</event>
<event>
 4    1  0.4336176E+000  0.2178458E+03  0.7546771E-02  0.1135499E+00
         21   -1    0    0  501  502  0.00000000000E+00  0.00000000000E+00  0.19288195470E+03  0.19288195470E+03  0.00000000000E+00 0. -1.
         21   -1    0    0  502  503 -0.00000000000E+00 -0.00000000000E+00 -0.24767321172E+03  0.24767321172E+03  0.00000000000E+00 0. -1.
          6    1    1    2  501    0 -0.75222264099E+02 -0.10894684864E+03 -0.45279571974E+02  0.22250178535E+03  0.17300000000E+03 0. -1.
         -6    1    1    2    0  503  0.75222264099E+02  0.10894684864E+03 -0.95116850430E+01  0.21805338107E+03  0.17300000000E+03 0. -1.
<mgrwt>
<rscale>  2 0.21784583E+03</rscale>
<asrwt>0</asrwt>
<pdfrwt beam="1">  1       21 0.29674147E-01 0.21784583E+03</pdfrwt>
<pdfrwt beam="2">  1       21 0.38103571E-01 0.21784583E+03</pdfrwt>
<totfact> 0.71518640E+04</totfact>
</mgrwt>
</event>
<event>
 4    1  0.4336176E+000  0.4344234E+03  0.7546771E-02  0.1032472E+00
         21   -1    0    0  503  502  0.00000000000E+00  0.00000000000E+00  0.57941350851E+03  0.57941350851E+03  0.00000000000E+00 0. -1.
         21   -1    0    0  501  503 -0.00000000000E+00 -0.00000000000E+00 -0.35924502741E+03  0.35924502741E+03  0.00000000000E+00 0.  1.
          6    1    1    2  501    0  0.39749409634E+03  0.28162795654E+02 -0.33299164010E+02  0.43569775534E+03  0.17300000000E+03 0. -1.
         -6    1    1    2    0  502 -0.39749409634E+03 -0.28162795654E+02  0.25346764511E+03  0.50296078058E+03  0.17300000000E+03 0. -1.
<mgrwt>
<rscale>  2 0.43442341E+03</rscale>
<asrwt>0</asrwt>
<pdfrwt beam="1">  1       21 0.89140540E-01 0.43442341E+03</pdfrwt>
<pdfrwt beam="2">  1       21 0.55268466E-01 0.43442341E+03</pdfrwt>
<totfact> 0.29000801E+03</totfact>
</mgrwt>
</event>
<event>
 4    1  0.4336176E+000  0.2212965E+03  0.7546771E-02  0.1132920E+00
         21   -1    0    0  501  502  0.00000000000E+00  0.00000000000E+00  0.18892392826E+03  0.18892392826E+03  0.00000000000E+00 0. -1.
         21   -1    0    0  502  503 -0.00000000000E+00 -0.00000000000E+00 -0.27415901293E+03  0.27415901293E+03  0.00000000000E+00 0. -1.
          6    1    1    2  501    0 -0.13150398933E+03  0.41831288429E+02  0.11438306724E+02  0.22159194652E+03  0.17300000000E+03 0. -1.
         -6    1    1    2    0  503  0.13150398933E+03 -0.41831288429E+02 -0.96673391398E+02  0.24149099467E+03  0.17300000000E+03 0. -1.
<mgrwt>
<rscale>  2 0.22129653E+03</rscale>
<asrwt>0</asrwt>
<pdfrwt beam="1">  1       21 0.29065220E-01 0.22129653E+03</pdfrwt>
<pdfrwt beam="2">  1       21 0.42178309E-01 0.22129653E+03</pdfrwt>
<totfact> 0.60520680E+04</totfact>
</mgrwt>
</event>
<event>
 4    1  0.4336176E+000  0.1830876E+03  0.7546771E-02  0.1164848E+00
         21   -1    0    0  501  502  0.00000000000E+00  0.00000000000E+00  0.60177800108E+03  0.60177800108E+03  0.00000000000E+00 0. -1.
         21   -1    0    0  502  503 -0.00000000000E+00 -0.00000000000E+00 -0.55868831360E+02  0.55868831360E+02  0.00000000000E+00 0. -1.
          6    1    1    2  501    0 -0.45874850363E+02 -0.38568838556E+02  0.29084984932E+03  0.34367818094E+03  0.17300000000E+03 0. -1.
         -6    1    1    2    0  503  0.45874850363E+02  0.38568838556E+02  0.25505932040E+03  0.31396865150E+03  0.17300000000E+03 0. -1.
<mgrwt>
<rscale>  2 0.18308757E+03</rscale>
<asrwt>0</asrwt>
<pdfrwt beam="1">  1       21 0.92581226E-01 0.18308757E+03</pdfrwt>
<pdfrwt beam="2">  1       21 0.85952052E-02 0.18308757E+03</pdfrwt>
<totfact> 0.10456589E+05</totfact>
</mgrwt>
</event>
<event>
 4    1  0.4336176E+000  0.2109436E+03  0.7546771E-02  0.1140821E+00
         21   -1    0    0  501  502  0.00000000000E+00  0.00000000000E+00  0.51631364563E+03  0.51631364563E+03  0.00000000000E+00 0. -1.
         21   -1    0    0  502  503 -0.00000000000E+00 -0.00000000000E+00 -0.91138191850E+02  0.91138191850E+02  0.00000000000E+00 0. -1.
          6    1    1    2  501    0  0.47275487104E+02 -0.11105507637E+03  0.28341226004E+03  0.35329833118E+03  0.17300000000E+03 0. -1.
         -6    1    1    2    0  503 -0.47275487104E+02  0.11105507637E+03  0.14176319374E+03  0.25415350631E+03  0.17300000000E+03 0. -1.
<mgrwt>
<rscale>  2 0.21094360E+03</rscale>
<asrwt>0</asrwt>
<pdfrwt beam="1">  1       21 0.79432867E-01 0.21094360E+03</pdfrwt>
<pdfrwt beam="2">  1       21 0.14021261E-01 0.21094360E+03</pdfrwt>
<totfact> 0.61443715E+04</totfact>
</mgrwt>
</event>
<event>
 4    1  0.4336176E+000  0.2653664E+03  0.7546771E-02  0.1103961E+00
         21   -1    0    0  503  502  0.00000000000E+00  0.00000000000E+00  0.37627394863E+03  0.37627394863E+03  0.00000000000E+00 0.  1.
         21   -1    0    0  501  503 -0.00000000000E+00 -0.00000000000E+00 -0.30628046047E+03  0.30628046047E+03  0.00000000000E+00 0. -1.
          6    1    1    2  501    0  0.17579888098E+03 -0.97903378225E+02 -0.17784693041E+03  0.31945085487E+03  0.17300000000E+03 0. -1.
         -6    1    1    2    0  502 -0.17579888098E+03  0.97903378225E+02  0.24784041856E+03  0.36310355423E+03  0.17300000000E+03 0.  1.
<mgrwt>
<rscale>  2 0.26536638E+03</rscale>
<asrwt>0</asrwt>
<pdfrwt beam="1">  1       21 0.57888300E-01 0.26536638E+03</pdfrwt>
<pdfrwt beam="2">  1       21 0.47120071E-01 0.26536638E+03</pdfrwt>
<totfact> 0.11554306E+04</totfact>
</mgrwt>
</event>
<event>
 4    1  0.4336176E+000  0.1775336E+03  0.7546771E-02  0.1170212E+00
         21   -1    0    0  503  502  0.00000000000E+00  0.00000000000E+00  0.70337047164E+03  0.70337047164E+03  0.00000000000E+00 0.  1.
         21   -1    0    0  501  503 -0.00000000000E+00 -0.00000000000E+00 -0.62730959015E+02  0.62730959015E+02  0.00000000000E+00 0.  1.
          6    1    1    2  501    0  0.25839192311E+02 -0.30356429950E+02  0.11558412844E+03  0.21184396957E+03  0.17300000000E+03 0.  1.
         -6    1    1    2    0  502 -0.25839192311E+02  0.30356429950E+02  0.52505538419E+03  0.55425746108E+03  0.17300000000E+03 0.  1.
<mgrwt>
<rscale>  2 0.17753359E+03</rscale>
<asrwt>0</asrwt>
<pdfrwt beam="1">  1       21 0.10821084E+00 0.17753359E+03</pdfrwt>
<pdfrwt beam="2">  1       21 0.96509173E-02 0.17753359E+03</pdfrwt>
<totfact> 0.59141585E+04</totfact>
</mgrwt>
</event>
<event>
 4    1  0.4336176E+000  0.1813260E+03  0.7546771E-02  0.1166526E+00
         21   -1    0    0  503  502  0.00000000000E+00  0.00000000000E+00  0.25909608565E+03  0.25909608565E+03  0.00000000000E+00 0.  1.
         21   -1    0    0  501  503 -0.00000000000E+00 -0.00000000000E+00 -0.12754780553E+03  0.12754780553E+03  0.00000000000E+00 0.  1.
          6    1    1    2  501    0 -0.35278770885E+02 -0.41297884744E+02  0.51989104530E+02  0.18863184765E+03  0.17300000000E+03 0. -1.
         -6    1    1    2    0  502  0.35278770885E+02  0.41297884744E+02  0.79559175597E+02  0.19801204353E+03  0.17300000000E+03 0. -1.
<mgrwt>
<rscale>  2 0.18132597E+03</rscale>
<asrwt>0</asrwt>
<pdfrwt beam="1">  1       21 0.39860936E-01 0.18132597E+03</pdfrwt>
<pdfrwt beam="2">  1       21 0.19622739E-01 0.18132597E+03</pdfrwt>
<totfact> 0.14562476E+05</totfact>
</mgrwt>
</event>
<event>
 4    1  0.4336176E+000  0.2203389E+03  0.7546771E-02  0.1133631E+00
         21   -1    0    0  503  502  0.00000000000E+00  0.00000000000E+00  0.66150084194E+03  0.66150084194E+03  0.00000000000E+00 0.  1.
         21   -1    0    0  501  503 -0.00000000000E+00 -0.00000000000E+00 -0.74941176987E+02  0.74941176987E+02  0.00000000000E+00 0.  1.
          6    1    1    2  501    0  0.11373939328E+03  0.75389478540E+02  0.24034714315E+03  0.32606130141E+03  0.17300000000E+03 0.  1.
         -6    1    1    2    0  502 -0.11373939328E+03 -0.75389478540E+02  0.34621252180E+03  0.41038071752E+03  0.17300000000E+03 0.  1.
<mgrwt>
<rscale>  2 0.22033888E+03</rscale>
<asrwt>0</asrwt>
<pdfrwt beam="1">  1       21 0.10176936E+00 0.22033888E+03</pdfrwt>
<pdfrwt beam="2">  1       21 0.11529412E-01 0.22033888E+03</pdfrwt>
<totfact> 0.48942535E+04</totfact>
</mgrwt>
</event>
<event>
 4    1  0.4336176E+000  0.1806116E+03  0.7546771E-02  0.1167212E+00
         21   -1    0    0  501  502  0.00000000000E+00  0.00000000000E+00  0.31175388077E+02  0.31175388077E+02  0.00000000000E+00 0.  1.
         21   -1    0    0  502  503 -0.00000000000E+00 -0.00000000000E+00 -0.12333466666E+04  0.12333466666E+04  0.00000000000E+00 0.  1.
          6    1    1    2  501    0  0.51095035943E+02  0.89918433500E+01 -0.35489942124E+03  0.39821370537E+03  0.17300000000E+03 0.  1.
         -6    1    1    2    0  503 -0.51095035943E+02 -0.89918433500E+01 -0.84727185733E+03  0.86630834936E+03  0.17300000000E+03 0.  1.
<mgrwt>
<rscale>  2 0.18061162E+03</rscale>
<asrwt>0</asrwt>
<pdfrwt beam="1">  1       21 0.47962134E-02 0.18061162E+03</pdfrwt>
<pdfrwt beam="2">  1       21 0.18974565E+00 0.18061162E+03</pdfrwt>
<totfact> 0.45545702E+04</totfact>
</mgrwt>
</event>
<event>
 4    1  0.4336176E+000  0.1759813E+03  0.7546771E-02  0.1171750E+00
         21   -1    0    0  501  502  0.00000000000E+00  0.00000000000E+00  0.19551800084E+03  0.19551800084E+03  0.00000000000E+00 0.  1.
         21   -1    0    0  502  503 -0.00000000000E+00 -0.00000000000E+00 -0.23967596093E+03  0.23967596093E+03  0.00000000000E+00 0.  1.
          6    1    1    2  501    0  0.52154698918E+01  0.31831186899E+02  0.10463666355E+03  0.20473948555E+03  0.17300000000E+03 0.  1.
         -6    1    1    2    0  503 -0.52154698918E+01 -0.31831186899E+02 -0.14879462363E+03  0.23045447621E+03  0.17300000000E+03 0.  1.
<mgrwt>
<rscale>  2 0.17598132E+03</rscale>
<asrwt>0</asrwt>
<pdfrwt beam="1">  1       21 0.30079693E-01 0.17598132E+03</pdfrwt>
<pdfrwt beam="2">  1       21 0.36873224E-01 0.17598132E+03</pdfrwt>
<totfact> 0.75722330E+04</totfact>
</mgrwt>
</event>
<event>
 4    1  0.4336176E+000  0.1857862E+03  0.7546771E-02  0.1162318E+00
         21   -1    0    0  503  502  0.00000000000E+00  0.00000000000E+00  0.12606185316E+03  0.12606185316E+03  0.00000000000E+00 0. -1.
         21   -1    0    0  501  503 -0.00000000000E+00 -0.00000000000E+00 -0.10402984220E+04  0.10402984220E+04  0.00000000000E+00 0. -1.
          6    1    1    2  501    0  0.39946869766E+01  0.67613197954E+02 -0.95770309070E+03  0.97555712902E+03  0.17300000000E+03 0. -1.
         -6    1    1    2    0  502 -0.39946869766E+01 -0.67613197954E+02  0.43466521840E+02  0.19080314615E+03  0.17300000000E+03 0. -1.
<mgrwt>
<rscale>  2 0.18578617E+03</rscale>
<asrwt>0</asrwt>
<pdfrwt beam="1">  1       21 0.19394132E-01 0.18578617E+03</pdfrwt>
<pdfrwt beam="2">  1       21 0.16004590E+00 0.18578617E+03</pdfrwt>
<totfact> 0.61837357E+03</totfact>
</mgrwt>
</event>
<event>
 4    1  0.4336176E+000  0.2052988E+03  0.7546771E-02  0.1145344E+00
         21   -1    0    0  503  502  0.00000000000E+00  0.00000000000E+00  0.21894917241E+03  0.21894917241E+03  0.00000000000E+00 0.  1.
         21   -1    0    0  501  503 -0.00000000000E+00 -0.00000000000E+00 -0.13220464651E+04  0.13220464651E+04  0.00000000000E+00 0.  1.
          6    1    1    2  501    0  0.80305372240E+02 -0.75958082549E+02 -0.12637457788E+04  0.12803128433E+04  0.17300000000E+03 0.  1.
         -6    1    1    2    0  502 -0.80305372240E+02  0.75958082549E+02  0.16064848615E+03  0.26068279425E+03  0.17300000000E+03 0.  1.
<mgrwt>
<rscale>  2 0.20529877E+03</rscale>
<asrwt>0</asrwt>
<pdfrwt beam="1">  1       21 0.33684489E-01 0.20529877E+03</pdfrwt>
<pdfrwt beam="2">  1       21 0.20339176E+00 0.20529877E+03</pdfrwt>
<totfact> 0.10693653E+03</totfact>
</mgrwt>
</event>
<event>
 4    1  0.4336176E+000  0.1853324E+03  0.7546771E-02  0.1162740E+00
         21   -1    0    0  501  502  0.00000000000E+00  0.00000000000E+00  0.12560421517E+03  0.12560421517E+03  0.00000000000E+00 0. -1.
         21   -1    0    0  502  503 -0.00000000000E+00 -0.00000000000E+00 -0.27402387578E+03  0.27402387578E+03  0.00000000000E+00 0.  1.
          6    1    1    2  501    0  0.34283123111E+02  0.56954212809E+02 -0.65170501171E+02  0.19645688868E+03  0.17300000000E+03 0.  1.
         -6    1    1    2    0  503 -0.34283123111E+02 -0.56954212809E+02 -0.83249159436E+02  0.20317120227E+03  0.17300000000E+03 0.  1.
<mgrwt>
<rscale>  2 0.18533244E+03</rscale>
<asrwt>0</asrwt>
<pdfrwt beam="1">  1       21 0.19323725E-01 0.18533244E+03</pdfrwt>
<pdfrwt beam="2">  1       21 0.42157519E-01 0.18533244E+03</pdfrwt>
<totfact> 0.13360118E+05</totfact>
</mgrwt>
</event>
<event>
 4    1  0.4336176E+000  0.2213909E+03  0.7546771E-02  0.1132850E+00
         21   -1    0    0  503  502  0.00000000000E+00  0.00000000000E+00  0.29980471208E+03  0.29980471208E+03  0.00000000000E+00 0. -1.
         21   -1    0    0  501  503 -0.00000000000E+00 -0.00000000000E+00 -0.20390066528E+03  0.20390066528E+03  0.00000000000E+00 0. -1.
          6    1    1    2  501    0 -0.12488013319E+03  0.59075284013E+02 -0.64173793964E+02  0.23050425740E+03  0.17300000000E+03 0. -1.
         -6    1    1    2    0  502  0.12488013319E+03 -0.59075284013E+02  0.16007784077E+03  0.27320111997E+03  0.17300000000E+03 0. -1.
<mgrwt>
<rscale>  2 0.22139091E+03</rscale>
<asrwt>0</asrwt>
<pdfrwt beam="1">  1       21 0.46123802E-01 0.22139091E+03</pdfrwt>
<pdfrwt beam="2">  1       21 0.31369333E-01 0.22139091E+03</pdfrwt>
<totfact> 0.43374999E+04</totfact>
</mgrwt>
</event>
<event>
 4    1  0.4336176E+000  0.1855829E+03  0.7546771E-02  0.1162507E+00
         21   -1    0    0  501  502  0.00000000000E+00  0.00000000000E+00  0.23013816898E+03  0.23013816898E+03  0.00000000000E+00 0.  1.
         21   -1    0    0  502  503 -0.00000000000E+00 -0.00000000000E+00 -0.28478468068E+03  0.28478468068E+03  0.00000000000E+00 0.  1.
          6    1    1    2  501    0  0.66841232740E+02  0.66542672942E+01  0.15002679308E+03  0.23864003920E+03  0.17300000000E+03 0.  1.
         -6    1    1    2    0  503 -0.66841232740E+02 -0.66542672942E+01 -0.20467330478E+03  0.27628281046E+03  0.17300000000E+03 0.  1.
<mgrwt>
<rscale>  2 0.18558295E+03</rscale>
<asrwt>0</asrwt>
<pdfrwt beam="1">  1       21 0.35405872E-01 0.18558295E+03</pdfrwt>
<pdfrwt beam="2">  1       21 0.43813028E-01 0.18558295E+03</pdfrwt>
<totfact> 0.38635534E+04</totfact>
</mgrwt>
</event>
<event>
 4    1  0.4336176E+000  0.1993530E+03  0.7546771E-02  0.1150286E+00
         21   -1    0    0  501  502  0.00000000000E+00  0.00000000000E+00  0.14722753612E+03  0.14722753612E+03  0.00000000000E+00 0. -1.
         21   -1    0    0  502  503 -0.00000000000E+00 -0.00000000000E+00 -0.32213063363E+03  0.32213063363E+03  0.00000000000E+00 0.  1.
          6    1    1    2  501    0 -0.93069626931E+02 -0.33921514793E+02 -0.18191901147E+03  0.26988173587E+03  0.17300000000E+03 0.  1.
         -6    1    1    2    0  503  0.93069626931E+02  0.33921514793E+02  0.70159139589E+01  0.19947643388E+03  0.17300000000E+03 0. -1.
<mgrwt>
<rscale>  2 0.19935302E+03</rscale>
<asrwt>0</asrwt>
<pdfrwt beam="1">  1       21 0.22650390E-01 0.19935302E+03</pdfrwt>
<pdfrwt beam="2">  1       21 0.49558559E-01 0.19935302E+03</pdfrwt>
<totfact> 0.70703973E+04</totfact>
</mgrwt>
</event>
<event>
 4    1  0.4336176E+000  0.2906739E+03  0.7546771E-02  0.1089998E+00
         21   -1    0    0  503  502  0.00000000000E+00  0.00000000000E+00  0.93911041734E+03  0.93911041734E+03  0.00000000000E+00 0. -1.
         21   -1    0    0  501  503 -0.00000000000E+00 -0.00000000000E+00 -0.13276102619E+04  0.13276102619E+04  0.00000000000E+00 0.  1.
          6    1    1    2  501    0  0.14383651388E+02 -0.23314247550E+03 -0.12885338267E+04  0.13209128381E+04  0.17300000000E+03 0.  1.
         -6    1    1    2    0  502 -0.14383651388E+02  0.23314247550E+03  0.90003398215E+03  0.94580784113E+03  0.17300000000E+03 0. -1.
<mgrwt>
<rscale>  2 0.29067388E+03</rscale>
<asrwt>0</asrwt>
<pdfrwt beam="1">  1       21 0.14447853E+00 0.29067388E+03</pdfrwt>
<pdfrwt beam="2">  1       21 0.20424773E+00 0.29067388E+03</pdfrwt>
<totfact> 0.36604229E+01</totfact>
</mgrwt>
</event>
<event>
 4    1  0.4336176E+000  0.2147086E+03  0.7546771E-02  0.1137891E+00
         21   -1    0    0  501  502  0.00000000000E+00  0.00000000000E+00  0.38112880415E+03  0.38112880415E+03  0.00000000000E+00 0. -1.
         21   -1    0    0  502  503 -0.00000000000E+00 -0.00000000000E+00 -0.12839329939E+03  0.12839329939E+03  0.00000000000E+00 0.  1.
          6    1    1    2  501    0 -0.65100583406E+02 -0.10923692580E+03  0.18768339757E+03  0.28517512101E+03  0.17300000000E+03 0.  1.
         -6    1    1    2    0  503  0.65100583406E+02  0.10923692580E+03  0.65052107191E+02  0.22434698253E+03  0.17300000000E+03 0.  1.
<mgrwt>
<rscale>  2 0.21470862E+03</rscale>
<asrwt>0</asrwt>
<pdfrwt beam="1">  1       21 0.58635200E-01 0.21470862E+03</pdfrwt>
<pdfrwt beam="2">  1       21 0.19752815E-01 0.21470862E+03</pdfrwt>
<totfact> 0.63672214E+04</totfact>
</mgrwt>
</event>
<event>
 4    1  0.4336176E+000  0.1884643E+03  0.7546771E-02  0.1159854E+00
         21   -1    0    0  503  502  0.00000000000E+00  0.00000000000E+00  0.73098618136E+03  0.73098618136E+03  0.00000000000E+00 0.  1.
         21   -1    0    0  501  503 -0.00000000000E+00 -0.00000000000E+00 -0.10794504200E+03  0.10794504200E+03  0.00000000000E+00 0.  1.
          6    1    1    2  501    0 -0.68372327258E+02 -0.30249222915E+02  0.47575918462E+00  0.18846489585E+03  0.17300000000E+03 0.  1.
         -6    1    1    2    0  502  0.68372327258E+02  0.30249222915E+02  0.62256538017E+03  0.65046632750E+03  0.17300000000E+03 0.  1.
<mgrwt>
<rscale>  2 0.18846430E+03</rscale>
<asrwt>0</asrwt>
<pdfrwt beam="1">  1       21 0.11245941E+00 0.18846430E+03</pdfrwt>
<pdfrwt beam="2">  1       21 0.16606930E-01 0.18846430E+03</pdfrwt>
<totfact> 0.20212620E+04</totfact>
</mgrwt>
</event>
<event>
 4    1  0.4336176E+000  0.2029347E+03  0.7546771E-02  0.1147286E+00
         21   -1    0    0  503  502  0.00000000000E+00  0.00000000000E+00  0.24215708454E+03  0.24215708454E+03  0.00000000000E+00 0.  1.
         21   -1    0    0  501  503 -0.00000000000E+00 -0.00000000000E+00 -0.17607148796E+03  0.17607148796E+03  0.00000000000E+00 0.  1.
          6    1    1    2  501    0 -0.96375929201E+02  0.44330469416E+02 -0.55796400661E+01  0.20301143473E+03  0.17300000000E+03 0.  1.
         -6    1    1    2    0  502  0.96375929201E+02 -0.44330469416E+02  0.71665236639E+02  0.21521713777E+03  0.17300000000E+03 0.  1.
<mgrwt>
<rscale>  2 0.20293474E+03</rscale>
<asrwt>0</asrwt>
<pdfrwt beam="1">  1       21 0.37254936E-01 0.20293474E+03</pdfrwt>
<pdfrwt beam="2">  1       21 0.27087921E-01 0.20293474E+03</pdfrwt>
<totfact> 0.89864304E+04</totfact>
</mgrwt>
</event>
<event>
 4    1  0.4336176E+000  0.2361397E+03  0.7546771E-02  0.1122391E+00
         21   -1    0    0  501  502  0.00000000000E+00  0.00000000000E+00  0.80568277226E+03  0.80568277226E+03  0.00000000000E+00 0. -1.
         21   -1    0    0  502  503 -0.00000000000E+00 -0.00000000000E+00 -0.69523835621E+02  0.69523835621E+02  0.00000000000E+00 0. -1.
          6    1    1    2  501    0  0.15781394178E+03  0.30458424680E+02  0.39744277033E+03  0.46230153746E+03  0.17300000000E+03 0. -1.
         -6    1    1    2    0  503 -0.15781394178E+03 -0.30458424680E+02  0.33871616631E+03  0.41290507042E+03  0.17300000000E+03 0. -1.
<mgrwt>
<rscale>  2 0.23613970E+03</rscale>
<asrwt>0</asrwt>
<pdfrwt beam="1">  1       21 0.12395119E+00 0.23613970E+03</pdfrwt>
<pdfrwt beam="2">  1       21 0.10695975E-01 0.23613970E+03</pdfrwt>
<totfact> 0.34272592E+04</totfact>
</mgrwt>
</event>
<event>
 4    1  0.4336176E+000  0.1867550E+03  0.7546771E-02  0.1161421E+00
         21   -1    0    0  503  502  0.00000000000E+00  0.00000000000E+00  0.37296984037E+03  0.37296984037E+03  0.00000000000E+00 0. -1.
         21   -1    0    0  501  503 -0.00000000000E+00 -0.00000000000E+00 -0.11802566920E+03  0.11802566920E+03  0.00000000000E+00 0.  1.
          6    1    1    2  501    0  0.36368756393E+02 -0.60214289734E+02  0.15591037014E+02  0.18740471596E+03  0.17300000000E+03 0.  1.
         -6    1    1    2    0  502 -0.36368756393E+02  0.60214289734E+02  0.23935313416E+03  0.30359079361E+03  0.17300000000E+03 0. -1.
<mgrwt>
<rscale>  2 0.18675505E+03</rscale>
<asrwt>0</asrwt>
<pdfrwt beam="1">  1       21 0.57379975E-01 0.18675505E+03</pdfrwt>
<pdfrwt beam="2">  1       21 0.18157795E-01 0.18675505E+03</pdfrwt>
<totfact> 0.78951082E+04</totfact>
</mgrwt>
</event>
<event>
 4    1  0.4336176E+000  0.1812231E+03  0.7546771E-02  0.1166625E+00
         21   -1    0    0  503  502  0.00000000000E+00  0.00000000000E+00  0.18406659589E+02  0.18406659589E+02  0.00000000000E+00 0. -1.
         21   -1    0    0  501  503 -0.00000000000E+00 -0.00000000000E+00 -0.18453020892E+04  0.18453020892E+04  0.00000000000E+00 0. -1.
          6    1    1    2  501    0  0.53782165175E+02  0.45054599073E+01 -0.10829654652E+04  0.10980236880E+04  0.17300000000E+03 0. -1.
         -6    1    1    2    0  502 -0.53782165175E+02 -0.45054599073E+01 -0.74392996440E+03  0.76568506084E+03  0.17300000000E+03 0. -1.
<mgrwt>
<rscale>  2 0.18122312E+03</rscale>
<asrwt>0</asrwt>
<pdfrwt beam="1">  1       21 0.28317934E-02 0.18122312E+03</pdfrwt>
<pdfrwt beam="2">  1       21 0.28389266E+00 0.18122312E+03</pdfrwt>
<totfact> 0.29733212E+04</totfact>
</mgrwt>
</event>
<event>
 4    1  0.4336176E+000  0.2016177E+03  0.7546771E-02  0.1148381E+00
         21   -1    0    0  501  502  0.00000000000E+00  0.00000000000E+00  0.58791121783E+03  0.58791121783E+03  0.00000000000E+00 0. -1.
         21   -1    0    0  502  503 -0.00000000000E+00 -0.00000000000E+00 -0.10196417904E+03  0.10196417904E+03  0.00000000000E+00 0.  1.
          6    1    1    2  501    0 -0.88570145139E+02  0.53628574554E+02  0.43867619277E+03  0.48279032377E+03  0.17300000000E+03 0. -1.
         -6    1    1    2    0  503  0.88570145139E+02 -0.53628574554E+02  0.47270846020E+02  0.20708507310E+03  0.17300000000E+03 0.  1.
<mgrwt>
<rscale>  2 0.20161769E+03</rscale>
<asrwt>0</asrwt>
<pdfrwt beam="1">  1       21 0.90447878E-01 0.20161769E+03</pdfrwt>
<pdfrwt beam="2">  1       21 0.15686797E-01 0.20161769E+03</pdfrwt>
<totfact> 0.37364839E+04</totfact>
</mgrwt>
</event>
<event>
 4    1  0.4336176E+000  0.2163484E+03  0.7546771E-02  0.1136635E+00
         21   -1    0    0  503  502  0.00000000000E+00  0.00000000000E+00  0.45352314319E+02  0.45352314319E+02  0.00000000000E+00 0.  1.
         21   -1    0    0  501  503 -0.00000000000E+00 -0.00000000000E+00 -0.10836220045E+04  0.10836220045E+04  0.00000000000E+00 0.  1.
          6    1    1    2  501    0 -0.97728972551E+02 -0.85596106480E+02 -0.64226058481E+03  0.67772066836E+03  0.17300000000E+03 0.  1.
         -6    1    1    2    0  502  0.97728972551E+02  0.85596106480E+02 -0.39600910539E+03  0.45125365048E+03  0.17300000000E+03 0.  1.
<mgrwt>
<rscale>  2 0.21634844E+03</rscale>
<asrwt>0</asrwt>
<pdfrwt beam="1">  1       21 0.69772794E-02 0.21634844E+03</pdfrwt>
<pdfrwt beam="2">  1       21 0.16671107E+00 0.21634844E+03</pdfrwt>
<totfact> 0.33742880E+04</totfact>
</mgrwt>
</event>
<event>
 4    1  0.4336176E+000  0.2017382E+03  0.7546771E-02  0.1148281E+00
         21   -1    0    0  501  502  0.00000000000E+00  0.00000000000E+00  0.76942352466E+02  0.76942352466E+02  0.00000000000E+00 0.  1.
         21   -1    0    0  502  503 -0.00000000000E+00 -0.00000000000E+00 -0.53099484301E+03  0.53099484301E+03  0.00000000000E+00 0.  1.
          6    1    1    2  501    0  0.30658755487E+02  0.99143139565E+02 -0.20814299753E+03  0.28986519079E+03  0.17300000000E+03 0.  1.
         -6    1    1    2    0  503 -0.30658755487E+02 -0.99143139565E+02 -0.24590949302E+03  0.31807200469E+03  0.17300000000E+03 0.  1.
<mgrwt>
<rscale>  2 0.20173825E+03</rscale>
<asrwt>0</asrwt>
<pdfrwt beam="1">  1       21 0.11837285E-01 0.20173825E+03</pdfrwt>
<pdfrwt beam="2">  1       21 0.81691513E-01 0.20173825E+03</pdfrwt>
<totfact> 0.78555131E+04</totfact>
</mgrwt>
</event>
<event>
 4    1  0.4336176E+000  0.2378810E+03  0.7546771E-02  0.1121213E+00
         21   -1    0    0  503  502  0.00000000000E+00  0.00000000000E+00  0.10811385711E+04  0.10811385711E+04  0.00000000000E+00 0. -1.
         21   -1    0    0  501  503 -0.00000000000E+00 -0.00000000000E+00 -0.24125154315E+03  0.24125154315E+03  0.00000000000E+00 0. -1.
          6    1    1    2  501    0  0.15557892395E+03  0.49533460894E+02 -0.16514717570E+03  0.28958756010E+03  0.17300000000E+03 0. -1.
         -6    1    1    2    0  502 -0.15557892395E+03 -0.49533460894E+02  0.10050342036E+04  0.10328025541E+04  0.17300000000E+03 0. -1.
<mgrwt>
<rscale>  2 0.23788099E+03</rscale>
<asrwt>0</asrwt>
<pdfrwt beam="1">  1       21 0.16632901E+00 0.23788099E+03</pdfrwt>
<pdfrwt beam="2">  1       21 0.37115623E-01 0.23788099E+03</pdfrwt>
<totfact> 0.15204581E+03</totfact>
</mgrwt>
</event>
<event>
 4    1  0.4336176E+000  0.4296199E+03  0.7546771E-02  0.1033980E+00
         21   -1    0    0  501  502  0.00000000000E+00  0.00000000000E+00  0.15423908518E+04  0.15423908518E+04  0.00000000000E+00 0. -1.
         21   -1    0    0  502  503 -0.00000000000E+00 -0.00000000000E+00 -0.27881051224E+03  0.27881051224E+03  0.00000000000E+00 0.  1.
          6    1    1    2  501    0 -0.23188886272E+03 -0.31760323653E+03  0.13197576200E+04  0.13879241463E+04  0.17300000000E+03 0. -1.
         -6    1    1    2    0  503  0.23188886272E+03  0.31760323653E+03 -0.56177280449E+02  0.43327721766E+03  0.17300000000E+03 0.  1.
<mgrwt>
<rscale>  2 0.42961990E+03</rscale>
<asrwt>0</asrwt>
<pdfrwt beam="1">  1       21 0.23729090E+00 0.42961990E+03</pdfrwt>
<pdfrwt beam="2">  1       21 0.42893926E-01 0.42961990E+03</pdfrwt>
<totfact> 0.33760382E+02</totfact>
</mgrwt>
</event>
<event>
 4    1  0.4336176E+000  0.1947763E+03  0.7546771E-02  0.1154223E+00
         21   -1    0    0  501  502  0.00000000000E+00  0.00000000000E+00  0.37374358915E+02  0.37374358915E+02  0.00000000000E+00 0.  1.
         21   -1    0    0  502  503 -0.00000000000E+00 -0.00000000000E+00 -0.10707200357E+04  0.10707200357E+04  0.00000000000E+00 0. -1.
          6    1    1    2  501    0 -0.83054457697E+02 -0.33328028973E+02 -0.39036811267E+03  0.43626260881E+03  0.17300000000E+03 0.  1.
         -6    1    1    2    0  503  0.83054457697E+02  0.33328028973E+02 -0.64297756412E+03  0.67183178581E+03  0.17300000000E+03 0.  1.
<mgrwt>
<rscale>  2 0.19477628E+03</rscale>
<asrwt>0</asrwt>
<pdfrwt beam="1">  1       21 0.57499023E-02 0.19477628E+03</pdfrwt>
<pdfrwt beam="2">  1       21 0.16472613E+00 0.19477628E+03</pdfrwt>
<totfact> 0.49266156E+04</totfact>
</mgrwt>
</event>
<event>
 4    1  0.4336176E+000  0.1925363E+03  0.7546771E-02  0.1156193E+00
         21   -1    0    0  503  502  0.00000000000E+00  0.00000000000E+00  0.24512363182E+03  0.24512363182E+03  0.00000000000E+00 0. -1.
         21   -1    0    0  501  503 -0.00000000000E+00 -0.00000000000E+00 -0.15377269850E+03  0.15377269850E+03  0.00000000000E+00 0. -1.
          6    1    1    2  501    0 -0.83983862745E+02  0.93769153184E+01  0.71319067482E+02  0.20532078592E+03  0.17300000000E+03 0. -1.
         -6    1    1    2    0  502  0.83983862745E+02 -0.93769153184E+01  0.20031865841E+02  0.19357554440E+03  0.17300000000E+03 0. -1.
<mgrwt>
<rscale>  2 0.19253627E+03</rscale>
<asrwt>0</asrwt>
<pdfrwt beam="1">  1       21 0.37711328E-01 0.19253627E+03</pdfrwt>
<pdfrwt beam="2">  1       21 0.23657338E-01 0.19253627E+03</pdfrwt>
<totfact> 0.11411150E+05</totfact>
</mgrwt>
</event>
<event>
 4    1  0.4336176E+000  0.1880159E+03  0.7546771E-02  0.1160263E+00
         21   -1    0    0  503  502  0.00000000000E+00  0.00000000000E+00  0.11458296413E+03  0.11458296413E+03  0.00000000000E+00 0. -1.
         21   -1    0    0  501  503 -0.00000000000E+00 -0.00000000000E+00 -0.48885023451E+03  0.48885023451E+03  0.00000000000E+00 0. -1.
          6    1    1    2  501    0  0.59501637965E+02  0.43365094407E+02 -0.38778255991E+01  0.18805587963E+03  0.17300000000E+03 0. -1.
         -6    1    1    2    0  502 -0.59501637965E+02 -0.43365094407E+02 -0.37038944478E+03  0.41537731900E+03  0.17300000000E+03 0. -1.
<mgrwt>
<rscale>  2 0.18801589E+03</rscale>
<asrwt>0</asrwt>
<pdfrwt beam="1">  1       21 0.17628149E-01 0.18801589E+03</pdfrwt>
<pdfrwt beam="2">  1       21 0.75207727E-01 0.18801589E+03</pdfrwt>
<totfact> 0.46212236E+04</totfact>
</mgrwt>
</event>
<event>
 4    1  0.4336176E+000  0.2138598E+03  0.7546771E-02  0.1138545E+00
         21   -1    0    0  503  502  0.00000000000E+00  0.00000000000E+00  0.48663713441E+03  0.48663713441E+03  0.00000000000E+00 0.  1.
         21   -1    0    0  501  503 -0.00000000000E+00 -0.00000000000E+00 -0.11293078636E+03  0.11293078636E+03  0.00000000000E+00 0.  1.
          6    1    1    2  501    0 -0.12069729842E+03  0.35201854226E+02  0.64060556319E+02  0.22324820999E+03  0.17300000000E+03 0.  1.
         -6    1    1    2    0  502  0.12069729842E+03 -0.35201854226E+02  0.30964579173E+03  0.37631971078E+03  0.17300000000E+03 0.  1.
<mgrwt>
<rscale>  2 0.21385979E+03</rscale>
<asrwt>0</asrwt>
<pdfrwt beam="1">  1       21 0.74867251E-01 0.21385979E+03</pdfrwt>
<pdfrwt beam="2">  1       21 0.17373967E-01 0.21385979E+03</pdfrwt>
<totfact> 0.47341817E+04</totfact>
</mgrwt>
</event>
<event>
 4    1  0.4336176E+000  0.2550996E+03  0.7546771E-02  0.1110124E+00
         21   -1    0    0  501  502  0.00000000000E+00  0.00000000000E+00  0.88110656597E+02  0.88110656597E+02  0.00000000000E+00 0. -1.
         21   -1    0    0  502  503 -0.00000000000E+00 -0.00000000000E+00 -0.75610057172E+03  0.75610057172E+03  0.00000000000E+00 0. -1.
          6    1    1    2  501    0 -0.15741749199E+03  0.10181622019E+03 -0.39826970424E+03  0.47296359986E+03  0.17300000000E+03 0. -1.
         -6    1    1    2    0  503  0.15741749199E+03 -0.10181622019E+03 -0.26972021088E+03  0.37124762845E+03  0.17300000000E+03 0. -1.
<mgrwt>
<rscale>  2 0.25509961E+03</rscale>
<asrwt>0</asrwt>
<pdfrwt beam="1">  1       21 0.13555486E-01 0.25509961E+03</pdfrwt>
<pdfrwt beam="2">  1       21 0.11632316E+00 0.25509961E+03</pdfrwt>
<totfact> 0.25977819E+04</totfact>
</mgrwt>
</event>
<event>
 4    1  0.4336176E+000  0.1791602E+03  0.7546771E-02  0.1168618E+00
         21   -1    0    0  503  502  0.00000000000E+00  0.00000000000E+00  0.22904303910E+03  0.22904303910E+03  0.00000000000E+00 0. -1.
         21   -1    0    0  501  503 -0.00000000000E+00 -0.00000000000E+00 -0.14602900510E+03  0.14602900510E+03  0.00000000000E+00 0. -1.
          6    1    1    2  501    0 -0.38189945299E+02 -0.26663098088E+02  0.79163313338E+02  0.19587042375E+03  0.17300000000E+03 0. -1.
         -6    1    1    2    0  502  0.38189945299E+02  0.26663098088E+02  0.38507206597E+01  0.17920162045E+03  0.17300000000E+03 0. -1.
<mgrwt>
<rscale>  2 0.17916024E+03</rscale>
<asrwt>0</asrwt>
<pdfrwt beam="1">  1       21 0.35237391E-01 0.17916024E+03</pdfrwt>
<pdfrwt beam="2">  1       21 0.22466001E-01 0.17916024E+03</pdfrwt>
<totfact> 0.14470259E+05</totfact>
</mgrwt>
</event>
<event>
 4    1  0.4336176E+000  0.2656277E+03  0.7546771E-02  0.1103808E+00
         21   -1    0    0  503  502  0.00000000000E+00  0.00000000000E+00  0.59164903069E+03  0.59164903069E+03  0.00000000000E+00 0. -1.
         21   -1    0    0  501  503 -0.00000000000E+00 -0.00000000000E+00 -0.57517165960E+03  0.57517165960E+03  0.00000000000E+00 0.  1.
          6    1    1    2  501    0  0.20066290602E+03 -0.19064406526E+02 -0.51117974301E+03  0.57607532763E+03  0.17300000000E+03 0.  1.
         -6    1    1    2    0  502 -0.20066290602E+03  0.19064406526E+02  0.52765711409E+03  0.59074536265E+03  0.17300000000E+03 0. -1.
<mgrwt>
<rscale>  2 0.26562766E+03</rscale>
<asrwt>0</asrwt>
<pdfrwt beam="1">  1       21 0.91022928E-01 0.26562766E+03</pdfrwt>
<pdfrwt beam="2">  1       21 0.88487947E-01 0.26562766E+03</pdfrwt>
<totfact> 0.10500494E+03</totfact>
</mgrwt>
</event>
<event>
 4    1  0.4336176E+000  0.2138395E+03  0.7546771E-02  0.1138561E+00
         21   -1    0    0  501  502  0.00000000000E+00  0.00000000000E+00  0.38456736313E+03  0.38456736313E+03  0.00000000000E+00 0. -1.
         21   -1    0    0  502  503 -0.00000000000E+00 -0.00000000000E+00 -0.11976959607E+03  0.11976959607E+03  0.00000000000E+00 0.  1.
          6    1    1    2  501    0 -0.27729327969E+02 -0.12259453852E+03  0.15381263197E+03  0.26341158338E+03  0.17300000000E+03 0. -1.
         -6    1    1    2    0  503  0.27729327969E+02  0.12259453852E+03  0.11098513509E+03  0.24092537582E+03  0.17300000000E+03 0. -1.
<mgrwt>
<rscale>  2 0.21383951E+03</rscale>
<asrwt>0</asrwt>
<pdfrwt beam="1">  1       21 0.59164209E-01 0.21383951E+03</pdfrwt>
<pdfrwt beam="2">  1       21 0.18426092E-01 0.21383951E+03</pdfrwt>
<totfact> 0.71126211E+04</totfact>
</mgrwt>
</event>
<event>
 4    1  0.4336176E+000  0.1853808E+03  0.7546771E-02  0.1162695E+00
         21   -1    0    0  503  502  0.00000000000E+00  0.00000000000E+00  0.12917090332E+03  0.12917090332E+03  0.00000000000E+00 0. -1.
         21   -1    0    0  501  503 -0.00000000000E+00 -0.00000000000E+00 -0.28440615241E+03  0.28440615241E+03  0.00000000000E+00 0. -1.
          6    1    1    2  501    0 -0.66420119931E+02  0.50406191108E+01 -0.25084085107E+02  0.18707017800E+03  0.17300000000E+03 0. -1.
         -6    1    1    2    0  502  0.66420119931E+02 -0.50406191108E+01 -0.13015116398E+03  0.22650687773E+03  0.17300000000E+03 0. -1.
<mgrwt>
<rscale>  2 0.18538080E+03</rscale>
<asrwt>0</asrwt>
<pdfrwt beam="1">  1       21 0.19872447E-01 0.18538080E+03</pdfrwt>
<pdfrwt beam="2">  1       21 0.43754792E-01 0.18538080E+03</pdfrwt>
<totfact> 0.11755299E+05</totfact>
</mgrwt>
</event>
<event>
 4    1  0.4336176E+000  0.1944963E+03  0.7546771E-02  0.1154467E+00
         21   -1    0    0  501  502  0.00000000000E+00  0.00000000000E+00  0.18664784343E+04  0.18664784343E+04  0.00000000000E+00 0.  1.
         21   -1    0    0  502  503 -0.00000000000E+00 -0.00000000000E+00 -0.24393973683E+02  0.24393973683E+02  0.00000000000E+00 0.  1.
          6    1    1    2  501    0  0.59357952335E+02 -0.66154683044E+02  0.13098918760E+04  0.13242528216E+04  0.17300000000E+03 0.  1.
         -6    1    1    2    0  503 -0.59357952335E+02  0.66154683044E+02  0.53219258456E+03  0.56661958637E+03  0.17300000000E+03 0.  1.
<mgrwt>
<rscale>  2 0.19449629E+03</rscale>
<asrwt>0</asrwt>
<pdfrwt beam="1">  1       21 0.28715042E+00 0.19449629E+03</pdfrwt>
<pdfrwt beam="2">  1       21 0.37529205E-02 0.19449629E+03</pdfrwt>
<totfact> 0.17613868E+04</totfact>
</mgrwt>
</event>
<event>
 4    1  0.4336176E+000  0.2497085E+03  0.7546771E-02  0.1113489E+00
         21   -1    0    0  503  502  0.00000000000E+00  0.00000000000E+00  0.76427664927E+03  0.76427664927E+03  0.00000000000E+00 0. -1.
         21   -1    0    0  501  503 -0.00000000000E+00 -0.00000000000E+00 -0.11427841794E+03  0.11427841794E+03  0.00000000000E+00 0. -1.
          6    1    1    2  501    0 -0.16440333037E+03  0.73463518352E+02  0.90046759136E+02  0.26544822922E+03  0.17300000000E+03 0. -1.
         -6    1    1    2    0  502  0.16440333037E+03 -0.73463518352E+02  0.55995147220E+03  0.61310683799E+03  0.17300000000E+03 0. -1.
<mgrwt>
<rscale>  2 0.24970852E+03</rscale>
<asrwt>0</asrwt>
<pdfrwt beam="1">  1       21 0.11758102E+00 0.24970852E+03</pdfrwt>
<pdfrwt beam="2">  1       21 0.17581296E-01 0.24970852E+03</pdfrwt>
<totfact> 0.15733247E+04</totfact>
</mgrwt>
</event>
<event>
 4    1  0.4336176E+000  0.1776791E+03  0.7546771E-02  0.1170068E+00
         21   -1    0    0  501  502  0.00000000000E+00  0.00000000000E+00  0.64461187120E+02  0.64461187120E+02  0.00000000000E+00 0.  1.
         21   -1    0    0  502  503 -0.00000000000E+00 -0.00000000000E+00 -0.53537347367E+03  0.53537347367E+03  0.00000000000E+00 0.  1.
          6    1    1    2  501    0  0.36459706146E+02 -0.17651036187E+02 -0.14790393586E+03  0.23118270587E+03  0.17300000000E+03 0.  1.
         -6    1    1    2    0  503 -0.36459706146E+02  0.17651036187E+02 -0.32300835069E+03  0.36865195492E+03  0.17300000000E+03 0.  1.
<mgrwt>
<rscale>  2 0.17767912E+03</rscale>
<asrwt>0</asrwt>
<pdfrwt beam="1">  1       21 0.99171058E-02 0.17767912E+03</pdfrwt>
<pdfrwt beam="2">  1       21 0.82365149E-01 0.17767912E+03</pdfrwt>
<totfact> 0.10663818E+05</totfact>
</mgrwt>
</event>
<event>
 4    1  0.4336176E+000  0.1903872E+03  0.7546771E-02  0.1158113E+00
         21   -1    0    0  501  502  0.00000000000E+00  0.00000000000E+00  0.43401306184E+02  0.43401306184E+02  0.00000000000E+00 0.  1.
         21   -1    0    0  502  503 -0.00000000000E+00 -0.00000000000E+00 -0.12661142911E+04  0.12661142911E+04  0.00000000000E+00 0.  1.
          6    1    1    2  501    0 -0.67981848233E+02 -0.41191750210E+02 -0.22936222611E+03  0.29808442217E+03  0.17300000000E+03 0.  1.
         -6    1    1    2    0  503  0.67981848233E+02  0.41191750210E+02 -0.99335075884E+03  0.10114311751E+04  0.17300000000E+03 0.  1.
<mgrwt>
<rscale>  2 0.19038722E+03</rscale>
<asrwt>0</asrwt>
<pdfrwt beam="1">  1       21 0.66771243E-02 0.19038722E+03</pdfrwt>
<pdfrwt beam="2">  1       21 0.19478681E+00 0.19038722E+03</pdfrwt>
<totfact> 0.23851605E+04</totfact>
</mgrwt>
</event>
<event>
 4    1  0.4336176E+000  0.1782717E+03  0.7546771E-02  0.1169486E+00
         21   -1    0    0  501  502  0.00000000000E+00  0.00000000000E+00  0.12208971203E+03  0.12208971203E+03  0.00000000000E+00 0.  1.
         21   -1    0    0  502  503 -0.00000000000E+00 -0.00000000000E+00 -0.59251075968E+03  0.59251075968E+03  0.00000000000E+00 0.  1.
          6    1    1    2  501    0 -0.42083929670E+02 -0.89860361759E+01  0.32328696762E+02  0.18117933275E+03  0.17300000000E+03 0.  1.
         -6    1    1    2    0  503  0.42083929670E+02  0.89860361759E+01 -0.50274974441E+03  0.53342113895E+03  0.17300000000E+03 0.  1.
<mgrwt>
<rscale>  2 0.17827172E+03</rscale>
<asrwt>0</asrwt>
<pdfrwt beam="1">  1       21 0.18783032E-01 0.17827172E+03</pdfrwt>
<pdfrwt beam="2">  1       21 0.91155503E-01 0.17827172E+03</pdfrwt>
<totfact> 0.26684720E+04</totfact>
</mgrwt>
</event>
<event>
 4    1  0.4336176E+000  0.1787123E+03  0.7546771E-02  0.1169055E+00
         21   -1    0    0  503  502  0.00000000000E+00  0.00000000000E+00  0.35735947422E+02  0.35735947422E+02  0.00000000000E+00 0. -1.
         21   -1    0    0  501  503 -0.00000000000E+00 -0.00000000000E+00 -0.11974287559E+04  0.11974287559E+04  0.00000000000E+00 0. -1.
          6    1    1    2  501    0 -0.28993811391E+02 -0.34182375847E+02 -0.27032466952E+03  0.32405786963E+03  0.17300000000E+03 0. -1.
         -6    1    1    2    0  502  0.28993811391E+02  0.34182375847E+02 -0.89136813899E+03  0.90910683372E+03  0.17300000000E+03 0. -1.
<mgrwt>
<rscale>  2 0.17871227E+03</rscale>
<asrwt>0</asrwt>
<pdfrwt beam="1">  1       21 0.54978381E-02 0.17871227E+03</pdfrwt>
<pdfrwt beam="2">  1       21 0.18421981E+00 0.17871227E+03</pdfrwt>
<totfact> 0.39365682E+04</totfact>
</mgrwt>
</event>
<event>
 4    1  0.4336176E+000  0.2444809E+03  0.7546771E-02  0.1116843E+00
         21   -1    0    0  503  502  0.00000000000E+00  0.00000000000E+00  0.13148679148E+04  0.13148679148E+04  0.00000000000E+00 0.  1.
         21   -1    0    0  501  503 -0.00000000000E+00 -0.00000000000E+00 -0.95655187716E+02  0.95655187716E+02  0.00000000000E+00 0. -1.
          6    1    1    2  501    0 -0.32475791355E+02  0.16966800908E+03  0.98705300573E+02  0.26365440768E+03  0.17300000000E+03 0. -1.
         -6    1    1    2    0  502  0.32475791355E+02 -0.16966800908E+03  0.11205074265E+04  0.11468686948E+04  0.17300000000E+03 0.  1.
<mgrwt>
<rscale>  2 0.24448090E+03</rscale>
<asrwt>0</asrwt>
<pdfrwt beam="1">  1       21 0.20228736E+00 0.24448090E+03</pdfrwt>
<pdfrwt beam="2">  1       21 0.14716184E-01 0.24448090E+03</pdfrwt>
<totfact> 0.50474656E+03</totfact>
</mgrwt>
</event>
<event>
 4    1  0.4336176E+000  0.2015797E+03  0.7546771E-02  0.1148413E+00
         21   -1    0    0  503  502  0.00000000000E+00  0.00000000000E+00  0.10867408633E+04  0.10867408633E+04  0.00000000000E+00 0. -1.
         21   -1    0    0  501  503 -0.00000000000E+00 -0.00000000000E+00 -0.56157954364E+02  0.56157954364E+02  0.00000000000E+00 0. -1.
          6    1    1    2  501    0 -0.77567788537E+01  0.10317559480E+03  0.18494580990E+03  0.27356776780E+03  0.17300000000E+03 0. -1.
         -6    1    1    2    0  502  0.77567788537E+01 -0.10317559480E+03  0.84563709900E+03  0.86933104982E+03  0.17300000000E+03 0. -1.
<mgrwt>
<rscale>  2 0.20157969E+03</rscale>
<asrwt>0</asrwt>
<pdfrwt beam="1">  1       21 0.16719089E+00 0.20157969E+03</pdfrwt>
<pdfrwt beam="2">  1       21 0.86396861E-02 0.20157969E+03</pdfrwt>
<totfact> 0.23294746E+04</totfact>
</mgrwt>
</event>
<event>
 4    1  0.4336176E+000  0.1848349E+03  0.7546771E-02  0.1163204E+00
         21   -1    0    0  503  502  0.00000000000E+00  0.00000000000E+00  0.26239150441E+03  0.26239150441E+03  0.00000000000E+00 0.  1.
         21   -1    0    0  501  503 -0.00000000000E+00 -0.00000000000E+00 -0.13026909443E+03  0.13026909443E+03  0.00000000000E+00 0.  1.
          6    1    1    2  501    0  0.14134676163E+02  0.63522918684E+02  0.61612103157E+02  0.19483326596E+03  0.17300000000E+03 0.  1.
         -6    1    1    2    0  502 -0.14134676163E+02 -0.63522918684E+02  0.70510306814E+02  0.19782733288E+03  0.17300000000E+03 0.  1.
<mgrwt>
<rscale>  2 0.18483493E+03</rscale>
<asrwt>0</asrwt>
<pdfrwt beam="1">  1       21 0.40367924E-01 0.18483493E+03</pdfrwt>
<pdfrwt beam="2">  1       21 0.20041399E-01 0.18483493E+03</pdfrwt>
<totfact> 0.13632005E+05</totfact>
</mgrwt>
</event>
<event>
 4    1  0.4336176E+000  0.1748957E+03  0.7546771E-02  0.1172837E+00
         21   -1    0    0  501  502  0.00000000000E+00  0.00000000000E+00  0.42180660904E+02  0.42180660904E+02  0.00000000000E+00 0.  1.
         21   -1    0    0  502  503 -0.00000000000E+00 -0.00000000000E+00 -0.18231229751E+04  0.18231229751E+04  0.00000000000E+00 0.  1.
          6    1    1    2  501    0  0.19688129974E+02  0.16488438064E+02 -0.16669907147E+03  0.24161347537E+03  0.17300000000E+03 0.  1.
         -6    1    1    2    0  503 -0.19688129974E+02 -0.16488438064E+02 -0.16142432427E+04  0.16236901607E+04  0.17300000000E+03 0.  1.
<mgrwt>
<rscale>  2 0.17489566E+03</rscale>
<asrwt>0</asrwt>
<pdfrwt beam="1">  1       21 0.64893340E-02 0.17489566E+03</pdfrwt>
<pdfrwt beam="2">  1       21 0.28048039E+00 0.17489566E+03</pdfrwt>
<totfact> 0.77724757E+03</totfact>
</mgrwt>
</event>
<event>
 4    1  0.4336176E+000  0.1821122E+03  0.7546771E-02  0.1165774E+00
         21   -1    0    0  503  502  0.00000000000E+00  0.00000000000E+00  0.14924381378E+03  0.14924381378E+03  0.00000000000E+00 0. -1.
         21   -1    0    0  501  503 -0.00000000000E+00 -0.00000000000E+00 -0.23185786631E+03  0.23185786631E+03  0.00000000000E+00 0. -1.
          6    1    1    2  501    0  0.38174568434E+02 -0.42172851100E+02 -0.24555526732E+01  0.18212873684E+03  0.17300000000E+03 0. -1.
         -6    1    1    2    0  502 -0.38174568434E+02  0.42172851100E+02 -0.80158499855E+02  0.19897294325E+03  0.17300000000E+03 0. -1.
<mgrwt>
<rscale>  2 0.18211218E+03</rscale>
<asrwt>0</asrwt>
<pdfrwt beam="1">  1       21 0.22960587E-01 0.18211218E+03</pdfrwt>
<pdfrwt beam="2">  1       21 0.35670441E-01 0.18211218E+03</pdfrwt>
<totfact> 0.13541453E+05</totfact>
</mgrwt>
</event>
<event>
 4    1  0.4336176E+000  0.2288720E+03  0.7546771E-02  0.1127436E+00
         21   -1    0    0  501  502  0.00000000000E+00  0.00000000000E+00  0.44442544921E+02  0.44442544921E+02  0.00000000000E+00 0.  1.
         21   -1    0    0  502  503 -0.00000000000E+00 -0.00000000000E+00 -0.20661893015E+04  0.20661893015E+04  0.00000000000E+00 0. -1.
          6    1    1    2  501    0 -0.11668015228E+03  0.94016759786E+02 -0.31921743475E+03  0.39278770310E+03  0.17300000000E+03 0.  1.
         -6    1    1    2    0  503  0.11668015228E+03 -0.94016759786E+02 -0.17025293219E+04  0.17178441434E+04  0.17300000000E+03 0. -1.
<mgrwt>
<rscale>  2 0.22887204E+03</rscale>
<asrwt>0</asrwt>
<pdfrwt beam="1">  1       21 0.68373167E-02 0.22887204E+03</pdfrwt>
<pdfrwt beam="2">  1       21 0.31787518E+00 0.22887204E+03</pdfrwt>
<totfact> 0.40700960E+03</totfact>
</mgrwt>
</event>
<event>
 4    1  0.4336176E+000  0.2692404E+03  0.7546771E-02  0.1101715E+00
         21   -1    0    0  501  502  0.00000000000E+00  0.00000000000E+00  0.15081594942E+03  0.15081594942E+03  0.00000000000E+00 0.  1.
         21   -1    0    0  502  503 -0.00000000000E+00 -0.00000000000E+00 -0.72823532739E+03  0.72823532739E+03  0.00000000000E+00 0.  1.
          6    1    1    2  501    0 -0.10071640945E+03 -0.18004882494E+03 -0.32434365604E+02  0.27118695132E+03  0.17300000000E+03 0.  1.
         -6    1    1    2    0  503  0.10071640945E+03  0.18004882494E+03 -0.54498501237E+03  0.60786432549E+03  0.17300000000E+03 0.  1.
<mgrwt>
<rscale>  2 0.26924037E+03</rscale>
<asrwt>0</asrwt>
<pdfrwt beam="1">  1       21 0.23202453E-01 0.26924037E+03</pdfrwt>
<pdfrwt beam="2">  1       21 0.11203621E+00 0.26924037E+03</pdfrwt>
<totfact> 0.10402053E+04</totfact>
</mgrwt>
</event>
<event>
 4    1  0.4336176E+000  0.2298846E+03  0.7546771E-02  0.1126721E+00
         21   -1    0    0  503  502  0.00000000000E+00  0.00000000000E+00  0.14204698991E+03  0.14204698991E+03  0.00000000000E+00 0. -1.
         21   -1    0    0  501  503 -0.00000000000E+00 -0.00000000000E+00 -0.37398794593E+03  0.37398794593E+03  0.00000000000E+00 0.  1.
          6    1    1    2  501    0  0.59042113513E+01  0.15127150184E+03 -0.13459963541E+03  0.26639066957E+03  0.17300000000E+03 0.  1.
         -6    1    1    2    0  502 -0.59042113513E+01 -0.15127150184E+03 -0.97341320606E+02  0.24964426627E+03  0.17300000000E+03 0. -1.
<mgrwt>
<rscale>  2 0.22988459E+03</rscale>
<asrwt>0</asrwt>
<pdfrwt beam="1">  1       21 0.21853383E-01 0.22988459E+03</pdfrwt>
<pdfrwt beam="2">  1       21 0.57536607E-01 0.22988459E+03</pdfrwt>
<totfact> 0.54472072E+04</totfact>
</mgrwt>
</event>
<event>
 4    1  0.4336176E+000  0.2167258E+03  0.7546771E-02  0.1136348E+00
         21   -1    0    0  501  502  0.00000000000E+00  0.00000000000E+00  0.14317015711E+04  0.14317015711E+04  0.00000000000E+00 0. -1.
         21   -1    0    0  502  503 -0.00000000000E+00 -0.00000000000E+00 -0.33510575830E+02  0.33510575830E+02  0.00000000000E+00 0.  1.
          6    1    1    2  501    0  0.12178762063E+03  0.46998512837E+02  0.59295506722E+03  0.63132067643E+03  0.17300000000E+03 0.  1.
         -6    1    1    2    0  503 -0.12178762063E+03 -0.46998512837E+02  0.80523592804E+03  0.83389147049E+03  0.17300000000E+03 0. -1.
<mgrwt>
<rscale>  2 0.21672583E+03</rscale>
<asrwt>0</asrwt>
<pdfrwt beam="1">  1       21 0.22026173E+00 0.21672583E+03</pdfrwt>
<pdfrwt beam="2">  1       21 0.51554743E-02 0.21672583E+03</pdfrwt>
<totfact> 0.25135152E+04</totfact>
</mgrwt>
</event>
<event>
 4    1  0.4336176E+000  0.2390488E+03  0.7546771E-02  0.1120428E+00
         21   -1    0    0  501  502  0.00000000000E+00  0.00000000000E+00  0.15400572209E+03  0.15400572209E+03  0.00000000000E+00 0.  1.
         21   -1    0    0  502  503 -0.00000000000E+00 -0.00000000000E+00 -0.64179691775E+03  0.64179691775E+03  0.00000000000E+00 0.  1.
          6    1    1    2  501    0  0.22281615998E+02  0.16345910357E+03  0.14541936390E+02  0.23949074484E+03  0.17300000000E+03 0.  1.
         -6    1    1    2    0  503 -0.22281615998E+02 -0.16345910357E+03 -0.50233313205E+03  0.55631189499E+03  0.17300000000E+03 0.  1.
<mgrwt>
<rscale>  2 0.23904884E+03</rscale>
<asrwt>0</asrwt>
<pdfrwt beam="1">  1       21 0.23693189E-01 0.23904884E+03</pdfrwt>
<pdfrwt beam="2">  1       21 0.98737985E-01 0.23904884E+03</pdfrwt>
<totfact> 0.13792111E+04</totfact>
</mgrwt>
</event>
<event>
 4    1  0.4336176E+000  0.2232867E+03  0.7546771E-02  0.1131456E+00
         21   -1    0    0  501  502  0.00000000000E+00  0.00000000000E+00  0.29608235516E+03  0.29608235516E+03  0.00000000000E+00 0. -1.
         21   -1    0    0  502  503 -0.00000000000E+00 -0.00000000000E+00 -0.17173763069E+03  0.17173763069E+03  0.00000000000E+00 0.  1.
          6    1    1    2  501    0  0.12813849887E+03 -0.59232398365E+02  0.94835865613E+02  0.24259182450E+03  0.17300000000E+03 0.  1.
         -6    1    1    2    0  503 -0.12813849887E+03  0.59232398365E+02  0.29508858856E+02  0.22522816134E+03  0.17300000000E+03 0. -1.
<mgrwt>
<rscale>  2 0.22328670E+03</rscale>
<asrwt>0</asrwt>
<pdfrwt beam="1">  1       21 0.45551131E-01 0.22328670E+03</pdfrwt>
<pdfrwt beam="2">  1       21 0.26421174E-01 0.22328670E+03</pdfrwt>
<totfact> 0.62116786E+04</totfact>
</mgrwt>
</event>
<event>
 4    1  0.4336176E+000  0.1873681E+03  0.7546771E-02  0.1160857E+00
         21   -1    0    0  501  502  0.00000000000E+00  0.00000000000E+00  0.37343999738E+02  0.37343999738E+02  0.00000000000E+00 0.  1.
         21   -1    0    0  502  503 -0.00000000000E+00 -0.00000000000E+00 -0.15233346992E+04  0.15233346992E+04  0.00000000000E+00 0.  1.
          6    1    1    2  501    0  0.71257505250E+02 -0.10008086426E+02 -0.26014726736E+03  0.32059849433E+03  0.17300000000E+03 0.  1.
         -6    1    1    2    0  503 -0.71257505250E+02  0.10008086426E+02 -0.12258434321E+04  0.12400802046E+04  0.17300000000E+03 0.  1.
<mgrwt>
<rscale>  2 0.18736807E+03</rscale>
<asrwt>0</asrwt>
<pdfrwt beam="1">  1       21 0.57452313E-02 0.18736807E+03</pdfrwt>
<pdfrwt beam="2">  1       21 0.23435916E+00 0.18736807E+03</pdfrwt>
<totfact> 0.17563221E+04</totfact>
</mgrwt>
</event>
<event>
 4    1  0.4336176E+000  0.2397847E+03  0.7546771E-02  0.1119936E+00
         21   -1    0    0  503  502  0.00000000000E+00  0.00000000000E+00  0.22000279903E+03  0.22000279903E+03  0.00000000000E+00 0.  1.
         21   -1    0    0  501  503 -0.00000000000E+00 -0.00000000000E+00 -0.30837455711E+03  0.30837455711E+03  0.00000000000E+00 0.  1.
          6    1    1    2  501    0 -0.12235967503E+03  0.11223097093E+03 -0.14735728291E+03  0.28144422136E+03  0.17300000000E+03 0.  1.
         -6    1    1    2    0  502  0.12235967503E+03 -0.11223097093E+03  0.58985524838E+02  0.24693313478E+03  0.17300000000E+03 0.  1.
<mgrwt>
<rscale>  2 0.23978466E+03</rscale>
<asrwt>0</asrwt>
<pdfrwt beam="1">  1       21 0.33846585E-01 0.23978466E+03</pdfrwt>
<pdfrwt beam="2">  1       21 0.47442239E-01 0.23978466E+03</pdfrwt>
<totfact> 0.34913107E+04</totfact>
</mgrwt>
</event>
<event>
 4    1  0.4336176E+000  0.2196689E+03  0.7546771E-02  0.1134130E+00
         21   -1    0    0  503  502  0.00000000000E+00  0.00000000000E+00  0.25788741952E+03  0.25788741952E+03  0.00000000000E+00 0.  1.
         21   -1    0    0  501  503 -0.00000000000E+00 -0.00000000000E+00 -0.20550538072E+03  0.20550538072E+03  0.00000000000E+00 0. -1.
          6    1    1    2  501    0 -0.21300709858E+02  0.13368504341E+03  0.95503573700E+02  0.23953150871E+03  0.17300000000E+03 0.  1.
         -6    1    1    2    0  502  0.21300709858E+02 -0.13368504341E+03 -0.43121534900E+02  0.22386129153E+03  0.17300000000E+03 0. -1.
<mgrwt>
<rscale>  2 0.21966887E+03</rscale>
<asrwt>0</asrwt>
<pdfrwt beam="1">  1       21 0.39674987E-01 0.21966887E+03</pdfrwt>
<pdfrwt beam="2">  1       21 0.31616213E-01 0.21966887E+03</pdfrwt>
<totfact> 0.58172117E+04</totfact>
</mgrwt>
</event>
<event>
 4    1  0.4336176E+000  0.2042914E+03  0.7546771E-02  0.1146168E+00
         21   -1    0    0  503  502  0.00000000000E+00  0.00000000000E+00  0.22870886646E+04  0.22870886646E+04  0.00000000000E+00 0.  1.
         21   -1    0    0  501  503 -0.00000000000E+00 -0.00000000000E+00 -0.37080444227E+02  0.37080444227E+02  0.00000000000E+00 0.  1.
          6    1    1    2  501    0  0.40817816929E+02  0.10069692782E+03  0.29683744605E+03  0.36034349561E+03  0.17300000000E+03 0.  1.
         -6    1    1    2    0  502 -0.40817816929E+02 -0.10069692782E+03  0.19531707743E+04  0.19638256132E+04  0.17300000000E+03 0.  1.
<mgrwt>
<rscale>  2 0.20429137E+03</rscale>
<asrwt>0</asrwt>
<pdfrwt beam="1">  1       21 0.35185968E+00 0.20429137E+03</pdfrwt>
<pdfrwt beam="2">  1       21 0.57046855E-02 0.20429137E+03</pdfrwt>
<totfact> 0.36108514E+03</totfact>
</mgrwt>
</event>
<event>
 4    1  0.4336176E+000  0.2017809E+03  0.7546771E-02  0.1148245E+00
         21   -1    0    0  501  502  0.00000000000E+00  0.00000000000E+00  0.17614745669E+03  0.17614745669E+03  0.00000000000E+00 0. -1.
         21   -1    0    0  502  503 -0.00000000000E+00 -0.00000000000E+00 -0.91863198021E+03  0.91863198021E+03  0.00000000000E+00 0.  1.
          6    1    1    2  501    0 -0.99612187327E+02  0.29392911388E+02  0.10229943404E+03  0.22623153031E+03  0.17300000000E+03 0. -1.
         -6    1    1    2    0  503  0.99612187327E+02 -0.29392911388E+02 -0.84478395756E+03  0.86854790659E+03  0.17300000000E+03 0.  1.
<mgrwt>
<rscale>  2 0.20178090E+03</rscale>
<asrwt>0</asrwt>
<pdfrwt beam="1">  1       21 0.27099609E-01 0.20178090E+03</pdfrwt>
<pdfrwt beam="2">  1       21 0.14132800E+00 0.20178090E+03</pdfrwt>
<totfact> 0.44967965E+03</totfact>
</mgrwt>
</event>
<event>
 4    1  0.4336176E+000  0.1778112E+03  0.7546771E-02  0.1169938E+00
         21   -1    0    0  503  502  0.00000000000E+00  0.00000000000E+00  0.81705405404E+03  0.81705405404E+03  0.00000000000E+00 0.  1.
         21   -1    0    0  501  503 -0.00000000000E+00 -0.00000000000E+00 -0.45155072921E+02  0.45155072921E+02  0.00000000000E+00 0.  1.
          6    1    1    2  501    0  0.11312705313E+02  0.39495103684E+02  0.22290368445E+03  0.28513662174E+03  0.17300000000E+03 0.  1.
         -6    1    1    2    0  502 -0.11312705313E+02 -0.39495103684E+02  0.54899529666E+03  0.57707250522E+03  0.17300000000E+03 0.  1.
<mgrwt>
<rscale>  2 0.17781125E+03</rscale>
<asrwt>0</asrwt>
<pdfrwt beam="1">  1       21 0.12570061E+00 0.17781125E+03</pdfrwt>
<pdfrwt beam="2">  1       21 0.69469349E-02 0.17781125E+03</pdfrwt>
<totfact> 0.72613594E+04</totfact>
</mgrwt>
</event>
<event>
 4    1  0.4336176E+000  0.2301913E+03  0.7546771E-02  0.1126505E+00
         21   -1    0    0  501  502  0.00000000000E+00  0.00000000000E+00  0.16179708150E+03  0.16179708150E+03  0.00000000000E+00 0.  1.
         21   -1    0    0  502  503 -0.00000000000E+00 -0.00000000000E+00 -0.37902173678E+03  0.37902173678E+03  0.00000000000E+00 0.  1.
          6    1    1    2  501    0 -0.15150206907E+03 -0.10302352955E+02 -0.89115004305E+01  0.23036369126E+03  0.17300000000E+03 0.  1.
         -6    1    1    2    0  503  0.15150206907E+03  0.10302352955E+02 -0.20831315485E+03  0.31045512702E+03  0.17300000000E+03 0.  1.
<mgrwt>
<rscale>  2 0.23019126E+03</rscale>
<asrwt>0</asrwt>
<pdfrwt beam="1">  1       21 0.24891859E-01 0.23019126E+03</pdfrwt>
<pdfrwt beam="2">  1       21 0.58311036E-01 0.23019126E+03</pdfrwt>
<totfact> 0.41306868E+04</totfact>
</mgrwt>
</event>
<event>
 4    1  0.4336176E+000  0.2332997E+03  0.7546771E-02  0.1124339E+00
         21   -1    0    0  503  502  0.00000000000E+00  0.00000000000E+00  0.22681531871E+03  0.22681531871E+03  0.00000000000E+00 0.  1.
         21   -1    0    0  501  503 -0.00000000000E+00 -0.00000000000E+00 -0.24700826557E+03  0.24700826557E+03  0.00000000000E+00 0.  1.
          6    1    1    2  501    0  0.13198819834E+03 -0.84136112868E+02  0.29895942375E+02  0.23520743475E+03  0.17300000000E+03 0. -1.
         -6    1    1    2    0  502 -0.13198819834E+03  0.84136112868E+02 -0.50088889235E+02  0.23861614953E+03  0.17300000000E+03 0. -1.
<mgrwt>
<rscale>  2 0.23329974E+03</rscale>
<asrwt>0</asrwt>
<pdfrwt beam="1">  1       21 0.34894665E-01 0.23329974E+03</pdfrwt>
<pdfrwt beam="2">  1       21 0.38001272E-01 0.23329974E+03</pdfrwt>
<totfact> 0.51898136E+04</totfact>
</mgrwt>
</event>
<event>
 4    1  0.4336176E+000  0.1847860E+03  0.7546771E-02  0.1163250E+00
         21   -1    0    0  501  502  0.00000000000E+00  0.00000000000E+00  0.35414149308E+03  0.35414149308E+03  0.00000000000E+00 0.  1.
         21   -1    0    0  502  503 -0.00000000000E+00 -0.00000000000E+00 -0.96996992825E+02  0.96996992825E+02  0.00000000000E+00 0.  1.
          6    1    1    2  501    0 -0.62527616833E+02 -0.17526366936E+02  0.11115579453E+03  0.21564203454E+03  0.17300000000E+03 0.  1.
         -6    1    1    2    0  503  0.62527616833E+02  0.17526366936E+02  0.14598870573E+03  0.23549645136E+03  0.17300000000E+03 0.  1.
<mgrwt>
<rscale>  2 0.18478603E+03</rscale>
<asrwt>0</asrwt>
<pdfrwt beam="1">  1       21 0.54483306E-01 0.18478603E+03</pdfrwt>
<pdfrwt beam="2">  1       21 0.14922614E-01 0.18478603E+03</pdfrwt>
<totfact> 0.12635308E+05</totfact>
</mgrwt>
</event>
<event>
 4    1  0.4336176E+000  0.2085714E+03  0.7546771E-02  0.1142702E+00
         21   -1    0    0  503  502  0.00000000000E+00  0.00000000000E+00  0.47910215757E+03  0.47910215757E+03  0.00000000000E+00 0. -1.
         21   -1    0    0  501  503 -0.00000000000E+00 -0.00000000000E+00 -0.92476592606E+02  0.92476592606E+02  0.00000000000E+00 0. -1.
          6    1    1    2  501    0  0.45273890217E+02  0.10734661359E+03  0.23180447395E+03  0.31182580831E+03  0.17300000000E+03 0. -1.
         -6    1    1    2    0  502 -0.45273890217E+02 -0.10734661359E+03  0.15482109101E+03  0.25975294186E+03  0.17300000000E+03 0. -1.
<mgrwt>
<rscale>  2 0.20857138E+03</rscale>
<asrwt>0</asrwt>
<pdfrwt beam="1">  1       21 0.73708023E-01 0.20857138E+03</pdfrwt>
<pdfrwt beam="2">  1       21 0.14227168E-01 0.20857138E+03</pdfrwt>
<totfact> 0.70862045E+04</totfact>
</mgrwt>
</event>
<event>
 4    1  0.4336176E+000  0.2915605E+03  0.7546771E-02  0.1089537E+00
         21   -1    0    0  503  502  0.00000000000E+00  0.00000000000E+00  0.14700232074E+03  0.14700232074E+03  0.00000000000E+00 0.  1.
         21   -1    0    0  501  503 -0.00000000000E+00 -0.00000000000E+00 -0.10218697143E+04  0.10218697143E+04  0.00000000000E+00 0. -1.
          6    1    1    2  501    0  0.18423761096E+03 -0.14537881943E+03 -0.82249802178E+03  0.87264568656E+03  0.17300000000E+03 0. -1.
         -6    1    1    2    0  502 -0.18423761096E+03  0.14537881943E+03 -0.52369371767E+02  0.29622634847E+03  0.17300000000E+03 0.  1.
<mgrwt>
<rscale>  2 0.29156045E+03</rscale>
<asrwt>0</asrwt>
<pdfrwt beam="1">  1       21 0.22615742E-01 0.29156045E+03</pdfrwt>
<pdfrwt beam="2">  1       21 0.15721073E+00 0.29156045E+03</pdfrwt>
<totfact> 0.45062127E+03</totfact>
</mgrwt>
</event>
<event>
 4    1  0.4336176E+000  0.1792977E+03  0.7546771E-02  0.1168484E+00
         21   -1    0    0  503  502  0.00000000000E+00  0.00000000000E+00  0.62132811702E+02  0.62132811702E+02  0.00000000000E+00 0. -1.
         21   -1    0    0  501  503 -0.00000000000E+00 -0.00000000000E+00 -0.54470535127E+03  0.54470535127E+03  0.00000000000E+00 0. -1.
          6    1    1    2  501    0 -0.35627304894E+02  0.30811694890E+02 -0.30921710104E+03  0.35743933887E+03  0.17300000000E+03 0. -1.
         -6    1    1    2    0  502  0.35627304894E+02 -0.30811694890E+02 -0.17335543852E+03  0.24939882410E+03  0.17300000000E+03 0. -1.
<mgrwt>
<rscale>  2 0.17929770E+03</rscale>
<asrwt>0</asrwt>
<pdfrwt beam="1">  1       21 0.95588946E-02 0.17929770E+03</pdfrwt>
<pdfrwt beam="2">  1       21 0.83800819E-01 0.17929770E+03</pdfrwt>
<totfact> 0.10932175E+05</totfact>
</mgrwt>
</event>
<event>
 4    1  0.4336176E+000  0.2049813E+03  0.7546771E-02  0.1145603E+00
         21   -1    0    0  501  502  0.00000000000E+00  0.00000000000E+00  0.12569714913E+03  0.12569714913E+03  0.00000000000E+00 0.  1.
         21   -1    0    0  502  503 -0.00000000000E+00 -0.00000000000E+00 -0.34909264754E+03  0.34909264754E+03  0.00000000000E+00 0.  1.
          6    1    1    2  501    0 -0.57167322849E+02 -0.93915993089E+02 -0.62787251512E+02  0.21438179846E+03  0.17300000000E+03 0.  1.
         -6    1    1    2    0  503  0.57167322849E+02  0.93915993089E+02 -0.16060824689E+03  0.26040799821E+03  0.17300000000E+03 0.  1.
<mgrwt>
<rscale>  2 0.20498126E+03</rscale>
<asrwt>0</asrwt>
<pdfrwt beam="1">  1       21 0.19338023E-01 0.20498126E+03</pdfrwt>
<pdfrwt beam="2">  1       21 0.53706562E-01 0.20498126E+03</pdfrwt>
<totfact> 0.80187641E+04</totfact>
</mgrwt>
</event>
<event>
 4    1  0.4336176E+000  0.2044321E+03  0.7546771E-02  0.1146053E+00
         21   -1    0    0  503  502  0.00000000000E+00  0.00000000000E+00  0.14020180616E+04  0.14020180616E+04  0.00000000000E+00 0. -1.
         21   -1    0    0  501  503 -0.00000000000E+00 -0.00000000000E+00 -0.30274476842E+02  0.30274476842E+02  0.00000000000E+00 0. -1.
          6    1    1    2  501    0 -0.95040489591E+02  0.53205086410E+02  0.59705281499E+03  0.63108203886E+03  0.17300000000E+03 0. -1.
         -6    1    1    2    0  502  0.95040489591E+02 -0.53205086410E+02  0.77469076981E+03  0.80121049962E+03  0.17300000000E+03 0. -1.
<mgrwt>
<rscale>  2 0.20443208E+03</rscale>
<asrwt>0</asrwt>
<pdfrwt beam="1">  1       21 0.21569504E+00 0.20443208E+03</pdfrwt>
<pdfrwt beam="2">  1       21 0.46576129E-02 0.20443208E+03</pdfrwt>
<totfact> 0.32155022E+04</totfact>
</mgrwt>
</event>
<event>
 4    1  0.4336176E+000  0.1758740E+03  0.7546771E-02  0.1171857E+00
         21   -1    0    0  503  502  0.00000000000E+00  0.00000000000E+00  0.30872205268E+03  0.30872205268E+03  0.00000000000E+00 0.  1.
         21   -1    0    0  501  503 -0.00000000000E+00 -0.00000000000E+00 -0.10074718330E+03  0.10074718330E+03  0.00000000000E+00 0.  1.
          6    1    1    2  501    0  0.30369164796E+02  0.89646194240E+01  0.88796773149E+02  0.19701907901E+03  0.17300000000E+03 0. -1.
         -6    1    1    2    0  502 -0.30369164796E+02 -0.89646194240E+01  0.11917809623E+03  0.21245015696E+03  0.17300000000E+03 0. -1.
<mgrwt>
<rscale>  2 0.17587396E+03</rscale>
<asrwt>0</asrwt>
<pdfrwt beam="1">  1       21 0.47495700E-01 0.17587396E+03</pdfrwt>
<pdfrwt beam="2">  1       21 0.15499567E-01 0.17587396E+03</pdfrwt>
<totfact> 0.15751535E+05</totfact>
</mgrwt>
</event>
<event>
 4    1  0.4336176E+000  0.1800765E+03  0.7546771E-02  0.1167729E+00
         21   -1    0    0  503  502  0.00000000000E+00  0.00000000000E+00  0.18824855687E+03  0.18824855687E+03  0.00000000000E+00 0. -1.
         21   -1    0    0  501  503 -0.00000000000E+00 -0.00000000000E+00 -0.67375586770E+03  0.67375586770E+03  0.00000000000E+00 0. -1.
          6    1    1    2  501    0  0.11877866368E+02  0.48553582153E+02 -0.61459893440E+03  0.64043686981E+03  0.17300000000E+03 0. -1.
         -6    1    1    2    0  502 -0.11877866368E+02 -0.48553582153E+02  0.12909162357E+03  0.22156755477E+03  0.17300000000E+03 0. -1.
<mgrwt>
<rscale>  2 0.18007647E+03</rscale>
<asrwt>0</asrwt>
<pdfrwt beam="1">  1       21 0.28961316E-01 0.18007647E+03</pdfrwt>
<pdfrwt beam="2">  1       21 0.10365475E+00 0.18007647E+03</pdfrwt>
<totfact> 0.86794703E+03</totfact>
</mgrwt>
</event>
<event>
 4    1  0.4336176E+000  0.2321810E+03  0.7546771E-02  0.1125114E+00
         21   -1    0    0  501  502  0.00000000000E+00  0.00000000000E+00  0.70559716970E+02  0.70559716970E+02  0.00000000000E+00 0. -1.
         21   -1    0    0  502  503 -0.00000000000E+00 -0.00000000000E+00 -0.23841418277E+04  0.23841418277E+04  0.00000000000E+00 0. -1.
          6    1    1    2  501    0  0.43377259500E+02  0.14865209047E+03 -0.14502896918E+03  0.27375432881E+03  0.17300000000E+03 0. -1.
         -6    1    1    2    0  503 -0.43377259500E+02 -0.14865209047E+03 -0.21685531415E+04  0.21809472159E+04  0.17300000000E+03 0. -1.
<mgrwt>
<rscale>  2 0.23218103E+03</rscale>
<asrwt>0</asrwt>
<pdfrwt beam="1">  1       21 0.10855341E-01 0.23218103E+03</pdfrwt>
<pdfrwt beam="2">  1       21 0.36679106E+00 0.23218103E+03</pdfrwt>
<totfact> 0.92309550E+02</totfact>
</mgrwt>
</event>
<event>
 4    1  0.4336176E+000  0.2572558E+03  0.7546771E-02  0.1108803E+00
         21   -1    0    0  503  502  0.00000000000E+00  0.00000000000E+00  0.28016246079E+03  0.28016246079E+03  0.00000000000E+00 0. -1.
         21   -1    0    0  501  503 -0.00000000000E+00 -0.00000000000E+00 -0.73482072980E+03  0.73482072980E+03  0.00000000000E+00 0. -1.
          6    1    1    2  501    0 -0.52375710647E+02  0.18305275877E+03 -0.64536520108E+03  0.69474942989E+03  0.17300000000E+03 0. -1.
         -6    1    1    2    0  502  0.52375710647E+02 -0.18305275877E+03  0.19070693206E+03  0.32023376070E+03  0.17300000000E+03 0. -1.
<mgrwt>
<rscale>  2 0.25725576E+03</rscale>
<asrwt>0</asrwt>
<pdfrwt beam="1">  1       21 0.43101918E-01 0.25725576E+03</pdfrwt>
<pdfrwt beam="2">  1       21 0.11304934E+00 0.25725576E+03</pdfrwt>
<totfact> 0.30108371E+03</totfact>
</mgrwt>
</event>
<event>
 4    1  0.4336176E+000  0.1743810E+03  0.7546771E-02  0.1173355E+00
         21   -1    0    0  501  502  0.00000000000E+00  0.00000000000E+00  0.49047151459E+02  0.49047151459E+02  0.00000000000E+00 0. -1.
         21   -1    0    0  502  503 -0.00000000000E+00 -0.00000000000E+00 -0.15747794373E+04  0.15747794373E+04  0.00000000000E+00 0. -1.
          6    1    1    2  501    0 -0.15992650576E+02 -0.14965672907E+02 -0.13066740972E+03  0.21790527346E+03  0.17300000000E+03 0. -1.
         -6    1    1    2    0  503  0.15992650576E+02  0.14965672907E+02 -0.13950648761E+04  0.14059213153E+04  0.17300000000E+03 0. -1.
<mgrwt>
<rscale>  2 0.17438101E+03</rscale>
<asrwt>0</asrwt>
<pdfrwt beam="1">  1       21 0.75457163E-02 0.17438101E+03</pdfrwt>
<pdfrwt beam="2">  1       21 0.24227374E+00 0.17438101E+03</pdfrwt>
<totfact> 0.99865577E+03</totfact>
</mgrwt>
</event>
<event>
 4    1  0.4336176E+000  0.4865466E+03  0.7546771E-02  0.1017351E+00
         21   -1    0    0  503  502  0.00000000000E+00  0.00000000000E+00  0.12064171775E+04  0.12064171775E+04  0.00000000000E+00 0.  1.
         21   -1    0    0  501  503 -0.00000000000E+00 -0.00000000000E+00 -0.20210661049E+03  0.20210661049E+03  0.00000000000E+00 0. -1.
          6    1    1    2  501    0 -0.36379882353E+03 -0.27285341710E+03  0.38200017886E+03  0.61858848023E+03  0.17300000000E+03 0. -1.
         -6    1    1    2    0  502  0.36379882353E+03  0.27285341710E+03  0.62231038813E+03  0.78993530773E+03  0.17300000000E+03 0. -1.
<mgrwt>
<rscale>  2 0.48654658E+03</rscale>
<asrwt>0</asrwt>
<pdfrwt beam="1">  1       21 0.18560264E+00 0.48654658E+03</pdfrwt>
<pdfrwt beam="2">  1       21 0.31093325E-01 0.48654658E+03</pdfrwt>
<totfact> 0.13762778E+03</totfact>
</mgrwt>
</event>
<event>
 4    1  0.4336176E+000  0.1935990E+03  0.7546771E-02  0.1155255E+00
         21   -1    0    0  503  502  0.00000000000E+00  0.00000000000E+00  0.59233046059E+02  0.59233046059E+02  0.00000000000E+00 0.  1.
         21   -1    0    0  501  503 -0.00000000000E+00 -0.00000000000E+00 -0.64377144545E+03  0.64377144545E+03  0.00000000000E+00 0. -1.
          6    1    1    2  501    0  0.64944577614E+02  0.57738829585E+02 -0.24630760944E+03  0.31328582647E+03  0.17300000000E+03 0.  1.
         -6    1    1    2    0  502 -0.64944577614E+02 -0.57738829585E+02 -0.33823078996E+03  0.38971866504E+03  0.17300000000E+03 0. -1.
<mgrwt>
<rscale>  2 0.19359899E+03</rscale>
<asrwt>0</asrwt>
<pdfrwt beam="1">  1       21 0.91127764E-02 0.19359899E+03</pdfrwt>
<pdfrwt beam="2">  1       21 0.99041760E-01 0.19359899E+03</pdfrwt>
<totfact> 0.80238382E+04</totfact>
</mgrwt>
</event>
<event>
 4    1  0.4336176E+000  0.1822735E+03  0.7546771E-02  0.1165621E+00
         21   -1    0    0  501  502  0.00000000000E+00  0.00000000000E+00  0.25734831916E+03  0.25734831916E+03  0.00000000000E+00 0. -1.
         21   -1    0    0  502  503 -0.00000000000E+00 -0.00000000000E+00 -0.13508183769E+03  0.13508183769E+03  0.00000000000E+00 0. -1.
          6    1    1    2  501    0  0.25277802299E+02  0.51532949540E+02  0.10242459103E+03  0.20907991062E+03  0.17300000000E+03 0.  1.
         -6    1    1    2    0  503 -0.25277802299E+02 -0.51532949540E+02  0.19841890451E+02  0.18335024623E+03  0.17300000000E+03 0.  1.
<mgrwt>
<rscale>  2 0.18227345E+03</rscale>
<asrwt>0</asrwt>
<pdfrwt beam="1">  1       21 0.39592049E-01 0.18227345E+03</pdfrwt>
<pdfrwt beam="2">  1       21 0.20781821E-01 0.18227345E+03</pdfrwt>
<totfact> 0.13258431E+05</totfact>
</mgrwt>
</event>
<event>
 4    1  0.4336176E+000  0.1874377E+03  0.7546771E-02  0.1160793E+00
         21   -1    0    0  501  502  0.00000000000E+00  0.00000000000E+00  0.13090827846E+03  0.13090827846E+03  0.00000000000E+00 0. -1.
         21   -1    0    0  502  503 -0.00000000000E+00 -0.00000000000E+00 -0.29259889946E+03  0.29259889946E+03  0.00000000000E+00 0. -1.
          6    1    1    2  501    0  0.71347043515E+02 -0.10652692729E+02 -0.19920941505E+02  0.18849330065E+03  0.17300000000E+03 0. -1.
         -6    1    1    2    0  503 -0.71347043515E+02  0.10652692729E+02 -0.14176967950E+03  0.23501387726E+03  0.17300000000E+03 0. -1.
<mgrwt>
<rscale>  2 0.18743767E+03</rscale>
<asrwt>0</asrwt>
<pdfrwt beam="1">  1       21 0.20139735E-01 0.18743767E+03</pdfrwt>
<pdfrwt beam="2">  1       21 0.45015215E-01 0.18743767E+03</pdfrwt>
<totfact> 0.10810063E+05</totfact>
</mgrwt>
</event>
<event>
 4    1  0.4336176E+000  0.2098134E+03  0.7546771E-02  0.1141714E+00
         21   -1    0    0  501  502  0.00000000000E+00  0.00000000000E+00  0.23461455395E+03  0.23461455395E+03  0.00000000000E+00 0.  1.
         21   -1    0    0  502  503 -0.00000000000E+00 -0.00000000000E+00 -0.31558159719E+03  0.31558159719E+03  0.00000000000E+00 0.  1.
          6    1    1    2  501    0 -0.11695432102E+03  0.20355604185E+02  0.13468167024E+03  0.24932070938E+03  0.17300000000E+03 0.  1.
         -6    1    1    2    0  503  0.11695432102E+03 -0.20355604185E+02 -0.21564871349E+03  0.30087544176E+03  0.17300000000E+03 0.  1.
<mgrwt>
<rscale>  2 0.20981340E+03</rscale>
<asrwt>0</asrwt>
<pdfrwt beam="1">  1       21 0.36094547E-01 0.20981340E+03</pdfrwt>
<pdfrwt beam="2">  1       21 0.48551015E-01 0.20981340E+03</pdfrwt>
<totfact> 0.29704333E+04</totfact>
</mgrwt>
</event>
<event>
 4    1  0.4336176E+000  0.2199679E+03  0.7546771E-02  0.1133907E+00
         21   -1    0    0  501  502  0.00000000000E+00  0.00000000000E+00  0.97253269299E+03  0.97253269299E+03  0.00000000000E+00 0.  1.
         21   -1    0    0  502  503 -0.00000000000E+00 -0.00000000000E+00 -0.51631332517E+02  0.51631332517E+02  0.00000000000E+00 0. -1.
          6    1    1    2  501    0  0.41242935276E+02  0.12944456229E+03  0.36276434264E+03  0.42424502673E+03  0.17300000000E+03 0. -1.
         -6    1    1    2    0  503 -0.41242935276E+02 -0.12944456229E+03  0.55813701783E+03  0.59991899877E+03  0.17300000000E+03 0. -1.
<mgrwt>
<rscale>  2 0.21996789E+03</rscale>
<asrwt>0</asrwt>
<pdfrwt beam="1">  1       21 0.14962040E+00 0.21996789E+03</pdfrwt>
<pdfrwt beam="2">  1       21 0.79432827E-02 0.21996789E+03</pdfrwt>
<totfact> 0.35976597E+04</totfact>
</mgrwt>
</event>
<event>
 4    1  0.4336176E+000  0.2085910E+03  0.7546771E-02  0.1142687E+00
         21   -1    0    0  503  502  0.00000000000E+00  0.00000000000E+00  0.33821082237E+03  0.33821082237E+03  0.00000000000E+00 0. -1.
         21   -1    0    0  501  503 -0.00000000000E+00 -0.00000000000E+00 -0.13065494722E+03  0.13065494722E+03  0.00000000000E+00 0.  1.
          6    1    1    2  501    0  0.97652744533E+02 -0.63601413432E+02  0.13283199596E+03  0.24729443474E+03  0.17300000000E+03 0. -1.
         -6    1    1    2    0  502 -0.97652744533E+02  0.63601413432E+02  0.74723879185E+02  0.22157133485E+03  0.17300000000E+03 0.  1.
<mgrwt>
<rscale>  2 0.20859098E+03</rscale>
<asrwt>0</asrwt>
<pdfrwt beam="1">  1       21 0.52032434E-01 0.20859098E+03</pdfrwt>
<pdfrwt beam="2">  1       21 0.20100761E-01 0.20859098E+03</pdfrwt>
<totfact> 0.79619815E+04</totfact>
</mgrwt>
</event>
<event>
 4    1  0.4336176E+000  0.2106333E+03  0.7546771E-02  0.1141065E+00
         21   -1    0    0  501  502  0.00000000000E+00  0.00000000000E+00  0.31549342063E+03  0.31549342063E+03  0.00000000000E+00 0.  1.
         21   -1    0    0  502  503 -0.00000000000E+00 -0.00000000000E+00 -0.16324107097E+03  0.16324107097E+03  0.00000000000E+00 0.  1.
          6    1    1    2  501    0 -0.67126011813E+02 -0.99656750682E+02  0.16522158335E+03  0.26770233660E+03  0.17300000000E+03 0.  1.
         -6    1    1    2    0  503  0.67126011813E+02  0.99656750682E+02 -0.12969233688E+02  0.21103215499E+03  0.17300000000E+03 0.  1.
<mgrwt>
<rscale>  2 0.21063326E+03</rscale>
<asrwt>0</asrwt>
<pdfrwt beam="1">  1       21 0.48537449E-01 0.21063326E+03</pdfrwt>
<pdfrwt beam="2">  1       21 0.25114011E-01 0.21063326E+03</pdfrwt>
<totfact> 0.60359589E+04</totfact>
</mgrwt>
</event>
<event>
 4    1  0.4336176E+000  0.1933288E+03  0.7546771E-02  0.1155493E+00
         21   -1    0    0  503  502  0.00000000000E+00  0.00000000000E+00  0.23327491340E+03  0.23327491340E+03  0.00000000000E+00 0.  1.
         21   -1    0    0  501  503 -0.00000000000E+00 -0.00000000000E+00 -0.16022322992E+03  0.16022322992E+03  0.00000000000E+00 0. -1.
          6    1    1    2  501    0  0.71404272044E+02 -0.48460926347E+02  0.36698059689E+02  0.19678104338E+03  0.17300000000E+03 0.  1.
         -6    1    1    2    0  502 -0.71404272044E+02  0.48460926347E+02  0.36353623793E+02  0.19671709995E+03  0.17300000000E+03 0.  1.
<mgrwt>
<rscale>  2 0.19332882E+03</rscale>
<asrwt>0</asrwt>
<pdfrwt beam="1">  1       21 0.35888448E-01 0.19332882E+03</pdfrwt>
<pdfrwt beam="2">  1       21 0.24649728E-01 0.19332882E+03</pdfrwt>
<totfact> 0.11647443E+05</totfact>
</mgrwt>
</event>
<event>
 4    1  0.4336176E+000  0.3406624E+03  0.7546771E-02  0.1066514E+00
         21   -1    0    0  501  502  0.00000000000E+00  0.00000000000E+00  0.61565340634E+03  0.61565340634E+03  0.00000000000E+00 0.  1.
         21   -1    0    0  502  503 -0.00000000000E+00 -0.00000000000E+00 -0.19070708844E+03  0.19070708844E+03  0.00000000000E+00 0.  1.
          6    1    1    2  501    0  0.29266130415E+03 -0.21708018950E+02  0.16910288712E+03  0.38032441871E+03  0.17300000000E+03 0.  1.
         -6    1    1    2    0  503 -0.29266130415E+03  0.21708018950E+02  0.25584343079E+03  0.42603607607E+03  0.17300000000E+03 0.  1.
<mgrwt>
<rscale>  2 0.34066241E+03</rscale>
<asrwt>0</asrwt>
<pdfrwt beam="1">  1       21 0.94715908E-01 0.34066241E+03</pdfrwt>
<pdfrwt beam="2">  1       21 0.29339552E-01 0.34066241E+03</pdfrwt>
<totfact> 0.95883367E+03</totfact>
</mgrwt>
</event>
<event>
 4    1  0.4336176E+000  0.1841681E+03  0.7546771E-02  0.1163829E+00
         21   -1    0    0  501  502  0.00000000000E+00  0.00000000000E+00  0.45978442772E+03  0.45978442772E+03  0.00000000000E+00 0.  1.
         21   -1    0    0  502  503 -0.00000000000E+00 -0.00000000000E+00 -0.99435444413E+02  0.99435444413E+02  0.00000000000E+00 0. -1.
          6    1    1    2  501    0  0.51200607659E+02 -0.36978364477E+02  0.32223182695E+03  0.37114855781E+03  0.17300000000E+03 0.  1.
         -6    1    1    2    0  503 -0.51200607659E+02  0.36978364477E+02  0.38117156361E+02  0.18807131433E+03  0.17300000000E+03 0. -1.
<mgrwt>
<rscale>  2 0.18416813E+03</rscale>
<asrwt>0</asrwt>
<pdfrwt beam="1">  1       21 0.70736065E-01 0.18416813E+03</pdfrwt>
<pdfrwt beam="2">  1       21 0.15297761E-01 0.18416813E+03</pdfrwt>
<totfact> 0.68781806E+04</totfact>
</mgrwt>
</event>
<event>
 4    1  0.4336176E+000  0.2888762E+03  0.7546771E-02  0.1090937E+00
         21   -1    0    0  501  502  0.00000000000E+00  0.00000000000E+00  0.28824985254E+03  0.28824985254E+03  0.00000000000E+00 0. -1.
         21   -1    0    0  502  503 -0.00000000000E+00 -0.00000000000E+00 -0.29015420570E+03  0.29015420570E+03  0.00000000000E+00 0. -1.
          6    1    1    2  501    0 -0.18562788977E+03  0.13806789523E+03 -0.14643483580E+02  0.28924710675E+03  0.17300000000E+03 0. -1.
         -6    1    1    2    0  503  0.18562788977E+03 -0.13806789523E+03  0.12739130415E+02  0.28915695149E+03  0.17300000000E+03 0. -1.
<mgrwt>
<rscale>  2 0.28887620E+03</rscale>
<asrwt>0</asrwt>
<pdfrwt beam="1">  1       21 0.44346131E-01 0.28887620E+03</pdfrwt>
<pdfrwt beam="2">  1       21 0.44639109E-01 0.28887620E+03</pdfrwt>
<totfact> 0.22438193E+04</totfact>
</mgrwt>
</event>
<event>
 4    1  0.4336176E+000  0.2456688E+03  0.7546771E-02  0.1116073E+00
         21   -1    0    0  501  502  0.00000000000E+00  0.00000000000E+00  0.15226981517E+03  0.15226981517E+03  0.00000000000E+00 0. -1.
         21   -1    0    0  502  503 -0.00000000000E+00 -0.00000000000E+00 -0.60703234265E+03  0.60703234265E+03  0.00000000000E+00 0. -1.
          6    1    1    2  501    0  0.16690415664E+03  0.50667115857E+02 -0.37224916848E+01  0.24569699037E+03  0.17300000000E+03 0. -1.
         -6    1    1    2    0  503 -0.16690415664E+03 -0.50667115857E+02 -0.45104003580E+03  0.51360516744E+03  0.17300000000E+03 0. -1.
<mgrwt>
<rscale>  2 0.24566879E+03</rscale>
<asrwt>0</asrwt>
<pdfrwt beam="1">  1       21 0.23426126E-01 0.24566879E+03</pdfrwt>
<pdfrwt beam="2">  1       21 0.93389590E-01 0.24566879E+03</pdfrwt>
<totfact> 0.16018365E+04</totfact>
</mgrwt>
</event>
<event>
 4    1  0.4336176E+000  0.2072647E+03  0.7546771E-02  0.1143751E+00
         21   -1    0    0  501  502  0.00000000000E+00  0.00000000000E+00  0.94851120845E+02  0.94851120845E+02  0.00000000000E+00 0. -1.
         21   -1    0    0  502  503 -0.00000000000E+00 -0.00000000000E+00 -0.45290641877E+03  0.45290641877E+03  0.00000000000E+00 0.  1.
          6    1    1    2  501    0 -0.33658829778E+02  0.10907226038E+03 -0.17913542373E+03  0.27394921946E+03  0.17300000000E+03 0.  1.
         -6    1    1    2    0  503  0.33658829778E+02 -0.10907226038E+03 -0.17891987419E+03  0.27380832015E+03  0.17300000000E+03 0. -1.
<mgrwt>
<rscale>  2 0.20726475E+03</rscale>
<asrwt>0</asrwt>
<pdfrwt beam="1">  1       21 0.14592480E-01 0.20726475E+03</pdfrwt>
<pdfrwt beam="2">  1       21 0.69677912E-01 0.20726475E+03</pdfrwt>
<totfact> 0.76704432E+04</totfact>
</mgrwt>
</event>
<event>
 4    1  0.4336176E+000  0.1805438E+03  0.7546771E-02  0.1167278E+00
         21   -1    0    0  503  502  0.00000000000E+00  0.00000000000E+00  0.34471396010E+03  0.34471396010E+03  0.00000000000E+00 0.  1.
         21   -1    0    0  501  503 -0.00000000000E+00 -0.00000000000E+00 -0.12499749164E+04  0.12499749164E+04  0.00000000000E+00 0.  1.
          6    1    1    2  501    0 -0.24726800818E+02  0.45339448878E+02 -0.12192225869E+04  0.12325176659E+04  0.17300000000E+03 0.  1.
         -6    1    1    2    0  502  0.24726800818E+02 -0.45339448878E+02  0.31396163060E+03  0.36217121061E+03  0.17300000000E+03 0.  1.
<mgrwt>
<rscale>  2 0.18054385E+03</rscale>
<asrwt>0</asrwt>
<pdfrwt beam="1">  1       21 0.53032918E-01 0.18054385E+03</pdfrwt>
<pdfrwt beam="2">  1       21 0.19230383E+00 0.18054385E+03</pdfrwt>
<totfact> 0.51504086E+02</totfact>
</mgrwt>
</event>
<event>
 4    1  0.4336176E+000  0.2903550E+03  0.7546771E-02  0.1090164E+00
         21   -1    0    0  503  502  0.00000000000E+00  0.00000000000E+00  0.41424524169E+03  0.41424524169E+03  0.00000000000E+00 0. -1.
         21   -1    0    0  501  503 -0.00000000000E+00 -0.00000000000E+00 -0.20476844771E+03  0.20476844771E+03  0.00000000000E+00 0. -1.
          6    1    1    2  501    0 -0.19447050103E+03  0.12867892350E+03  0.12893232800E+03  0.31769417106E+03  0.17300000000E+03 0. -1.
         -6    1    1    2    0  502  0.19447050103E+03 -0.12867892350E+03  0.80544465984E+02  0.30131951833E+03  0.17300000000E+03 0. -1.
<mgrwt>
<rscale>  2 0.29035503E+03</rscale>
<asrwt>0</asrwt>
<pdfrwt beam="1">  1       21 0.63730037E-01 0.29035503E+03</pdfrwt>
<pdfrwt beam="2">  1       21 0.31502838E-01 0.29035503E+03</pdfrwt>
<totfact> 0.20984637E+04</totfact>
</mgrwt>
</event>
<event>
 4    1  0.4336176E+000  0.1894032E+03  0.7546771E-02  0.1159001E+00
         21   -1    0    0  501  502  0.00000000000E+00  0.00000000000E+00  0.46553240800E+03  0.46553240800E+03  0.00000000000E+00 0. -1.
         21   -1    0    0  502  503 -0.00000000000E+00 -0.00000000000E+00 -0.11261461764E+03  0.11261461764E+03  0.00000000000E+00 0. -1.
          6    1    1    2  501    0 -0.75234978079E+02  0.16860224261E+02  0.33888791486E+03  0.38822491925E+03  0.17300000000E+03 0. -1.
         -6    1    1    2    0  503  0.75234978079E+02 -0.16860224261E+02  0.14029875494E+02  0.18992210639E+03  0.17300000000E+03 0. -1.
<mgrwt>
<rscale>  2 0.18940319E+03</rscale>
<asrwt>0</asrwt>
<pdfrwt beam="1">  1       21 0.71620370E-01 0.18940319E+03</pdfrwt>
<pdfrwt beam="2">  1       21 0.17325326E-01 0.18940319E+03</pdfrwt>
<totfact> 0.53152066E+04</totfact>
</mgrwt>
</event>
<event>
 4    1  0.4336176E+000  0.1800552E+03  0.7546771E-02  0.1167750E+00
         21   -1    0    0  503  502  0.00000000000E+00  0.00000000000E+00  0.28148417680E+02  0.28148417680E+02  0.00000000000E+00 0.  1.
         21   -1    0    0  501  503 -0.00000000000E+00 -0.00000000000E+00 -0.11589384948E+04  0.11589384948E+04  0.00000000000E+00 0.  1.
          6    1    1    2  501    0  0.45271340089E+02 -0.21009168889E+02 -0.61214770541E+03  0.63807890786E+03  0.17300000000E+03 0.  1.
         -6    1    1    2    0  502 -0.45271340089E+02  0.21009168889E+02 -0.51864237175E+03  0.54900800466E+03  0.17300000000E+03 0.  1.
<mgrwt>
<rscale>  2 0.18005521E+03</rscale>
<asrwt>0</asrwt>
<pdfrwt beam="1">  1       21 0.43305253E-02 0.18005521E+03</pdfrwt>
<pdfrwt beam="2">  1       21 0.17829825E+00 0.18005521E+03</pdfrwt>
<totfact> 0.64562579E+04</totfact>
</mgrwt>
</event>
<event>
 4    1  0.4336176E+000  0.1954253E+03  0.7546771E-02  0.1153657E+00
         21   -1    0    0  501  502  0.00000000000E+00  0.00000000000E+00  0.52472141365E+03  0.52472141365E+03  0.00000000000E+00 0.  1.
         21   -1    0    0  502  503 -0.00000000000E+00 -0.00000000000E+00 -0.95858389781E+02  0.95858389781E+02  0.00000000000E+00 0.  1.
          6    1    1    2  501    0 -0.53733490100E+02  0.73312765304E+02  0.36666934755E+03  0.41549664252E+03  0.17300000000E+03 0.  1.
         -6    1    1    2    0  503  0.53733490100E+02 -0.73312765304E+02  0.62193676321E+02  0.20508316091E+03  0.17300000000E+03 0.  1.
<mgrwt>
<rscale>  2 0.19542530E+03</rscale>
<asrwt>0</asrwt>
<pdfrwt beam="1">  1       21 0.80726370E-01 0.19542530E+03</pdfrwt>
<pdfrwt beam="2">  1       21 0.14747445E-01 0.19542530E+03</pdfrwt>
<totfact> 0.54447593E+04</totfact>
</mgrwt>
</event>
<event>
 4    1  0.4336176E+000  0.3445094E+03  0.7546771E-02  0.1064891E+00
         21   -1    0    0  503  502  0.00000000000E+00  0.00000000000E+00  0.69765872319E+02  0.69765872319E+02  0.00000000000E+00 0.  1.
         21   -1    0    0  501  503 -0.00000000000E+00 -0.00000000000E+00 -0.17054126530E+04  0.17054126530E+04  0.00000000000E+00 0. -1.
          6    1    1    2  501    0 -0.13533912323E+02 -0.29761477969E+03 -0.77378628022E+03  0.84701353668E+03  0.17300000000E+03 0.  1.
         -6    1    1    2    0  502  0.13533912323E+02  0.29761477969E+03 -0.86186050049E+03  0.92816498867E+03  0.17300000000E+03 0. -1.
<mgrwt>
<rscale>  2 0.34450940E+03</rscale>
<asrwt>0</asrwt>
<pdfrwt beam="1">  1       21 0.10733211E-01 0.34450940E+03</pdfrwt>
<pdfrwt beam="2">  1       21 0.26237118E+00 0.34450940E+03</pdfrwt>
<totfact> 0.35610670E+03</totfact>
</mgrwt>
</event>
<event>
 4    1  0.4336176E+000  0.1967909E+03  0.7546771E-02  0.1152475E+00
         21   -1    0    0  503  502  0.00000000000E+00  0.00000000000E+00  0.47137186760E+03  0.47137186760E+03  0.00000000000E+00 0.  1.
         21   -1    0    0  501  503 -0.00000000000E+00 -0.00000000000E+00 -0.86625913865E+02  0.86625913865E+02  0.00000000000E+00 0. -1.
          6    1    1    2  501    0  0.27647573368E+01  0.93754997830E+02  0.12900576352E+03  0.23530646086E+03  0.17300000000E+03 0. -1.
         -6    1    1    2    0  502 -0.27647573368E+01 -0.93754997830E+02  0.25574019022E+03  0.32269132061E+03  0.17300000000E+03 0. -1.
<mgrwt>
<rscale>  2 0.19679086E+03</rscale>
<asrwt>0</asrwt>
<pdfrwt beam="1">  1       21 0.72518747E-01 0.19679086E+03</pdfrwt>
<pdfrwt beam="2">  1       21 0.13327064E-01 0.19679086E+03</pdfrwt>
<totfact> 0.83138543E+04</totfact>
</mgrwt>
</event>
<event>
 4    1  0.4336176E+000  0.3314031E+03  0.7546771E-02  0.1070518E+00
         21   -1    0    0  503  502  0.00000000000E+00  0.00000000000E+00  0.87468087317E+02  0.87468087317E+02  0.00000000000E+00 0.  1.
         21   -1    0    0  501  503 -0.00000000000E+00 -0.00000000000E+00 -0.12644216997E+04  0.12644216997E+04  0.00000000000E+00 0. -1.
          6    1    1    2  501    0  0.23871633200E+02  0.28165429725E+03 -0.64482454030E+03  0.72500116262E+03  0.17300000000E+03 0. -1.
         -6    1    1    2    0  502 -0.23871633200E+02 -0.28165429725E+03 -0.53212907204E+03  0.62688862435E+03  0.17300000000E+03 0.  1.
<mgrwt>
<rscale>  2 0.33140307E+03</rscale>
<asrwt>0</asrwt>
<pdfrwt beam="1">  1       21 0.13456629E-01 0.33140307E+03</pdfrwt>
<pdfrwt beam="2">  1       21 0.19452641E+00 0.33140307E+03</pdfrwt>
<totfact> 0.63341181E+03</totfact>
</mgrwt>
</event>
<event>
 4    1  0.4336176E+000  0.2822570E+03  0.7546771E-02  0.1094463E+00
         21   -1    0    0  501  502  0.00000000000E+00  0.00000000000E+00  0.11394545139E+03  0.11394545139E+03  0.00000000000E+00 0.  1.
         21   -1    0    0  502  503 -0.00000000000E+00 -0.00000000000E+00 -0.79884932146E+03  0.79884932146E+03  0.00000000000E+00 0. -1.
          6    1    1    2  501    0 -0.11223332365E+03 -0.19272700823E+03 -0.18124665351E+03  0.33543906756E+03  0.17300000000E+03 0.  1.
         -6    1    1    2    0  503  0.11223332365E+03  0.19272700823E+03 -0.50365721655E+03  0.57735570528E+03  0.17300000000E+03 0. -1.
<mgrwt>
<rscale>  2 0.28225701E+03</rscale>
<asrwt>0</asrwt>
<pdfrwt beam="1">  1       21 0.17530070E-01 0.28225701E+03</pdfrwt>
<pdfrwt beam="2">  1       21 0.12289989E+00 0.28225701E+03</pdfrwt>
<totfact> 0.13927797E+04</totfact>
</mgrwt>
</event>
<event>
 4    1  0.4336176E+000  0.2208607E+03  0.7546771E-02  0.1133243E+00
         21   -1    0    0  501  502  0.00000000000E+00  0.00000000000E+00  0.27272372259E+03  0.27272372259E+03  0.00000000000E+00 0. -1.
         21   -1    0    0  502  503 -0.00000000000E+00 -0.00000000000E+00 -0.18006013507E+03  0.18006013507E+03  0.00000000000E+00 0. -1.
          6    1    1    2  501    0  0.99689010853E+01  0.13693460721E+03  0.27851858185E+02  0.22260995406E+03  0.17300000000E+03 0. -1.
         -6    1    1    2    0  503 -0.99689010853E+01 -0.13693460721E+03  0.64811729337E+02  0.23017390360E+03  0.17300000000E+03 0. -1.
<mgrwt>
<rscale>  2 0.22086074E+03</rscale>
<asrwt>0</asrwt>
<pdfrwt beam="1">  1       21 0.41957496E-01 0.22086074E+03</pdfrwt>
<pdfrwt beam="2">  1       21 0.27701559E-01 0.22086074E+03</pdfrwt>
<totfact> 0.67172340E+04</totfact>
</mgrwt>
</event>
<event>
 4    1  0.4336176E+000  0.1851824E+03  0.7546771E-02  0.1162880E+00
         21   -1    0    0  501  502  0.00000000000E+00  0.00000000000E+00  0.43730610765E+02  0.43730610765E+02  0.00000000000E+00 0.  1.
         21   -1    0    0  502  503 -0.00000000000E+00 -0.00000000000E+00 -0.11975346381E+04  0.11975346381E+04  0.00000000000E+00 0. -1.
          6    1    1    2  501    0 -0.67393490821E+01 -0.65712130477E+02 -0.21227068666E+03  0.28169371192E+03  0.17300000000E+03 0.  1.
         -6    1    1    2    0  503  0.67393490821E+01  0.65712130477E+02 -0.94153334063E+03  0.95957153691E+03  0.17300000000E+03 0. -1.
<mgrwt>
<rscale>  2 0.18518235E+03</rscale>
<asrwt>0</asrwt>
<pdfrwt beam="1">  1       21 0.67277864E-02 0.18518235E+03</pdfrwt>
<pdfrwt beam="2">  1       21 0.18423609E+00 0.18518235E+03</pdfrwt>
<totfact> 0.27736974E+04</totfact>
</mgrwt>
</event>
<event>
 4    1  0.4336176E+000  0.2284407E+03  0.7546771E-02  0.1127742E+00
         21   -1    0    0  501  502  0.00000000000E+00  0.00000000000E+00  0.36426181870E+02  0.36426181870E+02  0.00000000000E+00 0.  1.
         21   -1    0    0  502  503 -0.00000000000E+00 -0.00000000000E+00 -0.22204984177E+04  0.22204984177E+04  0.00000000000E+00 0. -1.
          6    1    1    2  501    0  0.95283660638E+02  0.11479197189E+03 -0.41985055277E+03  0.47797453850E+03  0.17300000000E+03 0.  1.
         -6    1    1    2    0  503 -0.95283660638E+02 -0.11479197189E+03 -0.17642216831E+04  0.17789500611E+04  0.17300000000E+03 0. -1.
<mgrwt>
<rscale>  2 0.22844074E+03</rscale>
<asrwt>0</asrwt>
<pdfrwt beam="1">  1       21 0.56040271E-02 0.22844074E+03</pdfrwt>
<pdfrwt beam="2">  1       21 0.34161519E+00 0.22844074E+03</pdfrwt>
<totfact> 0.41604647E+03</totfact>
</mgrwt>
</event>
<event>
 4    1  0.4336176E+000  0.2675734E+03  0.7546771E-02  0.1102676E+00
         21   -1    0    0  503  502  0.00000000000E+00  0.00000000000E+00  0.30930438352E+03  0.30930438352E+03  0.00000000000E+00 0.  1.
         21   -1    0    0  501  503 -0.00000000000E+00 -0.00000000000E+00 -0.24983388943E+03  0.24983388943E+03  0.00000000000E+00 0. -1.
          6    1    1    2  501    0  0.19721575176E+03 -0.52654489576E+02 -0.46054928758E+02  0.27150801918E+03  0.17300000000E+03 0. -1.
         -6    1    1    2    0  502 -0.19721575176E+03  0.52654489576E+02  0.10552542284E+03  0.28763025377E+03  0.17300000000E+03 0.  1.
<mgrwt>
<rscale>  2 0.26757344E+03</rscale>
<asrwt>0</asrwt>
<pdfrwt beam="1">  1       21 0.47585290E-01 0.26757344E+03</pdfrwt>
<pdfrwt beam="2">  1       21 0.38435983E-01 0.26757344E+03</pdfrwt>
<totfact> 0.26562747E+04</totfact>
</mgrwt>
</event>
<event>
 4    1  0.4336176E+000  0.2093568E+03  0.7546771E-02  0.1142076E+00
         21   -1    0    0  501  502  0.00000000000E+00  0.00000000000E+00  0.73555667255E+02  0.73555667255E+02  0.00000000000E+00 0. -1.
         21   -1    0    0  502  503 -0.00000000000E+00 -0.00000000000E+00 -0.17196023648E+04  0.17196023648E+04  0.00000000000E+00 0.  1.
          6    1    1    2  501    0  0.11480236675E+03  0.26864540751E+02 -0.98246631125E+02  0.23126324284E+03  0.17300000000E+03 0. -1.
         -6    1    1    2    0  503 -0.11480236675E+03 -0.26864540751E+02 -0.15478000665E+04  0.15618947892E+04  0.17300000000E+03 0.  1.
<mgrwt>
<rscale>  2 0.20935684E+03</rscale>
<asrwt>0</asrwt>
<pdfrwt beam="1">  1       21 0.11316257E-01 0.20935684E+03</pdfrwt>
<pdfrwt beam="2">  1       21 0.26455420E+00 0.20935684E+03</pdfrwt>
<totfact> 0.34986813E+03</totfact>
</mgrwt>
</event>
<event>
 4    1  0.4336176E+000  0.1919211E+03  0.7546771E-02  0.1156740E+00
         21   -1    0    0  501  502  0.00000000000E+00  0.00000000000E+00  0.11890314984E+03  0.11890314984E+03  0.00000000000E+00 0. -1.
         21   -1    0    0  502  503 -0.00000000000E+00 -0.00000000000E+00 -0.40265356767E+03  0.40265356767E+03  0.00000000000E+00 0. -1.
          6    1    1    2  501    0  0.52113706928E+02 -0.64721417200E+02 -0.16632011581E+02  0.19264040102E+03  0.17300000000E+03 0. -1.
         -6    1    1    2    0  503 -0.52113706928E+02  0.64721417200E+02 -0.26711840626E+03  0.32891631649E+03  0.17300000000E+03 0. -1.
<mgrwt>
<rscale>  2 0.19192108E+03</rscale>
<asrwt>0</asrwt>
<pdfrwt beam="1">  1       21 0.18292792E-01 0.19192108E+03</pdfrwt>
<pdfrwt beam="2">  1       21 0.61946702E-01 0.19192108E+03</pdfrwt>
<totfact> 0.65943535E+04</totfact>
</mgrwt>
</event>
<event>
 4    1  0.4336176E+000  0.2301323E+03  0.7546771E-02  0.1126547E+00
         21   -1    0    0  501  502  0.00000000000E+00  0.00000000000E+00  0.16363635998E+04  0.16363635998E+04  0.00000000000E+00 0.  1.
         21   -1    0    0  502  503 -0.00000000000E+00 -0.00000000000E+00 -0.56810365283E+02  0.56810365283E+02  0.00000000000E+00 0. -1.
          6    1    1    2  501    0  0.13116507091E+03  0.76338806477E+02  0.13451130454E+04  0.13646574640E+04  0.17300000000E+03 0.  1.
         -6    1    1    2    0  503 -0.13116507091E+03 -0.76338806477E+02  0.23444018914E+03  0.32851650109E+03  0.17300000000E+03 0. -1.
<mgrwt>
<rscale>  2 0.23013233E+03</rscale>
<asrwt>0</asrwt>
<pdfrwt beam="1">  1       21 0.25174821E+00 0.23013233E+03</pdfrwt>
<pdfrwt beam="2">  1       21 0.87400575E-02 0.23013233E+03</pdfrwt>
<totfact> 0.64452997E+03</totfact>
</mgrwt>
</event>
<event>
 4    1  0.4336176E+000  0.2592775E+03  0.7546771E-02  0.1107578E+00
         21   -1    0    0  501  502  0.00000000000E+00  0.00000000000E+00  0.93153958369E+02  0.93153958369E+02  0.00000000000E+00 0.  1.
         21   -1    0    0  502  503 -0.00000000000E+00 -0.00000000000E+00 -0.10798944299E+04  0.10798944299E+04  0.00000000000E+00 0. -1.
          6    1    1    2  501    0  0.15567461010E+03 -0.11428569746E+03 -0.15555178013E+03  0.30235932461E+03  0.17300000000E+03 0.  1.
         -6    1    1    2    0  503 -0.15567461010E+03  0.11428569746E+03 -0.83118869135E+03  0.87068906362E+03  0.17300000000E+03 0. -1.
<mgrwt>
<rscale>  2 0.25927747E+03</rscale>
<asrwt>0</asrwt>
<pdfrwt beam="1">  1       21 0.14331378E-01 0.25927747E+03</pdfrwt>
<pdfrwt beam="2">  1       21 0.16613761E+00 0.25927747E+03</pdfrwt>
<totfact> 0.92447839E+03</totfact>
</mgrwt>
</event>
<event>
 4    1  0.4336176E+000  0.1823052E+03  0.7546771E-02  0.1165591E+00
         21   -1    0    0  503  502  0.00000000000E+00  0.00000000000E+00  0.80838511565E+03  0.80838511565E+03  0.00000000000E+00 0.  1.
         21   -1    0    0  501  503 -0.00000000000E+00 -0.00000000000E+00 -0.55815451438E+02  0.55815451438E+02  0.00000000000E+00 0.  1.
          6    1    1    2  501    0 -0.56961857394E+02  0.78438283079E+01  0.15451552092E+03  0.23897745719E+03  0.17300000000E+03 0.  1.
         -6    1    1    2    0  502  0.56961857394E+02 -0.78438283079E+01  0.59805414330E+03  0.62522310990E+03  0.17300000000E+03 0.  1.
<mgrwt>
<rscale>  2 0.18230518E+03</rscale>
<asrwt>0</asrwt>
<pdfrwt beam="1">  1       21 0.12436693E+00 0.18230518E+03</pdfrwt>
<pdfrwt beam="2">  1       21 0.85869931E-02 0.18230518E+03</pdfrwt>
<totfact> 0.51515021E+04</totfact>
</mgrwt>
</event>
<event>
 4    1  0.4336176E+000  0.1831430E+03  0.7546771E-02  0.1164795E+00
         21   -1    0    0  503  502  0.00000000000E+00  0.00000000000E+00  0.80378240444E+02  0.80378240444E+02  0.00000000000E+00 0.  1.
         21   -1    0    0  501  503 -0.00000000000E+00 -0.00000000000E+00 -0.52701882700E+03  0.52701882700E+03  0.00000000000E+00 0.  1.
          6    1    1    2  501    0 -0.60080086494E+02 -0.16610957369E+01 -0.36189425249E+03  0.40559687624E+03  0.17300000000E+03 0.  1.
         -6    1    1    2    0  502  0.60080086494E+02  0.16610957369E+01 -0.84746334070E+02  0.20180019121E+03  0.17300000000E+03 0.  1.
<mgrwt>
<rscale>  2 0.18314305E+03</rscale>
<asrwt>0</asrwt>
<pdfrwt beam="1">  1       21 0.12365884E-01 0.18314305E+03</pdfrwt>
<pdfrwt beam="2">  1       21 0.81079816E-01 0.18314305E+03</pdfrwt>
<totfact> 0.74500642E+04</totfact>
</mgrwt>
</event>
<event>
 4    1  0.4336176E+000  0.1997445E+03  0.7546771E-02  0.1149955E+00
         21   -1    0    0  501  502  0.00000000000E+00  0.00000000000E+00  0.12851007516E+03  0.12851007516E+03  0.00000000000E+00 0. -1.
         21   -1    0    0  502  503 -0.00000000000E+00 -0.00000000000E+00 -0.63033808258E+03  0.63033808258E+03  0.00000000000E+00 0.  1.
          6    1    1    2  501    0 -0.71307668843E+02  0.69886336757E+02  0.19374109180E+02  0.20068193692E+03  0.17300000000E+03 0. -1.
         -6    1    1    2    0  503  0.71307668843E+02 -0.69886336757E+02 -0.52120211661E+03  0.55816622081E+03  0.17300000000E+03 0.  1.
<mgrwt>
<rscale>  2 0.19974455E+03</rscale>
<asrwt>0</asrwt>
<pdfrwt beam="1">  1       21 0.19770781E-01 0.19974455E+03</pdfrwt>
<pdfrwt beam="2">  1       21 0.96975089E-01 0.19974455E+03</pdfrwt>
<totfact> 0.20727484E+04</totfact>
</mgrwt>
</event>
<event>
 4    1  0.4336176E+000  0.2021335E+03  0.7546771E-02  0.1147951E+00
         21   -1    0    0  501  502  0.00000000000E+00  0.00000000000E+00  0.13659938909E+04  0.13659938909E+04  0.00000000000E+00 0.  1.
         21   -1    0    0  502  503 -0.00000000000E+00 -0.00000000000E+00 -0.58795500877E+02  0.58795500877E+02  0.00000000000E+00 0. -1.
          6    1    1    2  501    0 -0.91154329413E+02  0.51184188483E+02  0.11529235753E+04  0.11705087370E+04  0.17300000000E+03 0.  1.
         -6    1    1    2    0  503  0.91154329413E+02 -0.51184188483E+02  0.15427481466E+03  0.25428065471E+03  0.17300000000E+03 0. -1.
<mgrwt>
<rscale>  2 0.20213345E+03</rscale>
<asrwt>0</asrwt>
<pdfrwt beam="1">  1       21 0.21015288E+00 0.20213345E+03</pdfrwt>
<pdfrwt beam="2">  1       21 0.90454627E-02 0.20213345E+03</pdfrwt>
<totfact> 0.11121260E+04</totfact>
</mgrwt>
</event>
<event>
 4    1  0.4336176E+000  0.1751357E+03  0.7546771E-02  0.1172595E+00
         21   -1    0    0  501  502  0.00000000000E+00  0.00000000000E+00  0.56480925120E+02  0.56480925120E+02  0.00000000000E+00 0.  1.
         21   -1    0    0  502  503 -0.00000000000E+00 -0.00000000000E+00 -0.60892337108E+03  0.60892337108E+03  0.00000000000E+00 0.  1.
          6    1    1    2  501    0  0.15940037750E+02  0.22123249459E+02 -0.16680121522E+03  0.24185774407E+03  0.17300000000E+03 0.  1.
         -6    1    1    2    0  503 -0.15940037750E+02 -0.22123249459E+02 -0.38564123074E+03  0.42354655213E+03  0.17300000000E+03 0.  1.
<mgrwt>
<rscale>  2 0.17513573E+03</rscale>
<asrwt>0</asrwt>
<pdfrwt beam="1">  1       21 0.86893733E-02 0.17513573E+03</pdfrwt>
<pdfrwt beam="2">  1       21 0.93680517E-01 0.17513573E+03</pdfrwt>
<totfact> 0.10014371E+05</totfact>
</mgrwt>
</event>
<event>
 4    1  0.4336176E+000  0.2120820E+03  0.7546771E-02  0.1139928E+00
         21   -1    0    0  501  502  0.00000000000E+00  0.00000000000E+00  0.10784773988E+03  0.10784773988E+03  0.00000000000E+00 0.  1.
         21   -1    0    0  502  503 -0.00000000000E+00 -0.00000000000E+00 -0.41908461607E+03  0.41908461607E+03  0.00000000000E+00 0.  1.
          6    1    1    2  501    0 -0.10891212738E+03 -0.56461863887E+02 -0.13729828552E+03  0.25264523105E+03  0.17300000000E+03 0.  1.
         -6    1    1    2    0  503  0.10891212738E+03  0.56461863887E+02 -0.17393859066E+03  0.27428712490E+03  0.17300000000E+03 0.  1.
<mgrwt>
<rscale>  2 0.21208204E+03</rscale>
<asrwt>0</asrwt>
<pdfrwt beam="1">  1       21 0.16591960E-01 0.21208204E+03</pdfrwt>
<pdfrwt beam="2">  1       21 0.64474556E-01 0.21208204E+03</pdfrwt>
<totfact> 0.71743069E+04</totfact>
</mgrwt>
</event>
<event>
 4    1  0.4336176E+000  0.1900483E+03  0.7546771E-02  0.1158418E+00
         21   -1    0    0  503  502  0.00000000000E+00  0.00000000000E+00  0.88738143829E+03  0.88738143829E+03  0.00000000000E+00 0. -1.
         21   -1    0    0  501  503 -0.00000000000E+00 -0.00000000000E+00 -0.40789532116E+02  0.40789532116E+02  0.00000000000E+00 0. -1.
          6    1    1    2  501    0 -0.70427507846E+02 -0.35061451232E+02  0.40181686611E+03  0.44449424419E+03  0.17300000000E+03 0. -1.
         -6    1    1    2    0  502  0.70427507846E+02  0.35061451232E+02  0.44477504006E+03  0.48367672622E+03  0.17300000000E+03 0. -1.
<mgrwt>
<rscale>  2 0.19004825E+03</rscale>
<asrwt>0</asrwt>
<pdfrwt beam="1">  1       21 0.13652021E+00 0.19004825E+03</pdfrwt>
<pdfrwt beam="2">  1       21 0.62753133E-02 0.19004825E+03</pdfrwt>
<totfact> 0.69799721E+04</totfact>
</mgrwt>
</event>
<event>
 4    1  0.4336176E+000  0.2961352E+03  0.7546771E-02  0.1087189E+00
         21   -1    0    0  501  502  0.00000000000E+00  0.00000000000E+00  0.47740526834E+02  0.47740526834E+02  0.00000000000E+00 0. -1.
         21   -1    0    0  502  503 -0.00000000000E+00 -0.00000000000E+00 -0.18519025826E+04  0.18519025826E+04  0.00000000000E+00 0. -1.
          6    1    1    2  501    0  0.17651538445E+03  0.16312388240E+03 -0.81668095877E+03  0.86871391745E+03  0.17300000000E+03 0. -1.
         -6    1    1    2    0  503 -0.17651538445E+03 -0.16312388240E+03 -0.98748109697E+03  0.10309291920E+04  0.17300000000E+03 0. -1.
<mgrwt>
<rscale>  2 0.29613524E+03</rscale>
<asrwt>0</asrwt>
<pdfrwt beam="1">  1       21 0.73446971E-02 0.29613524E+03</pdfrwt>
<pdfrwt beam="2">  1       21 0.28490806E+00 0.29613524E+03</pdfrwt>
<totfact> 0.52907021E+03</totfact>
</mgrwt>
</event>
<event>
 4    1  0.4336176E+000  0.1769734E+03  0.7546771E-02  0.1170765E+00
         21   -1    0    0  503  502  0.00000000000E+00  0.00000000000E+00  0.18691562079E+03  0.18691562079E+03  0.00000000000E+00 0. -1.
         21   -1    0    0  501  503 -0.00000000000E+00 -0.00000000000E+00 -0.37146092425E+03  0.37146092425E+03  0.00000000000E+00 0. -1.
          6    1    1    2  501    0  0.32031057075E+02 -0.19094512358E+02 -0.29912009534E+03  0.34755203993E+03  0.17300000000E+03 0.  1.
         -6    1    1    2    0  502 -0.32031057075E+02  0.19094512358E+02  0.11457479188E+03  0.21082450511E+03  0.17300000000E+03 0.  1.
<mgrwt>
<rscale>  2 0.17697341E+03</rscale>
<asrwt>0</asrwt>
<pdfrwt beam="1">  1       21 0.28756249E-01 0.17697341E+03</pdfrwt>
<pdfrwt beam="2">  1       21 0.57147834E-01 0.17697341E+03</pdfrwt>
<totfact> 0.33550787E+04</totfact>
</mgrwt>
</event>
<event>
 4    1  0.4336176E+000  0.1836309E+03  0.7546771E-02  0.1164335E+00
         21   -1    0    0  501  502  0.00000000000E+00  0.00000000000E+00  0.54356008310E+02  0.54356008310E+02  0.00000000000E+00 0. -1.
         21   -1    0    0  502  503 -0.00000000000E+00 -0.00000000000E+00 -0.99570274705E+03  0.99570274705E+03  0.00000000000E+00 0. -1.
          6    1    1    2  501    0 -0.60142305404E+02 -0.13198976823E+02 -0.14831972106E+03  0.23604882873E+03  0.17300000000E+03 0. -1.
         -6    1    1    2    0  503  0.60142305404E+02  0.13198976823E+02 -0.79302701767E+03  0.81400992663E+03  0.17300000000E+03 0. -1.
<mgrwt>
<rscale>  2 0.18363091E+03</rscale>
<asrwt>0</asrwt>
<pdfrwt beam="1">  1       21 0.83624640E-02 0.18363091E+03</pdfrwt>
<pdfrwt beam="2">  1       21 0.15318502E+00 0.18363091E+03</pdfrwt>
<totfact> 0.31587616E+04</totfact>
</mgrwt>
</event>
<event>
 4    1  0.4336176E+000  0.1929785E+03  0.7546771E-02  0.1155802E+00
         21   -1    0    0  503  502  0.00000000000E+00  0.00000000000E+00  0.24104177700E+03  0.24104177700E+03  0.00000000000E+00 0.  1.
         21   -1    0    0  501  503 -0.00000000000E+00 -0.00000000000E+00 -0.16624636431E+03  0.16624636431E+03  0.00000000000E+00 0.  1.
          6    1    1    2  501    0 -0.24989260459E+02 -0.81775492404E+02 -0.16735952676E+02  0.19370283015E+03  0.17300000000E+03 0.  1.
         -6    1    1    2    0  502  0.24989260459E+02  0.81775492404E+02  0.91531365374E+02  0.21358531116E+03  0.17300000000E+03 0.  1.
<mgrwt>
<rscale>  2 0.19297848E+03</rscale>
<asrwt>0</asrwt>
<pdfrwt beam="1">  1       21 0.37083350E-01 0.19297848E+03</pdfrwt>
<pdfrwt beam="2">  1       21 0.25576364E-01 0.19297848E+03</pdfrwt>
<totfact> 0.10169435E+05</totfact>
</mgrwt>
</event>
<event>
 4    1  0.4336176E+000  0.1858567E+03  0.7546771E-02  0.1162252E+00
         21   -1    0    0  503  502  0.00000000000E+00  0.00000000000E+00  0.11206943113E+04  0.11206943113E+04  0.00000000000E+00 0.  1.
         21   -1    0    0  501  503 -0.00000000000E+00 -0.00000000000E+00 -0.33670541398E+02  0.33670541398E+02  0.00000000000E+00 0.  1.
          6    1    1    2  501    0  0.59489247022E+02  0.32783147271E+02  0.37564923857E+03  0.41911222327E+03  0.17300000000E+03 0.  1.
         -6    1    1    2    0  502 -0.59489247022E+02 -0.32783147271E+02  0.71137453137E+03  0.73525262947E+03  0.17300000000E+03 0.  1.
<mgrwt>
<rscale>  2 0.18585668E+03</rscale>
<asrwt>0</asrwt>
<pdfrwt beam="1">  1       21 0.17241448E+00 0.18585668E+03</pdfrwt>
<pdfrwt beam="2">  1       21 0.51800842E-02 0.18585668E+03</pdfrwt>
<totfact> 0.52199404E+04</totfact>
</mgrwt>
</event>
<event>
 4    1  0.4336176E+000  0.2436750E+03  0.7546771E-02  0.1117369E+00
         21   -1    0    0  501  502  0.00000000000E+00  0.00000000000E+00  0.16857012509E+03  0.16857012509E+03  0.00000000000E+00 0. -1.
         21   -1    0    0  502  503 -0.00000000000E+00 -0.00000000000E+00 -0.10441528729E+04  0.10441528729E+04  0.00000000000E+00 0.  1.
          6    1    1    2  501    0 -0.10482262062E+02  0.17128524106E+03  0.55807987422E+02  0.24998408566E+03  0.17300000000E+03 0. -1.
         -6    1    1    2    0  503  0.10482262062E+02 -0.17128524106E+03 -0.93139073523E+03  0.96273891232E+03  0.17300000000E+03 0.  1.
<mgrwt>
<rscale>  2 0.24367501E+03</rscale>
<asrwt>0</asrwt>
<pdfrwt beam="1">  1       21 0.25933866E-01 0.24367501E+03</pdfrwt>
<pdfrwt beam="2">  1       21 0.16063890E+00 0.24367501E+03</pdfrwt>
<totfact> 0.33712284E+03</totfact>
</mgrwt>
</event>
<event>
 4    1  0.4336176E+000  0.1968875E+03  0.7546771E-02  0.1152392E+00
         21   -1    0    0  501  502  0.00000000000E+00  0.00000000000E+00  0.57326998589E+03  0.57326998589E+03  0.00000000000E+00 0. -1.
         21   -1    0    0  502  503 -0.00000000000E+00 -0.00000000000E+00 -0.14813711925E+03  0.14813711925E+03  0.00000000000E+00 0. -1.
          6    1    1    2  501    0 -0.91909236032E+02  0.19707032736E+02  0.47849307034E+03  0.51741694326E+03  0.17300000000E+03 0. -1.
         -6    1    1    2    0  503  0.91909236032E+02 -0.19707032736E+02 -0.53360203692E+02  0.20399016188E+03  0.17300000000E+03 0. -1.
<mgrwt>
<rscale>  2 0.19688747E+03</rscale>
<asrwt>0</asrwt>
<pdfrwt beam="1">  1       21 0.88195381E-01 0.19688747E+03</pdfrwt>
<pdfrwt beam="2">  1       21 0.22790326E-01 0.19688747E+03</pdfrwt>
<totfact> 0.19829333E+04</totfact>
</mgrwt>
</event>
<event>
 4    1  0.4336176E+000  0.2897096E+03  0.7546771E-02  0.1090501E+00
         21   -1    0    0  501  502  0.00000000000E+00  0.00000000000E+00  0.35530734954E+03  0.35530734954E+03  0.00000000000E+00 0.  1.
         21   -1    0    0  502  503 -0.00000000000E+00 -0.00000000000E+00 -0.62041888710E+03  0.62041888710E+03  0.00000000000E+00 0. -1.
          6    1    1    2  501    0 -0.20055234612E+03 -0.11739430388E+03  0.25135650777E+03  0.38355150907E+03  0.17300000000E+03 0.  1.
         -6    1    1    2    0  503  0.20055234612E+03  0.11739430388E+03 -0.51646804533E+03  0.59217472756E+03  0.17300000000E+03 0. -1.
<mgrwt>
<rscale>  2 0.28970962E+03</rscale>
<asrwt>0</asrwt>
<pdfrwt beam="1">  1       21 0.54662669E-01 0.28970962E+03</pdfrwt>
<pdfrwt beam="2">  1       21 0.95449060E-01 0.28970962E+03</pdfrwt>
<totfact> 0.27004468E+03</totfact>
</mgrwt>
</event>
<event>
 4    1  0.4336176E+000  0.1982872E+03  0.7546771E-02  0.1151192E+00
         21   -1    0    0  503  502  0.00000000000E+00  0.00000000000E+00  0.33911032335E+03  0.33911032335E+03  0.00000000000E+00 0. -1.
         21   -1    0    0  501  503 -0.00000000000E+00 -0.00000000000E+00 -0.11594691588E+03  0.11594691588E+03  0.00000000000E+00 0. -1.
          6    1    1    2  501    0 -0.18563925719E+01  0.96878032469E+02  0.11272730362E+03  0.22809043020E+03  0.17300000000E+03 0. -1.
         -6    1    1    2    0  502  0.18563925719E+01 -0.96878032469E+02  0.11043610386E+03  0.22696680903E+03  0.17300000000E+03 0. -1.
<mgrwt>
<rscale>  2 0.19828716E+03</rscale>
<asrwt>0</asrwt>
<pdfrwt beam="1">  1       21 0.52170819E-01 0.19828716E+03</pdfrwt>
<pdfrwt beam="2">  1       21 0.17837987E-01 0.19828716E+03</pdfrwt>
<totfact> 0.99302822E+04</totfact>
</mgrwt>
</event>
<event>
 4    1  0.4336176E+000  0.2077310E+03  0.7546771E-02  0.1143376E+00
         21   -1    0    0  501  502  0.00000000000E+00  0.00000000000E+00  0.40261052591E+03  0.40261052591E+03  0.00000000000E+00 0.  1.
         21   -1    0    0  502  503 -0.00000000000E+00 -0.00000000000E+00 -0.17976188757E+03  0.17976188757E+03  0.00000000000E+00 0.  1.
          6    1    1    2  501    0 -0.11254176492E+03  0.23611702981E+02  0.29645059370E+03  0.36198772890E+03  0.17300000000E+03 0.  1.
         -6    1    1    2    0  503  0.11254176492E+03 -0.23611702981E+02 -0.73601955355E+02  0.22038468459E+03  0.17300000000E+03 0.  1.
<mgrwt>
<rscale>  2 0.20773098E+03</rscale>
<asrwt>0</asrwt>
<pdfrwt beam="1">  1       21 0.61940081E-01 0.20773098E+03</pdfrwt>
<pdfrwt beam="2">  1       21 0.27655675E-01 0.20773098E+03</pdfrwt>
<totfact> 0.29943479E+04</totfact>
</mgrwt>
</event>
<event>
 4    1  0.4336176E+000  0.1899796E+03  0.7546771E-02  0.1158480E+00
         21   -1    0    0  501  502  0.00000000000E+00  0.00000000000E+00  0.45911316915E+03  0.45911316915E+03  0.00000000000E+00 0.  1.
         21   -1    0    0  502  503 -0.00000000000E+00 -0.00000000000E+00 -0.79460924819E+02  0.79460924819E+02  0.00000000000E+00 0.  1.
          6    1    1    2  501    0  0.73352465753E+02 -0.27976028726E+02  0.21764432874E+03  0.28889668785E+03  0.17300000000E+03 0.  1.
         -6    1    1    2    0  503 -0.73352465753E+02  0.27976028726E+02  0.16200791559E+03  0.24967740613E+03  0.17300000000E+03 0.  1.
<mgrwt>
<rscale>  2 0.18997958E+03</rscale>
<asrwt>0</asrwt>
<pdfrwt beam="1">  1       21 0.70632794E-01 0.18997958E+03</pdfrwt>
<pdfrwt beam="2">  1       21 0.12224758E-01 0.18997958E+03</pdfrwt>
<totfact> 0.10321971E+05</totfact>
</mgrwt>
</event>
<event>
 4    1  0.4336176E+000  0.1784196E+03  0.7546771E-02  0.1169341E+00
         21   -1    0    0  503  502  0.00000000000E+00  0.00000000000E+00  0.15322145383E+04  0.15322145383E+04  0.00000000000E+00 0. -1.
         21   -1    0    0  501  503 -0.00000000000E+00 -0.00000000000E+00 -0.30486275193E+02  0.30486275193E+02  0.00000000000E+00 0. -1.
          6    1    1    2  501    0 -0.41873420666E+02  0.12295782638E+02  0.30989789650E+03  0.35758953548E+03  0.17300000000E+03 0. -1.
         -6    1    1    2    0  502  0.41873420666E+02 -0.12295782638E+02  0.11918303666E+04  0.12051112780E+04  0.17300000000E+03 0. -1.
<mgrwt>
<rscale>  2 0.17841964E+03</rscale>
<asrwt>0</asrwt>
<pdfrwt beam="1">  1       21 0.23572525E+00 0.17841964E+03</pdfrwt>
<pdfrwt beam="2">  1       21 0.46901974E-02 0.17841964E+03</pdfrwt>
<totfact> 0.24507686E+04</totfact>
</mgrwt>
</event>
<event>
 4    1  0.4336176E+000  0.1888243E+03  0.7546771E-02  0.1159526E+00
         21   -1    0    0  503  502  0.00000000000E+00  0.00000000000E+00  0.16296249598E+03  0.16296249598E+03  0.00000000000E+00 0. -1.
         21   -1    0    0  501  503 -0.00000000000E+00 -0.00000000000E+00 -0.41308663592E+03  0.41308663592E+03  0.00000000000E+00 0. -1.
          6    1    1    2  501    0  0.45635225354E+02 -0.60357606624E+02 -0.32259579618E+03  0.37379494670E+03  0.17300000000E+03 0. -1.
         -6    1    1    2    0  502 -0.45635225354E+02  0.60357606624E+02  0.72471656245E+02  0.20225418520E+03  0.17300000000E+03 0. -1.
<mgrwt>
<rscale>  2 0.18882430E+03</rscale>
<asrwt>0</asrwt>
<pdfrwt beam="1">  1       21 0.25071153E-01 0.18882430E+03</pdfrwt>
<pdfrwt beam="2">  1       21 0.63551790E-01 0.18882430E+03</pdfrwt>
<totfact> 0.34549926E+04</totfact>
</mgrwt>
</event>
<event>
 4    1  0.4336176E+000  0.1778828E+03  0.7546771E-02  0.1169868E+00
         21   -1    0    0  501  502  0.00000000000E+00  0.00000000000E+00  0.33082882056E+03  0.33082882056E+03  0.00000000000E+00 0.  1.
         21   -1    0    0  502  503 -0.00000000000E+00 -0.00000000000E+00 -0.11383139654E+03  0.11383139654E+03  0.00000000000E+00 0.  1.
          6    1    1    2  501    0 -0.29555473965E+02 -0.28978914414E+02  0.19736438706E+03  0.26569720511E+03  0.17300000000E+03 0.  1.
         -6    1    1    2    0  503  0.29555473965E+02  0.28978914414E+02  0.19633036950E+02  0.17896301199E+03  0.17300000000E+03 0.  1.
<mgrwt>
<rscale>  2 0.17788284E+03</rscale>
<asrwt>0</asrwt>
<pdfrwt beam="1">  1       21 0.50896741E-01 0.17788284E+03</pdfrwt>
<pdfrwt beam="2">  1       21 0.17512523E-01 0.17788284E+03</pdfrwt>
<totfact> 0.10903675E+05</totfact>
</mgrwt>
</event>
<event>
 4    1  0.4336176E+000  0.1787174E+03  0.7546771E-02  0.1169050E+00
         21   -1    0    0  501  502  0.00000000000E+00  0.00000000000E+00  0.75606874775E+03  0.75606874775E+03  0.00000000000E+00 0. -1.
         21   -1    0    0  502  503 -0.00000000000E+00 -0.00000000000E+00 -0.60271616088E+02  0.60271616088E+02  0.00000000000E+00 0. -1.
          6    1    1    2  501    0  0.35825414903E+02  0.26971463455E+02  0.57112478964E+03  0.59843416141E+03  0.17300000000E+03 0. -1.
         -6    1    1    2    0  503 -0.35825414903E+02 -0.26971463455E+02  0.12467234202E+03  0.21790620243E+03  0.17300000000E+03 0. -1.
<mgrwt>
<rscale>  2 0.17871743E+03</rscale>
<asrwt>0</asrwt>
<pdfrwt beam="1">  1       21 0.11631826E+00 0.17871743E+03</pdfrwt>
<pdfrwt beam="2">  1       21 0.92725569E-02 0.17871743E+03</pdfrwt>
<totfact> 0.53229589E+04</totfact>
</mgrwt>
</event>
<event>
 4    1  0.4336176E+000  0.2450124E+03  0.7546771E-02  0.1116498E+00
         21   -1    0    0  501  502  0.00000000000E+00  0.00000000000E+00  0.84335692686E+02  0.84335692686E+02  0.00000000000E+00 0. -1.
         21   -1    0    0  502  503 -0.00000000000E+00 -0.00000000000E+00 -0.78227207392E+03  0.78227207392E+03  0.00000000000E+00 0. -1.
          6    1    1    2  501    0  0.72322365141E+02 -0.15770724570E+03 -0.47901129943E+03  0.53803617428E+03  0.17300000000E+03 0. -1.
         -6    1    1    2    0  503 -0.72322365141E+02  0.15770724570E+03 -0.21892508180E+03  0.32857159233E+03  0.17300000000E+03 0. -1.
<mgrwt>
<rscale>  2 0.24501245E+03</rscale>
<asrwt>0</asrwt>
<pdfrwt beam="1">  1       21 0.12974722E-01 0.24501245E+03</pdfrwt>
<pdfrwt beam="2">  1       21 0.12034955E+00 0.24501245E+03</pdfrwt>
<totfact> 0.25974015E+04</totfact>
</mgrwt>
</event>
<event>
 4    1  0.4336176E+000  0.2723358E+03  0.7546771E-02  0.1099950E+00
         21   -1    0    0  503  502  0.00000000000E+00  0.00000000000E+00  0.97510520335E+02  0.97510520335E+02  0.00000000000E+00 0.  1.
         21   -1    0    0  501  503 -0.00000000000E+00 -0.00000000000E+00 -0.83119401370E+03  0.83119401370E+03  0.00000000000E+00 0.  1.
          6    1    1    2  501    0  0.18322637690E+03 -0.10327564409E+03 -0.23151861604E+03  0.35744598672E+03  0.17300000000E+03 0.  1.
         -6    1    1    2    0  502 -0.18322637690E+03  0.10327564409E+03 -0.50216487733E+03  0.57125854731E+03  0.17300000000E+03 0.  1.
<mgrwt>
<rscale>  2 0.27233576E+03</rscale>
<asrwt>0</asrwt>
<pdfrwt beam="1">  1       21 0.15001619E-01 0.27233576E+03</pdfrwt>
<pdfrwt beam="2">  1       21 0.12787600E+00 0.27233576E+03</pdfrwt>
<totfact> 0.16877225E+04</totfact>
</mgrwt>
</event>
<event>
 4    1  0.4336176E+000  0.2049028E+03  0.7546771E-02  0.1145667E+00
         21   -1    0    0  503  502  0.00000000000E+00  0.00000000000E+00  0.28853239284E+03  0.28853239284E+03  0.00000000000E+00 0.  1.
         21   -1    0    0  501  503 -0.00000000000E+00 -0.00000000000E+00 -0.18298259642E+03  0.18298259642E+03  0.00000000000E+00 0.  1.
          6    1    1    2  501    0  0.10409531385E+03 -0.34932862244E+02 -0.53909675428E+02  0.21187588899E+03  0.17300000000E+03 0.  1.
         -6    1    1    2    0  502 -0.10409531385E+03  0.34932862244E+02  0.15945947184E+03  0.25963910027E+03  0.17300000000E+03 0.  1.
<mgrwt>
<rscale>  2 0.20490276E+03</rscale>
<asrwt>0</asrwt>
<pdfrwt beam="1">  1       21 0.44389599E-01 0.20490276E+03</pdfrwt>
<pdfrwt beam="2">  1       21 0.28151169E-01 0.20490276E+03</pdfrwt>
<totfact> 0.58422853E+04</totfact>
</mgrwt>
</event>
<event>
 4    1  0.4336176E+000  0.1756724E+03  0.7546771E-02  0.1172058E+00
         21   -1    0    0  501  502  0.00000000000E+00  0.00000000000E+00  0.37896487155E+02  0.37896487155E+02  0.00000000000E+00 0. -1.
         21   -1    0    0  502  503 -0.00000000000E+00 -0.00000000000E+00 -0.10350339873E+04  0.10350339873E+04  0.00000000000E+00 0. -1.
          6    1    1    2  501    0  0.22450955978E+02  0.20682102784E+02 -0.25085213861E+03  0.30624759631E+03  0.17300000000E+03 0.  1.
         -6    1    1    2    0  503 -0.22450955978E+02 -0.20682102784E+02 -0.74628536153E+03  0.76668287814E+03  0.17300000000E+03 0.  1.
<mgrwt>
<rscale>  2 0.17567241E+03</rscale>
<asrwt>0</asrwt>
<pdfrwt beam="1">  1       21 0.58302280E-02 0.17567241E+03</pdfrwt>
<pdfrwt beam="2">  1       21 0.15923602E+00 0.17567241E+03</pdfrwt>
<totfact> 0.53320634E+04</totfact>
</mgrwt>
</event>
<event>
 4    1  0.4336176E+000  0.1757792E+03  0.7546771E-02  0.1171952E+00
         21   -1    0    0  501  502  0.00000000000E+00  0.00000000000E+00  0.21400521089E+02  0.21400521089E+02  0.00000000000E+00 0.  1.
         21   -1    0    0  502  503 -0.00000000000E+00 -0.00000000000E+00 -0.14542006821E+04  0.14542006821E+04  0.00000000000E+00 0.  1.
          6    1    1    2  501    0  0.30564445935E+02  0.59268859416E+01 -0.65403772448E+03  0.67724711766E+03  0.17300000000E+03 0.  1.
         -6    1    1    2    0  503 -0.30564445935E+02 -0.59268859416E+01 -0.77876243652E+03  0.79835408552E+03  0.17300000000E+03 0.  1.
<mgrwt>
<rscale>  2 0.17577916E+03</rscale>
<asrwt>0</asrwt>
<pdfrwt beam="1">  1       21 0.32923866E-02 0.17577916E+03</pdfrwt>
<pdfrwt beam="2">  1       21 0.22372327E+00 0.17577916E+03</pdfrwt>
<totfact> 0.52398173E+04</totfact>
</mgrwt>
</event>
<event>
 4    1  0.4336176E+000  0.2063515E+03  0.7546771E-02  0.1144488E+00
         21   -1    0    0  503  502  0.00000000000E+00  0.00000000000E+00  0.11949342247E+03  0.11949342247E+03  0.00000000000E+00 0.  1.
         21   -1    0    0  501  503 -0.00000000000E+00 -0.00000000000E+00 -0.48204509694E+03  0.48204509694E+03  0.00000000000E+00 0.  1.
          6    1    1    2  501    0  0.18287584998E+02 -0.11098433999E+03 -0.33486349648E+03  0.39333766761E+03  0.17300000000E+03 0.  1.
         -6    1    1    2    0  502 -0.18287584998E+02  0.11098433999E+03 -0.27688177983E+02  0.20820085180E+03  0.17300000000E+03 0.  1.
<mgrwt>
<rscale>  2 0.20635154E+03</rscale>
<asrwt>0</asrwt>
<pdfrwt beam="1">  1       21 0.18383603E-01 0.20635154E+03</pdfrwt>
<pdfrwt beam="2">  1       21 0.74160784E-01 0.20635154E+03</pdfrwt>
<totfact> 0.43713929E+04</totfact>
</mgrwt>
</event>
<event>
 4    1  0.4336176E+000  0.1811942E+03  0.7546771E-02  0.1166652E+00
         21   -1    0    0  501  502  0.00000000000E+00  0.00000000000E+00  0.66039925571E+02  0.66039925571E+02  0.00000000000E+00 0.  1.
         21   -1    0    0  502  503 -0.00000000000E+00 -0.00000000000E+00 -0.49752270604E+03  0.49752270604E+03  0.00000000000E+00 0.  1.
          6    1    1    2  501    0 -0.28132949796E+01 -0.53799938159E+02 -0.20796642629E+03  0.27582853812E+03  0.17300000000E+03 0. -1.
         -6    1    1    2    0  503  0.28132949796E+01  0.53799938159E+02 -0.22351635418E+03  0.28773409350E+03  0.17300000000E+03 0. -1.
<mgrwt>
<rscale>  2 0.18119423E+03</rscale>
<asrwt>0</asrwt>
<pdfrwt beam="1">  1       21 0.10159989E-01 0.18119423E+03</pdfrwt>
<pdfrwt beam="2">  1       21 0.76541955E-01 0.18119423E+03</pdfrwt>
<totfact> 0.12036828E+05</totfact>
</mgrwt>
</event>
<event>
 4    1  0.4336176E+000  0.1916681E+03  0.7546771E-02  0.1156965E+00
         21   -1    0    0  503  502  0.00000000000E+00  0.00000000000E+00  0.79602310371E+02  0.79602310371E+02  0.00000000000E+00 0.  1.
         21   -1    0    0  501  503 -0.00000000000E+00 -0.00000000000E+00 -0.53482455977E+03  0.53482455977E+03  0.00000000000E+00 0.  1.
          6    1    1    2  501    0 -0.81956625722E+02  0.95270027095E+01 -0.34136137049E+03  0.39148976685E+03  0.17300000000E+03 0.  1.
         -6    1    1    2    0  502  0.81956625722E+02 -0.95270027095E+01 -0.11386087891E+03  0.22293710330E+03  0.17300000000E+03 0.  1.
<mgrwt>
<rscale>  2 0.19166808E+03</rscale>
<asrwt>0</asrwt>
<pdfrwt beam="1">  1       21 0.12246509E-01 0.19166808E+03</pdfrwt>
<pdfrwt beam="2">  1       21 0.82280702E-01 0.19166808E+03</pdfrwt>
<totfact> 0.73054320E+04</totfact>
</mgrwt>
</event>
<event>
 4    1  0.4336176E+000  0.2114064E+03  0.7546771E-02  0.1140457E+00
         21   -1    0    0  503  502  0.00000000000E+00  0.00000000000E+00  0.56347687833E+03  0.56347687833E+03  0.00000000000E+00 0. -1.
         21   -1    0    0  501  503 -0.00000000000E+00 -0.00000000000E+00 -0.95140413993E+02  0.95140413993E+02  0.00000000000E+00 0. -1.
          6    1    1    2  501    0  0.11480718640E+03  0.39786717824E+02  0.99865182996E+02  0.23380703099E+03  0.17300000000E+03 0. -1.
         -6    1    1    2    0  502 -0.11480718640E+03 -0.39786717824E+02  0.36847128134E+03  0.42481026134E+03  0.17300000000E+03 0. -1.
<mgrwt>
<rscale>  2 0.21140642E+03</rscale>
<asrwt>0</asrwt>
<pdfrwt beam="1">  1       21 0.86688748E-01 0.21140642E+03</pdfrwt>
<pdfrwt beam="2">  1       21 0.14636987E-01 0.21140642E+03</pdfrwt>
<totfact> 0.46537168E+04</totfact>
</mgrwt>
</event>
<event>
 4    1  0.4336176E+000  0.1779180E+03  0.7546771E-02  0.1169833E+00
         21   -1    0    0  503  502  0.00000000000E+00  0.00000000000E+00  0.12010827457E+03  0.12010827457E+03  0.00000000000E+00 0. -1.
         21   -1    0    0  501  503 -0.00000000000E+00 -0.00000000000E+00 -0.32431144686E+03  0.32431144686E+03  0.00000000000E+00 0. -1.
          6    1    1    2  501    0  0.40499024733E+02 -0.92539097534E+01 -0.19828234631E+03  0.26640325582E+03  0.17300000000E+03 0. -1.
         -6    1    1    2    0  502 -0.40499024733E+02  0.92539097534E+01 -0.59208259809E+01  0.17801646562E+03  0.17300000000E+03 0. -1.
<mgrwt>
<rscale>  2 0.17791798E+03</rscale>
<asrwt>0</asrwt>
<pdfrwt beam="1">  1       21 0.18478196E-01 0.17791798E+03</pdfrwt>
<pdfrwt beam="2">  1       21 0.49894069E-01 0.17791798E+03</pdfrwt>
<totfact> 0.10293313E+05</totfact>
</mgrwt>
</event>
<event>
 4    1  0.4336176E+000  0.2401488E+03  0.7546771E-02  0.1119694E+00
         21   -1    0    0  503  502  0.00000000000E+00  0.00000000000E+00  0.14077762607E+04  0.14077762607E+04  0.00000000000E+00 0. -1.
         21   -1    0    0  501  503 -0.00000000000E+00 -0.00000000000E+00 -0.77219715844E+02  0.77219715844E+02  0.00000000000E+00 0. -1.
          6    1    1    2  501    0  0.16278445441E+03 -0.35265918416E+02  0.15652723006E+03  0.28665700296E+03  0.17300000000E+03 0. -1.
         -6    1    1    2    0  502 -0.16278445441E+03  0.35265918416E+02  0.11740293148E+04  0.11983389736E+04  0.17300000000E+03 0. -1.
<mgrwt>
<rscale>  2 0.24014884E+03</rscale>
<asrwt>0</asrwt>
<pdfrwt beam="1">  1       21 0.21658094E+00 0.24014884E+03</pdfrwt>
<pdfrwt beam="2">  1       21 0.11879957E-01 0.24014884E+03</pdfrwt>
<totfact> 0.60570972E+03</totfact>
</mgrwt>
</event>
<event>
 4    1  0.4336176E+000  0.2082812E+03  0.7546771E-02  0.1142934E+00
         21   -1    0    0  501  502  0.00000000000E+00  0.00000000000E+00  0.30848011877E+03  0.30848011877E+03  0.00000000000E+00 0. -1.
         21   -1    0    0  502  503 -0.00000000000E+00 -0.00000000000E+00 -0.39428443582E+03  0.39428443582E+03  0.00000000000E+00 0.  1.
          6    1    1    2  501    0 -0.70434864951E+02 -0.92146457424E+02  0.23893464724E+03  0.31697130070E+03  0.17300000000E+03 0. -1.
         -6    1    1    2    0  503  0.70434864951E+02  0.92146457424E+02 -0.32473896429E+03  0.38579325389E+03  0.17300000000E+03 0.  1.
<mgrwt>
<rscale>  2 0.20828116E+03</rscale>
<asrwt>0</asrwt>
<pdfrwt beam="1">  1       21 0.47458480E-01 0.20828116E+03</pdfrwt>
<pdfrwt beam="2">  1       21 0.60659143E-01 0.20828116E+03</pdfrwt>
<totfact> 0.10635419E+04</totfact>
</mgrwt>
</event>
<event>
 4    1  0.4336176E+000  0.2689597E+03  0.7546771E-02  0.1101876E+00
         21   -1    0    0  501  502  0.00000000000E+00  0.00000000000E+00  0.20176240624E+03  0.20176240624E+03  0.00000000000E+00 0.  1.
         21   -1    0    0  502  503 -0.00000000000E+00 -0.00000000000E+00 -0.73018409579E+03  0.73018409579E+03  0.00000000000E+00 0. -1.
          6    1    1    2  501    0  0.20318135780E+03 -0.33580840255E+02  0.68226673582E+02  0.27747831623E+03  0.17300000000E+03 0.  1.
         -6    1    1    2    0  503 -0.20318135780E+03  0.33580840255E+02 -0.59664836313E+03  0.65446818580E+03  0.17300000000E+03 0. -1.
<mgrwt>
<rscale>  2 0.26895973E+03</rscale>
<asrwt>0</asrwt>
<pdfrwt beam="1">  1       21 0.31040370E-01 0.26895973E+03</pdfrwt>
<pdfrwt beam="2">  1       21 0.11233601E+00 0.26895973E+03</pdfrwt>
<totfact> 0.58768787E+03</totfact>
</mgrwt>
</event>
<event>
 4    1  0.4336176E+000  0.2605572E+03  0.7546771E-02  0.1106809E+00
         21   -1    0    0  501  502  0.00000000000E+00  0.00000000000E+00  0.13588473340E+03  0.13588473340E+03  0.00000000000E+00 0.  1.
         21   -1    0    0  502  503 -0.00000000000E+00 -0.00000000000E+00 -0.64721226003E+03  0.64721226003E+03  0.00000000000E+00 0. -1.
          6    1    1    2  501    0  0.13324193720E+02  0.19437988660E+03 -0.68681209190E+02  0.26945720059E+03  0.17300000000E+03 0.  1.
         -6    1    1    2    0  503 -0.13324193720E+02 -0.19437988660E+03 -0.44264631744E+03  0.51363979284E+03  0.17300000000E+03 0. -1.
<mgrwt>
<rscale>  2 0.26055724E+03</rscale>
<asrwt>0</asrwt>
<pdfrwt beam="1">  1       21 0.20905343E-01 0.26055724E+03</pdfrwt>
<pdfrwt beam="2">  1       21 0.99571118E-01 0.26055724E+03</pdfrwt>
<totfact> 0.16954927E+04</totfact>
</mgrwt>
</event>
<event>
 4    1  0.4336176E+000  0.1828226E+03  0.7546771E-02  0.1165099E+00
         21   -1    0    0  503  502  0.00000000000E+00  0.00000000000E+00  0.69877433606E+03  0.69877433606E+03  0.00000000000E+00 0. -1.
         21   -1    0    0  501  503 -0.00000000000E+00 -0.00000000000E+00 -0.54977108215E+02  0.54977108215E+02  0.00000000000E+00 0. -1.
          6    1    1    2  501    0 -0.44736247204E+02 -0.38649422718E+02  0.18603692084E+03  0.26083298412E+03  0.17300000000E+03 0. -1.
         -6    1    1    2    0  502  0.44736247204E+02  0.38649422718E+02  0.45776030700E+03  0.49291846015E+03  0.17300000000E+03 0. -1.
<mgrwt>
<rscale>  2 0.18282262E+03</rscale>
<asrwt>0</asrwt>
<pdfrwt beam="1">  1       21 0.10750374E+00 0.18282262E+03</pdfrwt>
<pdfrwt beam="2">  1       21 0.84580172E-02 0.18282262E+03</pdfrwt>
<totfact> 0.75513273E+04</totfact>
</mgrwt>
</event>
<event>
 4    1  0.4336176E+000  0.1752725E+03  0.7546771E-02  0.1172458E+00
         21   -1    0    0  503  502  0.00000000000E+00  0.00000000000E+00  0.29314367098E+02  0.29314367098E+02  0.00000000000E+00 0. -1.
         21   -1    0    0  501  503 -0.00000000000E+00 -0.00000000000E+00 -0.20280464510E+04  0.20280464510E+04  0.00000000000E+00 0. -1.
          6    1    1    2  501    0 -0.26228166278E+02  0.10174591893E+02 -0.17144755328E+04  0.17234113820E+04  0.17300000000E+03 0. -1.
         -6    1    1    2    0  502  0.26228166278E+02 -0.10174591893E+02 -0.28425655109E+03  0.33394943609E+03  0.17300000000E+03 0. -1.
<mgrwt>
<rscale>  2 0.17527247E+03</rscale>
<asrwt>0</asrwt>
<pdfrwt beam="1">  1       21 0.45099024E-02 0.17527247E+03</pdfrwt>
<pdfrwt beam="2">  1       21 0.31200716E+00 0.17527247E+03</pdfrwt>
<totfact> 0.95124994E+03</totfact>
</mgrwt>
</event>
<event>
 4    1  0.4336176E+000  0.1876374E+03  0.7546771E-02  0.1160610E+00
         21   -1    0    0  503  502  0.00000000000E+00  0.00000000000E+00  0.73842516867E+03  0.73842516867E+03  0.00000000000E+00 0.  1.
         21   -1    0    0  501  503 -0.00000000000E+00 -0.00000000000E+00 -0.13479085624E+03  0.13479085624E+03  0.00000000000E+00 0. -1.
          6    1    1    2  501    0 -0.86715310526E-01  0.72655255681E+02 -0.49176042686E+02  0.19397442324E+03  0.17300000000E+03 0. -1.
         -6    1    1    2    0  502  0.86715310526E-01 -0.72655255681E+02  0.65281035511E+03  0.67924160167E+03  0.17300000000E+03 0.  1.
<mgrwt>
<rscale>  2 0.18763740E+03</rscale>
<asrwt>0</asrwt>
<pdfrwt beam="1">  1       21 0.11360387E+00 0.18763740E+03</pdfrwt>
<pdfrwt beam="2">  1       21 0.20737055E-01 0.18763740E+03</pdfrwt>
<totfact> 0.13073168E+04</totfact>
</mgrwt>
</event>
<event>
 4    1  0.4336176E+000  0.2237605E+03  0.7546771E-02  0.1131110E+00
         21   -1    0    0  501  502  0.00000000000E+00  0.00000000000E+00  0.10179235370E+04  0.10179235370E+04  0.00000000000E+00 0. -1.
         21   -1    0    0  502  503 -0.00000000000E+00 -0.00000000000E+00 -0.81173390461E+02  0.81173390461E+02  0.00000000000E+00 0. -1.
          6    1    1    2  501    0 -0.50478703118E+02 -0.13263351585E+03  0.81334466292E+03  0.84356285462E+03  0.17300000000E+03 0. -1.
         -6    1    1    2    0  503  0.50478703118E+02  0.13263351585E+03  0.12340548362E+03  0.25553407284E+03  0.17300000000E+03 0. -1.
<mgrwt>
<rscale>  2 0.22376047E+03</rscale>
<asrwt>0</asrwt>
<pdfrwt beam="1">  1       21 0.15660361E+00 0.22376047E+03</pdfrwt>
<pdfrwt beam="2">  1       21 0.12488215E-01 0.22376047E+03</pdfrwt>
<totfact> 0.14256494E+04</totfact>
</mgrwt>
</event>
<event>
 4    1  0.4336176E+000  0.1769610E+03  0.7546771E-02  0.1170777E+00
         21   -1    0    0  501  502  0.00000000000E+00  0.00000000000E+00  0.23634127720E+03  0.23634127720E+03  0.00000000000E+00 0.  1.
         21   -1    0    0  502  503 -0.00000000000E+00 -0.00000000000E+00 -0.15618818564E+03  0.15618818564E+03  0.00000000000E+00 0.  1.
          6    1    1    2  501    0  0.36556488257E+02 -0.70585826306E+01  0.11651023158E+03  0.21187221263E+03  0.17300000000E+03 0.  1.
         -6    1    1    2    0  503 -0.36556488257E+02  0.70585826306E+01 -0.36357140016E+02  0.18065725021E+03  0.17300000000E+03 0.  1.
<mgrwt>
<rscale>  2 0.17696101E+03</rscale>
<asrwt>0</asrwt>
<pdfrwt beam="1">  1       21 0.36360196E-01 0.17696101E+03</pdfrwt>
<pdfrwt beam="2">  1       21 0.24028952E-01 0.17696101E+03</pdfrwt>
<totfact> 0.11981338E+05</totfact>
</mgrwt>
</event>
<event>
 4    1  0.4336176E+000  0.1738740E+03  0.7546771E-02  0.1173867E+00
         21   -1    0    0  503  502  0.00000000000E+00  0.00000000000E+00  0.34799799399E+03  0.34799799399E+03  0.00000000000E+00 0.  1.
         21   -1    0    0  501  503 -0.00000000000E+00 -0.00000000000E+00 -0.12857545804E+03  0.12857545804E+03  0.00000000000E+00 0.  1.
          6    1    1    2  501    0 -0.17281724002E+02 -0.21221469777E+01 -0.25993054275E+02  0.17580614427E+03  0.17300000000E+03 0.  1.
         -6    1    1    2    0  502  0.17281724002E+02  0.21221469777E+01  0.24541559022E+03  0.30076730776E+03  0.17300000000E+03 0.  1.
<mgrwt>
<rscale>  2 0.17387398E+03</rscale>
<asrwt>0</asrwt>
<pdfrwt beam="1">  1       21 0.53538153E-01 0.17387398E+03</pdfrwt>
<pdfrwt beam="2">  1       21 0.19780840E-01 0.17387398E+03</pdfrwt>
<totfact> 0.78410233E+04</totfact>
</mgrwt>
</event>
<event>
 4    1  0.4336176E+000  0.2573420E+03  0.7546771E-02  0.1108751E+00
         21   -1    0    0  503  502  0.00000000000E+00  0.00000000000E+00  0.76079446761E+03  0.76079446761E+03  0.00000000000E+00 0. -1.
         21   -1    0    0  501  503 -0.00000000000E+00 -0.00000000000E+00 -0.11065584377E+03  0.11065584377E+03  0.00000000000E+00 0. -1.
          6    1    1    2  501    0 -0.17072334448E+03 -0.84554342093E+02  0.12380695195E+03  0.28557496120E+03  0.17300000000E+03 0. -1.
         -6    1    1    2    0  502  0.17072334448E+03  0.84554342093E+02  0.52633167189E+03  0.58587535018E+03  0.17300000000E+03 0. -1.
<mgrwt>
<rscale>  2 0.25734198E+03</rscale>
<asrwt>0</asrwt>
<pdfrwt beam="1">  1       21 0.11704530E+00 0.25734198E+03</pdfrwt>
<pdfrwt beam="2">  1       21 0.17023976E-01 0.25734198E+03</pdfrwt>
<totfact> 0.16824151E+04</totfact>
</mgrwt>
</event>
<event>
 4    1  0.4336176E+000  0.2426533E+03  0.7546771E-02  0.1118038E+00
         21   -1    0    0  501  502  0.00000000000E+00  0.00000000000E+00  0.19911249718E+03  0.19911249718E+03  0.00000000000E+00 0.  1.
         21   -1    0    0  502  503 -0.00000000000E+00 -0.00000000000E+00 -0.29784168090E+03  0.29784168090E+03  0.00000000000E+00 0. -1.
          6    1    1    2  501    0  0.51181317215E+02 -0.16227174042E+03 -0.28370497253E+02  0.24430622196E+03  0.17300000000E+03 0. -1.
         -6    1    1    2    0  503 -0.51181317215E+02  0.16227174042E+03 -0.70358686464E+02  0.25264795612E+03  0.17300000000E+03 0.  1.
<mgrwt>
<rscale>  2 0.24265334E+03</rscale>
<asrwt>0</asrwt>
<pdfrwt beam="1">  1       21 0.30632692E-01 0.24265334E+03</pdfrwt>
<pdfrwt beam="2">  1       21 0.45821797E-01 0.24265334E+03</pdfrwt>
<totfact> 0.45644732E+04</totfact>
</mgrwt>
</event>
<event>
 4    1  0.4336176E+000  0.2025707E+03  0.7546771E-02  0.1147588E+00
         21   -1    0    0  501  502  0.00000000000E+00  0.00000000000E+00  0.60624044505E+03  0.60624044505E+03  0.00000000000E+00 0. -1.
         21   -1    0    0  502  503 -0.00000000000E+00 -0.00000000000E+00 -0.94810145041E+02  0.94810145041E+02  0.00000000000E+00 0. -1.
          6    1    1    2  501    0 -0.91597162875E+02  0.52113966019E+02  0.44319642769E+03  0.48729660292E+03  0.17300000000E+03 0. -1.
         -6    1    1    2    0  503  0.91597162875E+02 -0.52113966019E+02  0.68233872325E+02  0.21375398718E+03  0.17300000000E+03 0. -1.
<mgrwt>
<rscale>  2 0.20257074E+03</rscale>
<asrwt>0</asrwt>
<pdfrwt beam="1">  1       21 0.93267758E-01 0.20257074E+03</pdfrwt>
<pdfrwt beam="2">  1       21 0.14586177E-01 0.20257074E+03</pdfrwt>
<totfact> 0.39704376E+04</totfact>
</mgrwt>
</event>
<event>
 4    1  0.4336176E+000  0.1844145E+03  0.7546771E-02  0.1163598E+00
         21   -1    0    0  501  502  0.00000000000E+00  0.00000000000E+00  0.34570742465E+02  0.34570742465E+02  0.00000000000E+00 0.  1.
         21   -1    0    0  502  503 -0.00000000000E+00 -0.00000000000E+00 -0.14449209731E+04  0.14449209731E+04  0.00000000000E+00 0.  1.
          6    1    1    2  501    0 -0.52280513681E+02  0.36694002970E+02 -0.28725324512E+03  0.34135484294E+03  0.17300000000E+03 0.  1.
         -6    1    1    2    0  503  0.52280513681E+02 -0.36694002970E+02 -0.11230969855E+04  0.11381368727E+04  0.17300000000E+03 0.  1.
<mgrwt>
<rscale>  2 0.18441448E+03</rscale>
<asrwt>0</asrwt>
<pdfrwt beam="1">  1       21 0.53185763E-02 0.18441448E+03</pdfrwt>
<pdfrwt beam="2">  1       21 0.22229551E+00 0.18441448E+03</pdfrwt>
<totfact> 0.23744606E+04</totfact>
</mgrwt>
</event>
<event>
 4    1  0.4336176E+000  0.2595594E+03  0.7546771E-02  0.1107408E+00
         21   -1    0    0  503  502  0.00000000000E+00  0.00000000000E+00  0.36513605142E+03  0.36513605142E+03  0.00000000000E+00 0. -1.
         21   -1    0    0  501  503 -0.00000000000E+00 -0.00000000000E+00 -0.18643759463E+03  0.18643759463E+03  0.00000000000E+00 0. -1.
          6    1    1    2  501    0  0.11873495375E+03 -0.15278770997E+03  0.61303293195E+02  0.26670051990E+03  0.17300000000E+03 0. -1.
         -6    1    1    2    0  502 -0.11873495375E+03  0.15278770997E+03  0.11739516359E+03  0.28487312614E+03  0.17300000000E+03 0. -1.
<mgrwt>
<rscale>  2 0.25955938E+03</rscale>
<asrwt>0</asrwt>
<pdfrwt beam="1">  1       21 0.56174777E-01 0.25955938E+03</pdfrwt>
<pdfrwt beam="2">  1       21 0.28682707E-01 0.25955938E+03</pdfrwt>
<totfact> 0.33587168E+04</totfact>
</mgrwt>
</event>
<event>
 4    1  0.4336176E+000  0.3109316E+03  0.7546771E-02  0.1079900E+00
         21   -1    0    0  503  502  0.00000000000E+00  0.00000000000E+00  0.52903366988E+03  0.52903366988E+03  0.00000000000E+00 0.  1.
         21   -1    0    0  501  503 -0.00000000000E+00 -0.00000000000E+00 -0.20107719777E+03  0.20107719777E+03  0.00000000000E+00 0. -1.
          6    1    1    2  501    0 -0.24803083820E+03 -0.72319791886E+02  0.53753162927E+02  0.31554373948E+03  0.17300000000E+03 0. -1.
         -6    1    1    2    0  502  0.24803083820E+03  0.72319791886E+02  0.27420330919E+03  0.41456712818E+03  0.17300000000E+03 0.  1.
<mgrwt>
<rscale>  2 0.31093158E+03</rscale>
<asrwt>0</asrwt>
<pdfrwt beam="1">  1       21 0.81389795E-01 0.31093158E+03</pdfrwt>
<pdfrwt beam="2">  1       21 0.30934954E-01 0.31093158E+03</pdfrwt>
<totfact> 0.12462243E+04</totfact>
</mgrwt>
</event>
<event>
 4    1  0.4336176E+000  0.1770040E+03  0.7546771E-02  0.1170734E+00
         21   -1    0    0  501  502  0.00000000000E+00  0.00000000000E+00  0.17691726145E+03  0.17691726145E+03  0.00000000000E+00 0.  1.
         21   -1    0    0  502  503 -0.00000000000E+00 -0.00000000000E+00 -0.52404583192E+03  0.52404583192E+03  0.00000000000E+00 0.  1.
          6    1    1    2  501    0  0.40206498584E+01 -0.37218917871E+02  0.11161444912E+03  0.20925629913E+03  0.17300000000E+03 0.  1.
         -6    1    1    2    0  503 -0.40206498584E+01  0.37218917871E+02 -0.45874301960E+03  0.49170679424E+03  0.17300000000E+03 0.  1.
<mgrwt>
<rscale>  2 0.17700399E+03</rscale>
<asrwt>0</asrwt>
<pdfrwt beam="1">  1       21 0.27218040E-01 0.17700399E+03</pdfrwt>
<pdfrwt beam="2">  1       21 0.80622436E-01 0.17700399E+03</pdfrwt>
<totfact> 0.17562629E+04</totfact>
</mgrwt>
</event>
<event>
 4    1  0.4336176E+000  0.1870958E+03  0.7546771E-02  0.1161107E+00
         21   -1    0    0  503  502  0.00000000000E+00  0.00000000000E+00  0.85607093396E+03  0.85607093396E+03  0.00000000000E+00 0.  1.
         21   -1    0    0  501  503 -0.00000000000E+00 -0.00000000000E+00 -0.55360708999E+02  0.55360708999E+02  0.00000000000E+00 0. -1.
          6    1    1    2  501    0  0.40547600133E+02 -0.58580916901E+02  0.16736548280E+03  0.25102995147E+03  0.17300000000E+03 0. -1.
         -6    1    1    2    0  502 -0.40547600133E+02  0.58580916901E+02  0.63334474215E+03  0.66040169148E+03  0.17300000000E+03 0.  1.
<mgrwt>
<rscale>  2 0.18709578E+03</rscale>
<asrwt>0</asrwt>
<pdfrwt beam="1">  1       21 0.13170321E+00 0.18709578E+03</pdfrwt>
<pdfrwt beam="2">  1       21 0.85170328E-02 0.18709578E+03</pdfrwt>
<totfact> 0.45135510E+04</totfact>
</mgrwt>
</event>
<event>
 4    1  0.4336176E+000  0.2702576E+03  0.7546771E-02  0.1101132E+00
         21   -1    0    0  501  502  0.00000000000E+00  0.00000000000E+00  0.10730090870E+03  0.10730090870E+03  0.00000000000E+00 0.  1.
         21   -1    0    0  502  503 -0.00000000000E+00 -0.00000000000E+00 -0.80408753268E+03  0.80408753268E+03  0.00000000000E+00 0. -1.
          6    1    1    2  501    0  0.66486784542E+02  0.19669688784E+03 -0.52690507977E+03  0.59217237464E+03  0.17300000000E+03 0. -1.
         -6    1    1    2    0  503 -0.66486784542E+02 -0.19669688784E+03 -0.16988154421E+03  0.31921606675E+03  0.17300000000E+03 0.  1.
<mgrwt>
<rscale>  2 0.27025758E+03</rscale>
<asrwt>0</asrwt>
<pdfrwt beam="1">  1       21 0.16507832E-01 0.27025758E+03</pdfrwt>
<pdfrwt beam="2">  1       21 0.12370578E+00 0.27025758E+03</pdfrwt>
<totfact> 0.15405962E+04</totfact>
</mgrwt>
</event>
<event>
 4    1  0.4336176E+000  0.2027594E+03  0.7546771E-02  0.1147432E+00
         21   -1    0    0  503  502  0.00000000000E+00  0.00000000000E+00  0.22856670228E+03  0.22856670228E+03  0.00000000000E+00 0.  1.
         21   -1    0    0  501  503 -0.00000000000E+00 -0.00000000000E+00 -0.19187933384E+03  0.19187933384E+03  0.00000000000E+00 0.  1.
          6    1    1    2  501    0  0.99283106925E+02  0.36403957703E+02 -0.34257744992E+02  0.20563311151E+03  0.17300000000E+03 0.  1.
         -6    1    1    2    0  502 -0.99283106925E+02 -0.36403957703E+02  0.70945113435E+02  0.21481292461E+03  0.17300000000E+03 0.  1.
<mgrwt>
<rscale>  2 0.20275942E+03</rscale>
<asrwt>0</asrwt>
<pdfrwt beam="1">  1       21 0.35164108E-01 0.20275942E+03</pdfrwt>
<pdfrwt beam="2">  1       21 0.29519898E-01 0.20275942E+03</pdfrwt>
<totfact> 0.85369099E+04</totfact>
</mgrwt>
</event>
<event>
 4    1  0.4336176E+000  0.1929522E+03  0.7546771E-02  0.1155825E+00
         21   -1    0    0  503  502  0.00000000000E+00  0.00000000000E+00  0.66515447853E+03  0.66515447853E+03  0.00000000000E+00 0.  1.
         21   -1    0    0  501  503 -0.00000000000E+00 -0.00000000000E+00 -0.56385434794E+02  0.56385434794E+02  0.00000000000E+00 0. -1.
          6    1    1    2  501    0 -0.48274015794E+02  0.70506623270E+02  0.33524659731E+03  0.38680853860E+03  0.17300000000E+03 0. -1.
         -6    1    1    2    0  502  0.48274015794E+02 -0.70506623270E+02  0.27352244643E+03  0.33473137473E+03  0.17300000000E+03 0.  1.
<mgrwt>
<rscale>  2 0.19295223E+03</rscale>
<asrwt>0</asrwt>
<pdfrwt beam="1">  1       21 0.10233145E+00 0.19295223E+03</pdfrwt>
<pdfrwt beam="2">  1       21 0.86746827E-02 0.19295223E+03</pdfrwt>
<totfact> 0.80958330E+04</totfact>
</mgrwt>
</event>
<event>
 4    1  0.4336176E+000  0.1848389E+03  0.7546771E-02  0.1163200E+00
         21   -1    0    0  503  502  0.00000000000E+00  0.00000000000E+00  0.16337859233E+03  0.16337859233E+03  0.00000000000E+00 0.  1.
         21   -1    0    0  501  503 -0.00000000000E+00 -0.00000000000E+00 -0.22874480709E+03  0.22874480709E+03  0.00000000000E+00 0.  1.
          6    1    1    2  501    0  0.65984026464E+01  0.64752483544E+02 -0.90113357909E+02  0.20563521176E+03  0.17300000000E+03 0.  1.
         -6    1    1    2    0  502 -0.65984026464E+01 -0.64752483544E+02  0.24747143146E+02  0.18648818766E+03  0.17300000000E+03 0.  1.
<mgrwt>
<rscale>  2 0.18483891E+03</rscale>
<asrwt>0</asrwt>
<pdfrwt beam="1">  1       21 0.25135168E-01 0.18483891E+03</pdfrwt>
<pdfrwt beam="2">  1       21 0.35191508E-01 0.18483891E+03</pdfrwt>
<totfact> 0.11702557E+05</totfact>
</mgrwt>
</event>
<event>
 4    1  0.4336176E+000  0.1959576E+03  0.7546771E-02  0.1153195E+00
         21   -1    0    0  501  502  0.00000000000E+00  0.00000000000E+00  0.30325313094E+03  0.30325313094E+03  0.00000000000E+00 0. -1.
         21   -1    0    0  502  503 -0.00000000000E+00 -0.00000000000E+00 -0.12712036538E+03  0.12712036538E+03  0.00000000000E+00 0.  1.
          6    1    1    2  501    0 -0.22800751689E+02 -0.89165691750E+02  0.10150078198E+03  0.22068485133E+03  0.17300000000E+03 0.  1.
         -6    1    1    2    0  503  0.22800751689E+02  0.89165691750E+02  0.74631983586E+02  0.20968864499E+03  0.17300000000E+03 0. -1.
<mgrwt>
<rscale>  2 0.19595764E+03</rscale>
<asrwt>0</asrwt>
<pdfrwt beam="1">  1       21 0.46654327E-01 0.19595764E+03</pdfrwt>
<pdfrwt beam="2">  1       21 0.19556979E-01 0.19595764E+03</pdfrwt>
<totfact> 0.10574596E+05</totfact>
</mgrwt>
</event>
<event>
 4    1  0.4336176E+000  0.1893133E+03  0.7546771E-02  0.1159082E+00
         21   -1    0    0  501  502  0.00000000000E+00  0.00000000000E+00  0.82430704011E+02  0.82430704011E+02  0.00000000000E+00 0.  1.
         21   -1    0    0  502  503 -0.00000000000E+00 -0.00000000000E+00 -0.68049558826E+03  0.68049558826E+03  0.00000000000E+00 0.  1.
          6    1    1    2  501    0  0.73625043303E+02  0.22133079895E+02 -0.69812139730E+02  0.20177525884E+03  0.17300000000E+03 0. -1.
         -6    1    1    2    0  503 -0.73625043303E+02 -0.22133079895E+02 -0.52825274452E+03  0.56115103343E+03  0.17300000000E+03 0. -1.
<mgrwt>
<rscale>  2 0.18931329E+03</rscale>
<asrwt>0</asrwt>
<pdfrwt beam="1">  1       21 0.12681647E-01 0.18931329E+03</pdfrwt>
<pdfrwt beam="2">  1       21 0.10469163E+00 0.18931329E+03</pdfrwt>
<totfact> 0.39176083E+04</totfact>
</mgrwt>
</event>
<event>
 4    1  0.4336176E+000  0.1956209E+03  0.7546771E-02  0.1153487E+00
         21   -1    0    0  501  502  0.00000000000E+00  0.00000000000E+00  0.13528462290E+03  0.13528462290E+03  0.00000000000E+00 0. -1.
         21   -1    0    0  502  503 -0.00000000000E+00 -0.00000000000E+00 -0.47354074410E+03  0.47354074410E+03  0.00000000000E+00 0.  1.
          6    1    1    2  501    0 -0.64352913279E+02  0.64786000463E+02  0.24037538387E+02  0.19709217781E+03  0.17300000000E+03 0. -1.
         -6    1    1    2    0  503  0.64352913279E+02 -0.64786000463E+02 -0.36229365958E+03  0.41173318919E+03  0.17300000000E+03 0.  1.
<mgrwt>
<rscale>  2 0.19562087E+03</rscale>
<asrwt>0</asrwt>
<pdfrwt beam="1">  1       21 0.20813019E-01 0.19562087E+03</pdfrwt>
<pdfrwt beam="2">  1       21 0.72852421E-01 0.19562087E+03</pdfrwt>
<totfact> 0.36283179E+04</totfact>
</mgrwt>
</event>
<event>
 4    1  0.4336176E+000  0.2446325E+03  0.7546771E-02  0.1116745E+00
         21   -1    0    0  503  502  0.00000000000E+00  0.00000000000E+00  0.82767215174E+02  0.82767215174E+02  0.00000000000E+00 0.  1.
         21   -1    0    0  501  503 -0.00000000000E+00 -0.00000000000E+00 -0.12855552607E+04  0.12855552607E+04  0.00000000000E+00 0.  1.
          6    1    1    2  501    0  0.83591505549E+02  0.15142161483E+03 -0.10539532284E+04  0.10819715583E+04  0.17300000000E+03 0.  1.
         -6    1    1    2    0  502 -0.83591505549E+02 -0.15142161483E+03 -0.14883481717E+03  0.28635091765E+03  0.17300000000E+03 0.  1.
<mgrwt>
<rscale>  2 0.24463247E+03</rscale>
<asrwt>0</asrwt>
<pdfrwt beam="1">  1       21 0.12733419E-01 0.24463247E+03</pdfrwt>
<pdfrwt beam="2">  1       21 0.19777772E+00 0.24463247E+03</pdfrwt>
<totfact> 0.70234880E+03</totfact>
</mgrwt>
</event>
<event>
 4    1  0.4336176E+000  0.2685220E+03  0.7546771E-02  0.1102128E+00
         21   -1    0    0  503  502  0.00000000000E+00  0.00000000000E+00  0.41245181308E+02  0.41245181308E+02  0.00000000000E+00 0. -1.
         21   -1    0    0  501  503 -0.00000000000E+00 -0.00000000000E+00 -0.24357206556E+04  0.24357206556E+04  0.00000000000E+00 0. -1.
          6    1    1    2  501    0  0.19603663015E+03  0.61193960908E+02 -0.18552364027E+04  0.18745682625E+04  0.17300000000E+03 0. -1.
         -6    1    1    2    0  502 -0.19603663015E+03 -0.61193960908E+02 -0.53923907159E+03  0.60239757432E+03  0.17300000000E+03 0. -1.
<mgrwt>
<rscale>  2 0.26852199E+03</rscale>
<asrwt>0</asrwt>
<pdfrwt beam="1">  1       21 0.63454128E-02 0.26852199E+03</pdfrwt>
<pdfrwt beam="2">  1       21 0.37472624E+00 0.26852199E+03</pdfrwt>
<totfact> 0.20364058E+03</totfact>
</mgrwt>
</event>
<event>
 4    1  0.4336176E+000  0.1916303E+03  0.7546771E-02  0.1156999E+00
         21   -1    0    0  501  502  0.00000000000E+00  0.00000000000E+00  0.95680327457E+02  0.95680327457E+02  0.00000000000E+00 0. -1.
         21   -1    0    0  502  503 -0.00000000000E+00 -0.00000000000E+00 -0.67084182565E+03  0.67084182565E+03  0.00000000000E+00 0.  1.
          6    1    1    2  501    0  0.81817028903E+02  0.99570326374E+01 -0.36879340515E+02  0.19514675112E+03  0.17300000000E+03 0. -1.
         -6    1    1    2    0  503 -0.81817028903E+02 -0.99570326374E+01 -0.53828215768E+03  0.57137540198E+03  0.17300000000E+03 0.  1.
<mgrwt>
<rscale>  2 0.19163029E+03</rscale>
<asrwt>0</asrwt>
<pdfrwt beam="1">  1       21 0.14720050E-01 0.19163029E+03</pdfrwt>
<pdfrwt beam="2">  1       21 0.10320643E+00 0.19163029E+03</pdfrwt>
<totfact> 0.30929844E+04</totfact>
</mgrwt>
</event>
<event>
 4    1  0.4336176E+000  0.2562718E+03  0.7546771E-02  0.1109404E+00
         21   -1    0    0  501  502  0.00000000000E+00  0.00000000000E+00  0.87872348323E+03  0.87872348323E+03  0.00000000000E+00 0. -1.
         21   -1    0    0  502  503 -0.00000000000E+00 -0.00000000000E+00 -0.25738965440E+03  0.25738965440E+03  0.00000000000E+00 0. -1.
          6    1    1    2  501    0 -0.18906642502E+03  0.33264998342E+00  0.78919368698E+03  0.82976014564E+03  0.17300000000E+03 0. -1.
         -6    1    1    2    0  503  0.18906642502E+03 -0.33264998342E+00 -0.16785985814E+03  0.30635299199E+03  0.17300000000E+03 0. -1.
<mgrwt>
<rscale>  2 0.25627178E+03</rscale>
<asrwt>0</asrwt>
<pdfrwt beam="1">  1       21 0.13518823E+00 0.25627178E+03</pdfrwt>
<pdfrwt beam="2">  1       21 0.39598409E-01 0.25627178E+03</pdfrwt>
<totfact> 0.22849333E+03</totfact>
</mgrwt>
</event>
<event>
 4    1  0.4336176E+000  0.2311591E+03  0.7546771E-02  0.1125827E+00
         21   -1    0    0  503  502  0.00000000000E+00  0.00000000000E+00  0.39314806590E+03  0.39314806590E+03  0.00000000000E+00 0.  1.
         21   -1    0    0  501  503 -0.00000000000E+00 -0.00000000000E+00 -0.18293853011E+03  0.18293853011E+03  0.00000000000E+00 0.  1.
          6    1    1    2  501    0 -0.46983420017E+02  0.14593859109E+03 -0.40933007097E+02  0.23475524530E+03  0.17300000000E+03 0.  1.
         -6    1    1    2    0  502  0.46983420017E+02 -0.14593859109E+03  0.25114254289E+03  0.34133135071E+03  0.17300000000E+03 0.  1.
<mgrwt>
<rscale>  2 0.23115907E+03</rscale>
<asrwt>0</asrwt>
<pdfrwt beam="1">  1       21 0.60484318E-01 0.23115907E+03</pdfrwt>
<pdfrwt beam="2">  1       21 0.28144389E-01 0.23115907E+03</pdfrwt>
<totfact> 0.30109003E+04</totfact>
</mgrwt>
</event>
<event>
 4    1  0.4336176E+000  0.2954605E+03  0.7546771E-02  0.1087532E+00
         21   -1    0    0  503  502  0.00000000000E+00  0.00000000000E+00  0.13937627854E+03  0.13937627854E+03  0.00000000000E+00 0.  1.
         21   -1    0    0  501  503 -0.00000000000E+00 -0.00000000000E+00 -0.70931748014E+03  0.70931748014E+03  0.00000000000E+00 0. -1.
          6    1    1    2  501    0 -0.11412772654E+03  0.21057726374E+03 -0.43010859238E+03  0.52181445286E+03  0.17300000000E+03 0. -1.
         -6    1    1    2    0  502  0.11412772654E+03 -0.21057726374E+03 -0.13983260922E+03  0.32687930582E+03  0.17300000000E+03 0.  1.
<mgrwt>
<rscale>  2 0.29546053E+03</rscale>
<asrwt>0</asrwt>
<pdfrwt beam="1">  1       21 0.21442504E-01 0.29546053E+03</pdfrwt>
<pdfrwt beam="2">  1       21 0.10912577E+00 0.29546053E+03</pdfrwt>
<totfact> 0.12729432E+04</totfact>
</mgrwt>
</event>
<event>
 4    1  0.4336176E+000  0.2049728E+03  0.7546771E-02  0.1145610E+00
         21   -1    0    0  503  502  0.00000000000E+00  0.00000000000E+00  0.90641882339E+02  0.90641882339E+02  0.00000000000E+00 0. -1.
         21   -1    0    0  501  503 -0.00000000000E+00 -0.00000000000E+00 -0.48222120534E+03  0.48222120534E+03  0.00000000000E+00 0. -1.
          6    1    1    2  501    0 -0.83087669520E+02 -0.71981066962E+02 -0.25220475505E+03  0.32499395887E+03  0.17300000000E+03 0. -1.
         -6    1    1    2    0  502  0.83087669520E+02  0.71981066962E+02 -0.13937456794E+03  0.24786912881E+03  0.17300000000E+03 0. -1.
<mgrwt>
<rscale>  2 0.20497277E+03</rscale>
<asrwt>0</asrwt>
<pdfrwt beam="1">  1       21 0.13944905E-01 0.20497277E+03</pdfrwt>
<pdfrwt beam="2">  1       21 0.74187876E-01 0.20497277E+03</pdfrwt>
<totfact> 0.72546076E+04</totfact>
</mgrwt>
</event>
<event>
 4    1  0.4336176E+000  0.2238035E+03  0.7546771E-02  0.1131079E+00
         21   -1    0    0  501  502  0.00000000000E+00  0.00000000000E+00  0.88061750245E+03  0.88061750245E+03  0.00000000000E+00 0.  1.
         21   -1    0    0  502  503 -0.00000000000E+00 -0.00000000000E+00 -0.11930347193E+03  0.11930347193E+03  0.00000000000E+00 0.  1.
          6    1    1    2  501    0 -0.14146848823E+03 -0.12068720700E+02  0.74230759877E+03  0.77531191038E+03  0.17300000000E+03 0.  1.
         -6    1    1    2    0  503  0.14146848823E+03  0.12068720700E+02  0.19006431743E+02  0.22460906399E+03  0.17300000000E+03 0.  1.
<mgrwt>
<rscale>  2 0.22380346E+03</rscale>
<asrwt>0</asrwt>
<pdfrwt beam="1">  1       21 0.13547961E+00 0.22380346E+03</pdfrwt>
<pdfrwt beam="2">  1       21 0.18354381E-01 0.22380346E+03</pdfrwt>
<totfact> 0.10313945E+04</totfact>
</mgrwt>
</event>
<event>
 4    1  0.4336176E+000  0.2076488E+03  0.7546771E-02  0.1143442E+00
         21   -1    0    0  503  502  0.00000000000E+00  0.00000000000E+00  0.27020595710E+03  0.27020595710E+03  0.00000000000E+00 0.  1.
         21   -1    0    0  501  503 -0.00000000000E+00 -0.00000000000E+00 -0.21448315409E+03  0.21448315409E+03  0.00000000000E+00 0.  1.
          6    1    1    2  501    0  0.49798314126E+02  0.10348502473E+03 -0.94757228432E+02  0.22824757342E+03  0.17300000000E+03 0.  1.
         -6    1    1    2    0  502 -0.49798314126E+02 -0.10348502473E+03  0.15048003144E+03  0.25644153777E+03  0.17300000000E+03 0.  1.
<mgrwt>
<rscale>  2 0.20764880E+03</rscale>
<asrwt>0</asrwt>
<pdfrwt beam="1">  1       21 0.41570147E-01 0.20764880E+03</pdfrwt>
<pdfrwt beam="2">  1       21 0.32997408E-01 0.20764880E+03</pdfrwt>
<totfact> 0.48904522E+04</totfact>
</mgrwt>
</event>
<event>
 4    1  0.4336176E+000  0.1996525E+03  0.7546771E-02  0.1150033E+00
         21   -1    0    0  501  502  0.00000000000E+00  0.00000000000E+00  0.10596781130E+03  0.10596781130E+03  0.00000000000E+00 0.  1.
         21   -1    0    0  502  503 -0.00000000000E+00 -0.00000000000E+00 -0.65886526821E+03  0.65886526821E+03  0.00000000000E+00 0.  1.
          6    1    1    2  501    0  0.96771557167E+02  0.23820006252E+02 -0.52694618307E+03  0.56350102646E+03  0.17300000000E+03 0.  1.
         -6    1    1    2    0  503 -0.96771557167E+02 -0.23820006252E+02 -0.25951273842E+02  0.20133205306E+03  0.17300000000E+03 0.  1.
<mgrwt>
<rscale>  2 0.19965252E+03</rscale>
<asrwt>0</asrwt>
<pdfrwt beam="1">  1       21 0.16302740E-01 0.19965252E+03</pdfrwt>
<pdfrwt beam="2">  1       21 0.10136389E+00 0.19965252E+03</pdfrwt>
<totfact> 0.26671098E+04</totfact>
</mgrwt>
</event>
<event>
 4    1  0.4336176E+000  0.3085680E+03  0.7546771E-02  0.1081034E+00
         21   -1    0    0  501  502  0.00000000000E+00  0.00000000000E+00  0.23027878693E+03  0.23027878693E+03  0.00000000000E+00 0.  1.
         21   -1    0    0  502  503 -0.00000000000E+00 -0.00000000000E+00 -0.87139306419E+03  0.87139306419E+03  0.00000000000E+00 0. -1.
          6    1    1    2  501    0 -0.12218263575E+03  0.22440286052E+03  0.78752390924E+02  0.31845907016E+03  0.17300000000E+03 0.  1.
         -6    1    1    2    0  503  0.12218263575E+03 -0.22440286052E+03 -0.71986666818E+03  0.78321278096E+03  0.17300000000E+03 0. -1.
<mgrwt>
<rscale>  2 0.30856805E+03</rscale>
<asrwt>0</asrwt>
<pdfrwt beam="1">  1       21 0.35427506E-01 0.30856805E+03</pdfrwt>
<pdfrwt beam="2">  1       21 0.13406047E+00 0.30856805E+03</pdfrwt>
<totfact> 0.28290061E+03</totfact>
</mgrwt>
</event>
<event>
 4    1  0.4336176E+000  0.2176658E+03  0.7546771E-02  0.1135635E+00
         21   -1    0    0  503  502  0.00000000000E+00  0.00000000000E+00  0.15308228431E+04  0.15308228431E+04  0.00000000000E+00 0. -1.
         21   -1    0    0  501  503 -0.00000000000E+00 -0.00000000000E+00 -0.61951764699E+02  0.61951764699E+02  0.00000000000E+00 0. -1.
          6    1    1    2  501    0  0.12868828280E+03 -0.29811707322E+02  0.17106616524E+03  0.27684299687E+03  0.17300000000E+03 0. -1.
         -6    1    1    2    0  502 -0.12868828280E+03  0.29811707322E+02  0.12978049132E+04  0.13159316110E+04  0.17300000000E+03 0. -1.
<mgrwt>
<rscale>  2 0.21766583E+03</rscale>
<asrwt>0</asrwt>
<pdfrwt beam="1">  1       21 0.23551118E+00 0.21766583E+03</pdfrwt>
<pdfrwt beam="2">  1       21 0.95310419E-02 0.21766583E+03</pdfrwt>
<totfact> 0.69932974E+03</totfact>
</mgrwt>
</event>
<event>
 4    1  0.4336176E+000  0.2048510E+03  0.7546771E-02  0.1145710E+00
         21   -1    0    0  503  502  0.00000000000E+00  0.00000000000E+00  0.96440733537E+02  0.96440733537E+02  0.00000000000E+00 0.  1.
         21   -1    0    0  501  503 -0.00000000000E+00 -0.00000000000E+00 -0.67463864038E+03  0.67463864038E+03  0.00000000000E+00 0.  1.
          6    1    1    2  501    0  0.66790561430E+02 -0.87028355421E+02 -0.51881815502E+03  0.55779583336E+03  0.17300000000E+03 0.  1.
         -6    1    1    2    0  502 -0.66790561430E+02  0.87028355421E+02 -0.59379751826E+02  0.21328354055E+03  0.17300000000E+03 0.  1.
<mgrwt>
<rscale>  2 0.20485095E+03</rscale>
<asrwt>0</asrwt>
<pdfrwt beam="1">  1       21 0.14837036E-01 0.20485095E+03</pdfrwt>
<pdfrwt beam="2">  1       21 0.10379056E+00 0.20485095E+03</pdfrwt>
<totfact> 0.29849650E+04</totfact>
</mgrwt>
</event>
<event>
 4    1  0.4336176E+000  0.1961930E+03  0.7546771E-02  0.1152991E+00
         21   -1    0    0  501  502  0.00000000000E+00  0.00000000000E+00  0.62894627421E+03  0.62894627421E+03  0.00000000000E+00 0.  1.
         21   -1    0    0  502  503 -0.00000000000E+00 -0.00000000000E+00 -0.80283224905E+02  0.80283224905E+02  0.00000000000E+00 0.  1.
          6    1    1    2  501    0 -0.90195982978E+02 -0.20672807138E+02  0.44722047187E+03  0.48836239696E+03  0.17300000000E+03 0.  1.
         -6    1    1    2    0  503  0.90195982978E+02  0.20672807138E+02  0.10144257744E+03  0.22086710216E+03  0.17300000000E+03 0.  1.
<mgrwt>
<rscale>  2 0.19619297E+03</rscale>
<asrwt>0</asrwt>
<pdfrwt beam="1">  1       21 0.96760962E-01 0.19619297E+03</pdfrwt>
<pdfrwt beam="2">  1       21 0.12351266E-01 0.19619297E+03</pdfrwt>
<totfact> 0.49356989E+04</totfact>
</mgrwt>
</event>
<event>
 4    1  0.4336176E+000  0.1903393E+03  0.7546771E-02  0.1158156E+00
         21   -1    0    0  501  502  0.00000000000E+00  0.00000000000E+00  0.32579603161E+02  0.32579603161E+02  0.00000000000E+00 0.  1.
         21   -1    0    0  502  503 -0.00000000000E+00 -0.00000000000E+00 -0.13749897432E+04  0.13749897432E+04  0.00000000000E+00 0.  1.
          6    1    1    2  501    0  0.70797538489E+02  0.35885196134E+02 -0.36342088490E+03  0.41024843490E+03  0.17300000000E+03 0.  1.
         -6    1    1    2    0  503 -0.70797538489E+02 -0.35885196134E+02 -0.97898925517E+03  0.99732091149E+03  0.17300000000E+03 0.  1.
<mgrwt>
<rscale>  2 0.19033927E+03</rscale>
<asrwt>0</asrwt>
<pdfrwt beam="1">  1       21 0.50122476E-02 0.19033927E+03</pdfrwt>
<pdfrwt beam="2">  1       21 0.21153684E+00 0.19033927E+03</pdfrwt>
<totfact> 0.30455724E+04</totfact>
</mgrwt>
</event>
<event>
 4    1  0.4336176E+000  0.1993114E+03  0.7546771E-02  0.1150321E+00
         21   -1    0    0  501  502  0.00000000000E+00  0.00000000000E+00  0.36493583448E+02  0.36493583448E+02  0.00000000000E+00 0.  1.
         21   -1    0    0  502  503 -0.00000000000E+00 -0.00000000000E+00 -0.12966165632E+04  0.12966165632E+04  0.00000000000E+00 0.  1.
          6    1    1    2  501    0  0.19050995975E+02 -0.97124073707E+02 -0.36304797954E+03  0.41416042977E+03  0.17300000000E+03 0.  1.
         -6    1    1    2    0  503 -0.19050995975E+02  0.97124073707E+02 -0.89707500018E+03  0.91894971684E+03  0.17300000000E+03 0.  1.
<mgrwt>
<rscale>  2 0.19931138E+03</rscale>
<asrwt>0</asrwt>
<pdfrwt beam="1">  1       21 0.56143971E-02 0.19931138E+03</pdfrwt>
<pdfrwt beam="2">  1       21 0.19947948E+00 0.19931138E+03</pdfrwt>
<totfact> 0.29744173E+04</totfact>
</mgrwt>
</event>
<event>
 4    1  0.4336176E+000  0.2355714E+03  0.7546771E-02  0.1122779E+00
         21   -1    0    0  503  502  0.00000000000E+00  0.00000000000E+00  0.59819967050E+03  0.59819967050E+03  0.00000000000E+00 0.  1.
         21   -1    0    0  501  503 -0.00000000000E+00 -0.00000000000E+00 -0.11916779645E+03  0.11916779645E+03  0.00000000000E+00 0.  1.
          6    1    1    2  501    0 -0.14091701561E+03 -0.75546530173E+02  0.70693101714E+02  0.24594999114E+03  0.17300000000E+03 0.  1.
         -6    1    1    2    0  502  0.14091701561E+03  0.75546530173E+02  0.40833877234E+03  0.47141747582E+03  0.17300000000E+03 0.  1.
<mgrwt>
<rscale>  2 0.23557140E+03</rscale>
<asrwt>0</asrwt>
<pdfrwt beam="1">  1       21 0.92030717E-01 0.23557140E+03</pdfrwt>
<pdfrwt beam="2">  1       21 0.18333507E-01 0.23557140E+03</pdfrwt>
<totfact> 0.26444685E+04</totfact>
</mgrwt>
</event>
<event>
 4    1  0.4336176E+000  0.2033730E+03  0.7546771E-02  0.1146924E+00
         21   -1    0    0  501  502  0.00000000000E+00  0.00000000000E+00  0.41728239256E+03  0.41728239256E+03  0.00000000000E+00 0. -1.
         21   -1    0    0  502  503 -0.00000000000E+00 -0.00000000000E+00 -0.10763653754E+03  0.10763653754E+03  0.00000000000E+00 0. -1.
          6    1    1    2  501    0  0.65430579670E+02 -0.84560172711E+02  0.22865434985E+03  0.30601208354E+03  0.17300000000E+03 0. -1.
         -6    1    1    2    0  503 -0.65430579670E+02  0.84560172711E+02  0.80991505166E+02  0.21890684657E+03  0.17300000000E+03 0. -1.
<mgrwt>
<rscale>  2 0.20337302E+03</rscale>
<asrwt>0</asrwt>
<pdfrwt beam="1">  1       21 0.64197290E-01 0.20337302E+03</pdfrwt>
<pdfrwt beam="2">  1       21 0.16559468E-01 0.20337302E+03</pdfrwt>
<totfact> 0.72957800E+04</totfact>
</mgrwt>
</event>
<event>
 4    1  0.4336176E+000  0.2177598E+03  0.7546771E-02  0.1135564E+00
         21   -1    0    0  503  502  0.00000000000E+00  0.00000000000E+00  0.92652694279E+02  0.92652694279E+02  0.00000000000E+00 0. -1.
         21   -1    0    0  501  503 -0.00000000000E+00 -0.00000000000E+00 -0.51316225354E+03  0.51316225354E+03  0.00000000000E+00 0. -1.
          6    1    1    2  501    0  0.13069758980E+03 -0.20210743909E+02 -0.19462861120E+03  0.29206100467E+03  0.17300000000E+03 0. -1.
         -6    1    1    2    0  502 -0.13069758980E+03  0.20210743909E+02 -0.22588094806E+03  0.31375394316E+03  0.17300000000E+03 0. -1.
<mgrwt>
<rscale>  2 0.21775981E+03</rscale>
<asrwt>0</asrwt>
<pdfrwt beam="1">  1       21 0.14254261E-01 0.21775981E+03</pdfrwt>
<pdfrwt beam="2">  1       21 0.78948037E-01 0.21775981E+03</pdfrwt>
<totfact> 0.60277822E+04</totfact>
</mgrwt>
</event>
<event>
 4    1  0.4336176E+000  0.1935282E+03  0.7546771E-02  0.1155317E+00
         21   -1    0    0  501  502  0.00000000000E+00  0.00000000000E+00  0.45941015399E+03  0.45941015399E+03  0.00000000000E+00 0.  1.
         21   -1    0    0  502  503 -0.00000000000E+00 -0.00000000000E+00 -0.10036638001E+03  0.10036638001E+03  0.00000000000E+00 0.  1.
          6    1    1    2  501    0 -0.13773440636E+02  0.85641434713E+02  0.30079183287E+03  0.35767148297E+03  0.17300000000E+03 0.  1.
         -6    1    1    2    0  503  0.13773440636E+02 -0.85641434713E+02  0.58251941106E+02  0.20210505102E+03  0.17300000000E+03 0.  1.
<mgrwt>
<rscale>  2 0.19352820E+03</rscale>
<asrwt>0</asrwt>
<pdfrwt beam="1">  1       21 0.70678484E-01 0.19352820E+03</pdfrwt>
<pdfrwt beam="2">  1       21 0.15440982E-01 0.19352820E+03</pdfrwt>
<totfact> 0.67472139E+04</totfact>
</mgrwt>
</event>
<event>
 4    1  0.4336176E+000  0.1824064E+03  0.7546771E-02  0.1165494E+00
         21   -1    0    0  503  502  0.00000000000E+00  0.00000000000E+00  0.14695980212E+02  0.14695980212E+02  0.00000000000E+00 0.  1.
         21   -1    0    0  501  503 -0.00000000000E+00 -0.00000000000E+00 -0.29345302981E+04  0.29345302981E+04  0.00000000000E+00 0.  1.
          6    1    1    2  501    0  0.46784050182E+02 -0.33975547252E+02 -0.21647879239E+04  0.21724591689E+04  0.17300000000E+03 0.  1.
         -6    1    1    2    0  502 -0.46784050182E+02  0.33975547252E+02 -0.75504639408E+03  0.77676710949E+03  0.17300000000E+03 0.  1.
<mgrwt>
<rscale>  2 0.18240637E+03</rscale>
<asrwt>0</asrwt>
<pdfrwt beam="1">  1       21 0.22609229E-02 0.18240637E+03</pdfrwt>
<pdfrwt beam="2">  1       21 0.45146563E+00 0.18240637E+03</pdfrwt>
<totfact> 0.41632084E+03</totfact>
</mgrwt>
</event>
<event>
 4    1  0.4336176E+000  0.2033254E+03  0.7546771E-02  0.1146963E+00
         21   -1    0    0  503  502  0.00000000000E+00  0.00000000000E+00  0.66649607233E+02  0.66649607233E+02  0.00000000000E+00 0.  1.
         21   -1    0    0  501  503 -0.00000000000E+00 -0.00000000000E+00 -0.94401761911E+03  0.94401761911E+03  0.00000000000E+00 0. -1.
          6    1    1    2  501    0  0.73845354529E+02  0.77195211588E+02 -0.73461233764E+03  0.76223127966E+03  0.17300000000E+03 0. -1.
         -6    1    1    2    0  502 -0.73845354529E+02 -0.77195211588E+02 -0.14275567423E+03  0.24843594668E+03  0.17300000000E+03 0.  1.
<mgrwt>
<rscale>  2 0.20332545E+03</rscale>
<asrwt>0</asrwt>
<pdfrwt beam="1">  1       21 0.10253787E-01 0.20332545E+03</pdfrwt>
<pdfrwt beam="2">  1       21 0.14523346E+00 0.20332545E+03</pdfrwt>
<totfact> 0.25080151E+04</totfact>
</mgrwt>
</event>
<event>
 4    1  0.4336176E+000  0.2204259E+03  0.7546771E-02  0.1133566E+00
         21   -1    0    0  503  502  0.00000000000E+00  0.00000000000E+00  0.20085972715E+03  0.20085972715E+03  0.00000000000E+00 0. -1.
         21   -1    0    0  501  503 -0.00000000000E+00 -0.00000000000E+00 -0.24738023110E+03  0.24738023110E+03  0.00000000000E+00 0.  1.
          6    1    1    2  501    0  0.13395866888E+03  0.26714325721E+02 -0.56623936657E+02  0.22758262317E+03  0.17300000000E+03 0.  1.
         -6    1    1    2    0  502 -0.13395866888E+03 -0.26714325721E+02  0.10103432709E+02  0.22065733507E+03  0.17300000000E+03 0. -1.
<mgrwt>
<rscale>  2 0.22042591E+03</rscale>
<asrwt>0</asrwt>
<pdfrwt beam="1">  1       21 0.30901496E-01 0.22042591E+03</pdfrwt>
<pdfrwt beam="2">  1       21 0.38058497E-01 0.22042591E+03</pdfrwt>
<totfact> 0.66151761E+04</totfact>
</mgrwt>
</event>
<event>
 4    1  0.4336176E+000  0.2076505E+03  0.7546771E-02  0.1143440E+00
         21   -1    0    0  501  502  0.00000000000E+00  0.00000000000E+00  0.13404592538E+04  0.13404592538E+04  0.00000000000E+00 0. -1.
         21   -1    0    0  502  503 -0.00000000000E+00 -0.00000000000E+00 -0.35133231991E+02  0.35133231991E+02  0.00000000000E+00 0. -1.
          6    1    1    2  501    0 -0.32531641447E+02 -0.11014268592E+03  0.45281757642E+03  0.49815908751E+03  0.17300000000E+03 0. -1.
         -6    1    1    2    0  503  0.32531641447E+02  0.11014268592E+03  0.85250844537E+03  0.87743339826E+03  0.17300000000E+03 0. -1.
<mgrwt>
<rscale>  2 0.20765047E+03</rscale>
<asrwt>0</asrwt>
<pdfrwt beam="1">  1       21 0.20622446E+00 0.20765047E+03</pdfrwt>
<pdfrwt beam="2">  1       21 0.54051136E-02 0.20765047E+03</pdfrwt>
<totfact> 0.28569197E+04</totfact>
</mgrwt>
</event>
<event>
 4    1  0.4336176E+000  0.2206089E+03  0.7546771E-02  0.1133430E+00
         21   -1    0    0  501  502  0.00000000000E+00  0.00000000000E+00  0.30965612055E+03  0.30965612055E+03  0.00000000000E+00 0. -1.
         21   -1    0    0  502  503 -0.00000000000E+00 -0.00000000000E+00 -0.17577748828E+03  0.17577748828E+03  0.00000000000E+00 0.  1.
          6    1    1    2  501    0 -0.13164397497E+03  0.37538807396E+02 -0.12033103747E+02  0.22093685476E+03  0.17300000000E+03 0.  1.
         -6    1    1    2    0  503  0.13164397497E+03 -0.37538807396E+02  0.14591173602E+03  0.26449675407E+03  0.17300000000E+03 0. -1.
<mgrwt>
<rscale>  2 0.22060893E+03</rscale>
<asrwt>0</asrwt>
<pdfrwt beam="1">  1       21 0.47639403E-01 0.22060893E+03</pdfrwt>
<pdfrwt beam="2">  1       21 0.27042691E-01 0.22060893E+03</pdfrwt>
<totfact> 0.54188856E+04</totfact>
</mgrwt>
</event>
<event>
 4    1  0.4336176E+000  0.1949979E+03  0.7546771E-02  0.1154029E+00
         21   -1    0    0  503  502  0.00000000000E+00  0.00000000000E+00  0.53511870977E+03  0.53511870977E+03  0.00000000000E+00 0. -1.
         21   -1    0    0  501  503 -0.00000000000E+00 -0.00000000000E+00 -0.71703357325E+02  0.71703357325E+02  0.00000000000E+00 0. -1.
          6    1    1    2  501    0  0.83188293578E+02 -0.34276733572E+02  0.26050398836E+03  0.32540208144E+03  0.17300000000E+03 0. -1.
         -6    1    1    2    0  502 -0.83188293578E+02  0.34276733572E+02  0.20291136409E+03  0.28141998566E+03  0.17300000000E+03 0. -1.
<mgrwt>
<rscale>  2 0.19499791E+03</rscale>
<asrwt>0</asrwt>
<pdfrwt beam="1">  1       21 0.82325953E-01 0.19499791E+03</pdfrwt>
<pdfrwt beam="2">  1       21 0.11031286E-01 0.19499791E+03</pdfrwt>
<totfact> 0.87798788E+04</totfact>
</mgrwt>
</event>
<event>
 4    1  0.4336176E+000  0.1827310E+03  0.7546771E-02  0.1165186E+00
         21   -1    0    0  503  502  0.00000000000E+00  0.00000000000E+00  0.10665388498E+03  0.10665388498E+03  0.00000000000E+00 0. -1.
         21   -1    0    0  501  503 -0.00000000000E+00 -0.00000000000E+00 -0.32621495608E+03  0.32621495608E+03  0.00000000000E+00 0.  1.
          6    1    1    2  501    0  0.44312455679E+02 -0.38704160941E+02 -0.15321960677E+03  0.23846772046E+03  0.17300000000E+03 0. -1.
         -6    1    1    2    0  502 -0.44312455679E+02  0.38704160941E+02 -0.66341464323E+02  0.19440112060E+03  0.17300000000E+03 0. -1.
<mgrwt>
<rscale>  2 0.18273097E+03</rscale>
<asrwt>0</asrwt>
<pdfrwt beam="1">  1       21 0.16408290E-01 0.18273097E+03</pdfrwt>
<pdfrwt beam="2">  1       21 0.50186915E-01 0.18273097E+03</pdfrwt>
<totfact> 0.12631804E+05</totfact>
</mgrwt>
</event>
<event>
 4    1  0.4336176E+000  0.1872561E+03  0.7546771E-02  0.1160960E+00
         21   -1    0    0  503  502  0.00000000000E+00  0.00000000000E+00  0.71552501304E+02  0.71552501304E+02  0.00000000000E+00 0.  1.
         21   -1    0    0  501  503 -0.00000000000E+00 -0.00000000000E+00 -0.72985769793E+03  0.72985769793E+03  0.00000000000E+00 0.  1.
          6    1    1    2  501    0  0.23904407553E+02 -0.67560591393E+02 -0.55883639618E+03  0.58937506896E+03  0.17300000000E+03 0.  1.
         -6    1    1    2    0  502 -0.23904407553E+02  0.67560591393E+02 -0.99468800442E+02  0.21203513028E+03  0.17300000000E+03 0.  1.
<mgrwt>
<rscale>  2 0.18725612E+03</rscale>
<asrwt>0</asrwt>
<pdfrwt beam="1">  1       21 0.11008077E-01 0.18725612E+03</pdfrwt>
<pdfrwt beam="2">  1       21 0.11228580E+00 0.18725612E+03</pdfrwt>
<totfact> 0.42648377E+04</totfact>
</mgrwt>
</event>
<event>
 4    1  0.4336176E+000  0.2499580E+03  0.7546771E-02  0.1113331E+00
         21   -1    0    0  501  502  0.00000000000E+00  0.00000000000E+00  0.29339605539E+03  0.29339605539E+03  0.00000000000E+00 0. -1.
         21   -1    0    0  502  503 -0.00000000000E+00 -0.00000000000E+00 -0.93117998208E+03  0.93117998208E+03  0.00000000000E+00 0.  1.
          6    1    1    2  501    0 -0.10759593251E+03 -0.14482091633E+03  0.21884564278E+03  0.33222341559E+03  0.17300000000E+03 0. -1.
         -6    1    1    2    0  503  0.10759593251E+03  0.14482091633E+03 -0.85662956947E+03  0.89235262189E+03  0.17300000000E+03 0.  1.
<mgrwt>
<rscale>  2 0.24995796E+03</rscale>
<asrwt>0</asrwt>
<pdfrwt beam="1">  1       21 0.45137855E-01 0.24995796E+03</pdfrwt>
<pdfrwt beam="2">  1       21 0.14325846E+00 0.24995796E+03</pdfrwt>
<totfact> 0.15093806E+03</totfact>
</mgrwt>
</event>
<event>
 4    1  0.4336176E+000  0.1797479E+03  0.7546771E-02  0.1168047E+00
         21   -1    0    0  503  502  0.00000000000E+00  0.00000000000E+00  0.20260711696E+03  0.20260711696E+03  0.00000000000E+00 0. -1.
         21   -1    0    0  501  503 -0.00000000000E+00 -0.00000000000E+00 -0.58320416378E+03  0.58320416378E+03  0.00000000000E+00 0. -1.
          6    1    1    2  501    0 -0.17314138758E+02  0.45612788302E+02 -0.52520676627E+03  0.55511391010E+03  0.17300000000E+03 0. -1.
         -6    1    1    2    0  502  0.17314138758E+02 -0.45612788302E+02  0.14460971944E+03  0.23069737063E+03  0.17300000000E+03 0. -1.
<mgrwt>
<rscale>  2 0.17974790E+03</rscale>
<asrwt>0</asrwt>
<pdfrwt beam="1">  1       21 0.31170326E-01 0.17974790E+03</pdfrwt>
<pdfrwt beam="2">  1       21 0.89723717E-01 0.17974790E+03</pdfrwt>
<totfact> 0.10557709E+04</totfact>
</mgrwt>
</event>
<event>
 4    1  0.4336176E+000  0.1836244E+03  0.7546771E-02  0.1164341E+00
         21   -1    0    0  501  502  0.00000000000E+00  0.00000000000E+00  0.29783760626E+03  0.29783760626E+03  0.00000000000E+00 0.  1.
         21   -1    0    0  502  503 -0.00000000000E+00 -0.00000000000E+00 -0.11448334189E+03  0.11448334189E+03  0.00000000000E+00 0.  1.
          6    1    1    2  501    0  0.22554497190E+02  0.57273018534E+02  0.11342784813E+03  0.21583276101E+03  0.17300000000E+03 0.  1.
         -6    1    1    2    0  503 -0.22554497190E+02 -0.57273018534E+02  0.69926416242E+02  0.19648818714E+03  0.17300000000E+03 0.  1.
<mgrwt>
<rscale>  2 0.18362436E+03</rscale>
<asrwt>0</asrwt>
<pdfrwt beam="1">  1       21 0.45821170E-01 0.18362436E+03</pdfrwt>
<pdfrwt beam="2">  1       21 0.17612822E-01 0.18362436E+03</pdfrwt>
<totfact> 0.13384559E+05</totfact>
</mgrwt>
</event>
<event>
 4    1  0.4336176E+000  0.1747276E+03  0.7546771E-02  0.1173006E+00
         21   -1    0    0  501  502  0.00000000000E+00  0.00000000000E+00  0.48849042028E+03  0.48849042028E+03  0.00000000000E+00 0.  1.
         21   -1    0    0  502  503 -0.00000000000E+00 -0.00000000000E+00 -0.13942537594E+03  0.13942537594E+03  0.00000000000E+00 0.  1.
          6    1    1    2  501    0  0.16702108164E+02 -0.17937766361E+02  0.40773903424E+03  0.44359986916E+03  0.17300000000E+03 0.  1.
         -6    1    1    2    0  503 -0.16702108164E+02  0.17937766361E+02 -0.58673989900E+02  0.18431592707E+03  0.17300000000E+03 0.  1.
<mgrwt>
<rscale>  2 0.17472757E+03</rscale>
<asrwt>0</asrwt>
<pdfrwt beam="1">  1       21 0.75152372E-01 0.17472757E+03</pdfrwt>
<pdfrwt beam="2">  1       21 0.21450058E-01 0.17472757E+03</pdfrwt>
<totfact> 0.32357583E+04</totfact>
</mgrwt>
</event>
<event>
 4    1  0.4336176E+000  0.2787332E+03  0.7546771E-02  0.1096383E+00
         21   -1    0    0  501  502  0.00000000000E+00  0.00000000000E+00  0.77911425448E+02  0.77911425448E+02  0.00000000000E+00 0.  1.
         21   -1    0    0  502  503 -0.00000000000E+00 -0.00000000000E+00 -0.10143015133E+04  0.10143015133E+04  0.00000000000E+00 0. -1.
          6    1    1    2  501    0  0.21779323440E+03 -0.18147291761E+02 -0.39725635804E+03  0.48528839997E+03  0.17300000000E+03 0.  1.
         -6    1    1    2    0  503 -0.21779323440E+03  0.18147291761E+02 -0.53913372984E+03  0.60692453880E+03  0.17300000000E+03 0. -1.
<mgrwt>
<rscale>  2 0.27873324E+03</rscale>
<asrwt>0</asrwt>
<pdfrwt beam="1">  1       21 0.11986375E-01 0.27873324E+03</pdfrwt>
<pdfrwt beam="2">  1       21 0.15604636E+00 0.27873324E+03</pdfrwt>
<totfact> 0.15016969E+04</totfact>
</mgrwt>
</event>
<event>
 4    1  0.4336176E+000  0.2029656E+03  0.7546771E-02  0.1147261E+00
         21   -1    0    0  503  502  0.00000000000E+00  0.00000000000E+00  0.13960211376E+02  0.13960211376E+02  0.00000000000E+00 0.  1.
         21   -1    0    0  501  503 -0.00000000000E+00 -0.00000000000E+00 -0.30392639055E+04  0.30392639055E+04  0.00000000000E+00 0.  1.
          6    1    1    2  501    0  0.10355033800E+03  0.23310246685E+02 -0.17729720791E+04  0.17845517738E+04  0.17300000000E+03 0.  1.
         -6    1    1    2    0  502 -0.10355033800E+03 -0.23310246685E+02 -0.12523316151E+04  0.12686723432E+04  0.17300000000E+03 0.  1.
<mgrwt>
<rscale>  2 0.20296561E+03</rscale>
<asrwt>0</asrwt>
<pdfrwt beam="1">  1       21 0.21477238E-02 0.20296561E+03</pdfrwt>
<pdfrwt beam="2">  1       21 0.46757929E+00 0.20296561E+03</pdfrwt>
<totfact> 0.34258338E+03</totfact>
</mgrwt>
</event>
<event>
 4    1  0.4336176E+000  0.2026333E+03  0.7546771E-02  0.1147536E+00
         21   -1    0    0  501  502  0.00000000000E+00  0.00000000000E+00  0.37414488435E+03  0.37414488435E+03  0.00000000000E+00 0. -1.
         21   -1    0    0  502  503 -0.00000000000E+00 -0.00000000000E+00 -0.15352070064E+03  0.15352070064E+03  0.00000000000E+00 0. -1.
          6    1    1    2  501    0 -0.88371673217E+02 -0.57634160260E+02  0.25119736049E+03  0.32273884639E+03  0.17300000000E+03 0. -1.
         -6    1    1    2    0  503  0.88371673217E+02  0.57634160260E+02 -0.30573176779E+02  0.20492673860E+03  0.17300000000E+03 0. -1.
<mgrwt>
<rscale>  2 0.20263329E+03</rscale>
<asrwt>0</asrwt>
<pdfrwt beam="1">  1       21 0.57560751E-01 0.20263329E+03</pdfrwt>
<pdfrwt beam="2">  1       21 0.23618569E-01 0.20263329E+03</pdfrwt>
<totfact> 0.47558922E+04</totfact>
</mgrwt>
</event>
<event>
 4    1  0.4336176E+000  0.2556750E+03  0.7546771E-02  0.1109770E+00
         21   -1    0    0  501  502  0.00000000000E+00  0.00000000000E+00  0.46581659832E+03  0.46581659832E+03  0.00000000000E+00 0. -1.
         21   -1    0    0  502  503 -0.00000000000E+00 -0.00000000000E+00 -0.37358892456E+03  0.37358892456E+03  0.00000000000E+00 0. -1.
          6    1    1    2  501    0 -0.64329156931E+02  0.17692507623E+03  0.37774902704E+03  0.45614038460E+03  0.17300000000E+03 0. -1.
         -6    1    1    2    0  503  0.64329156931E+02 -0.17692507623E+03 -0.28552135328E+03  0.38326513827E+03  0.17300000000E+03 0. -1.
<mgrwt>
<rscale>  2 0.25567503E+03</rscale>
<asrwt>0</asrwt>
<pdfrwt beam="1">  1       21 0.71664092E-01 0.25567503E+03</pdfrwt>
<pdfrwt beam="2">  1       21 0.57475219E-01 0.25567503E+03</pdfrwt>
<totfact> 0.47823051E+03</totfact>
</mgrwt>
</event>
<event>
 4    1  0.4336176E+000  0.2262349E+03  0.7546771E-02  0.1129318E+00
         21   -1    0    0  501  502  0.00000000000E+00  0.00000000000E+00  0.79680216167E+03  0.79680216167E+03  0.00000000000E+00 0.  1.
         21   -1    0    0  502  503 -0.00000000000E+00 -0.00000000000E+00 -0.80676110235E+02  0.80676110235E+02  0.00000000000E+00 0. -1.
          6    1    1    2  501    0  0.10746806979E+03  0.98508136587E+02  0.55612688488E+03  0.60038267054E+03  0.17300000000E+03 0.  1.
         -6    1    1    2    0  503 -0.10746806979E+03 -0.98508136587E+02  0.15999916656E+03  0.27709560137E+03  0.17300000000E+03 0. -1.
<mgrwt>
<rscale>  2 0.22623492E+03</rscale>
<asrwt>0</asrwt>
<pdfrwt beam="1">  1       21 0.12258494E+00 0.22623492E+03</pdfrwt>
<pdfrwt beam="2">  1       21 0.12411710E-01 0.22623492E+03</pdfrwt>
<totfact> 0.27133920E+04</totfact>
</mgrwt>
</event>
<event>
 4    1  0.4336176E+000  0.3179926E+03  0.7546771E-02  0.1076577E+00
         21   -1    0    0  503  502  0.00000000000E+00  0.00000000000E+00  0.37943379825E+03  0.37943379825E+03  0.00000000000E+00 0.  1.
         21   -1    0    0  501  503 -0.00000000000E+00 -0.00000000000E+00 -0.36004277747E+03  0.36004277747E+03  0.00000000000E+00 0. -1.
          6    1    1    2  501    0  0.17970628158E+03  0.19722049938E+03  0.19815651000E+03  0.37468023096E+03  0.17300000000E+03 0. -1.
         -6    1    1    2    0  502 -0.17970628158E+03 -0.19722049938E+03 -0.17876548922E+03  0.36479634476E+03  0.17300000000E+03 0.  1.
<mgrwt>
<rscale>  2 0.31799257E+03</rscale>
<asrwt>0</asrwt>
<pdfrwt beam="1">  1       21 0.58374430E-01 0.31799257E+03</pdfrwt>
<pdfrwt beam="2">  1       21 0.55391197E-01 0.31799257E+03</pdfrwt>
<totfact> 0.78656467E+03</totfact>
</mgrwt>
</event>
<event>
 4    1  0.4336176E+000  0.2793909E+03  0.7546771E-02  0.1096022E+00
         21   -1    0    0  503  502  0.00000000000E+00  0.00000000000E+00  0.76325008432E+03  0.76325008432E+03  0.00000000000E+00 0. -1.
         21   -1    0    0  501  503 -0.00000000000E+00 -0.00000000000E+00 -0.17915435590E+03  0.17915435590E+03  0.00000000000E+00 0.  1.
          6    1    1    2  501    0 -0.18008136691E+03 -0.12530358394E+03 -0.16630605650E+02  0.27988544782E+03  0.17300000000E+03 0.  1.
         -6    1    1    2    0  502  0.18008136691E+03  0.12530358394E+03  0.60072633406E+03  0.66251899240E+03  0.17300000000E+03 0. -1.
<mgrwt>
<rscale>  2 0.27939092E+03</rscale>
<asrwt>0</asrwt>
<pdfrwt beam="1">  1       21 0.11742309E+00 0.27939092E+03</pdfrwt>
<pdfrwt beam="2">  1       21 0.27562209E-01 0.27939092E+03</pdfrwt>
<totfact> 0.66121757E+03</totfact>
</mgrwt>
</event>
<event>
 4    1  0.4336176E+000  0.1744252E+03  0.7546771E-02  0.1173310E+00
         21   -1    0    0  503  502  0.00000000000E+00  0.00000000000E+00  0.45743227918E+02  0.45743227918E+02  0.00000000000E+00 0. -1.
         21   -1    0    0  501  503 -0.00000000000E+00 -0.00000000000E+00 -0.10836609343E+04  0.10836609343E+04  0.00000000000E+00 0. -1.
          6    1    1    2  501    0  0.75200663043E+01  0.20942997512E+02 -0.86991121803E+03  0.88722583811E+03  0.17300000000E+03 0. -1.
         -6    1    1    2    0  502 -0.75200663043E+01 -0.20942997512E+02 -0.16800648834E+03  0.24217832411E+03  0.17300000000E+03 0. -1.
<mgrwt>
<rscale>  2 0.17442523E+03</rscale>
<asrwt>0</asrwt>
<pdfrwt beam="1">  1       21 0.70374198E-02 0.17442523E+03</pdfrwt>
<pdfrwt beam="2">  1       21 0.16671707E+00 0.17442523E+03</pdfrwt>
<totfact> 0.34137893E+04</totfact>
</mgrwt>
</event>
<event>
 4    1  0.4336176E+000  0.2264720E+03  0.7546771E-02  0.1129148E+00
         21   -1    0    0  503  502  0.00000000000E+00  0.00000000000E+00  0.17120466798E+03  0.17120466798E+03  0.00000000000E+00 0. -1.
         21   -1    0    0  501  503 -0.00000000000E+00 -0.00000000000E+00 -0.64049604317E+03  0.64049604317E+03  0.00000000000E+00 0.  1.
          6    1    1    2  501    0 -0.14610520194E+03  0.37170651621E+01 -0.53074079461E+03  0.57704015256E+03  0.17300000000E+03 0.  1.
         -6    1    1    2    0  502  0.14610520194E+03 -0.37170651621E+01  0.61449419415E+02  0.23466055858E+03  0.17300000000E+03 0. -1.
<mgrwt>
<rscale>  2 0.22647196E+03</rscale>
<asrwt>0</asrwt>
<pdfrwt beam="1">  1       21 0.26339179E-01 0.22647196E+03</pdfrwt>
<pdfrwt beam="2">  1       21 0.98537854E-01 0.22647196E+03</pdfrwt>
<totfact> 0.11395465E+04</totfact>
</mgrwt>
</event>
<event>
 4    1  0.4336176E+000  0.2116833E+03  0.7546771E-02  0.1140240E+00
         21   -1    0    0  503  502  0.00000000000E+00  0.00000000000E+00  0.51841789667E+03  0.51841789667E+03  0.00000000000E+00 0.  1.
         21   -1    0    0  501  503 -0.00000000000E+00 -0.00000000000E+00 -0.19837739700E+03  0.19837739700E+03  0.00000000000E+00 0.  1.
          6    1    1    2  501    0  0.43198433974E+02  0.11408196827E+03 -0.10920454206E+03  0.23819200698E+03  0.17300000000E+03 0.  1.
         -6    1    1    2    0  502 -0.43198433974E+02 -0.11408196827E+03  0.42924504173E+03  0.47860328669E+03  0.17300000000E+03 0.  1.
<mgrwt>
<rscale>  2 0.21168325E+03</rscale>
<asrwt>0</asrwt>
<pdfrwt beam="1">  1       21 0.79756599E-01 0.21168325E+03</pdfrwt>
<pdfrwt beam="2">  1       21 0.30519600E-01 0.21168325E+03</pdfrwt>
<totfact> 0.14097835E+04</totfact>
</mgrwt>
</event>
<event>
 4    1  0.4336176E+000  0.2180627E+03  0.7546771E-02  0.1135336E+00
         21   -1    0    0  501  502  0.00000000000E+00  0.00000000000E+00  0.26710214530E+03  0.26710214530E+03  0.00000000000E+00 0. -1.
         21   -1    0    0  502  503 -0.00000000000E+00 -0.00000000000E+00 -0.22604978497E+03  0.22604978497E+03  0.00000000000E+00 0. -1.
          6    1    1    2  501    0 -0.13273766360E+03 -0.17489462334E+01  0.13417715556E+03  0.25603682396E+03  0.17300000000E+03 0. -1.
         -6    1    1    2    0  503  0.13273766360E+03  0.17489462334E+01 -0.93124795229E+02  0.23711510630E+03  0.17300000000E+03 0. -1.
<mgrwt>
<rscale>  2 0.21806271E+03</rscale>
<asrwt>0</asrwt>
<pdfrwt beam="1">  1       21 0.41092638E-01 0.21806271E+03</pdfrwt>
<pdfrwt beam="2">  1       21 0.34776890E-01 0.21806271E+03</pdfrwt>
<totfact> 0.44897962E+04</totfact>
</mgrwt>
</event>
<event>
 4    1  0.4336176E+000  0.1843215E+03  0.7546771E-02  0.1163685E+00
         21   -1    0    0  501  502  0.00000000000E+00  0.00000000000E+00  0.17854318561E+03  0.17854318561E+03  0.00000000000E+00 0.  1.
         21   -1    0    0  502  503 -0.00000000000E+00 -0.00000000000E+00 -0.21378806910E+03  0.21378806910E+03  0.00000000000E+00 0.  1.
          6    1    1    2  501    0 -0.51451371820E+02 -0.37392340677E+02  0.47416854795E+02  0.19032285444E+03  0.17300000000E+03 0.  1.
         -6    1    1    2    0  503  0.51451371820E+02  0.37392340677E+02 -0.82661738278E+02  0.20200840027E+03  0.17300000000E+03 0.  1.
<mgrwt>
<rscale>  2 0.18432154E+03</rscale>
<asrwt>0</asrwt>
<pdfrwt beam="1">  1       21 0.27468183E-01 0.18432154E+03</pdfrwt>
<pdfrwt beam="2">  1       21 0.32890472E-01 0.18432154E+03</pdfrwt>
<totfact> 0.11284463E+05</totfact>
</mgrwt>
</event>
<event>
 4    1  0.4336176E+000  0.1756812E+03  0.7546771E-02  0.1172050E+00
         21   -1    0    0  501  502  0.00000000000E+00  0.00000000000E+00  0.19703056738E+03  0.19703056738E+03  0.00000000000E+00 0.  1.
         21   -1    0    0  502  503 -0.00000000000E+00 -0.00000000000E+00 -0.16116794630E+03  0.16116794630E+03  0.00000000000E+00 0.  1.
          6    1    1    2  501    0 -0.29790013742E+01  0.30430215437E+02  0.47934020030E+02  0.18210311018E+03  0.17300000000E+03 0.  1.
         -6    1    1    2    0  503  0.29790013742E+01 -0.30430215437E+02 -0.12071398944E+02  0.17609540350E+03  0.17300000000E+03 0.  1.
<mgrwt>
<rscale>  2 0.17568117E+03</rscale>
<asrwt>0</asrwt>
<pdfrwt beam="1">  1       21 0.30312395E-01 0.17568117E+03</pdfrwt>
<pdfrwt beam="2">  1       21 0.24795069E-01 0.17568117E+03</pdfrwt>
<totfact> 0.16153904E+05</totfact>
</mgrwt>
</event>
<event>
 4    1  0.4336176E+000  0.1810009E+03  0.7546771E-02  0.1166838E+00
         21   -1    0    0  501  502  0.00000000000E+00  0.00000000000E+00  0.32621917958E+02  0.32621917958E+02  0.00000000000E+00 0.  1.
         21   -1    0    0  502  503 -0.00000000000E+00 -0.00000000000E+00 -0.12904443655E+04  0.12904443655E+04  0.00000000000E+00 0. -1.
          6    1    1    2  501    0  0.27021732478E+02  0.45849294546E+02 -0.31738502454E+03  0.36536910876E+03  0.17300000000E+03 0.  1.
         -6    1    1    2    0  503 -0.27021732478E+02 -0.45849294546E+02 -0.94043742302E+03  0.95769717472E+03  0.17300000000E+03 0. -1.
<mgrwt>
<rscale>  2 0.18100092E+03</rscale>
<asrwt>0</asrwt>
<pdfrwt beam="1">  1       21 0.50187565E-02 0.18100092E+03</pdfrwt>
<pdfrwt beam="2">  1       21 0.19852991E+00 0.18100092E+03</pdfrwt>
<totfact> 0.36975213E+04</totfact>
</mgrwt>
</event>
<event>
 4    1  0.4336176E+000  0.2476177E+03  0.7546771E-02  0.1114820E+00
         21   -1    0    0  503  502  0.00000000000E+00  0.00000000000E+00  0.68951601369E+03  0.68951601369E+03  0.00000000000E+00 0.  1.
         21   -1    0    0  501  503 -0.00000000000E+00 -0.00000000000E+00 -0.12190535720E+03  0.12190535720E+03  0.00000000000E+00 0.  1.
          6    1    1    2  501    0  0.92182684083E+01 -0.17691959442E+03  0.72777690623E+02  0.25809128543E+03  0.17300000000E+03 0.  1.
         -6    1    1    2    0  502 -0.92182684083E+01  0.17691959442E+03  0.49483296587E+03  0.55333008546E+03  0.17300000000E+03 0.  1.
<mgrwt>
<rscale>  2 0.24761769E+03</rscale>
<asrwt>0</asrwt>
<pdfrwt beam="1">  1       21 0.10607938E+00 0.24761769E+03</pdfrwt>
<pdfrwt beam="2">  1       21 0.18754671E-01 0.24761769E+03</pdfrwt>
<totfact> 0.17963807E+04</totfact>
</mgrwt>
</event>
<event>
 4    1  0.4336176E+000  0.2032069E+03  0.7546771E-02  0.1147061E+00
         21   -1    0    0  503  502  0.00000000000E+00  0.00000000000E+00  0.10876088020E+04  0.10876088020E+04  0.00000000000E+00 0.  1.
         21   -1    0    0  501  503 -0.00000000000E+00 -0.00000000000E+00 -0.47977208572E+02  0.47977208572E+02  0.00000000000E+00 0. -1.
          6    1    1    2  501    0 -0.81278111903E+02  0.68977772117E+02  0.26045897183E+03  0.33035123812E+03  0.17300000000E+03 0. -1.
         -6    1    1    2    0  502  0.81278111903E+02 -0.68977772117E+02  0.77917262165E+03  0.80523477250E+03  0.17300000000E+03 0.  1.
<mgrwt>
<rscale>  2 0.20320695E+03</rscale>
<asrwt>0</asrwt>
<pdfrwt beam="1">  1       21 0.16732441E+00 0.20320695E+03</pdfrwt>
<pdfrwt beam="2">  1       21 0.73811098E-02 0.20320695E+03</pdfrwt>
<totfact> 0.30548693E+04</totfact>
</mgrwt>
</event>
<event>
 4    1  0.4336176E+000  0.1927467E+03  0.7546771E-02  0.1156007E+00
         21   -1    0    0  503  502  0.00000000000E+00  0.00000000000E+00  0.36019398426E+02  0.36019398426E+02  0.00000000000E+00 0.  1.
         21   -1    0    0  501  503 -0.00000000000E+00 -0.00000000000E+00 -0.10314681240E+04  0.10314681240E+04  0.00000000000E+00 0.  1.
          6    1    1    2  501    0 -0.72206102832E+02  0.44817033141E+02 -0.49425075588E+03  0.53050456872E+03  0.17300000000E+03 0.  1.
         -6    1    1    2    0  502  0.72206102832E+02 -0.44817033141E+02 -0.50119796971E+03  0.53698295373E+03  0.17300000000E+03 0.  1.
<mgrwt>
<rscale>  2 0.19274669E+03</rscale>
<asrwt>0</asrwt>
<pdfrwt beam="1">  1       21 0.55414459E-02 0.19274669E+03</pdfrwt>
<pdfrwt beam="2">  1       21 0.15868740E+00 0.19274669E+03</pdfrwt>
<totfact> 0.58121755E+04</totfact>
</mgrwt>
</event>
<event>
 4    1  0.4336176E+000  0.2039286E+03  0.7546771E-02  0.1146466E+00
         21   -1    0    0  503  502  0.00000000000E+00  0.00000000000E+00  0.40700639465E+02  0.40700639465E+02  0.00000000000E+00 0.  1.
         21   -1    0    0  501  503 -0.00000000000E+00 -0.00000000000E+00 -0.10432698430E+04  0.10432698430E+04  0.00000000000E+00 0. -1.
          6    1    1    2  501    0 -0.10167978080E+03 -0.36319118413E+02 -0.57908218867E+03  0.61394058134E+03  0.17300000000E+03 0. -1.
         -6    1    1    2    0  502  0.10167978080E+03  0.36319118413E+02 -0.42348701485E+03  0.47002990110E+03  0.17300000000E+03 0.  1.
<mgrwt>
<rscale>  2 0.20392856E+03</rscale>
<asrwt>0</asrwt>
<pdfrwt beam="1">  1       21 0.62616379E-02 0.20392856E+03</pdfrwt>
<pdfrwt beam="2">  1       21 0.16050303E+00 0.20392856E+03</pdfrwt>
<totfact> 0.45433378E+04</totfact>
</mgrwt>
</event>
<event>
 4    1  0.4336176E+000  0.2532456E+03  0.7546771E-02  0.1111271E+00
         21   -1    0    0  501  502  0.00000000000E+00  0.00000000000E+00  0.16379426029E+03  0.16379426029E+03  0.00000000000E+00 0.  1.
         21   -1    0    0  502  503 -0.00000000000E+00 -0.00000000000E+00 -0.39577461887E+03  0.39577461887E+03  0.00000000000E+00 0. -1.
          6    1    1    2  501    0  0.13065331217E+03 -0.13089715273E+03 -0.87077765267E+02  0.26779822587E+03  0.17300000000E+03 0. -1.
         -6    1    1    2    0  503 -0.13065331217E+03  0.13089715273E+03 -0.14490259332E+03  0.29177065329E+03  0.17300000000E+03 0.  1.
<mgrwt>
<rscale>  2 0.25324564E+03</rscale>
<asrwt>0</asrwt>
<pdfrwt beam="1">  1       21 0.25199117E-01 0.25324564E+03</pdfrwt>
<pdfrwt beam="2">  1       21 0.60888402E-01 0.25324564E+03</pdfrwt>
<totfact> 0.36385572E+04</totfact>
</mgrwt>
</event>
<event>
 4    1  0.4336176E+000  0.2265894E+03  0.7546771E-02  0.1129064E+00
         21   -1    0    0  503  502  0.00000000000E+00  0.00000000000E+00  0.10177785667E+03  0.10177785667E+03  0.00000000000E+00 0. -1.
         21   -1    0    0  501  503 -0.00000000000E+00 -0.00000000000E+00 -0.78404765363E+03  0.78404765363E+03  0.00000000000E+00 0.  1.
          6    1    1    2  501    0 -0.13557660694E+03 -0.55070261862E+02 -0.60562338571E+03  0.64662387476E+03  0.17300000000E+03 0.  1.
         -6    1    1    2    0  502  0.13557660694E+03  0.55070261862E+02 -0.76646411250E+02  0.23920163555E+03  0.17300000000E+03 0. -1.
<mgrwt>
<rscale>  2 0.22658939E+03</rscale>
<asrwt>0</asrwt>
<pdfrwt beam="1">  1       21 0.15658132E-01 0.22658939E+03</pdfrwt>
<pdfrwt beam="2">  1       21 0.12062272E+00 0.22658939E+03</pdfrwt>
<totfact> 0.18517731E+04</totfact>
</mgrwt>
</event>
<event>
 4    1  0.4336176E+000  0.2742295E+03  0.7546771E-02  0.1098883E+00
         21   -1    0    0  501  502  0.00000000000E+00  0.00000000000E+00  0.53768299164E+03  0.53768299164E+03  0.00000000000E+00 0.  1.
         21   -1    0    0  502  503 -0.00000000000E+00 -0.00000000000E+00 -0.16521577936E+03  0.16521577936E+03  0.00000000000E+00 0. -1.
          6    1    1    2  501    0  0.59540498624E+02  0.20427377345E+03  0.32390749482E+03  0.42440300505E+03  0.17300000000E+03 0.  1.
         -6    1    1    2    0  503 -0.59540498624E+02 -0.20427377345E+03  0.48559717459E+02  0.27849576595E+03  0.17300000000E+03 0. -1.
<mgrwt>
<rscale>  2 0.27422955E+03</rscale>
<asrwt>0</asrwt>
<pdfrwt beam="1">  1       21 0.82720459E-01 0.27422955E+03</pdfrwt>
<pdfrwt beam="2">  1       21 0.25417812E-01 0.27422955E+03</pdfrwt>
<totfact> 0.17905551E+04</totfact>
</mgrwt>
</event>
<event>
 4    1  0.4336176E+000  0.1954197E+03  0.7546771E-02  0.1153662E+00
         21   -1    0    0  501  502  0.00000000000E+00  0.00000000000E+00  0.34150254359E+02  0.34150254359E+02  0.00000000000E+00 0.  1.
         21   -1    0    0  502  503 -0.00000000000E+00 -0.00000000000E+00 -0.12671188724E+04  0.12671188724E+04  0.00000000000E+00 0.  1.
          6    1    1    2  501    0 -0.86900386970E+02  0.26612014996E+02 -0.39347897492E+03  0.43933424668E+03  0.17300000000E+03 0.  1.
         -6    1    1    2    0  503  0.86900386970E+02 -0.26612014996E+02 -0.83948964309E+03  0.86193488005E+03  0.17300000000E+03 0.  1.
<mgrwt>
<rscale>  2 0.19541974E+03</rscale>
<asrwt>0</asrwt>
<pdfrwt beam="1">  1       21 0.52538860E-02 0.19541974E+03</pdfrwt>
<pdfrwt beam="2">  1       21 0.19494134E+00 0.19541974E+03</pdfrwt>
<totfact> 0.35733585E+04</totfact>
</mgrwt>
</event>
<event>
 4    1  0.4336176E+000  0.2305848E+03  0.7546771E-02  0.1126229E+00
         21   -1    0    0  503  502  0.00000000000E+00  0.00000000000E+00  0.34404268860E+03  0.34404268860E+03  0.00000000000E+00 0. -1.
         21   -1    0    0  501  503 -0.00000000000E+00 -0.00000000000E+00 -0.17329593998E+03  0.17329593998E+03  0.00000000000E+00 0.  1.
          6    1    1    2  501    0  0.15228291120E+03 -0.70903619423E+01  0.28182303998E+00  0.23058499019E+03  0.17300000000E+03 0.  1.
         -6    1    1    2    0  502 -0.15228291120E+03  0.70903619423E+01  0.17046492558E+03  0.28675363839E+03  0.17300000000E+03 0. -1.
<mgrwt>
<rscale>  2 0.23058482E+03</rscale>
<asrwt>0</asrwt>
<pdfrwt beam="1">  1       21 0.52929644E-01 0.23058482E+03</pdfrwt>
<pdfrwt beam="2">  1       21 0.26660914E-01 0.23058482E+03</pdfrwt>
<totfact> 0.44475881E+04</totfact>
</mgrwt>
</event>
<event>
 4    1  0.4336176E+000  0.1776380E+03  0.7546771E-02  0.1170109E+00
         21   -1    0    0  503  502  0.00000000000E+00  0.00000000000E+00  0.72480514306E+02  0.72480514306E+02  0.00000000000E+00 0.  1.
         21   -1    0    0  501  503 -0.00000000000E+00 -0.00000000000E+00 -0.45733647190E+03  0.45733647190E+03  0.00000000000E+00 0.  1.
          6    1    1    2  501    0  0.24373732766E+02 -0.32127440273E+02 -0.25049621105E+03  0.30708891712E+03  0.17300000000E+03 0.  1.
         -6    1    1    2    0  502 -0.24373732766E+02  0.32127440273E+02 -0.13435974655E+03  0.22272806909E+03  0.17300000000E+03 0.  1.
<mgrwt>
<rscale>  2 0.17763798E+03</rscale>
<asrwt>0</asrwt>
<pdfrwt beam="1">  1       21 0.11150848E-01 0.17763798E+03</pdfrwt>
<pdfrwt beam="2">  1       21 0.70359458E-01 0.17763798E+03</pdfrwt>
<totfact> 0.12322299E+05</totfact>
</mgrwt>
</event>
<event>
 4    1  0.4336176E+000  0.2054152E+03  0.7546771E-02  0.1145249E+00
         21   -1    0    0  501  502  0.00000000000E+00  0.00000000000E+00  0.30617787002E+03  0.30617787002E+03  0.00000000000E+00 0. -1.
         21   -1    0    0  502  503 -0.00000000000E+00 -0.00000000000E+00 -0.19163447870E+03  0.19163447870E+03  0.00000000000E+00 0.  1.
          6    1    1    2  501    0  0.11058355096E+03 -0.61384341157E+01  0.18918092739E+03  0.27925763267E+03  0.17300000000E+03 0. -1.
         -6    1    1    2    0  503 -0.11058355096E+03  0.61384341157E+01 -0.74637536067E+02  0.21855471605E+03  0.17300000000E+03 0.  1.
<mgrwt>
<rscale>  2 0.20541519E+03</rscale>
<asrwt>0</asrwt>
<pdfrwt beam="1">  1       21 0.47104287E-01 0.20541519E+03</pdfrwt>
<pdfrwt beam="2">  1       21 0.29482228E-01 0.20541519E+03</pdfrwt>
<totfact> 0.47244212E+04</totfact>
</mgrwt>
</event>
<event>
 4    1  0.4336176E+000  0.1994900E+03  0.7546771E-02  0.1150170E+00
         21   -1    0    0  503  502  0.00000000000E+00  0.00000000000E+00  0.75800124915E+03  0.75800124915E+03  0.00000000000E+00 0.  1.
         21   -1    0    0  501  503 -0.00000000000E+00 -0.00000000000E+00 -0.16942021992E+03  0.16942021992E+03  0.00000000000E+00 0.  1.
          6    1    1    2  501    0 -0.78517220112E+02 -0.60846542344E+02 -0.90927354994E+02  0.21923512368E+03  0.17300000000E+03 0.  1.
         -6    1    1    2    0  502  0.78517220112E+02  0.60846542344E+02  0.67950838422E+03  0.70818634539E+03  0.17300000000E+03 0.  1.
<mgrwt>
<rscale>  2 0.19948999E+03</rscale>
<asrwt>0</asrwt>
<pdfrwt beam="1">  1       21 0.11661557E+00 0.19948999E+03</pdfrwt>
<pdfrwt beam="2">  1       21 0.26064650E-01 0.19948999E+03</pdfrwt>
<totfact> 0.78839219E+03</totfact>
</mgrwt>
</event>
<event>
 4    1  0.4336176E+000  0.1854967E+03  0.7546771E-02  0.1162587E+00
         21   -1    0    0  503  502  0.00000000000E+00  0.00000000000E+00  0.11182403198E+04  0.11182403198E+04  0.00000000000E+00 0. -1.
         21   -1    0    0  501  503 -0.00000000000E+00 -0.00000000000E+00 -0.14589425210E+03  0.14589425210E+03  0.00000000000E+00 0. -1.
          6    1    1    2  501    0 -0.72949554543E+01  0.66534317294E+02 -0.75296663339E+02  0.20019645167E+03  0.17300000000E+03 0. -1.
         -6    1    1    2    0  502  0.72949554543E+01 -0.66534317294E+02  0.10476427311E+04  0.10639381203E+04  0.17300000000E+03 0. -1.
<mgrwt>
<rscale>  2 0.18549672E+03</rscale>
<asrwt>0</asrwt>
<pdfrwt beam="1">  1       21 0.17203697E+00 0.18549672E+03</pdfrwt>
<pdfrwt beam="2">  1       21 0.22445270E-01 0.18549672E+03</pdfrwt>
<totfact> 0.38633140E+03</totfact>
</mgrwt>
</event>
<event>
 4    1  0.4336176E+000  0.1798706E+03  0.7546771E-02  0.1167928E+00
         21   -1    0    0  501  502  0.00000000000E+00  0.00000000000E+00  0.60385203542E+02  0.60385203542E+02  0.00000000000E+00 0.  1.
         21   -1    0    0  502  503 -0.00000000000E+00 -0.00000000000E+00 -0.54492716950E+03  0.54492716950E+03  0.00000000000E+00 0.  1.
          6    1    1    2  501    0  0.29959419111E+02 -0.39074987676E+02 -0.28147498981E+03  0.33403830820E+03  0.17300000000E+03 0.  1.
         -6    1    1    2    0  503 -0.29959419111E+02  0.39074987676E+02 -0.20306697615E+03  0.27127406484E+03  0.17300000000E+03 0.  1.
<mgrwt>
<rscale>  2 0.17987057E+03</rscale>
<asrwt>0</asrwt>
<pdfrwt beam="1">  1       21 0.92900310E-02 0.17987057E+03</pdfrwt>
<pdfrwt beam="2">  1       21 0.83834952E-01 0.17987057E+03</pdfrwt>
<totfact> 0.11480848E+05</totfact>
</mgrwt>
</event>
<event>
 4    1  0.4336176E+000  0.2148236E+03  0.7546771E-02  0.1137802E+00
         21   -1    0    0  503  502  0.00000000000E+00  0.00000000000E+00  0.37465694290E+03  0.37465694290E+03  0.00000000000E+00 0. -1.
         21   -1    0    0  501  503 -0.00000000000E+00 -0.00000000000E+00 -0.26579444019E+03  0.26579444019E+03  0.00000000000E+00 0. -1.
          6    1    1    2  501    0  0.46596182676E+01 -0.12727324645E+03 -0.18013700943E+03  0.28035429990E+03  0.17300000000E+03 0. -1.
         -6    1    1    2    0  502 -0.46596182676E+01  0.12727324645E+03  0.28899951214E+03  0.36009708319E+03  0.17300000000E+03 0. -1.
<mgrwt>
<rscale>  2 0.21482363E+03</rscale>
<asrwt>0</asrwt>
<pdfrwt beam="1">  1       21 0.57639529E-01 0.21482363E+03</pdfrwt>
<pdfrwt beam="2">  1       21 0.40891453E-01 0.21482363E+03</pdfrwt>
<totfact> 0.16045541E+04</totfact>
</mgrwt>
</event>
<event>
 4    1  0.4336176E+000  0.1909539E+03  0.7546771E-02  0.1157604E+00
         21   -1    0    0  501  502  0.00000000000E+00  0.00000000000E+00  0.25948426979E+03  0.25948426979E+03  0.00000000000E+00 0.  1.
         21   -1    0    0  502  503 -0.00000000000E+00 -0.00000000000E+00 -0.14208652386E+03  0.14208652386E+03  0.00000000000E+00 0. -1.
          6    1    1    2  501    0  0.10219070899E+02  0.80186994882E+02  0.79764507866E+02  0.20694385778E+03  0.17300000000E+03 0.  1.
         -6    1    1    2    0  503 -0.10219070899E+02 -0.80186994882E+02  0.37633238068E+02  0.19462693587E+03  0.17300000000E+03 0. -1.
<mgrwt>
<rscale>  2 0.19095388E+03</rscale>
<asrwt>0</asrwt>
<pdfrwt beam="1">  1       21 0.39920657E-01 0.19095388E+03</pdfrwt>
<pdfrwt beam="2">  1       21 0.21859465E-01 0.19095388E+03</pdfrwt>
<totfact> 0.11823402E+05</totfact>
</mgrwt>
</event>
<event>
 4    1  0.4336176E+000  0.2506567E+03  0.7546771E-02  0.1112891E+00
         21   -1    0    0  503  502  0.00000000000E+00  0.00000000000E+00  0.61976065214E+02  0.61976065214E+02  0.00000000000E+00 0. -1.
         21   -1    0    0  501  503 -0.00000000000E+00 -0.00000000000E+00 -0.11483838389E+04  0.11483838389E+04  0.00000000000E+00 0.  1.
          6    1    1    2  501    0 -0.13990873155E+03  0.11543537151E+03 -0.33599708653E+03  0.41919305853E+03  0.17300000000E+03 0. -1.
         -6    1    1    2    0  502  0.13990873155E+03 -0.11543537151E+03 -0.75041068718E+03  0.79116684561E+03  0.17300000000E+03 0.  1.
<mgrwt>
<rscale>  2 0.25065669E+03</rscale>
<asrwt>0</asrwt>
<pdfrwt beam="1">  1       21 0.95347797E-02 0.25065669E+03</pdfrwt>
<pdfrwt beam="2">  1       21 0.17667443E+00 0.25065669E+03</pdfrwt>
<totfact> 0.16280208E+04</totfact>
</mgrwt>
</event>
<event>
 4    1  0.4336176E+000  0.1985386E+03  0.7546771E-02  0.1150978E+00
         21   -1    0    0  501  502  0.00000000000E+00  0.00000000000E+00  0.13123418680E+04  0.13123418680E+04  0.00000000000E+00 0.  1.
         21   -1    0    0  502  503 -0.00000000000E+00 -0.00000000000E+00 -0.38747961650E+02  0.38747961650E+02  0.00000000000E+00 0. -1.
          6    1    1    2  501    0 -0.44165901657E+02 -0.86821372002E+02  0.95711861623E+03  0.97749354117E+03  0.17300000000E+03 0.  1.
         -6    1    1    2    0  503  0.44165901657E+02  0.86821372002E+02  0.31647529012E+03  0.37359628847E+03  0.17300000000E+03 0.  1.
<mgrwt>
<rscale>  2 0.19853860E+03</rscale>
<asrwt>0</asrwt>
<pdfrwt beam="1">  1       21 0.20189871E+00 0.19853860E+03</pdfrwt>
<pdfrwt beam="2">  1       21 0.59612259E-02 0.19853860E+03</pdfrwt>
<totfact> 0.25918999E+04</totfact>
</mgrwt>
</event>
<event>
 4    1  0.4336176E+000  0.2441457E+03  0.7546771E-02  0.1117061E+00
         21   -1    0    0  501  502  0.00000000000E+00  0.00000000000E+00  0.61418873659E+03  0.61418873659E+03  0.00000000000E+00 0.  1.
         21   -1    0    0  502  503 -0.00000000000E+00 -0.00000000000E+00 -0.12880140214E+03  0.12880140214E+03  0.00000000000E+00 0. -1.
          6    1    1    2  501    0 -0.16912970624E+03 -0.32761070594E+02  0.58246162991E+02  0.25099753143E+03  0.17300000000E+03 0.  1.
         -6    1    1    2    0  503  0.16912970624E+03  0.32761070594E+02  0.42714117147E+03  0.49199260730E+03  0.17300000000E+03 0.  1.
<mgrwt>
<rscale>  2 0.24414575E+03</rscale>
<asrwt>0</asrwt>
<pdfrwt beam="1">  1       21 0.94490574E-01 0.24414575E+03</pdfrwt>
<pdfrwt beam="2">  1       21 0.19815601E-01 0.24414575E+03</pdfrwt>
<totfact> 0.21404889E+04</totfact>
</mgrwt>
</event>
<event>
 4    1  0.4336176E+000  0.2109059E+03  0.7546771E-02  0.1140851E+00
         21   -1    0    0  501  502  0.00000000000E+00  0.00000000000E+00  0.25074330285E+03  0.25074330285E+03  0.00000000000E+00 0.  1.
         21   -1    0    0  502  503 -0.00000000000E+00 -0.00000000000E+00 -0.40956407054E+03  0.40956407054E+03  0.00000000000E+00 0.  1.
          6    1    1    2  501    0  0.11175137706E+03  0.45430649939E+02  0.16916308545E+03  0.27036542624E+03  0.17300000000E+03 0.  1.
         -6    1    1    2    0  503 -0.11175137706E+03 -0.45430649939E+02 -0.32798385314E+03  0.38994194715E+03  0.17300000000E+03 0.  1.
<mgrwt>
<rscale>  2 0.21090594E+03</rscale>
<asrwt>0</asrwt>
<pdfrwt beam="1">  1       21 0.38575893E-01 0.21090594E+03</pdfrwt>
<pdfrwt beam="2">  1       21 0.63009857E-01 0.21090594E+03</pdfrwt>
<totfact> 0.14936299E+04</totfact>
</mgrwt>
</event>
<event>
 4    1  0.4336176E+000  0.1748469E+03  0.7546771E-02  0.1172885E+00
         21   -1    0    0  501  502  0.00000000000E+00  0.00000000000E+00  0.27712406354E+03  0.27712406354E+03  0.00000000000E+00 0. -1.
         21   -1    0    0  502  503 -0.00000000000E+00 -0.00000000000E+00 -0.14846185077E+03  0.14846185077E+03  0.00000000000E+00 0. -1.
          6    1    1    2  501    0 -0.12488880525E+01 -0.25315845553E+02  0.17219315628E+03  0.24540157869E+03  0.17300000000E+03 0. -1.
         -6    1    1    2    0  503  0.12488880525E+01  0.25315845553E+02 -0.43530943507E+02  0.18018433561E+03  0.17300000000E+03 0. -1.
<mgrwt>
<rscale>  2 0.17484694E+03</rscale>
<asrwt>0</asrwt>
<pdfrwt beam="1">  1       21 0.42634471E-01 0.17484694E+03</pdfrwt>
<pdfrwt beam="2">  1       21 0.22840285E-01 0.17484694E+03</pdfrwt>
<totfact> 0.95831996E+04</totfact>
</mgrwt>
</event>
<event>
 4    1  0.4336176E+000  0.2131839E+03  0.7546771E-02  0.1139069E+00
         21   -1    0    0  501  502  0.00000000000E+00  0.00000000000E+00  0.74249978293E+03  0.74249978293E+03  0.00000000000E+00 0.  1.
         21   -1    0    0  502  503 -0.00000000000E+00 -0.00000000000E+00 -0.68819015039E+02  0.68819015039E+02  0.00000000000E+00 0. -1.
          6    1    1    2  501    0  0.94907998941E+02  0.80689762490E+02  0.20194045372E+03  0.29364487545E+03  0.17300000000E+03 0.  1.
         -6    1    1    2    0  503 -0.94907998941E+02 -0.80689762490E+02  0.47174031417E+03  0.51767392251E+03  0.17300000000E+03 0.  1.
<mgrwt>
<rscale>  2 0.21318388E+03</rscale>
<asrwt>0</asrwt>
<pdfrwt beam="1">  1       21 0.11423073E+00 0.21318388E+03</pdfrwt>
<pdfrwt beam="2">  1       21 0.10587541E-01 0.21318388E+03</pdfrwt>
<totfact> 0.43232192E+04</totfact>
</mgrwt>
</event>
<event>
 4    1  0.4336176E+000  0.2007263E+03  0.7546771E-02  0.1149128E+00
         21   -1    0    0  503  502  0.00000000000E+00  0.00000000000E+00  0.45579493804E+03  0.45579493804E+03  0.00000000000E+00 0.  1.
         21   -1    0    0  501  503 -0.00000000000E+00 -0.00000000000E+00 -0.90978812097E+02  0.90978812097E+02  0.00000000000E+00 0.  1.
          6    1    1    2  501    0  0.90337137188E+02 -0.46917664310E+02  0.13635693867E+03  0.24266083389E+03  0.17300000000E+03 0.  1.
         -6    1    1    2    0  502 -0.90337137188E+02  0.46917664310E+02  0.22845918727E+03  0.30411291624E+03  0.17300000000E+03 0.  1.
<mgrwt>
<rscale>  2 0.20072635E+03</rscale>
<asrwt>0</asrwt>
<pdfrwt beam="1">  1       21 0.70122297E-01 0.20072635E+03</pdfrwt>
<pdfrwt beam="2">  1       21 0.13996741E-01 0.20072635E+03</pdfrwt>
<totfact> 0.81816971E+04</totfact>
</mgrwt>
</event>
<event>
 4    1  0.4336176E+000  0.1936875E+03  0.7546771E-02  0.1155177E+00
         21   -1    0    0  503  502  0.00000000000E+00  0.00000000000E+00  0.82670495255E+03  0.82670495255E+03  0.00000000000E+00 0. -1.
         21   -1    0    0  501  503 -0.00000000000E+00 -0.00000000000E+00 -0.45672524883E+02  0.45672524883E+02  0.00000000000E+00 0.  1.
          6    1    1    2  501    0  0.20613762471E+02  0.84622161409E+02  0.35553344063E+03  0.40486894770E+03  0.17300000000E+03 0.  1.
         -6    1    1    2    0  502 -0.20613762471E+02 -0.84622161409E+02  0.42549898703E+03  0.46750852973E+03  0.17300000000E+03 0. -1.
<mgrwt>
<rscale>  2 0.19368747E+03</rscale>
<asrwt>0</asrwt>
<pdfrwt beam="1">  1       21 0.12718537E+00 0.19368747E+03</pdfrwt>
<pdfrwt beam="2">  1       21 0.70265429E-02 0.19368747E+03</pdfrwt>
<totfact> 0.68606848E+04</totfact>
</mgrwt>
</event>
<event>
 4    1  0.4336176E+000  0.1884587E+03  0.7546771E-02  0.1159859E+00
         21   -1    0    0  503  502  0.00000000000E+00  0.00000000000E+00  0.90409690258E+03  0.90409690258E+03  0.00000000000E+00 0.  1.
         21   -1    0    0  501  503 -0.00000000000E+00 -0.00000000000E+00 -0.49045889516E+02  0.49045889516E+02  0.00000000000E+00 0.  1.
          6    1    1    2  501    0 -0.74750548327E+02 -0.22369818522E+00  0.21491247798E+03  0.28583923402E+03  0.17300000000E+03 0.  1.
         -6    1    1    2    0  502  0.74750548327E+02  0.22369818522E+00  0.64013853509E+03  0.66730355807E+03  0.17300000000E+03 0.  1.
<mgrwt>
<rscale>  2 0.18845873E+03</rscale>
<asrwt>0</asrwt>
<pdfrwt beam="1">  1       21 0.13909182E+00 0.18845873E+03</pdfrwt>
<pdfrwt beam="2">  1       21 0.75455221E-02 0.18845873E+03</pdfrwt>
<totfact> 0.48450456E+04</totfact>
</mgrwt>
</event>
<event>
 4    1  0.4336176E+000  0.2091918E+03  0.7546771E-02  0.1142208E+00
         21   -1    0    0  501  502  0.00000000000E+00  0.00000000000E+00  0.89417632915E+02  0.89417632915E+02  0.00000000000E+00 0. -1.
         21   -1    0    0  502  503 -0.00000000000E+00 -0.00000000000E+00 -0.91487200099E+03  0.91487200099E+03  0.00000000000E+00 0.  1.
          6    1    1    2  501    0 -0.48320221953E+01  0.11751105350E+03 -0.70288255240E+02  0.22068446923E+03  0.17300000000E+03 0. -1.
         -6    1    1    2    0  503  0.48320221953E+01 -0.11751105350E+03 -0.75516611284E+03  0.78360516468E+03  0.17300000000E+03 0.  1.
<mgrwt>
<rscale>  2 0.20919177E+03</rscale>
<asrwt>0</asrwt>
<pdfrwt beam="1">  1       21 0.13756559E-01 0.20919177E+03</pdfrwt>
<pdfrwt beam="2">  1       21 0.14074953E+00 0.20919177E+03</pdfrwt>
<totfact> 0.16017276E+04</totfact>
</mgrwt>
</event>
<event>
 4    1  0.4336176E+000  0.1899908E+03  0.7546771E-02  0.1158470E+00
         21   -1    0    0  501  502  0.00000000000E+00  0.00000000000E+00  0.44948797412E+02  0.44948797412E+02  0.00000000000E+00 0.  1.
         21   -1    0    0  502  503 -0.00000000000E+00 -0.00000000000E+00 -0.13648777144E+04  0.13648777144E+04  0.00000000000E+00 0.  1.
          6    1    1    2  501    0 -0.74880787782E+02 -0.23672335561E+02 -0.11122233535E+04  0.11283338601E+04  0.17300000000E+03 0.  1.
         -6    1    1    2    0  503  0.74880787782E+02  0.23672335561E+02 -0.20770556351E+03  0.28149265171E+03  0.17300000000E+03 0.  1.
<mgrwt>
<rscale>  2 0.18999082E+03</rscale>
<asrwt>0</asrwt>
<pdfrwt beam="1">  1       21 0.69152004E-02 0.18999082E+03</pdfrwt>
<pdfrwt beam="2">  1       21 0.20998116E+00 0.18999082E+03</pdfrwt>
<totfact> 0.17969352E+04</totfact>
</mgrwt>
</event>
<event>
 4    1  0.4336176E+000  0.2319434E+03  0.7546771E-02  0.1125279E+00
         21   -1    0    0  503  502  0.00000000000E+00  0.00000000000E+00  0.16551947595E+04  0.16551947595E+04  0.00000000000E+00 0. -1.
         21   -1    0    0  501  503 -0.00000000000E+00 -0.00000000000E+00 -0.51438406098E+02  0.51438406098E+02  0.00000000000E+00 0. -1.
          6    1    1    2  501    0 -0.15363833185E+03 -0.16248632662E+02  0.28413909076E+03  0.36678710170E+03  0.17300000000E+03 0. -1.
         -6    1    1    2    0  502  0.15363833185E+03  0.16248632662E+02  0.13196172626E+04  0.13398460639E+04  0.17300000000E+03 0. -1.
<mgrwt>
<rscale>  2 0.23194343E+03</rscale>
<asrwt>0</asrwt>
<pdfrwt beam="1">  1       21 0.25464531E+00 0.23194343E+03</pdfrwt>
<pdfrwt beam="2">  1       21 0.79136022E-02 0.23194343E+03</pdfrwt>
<totfact> 0.73616768E+03</totfact>
</mgrwt>
</event>
<event>
 4    1  0.4336176E+000  0.1758086E+03  0.7546771E-02  0.1171922E+00
         21   -1    0    0  503  502  0.00000000000E+00  0.00000000000E+00  0.11245102917E+03  0.11245102917E+03  0.00000000000E+00 0. -1.
         21   -1    0    0  501  503 -0.00000000000E+00 -0.00000000000E+00 -0.28599063308E+03  0.28599063308E+03  0.00000000000E+00 0. -1.
          6    1    1    2  501    0  0.12781284848E+02  0.28570828344E+02 -0.12606646626E+03  0.21633632934E+03  0.17300000000E+03 0.  1.
         -6    1    1    2    0  502 -0.12781284848E+02 -0.28570828344E+02 -0.47473137646E+02  0.18210533291E+03  0.17300000000E+03 0.  1.
<mgrwt>
<rscale>  2 0.17580857E+03</rscale>
<asrwt>0</asrwt>
<pdfrwt beam="1">  1       21 0.17300159E-01 0.17580857E+03</pdfrwt>
<pdfrwt beam="2">  1       21 0.43998558E-01 0.17580857E+03</pdfrwt>
<totfact> 0.15072759E+05</totfact>
</mgrwt>
</event>
<event>
 4    1  0.4336176E+000  0.2685969E+03  0.7546771E-02  0.1102085E+00
         21   -1    0    0  503  502  0.00000000000E+00  0.00000000000E+00  0.26107357372E+03  0.26107357372E+03  0.00000000000E+00 0. -1.
         21   -1    0    0  501  503 -0.00000000000E+00 -0.00000000000E+00 -0.38329274291E+03  0.38329274291E+03  0.00000000000E+00 0. -1.
          6    1    1    2  501    0  0.20153727085E+03  0.39975224405E+02 -0.23130175442E+03  0.35446409085E+03  0.17300000000E+03 0. -1.
         -6    1    1    2    0  502 -0.20153727085E+03 -0.39975224405E+02  0.10908258523E+03  0.28990222578E+03  0.17300000000E+03 0. -1.
<mgrwt>
<rscale>  2 0.26859689E+03</rscale>
<asrwt>0</asrwt>
<pdfrwt beam="1">  1       21 0.40165165E-01 0.26859689E+03</pdfrwt>
<pdfrwt beam="2">  1       21 0.58968114E-01 0.26859689E+03</pdfrwt>
<totfact> 0.15405130E+04</totfact>
</mgrwt>
</event>
<event>
 4    1  0.4336176E+000  0.2228628E+03  0.7546771E-02  0.1131767E+00
         21   -1    0    0  501  502  0.00000000000E+00  0.00000000000E+00  0.96927153205E+02  0.96927153205E+02  0.00000000000E+00 0.  1.
         21   -1    0    0  502  503 -0.00000000000E+00 -0.00000000000E+00 -0.51646614613E+03  0.51646614613E+03  0.00000000000E+00 0.  1.
          6    1    1    2  501    0 -0.12189919561E+03  0.69852736406E+02 -0.23690160274E+03  0.32525403618E+03  0.17300000000E+03 0.  1.
         -6    1    1    2    0  503  0.12189919561E+03 -0.69852736406E+02 -0.18263739019E+03  0.28813926315E+03  0.17300000000E+03 0.  1.
<mgrwt>
<rscale>  2 0.22286278E+03</rscale>
<asrwt>0</asrwt>
<pdfrwt beam="1">  1       21 0.14911870E-01 0.22286278E+03</pdfrwt>
<pdfrwt beam="2">  1       21 0.79456330E-01 0.22286278E+03</pdfrwt>
<totfact> 0.54596569E+04</totfact>
</mgrwt>
</event>
<event>
 4    1  0.4336176E+000  0.2132753E+03  0.7546771E-02  0.1138998E+00
         21   -1    0    0  503  502  0.00000000000E+00  0.00000000000E+00  0.22161397523E+03  0.22161397523E+03  0.00000000000E+00 0. -1.
         21   -1    0    0  501  503 -0.00000000000E+00 -0.00000000000E+00 -0.30142853774E+03  0.30142853774E+03  0.00000000000E+00 0. -1.
          6    1    1    2  501    0  0.12416768926E+03 -0.11820297895E+02 -0.18763201726E+03  0.28406356401E+03  0.17300000000E+03 0. -1.
         -6    1    1    2    0  502 -0.12416768926E+03  0.11820297895E+02  0.10781745475E+03  0.23897894896E+03  0.17300000000E+03 0. -1.
<mgrwt>
<rscale>  2 0.21327526E+03</rscale>
<asrwt>0</asrwt>
<pdfrwt beam="1">  1       21 0.34094458E-01 0.21327526E+03</pdfrwt>
<pdfrwt beam="2">  1       21 0.46373621E-01 0.21327526E+03</pdfrwt>
<totfact> 0.36529571E+04</totfact>
</mgrwt>
</event>
<event>
 4    1  0.4336176E+000  0.2434014E+03  0.7546771E-02  0.1117547E+00
         21   -1    0    0  501  502  0.00000000000E+00  0.00000000000E+00  0.10233463594E+04  0.10233463594E+04  0.00000000000E+00 0.  1.
         21   -1    0    0  502  503 -0.00000000000E+00 -0.00000000000E+00 -0.58760259036E+02  0.58760259036E+02  0.00000000000E+00 0.  1.
          6    1    1    2  501    0 -0.14198665622E+03 -0.95682044572E+02  0.54803650396E+03  0.59965679674E+03  0.17300000000E+03 0.  1.
         -6    1    1    2    0  503  0.14198665622E+03  0.95682044572E+02  0.41654959643E+03  0.48244982172E+03  0.17300000000E+03 0.  1.
<mgrwt>
<rscale>  2 0.24340145E+03</rscale>
<asrwt>0</asrwt>
<pdfrwt beam="1">  1       21 0.15743789E+00 0.24340145E+03</pdfrwt>
<pdfrwt beam="2">  1       21 0.90400406E-02 0.24340145E+03</pdfrwt>
<totfact> 0.24703983E+04</totfact>
</mgrwt>
</event>
<event>
 4    1  0.4336176E+000  0.2144086E+03  0.7546771E-02  0.1138122E+00
         21   -1    0    0  503  502  0.00000000000E+00  0.00000000000E+00  0.39602472292E+02  0.39602472292E+02  0.00000000000E+00 0.  1.
         21   -1    0    0  501  503 -0.00000000000E+00 -0.00000000000E+00 -0.13092610517E+04  0.13092610517E+04  0.00000000000E+00 0.  1.
          6    1    1    2  501    0  0.35801597034E+02 -0.12149193302E+03 -0.86192707565E+03  0.88819442009E+03  0.17300000000E+03 0.  1.
         -6    1    1    2    0  502 -0.35801597034E+02  0.12149193302E+03 -0.40773150381E+03  0.46066910395E+03  0.17300000000E+03 0.  1.
<mgrwt>
<rscale>  2 0.21440859E+03</rscale>
<asrwt>0</asrwt>
<pdfrwt beam="1">  1       21 0.60926884E-02 0.21440859E+03</pdfrwt>
<pdfrwt beam="2">  1       21 0.20142476E+00 0.21440859E+03</pdfrwt>
<totfact> 0.24860320E+04</totfact>
</mgrwt>
</event>
<event>
 4    1  0.4336176E+000  0.1859509E+03  0.7546771E-02  0.1162165E+00
         21   -1    0    0  501  502  0.00000000000E+00  0.00000000000E+00  0.10633847525E+03  0.10633847525E+03  0.00000000000E+00 0. -1.
         21   -1    0    0  502  503 -0.00000000000E+00 -0.00000000000E+00 -0.32748723604E+03  0.32748723604E+03  0.00000000000E+00 0. -1.
          6    1    1    2  501    0  0.73779869447E+01  0.67781297338E+02 -0.92315450282E+02  0.20760510909E+03  0.17300000000E+03 0. -1.
         -6    1    1    2    0  503 -0.73779869447E+01 -0.67781297338E+02 -0.12883331051E+03  0.22622060219E+03  0.17300000000E+03 0. -1.
<mgrwt>
<rscale>  2 0.18595090E+03</rscale>
<asrwt>0</asrwt>
<pdfrwt beam="1">  1       21 0.16359766E-01 0.18595090E+03</pdfrwt>
<pdfrwt beam="2">  1       21 0.50382650E-01 0.18595090E+03</pdfrwt>
<totfact> 0.12583840E+05</totfact>
</mgrwt>
</event>
<event>
 4    1  0.4336176E+000  0.1777704E+03  0.7546771E-02  0.1169978E+00
         21   -1    0    0  501  502  0.00000000000E+00  0.00000000000E+00  0.93587062462E+02  0.93587062462E+02  0.00000000000E+00 0.  1.
         21   -1    0    0  502  503 -0.00000000000E+00 -0.00000000000E+00 -0.65499015907E+03  0.65499015907E+03  0.00000000000E+00 0.  1.
          6    1    1    2  501    0 -0.29391313701E+02  0.28451087163E+02 -0.20186734562E+02  0.17891287806E+03  0.17300000000E+03 0. -1.
         -6    1    1    2    0  503  0.29391313701E+02 -0.28451087163E+02 -0.54121636205E+03  0.56966434348E+03  0.17300000000E+03 0. -1.
<mgrwt>
<rscale>  2 0.17777040E+03</rscale>
<asrwt>0</asrwt>
<pdfrwt beam="1">  1       21 0.14398009E-01 0.17777040E+03</pdfrwt>
<pdfrwt beam="2">  1       21 0.10076772E+00 0.17777040E+03</pdfrwt>
<totfact> 0.34349835E+04</totfact>
</mgrwt>
</event>
<event>
 4    1  0.4336176E+000  0.2933592E+03  0.7546771E-02  0.1088608E+00
         21   -1    0    0  501  502  0.00000000000E+00  0.00000000000E+00  0.34101495184E+03  0.34101495184E+03  0.00000000000E+00 0.  1.
         21   -1    0    0  502  503 -0.00000000000E+00 -0.00000000000E+00 -0.34754336035E+03  0.34754336035E+03  0.00000000000E+00 0. -1.
          6    1    1    2  501    0  0.16322867942E+03 -0.17171781519E+03  0.17690457911E+03  0.34257092689E+03  0.17300000000E+03 0.  1.
         -6    1    1    2    0  503 -0.16322867942E+03  0.17171781519E+03 -0.18343298762E+03  0.34598738530E+03  0.17300000000E+03 0. -1.
<mgrwt>
<rscale>  2 0.29335918E+03</rscale>
<asrwt>0</asrwt>
<pdfrwt beam="1">  1       21 0.52463839E-01 0.29335918E+03</pdfrwt>
<pdfrwt beam="2">  1       21 0.53468209E-01 0.29335918E+03</pdfrwt>
<totfact> 0.10780367E+04</totfact>
</mgrwt>
</event>
<event>
 4    1  0.4336176E+000  0.1962070E+03  0.7546771E-02  0.1152979E+00
         21   -1    0    0  503  502  0.00000000000E+00  0.00000000000E+00  0.43982122716E+02  0.43982122716E+02  0.00000000000E+00 0. -1.
         21   -1    0    0  501  503 -0.00000000000E+00 -0.00000000000E+00 -0.90265154225E+03  0.90265154225E+03  0.00000000000E+00 0.  1.
          6    1    1    2  501    0 -0.40662073923E+02  0.83155092089E+02 -0.51173924069E+03  0.54806406930E+03  0.17300000000E+03 0.  1.
         -6    1    1    2    0  502  0.40662073923E+02 -0.83155092089E+02 -0.34693017884E+03  0.39856959567E+03  0.17300000000E+03 0. -1.
<mgrwt>
<rscale>  2 0.19620697E+03</rscale>
<asrwt>0</asrwt>
<pdfrwt beam="1">  1       21 0.67664806E-02 0.19620697E+03</pdfrwt>
<pdfrwt beam="2">  1       21 0.13886946E+00 0.19620697E+03</pdfrwt>
<totfact> 0.58494347E+04</totfact>
</mgrwt>
</event>
<event>
 4    1  0.4336176E+000  0.2323379E+03  0.7546771E-02  0.1125005E+00
         21   -1    0    0  501  502  0.00000000000E+00  0.00000000000E+00  0.35852130578E+03  0.35852130578E+03  0.00000000000E+00 0.  1.
         21   -1    0    0  502  503 -0.00000000000E+00 -0.00000000000E+00 -0.16876367472E+03  0.16876367472E+03  0.00000000000E+00 0. -1.
          6    1    1    2  501    0  0.35867402092E+02 -0.15088217833E+03  0.18145353206E+03  0.29479872213E+03  0.17300000000E+03 0.  1.
         -6    1    1    2    0  503 -0.35867402092E+02  0.15088217833E+03  0.83040989876E+01  0.23248625837E+03  0.17300000000E+03 0.  1.
<mgrwt>
<rscale>  2 0.23233791E+03</rscale>
<asrwt>0</asrwt>
<pdfrwt beam="1">  1       21 0.55157124E-01 0.23233791E+03</pdfrwt>
<pdfrwt beam="2">  1       21 0.25963642E-01 0.23233791E+03</pdfrwt>
<totfact> 0.42857826E+04</totfact>
</mgrwt>
</event>
<event>
 4    1  0.4336176E+000  0.1766700E+03  0.7546771E-02  0.1171065E+00
         21   -1    0    0  501  502  0.00000000000E+00  0.00000000000E+00  0.66893642543E+03  0.66893642543E+03  0.00000000000E+00 0. -1.
         21   -1    0    0  502  503 -0.00000000000E+00 -0.00000000000E+00 -0.46660485065E+02  0.46660485065E+02  0.00000000000E+00 0. -1.
          6    1    1    2  501    0 -0.49329907427E+01  0.35481894066E+02  0.31270523621E+03  0.35916133416E+03  0.17300000000E+03 0. -1.
         -6    1    1    2    0  503  0.49329907427E+01 -0.35481894066E+02  0.30957070415E+03  0.35643557633E+03  0.17300000000E+03 0. -1.
<mgrwt>
<rscale>  2 0.17667003E+03</rscale>
<asrwt>0</asrwt>
<pdfrwt beam="1">  1       21 0.10291329E+00 0.17667003E+03</pdfrwt>
<pdfrwt beam="2">  1       21 0.71785366E-02 0.17667003E+03</pdfrwt>
<totfact> 0.11174080E+05</totfact>
</mgrwt>
</event>
<event>
 4    1  0.4336176E+000  0.2148798E+03  0.7546771E-02  0.1137759E+00
         21   -1    0    0  501  502  0.00000000000E+00  0.00000000000E+00  0.47211044752E+02  0.47211044752E+02  0.00000000000E+00 0.  1.
         21   -1    0    0  502  503 -0.00000000000E+00 -0.00000000000E+00 -0.21053815957E+04  0.21053815957E+04  0.00000000000E+00 0.  1.
          6    1    1    2  501    0  0.30439456983E+02  0.12376501195E+03 -0.24149908595E+03  0.32325709155E+03  0.17300000000E+03 0.  1.
         -6    1    1    2    0  503 -0.30439456983E+02 -0.12376501195E+03 -0.18166714650E+04  0.18293355489E+04  0.17300000000E+03 0.  1.
<mgrwt>
<rscale>  2 0.21487982E+03</rscale>
<asrwt>0</asrwt>
<pdfrwt beam="1">  1       21 0.72632393E-02 0.21487982E+03</pdfrwt>
<pdfrwt beam="2">  1       21 0.32390479E+00 0.21487982E+03</pdfrwt>
<totfact> 0.34330937E+03</totfact>
</mgrwt>
</event>
<event>
 4    1  0.4336176E+000  0.2009967E+03  0.7546771E-02  0.1148901E+00
         21   -1    0    0  503  502  0.00000000000E+00  0.00000000000E+00  0.21668178755E+03  0.21668178755E+03  0.00000000000E+00 0.  1.
         21   -1    0    0  501  503 -0.00000000000E+00 -0.00000000000E+00 -0.55080605477E+03  0.55080605477E+03  0.00000000000E+00 0.  1.
          6    1    1    2  501    0  0.35543502047E+02 -0.95954862589E+02 -0.47917158506E+03  0.51962013444E+03  0.17300000000E+03 0.  1.
         -6    1    1    2    0  502 -0.35543502047E+02  0.95954862589E+02  0.14504731784E+03  0.24786770787E+03  0.17300000000E+03 0.  1.
<mgrwt>
<rscale>  2 0.20099671E+03</rscale>
<asrwt>0</asrwt>
<pdfrwt beam="1">  1       21 0.33335660E-01 0.20099671E+03</pdfrwt>
<pdfrwt beam="2">  1       21 0.84739392E-01 0.20099671E+03</pdfrwt>
<totfact> 0.10396885E+04</totfact>
</mgrwt>
</event>
<event>
 4    1  0.4336176E+000  0.2513733E+03  0.7546771E-02  0.1112440E+00
         21   -1    0    0  503  502  0.00000000000E+00  0.00000000000E+00  0.12027701386E+04  0.12027701386E+04  0.00000000000E+00 0. -1.
         21   -1    0    0  501  503 -0.00000000000E+00 -0.00000000000E+00 -0.11656061784E+03  0.11656061784E+03  0.00000000000E+00 0.  1.
          6    1    1    2  501    0  0.93997856222E+02 -0.15628164448E+03  0.54202794860E+02  0.25715071913E+03  0.17300000000E+03 0.  1.
         -6    1    1    2    0  502 -0.93997856222E+02  0.15628164448E+03  0.10320067259E+04  0.10621800374E+04  0.17300000000E+03 0. -1.
<mgrwt>
<rscale>  2 0.25137333E+03</rscale>
<asrwt>0</asrwt>
<pdfrwt beam="1">  1       21 0.18504155E+00 0.25137333E+03</pdfrwt>
<pdfrwt beam="2">  1       21 0.17932404E-01 0.25137333E+03</pdfrwt>
<totfact> 0.45351551E+03</totfact>
</mgrwt>
</event>
<event>
 4    1  0.4336176E+000  0.2207996E+03  0.7546771E-02  0.1133288E+00
         21   -1    0    0  501  502  0.00000000000E+00  0.00000000000E+00  0.77297906441E+02  0.77297906441E+02  0.00000000000E+00 0.  1.
         21   -1    0    0  502  503 -0.00000000000E+00 -0.00000000000E+00 -0.70262703384E+03  0.70262703384E+03  0.00000000000E+00 0.  1.
          6    1    1    2  501    0  0.13574900542E+03  0.19891202583E+02 -0.18790306834E+03  0.28993105302E+03  0.17300000000E+03 0.  1.
         -6    1    1    2    0  503 -0.13574900542E+03 -0.19891202583E+02 -0.43742605906E+03  0.48999388726E+03  0.17300000000E+03 0.  1.
<mgrwt>
<rscale>  2 0.22079958E+03</rscale>
<asrwt>0</asrwt>
<pdfrwt beam="1">  1       21 0.11891986E-01 0.22079958E+03</pdfrwt>
<pdfrwt beam="2">  1       21 0.10809646E+00 0.22079958E+03</pdfrwt>
<totfact> 0.40027707E+04</totfact>
</mgrwt>
</event>
<event>
 4    1  0.4336176E+000  0.2429142E+03  0.7546771E-02  0.1117867E+00
         21   -1    0    0  501  502  0.00000000000E+00  0.00000000000E+00  0.51594918942E+03  0.51594918942E+03  0.00000000000E+00 0. -1.
         21   -1    0    0  502  503 -0.00000000000E+00 -0.00000000000E+00 -0.12984213572E+03  0.12984213572E+03  0.00000000000E+00 0. -1.
          6    1    1    2  501    0 -0.77912941132E+02  0.15168356529E+03  0.30452863180E+03  0.38954462898E+03  0.17300000000E+03 0. -1.
         -6    1    1    2    0  503  0.77912941132E+02 -0.15168356529E+03  0.81578421903E+02  0.25624669616E+03  0.17300000000E+03 0. -1.
<mgrwt>
<rscale>  2 0.24291424E+03</rscale>
<asrwt>0</asrwt>
<pdfrwt beam="1">  1       21 0.79376797E-01 0.24291424E+03</pdfrwt>
<pdfrwt beam="2">  1       21 0.19975713E-01 0.24291424E+03</pdfrwt>
<totfact> 0.31564704E+04</totfact>
</mgrwt>
</event>
<event>
 4    1  0.4336176E+000  0.1810376E+03  0.7546771E-02  0.1166803E+00
         21   -1    0    0  501  502  0.00000000000E+00  0.00000000000E+00  0.69239430800E+03  0.69239430800E+03  0.00000000000E+00 0. -1.
         21   -1    0    0  502  503 -0.00000000000E+00 -0.00000000000E+00 -0.12049820389E+03  0.12049820389E+03  0.00000000000E+00 0. -1.
          6    1    1    2  501    0 -0.42284712418E+02 -0.32520936661E+02  0.60265578551E+03  0.62926036268E+03  0.17300000000E+03 0. -1.
         -6    1    1    2    0  503  0.42284712418E+02  0.32520936661E+02 -0.30759681403E+02  0.18363214922E+03  0.17300000000E+03 0. -1.
<mgrwt>
<rscale>  2 0.18103759E+03</rscale>
<asrwt>0</asrwt>
<pdfrwt beam="1">  1       21 0.10652220E+00 0.18103759E+03</pdfrwt>
<pdfrwt beam="2">  1       21 0.18538186E-01 0.18103759E+03</pdfrwt>
<totfact> 0.18901107E+04</totfact>
</mgrwt>
</event>
<event>
 4    1  0.4336176E+000  0.1969271E+03  0.7546771E-02  0.1152358E+00
         21   -1    0    0  503  502  0.00000000000E+00  0.00000000000E+00  0.13487337698E+03  0.13487337698E+03  0.00000000000E+00 0.  1.
         21   -1    0    0  501  503 -0.00000000000E+00 -0.00000000000E+00 -0.34616838102E+03  0.34616838102E+03  0.00000000000E+00 0.  1.
          6    1    1    2  501    0 -0.90764761405E+02 -0.24759838851E+02 -0.20463856004E+03  0.28400216863E+03  0.17300000000E+03 0.  1.
         -6    1    1    2    0  502  0.90764761405E+02  0.24759838851E+02 -0.66564439951E+01  0.19703958937E+03  0.17300000000E+03 0.  1.
<mgrwt>
<rscale>  2 0.19692712E+03</rscale>
<asrwt>0</asrwt>
<pdfrwt beam="1">  1       21 0.20749750E-01 0.19692712E+03</pdfrwt>
<pdfrwt beam="2">  1       21 0.53256674E-01 0.19692712E+03</pdfrwt>
<totfact> 0.71801039E+04</totfact>
</mgrwt>
</event>
<event>
 4    1  0.4336176E+000  0.1952119E+03  0.7546771E-02  0.1153843E+00
         21   -1    0    0  503  502  0.00000000000E+00  0.00000000000E+00  0.41395599889E+02  0.41395599889E+02  0.00000000000E+00 0.  1.
         21   -1    0    0  501  503 -0.00000000000E+00 -0.00000000000E+00 -0.13398806205E+04  0.13398806205E+04  0.00000000000E+00 0.  1.
          6    1    1    2  501    0  0.68244183494E+02 -0.59341443189E+02 -0.10355950894E+04  0.10538334141E+04  0.17300000000E+03 0.  1.
         -6    1    1    2    0  502 -0.68244183494E+02  0.59341443189E+02 -0.26288993117E+03  0.32744280626E+03  0.17300000000E+03 0.  1.
<mgrwt>
<rscale>  2 0.19521187E+03</rscale>
<asrwt>0</asrwt>
<pdfrwt beam="1">  1       21 0.63685543E-02 0.19521187E+03</pdfrwt>
<pdfrwt beam="2">  1       21 0.20613546E+00 0.19521187E+03</pdfrwt>
<totfact> 0.21803571E+04</totfact>
</mgrwt>
</event>
<event>
 4    1  0.4336176E+000  0.1960841E+03  0.7546771E-02  0.1153086E+00
         21   -1    0    0  501  502  0.00000000000E+00  0.00000000000E+00  0.31259992828E+03  0.31259992828E+03  0.00000000000E+00 0. -1.
         21   -1    0    0  502  503 -0.00000000000E+00 -0.00000000000E+00 -0.78901208258E+03  0.78901208258E+03  0.00000000000E+00 0. -1.
          6    1    1    2  501    0 -0.69767001722E+02 -0.60436367183E+02  0.26785010007E+03  0.33195280556E+03  0.17300000000E+03 0. -1.
         -6    1    1    2    0  503  0.69767001722E+02  0.60436367183E+02 -0.74426225438E+03  0.76965920530E+03  0.17300000000E+03 0. -1.
<mgrwt>
<rscale>  2 0.19608414E+03</rscale>
<asrwt>0</asrwt>
<pdfrwt beam="1">  1       21 0.48092296E-01 0.19608414E+03</pdfrwt>
<pdfrwt beam="2">  1       21 0.12138647E+00 0.19608414E+03</pdfrwt>
<totfact> 0.21137920E+03</totfact>
</mgrwt>
</event>
<event>
 4    1  0.4336176E+000  0.1916851E+03  0.7546771E-02  0.1156950E+00
         21   -1    0    0  501  502  0.00000000000E+00  0.00000000000E+00  0.28654824792E+02  0.28654824792E+02  0.00000000000E+00 0. -1.
         21   -1    0    0  502  503 -0.00000000000E+00 -0.00000000000E+00 -0.15872341646E+04  0.15872341646E+04  0.00000000000E+00 0. -1.
          6    1    1    2  501    0  0.60401874722E+02  0.56265195197E+02 -0.42513986412E+03  0.46635508223E+03  0.17300000000E+03 0. -1.
         -6    1    1    2    0  503 -0.60401874722E+02 -0.56265195197E+02 -0.11334394757E+04  0.11495339071E+04  0.17300000000E+03 0. -1.
<mgrwt>
<rscale>  2 0.19168505E+03</rscale>
<asrwt>0</asrwt>
<pdfrwt beam="1">  1       21 0.44084346E-02 0.19168505E+03</pdfrwt>
<pdfrwt beam="2">  1       21 0.24418987E+00 0.19168505E+03</pdfrwt>
<totfact> 0.23964001E+04</totfact>
</mgrwt>
</event>
<event>
 4    1  0.4336176E+000  0.1861905E+03  0.7546771E-02  0.1161943E+00
         21   -1    0    0  503  502  0.00000000000E+00  0.00000000000E+00  0.21138155766E+03  0.21138155766E+03  0.00000000000E+00 0.  1.
         21   -1    0    0  501  503 -0.00000000000E+00 -0.00000000000E+00 -0.21809024077E+03  0.21809024077E+03  0.00000000000E+00 0. -1.
          6    1    1    2  501    0  0.22152597649E+02  0.65170389736E+02 -0.11029417528E+03  0.21640638249E+03  0.17300000000E+03 0. -1.
         -6    1    1    2    0  502 -0.22152597649E+02 -0.65170389736E+02  0.10358549217E+03  0.21306541594E+03  0.17300000000E+03 0.  1.
<mgrwt>
<rscale>  2 0.18619054E+03</rscale>
<asrwt>0</asrwt>
<pdfrwt beam="1">  1       21 0.32520240E-01 0.18619054E+03</pdfrwt>
<pdfrwt beam="2">  1       21 0.33552345E-01 0.18619054E+03</pdfrwt>
<totfact> 0.78056269E+04</totfact>
</mgrwt>
</event>
<event>
 4    1  0.4336176E+000  0.2611234E+03  0.7546771E-02  0.1106470E+00
         21   -1    0    0  503  502  0.00000000000E+00  0.00000000000E+00  0.47457304760E+03  0.47457304760E+03  0.00000000000E+00 0.  1.
         21   -1    0    0  501  503 -0.00000000000E+00 -0.00000000000E+00 -0.16023431468E+03  0.16023431468E+03  0.00000000000E+00 0. -1.
          6    1    1    2  501    0  0.16627259737E+03 -0.10300410600E+03  0.25919842428E+03  0.36792559796E+03  0.17300000000E+03 0.  1.
         -6    1    1    2    0  502 -0.16627259737E+03  0.10300410600E+03  0.55140308648E+02  0.26688176432E+03  0.17300000000E+03 0. -1.
<mgrwt>
<rscale>  2 0.26112339E+03</rscale>
<asrwt>0</asrwt>
<pdfrwt beam="1">  1       21 0.73011237E-01 0.26112339E+03</pdfrwt>
<pdfrwt beam="2">  1       21 0.24651433E-01 0.26112339E+03</pdfrwt>
<totfact> 0.25356676E+04</totfact>
</mgrwt>
</event>
<event>
 4    1  0.4336176E+000  0.2218235E+03  0.7546771E-02  0.1132531E+00
         21   -1    0    0  503  502  0.00000000000E+00  0.00000000000E+00  0.27682261931E+02  0.27682261931E+02  0.00000000000E+00 0. -1.
         21   -1    0    0  501  503 -0.00000000000E+00 -0.00000000000E+00 -0.26139642607E+04  0.26139642607E+04  0.00000000000E+00 0. -1.
          6    1    1    2  501    0 -0.13641416816E+03  0.25842763049E+02 -0.54597976343E+03  0.58932128398E+03  0.17300000000E+03 0. -1.
         -6    1    1    2    0  502  0.13641416816E+03 -0.25842763049E+02 -0.20403022353E+04  0.20523252386E+04  0.17300000000E+03 0. -1.
<mgrwt>
<rscale>  2 0.22182352E+03</rscale>
<asrwt>0</asrwt>
<pdfrwt beam="1">  1       21 0.42588085E-02 0.22182352E+03</pdfrwt>
<pdfrwt beam="2">  1       21 0.40214844E+00 0.22182352E+03</pdfrwt>
<totfact> 0.28657314E+03</totfact>
</mgrwt>
</event>
<event>
 4    1  0.4336176E+000  0.1799310E+03  0.7546771E-02  0.1167870E+00
         21   -1    0    0  503  502  0.00000000000E+00  0.00000000000E+00  0.22613648159E+03  0.22613648159E+03  0.00000000000E+00 0.  1.
         21   -1    0    0  501  503 -0.00000000000E+00 -0.00000000000E+00 -0.14327001136E+03  0.14327001136E+03  0.00000000000E+00 0.  1.
          6    1    1    2  501    0 -0.46356480599E+02 -0.17241088382E+02  0.36469602066E+02  0.18358978811E+03  0.17300000000E+03 0.  1.
         -6    1    1    2    0  502  0.46356480599E+02  0.17241088382E+02  0.46396868165E+02  0.18581670484E+03  0.17300000000E+03 0.  1.
<mgrwt>
<rscale>  2 0.17993104E+03</rscale>
<asrwt>0</asrwt>
<pdfrwt beam="1">  1       21 0.34790228E-01 0.17993104E+03</pdfrwt>
<pdfrwt beam="2">  1       21 0.22041540E-01 0.17993104E+03</pdfrwt>
<totfact> 0.15380145E+05</totfact>
</mgrwt>
</event>
<event>
 4    1  0.4336176E+000  0.2151476E+03  0.7546771E-02  0.1137553E+00
         21   -1    0    0  503  502  0.00000000000E+00  0.00000000000E+00  0.23669666268E+03  0.23669666268E+03  0.00000000000E+00 0. -1.
         21   -1    0    0  501  503 -0.00000000000E+00 -0.00000000000E+00 -0.31835790390E+03  0.31835790390E+03  0.00000000000E+00 0.  1.
          6    1    1    2  501    0  0.79334573910E+01  0.12765786295E+03 -0.21319313357E+03  0.30288575721E+03  0.17300000000E+03 0.  1.
         -6    1    1    2    0  502 -0.79334573910E+01 -0.12765786295E+03  0.13153189234E+03  0.25216880937E+03  0.17300000000E+03 0. -1.
<mgrwt>
<rscale>  2 0.21514755E+03</rscale>
<asrwt>0</asrwt>
<pdfrwt beam="1">  1       21 0.36414871E-01 0.21514755E+03</pdfrwt>
<pdfrwt beam="2">  1       21 0.48978139E-01 0.21514755E+03</pdfrwt>
<totfact> 0.28576696E+04</totfact>
</mgrwt>
</event>
<event>
 4    1  0.4336176E+000  0.2514313E+03  0.7546771E-02  0.1112404E+00
         21   -1    0    0  503  502  0.00000000000E+00  0.00000000000E+00  0.20224827750E+04  0.20224827750E+04  0.00000000000E+00 0.  1.
         21   -1    0    0  501  503 -0.00000000000E+00 -0.00000000000E+00 -0.39480663191E+02  0.39480663191E+02  0.00000000000E+00 0. -1.
          6    1    1    2  501    0  0.15705176083E+03  0.92862392411E+02  0.52097986273E+03  0.57847877825E+03  0.17300000000E+03 0. -1.
         -6    1    1    2    0  502 -0.15705176083E+03 -0.92862392411E+02  0.14620222491E+04  0.14834846600E+04  0.17300000000E+03 0. -1.
<mgrwt>
<rscale>  2 0.25143126E+03</rscale>
<asrwt>0</asrwt>
<pdfrwt beam="1">  1       21 0.31115112E+00 0.25143126E+03</pdfrwt>
<pdfrwt beam="2">  1       21 0.60739498E-02 0.25143126E+03</pdfrwt>
<totfact> 0.53495814E+03</totfact>
</mgrwt>
</event>
<event>
 4    1  0.4336176E+000  0.1861101E+03  0.7546771E-02  0.1162017E+00
         21   -1    0    0  503  502  0.00000000000E+00  0.00000000000E+00  0.32378807724E+03  0.32378807724E+03  0.00000000000E+00 0.  1.
         21   -1    0    0  501  503 -0.00000000000E+00 -0.00000000000E+00 -0.41069230660E+03  0.41069230660E+03  0.00000000000E+00 0.  1.
          6    1    1    2  501    0 -0.15036304310E+02  0.66946840288E+02 -0.35926312378E+03  0.40460716996E+03  0.17300000000E+03 0.  1.
         -6    1    1    2    0  502  0.15036304310E+02 -0.66946840288E+02  0.27235889442E+03  0.32987321389E+03  0.17300000000E+03 0.  1.
<mgrwt>
<rscale>  2 0.18611010E+03</rscale>
<asrwt>0</asrwt>
<pdfrwt beam="1">  1       21 0.49813550E-01 0.18611010E+03</pdfrwt>
<pdfrwt beam="2">  1       21 0.63183432E-01 0.18611010E+03</pdfrwt>
<totfact> 0.89420306E+03</totfact>
</mgrwt>
</event>
<event>
 4    1  0.4336176E+000  0.2662277E+03  0.7546771E-02  0.1103458E+00
         21   -1    0    0  503  502  0.00000000000E+00  0.00000000000E+00  0.10366359168E+04  0.10366359168E+04  0.00000000000E+00 0.  1.
         21   -1    0    0  501  503 -0.00000000000E+00 -0.00000000000E+00 -0.69155411181E+02  0.69155411181E+02  0.00000000000E+00 0.  1.
          6    1    1    2  501    0 -0.74797158250E+01 -0.20221826571E+03  0.54257639046E+03  0.60437266038E+03  0.17300000000E+03 0.  1.
         -6    1    1    2    0  502  0.74797158250E+01  0.20221826571E+03  0.42490411514E+03  0.50141866758E+03  0.17300000000E+03 0.  1.
<mgrwt>
<rscale>  2 0.26622767E+03</rscale>
<asrwt>0</asrwt>
<pdfrwt beam="1">  1       21 0.15948244E+00 0.26622767E+03</pdfrwt>
<pdfrwt beam="2">  1       21 0.10639295E-01 0.26622767E+03</pdfrwt>
<totfact> 0.17645320E+04</totfact>
</mgrwt>
</event>
<event>
 4    1  0.4336176E+000  0.1860197E+03  0.7546771E-02  0.1162101E+00
         21   -1    0    0  503  502  0.00000000000E+00  0.00000000000E+00  0.55457203363E+02  0.55457203363E+02  0.00000000000E+00 0.  1.
         21   -1    0    0  501  503 -0.00000000000E+00 -0.00000000000E+00 -0.90987628198E+03  0.90987628198E+03  0.00000000000E+00 0.  1.
          6    1    1    2  501    0  0.33640458861E+02 -0.59520057158E+02 -0.69777499399E+03  0.72214490229E+03  0.17300000000E+03 0.  1.
         -6    1    1    2    0  502 -0.33640458861E+02  0.59520057158E+02 -0.15664408464E+03  0.24318858305E+03  0.17300000000E+03 0.  1.
<mgrwt>
<rscale>  2 0.18601967E+03</rscale>
<asrwt>0</asrwt>
<pdfrwt beam="1">  1       21 0.85318771E-02 0.18601967E+03</pdfrwt>
<pdfrwt beam="2">  1       21 0.13998097E+00 0.18601967E+03</pdfrwt>
<totfact> 0.38540252E+04</totfact>
</mgrwt>
</event>
<event>
 4    1  0.4336176E+000  0.1814473E+03  0.7546771E-02  0.1166410E+00
         21   -1    0    0  501  502  0.00000000000E+00  0.00000000000E+00  0.45038339547E+03  0.45038339547E+03  0.00000000000E+00 0.  1.
         21   -1    0    0  502  503 -0.00000000000E+00 -0.00000000000E+00 -0.73422005142E+02  0.73422005142E+02  0.00000000000E+00 0.  1.
          6    1    1    2  501    0  0.18475445288E+02  0.51505092282E+02  0.20581964776E+03  0.27438083755E+03  0.17300000000E+03 0.  1.
         -6    1    1    2    0  503 -0.18475445288E+02 -0.51505092282E+02  0.17114174256E+03  0.24942456306E+03  0.17300000000E+03 0.  1.
<mgrwt>
<rscale>  2 0.18144728E+03</rscale>
<asrwt>0</asrwt>
<pdfrwt beam="1">  1       21 0.69289751E-01 0.18144728E+03</pdfrwt>
<pdfrwt beam="2">  1       21 0.11295693E-01 0.18144728E+03</pdfrwt>
<totfact> 0.12438132E+05</totfact>
</mgrwt>
</event>
<event>
 4    1  0.4336176E+000  0.1815122E+03  0.7546771E-02  0.1166348E+00
         21   -1    0    0  501  502  0.00000000000E+00  0.00000000000E+00  0.15815899388E+04  0.15815899388E+04  0.00000000000E+00 0.  1.
         21   -1    0    0  502  503 -0.00000000000E+00 -0.00000000000E+00 -0.23849774063E+02  0.23849774063E+02  0.00000000000E+00 0.  1.
          6    1    1    2  501    0  0.17355658701E+02 -0.52119545389E+02  0.10644393303E+04  0.10798044979E+04  0.17300000000E+03 0.  1.
         -6    1    1    2    0  503 -0.17355658701E+02  0.52119545389E+02  0.49330083441E+03  0.52563521488E+03  0.17300000000E+03 0.  1.
<mgrwt>
<rscale>  2 0.18151216E+03</rscale>
<asrwt>0</asrwt>
<pdfrwt beam="1">  1       21 0.24332145E+00 0.18151216E+03</pdfrwt>
<pdfrwt beam="2">  1       21 0.36691973E-02 0.18151216E+03</pdfrwt>
<totfact> 0.33263284E+04</totfact>
</mgrwt>
</event>
<event>
 4    1  0.4336176E+000  0.1844333E+03  0.7546771E-02  0.1163580E+00
         21   -1    0    0  501  502  0.00000000000E+00  0.00000000000E+00  0.21426177713E+03  0.21426177713E+03  0.00000000000E+00 0.  1.
         21   -1    0    0  502  503 -0.00000000000E+00 -0.00000000000E+00 -0.16169585497E+03  0.16169585497E+03  0.00000000000E+00 0.  1.
          6    1    1    2  501    0  0.98151216369E+01 -0.63168995577E+02  0.51623362030E+02  0.19152187896E+03  0.17300000000E+03 0.  1.
         -6    1    1    2    0  503 -0.98151216369E+01  0.63168995577E+02  0.94256012930E+00  0.18443575314E+03  0.17300000000E+03 0.  1.
<mgrwt>
<rscale>  2 0.18443334E+03</rscale>
<asrwt>0</asrwt>
<pdfrwt beam="1">  1       21 0.32963350E-01 0.18443334E+03</pdfrwt>
<pdfrwt beam="2">  1       21 0.24876285E-01 0.18443334E+03</pdfrwt>
<totfact> 0.13584775E+05</totfact>
</mgrwt>
</event>
<event>
 4    1  0.4336176E+000  0.3232468E+03  0.7546771E-02  0.1074165E+00
         21   -1    0    0  503  502  0.00000000000E+00  0.00000000000E+00  0.63347525697E+03  0.63347525697E+03  0.00000000000E+00 0. -1.
         21   -1    0    0  501  503 -0.00000000000E+00 -0.00000000000E+00 -0.37771753091E+03  0.37771753091E+03  0.00000000000E+00 0.  1.
          6    1    1    2  501    0 -0.22948133307E+03  0.14797902922E+03 -0.25159191620E+03  0.40961807530E+03  0.17300000000E+03 0.  1.
         -6    1    1    2    0  502  0.22948133307E+03 -0.14797902922E+03  0.50734964225E+03  0.60157471258E+03  0.17300000000E+03 0. -1.
<mgrwt>
<rscale>  2 0.32324677E+03</rscale>
<asrwt>0</asrwt>
<pdfrwt beam="1">  1       21 0.97457732E-01 0.32324677E+03</pdfrwt>
<pdfrwt beam="2">  1       21 0.58110389E-01 0.32324677E+03</pdfrwt>
<totfact> 0.22116988E+03</totfact>
</mgrwt>
</event>
<event>
 4    1  0.4336176E+000  0.2037809E+03  0.7546771E-02  0.1146588E+00
         21   -1    0    0  503  502  0.00000000000E+00  0.00000000000E+00  0.40561198589E+02  0.40561198589E+02  0.00000000000E+00 0. -1.
         21   -1    0    0  501  503 -0.00000000000E+00 -0.00000000000E+00 -0.17099599173E+04  0.17099599173E+04  0.00000000000E+00 0.  1.
          6    1    1    2  501    0  0.10284825154E+03 -0.31935961052E+02 -0.13891414355E+04  0.14040087594E+04  0.17300000000E+03 0.  1.
         -6    1    1    2    0  502 -0.10284825154E+03  0.31935961052E+02 -0.28025728320E+03  0.34651235655E+03  0.17300000000E+03 0. -1.
<mgrwt>
<rscale>  2 0.20378093E+03</rscale>
<asrwt>0</asrwt>
<pdfrwt beam="1">  1       21 0.62401859E-02 0.20378093E+03</pdfrwt>
<pdfrwt beam="2">  1       21 0.26307069E+00 0.20378093E+03</pdfrwt>
<totfact> 0.10170522E+04</totfact>
</mgrwt>
</event>
<event>
 4    1  0.4336176E+000  0.2005721E+03  0.7546771E-02  0.1149257E+00
         21   -1    0    0  503  502  0.00000000000E+00  0.00000000000E+00  0.42279869465E+03  0.42279869465E+03  0.00000000000E+00 0. -1.
         21   -1    0    0  501  503 -0.00000000000E+00 -0.00000000000E+00 -0.96924193987E+02  0.96924193987E+02  0.00000000000E+00 0. -1.
          6    1    1    2  501    0  0.36676926205E+02  0.94630632971E+02  0.12777574530E+03  0.23781462255E+03  0.17300000000E+03 0. -1.
         -6    1    1    2    0  502 -0.36676926205E+02 -0.94630632971E+02  0.19809875536E+03  0.28190826609E+03  0.17300000000E+03 0. -1.
<mgrwt>
<rscale>  2 0.20057207E+03</rscale>
<asrwt>0</asrwt>
<pdfrwt beam="1">  1       21 0.65045952E-01 0.20057207E+03</pdfrwt>
<pdfrwt beam="2">  1       21 0.14911415E-01 0.20057207E+03</pdfrwt>
<totfact> 0.85999388E+04</totfact>
</mgrwt>
</event>
<event>
 4    1  0.4336176E+000  0.2070554E+03  0.7546771E-02  0.1143919E+00
         21   -1    0    0  503  502  0.00000000000E+00  0.00000000000E+00  0.70366119625E+02  0.70366119625E+02  0.00000000000E+00 0. -1.
         21   -1    0    0  501  503 -0.00000000000E+00 -0.00000000000E+00 -0.77239104361E+03  0.77239104361E+03  0.00000000000E+00 0. -1.
          6    1    1    2  501    0 -0.11162746668E+03 -0.21960144217E+02 -0.54465882223E+03  0.58268788548E+03  0.17300000000E+03 0. -1.
         -6    1    1    2    0  502  0.11162746668E+03  0.21960144217E+02 -0.15736610176E+03  0.26006927776E+03  0.17300000000E+03 0. -1.
<mgrwt>
<rscale>  2 0.20705540E+03</rscale>
<asrwt>0</asrwt>
<pdfrwt beam="1">  1       21 0.10825557E-01 0.20705540E+03</pdfrwt>
<pdfrwt beam="2">  1       21 0.11882939E+00 0.20705540E+03</pdfrwt>
<totfact> 0.37844706E+04</totfact>
</mgrwt>
</event>
<event>
 4    1  0.4336176E+000  0.1980822E+03  0.7546771E-02  0.1151367E+00
         21   -1    0    0  501  502  0.00000000000E+00  0.00000000000E+00  0.19612709344E+03  0.19612709344E+03  0.00000000000E+00 0. -1.
         21   -1    0    0  502  503 -0.00000000000E+00 -0.00000000000E+00 -0.29577632306E+03  0.29577632306E+03  0.00000000000E+00 0. -1.
          6    1    1    2  501    0 -0.44937246223E+02  0.85370978498E+02  0.90091709588E+02  0.21760761982E+03  0.17300000000E+03 0. -1.
         -6    1    1    2    0  503  0.44937246223E+02 -0.85370978498E+02 -0.18974093920E+03  0.27429579668E+03  0.17300000000E+03 0. -1.
<mgrwt>
<rscale>  2 0.19808221E+03</rscale>
<asrwt>0</asrwt>
<pdfrwt beam="1">  1       21 0.30173399E-01 0.19808221E+03</pdfrwt>
<pdfrwt beam="2">  1       21 0.45504050E-01 0.19808221E+03</pdfrwt>
<totfact> 0.48672134E+04</totfact>
</mgrwt>
</event>
<event>
 4    1  0.4336176E+000  0.2282291E+03  0.7546771E-02  0.1127892E+00
         21   -1    0    0  503  502  0.00000000000E+00  0.00000000000E+00  0.10743878144E+04  0.10743878144E+04  0.00000000000E+00 0. -1.
         21   -1    0    0  501  503 -0.00000000000E+00 -0.00000000000E+00 -0.50675266676E+02  0.50675266676E+02  0.00000000000E+00 0.  1.
          6    1    1    2  501    0  0.95367098112E+02 -0.11430055183E+03  0.39482771557E+03  0.45604541937E+03  0.17300000000E+03 0.  1.
         -6    1    1    2    0  502 -0.95367098112E+02  0.11430055183E+03  0.62888483212E+03  0.66901766167E+03  0.17300000000E+03 0. -1.
<mgrwt>
<rscale>  2 0.22822905E+03</rscale>
<asrwt>0</asrwt>
<pdfrwt beam="1">  1       21 0.16529042E+00 0.22822905E+03</pdfrwt>
<pdfrwt beam="2">  1       21 0.77961957E-02 0.22822905E+03</pdfrwt>
<totfact> 0.28285791E+04</totfact>
</mgrwt>
</event>
<event>
 4    1  0.4336176E+000  0.1839297E+03  0.7546771E-02  0.1164053E+00
         21   -1    0    0  501  502  0.00000000000E+00  0.00000000000E+00  0.84260123265E+02  0.84260123265E+02  0.00000000000E+00 0. -1.
         21   -1    0    0  502  503 -0.00000000000E+00 -0.00000000000E+00 -0.40313330242E+03  0.40313330242E+03  0.00000000000E+00 0.  1.
          6    1    1    2  501    0  0.62427122191E+02 -0.19955132667E+01 -0.14390735310E+03  0.23353683635E+03  0.17300000000E+03 0.  1.
         -6    1    1    2    0  503 -0.62427122191E+02  0.19955132667E+01 -0.17496582605E+03  0.25385658933E+03  0.17300000000E+03 0.  1.
<mgrwt>
<rscale>  2 0.18392968E+03</rscale>
<asrwt>0</asrwt>
<pdfrwt beam="1">  1       21 0.12963096E-01 0.18392968E+03</pdfrwt>
<pdfrwt beam="2">  1       21 0.62020507E-01 0.18392968E+03</pdfrwt>
<totfact> 0.12365863E+05</totfact>
</mgrwt>
</event>
<event>
 4    1  0.4336176E+000  0.2070741E+03  0.7546771E-02  0.1143904E+00
         21   -1    0    0  503  502  0.00000000000E+00  0.00000000000E+00  0.11414973150E+04  0.11414973150E+04  0.00000000000E+00 0. -1.
         21   -1    0    0  501  503 -0.00000000000E+00 -0.00000000000E+00 -0.43000503554E+02  0.43000503554E+02  0.00000000000E+00 0. -1.
          6    1    1    2  501    0 -0.94881286196E+02  0.62834882911E+02  0.33867152598E+03  0.39696106042E+03  0.17300000000E+03 0.  1.
         -6    1    1    2    0  502  0.94881286196E+02 -0.62834882911E+02  0.75982528551E+03  0.78753675818E+03  0.17300000000E+03 0.  1.
<mgrwt>
<rscale>  2 0.20707410E+03</rscale>
<asrwt>0</asrwt>
<pdfrwt beam="1">  1       21 0.17561495E+00 0.20707410E+03</pdfrwt>
<pdfrwt beam="2">  1       21 0.66154630E-02 0.20707410E+03</pdfrwt>
<totfact> 0.32210819E+04</totfact>
</mgrwt>
</event>
<event>
 4    1  0.4336176E+000  0.1766832E+03  0.7546771E-02  0.1171052E+00
         21   -1    0    0  503  502  0.00000000000E+00  0.00000000000E+00  0.11227820672E+04  0.11227820672E+04  0.00000000000E+00 0.  1.
         21   -1    0    0  501  503 -0.00000000000E+00 -0.00000000000E+00 -0.47145779729E+02  0.47145779729E+02  0.00000000000E+00 0.  1.
          6    1    1    2  501    0  0.31740948872E+02 -0.16747443575E+02  0.16313464600E+03  0.24047843443E+03  0.17300000000E+03 0.  1.
         -6    1    1    2    0  502 -0.31740948872E+02  0.16747443575E+02  0.91250164151E+03  0.92944941254E+03  0.17300000000E+03 0.  1.
<mgrwt>
<rscale>  2 0.17668323E+03</rscale>
<asrwt>0</asrwt>
<pdfrwt beam="1">  1       21 0.17273568E+00 0.17668323E+03</pdfrwt>
<pdfrwt beam="2">  1       21 0.72531978E-02 0.17668323E+03</pdfrwt>
<totfact> 0.29359915E+04</totfact>
</mgrwt>
</event>
<event>
 4    1  0.4336176E+000  0.2673060E+03  0.7546771E-02  0.1102831E+00
         21   -1    0    0  501  502  0.00000000000E+00  0.00000000000E+00  0.51733553356E+03  0.51733553356E+03  0.00000000000E+00 0. -1.
         21   -1    0    0  502  503 -0.00000000000E+00 -0.00000000000E+00 -0.46898468489E+03  0.46898468489E+03  0.00000000000E+00 0.  1.
          6    1    1    2  501    0 -0.67696130952E+02  0.19219972920E+03  0.43840032696E+03  0.51346601517E+03  0.17300000000E+03 0. -1.
         -6    1    1    2    0  503  0.67696130952E+02 -0.19219972920E+03 -0.39004947829E+03  0.47285420329E+03  0.17300000000E+03 0.  1.
<mgrwt>
<rscale>  2 0.26730601E+03</rscale>
<asrwt>0</asrwt>
<pdfrwt beam="1">  1       21 0.79590082E-01 0.26730601E+03</pdfrwt>
<pdfrwt beam="2">  1       21 0.72151490E-01 0.26730601E+03</pdfrwt>
<totfact> 0.22773207E+03</totfact>
</mgrwt>
</event>
<event>
 4    1  0.4336176E+000  0.1758635E+03  0.7546771E-02  0.1171868E+00
         21   -1    0    0  503  502  0.00000000000E+00  0.00000000000E+00  0.22848381227E+03  0.22848381227E+03  0.00000000000E+00 0.  1.
         21   -1    0    0  501  503 -0.00000000000E+00 -0.00000000000E+00 -0.18664501749E+03  0.18664501749E+03  0.00000000000E+00 0.  1.
          6    1    1    2  501    0 -0.21089457661E+02 -0.23541397071E+02 -0.87881544688E+02  0.19659890258E+03  0.17300000000E+03 0.  1.
         -6    1    1    2    0  502  0.21089457661E+02  0.23541397071E+02  0.12972033947E+03  0.21852992718E+03  0.17300000000E+03 0.  1.
<mgrwt>
<rscale>  2 0.17586348E+03</rscale>
<asrwt>0</asrwt>
<pdfrwt beam="1">  1       21 0.35151356E-01 0.17586348E+03</pdfrwt>
<pdfrwt beam="2">  1       21 0.28714618E-01 0.17586348E+03</pdfrwt>
<totfact> 0.91127424E+04</totfact>
</mgrwt>
</event>
<event>
 4    1  0.4336176E+000  0.1903565E+03  0.7546771E-02  0.1158140E+00
         21   -1    0    0  501  502  0.00000000000E+00  0.00000000000E+00  0.67476929314E+03  0.67476929314E+03  0.00000000000E+00 0.  1.
         21   -1    0    0  502  503 -0.00000000000E+00 -0.00000000000E+00 -0.75106456952E+02  0.75106456952E+02  0.00000000000E+00 0.  1.
          6    1    1    2  501    0  0.52922059784E+02 -0.59210301556E+02  0.49999527363E+03  0.53500549331E+03  0.17300000000E+03 0.  1.
         -6    1    1    2    0  503 -0.52922059784E+02  0.59210301556E+02  0.99667562559E+02  0.21487025678E+03  0.17300000000E+03 0.  1.
<mgrwt>
<rscale>  2 0.19035652E+03</rscale>
<asrwt>0</asrwt>
<pdfrwt beam="1">  1       21 0.10381066E+00 0.19035652E+03</pdfrwt>
<pdfrwt beam="2">  1       21 0.11554840E-01 0.19035652E+03</pdfrwt>
<totfact> 0.47196085E+04</totfact>
</mgrwt>
</event>
<event>
 4    1  0.4336176E+000  0.1783316E+03  0.7546771E-02  0.1169428E+00
         21   -1    0    0  503  502  0.00000000000E+00  0.00000000000E+00  0.56600141882E+02  0.56600141882E+02  0.00000000000E+00 0.  1.
         21   -1    0    0  501  503 -0.00000000000E+00 -0.00000000000E+00 -0.13285655704E+04  0.13285655704E+04  0.00000000000E+00 0.  1.
          6    1    1    2  501    0 -0.31935282428E+02 -0.29210991385E+02 -0.11621097311E+04  0.11757130481E+04  0.17300000000E+03 0.  1.
         -6    1    1    2    0  502  0.31935282428E+02  0.29210991385E+02 -0.10985569737E+03  0.20945266417E+03  0.17300000000E+03 0.  1.
<mgrwt>
<rscale>  2 0.17833156E+03</rscale>
<asrwt>0</asrwt>
<pdfrwt beam="1">  1       21 0.87077148E-02 0.17833156E+03</pdfrwt>
<pdfrwt beam="2">  1       21 0.20439469E+00 0.17833156E+03</pdfrwt>
<totfact> 0.13184876E+04</totfact>
</mgrwt>
</event>
<event>
 4    1  0.4336176E+000  0.1878413E+03  0.7546771E-02  0.1160423E+00
         21   -1    0    0  503  502  0.00000000000E+00  0.00000000000E+00  0.77714242658E+03  0.77714242658E+03  0.00000000000E+00 0. -1.
         21   -1    0    0  501  503 -0.00000000000E+00 -0.00000000000E+00 -0.61779037458E+02  0.61779037458E+02  0.00000000000E+00 0. -1.
          6    1    1    2  501    0  0.62313746016E+02  0.38371236229E+02  0.14171872162E+03  0.23530522895E+03  0.17300000000E+03 0. -1.
         -6    1    1    2    0  502 -0.62313746016E+02 -0.38371236229E+02  0.57364466750E+03  0.60361623509E+03  0.17300000000E+03 0. -1.
<mgrwt>
<rscale>  2 0.18784130E+03</rscale>
<asrwt>0</asrwt>
<pdfrwt beam="1">  1       21 0.11956037E+00 0.18784130E+03</pdfrwt>
<pdfrwt beam="2">  1       21 0.95044678E-02 0.18784130E+03</pdfrwt>
<totfact> 0.47418716E+04</totfact>
</mgrwt>
</event>
<event>
 4    1  0.4336176E+000  0.3030779E+03  0.7546771E-02  0.1083712E+00
         21   -1    0    0  503  502  0.00000000000E+00  0.00000000000E+00  0.86948316908E+02  0.86948316908E+02  0.00000000000E+00 0.  1.
         21   -1    0    0  501  503 -0.00000000000E+00 -0.00000000000E+00 -0.10659907981E+04  0.10659907981E+04  0.00000000000E+00 0.  1.
          6    1    1    2  501    0  0.17724100452E+03  0.17467925091E+03 -0.54406934710E+03  0.62279022860E+03  0.17300000000E+03 0.  1.
         -6    1    1    2    0  502 -0.17724100452E+03 -0.17467925091E+03 -0.43497313408E+03  0.53014888640E+03  0.17300000000E+03 0.  1.
<mgrwt>
<rscale>  2 0.30307790E+03</rscale>
<asrwt>0</asrwt>
<pdfrwt beam="1">  1       21 0.13376664E-01 0.30307790E+03</pdfrwt>
<pdfrwt beam="2">  1       21 0.16399858E+00 0.30307790E+03</pdfrwt>
<totfact> 0.10609083E+04</totfact>
</mgrwt>
</event>
<event>
 4    1  0.4336176E+000  0.1940433E+03  0.7546771E-02  0.1154864E+00
         21   -1    0    0  503  502  0.00000000000E+00  0.00000000000E+00  0.46279924662E+03  0.46279924662E+03  0.00000000000E+00 0. -1.
         21   -1    0    0  501  503 -0.00000000000E+00 -0.00000000000E+00 -0.28789552870E+03  0.28789552870E+03  0.00000000000E+00 0. -1.
          6    1    1    2  501    0 -0.87327705974E+02 -0.98828410771E+01 -0.23046573851E+03  0.30127604519E+03  0.17300000000E+03 0. -1.
         -6    1    1    2    0  502  0.87327705974E+02  0.98828410771E+01  0.40536945644E+03  0.44941873013E+03  0.17300000000E+03 0. -1.
<mgrwt>
<rscale>  2 0.19404329E+03</rscale>
<asrwt>0</asrwt>
<pdfrwt beam="1">  1       21 0.71199884E-01 0.19404329E+03</pdfrwt>
<pdfrwt beam="2">  1       21 0.44291620E-01 0.19404329E+03</pdfrwt>
<totfact> 0.87285093E+03</totfact>
</mgrwt>
</event>
<event>
 4    1  0.4336176E+000  0.2360234E+03  0.7546771E-02  0.1122471E+00
         21   -1    0    0  501  502  0.00000000000E+00  0.00000000000E+00  0.46965707035E+02  0.46965707035E+02  0.00000000000E+00 0. -1.
         21   -1    0    0  502  503 -0.00000000000E+00 -0.00000000000E+00 -0.12764307366E+04  0.12764307366E+04  0.00000000000E+00 0. -1.
          6    1    1    2  501    0  0.13317404453E+03  0.89681249666E+02 -0.43872690305E+03  0.49818505411E+03  0.17300000000E+03 0. -1.
         -6    1    1    2    0  503 -0.13317404453E+03 -0.89681249666E+02 -0.79073812652E+03  0.82521138953E+03  0.17300000000E+03 0. -1.
<mgrwt>
<rscale>  2 0.23602342E+03</rscale>
<asrwt>0</asrwt>
<pdfrwt beam="1">  1       21 0.72254942E-02 0.23602342E+03</pdfrwt>
<pdfrwt beam="2">  1       21 0.19637394E+00 0.23602342E+03</pdfrwt>
<totfact> 0.19680098E+04</totfact>
</mgrwt>
</event>
<event>
 4    1  0.4336176E+000  0.3084492E+03  0.7546771E-02  0.1081092E+00
         21   -1    0    0  503  502  0.00000000000E+00  0.00000000000E+00  0.35347502755E+03  0.35347502755E+03  0.00000000000E+00 0. -1.
         21   -1    0    0  501  503 -0.00000000000E+00 -0.00000000000E+00 -0.86575164175E+03  0.86575164175E+03  0.00000000000E+00 0. -1.
          6    1    1    2  501    0 -0.25233244267E+03  0.39245999698E+02 -0.76219225770E+03  0.82223959271E+03  0.17300000000E+03 0. -1.
         -6    1    1    2    0  502  0.25233244267E+03 -0.39245999698E+02  0.24991564349E+03  0.39698707659E+03  0.17300000000E+03 0. -1.
<mgrwt>
<rscale>  2 0.30844920E+03</rscale>
<asrwt>0</asrwt>
<pdfrwt beam="1">  1       21 0.54380774E-01 0.30844920E+03</pdfrwt>
<pdfrwt beam="2">  1       21 0.13319256E+00 0.30844920E+03</pdfrwt>
<totfact> 0.11845728E+03</totfact>
</mgrwt>
</event>
<event>
 4    1  0.4336176E+000  0.2736159E+03  0.7546771E-02  0.1099228E+00
         21   -1    0    0  501  502  0.00000000000E+00  0.00000000000E+00  0.36190321285E+03  0.36190321285E+03  0.00000000000E+00 0.  1.
         21   -1    0    0  502  503 -0.00000000000E+00 -0.00000000000E+00 -0.23157118481E+03  0.23157118481E+03  0.00000000000E+00 0.  1.
          6    1    1    2  501    0  0.17623158053E+03  0.11780945279E+03  0.16208742516E+03  0.31802196549E+03  0.17300000000E+03 0.  1.
         -6    1    1    2    0  503 -0.17623158053E+03 -0.11780945279E+03 -0.31755397120E+02  0.27545243217E+03  0.17300000000E+03 0.  1.
<mgrwt>
<rscale>  2 0.27361586E+03</rscale>
<asrwt>0</asrwt>
<pdfrwt beam="1">  1       21 0.55677417E-01 0.27361586E+03</pdfrwt>
<pdfrwt beam="2">  1       21 0.35626336E-01 0.27361586E+03</pdfrwt>
<totfact> 0.22157778E+04</totfact>
</mgrwt>
</event>
<event>
 4    1  0.4336176E+000  0.2062452E+03  0.7546771E-02  0.1144574E+00
         21   -1    0    0  503  502  0.00000000000E+00  0.00000000000E+00  0.92634537578E+02  0.92634537578E+02  0.00000000000E+00 0. -1.
         21   -1    0    0  501  503 -0.00000000000E+00 -0.00000000000E+00 -0.47303190500E+03  0.47303190500E+03  0.00000000000E+00 0. -1.
          6    1    1    2  501    0  0.34270586322E+02  0.10692801829E+03 -0.23857644055E+03  0.31536612400E+03  0.17300000000E+03 0. -1.
         -6    1    1    2    0  502 -0.34270586322E+02 -0.10692801829E+03 -0.14182092687E+03  0.25030031858E+03  0.17300000000E+03 0. -1.
<mgrwt>
<rscale>  2 0.20624518E+03</rscale>
<asrwt>0</asrwt>
<pdfrwt beam="1">  1       21 0.14251468E-01 0.20624518E+03</pdfrwt>
<pdfrwt beam="2">  1       21 0.72774138E-01 0.20624518E+03</pdfrwt>
<totfact> 0.72752533E+04</totfact>
</mgrwt>
</event>
<event>
 4    1  0.4336176E+000  0.1947896E+03  0.7546771E-02  0.1154211E+00
         21   -1    0    0  501  502  0.00000000000E+00  0.00000000000E+00  0.41423862518E+03  0.41423862518E+03  0.00000000000E+00 0.  1.
         21   -1    0    0  502  503 -0.00000000000E+00 -0.00000000000E+00 -0.99466982808E+02  0.99466982808E+02  0.00000000000E+00 0.  1.
          6    1    1    2  501    0 -0.37804550343E+02 -0.81146808028E+02  0.22963510071E+03  0.30112334343E+03  0.17300000000E+03 0.  1.
         -6    1    1    2    0  503  0.37804550343E+02  0.81146808028E+02  0.85136541666E+02  0.21258226456E+03  0.17300000000E+03 0.  1.
<mgrwt>
<rscale>  2 0.19478960E+03</rscale>
<asrwt>0</asrwt>
<pdfrwt beam="1">  1       21 0.63729019E-01 0.19478960E+03</pdfrwt>
<pdfrwt beam="2">  1       21 0.15302613E-01 0.19478960E+03</pdfrwt>
<totfact> 0.85981601E+04</totfact>
</mgrwt>
</event>
<event>
 4    1  0.4336176E+000  0.3152987E+03  0.7546771E-02  0.1077834E+00
         21   -1    0    0  501  502  0.00000000000E+00  0.00000000000E+00  0.12031947676E+03  0.12031947676E+03  0.00000000000E+00 0. -1.
         21   -1    0    0  502  503 -0.00000000000E+00 -0.00000000000E+00 -0.82807640478E+03  0.82807640478E+03  0.00000000000E+00 0. -1.
          6    1    1    2  501    0  0.37740148490E+02 -0.26088304369E+03 -0.37618335795E+03  0.49084335596E+03  0.17300000000E+03 0. -1.
         -6    1    1    2    0  503 -0.37740148490E+02  0.26088304369E+03 -0.33157357008E+03  0.45755252558E+03  0.17300000000E+03 0. -1.
<mgrwt>
<rscale>  2 0.31529872E+03</rscale>
<asrwt>0</asrwt>
<pdfrwt beam="1">  1       21 0.18510688E-01 0.31529872E+03</pdfrwt>
<pdfrwt beam="2">  1       21 0.12739637E+00 0.31529872E+03</pdfrwt>
<totfact> 0.11310735E+04</totfact>
</mgrwt>
</event>
<event>
 4    1  0.4336176E+000  0.4074056E+03  0.7546771E-02  0.1041245E+00
         21   -1    0    0  501  502  0.00000000000E+00  0.00000000000E+00  0.38180967216E+03  0.38180967216E+03  0.00000000000E+00 0.  1.
         21   -1    0    0  502  503 -0.00000000000E+00 -0.00000000000E+00 -0.78838595838E+03  0.78838595838E+03  0.00000000000E+00 0. -1.
          6    1    1    2  501    0 -0.34332694962E+03  0.13482175734E+03  0.18859562393E+03  0.44894054167E+03  0.17300000000E+03 0.  1.
         -6    1    1    2    0  503  0.34332694962E+03 -0.13482175734E+03 -0.59517191015E+03  0.72125508887E+03  0.17300000000E+03 0. -1.
<mgrwt>
<rscale>  2 0.40740557E+03</rscale>
<asrwt>0</asrwt>
<pdfrwt beam="1">  1       21 0.58739950E-01 0.40740557E+03</pdfrwt>
<pdfrwt beam="2">  1       21 0.12129015E+00 0.40740557E+03</pdfrwt>
<totfact> 0.12094377E+03</totfact>
</mgrwt>
</event>
<event>
 4    1  0.4336176E+000  0.1916870E+03  0.7546771E-02  0.1156949E+00
         21   -1    0    0  503  502  0.00000000000E+00  0.00000000000E+00  0.24847146115E+02  0.24847146115E+02  0.00000000000E+00 0. -1.
         21   -1    0    0  501  503 -0.00000000000E+00 -0.00000000000E+00 -0.14992274392E+04  0.14992274392E+04  0.00000000000E+00 0. -1.
          6    1    1    2  501    0 -0.78013743289E+02 -0.26995660209E+02 -0.82614522749E+03  0.84809188577E+03  0.17300000000E+03 0. -1.
         -6    1    1    2    0  502  0.78013743289E+02  0.26995660209E+02 -0.64823506562E+03  0.67598269957E+03  0.17300000000E+03 0. -1.
<mgrwt>
<rscale>  2 0.19168701E+03</rscale>
<asrwt>0</asrwt>
<pdfrwt beam="1">  1       21 0.38226370E-02 0.19168701E+03</pdfrwt>
<pdfrwt beam="2">  1       21 0.23065043E+00 0.19168701E+03</pdfrwt>
<totfact> 0.36668015E+04</totfact>
</mgrwt>
</event>
<event>
 4    1  0.4336176E+000  0.2393003E+03  0.7546771E-02  0.1120260E+00
         21   -1    0    0  503  502  0.00000000000E+00  0.00000000000E+00  0.18125190764E+03  0.18125190764E+03  0.00000000000E+00 0.  1.
         21   -1    0    0  501  503 -0.00000000000E+00 -0.00000000000E+00 -0.32626690546E+03  0.32626690546E+03  0.00000000000E+00 0.  1.
          6    1    1    2  501    0 -0.15740836130E+03 -0.50578930735E+02 -0.11765494430E+03  0.26665953266E+03  0.17300000000E+03 0.  1.
         -6    1    1    2    0  502  0.15740836130E+03  0.50578930735E+02 -0.27360053518E+02  0.24085928043E+03  0.17300000000E+03 0.  1.
<mgrwt>
<rscale>  2 0.23930027E+03</rscale>
<asrwt>0</asrwt>
<pdfrwt beam="1">  1       21 0.27884909E-01 0.23930027E+03</pdfrwt>
<pdfrwt beam="2">  1       21 0.50194907E-01 0.23930027E+03</pdfrwt>
<totfact> 0.45419257E+04</totfact>
</mgrwt>
</event>
<event>
 4    1  0.4336176E+000  0.1926065E+03  0.7546771E-02  0.1156131E+00
         21   -1    0    0  501  502  0.00000000000E+00  0.00000000000E+00  0.67785485245E+02  0.67785485245E+02  0.00000000000E+00 0. -1.
         21   -1    0    0  502  503 -0.00000000000E+00 -0.00000000000E+00 -0.55838637934E+03  0.55838637934E+03  0.00000000000E+00 0.  1.
          6    1    1    2  501    0 -0.25358657131E+02 -0.80778729012E+02 -0.20113417256E+03  0.27848199210E+03  0.17300000000E+03 0.  1.
         -6    1    1    2    0  503  0.25358657131E+02  0.80778729012E+02 -0.28946672153E+03  0.34768987248E+03  0.17300000000E+03 0.  1.
<mgrwt>
<rscale>  2 0.19260650E+03</rscale>
<asrwt>0</asrwt>
<pdfrwt beam="1">  1       21 0.10428536E-01 0.19260650E+03</pdfrwt>
<pdfrwt beam="2">  1       21 0.85905598E-01 0.19260650E+03</pdfrwt>
<totfact> 0.88118024E+04</totfact>
</mgrwt>
</event>
<event>
 4    1  0.4336176E+000  0.1813570E+03  0.7546771E-02  0.1166496E+00
         21   -1    0    0  501  502  0.00000000000E+00  0.00000000000E+00  0.12735699600E+03  0.12735699600E+03  0.00000000000E+00 0. -1.
         21   -1    0    0  502  503 -0.00000000000E+00 -0.00000000000E+00 -0.27905302396E+03  0.27905302396E+03  0.00000000000E+00 0. -1.
          6    1    1    2  501    0 -0.43852007068E+02  0.32223600396E+02 -0.20370079284E+02  0.18249739471E+03  0.17300000000E+03 0. -1.
         -6    1    1    2    0  503  0.43852007068E+02 -0.32223600396E+02 -0.13132594868E+03  0.22391262524E+03  0.17300000000E+03 0. -1.
<mgrwt>
<rscale>  2 0.18135699E+03</rscale>
<asrwt>0</asrwt>
<pdfrwt beam="1">  1       21 0.19593384E-01 0.18135699E+03</pdfrwt>
<pdfrwt beam="2">  1       21 0.42931234E-01 0.18135699E+03</pdfrwt>
<totfact> 0.12564001E+05</totfact>
</mgrwt>
</event>
<event>
 4    1  0.4336176E+000  0.1834562E+03  0.7546771E-02  0.1164499E+00
         21   -1    0    0  501  502  0.00000000000E+00  0.00000000000E+00  0.80660206914E+02  0.80660206914E+02  0.00000000000E+00 0. -1.
         21   -1    0    0  502  503 -0.00000000000E+00 -0.00000000000E+00 -0.93799794709E+03  0.93799794709E+03  0.00000000000E+00 0. -1.
          6    1    1    2  501    0 -0.10843764996E+02 -0.60079863321E+02 -0.49172470165E+02  0.18993185367E+03  0.17300000000E+03 0. -1.
         -6    1    1    2    0  503  0.10843764996E+02  0.60079863321E+02 -0.80816527001E+03  0.82872630033E+03  0.17300000000E+03 0. -1.
<mgrwt>
<rscale>  2 0.18345620E+03</rscale>
<asrwt>0</asrwt>
<pdfrwt beam="1">  1       21 0.12409262E-01 0.18345620E+03</pdfrwt>
<pdfrwt beam="2">  1       21 0.14430739E+00 0.18345620E+03</pdfrwt>
<totfact> 0.18392548E+04</totfact>
</mgrwt>
</event>
<event>
 4    1  0.4336176E+000  0.2711160E+03  0.7546771E-02  0.1100643E+00
         21   -1    0    0  501  502  0.00000000000E+00  0.00000000000E+00  0.55865456663E+03  0.55865456663E+03  0.00000000000E+00 0. -1.
         21   -1    0    0  502  503 -0.00000000000E+00 -0.00000000000E+00 -0.38765866322E+03  0.38765866322E+03  0.00000000000E+00 0.  1.
          6    1    1    2  501    0 -0.76962706583E+02 -0.19404028278E+03  0.47006560574E+03  0.54264681262E+03  0.17300000000E+03 0. -1.
         -6    1    1    2    0  503  0.76962706583E+02  0.19404028278E+03 -0.29906970233E+03  0.40366641723E+03  0.17300000000E+03 0.  1.
<mgrwt>
<rscale>  2 0.27111601E+03</rscale>
<asrwt>0</asrwt>
<pdfrwt beam="1">  1       21 0.85946856E-01 0.27111601E+03</pdfrwt>
<pdfrwt beam="2">  1       21 0.59639794E-01 0.27111601E+03</pdfrwt>
<totfact> 0.28948770E+03</totfact>
</mgrwt>
</event>
<event>
 4    1  0.4336176E+000  0.1897303E+03  0.7546771E-02  0.1158705E+00
         21   -1    0    0  503  502  0.00000000000E+00  0.00000000000E+00  0.11089495375E+03  0.11089495375E+03  0.00000000000E+00 0.  1.
         21   -1    0    0  501  503 -0.00000000000E+00 -0.00000000000E+00 -0.33908707285E+03  0.33908707285E+03  0.00000000000E+00 0.  1.
          6    1    1    2  501    0 -0.29222442147E+02 -0.72212317491E+02 -0.67606494548E+02  0.20141551089E+03  0.17300000000E+03 0.  1.
         -6    1    1    2    0  502  0.29222442147E+02  0.72212317491E+02 -0.16058562455E+03  0.24856651572E+03  0.17300000000E+03 0.  1.
<mgrwt>
<rscale>  2 0.18973026E+03</rscale>
<asrwt>0</asrwt>
<pdfrwt beam="1">  1       21 0.17060762E-01 0.18973026E+03</pdfrwt>
<pdfrwt beam="2">  1       21 0.52167242E-01 0.18973026E+03</pdfrwt>
<totfact> 0.10818478E+05</totfact>
</mgrwt>
</event>
<event>
 4    1  0.4336176E+000  0.1964632E+03  0.7546771E-02  0.1152758E+00
         21   -1    0    0  501  502  0.00000000000E+00  0.00000000000E+00  0.19618524093E+04  0.19618524093E+04  0.00000000000E+00 0.  1.
         21   -1    0    0  502  503 -0.00000000000E+00 -0.00000000000E+00 -0.47826356431E+02  0.47826356431E+02  0.00000000000E+00 0.  1.
          6    1    1    2  501    0 -0.89680817820E+02 -0.25023081970E+02  0.17279504363E+04  0.17390832396E+04  0.17300000000E+03 0.  1.
         -6    1    1    2    0  503  0.89680817820E+02  0.25023081970E+02  0.18607561657E+03  0.27059552620E+03  0.17300000000E+03 0.  1.
<mgrwt>
<rscale>  2 0.19646324E+03</rscale>
<asrwt>0</asrwt>
<pdfrwt beam="1">  1       21 0.30182339E+00 0.19646324E+03</pdfrwt>
<pdfrwt beam="2">  1       21 0.73579025E-02 0.19646324E+03</pdfrwt>
<totfact> 0.46033172E+03</totfact>
</mgrwt>
</event>
<event>
 4    1  0.4336176E+000  0.2597653E+03  0.7546771E-02  0.1107284E+00
         21   -1    0    0  501  502  0.00000000000E+00  0.00000000000E+00  0.20425702615E+03  0.20425702615E+03  0.00000000000E+00 0. -1.
         21   -1    0    0  502  503 -0.00000000000E+00 -0.00000000000E+00 -0.48115667674E+03  0.48115667674E+03  0.00000000000E+00 0.  1.
          6    1    1    2  501    0 -0.55349652005E+02 -0.18570252344E+03  0.53407246035E+02  0.26519868989E+03  0.17300000000E+03 0. -1.
         -6    1    1    2    0  503  0.55349652005E+02  0.18570252344E+03 -0.33030689663E+03  0.42021501300E+03  0.17300000000E+03 0.  1.
<mgrwt>
<rscale>  2 0.25976530E+03</rscale>
<asrwt>0</asrwt>
<pdfrwt beam="1">  1       21 0.31424158E-01 0.25976530E+03</pdfrwt>
<pdfrwt beam="2">  1       21 0.74024104E-01 0.25976530E+03</pdfrwt>
<totfact> 0.15338243E+04</totfact>
</mgrwt>
</event>
<event>
 4    1  0.4336176E+000  0.1850278E+03  0.7546771E-02  0.1163024E+00
         21   -1    0    0  503  502  0.00000000000E+00  0.00000000000E+00  0.31643565799E+03  0.31643565799E+03  0.00000000000E+00 0. -1.
         21   -1    0    0  501  503 -0.00000000000E+00 -0.00000000000E+00 -0.15764719004E+03  0.15764719004E+03  0.00000000000E+00 0. -1.
          6    1    1    2  501    0  0.65090699731E+02  0.83367490003E+01 -0.53373973205E+02  0.19257227628E+03  0.17300000000E+03 0. -1.
         -6    1    1    2    0  502 -0.65090699731E+02 -0.83367490003E+01  0.21216244115E+03  0.28151057175E+03  0.17300000000E+03 0. -1.
<mgrwt>
<rscale>  2 0.18502784E+03</rscale>
<asrwt>0</asrwt>
<pdfrwt beam="1">  1       21 0.48682409E-01 0.18502784E+03</pdfrwt>
<pdfrwt beam="2">  1       21 0.24253414E-01 0.18502784E+03</pdfrwt>
<totfact> 0.64857916E+04</totfact>
</mgrwt>
</event>
<event>
 4    1  0.4336176E+000  0.1775837E+03  0.7546771E-02  0.1170162E+00
         21   -1    0    0  501  502  0.00000000000E+00  0.00000000000E+00  0.41753669438E+02  0.41753669438E+02  0.00000000000E+00 0. -1.
         21   -1    0    0  502  503 -0.00000000000E+00 -0.00000000000E+00 -0.11895281104E+04  0.11895281104E+04  0.00000000000E+00 0. -1.
          6    1    1    2  501    0  0.32700526559E+02 -0.23187210158E+02 -0.20191889389E+03  0.26890000160E+03  0.17300000000E+03 0. -1.
         -6    1    1    2    0  503 -0.32700526559E+02  0.23187210158E+02 -0.94585554708E+03  0.96238177824E+03  0.17300000000E+03 0. -1.
<mgrwt>
<rscale>  2 0.17758370E+03</rscale>
<asrwt>0</asrwt>
<pdfrwt beam="1">  1       21 0.64236419E-02 0.17758370E+03</pdfrwt>
<pdfrwt beam="2">  1       21 0.18300431E+00 0.17758370E+03</pdfrwt>
<totfact> 0.30772489E+04</totfact>
</mgrwt>
</event>
<event>
 4    1  0.4336176E+000  0.2459387E+03  0.7546771E-02  0.1115899E+00
         21   -1    0    0  503  502  0.00000000000E+00  0.00000000000E+00  0.99074004477E+02  0.99074004477E+02  0.00000000000E+00 0.  1.
         21   -1    0    0  501  503 -0.00000000000E+00 -0.00000000000E+00 -0.79728979211E+03  0.79728979211E+03  0.00000000000E+00 0. -1.
          6    1    1    2  501    0 -0.46851662041E+02  0.16840953154E+03 -0.56603262307E+03  0.61715377252E+03  0.17300000000E+03 0.  1.
         -6    1    1    2    0  502  0.46851662041E+02 -0.16840953154E+03 -0.13218316456E+03  0.27921002407E+03  0.17300000000E+03 0.  1.
<mgrwt>
<rscale>  2 0.24593871E+03</rscale>
<asrwt>0</asrwt>
<pdfrwt beam="1">  1       21 0.15242154E-01 0.24593871E+03</pdfrwt>
<pdfrwt beam="2">  1       21 0.12265997E+00 0.24593871E+03</pdfrwt>
<totfact> 0.18458220E+04</totfact>
</mgrwt>
</event>
<event>
 4    1  0.4336176E+000  0.2007448E+03  0.7546771E-02  0.1149112E+00
         21   -1    0    0  503  502  0.00000000000E+00  0.00000000000E+00  0.19314638054E+04  0.19314638054E+04  0.00000000000E+00 0. -1.
         21   -1    0    0  501  503 -0.00000000000E+00 -0.00000000000E+00 -0.28621837865E+02  0.28621837865E+02  0.00000000000E+00 0. -1.
          6    1    1    2  501    0  0.24798898318E+02 -0.98764864630E+02  0.44119741923E+03  0.48472017348E+03  0.17300000000E+03 0. -1.
         -6    1    1    2    0  502 -0.24798898318E+02  0.98764864630E+02  0.14616445484E+04  0.14753654698E+04  0.17300000000E+03 0. -1.
<mgrwt>
<rscale>  2 0.20074482E+03</rscale>
<asrwt>0</asrwt>
<pdfrwt beam="1">  1       21 0.29714818E+00 0.20074482E+03</pdfrwt>
<pdfrwt beam="2">  1       21 0.44033612E-02 0.20074482E+03</pdfrwt>
<totfact> 0.11721473E+04</totfact>
</mgrwt>
</event>
<event>
 4    1  0.4336176E+000  0.1802613E+03  0.7546771E-02  0.1167550E+00
         21   -1    0    0  503  502  0.00000000000E+00  0.00000000000E+00  0.13191197740E+03  0.13191197740E+03  0.00000000000E+00 0. -1.
         21   -1    0    0  501  503 -0.00000000000E+00 -0.00000000000E+00 -0.28581292390E+03  0.28581292390E+03  0.00000000000E+00 0. -1.
          6    1    1    2  501    0 -0.49597602599E+02 -0.10257837182E+02  0.67654716160E+00  0.18026259491E+03  0.17300000000E+03 0. -1.
         -6    1    1    2    0  502  0.49597602599E+02  0.10257837182E+02 -0.15457749367E+03  0.23746230639E+03  0.17300000000E+03 0. -1.
<mgrwt>
<rscale>  2 0.18026133E+03</rscale>
<asrwt>0</asrwt>
<pdfrwt beam="1">  1       21 0.20294150E-01 0.18026133E+03</pdfrwt>
<pdfrwt beam="2">  1       21 0.43971219E-01 0.18026133E+03</pdfrwt>
<totfact> 0.11210788E+05</totfact>
</mgrwt>
</event>
<event>
 4    1  0.4336176E+000  0.2759902E+03  0.7546771E-02  0.1097899E+00
         21   -1    0    0  501  502  0.00000000000E+00  0.00000000000E+00  0.49648628879E+03  0.49648628879E+03  0.00000000000E+00 0.  1.
         21   -1    0    0  502  503 -0.00000000000E+00 -0.00000000000E+00 -0.23297069313E+03  0.23297069313E+03  0.00000000000E+00 0. -1.
          6    1    1    2  501    0  0.12118490169E+03 -0.17763957290E+03  0.34488693766E+03  0.44172117679E+03  0.17300000000E+03 0.  1.
         -6    1    1    2    0  503 -0.12118490169E+03  0.17763957290E+03 -0.81371342003E+02  0.28773580513E+03  0.17300000000E+03 0. -1.
<mgrwt>
<rscale>  2 0.27599021E+03</rscale>
<asrwt>0</asrwt>
<pdfrwt beam="1">  1       21 0.76382506E-01 0.27599021E+03</pdfrwt>
<pdfrwt beam="2">  1       21 0.35841645E-01 0.27599021E+03</pdfrwt>
<totfact> 0.10912192E+04</totfact>
</mgrwt>
</event>
<event>
 4    1  0.4336176E+000  0.2178357E+03  0.7546771E-02  0.1135507E+00
         21   -1    0    0  501  502  0.00000000000E+00  0.00000000000E+00  0.68097878056E+03  0.68097878056E+03  0.00000000000E+00 0.  1.
         21   -1    0    0  502  503 -0.00000000000E+00 -0.00000000000E+00 -0.83675773371E+02  0.83675773371E+02  0.00000000000E+00 0.  1.
          6    1    1    2  501    0 -0.93121291188E+02  0.94084211597E+02  0.45499959059E+03  0.50445717478E+03  0.17300000000E+03 0.  1.
         -6    1    1    2    0  503  0.93121291188E+02 -0.94084211597E+02  0.14230341660E+03  0.26019737916E+03  0.17300000000E+03 0.  1.
<mgrwt>
<rscale>  2 0.21783575E+03</rscale>
<asrwt>0</asrwt>
<pdfrwt beam="1">  1       21 0.10476596E+00 0.21783575E+03</pdfrwt>
<pdfrwt beam="2">  1       21 0.12873196E-01 0.21783575E+03</pdfrwt>
<totfact> 0.37491207E+04</totfact>
</mgrwt>
</event>
<event>
 4    1  0.4336176E+000  0.2179051E+03  0.7546771E-02  0.1135455E+00
         21   -1    0    0  501  502  0.00000000000E+00  0.00000000000E+00  0.32164420702E+02  0.32164420702E+02  0.00000000000E+00 0.  1.
         21   -1    0    0  502  503 -0.00000000000E+00 -0.00000000000E+00 -0.15620680313E+04  0.15620680313E+04  0.00000000000E+00 0.  1.
          6    1    1    2  501    0  0.14707799270E+02  0.13167117177E+03 -0.57811194081E+03  0.61781553310E+03  0.17300000000E+03 0.  1.
         -6    1    1    2    0  503 -0.14707799270E+02 -0.13167117177E+03 -0.95179166975E+03  0.97641691886E+03  0.17300000000E+03 0.  1.
<mgrwt>
<rscale>  2 0.21790506E+03</rscale>
<asrwt>0</asrwt>
<pdfrwt beam="1">  1       21 0.49483723E-02 0.21790506E+03</pdfrwt>
<pdfrwt beam="2">  1       21 0.24031816E+00 0.21790506E+03</pdfrwt>
<totfact> 0.20342944E+04</totfact>
</mgrwt>
</event>
<event>
 4    1  0.4336176E+000  0.1937268E+03  0.7546771E-02  0.1155142E+00
         21   -1    0    0  503  502  0.00000000000E+00  0.00000000000E+00  0.91688263513E+02  0.91688263513E+02  0.00000000000E+00 0. -1.
         21   -1    0    0  501  503 -0.00000000000E+00 -0.00000000000E+00 -0.60000014936E+03  0.60000014936E+03  0.00000000000E+00 0. -1.
          6    1    1    2  501    0 -0.27830495591E+02  0.82622891321E+02 -0.44912002230E+03  0.48912050978E+03  0.17300000000E+03 0. -1.
         -6    1    1    2    0  502  0.27830495591E+02 -0.82622891321E+02 -0.59191863551E+02  0.20256790310E+03  0.17300000000E+03 0. -1.
<mgrwt>
<rscale>  2 0.19372681E+03</rscale>
<asrwt>0</asrwt>
<pdfrwt beam="1">  1       21 0.14105886E-01 0.19372681E+03</pdfrwt>
<pdfrwt beam="2">  1       21 0.92307718E-01 0.19372681E+03</pdfrwt>
<totfact> 0.43428807E+04</totfact>
</mgrwt>
</event>
<event>
 4    1  0.4336176E+000  0.2632237E+03  0.7546771E-02  0.1105222E+00
         21   -1    0    0  503  502  0.00000000000E+00  0.00000000000E+00  0.29372498497E+02  0.29372498497E+02  0.00000000000E+00 0. -1.
         21   -1    0    0  501  503 -0.00000000000E+00 -0.00000000000E+00 -0.24515690920E+04  0.24515690920E+04  0.00000000000E+00 0.  1.
          6    1    1    2  501    0 -0.13913020127E+03  0.14142316908E+03 -0.14522758025E+04  0.14759375773E+04  0.17300000000E+03 0.  1.
         -6    1    1    2    0  502  0.13913020127E+03 -0.14142316908E+03 -0.96992079105E+03  0.10050040132E+04  0.17300000000E+03 0. -1.
<mgrwt>
<rscale>  2 0.26322372E+03</rscale>
<asrwt>0</asrwt>
<pdfrwt beam="1">  1       21 0.45188465E-02 0.26322372E+03</pdfrwt>
<pdfrwt beam="2">  1       21 0.37716443E+00 0.26322372E+03</pdfrwt>
<totfact> 0.35387423E+03</totfact>
</mgrwt>
</event>
<event>
 4    1  0.4336176E+000  0.1753497E+03  0.7546771E-02  0.1172381E+00
         21   -1    0    0  501  502  0.00000000000E+00  0.00000000000E+00  0.24278776184E+03  0.24278776184E+03  0.00000000000E+00 0. -1.
         21   -1    0    0  502  503 -0.00000000000E+00 -0.00000000000E+00 -0.61736327645E+03  0.61736327645E+03  0.00000000000E+00 0. -1.
          6    1    1    2  501    0 -0.23372244680E+02  0.16500619220E+02  0.19614660724E+03  0.26309888595E+03  0.17300000000E+03 0. -1.
         -6    1    1    2    0  503  0.23372244680E+02 -0.16500619220E+02 -0.57072212184E+03  0.59705215234E+03  0.17300000000E+03 0. -1.
<mgrwt>
<rscale>  2 0.17534974E+03</rscale>
<asrwt>0</asrwt>
<pdfrwt beam="1">  1       21 0.37351964E-01 0.17534974E+03</pdfrwt>
<pdfrwt beam="2">  1       21 0.94978965E-01 0.17534974E+03</pdfrwt>
<totfact> 0.64934396E+03</totfact>
</mgrwt>
</event>
<event>
 4    1  0.4336176E+000  0.2788908E+03  0.7546771E-02  0.1096296E+00
         21   -1    0    0  501  502  0.00000000000E+00  0.00000000000E+00  0.12973036365E+04  0.12973036365E+04  0.00000000000E+00 0.  1.
         21   -1    0    0  502  503 -0.00000000000E+00 -0.00000000000E+00 -0.63878045769E+02  0.63878045769E+02  0.00000000000E+00 0. -1.
          6    1    1    2  501    0 -0.21736264860E+03 -0.24587803436E+02  0.78537263014E+03  0.83342081163E+03  0.17300000000E+03 0.  1.
         -6    1    1    2    0  503  0.21736264860E+03  0.24587803436E+02  0.44805296058E+03  0.52776087063E+03  0.17300000000E+03 0. -1.
<mgrwt>
<rscale>  2 0.27889080E+03</rscale>
<asrwt>0</asrwt>
<pdfrwt beam="1">  1       21 0.19958516E+00 0.27889080E+03</pdfrwt>
<pdfrwt beam="2">  1       21 0.98273926E-02 0.27889080E+03</pdfrwt>
<totfact> 0.10636212E+04</totfact>
</mgrwt>
</event>
<event>
 4    1  0.4336176E+000  0.2022863E+03  0.7546771E-02  0.1147824E+00
         21   -1    0    0  501  502  0.00000000000E+00  0.00000000000E+00  0.75862198888E+03  0.75862198888E+03  0.00000000000E+00 0.  1.
         21   -1    0    0  502  503 -0.00000000000E+00 -0.00000000000E+00 -0.53954070309E+02  0.53954070309E+02  0.00000000000E+00 0.  1.
          6    1    1    2  501    0  0.78407060737E+02  0.69592383934E+02  0.34568043030E+03  0.40051807321E+03  0.17300000000E+03 0.  1.
         -6    1    1    2    0  503 -0.78407060737E+02 -0.69592383934E+02  0.35898748827E+03  0.41205798598E+03  0.17300000000E+03 0.  1.
<mgrwt>
<rscale>  2 0.20228635E+03</rscale>
<asrwt>0</asrwt>
<pdfrwt beam="1">  1       21 0.11671107E+00 0.20228635E+03</pdfrwt>
<pdfrwt beam="2">  1       21 0.83006268E-02 0.20228635E+03</pdfrwt>
<totfact> 0.63329080E+04</totfact>
</mgrwt>
</event>
<event>
 4    1  0.4336176E+000  0.1953702E+03  0.7546771E-02  0.1153705E+00
         21   -1    0    0  501  502  0.00000000000E+00  0.00000000000E+00  0.36995170192E+03  0.36995170192E+03  0.00000000000E+00 0. -1.
         21   -1    0    0  502  503 -0.00000000000E+00 -0.00000000000E+00 -0.11209814349E+03  0.11209814349E+03  0.00000000000E+00 0.  1.
          6    1    1    2  501    0  0.79591774187E+02 -0.43653959740E+02  0.19693133399E+03  0.27740127798E+03  0.17300000000E+03 0. -1.
         -6    1    1    2    0  503 -0.79591774187E+02  0.43653959740E+02  0.60922224446E+02  0.20464856743E+03  0.17300000000E+03 0.  1.
<mgrwt>
<rscale>  2 0.19537021E+03</rscale>
<asrwt>0</asrwt>
<pdfrwt beam="1">  1       21 0.56915646E-01 0.19537021E+03</pdfrwt>
<pdfrwt beam="2">  1       21 0.17245868E-01 0.19537021E+03</pdfrwt>
<totfact> 0.88034093E+04</totfact>
</mgrwt>
</event>
<event>
 4    1  0.4336176E+000  0.1733371E+03  0.7546771E-02  0.1174412E+00
         21   -1    0    0  503  502  0.00000000000E+00  0.00000000000E+00  0.29375745820E+03  0.29375745820E+03  0.00000000000E+00 0. -1.
         21   -1    0    0  501  503 -0.00000000000E+00 -0.00000000000E+00 -0.10310109157E+03  0.10310109157E+03  0.00000000000E+00 0. -1.
          6    1    1    2  501    0  0.82344867294E+01 -0.69961964744E+01  0.77629005345E+02  0.18992634364E+03  0.17300000000E+03 0. -1.
         -6    1    1    2    0  502 -0.82344867294E+01  0.69961964744E+01  0.11302736129E+03  0.20693220614E+03  0.17300000000E+03 0. -1.
<mgrwt>
<rscale>  2 0.17333711E+03</rscale>
<asrwt>0</asrwt>
<pdfrwt beam="1">  1       21 0.45193455E-01 0.17333711E+03</pdfrwt>
<pdfrwt beam="2">  1       21 0.15861706E-01 0.17333711E+03</pdfrwt>
<totfact> 0.16741119E+05</totfact>
</mgrwt>
</event>
<event>
 4    1  0.4336176E+000  0.2297334E+03  0.7546771E-02  0.1126828E+00
         21   -1    0    0  503  502  0.00000000000E+00  0.00000000000E+00  0.13432861532E+03  0.13432861532E+03  0.00000000000E+00 0. -1.
         21   -1    0    0  501  503 -0.00000000000E+00 -0.00000000000E+00 -0.51144512128E+03  0.51144512128E+03  0.00000000000E+00 0. -1.
          6    1    1    2  501    0  0.15113915549E+03  0.23264828415E+01 -0.33106294562E+02  0.23210662116E+03  0.17300000000E+03 0. -1.
         -6    1    1    2    0  502 -0.15113915549E+03 -0.23264828415E+01 -0.34401021140E+03  0.41366711544E+03  0.17300000000E+03 0. -1.
<mgrwt>
<rscale>  2 0.22973345E+03</rscale>
<asrwt>0</asrwt>
<pdfrwt beam="1">  1       21 0.20665941E-01 0.22973345E+03</pdfrwt>
<pdfrwt beam="2">  1       21 0.78683865E-01 0.22973345E+03</pdfrwt>
<totfact> 0.30395351E+04</totfact>
</mgrwt>
</event>
<event>
 4    1  0.4336176E+000  0.1956956E+03  0.7546771E-02  0.1153422E+00
         21   -1    0    0  503  502  0.00000000000E+00  0.00000000000E+00  0.37724645277E+02  0.37724645277E+02  0.00000000000E+00 0. -1.
         21   -1    0    0  501  503 -0.00000000000E+00 -0.00000000000E+00 -0.10608500473E+04  0.10608500473E+04  0.00000000000E+00 0. -1.
          6    1    1    2  501    0 -0.89468042447E+02  0.19059118315E+02 -0.62554947361E+03  0.65544559236E+03  0.17300000000E+03 0. -1.
         -6    1    1    2    0  502  0.89468042447E+02 -0.19059118315E+02 -0.39757592846E+03  0.44312910026E+03  0.17300000000E+03 0. -1.
<mgrwt>
<rscale>  2 0.19569563E+03</rscale>
<asrwt>0</asrwt>
<pdfrwt beam="1">  1       21 0.58037911E-02 0.19569563E+03</pdfrwt>
<pdfrwt beam="2">  1       21 0.16320771E+00 0.19569563E+03</pdfrwt>
<totfact> 0.49696520E+04</totfact>
</mgrwt>
</event>
<event>
 4    1  0.4336176E+000  0.2974513E+03  0.7546771E-02  0.1086522E+00
         21   -1    0    0  501  502  0.00000000000E+00  0.00000000000E+00  0.37064239859E+03  0.37064239859E+03  0.00000000000E+00 0.  1.
         21   -1    0    0  502  503 -0.00000000000E+00 -0.00000000000E+00 -0.34024521912E+03  0.34024521912E+03  0.00000000000E+00 0. -1.
          6    1    1    2  501    0  0.24196611035E+03 -0.83266552221E+00  0.20936589800E+03  0.36374630052E+03  0.17300000000E+03 0.  1.
         -6    1    1    2    0  503 -0.24196611035E+03  0.83266552221E+00 -0.17896871854E+03  0.34714131720E+03  0.17300000000E+03 0. -1.
<mgrwt>
<rscale>  2 0.29745133E+03</rscale>
<asrwt>0</asrwt>
<pdfrwt beam="1">  1       21 0.57021908E-01 0.29745133E+03</pdfrwt>
<pdfrwt beam="2">  1       21 0.52345418E-01 0.29745133E+03</pdfrwt>
<totfact> 0.94214669E+03</totfact>
</mgrwt>
</event>
<event>
 4    1  0.4336176E+000  0.1879179E+03  0.7546771E-02  0.1160353E+00
         21   -1    0    0  501  502  0.00000000000E+00  0.00000000000E+00  0.58082114874E+03  0.58082114874E+03  0.00000000000E+00 0. -1.
         21   -1    0    0  502  503 -0.00000000000E+00 -0.00000000000E+00 -0.62672891396E+02  0.62672891396E+02  0.00000000000E+00 0. -1.
          6    1    1    2  501    0  0.53289525962E+00 -0.73374782968E+02  0.20343411506E+03  0.27694508828E+03  0.17300000000E+03 0.  1.
         -6    1    1    2    0  503 -0.53289525962E+00  0.73374782968E+02  0.31471414229E+03  0.36654895186E+03  0.17300000000E+03 0.  1.
<mgrwt>
<rscale>  2 0.18791791E+03</rscale>
<asrwt>0</asrwt>
<pdfrwt beam="1">  1       21 0.89357097E-01 0.18791791E+03</pdfrwt>
<pdfrwt beam="2">  1       21 0.96419836E-02 0.18791791E+03</pdfrwt>
<totfact> 0.92613855E+04</totfact>
</mgrwt>
</event>
<event>
 4    1  0.4336176E+000  0.2142011E+03  0.7546771E-02  0.1138282E+00
         21   -1    0    0  501  502  0.00000000000E+00  0.00000000000E+00  0.81817255050E+03  0.81817255050E+03  0.00000000000E+00 0. -1.
         21   -1    0    0  502  503 -0.00000000000E+00 -0.00000000000E+00 -0.83031488515E+02  0.83031488515E+02  0.00000000000E+00 0. -1.
          6    1    1    2  501    0 -0.68364618155E+02  0.10620440290E+03  0.62429847830E+03  0.66002324673E+03  0.17300000000E+03 0. -1.
         -6    1    1    2    0  503  0.68364618155E+02 -0.10620440290E+03  0.11084258369E+03  0.24118079229E+03  0.17300000000E+03 0. -1.
<mgrwt>
<rscale>  2 0.21420106E+03</rscale>
<asrwt>0</asrwt>
<pdfrwt beam="1">  1       21 0.12587269E+00 0.21420106E+03</pdfrwt>
<pdfrwt beam="2">  1       21 0.12774076E-01 0.21420106E+03</pdfrwt>
<totfact> 0.24271290E+04</totfact>
</mgrwt>
</event>
<event>
 4    1  0.4336176E+000  0.1859676E+03  0.7546771E-02  0.1162149E+00
         21   -1    0    0  503  502  0.00000000000E+00  0.00000000000E+00  0.15512893353E+04  0.15512893353E+04  0.00000000000E+00 0. -1.
         21   -1    0    0  501  503 -0.00000000000E+00 -0.00000000000E+00 -0.26231670898E+02  0.26231670898E+02  0.00000000000E+00 0.  1.
          6    1    1    2  501    0  0.14093848870E+02 -0.66755617131E+02  0.45691746942E+03  0.49331280427E+03  0.17300000000E+03 0.  1.
         -6    1    1    2    0  502 -0.14093848870E+02  0.66755617131E+02  0.10681401949E+04  0.10842082019E+04  0.17300000000E+03 0.  1.
<mgrwt>
<rscale>  2 0.18596760E+03</rscale>
<asrwt>0</asrwt>
<pdfrwt beam="1">  1       21 0.23865983E+00 0.18596760E+03</pdfrwt>
<pdfrwt beam="2">  1       21 0.40356429E-02 0.18596760E+03</pdfrwt>
<totfact> 0.30120667E+04</totfact>
</mgrwt>
</event>
<event>
 4    1  0.4336176E+000  0.2319037E+03  0.7546771E-02  0.1125307E+00
         21   -1    0    0  503  502  0.00000000000E+00  0.00000000000E+00  0.80240153898E+02  0.80240153898E+02  0.00000000000E+00 0.  1.
         21   -1    0    0  501  503 -0.00000000000E+00 -0.00000000000E+00 -0.67541927233E+03  0.67541927233E+03  0.00000000000E+00 0.  1.
          6    1    1    2  501    0 -0.10736325712E+03 -0.11101111913E+03 -0.33070827288E+03  0.40391496543E+03  0.17300000000E+03 0.  1.
         -6    1    1    2    0  502  0.10736325712E+03  0.11101111913E+03 -0.26447084555E+03  0.35174446079E+03  0.17300000000E+03 0.  1.
<mgrwt>
<rscale>  2 0.23190372E+03</rscale>
<asrwt>0</asrwt>
<pdfrwt beam="1">  1       21 0.12344639E-01 0.23190372E+03</pdfrwt>
<pdfrwt beam="2">  1       21 0.10391066E+00 0.23190372E+03</pdfrwt>
<totfact> 0.40955279E+04</totfact>
</mgrwt>
</event>
<event>
 4    1  0.4336176E+000  0.3404215E+03  0.7546771E-02  0.1066617E+00
         21   -1    0    0  503  502  0.00000000000E+00  0.00000000000E+00  0.50535669950E+03  0.50535669950E+03  0.00000000000E+00 0.  1.
         21   -1    0    0  501  503 -0.00000000000E+00 -0.00000000000E+00 -0.26559792957E+03  0.26559792957E+03  0.00000000000E+00 0.  1.
          6    1    1    2  501    0 -0.28410848303E+03 -0.72388934108E+02 -0.22591723223E+02  0.34117030039E+03  0.17300000000E+03 0.  1.
         -6    1    1    2    0  502  0.28410848303E+03  0.72388934108E+02  0.26235049316E+03  0.42978432867E+03  0.17300000000E+03 0.  1.
<mgrwt>
<rscale>  2 0.34042149E+03</rscale>
<asrwt>0</asrwt>
<pdfrwt beam="1">  1       21 0.77747184E-01 0.34042149E+03</pdfrwt>
<pdfrwt beam="2">  1       21 0.40861220E-01 0.34042149E+03</pdfrwt>
<totfact> 0.78035074E+03</totfact>
</mgrwt>
</event>
<event>
 4    1  0.4336176E+000  0.1877011E+03  0.7546771E-02  0.1160551E+00
         21   -1    0    0  501  502  0.00000000000E+00  0.00000000000E+00  0.22497178407E+03  0.22497178407E+03  0.00000000000E+00 0.  1.
         21   -1    0    0  502  503 -0.00000000000E+00 -0.00000000000E+00 -0.65428577448E+03  0.65428577448E+03  0.00000000000E+00 0.  1.
          6    1    1    2  501    0 -0.43980708615E+02 -0.58037899525E+02  0.16876570294E+03  0.25241545713E+03  0.17300000000E+03 0.  1.
         -6    1    1    2    0  503  0.43980708615E+02  0.58037899525E+02 -0.59807969335E+03  0.62684210141E+03  0.17300000000E+03 0.  1.
<mgrwt>
<rscale>  2 0.18770109E+03</rscale>
<asrwt>0</asrwt>
<pdfrwt beam="1">  1       21 0.34611044E-01 0.18770109E+03</pdfrwt>
<pdfrwt beam="2">  1       21 0.10065935E+00 0.18770109E+03</pdfrwt>
<totfact> 0.65274501E+03</totfact>
</mgrwt>
</event>
<event>
 4    1  0.4336176E+000  0.1741707E+03  0.7546771E-02  0.1173567E+00
         21   -1    0    0  501  502  0.00000000000E+00  0.00000000000E+00  0.14266729370E+04  0.14266729370E+04  0.00000000000E+00 0.  1.
         21   -1    0    0  502  503 -0.00000000000E+00 -0.00000000000E+00 -0.21411780682E+02  0.21411780682E+02  0.00000000000E+00 0.  1.
          6    1    1    2  501    0 -0.11228413997E+02  0.16744065401E+02  0.76297182948E+03  0.78259916533E+03  0.17300000000E+03 0.  1.
         -6    1    1    2    0  503  0.11228413997E+02 -0.16744065401E+02  0.64228932681E+03  0.66548555232E+03  0.17300000000E+03 0.  1.
<mgrwt>
<rscale>  2 0.17417072E+03</rscale>
<asrwt>0</asrwt>
<pdfrwt beam="1">  1       21 0.21948807E+00 0.17417072E+03</pdfrwt>
<pdfrwt beam="2">  1       21 0.32941212E-02 0.17417072E+03</pdfrwt>
<totfact> 0.55618652E+04</totfact>
</mgrwt>
</event>
<event>
 4    1  0.4336176E+000  0.2099434E+03  0.7546771E-02  0.1141611E+00
         21   -1    0    0  501  502  0.00000000000E+00  0.00000000000E+00  0.25603658698E+03  0.25603658698E+03  0.00000000000E+00 0. -1.
         21   -1    0    0  502  503 -0.00000000000E+00 -0.00000000000E+00 -0.71419192075E+03  0.71419192075E+03  0.00000000000E+00 0.  1.
          6    1    1    2  501    0 -0.11202853157E+03  0.39960240079E+02  0.19354595425E+03  0.28554552891E+03  0.17300000000E+03 0. -1.
         -6    1    1    2    0  503  0.11202853157E+03 -0.39960240079E+02 -0.65170128803E+03  0.68468297882E+03  0.17300000000E+03 0.  1.
<mgrwt>
<rscale>  2 0.20994336E+03</rscale>
<asrwt>0</asrwt>
<pdfrwt beam="1">  1       21 0.39390244E-01 0.20994336E+03</pdfrwt>
<pdfrwt beam="2">  1       21 0.10987568E+00 0.20994336E+03</pdfrwt>
<totfact> 0.40121690E+03</totfact>
</mgrwt>
</event>
<event>
 4    1  0.4336176E+000  0.1815771E+03  0.7546771E-02  0.1166285E+00
         21   -1    0    0  503  502  0.00000000000E+00  0.00000000000E+00  0.20859451163E+03  0.20859451163E+03  0.00000000000E+00 0. -1.
         21   -1    0    0  501  503 -0.00000000000E+00 -0.00000000000E+00 -0.52531386482E+03  0.52531386482E+03  0.00000000000E+00 0. -1.
          6    1    1    2  501    0 -0.12090141613E+02  0.53805858696E+02 -0.46518146007E+03  0.49936362778E+03  0.17300000000E+03 0. -1.
         -6    1    1    2    0  502  0.12090141613E+02 -0.53805858696E+02  0.14846210688E+03  0.23454474868E+03  0.17300000000E+03 0. -1.
<mgrwt>
<rscale>  2 0.18157710E+03</rscale>
<asrwt>0</asrwt>
<pdfrwt beam="1">  1       21 0.32091463E-01 0.18157710E+03</pdfrwt>
<pdfrwt beam="2">  1       21 0.80817517E-01 0.18157710E+03</pdfrwt>
<totfact> 0.12646318E+04</totfact>
</mgrwt>
</event>
<event>
 4    1  0.4336176E+000  0.1945674E+03  0.7546771E-02  0.1154405E+00
         21   -1    0    0  503  502  0.00000000000E+00  0.00000000000E+00  0.51294469176E+02  0.51294469176E+02  0.00000000000E+00 0.  1.
         21   -1    0    0  501  503 -0.00000000000E+00 -0.00000000000E+00 -0.76243155937E+03  0.76243155937E+03  0.00000000000E+00 0.  1.
          6    1    1    2  501    0  0.26559224788E+02  0.84982735980E+02 -0.42836761382E+03  0.47048408093E+03  0.17300000000E+03 0.  1.
         -6    1    1    2    0  502 -0.26559224788E+02 -0.84982735980E+02 -0.28276947637E+03  0.34324194761E+03  0.17300000000E+03 0.  1.
<mgrwt>
<rscale>  2 0.19456736E+03</rscale>
<asrwt>0</asrwt>
<pdfrwt beam="1">  1       21 0.78914568E-02 0.19456736E+03</pdfrwt>
<pdfrwt beam="2">  1       21 0.11729716E+00 0.19456736E+03</pdfrwt>
<totfact> 0.68585333E+04</totfact>
</mgrwt>
</event>
<event>
 4    1  0.4336176E+000  0.1879131E+03  0.7546771E-02  0.1160357E+00
         21   -1    0    0  501  502  0.00000000000E+00  0.00000000000E+00  0.11978099108E+04  0.11978099108E+04  0.00000000000E+00 0. -1.
         21   -1    0    0  502  503 -0.00000000000E+00 -0.00000000000E+00 -0.31351648890E+03  0.31351648890E+03  0.00000000000E+00 0. -1.
          6    1    1    2  501    0 -0.52822775051E+02  0.50912530574E+02  0.11614055608E+04  0.11765093319E+04  0.17300000000E+03 0. -1.
         -6    1    1    2    0  503  0.52822775051E+02 -0.50912530574E+02 -0.27711213894E+03  0.33481706778E+03  0.17300000000E+03 0. -1.
<mgrwt>
<rscale>  2 0.18791310E+03</rscale>
<asrwt>0</asrwt>
<pdfrwt beam="1">  1       21 0.18427845E+00 0.18791310E+03</pdfrwt>
<pdfrwt beam="2">  1       21 0.48233307E-01 0.18791310E+03</pdfrwt>
<totfact> 0.70296538E+02</totfact>
</mgrwt>
</event>
<event>
 4    1  0.4336176E+000  0.2122136E+03  0.7546771E-02  0.1139825E+00
         21   -1    0    0  503  502  0.00000000000E+00  0.00000000000E+00  0.79743067514E+02  0.79743067514E+02  0.00000000000E+00 0.  1.
         21   -1    0    0  501  503 -0.00000000000E+00 -0.00000000000E+00 -0.76521323561E+03  0.76521323561E+03  0.00000000000E+00 0.  1.
          6    1    1    2  501    0 -0.11828170272E+02  0.12233438594E+03 -0.55897423230E+03  0.59790199863E+03  0.17300000000E+03 0.  1.
         -6    1    1    2    0  502  0.11828170272E+02 -0.12233438594E+03 -0.12649593580E+03  0.24705430449E+03  0.17300000000E+03 0.  1.
<mgrwt>
<rscale>  2 0.21221359E+03</rscale>
<asrwt>0</asrwt>
<pdfrwt beam="1">  1       21 0.12268164E-01 0.21221359E+03</pdfrwt>
<pdfrwt beam="2">  1       21 0.11772511E+00 0.21221359E+03</pdfrwt>
<totfact> 0.30878963E+04</totfact>
</mgrwt>
</event>
<event>
 4    1  0.4336176E+000  0.1944293E+03  0.7546771E-02  0.1154526E+00
         21   -1    0    0  501  502  0.00000000000E+00  0.00000000000E+00  0.11972996692E+04  0.11972996692E+04  0.00000000000E+00 0. -1.
         21   -1    0    0  502  503 -0.00000000000E+00 -0.00000000000E+00 -0.62983291298E+02  0.62983291298E+02  0.00000000000E+00 0.  1.
          6    1    1    2  501    0  0.12454990599E+02  0.87855758140E+02  0.10121571101E+04  0.10306623000E+04  0.17300000000E+03 0. -1.
         -6    1    1    2    0  503 -0.12454990599E+02 -0.87855758140E+02  0.12215926777E+03  0.22962066051E+03  0.17300000000E+03 0.  1.
<mgrwt>
<rscale>  2 0.19442932E+03</rscale>
<asrwt>0</asrwt>
<pdfrwt beam="1">  1       21 0.18419993E+00 0.19442932E+03</pdfrwt>
<pdfrwt beam="2">  1       21 0.96897380E-02 0.19442932E+03</pdfrwt>
<totfact> 0.14602646E+04</totfact>
</mgrwt>
</event>
<event>
 4    1  0.4336176E+000  0.2256207E+03  0.7546771E-02  0.1129761E+00
         21   -1    0    0  503  502  0.00000000000E+00  0.00000000000E+00  0.25818453112E+03  0.25818453112E+03  0.00000000000E+00 0.  1.
         21   -1    0    0  501  503 -0.00000000000E+00 -0.00000000000E+00 -0.19971431609E+03  0.19971431609E+03  0.00000000000E+00 0. -1.
          6    1    1    2  501    0 -0.13500844461E+03 -0.52425276414E+02  0.55107325772E+02  0.23225310994E+03  0.17300000000E+03 0.  1.
         -6    1    1    2    0  502  0.13500844461E+03  0.52425276414E+02  0.33628892562E+01  0.22564573727E+03  0.17300000000E+03 0. -1.
<mgrwt>
<rscale>  2 0.22562068E+03</rscale>
<asrwt>0</asrwt>
<pdfrwt beam="1">  1       21 0.39720697E-01 0.22562068E+03</pdfrwt>
<pdfrwt beam="2">  1       21 0.30725279E-01 0.22562068E+03</pdfrwt>
<totfact> 0.61234342E+04</totfact>
</mgrwt>
</event>
<event>
 4    1  0.4336176E+000  0.2508727E+03  0.7546771E-02  0.1112755E+00
         21   -1    0    0  503  502  0.00000000000E+00  0.00000000000E+00  0.53898143598E+03  0.53898143598E+03  0.00000000000E+00 0. -1.
         21   -1    0    0  501  503 -0.00000000000E+00 -0.00000000000E+00 -0.12519961449E+03  0.12519961449E+03  0.00000000000E+00 0.  1.
          6    1    1    2  501    0 -0.14906383896E+03  0.10386558135E+03  0.12072249625E+03  0.27840798871E+03  0.17300000000E+03 0. -1.
         -6    1    1    2    0  502  0.14906383896E+03 -0.10386558135E+03  0.29305932524E+03  0.38577306176E+03  0.17300000000E+03 0.  1.
<mgrwt>
<rscale>  2 0.25087265E+03</rscale>
<asrwt>0</asrwt>
<pdfrwt beam="1">  1       21 0.82920219E-01 0.25087265E+03</pdfrwt>
<pdfrwt beam="2">  1       21 0.19261480E-01 0.25087265E+03</pdfrwt>
<totfact> 0.30480328E+04</totfact>
</mgrwt>
</event>
<event>
 4    1  0.4336176E+000  0.2187579E+03  0.7546771E-02  0.1134812E+00
         21   -1    0    0  501  502  0.00000000000E+00  0.00000000000E+00  0.77244909235E+03  0.77244909235E+03  0.00000000000E+00 0. -1.
         21   -1    0    0  502  503 -0.00000000000E+00 -0.00000000000E+00 -0.62126759480E+02  0.62126759480E+02  0.00000000000E+00 0.  1.
          6    1    1    2  501    0  0.72740772862E+02 -0.11240463226E+03  0.37727204032E+03  0.43610688346E+03  0.17300000000E+03 0. -1.
         -6    1    1    2    0  503 -0.72740772862E+02  0.11240463226E+03  0.33305029255E+03  0.39846896837E+03  0.17300000000E+03 0.  1.
<mgrwt>
<rscale>  2 0.21875791E+03</rscale>
<asrwt>0</asrwt>
<pdfrwt beam="1">  1       21 0.11883832E+00 0.21875791E+03</pdfrwt>
<pdfrwt beam="2">  1       21 0.95579635E-02 0.21875791E+03</pdfrwt>
<totfact> 0.46897281E+04</totfact>
</mgrwt>
</event>
<event>
 4    1  0.4336176E+000  0.1811426E+03  0.7546771E-02  0.1166702E+00
         21   -1    0    0  503  502  0.00000000000E+00  0.00000000000E+00  0.80677637813E+02  0.80677637813E+02  0.00000000000E+00 0. -1.
         21   -1    0    0  501  503 -0.00000000000E+00 -0.00000000000E+00 -0.65257583348E+03  0.65257583348E+03  0.00000000000E+00 0. -1.
          6    1    1    2  501    0 -0.14210943078E+02  0.51785001382E+02 -0.51098673264E+03  0.54214396447E+03  0.17300000000E+03 0. -1.
         -6    1    1    2    0  502  0.14210943078E+02 -0.51785001382E+02 -0.60911463024E+02  0.19110950683E+03  0.17300000000E+03 0. -1.
<mgrwt>
<rscale>  2 0.18114259E+03</rscale>
<asrwt>0</asrwt>
<pdfrwt beam="1">  1       21 0.12411944E-01 0.18114259E+03</pdfrwt>
<pdfrwt beam="2">  1       21 0.10039629E+00 0.18114259E+03</pdfrwt>
<totfact> 0.45190625E+04</totfact>
</mgrwt>
</event>
<event>
 4    1  0.4336176E+000  0.2349870E+03  0.7546771E-02  0.1123178E+00
         21   -1    0    0  503  502  0.00000000000E+00  0.00000000000E+00  0.20959812504E+03  0.20959812504E+03  0.00000000000E+00 0.  1.
         21   -1    0    0  501  503 -0.00000000000E+00 -0.00000000000E+00 -0.44506929962E+03  0.44506929962E+03  0.00000000000E+00 0. -1.
          6    1    1    2  501    0 -0.26623947136E+01  0.15900567410E+03 -0.32683672402E+03  0.40254333544E+03  0.17300000000E+03 0. -1.
         -6    1    1    2    0  502  0.26623947136E+01 -0.15900567410E+03  0.91365549436E+02  0.25212408922E+03  0.17300000000E+03 0. -1.
<mgrwt>
<rscale>  2 0.23498701E+03</rscale>
<asrwt>0</asrwt>
<pdfrwt beam="1">  1       21 0.32245865E-01 0.23498701E+03</pdfrwt>
<pdfrwt beam="2">  1       21 0.68472200E-01 0.23498701E+03</pdfrwt>
<totfact> 0.17558155E+04</totfact>
</mgrwt>
</event>
<event>
 4    1  0.4336176E+000  0.1908883E+03  0.7546771E-02  0.1157663E+00
         21   -1    0    0  503  502  0.00000000000E+00  0.00000000000E+00  0.30113954762E+03  0.30113954762E+03  0.00000000000E+00 0. -1.
         21   -1    0    0  501  503 -0.00000000000E+00 -0.00000000000E+00 -0.10234072703E+04  0.10234072703E+04  0.00000000000E+00 0.  1.
          6    1    1    2  501    0 -0.32219874293E+02  0.73967653661E+02 -0.98302447673E+03  0.10013867664E+04  0.17300000000E+03 0.  1.
         -6    1    1    2    0  502  0.32219874293E+02 -0.73967653661E+02  0.26075675407E+03  0.32316005149E+03  0.17300000000E+03 0. -1.
<mgrwt>
<rscale>  2 0.19088828E+03</rscale>
<asrwt>0</asrwt>
<pdfrwt beam="1">  1       21 0.46329161E-01 0.19088828E+03</pdfrwt>
<pdfrwt beam="2">  1       21 0.15744727E+00 0.19088828E+03</pdfrwt>
<totfact> 0.11752233E+03</totfact>
</mgrwt>
</event>
<event>
 4    1  0.4336176E+000  0.1956553E+03  0.7546771E-02  0.1153457E+00
         21   -1    0    0  501  502  0.00000000000E+00  0.00000000000E+00  0.17710973590E+04  0.17710973590E+04  0.00000000000E+00 0.  1.
         21   -1    0    0  502  503 -0.00000000000E+00 -0.00000000000E+00 -0.29019686512E+02  0.29019686512E+02  0.00000000000E+00 0.  1.
          6    1    1    2  501    0  0.86283006387E+02 -0.30120530507E+02  0.13257113365E+04  0.13400714724E+04  0.17300000000E+03 0.  1.
         -6    1    1    2    0  503 -0.86283006387E+02  0.30120530507E+02  0.41636633599E+03  0.46004557306E+03  0.17300000000E+03 0.  1.
<mgrwt>
<rscale>  2 0.19565532E+03</rscale>
<asrwt>0</asrwt>
<pdfrwt beam="1">  1       21 0.27247643E+00 0.19565532E+03</pdfrwt>
<pdfrwt beam="2">  1       21 0.44645685E-02 0.19565532E+03</pdfrwt>
<totfact> 0.15976155E+04</totfact>
</mgrwt>
</event>
<event>
 4    1  0.4336176E+000  0.2389088E+03  0.7546771E-02  0.1120522E+00
         21   -1    0    0  501  502  0.00000000000E+00  0.00000000000E+00  0.24885918744E+02  0.24885918744E+02  0.00000000000E+00 0. -1.
         21   -1    0    0  502  503 -0.00000000000E+00 -0.00000000000E+00 -0.22963336313E+04  0.22963336313E+04  0.00000000000E+00 0.  1.
          6    1    1    2  501    0 -0.82309466305E+02 -0.14273602681E+03 -0.10954094001E+04  0.11211597457E+04  0.17300000000E+03 0.  1.
         -6    1    1    2    0  503  0.82309466305E+02  0.14273602681E+03 -0.11760383124E+04  0.12000598043E+04  0.17300000000E+03 0. -1.
<mgrwt>
<rscale>  2 0.23890881E+03</rscale>
<asrwt>0</asrwt>
<pdfrwt beam="1">  1       21 0.38286010E-02 0.23890881E+03</pdfrwt>
<pdfrwt beam="2">  1       21 0.35328227E+00 0.23890881E+03</pdfrwt>
<totfact> 0.66934421E+03</totfact>
</mgrwt>
</event>
<event>
 4    1  0.4336176E+000  0.5021372E+03  0.7546771E-02  0.1013223E+00
         21   -1    0    0  501  502  0.00000000000E+00  0.00000000000E+00  0.19220819223E+03  0.19220819223E+03  0.00000000000E+00 0. -1.
         21   -1    0    0  502  503 -0.00000000000E+00 -0.00000000000E+00 -0.21212708755E+04  0.21212708755E+04  0.00000000000E+00 0.  1.
          6    1    1    2  501    0 -0.43606536783E+03  0.17905238839E+03 -0.24997930343E+03  0.56092015025E+03  0.17300000000E+03 0. -1.
         -6    1    1    2    0  503  0.43606536783E+03 -0.17905238839E+03 -0.16790833798E+04  0.17525589175E+04  0.17300000000E+03 0.  1.
<mgrwt>
<rscale>  2 0.50213720E+03</rscale>
<asrwt>0</asrwt>
<pdfrwt beam="1">  1       21 0.29570491E-01 0.50213720E+03</pdfrwt>
<pdfrwt beam="2">  1       21 0.32634936E+00 0.50213720E+03</pdfrwt>
<totfact> 0.19854989E+02</totfact>
</mgrwt>
</event>
<event>
 4    1  0.4336176E+000  0.1846109E+03  0.7546771E-02  0.1163414E+00
         21   -1    0    0  503  502  0.00000000000E+00  0.00000000000E+00  0.45876090016E+03  0.45876090016E+03  0.00000000000E+00 0.  1.
         21   -1    0    0  501  503 -0.00000000000E+00 -0.00000000000E+00 -0.22437651065E+03  0.22437651065E+03  0.00000000000E+00 0.  1.
          6    1    1    2  501    0  0.57165725694E+02 -0.29736800384E+02 -0.16216552784E+03  0.24572109374E+03  0.17300000000E+03 0.  1.
         -6    1    1    2    0  502 -0.57165725694E+02  0.29736800384E+02  0.39654991734E+03  0.43741631707E+03  0.17300000000E+03 0.  1.
<mgrwt>
<rscale>  2 0.18461094E+03</rscale>
<asrwt>0</asrwt>
<pdfrwt beam="1">  1       21 0.70578600E-01 0.18461094E+03</pdfrwt>
<pdfrwt beam="2">  1       21 0.34519463E-01 0.18461094E+03</pdfrwt>
<totfact> 0.14792454E+04</totfact>
</mgrwt>
</event>
<event>
 4    1  0.4336176E+000  0.3042490E+03  0.7546771E-02  0.1083136E+00
         21   -1    0    0  503  502  0.00000000000E+00  0.00000000000E+00  0.12690056504E+04  0.12690056504E+04  0.00000000000E+00 0.  1.
         21   -1    0    0  501  503 -0.00000000000E+00 -0.00000000000E+00 -0.79638849774E+02  0.79638849774E+02  0.00000000000E+00 0.  1.
          6    1    1    2  501    0  0.13094513654E+03 -0.21328809777E+03  0.39918307984E+03  0.50191092105E+03  0.17300000000E+03 0.  1.
         -6    1    1    2    0  502 -0.13094513654E+03  0.21328809777E+03  0.79018372083E+03  0.84673357917E+03  0.17300000000E+03 0.  1.
<mgrwt>
<rscale>  2 0.30424898E+03</rscale>
<asrwt>0</asrwt>
<pdfrwt beam="1">  1       21 0.19523162E+00 0.30424898E+03</pdfrwt>
<pdfrwt beam="2">  1       21 0.12252132E-01 0.30424898E+03</pdfrwt>
<totfact> 0.75404231E+03</totfact>
</mgrwt>
</event>
<event>
 4    1  0.4336176E+000  0.1787646E+03  0.7546771E-02  0.1169004E+00
         21   -1    0    0  501  502  0.00000000000E+00  0.00000000000E+00  0.67336733356E+03  0.67336733356E+03  0.00000000000E+00 0.  1.
         21   -1    0    0  502  503 -0.00000000000E+00 -0.00000000000E+00 -0.13107273851E+03  0.13107273851E+03  0.00000000000E+00 0.  1.
          6    1    1    2  501    0 -0.14181536087E+02  0.42739683045E+02  0.59240121496E+03  0.61878590478E+03  0.17300000000E+03 0.  1.
         -6    1    1    2    0  503  0.14181536087E+02 -0.42739683045E+02 -0.50106619911E+02  0.18565416729E+03  0.17300000000E+03 0.  1.
<mgrwt>
<rscale>  2 0.17876464E+03</rscale>
<asrwt>0</asrwt>
<pdfrwt beam="1">  1       21 0.10359497E+00 0.17876464E+03</pdfrwt>
<pdfrwt beam="2">  1       21 0.20165037E-01 0.17876464E+03</pdfrwt>
<totfact> 0.17306984E+04</totfact>
</mgrwt>
</event>
<event>
 4    1  0.4336176E+000  0.2764092E+03  0.7546771E-02  0.1097666E+00
         21   -1    0    0  503  502  0.00000000000E+00  0.00000000000E+00  0.15771476741E+03  0.15771476741E+03  0.00000000000E+00 0. -1.
         21   -1    0    0  501  503 -0.00000000000E+00 -0.00000000000E+00 -0.52297298440E+03  0.52297298440E+03  0.00000000000E+00 0.  1.
          6    1    1    2  501    0 -0.20490749213E+03 -0.66977385207E+02 -0.90235745052E+02  0.29076543836E+03  0.17300000000E+03 0. -1.
         -6    1    1    2    0  502  0.20490749213E+03  0.66977385207E+02 -0.27502247193E+03  0.38992231345E+03  0.17300000000E+03 0.  1.
<mgrwt>
<rscale>  2 0.27640921E+03</rscale>
<asrwt>0</asrwt>
<pdfrwt beam="1">  1       21 0.24263811E-01 0.27640921E+03</pdfrwt>
<pdfrwt beam="2">  1       21 0.80457381E-01 0.27640921E+03</pdfrwt>
<totfact> 0.20844135E+04</totfact>
</mgrwt>
</event>
<event>
 4    1  0.4336176E+000  0.2336515E+03  0.7546771E-02  0.1124096E+00
         21   -1    0    0  503  502  0.00000000000E+00  0.00000000000E+00  0.81166095411E+03  0.81166095411E+03  0.00000000000E+00 0. -1.
         21   -1    0    0  501  503 -0.00000000000E+00 -0.00000000000E+00 -0.67315129914E+02  0.67315129914E+02  0.00000000000E+00 0.  1.
          6    1    1    2  501    0  0.99395921448E+02 -0.12159138517E+03  0.35969423404E+03  0.42892068748E+03  0.17300000000E+03 0.  1.
         -6    1    1    2    0  502 -0.99395921448E+02  0.12159138517E+03  0.38465159016E+03  0.45005539655E+03  0.17300000000E+03 0. -1.
<mgrwt>
<rscale>  2 0.23365148E+03</rscale>
<asrwt>0</asrwt>
<pdfrwt beam="1">  1       21 0.12487091E+00 0.23365148E+03</pdfrwt>
<pdfrwt beam="2">  1       21 0.10356174E-01 0.23365148E+03</pdfrwt>
<totfact> 0.35674973E+04</totfact>
</mgrwt>
</event>
<event>
 4    1  0.4336176E+000  0.1939452E+03  0.7546771E-02  0.1154950E+00
         21   -1    0    0  503  502  0.00000000000E+00  0.00000000000E+00  0.36974940723E+02  0.36974940723E+02  0.00000000000E+00 0.  1.
         21   -1    0    0  501  503 -0.00000000000E+00 -0.00000000000E+00 -0.12207153091E+04  0.12207153091E+04  0.00000000000E+00 0. -1.
          6    1    1    2  501    0 -0.14707232142E+02 -0.86425879234E+02 -0.84856944756E+03  0.87045094211E+03  0.17300000000E+03 0. -1.
         -6    1    1    2    0  502  0.14707232142E+02  0.86425879234E+02 -0.33517092079E+03  0.38723930770E+03  0.17300000000E+03 0.  1.
<mgrwt>
<rscale>  2 0.19394519E+03</rscale>
<asrwt>0</asrwt>
<pdfrwt beam="1">  1       21 0.56884534E-02 0.19394519E+03</pdfrwt>
<pdfrwt beam="2">  1       21 0.18780232E+00 0.19394519E+03</pdfrwt>
<totfact> 0.34804704E+04</totfact>
</mgrwt>
</event>
<event>
 4    1  0.4336176E+000  0.2070479E+03  0.7546771E-02  0.1143925E+00
         21   -1    0    0  501  502  0.00000000000E+00  0.00000000000E+00  0.60766267808E+03  0.60766267808E+03  0.00000000000E+00 0. -1.
         21   -1    0    0  502  503 -0.00000000000E+00 -0.00000000000E+00 -0.77252569221E+02  0.77252569221E+02  0.00000000000E+00 0. -1.
          6    1    1    2  501    0 -0.11367697914E+03 -0.41670693894E+01  0.16431089945E+03  0.26432346043E+03  0.17300000000E+03 0. -1.
         -6    1    1    2    0  503  0.11367697914E+03  0.41670693894E+01  0.36609920941E+03  0.42059178687E+03  0.17300000000E+03 0. -1.
<mgrwt>
<rscale>  2 0.20704787E+03</rscale>
<asrwt>0</asrwt>
<pdfrwt beam="1">  1       21 0.93486563E-01 0.20704787E+03</pdfrwt>
<pdfrwt beam="2">  1       21 0.11885011E-01 0.20704787E+03</pdfrwt>
<totfact> 0.57015092E+04</totfact>
</mgrwt>
</event>
<event>
 4    1  0.4336176E+000  0.2176032E+03  0.7546771E-02  0.1135683E+00
         21   -1    0    0  501  502  0.00000000000E+00  0.00000000000E+00  0.63996143757E+03  0.63996143757E+03  0.00000000000E+00 0.  1.
         21   -1    0    0  502  503 -0.00000000000E+00 -0.00000000000E+00 -0.95875867874E+02  0.95875867874E+02  0.00000000000E+00 0.  1.
          6    1    1    2  501    0  0.39055663415E+01  0.13193528573E+03  0.44782398659E+03  0.49789305682E+03  0.17300000000E+03 0.  1.
         -6    1    1    2    0  503 -0.39055663415E+01 -0.13193528573E+03  0.96261583108E+02  0.23794424862E+03  0.17300000000E+03 0.  1.
<mgrwt>
<rscale>  2 0.21760325E+03</rscale>
<asrwt>0</asrwt>
<pdfrwt beam="1">  1       21 0.98455603E-01 0.21760325E+03</pdfrwt>
<pdfrwt beam="2">  1       21 0.14750134E-01 0.21760325E+03</pdfrwt>
<totfact> 0.33985282E+04</totfact>
</mgrwt>
</event>
<event>
 4    1  0.4336176E+000  0.1794466E+03  0.7546771E-02  0.1168340E+00
         21   -1    0    0  501  502  0.00000000000E+00  0.00000000000E+00  0.48903176495E+03  0.48903176495E+03  0.00000000000E+00 0. -1.
         21   -1    0    0  502  503 -0.00000000000E+00 -0.00000000000E+00 -0.92087615418E+02  0.92087615418E+02  0.00000000000E+00 0. -1.
          6    1    1    2  501    0  0.13970695103E+02  0.45572902614E+02  0.35357687001E+03  0.39650683825E+03  0.17300000000E+03 0. -1.
         -6    1    1    2    0  503 -0.13970695103E+02 -0.45572902614E+02  0.43367279526E+02  0.18461254212E+03  0.17300000000E+03 0. -1.
<mgrwt>
<rscale>  2 0.17944657E+03</rscale>
<asrwt>0</asrwt>
<pdfrwt beam="1">  1       21 0.75235654E-01 0.17944657E+03</pdfrwt>
<pdfrwt beam="2">  1       21 0.14167326E-01 0.17944657E+03</pdfrwt>
<totfact> 0.69105769E+04</totfact>
</mgrwt>
</event>
<event>
 4    1  0.4336176E+000  0.2664517E+03  0.7546771E-02  0.1103328E+00
         21   -1    0    0  501  502  0.00000000000E+00  0.00000000000E+00  0.20962376060E+04  0.20962376060E+04  0.00000000000E+00 0. -1.
         21   -1    0    0  502  503 -0.00000000000E+00 -0.00000000000E+00 -0.35556009126E+02  0.35556009126E+02  0.00000000000E+00 0. -1.
          6    1    1    2  501    0  0.19452086094E+03 -0.56825367050E+02  0.12625491169E+04  0.12903591594E+04  0.17300000000E+03 0. -1.
         -6    1    1    2    0  503 -0.19452086094E+03  0.56825367050E+02  0.79813247997E+03  0.84143445571E+03  0.17300000000E+03 0. -1.
<mgrwt>
<rscale>  2 0.26645166E+03</rscale>
<asrwt>0</asrwt>
<pdfrwt beam="1">  1       21 0.32249800E+00 0.26645166E+03</pdfrwt>
<pdfrwt beam="2">  1       21 0.54701569E-02 0.26645166E+03</pdfrwt>
<totfact> 0.54210423E+03</totfact>
</mgrwt>
</event>
<event>
 4    1  0.4336176E+000  0.1872515E+03  0.7546771E-02  0.1160964E+00
         21   -1    0    0  503  502  0.00000000000E+00  0.00000000000E+00  0.45137601843E+02  0.45137601843E+02  0.00000000000E+00 0. -1.
         21   -1    0    0  501  503 -0.00000000000E+00 -0.00000000000E+00 -0.10037049527E+04  0.10037049527E+04  0.00000000000E+00 0. -1.
          6    1    1    2  501    0  0.65064672820E+02 -0.30012159284E+02 -0.72862479773E+03  0.75230129418E+03  0.17300000000E+03 0. -1.
         -6    1    1    2    0  502 -0.65064672820E+02  0.30012159284E+02 -0.22994255308E+03  0.29654126032E+03  0.17300000000E+03 0. -1.
<mgrwt>
<rscale>  2 0.18725155E+03</rscale>
<asrwt>0</asrwt>
<pdfrwt beam="1">  1       21 0.69442464E-02 0.18725155E+03</pdfrwt>
<pdfrwt beam="2">  1       21 0.15441615E+00 0.18725155E+03</pdfrwt>
<totfact> 0.42592451E+04</totfact>
</mgrwt>
</event>
<event>
 4    1  0.4336176E+000  0.2178482E+03  0.7546771E-02  0.1135498E+00
         21   -1    0    0  501  502  0.00000000000E+00  0.00000000000E+00  0.28439210834E+03  0.28439210834E+03  0.00000000000E+00 0.  1.
         21   -1    0    0  502  503 -0.00000000000E+00 -0.00000000000E+00 -0.16901148541E+03  0.16901148541E+03  0.00000000000E+00 0.  1.
          6    1    1    2  501    0  0.11771273898E+03 -0.60601399781E+02  0.83181362185E+02  0.23318867380E+03  0.17300000000E+03 0.  1.
         -6    1    1    2    0  503 -0.11771273898E+03  0.60601399781E+02  0.32199260746E+02  0.22021491994E+03  0.17300000000E+03 0.  1.
<mgrwt>
<rscale>  2 0.21784815E+03</rscale>
<asrwt>0</asrwt>
<pdfrwt beam="1">  1       21 0.43752632E-01 0.21784815E+03</pdfrwt>
<pdfrwt beam="2">  1       21 0.26001767E-01 0.21784815E+03</pdfrwt>
<totfact> 0.69755472E+04</totfact>
</mgrwt>
</event>
<event>
 4    1  0.4336176E+000  0.1746762E+03  0.7546771E-02  0.1173057E+00
         21   -1    0    0  501  502  0.00000000000E+00  0.00000000000E+00  0.14504322814E+04  0.14504322814E+04  0.00000000000E+00 0.  1.
         21   -1    0    0  502  503 -0.00000000000E+00 -0.00000000000E+00 -0.39883251757E+02  0.39883251757E+02  0.00000000000E+00 0.  1.
          6    1    1    2  501    0 -0.14237647576E+02 -0.19495604698E+02  0.19303505556E+03  0.26033501856E+03  0.17300000000E+03 0.  1.
         -6    1    1    2    0  503  0.14237647576E+02  0.19495604698E+02  0.12175139741E+04  0.12299805146E+04  0.17300000000E+03 0.  1.
<mgrwt>
<rscale>  2 0.17467624E+03</rscale>
<asrwt>0</asrwt>
<pdfrwt beam="1">  1       21 0.22314339E+00 0.17467624E+03</pdfrwt>
<pdfrwt beam="2">  1       21 0.61358860E-02 0.17467624E+03</pdfrwt>
<totfact> 0.18542032E+04</totfact>
</mgrwt>
</event>
<event>
 4    1  0.4336176E+000  0.2331632E+03  0.7546771E-02  0.1124433E+00
         21   -1    0    0  503  502  0.00000000000E+00  0.00000000000E+00  0.13221267361E+03  0.13221267361E+03  0.00000000000E+00 0. -1.
         21   -1    0    0  501  503 -0.00000000000E+00 -0.00000000000E+00 -0.55155113786E+03  0.55155113786E+03  0.00000000000E+00 0.  1.
          6    1    1    2  501    0  0.15120967273E+03  0.39644591988E+02 -0.38213403146E+03  0.44765106590E+03  0.17300000000E+03 0.  1.
         -6    1    1    2    0  502 -0.15120967273E+03 -0.39644591988E+02 -0.37204432782E+02  0.23611274557E+03  0.17300000000E+03 0. -1.
<mgrwt>
<rscale>  2 0.23316316E+03</rscale>
<asrwt>0</asrwt>
<pdfrwt beam="1">  1       21 0.20340411E-01 0.23316316E+03</pdfrwt>
<pdfrwt beam="2">  1       21 0.84854022E-01 0.23316316E+03</pdfrwt>
<totfact> 0.26317253E+04</totfact>
</mgrwt>
</event>
<event>
 4    1  0.4336176E+000  0.1810766E+03  0.7546771E-02  0.1166765E+00
         21   -1    0    0  501  502  0.00000000000E+00  0.00000000000E+00  0.15712754937E+03  0.15712754937E+03  0.00000000000E+00 0.  1.
         21   -1    0    0  502  503 -0.00000000000E+00 -0.00000000000E+00 -0.21429364065E+03  0.21429364065E+03  0.00000000000E+00 0.  1.
          6    1    1    2  501    0  0.40584361374E+02  0.34822983416E+02  0.14855696266E+01  0.18108268133E+03  0.17300000000E+03 0.  1.
         -6    1    1    2    0  503 -0.40584361374E+02 -0.34822983416E+02 -0.58651660902E+02  0.19033850869E+03  0.17300000000E+03 0.  1.
<mgrwt>
<rscale>  2 0.18107659E+03</rscale>
<asrwt>0</asrwt>
<pdfrwt beam="1">  1       21 0.24173469E-01 0.18107659E+03</pdfrwt>
<pdfrwt beam="2">  1       21 0.32968252E-01 0.18107659E+03</pdfrwt>
<totfact> 0.14357938E+05</totfact>
</mgrwt>
</event>
<event>
 4    1  0.4336176E+000  0.2195562E+03  0.7546771E-02  0.1134214E+00
         21   -1    0    0  501  502  0.00000000000E+00  0.00000000000E+00  0.26020711352E+03  0.26020711352E+03  0.00000000000E+00 0.  1.
         21   -1    0    0  502  503 -0.00000000000E+00 -0.00000000000E+00 -0.20765577406E+03  0.20765577406E+03  0.00000000000E+00 0. -1.
          6    1    1    2  501    0 -0.11132171495E+03  0.76703214471E+02  0.10310715388E+03  0.24256131701E+03  0.17300000000E+03 0. -1.
         -6    1    1    2    0  503  0.11132171495E+03 -0.76703214471E+02 -0.50555814420E+02  0.22530157057E+03  0.17300000000E+03 0. -1.
<mgrwt>
<rscale>  2 0.21955616E+03</rscale>
<asrwt>0</asrwt>
<pdfrwt beam="1">  1       21 0.40031863E-01 0.21955616E+03</pdfrwt>
<pdfrwt beam="2">  1       21 0.31947042E-01 0.21955616E+03</pdfrwt>
<totfact> 0.55970350E+04</totfact>
</mgrwt>
</event>
<event>
 4    1  0.4336176E+000  0.1759762E+03  0.7546771E-02  0.1171755E+00
         21   -1    0    0  503  502  0.00000000000E+00  0.00000000000E+00  0.16788485720E+03  0.16788485720E+03  0.00000000000E+00 0. -1.
         21   -1    0    0  501  503 -0.00000000000E+00 -0.00000000000E+00 -0.19555843637E+03  0.19555843637E+03  0.00000000000E+00 0. -1.
          6    1    1    2  501    0 -0.46943816855E+01  0.31884149816E+02 -0.57132654868E+02  0.18501831391E+03  0.17300000000E+03 0. -1.
         -6    1    1    2    0  502  0.46943816855E+01 -0.31884149816E+02  0.29459075695E+02  0.17842497967E+03  0.17300000000E+03 0. -1.
<mgrwt>
<rscale>  2 0.17597624E+03</rscale>
<asrwt>0</asrwt>
<pdfrwt beam="1">  1       21 0.25828440E-01 0.17597624E+03</pdfrwt>
<pdfrwt beam="2">  1       21 0.30085913E-01 0.17597624E+03</pdfrwt>
<totfact> 0.15161895E+05</totfact>
</mgrwt>
</event>
<event>
 4    1  0.4336176E+000  0.2101661E+03  0.7546771E-02  0.1141435E+00
         21   -1    0    0  501  502  0.00000000000E+00  0.00000000000E+00  0.34287560329E+02  0.34287560329E+02  0.00000000000E+00 0. -1.
         21   -1    0    0  502  503 -0.00000000000E+00 -0.00000000000E+00 -0.13598058045E+04  0.13598058045E+04  0.00000000000E+00 0. -1.
          6    1    1    2  501    0 -0.84955584305E+02  0.83805400730E+02 -0.50282251241E+03  0.54497731648E+03  0.17300000000E+03 0. -1.
         -6    1    1    2    0  503  0.84955584305E+02 -0.83805400730E+02 -0.82269573173E+03  0.84911604831E+03  0.17300000000E+03 0. -1.
<mgrwt>
<rscale>  2 0.21016612E+03</rscale>
<asrwt>0</asrwt>
<pdfrwt beam="1">  1       21 0.52750098E-02 0.21016612E+03</pdfrwt>
<pdfrwt beam="2">  1       21 0.20920087E+00 0.21016612E+03</pdfrwt>
<totfact> 0.28467962E+04</totfact>
</mgrwt>
</event>
<event>
 4    1  0.4336176E+000  0.1832661E+03  0.7546771E-02  0.1164679E+00
         21   -1    0    0  503  502  0.00000000000E+00  0.00000000000E+00  0.62151313805E+03  0.62151313805E+03  0.00000000000E+00 0. -1.
         21   -1    0    0  501  503 -0.00000000000E+00 -0.00000000000E+00 -0.73392015758E+02  0.73392015758E+02  0.00000000000E+00 0.  1.
          6    1    1    2  501    0 -0.58433730018E+02 -0.15587647740E+02  0.95643682169E+02  0.20672249395E+03  0.17300000000E+03 0.  1.
         -6    1    1    2    0  502  0.58433730018E+02  0.15587647740E+02  0.45247744012E+03  0.48818265985E+03  0.17300000000E+03 0. -1.
<mgrwt>
<rscale>  2 0.18326613E+03</rscale>
<asrwt>0</asrwt>
<pdfrwt beam="1">  1       21 0.95617402E-01 0.18326613E+03</pdfrwt>
<pdfrwt beam="2">  1       21 0.11291080E-01 0.18326613E+03</pdfrwt>
<totfact> 0.59953355E+04</totfact>
</mgrwt>
</event>
<event>
 4    1  0.4336176E+000  0.1791654E+03  0.7546771E-02  0.1168613E+00
         21   -1    0    0  501  502  0.00000000000E+00  0.00000000000E+00  0.51607364749E+03  0.51607364749E+03  0.00000000000E+00 0. -1.
         21   -1    0    0  502  503 -0.00000000000E+00 -0.00000000000E+00 -0.72334936571E+02  0.72334936571E+02  0.00000000000E+00 0. -1.
          6    1    1    2  501    0 -0.22361497474E+02 -0.40880349843E+02  0.33198941177E+03  0.37724953161E+03  0.17300000000E+03 0. -1.
         -6    1    1    2    0  503  0.22361497474E+02  0.40880349843E+02  0.11174929915E+03  0.21115905246E+03  0.17300000000E+03 0. -1.
<mgrwt>
<rscale>  2 0.17916540E+03</rscale>
<asrwt>0</asrwt>
<pdfrwt beam="1">  1       21 0.79395943E-01 0.17916540E+03</pdfrwt>
<pdfrwt beam="2">  1       21 0.11128452E-01 0.17916540E+03</pdfrwt>
<totfact> 0.94435409E+04</totfact>
</mgrwt>
</event>
<event>
 4    1  0.4336176E+000  0.1824522E+03  0.7546771E-02  0.1165451E+00
         21   -1    0    0  501  502  0.00000000000E+00  0.00000000000E+00  0.26369335240E+02  0.26369335240E+02  0.00000000000E+00 0.  1.
         21   -1    0    0  502  503 -0.00000000000E+00 -0.00000000000E+00 -0.12636859772E+04  0.12636859772E+04  0.00000000000E+00 0.  1.
          6    1    1    2  501    0  0.15650819139E+02 -0.55810794094E+02 -0.59812539397E+03  0.62533413451E+03  0.17300000000E+03 0. -1.
         -6    1    1    2    0  503 -0.15650819139E+02  0.55810794094E+02 -0.63919124802E+03  0.66472117796E+03  0.17300000000E+03 0. -1.
<mgrwt>
<rscale>  2 0.18245217E+03</rscale>
<asrwt>0</asrwt>
<pdfrwt beam="1">  1       21 0.40568203E-02 0.18245217E+03</pdfrwt>
<pdfrwt beam="2">  1       21 0.19441325E+00 0.18245217E+03</pdfrwt>
<totfact> 0.56202818E+04</totfact>
</mgrwt>
</event>
<event>
 4    1  0.4336176E+000  0.2199979E+03  0.7546771E-02  0.1133885E+00
         21   -1    0    0  503  502  0.00000000000E+00  0.00000000000E+00  0.89633863676E+02  0.89633863676E+02  0.00000000000E+00 0.  1.
         21   -1    0    0  501  503 -0.00000000000E+00 -0.00000000000E+00 -0.61255229482E+03  0.61255229482E+03  0.00000000000E+00 0. -1.
          6    1    1    2  501    0  0.10020492330E+03 -0.91809937629E+02 -0.38231930776E+03  0.44109765856E+03  0.17300000000E+03 0.  1.
         -6    1    1    2    0  502 -0.10020492330E+03  0.91809937629E+02 -0.14059912338E+03  0.26108849993E+03  0.17300000000E+03 0.  1.
<mgrwt>
<rscale>  2 0.21999793E+03</rscale>
<asrwt>0</asrwt>
<pdfrwt beam="1">  1       21 0.13789825E-01 0.21999793E+03</pdfrwt>
<pdfrwt beam="2">  1       21 0.94238817E-01 0.21999793E+03</pdfrwt>
<totfact> 0.42536300E+04</totfact>
</mgrwt>
</event>
<event>
 4    1  0.4336176E+000  0.2400034E+03  0.7546771E-02  0.1119791E+00
         21   -1    0    0  503  502  0.00000000000E+00  0.00000000000E+00  0.17825052885E+03  0.17825052885E+03  0.00000000000E+00 0.  1.
         21   -1    0    0  501  503 -0.00000000000E+00 -0.00000000000E+00 -0.38690750828E+03  0.38690750828E+03  0.00000000000E+00 0. -1.
          6    1    1    2  501    0  0.28027014543E+02 -0.16397298167E+03 -0.21903871134E+03  0.32493016069E+03  0.17300000000E+03 0.  1.
         -6    1    1    2    0  502 -0.28027014543E+02  0.16397298167E+03  0.10381731903E+02  0.24022787644E+03  0.17300000000E+03 0.  1.
<mgrwt>
<rscale>  2 0.24000344E+03</rscale>
<asrwt>0</asrwt>
<pdfrwt beam="1">  1       21 0.27423159E-01 0.24000344E+03</pdfrwt>
<pdfrwt beam="2">  1       21 0.59524231E-01 0.24000344E+03</pdfrwt>
<totfact> 0.32643370E+04</totfact>
</mgrwt>
</event>
<event>
 4    1  0.4336176E+000  0.1750587E+03  0.7546771E-02  0.1172673E+00
         21   -1    0    0  501  502  0.00000000000E+00  0.00000000000E+00  0.60845731368E+03  0.60845731368E+03  0.00000000000E+00 0. -1.
         21   -1    0    0  502  503 -0.00000000000E+00 -0.00000000000E+00 -0.18506160802E+03  0.18506160802E+03  0.00000000000E+00 0. -1.
          6    1    1    2  501    0 -0.73652007170E+01 -0.25735168950E+02  0.55018788606E+03  0.57736665566E+03  0.17300000000E+03 0. -1.
         -6    1    1    2    0  503  0.73652007170E+01  0.25735168950E+02 -0.12679218040E+03  0.21615226604E+03  0.17300000000E+03 0. -1.
<mgrwt>
<rscale>  2 0.17505869E+03</rscale>
<asrwt>0</asrwt>
<pdfrwt beam="1">  1       21 0.93608816E-01 0.17505869E+03</pdfrwt>
<pdfrwt beam="2">  1       21 0.28471017E-01 0.17505869E+03</pdfrwt>
<totfact> 0.11450435E+04</totfact>
</mgrwt>
</event>
<event>
 4    1  0.4336176E+000  0.2323566E+03  0.7546771E-02  0.1124992E+00
         21   -1    0    0  501  502  0.00000000000E+00  0.00000000000E+00  0.35983330696E+03  0.35983330696E+03  0.00000000000E+00 0.  1.
         21   -1    0    0  502  503 -0.00000000000E+00 -0.00000000000E+00 -0.16222329613E+03  0.16222329613E+03  0.00000000000E+00 0.  1.
          6    1    1    2  501    0  0.28717348098E+02  0.15243321854E+03  0.17033765823E+03  0.28810499823E+03  0.17300000000E+03 0.  1.
         -6    1    1    2    0  503 -0.28717348098E+02 -0.15243321854E+03  0.27272352603E+02  0.23395160485E+03  0.17300000000E+03 0.  1.
<mgrwt>
<rscale>  2 0.23235656E+03</rscale>
<asrwt>0</asrwt>
<pdfrwt beam="1">  1       21 0.55358970E-01 0.23235656E+03</pdfrwt>
<pdfrwt beam="2">  1       21 0.24957430E-01 0.23235656E+03</pdfrwt>
<totfact> 0.45880970E+04</totfact>
</mgrwt>
</event>
<event>
 4    1  0.4336176E+000  0.2258128E+03  0.7546771E-02  0.1129622E+00
         21   -1    0    0  501  502  0.00000000000E+00  0.00000000000E+00  0.51827738638E+02  0.51827738638E+02  0.00000000000E+00 0. -1.
         21   -1    0    0  502  503 -0.00000000000E+00 -0.00000000000E+00 -0.98741144814E+03  0.98741144814E+03  0.00000000000E+00 0.  1.
          6    1    1    2  501    0 -0.14508365037E+03  0.36295933635E+01 -0.49893786139E+03  0.54765904456E+03  0.17300000000E+03 0.  1.
         -6    1    1    2    0  503  0.14508365037E+03 -0.36295933635E+01 -0.43664584810E+03  0.49158014221E+03  0.17300000000E+03 0. -1.
<mgrwt>
<rscale>  2 0.22581284E+03</rscale>
<asrwt>0</asrwt>
<pdfrwt beam="1">  1       21 0.79734985E-02 0.22581284E+03</pdfrwt>
<pdfrwt beam="2">  1       21 0.15190945E+00 0.22581284E+03</pdfrwt>
<totfact> 0.34217672E+04</totfact>
</mgrwt>
</event>
<event>
 4    1  0.4336176E+000  0.2355985E+03  0.7546771E-02  0.1122760E+00
         21   -1    0    0  503  502  0.00000000000E+00  0.00000000000E+00  0.15658654264E+03  0.15658654264E+03  0.00000000000E+00 0. -1.
         21   -1    0    0  501  503 -0.00000000000E+00 -0.00000000000E+00 -0.55549329293E+03  0.55549329293E+03  0.00000000000E+00 0. -1.
          6    1    1    2  501    0  0.13046762979E+03 -0.92497857076E+02 -0.41363028513E+03  0.47602171039E+03  0.17300000000E+03 0. -1.
         -6    1    1    2    0  502 -0.13046762979E+03  0.92497857076E+02  0.14723534845E+02  0.23605812518E+03  0.17300000000E+03 0. -1.
<mgrwt>
<rscale>  2 0.23559851E+03</rscale>
<asrwt>0</asrwt>
<pdfrwt beam="1">  1       21 0.24090237E-01 0.23559851E+03</pdfrwt>
<pdfrwt beam="2">  1       21 0.85460507E-01 0.23559851E+03</pdfrwt>
<totfact> 0.18764667E+04</totfact>
</mgrwt>
</event>
<event>
 4    1  0.4336176E+000  0.1970799E+03  0.7546771E-02  0.1152226E+00
         21   -1    0    0  503  502  0.00000000000E+00  0.00000000000E+00  0.37131993995E+03  0.37131993995E+03  0.00000000000E+00 0. -1.
         21   -1    0    0  501  503 -0.00000000000E+00 -0.00000000000E+00 -0.11194361173E+03  0.11194361173E+03  0.00000000000E+00 0. -1.
          6    1    1    2  501    0 -0.62513615120E+02  0.70735590078E+02  0.67804419568E+02  0.20841764583E+03  0.17300000000E+03 0. -1.
         -6    1    1    2    0  502  0.62513615120E+02 -0.70735590078E+02  0.19157190865E+03  0.27484590585E+03  0.17300000000E+03 0. -1.
<mgrwt>
<rscale>  2 0.19707987E+03</rscale>
<asrwt>0</asrwt>
<pdfrwt beam="1">  1       21 0.57126144E-01 0.19707987E+03</pdfrwt>
<pdfrwt beam="2">  1       21 0.17222094E-01 0.19707987E+03</pdfrwt>
<totfact> 0.87502170E+04</totfact>
</mgrwt>
</event>
<event>
 4    1  0.4336176E+000  0.3447529E+03  0.7546771E-02  0.1064790E+00
         21   -1    0    0  501  502  0.00000000000E+00  0.00000000000E+00  0.39535714702E+03  0.39535714702E+03  0.00000000000E+00 0. -1.
         21   -1    0    0  502  503 -0.00000000000E+00 -0.00000000000E+00 -0.31277692794E+03  0.31277692794E+03  0.00000000000E+00 0.  1.
          6    1    1    2  501    0 -0.34608464052E+01 -0.29818378863E+03 -0.28497265258E+02  0.34592866806E+03  0.17300000000E+03 0. -1.
         -6    1    1    2    0  503  0.34608464052E+01  0.29818378863E+03  0.11107748433E+03  0.36220540690E+03  0.17300000000E+03 0. -1.
<mgrwt>
<rscale>  2 0.34475288E+03</rscale>
<asrwt>0</asrwt>
<pdfrwt beam="1">  1       21 0.60824176E-01 0.34475288E+03</pdfrwt>
<pdfrwt beam="2">  1       21 0.48119528E-01 0.34475288E+03</pdfrwt>
<totfact> 0.95901406E+03</totfact>
</mgrwt>
</event>
<event>
 4    1  0.4336176E+000  0.1892773E+03  0.7546771E-02  0.1159115E+00
         21   -1    0    0  501  502  0.00000000000E+00  0.00000000000E+00  0.75854084994E+02  0.75854084994E+02  0.00000000000E+00 0.  1.
         21   -1    0    0  502  503 -0.00000000000E+00 -0.00000000000E+00 -0.47561839189E+03  0.47561839189E+03  0.00000000000E+00 0.  1.
          6    1    1    2  501    0  0.69933221348E+02  0.31721471978E+02 -0.17685137509E+03  0.25904114751E+03  0.17300000000E+03 0.  1.
         -6    1    1    2    0  503 -0.69933221348E+02 -0.31721471978E+02 -0.22291293181E+03  0.29243132937E+03  0.17300000000E+03 0.  1.
<mgrwt>
<rscale>  2 0.18927733E+03</rscale>
<asrwt>0</asrwt>
<pdfrwt beam="1">  1       21 0.11669860E-01 0.18927733E+03</pdfrwt>
<pdfrwt beam="2">  1       21 0.73172057E-01 0.18927733E+03</pdfrwt>
<totfact> 0.10374714E+05</totfact>
</mgrwt>
</event>
<event>
 4    1  0.4336176E+000  0.1838720E+03  0.7546771E-02  0.1164107E+00
         21   -1    0    0  501  502  0.00000000000E+00  0.00000000000E+00  0.88552656489E+03  0.88552656489E+03  0.00000000000E+00 0. -1.
         21   -1    0    0  502  503 -0.00000000000E+00 -0.00000000000E+00 -0.41172952233E+02  0.41172952233E+02  0.00000000000E+00 0. -1.
          6    1    1    2  501    0  0.61597562501E+02 -0.92546614457E+01  0.54711448895E+03  0.57718556157E+03  0.17300000000E+03 0. -1.
         -6    1    1    2    0  503 -0.61597562501E+02  0.92546614457E+01  0.29723912370E+03  0.34951395555E+03  0.17300000000E+03 0. -1.
<mgrwt>
<rscale>  2 0.18387199E+03</rscale>
<asrwt>0</asrwt>
<pdfrwt beam="1">  1       21 0.13623484E+00 0.18387199E+03</pdfrwt>
<pdfrwt beam="2">  1       21 0.63343010E-02 0.18387199E+03</pdfrwt>
<totfact> 0.69266531E+04</totfact>
</mgrwt>
</event>
<event>
 4    1  0.4336176E+000  0.1798500E+03  0.7546771E-02  0.1167948E+00
         21   -1    0    0  501  502  0.00000000000E+00  0.00000000000E+00  0.35770441509E+03  0.35770441509E+03  0.00000000000E+00 0.  1.
         21   -1    0    0  502  503 -0.00000000000E+00 -0.00000000000E+00 -0.11995187294E+03  0.11995187294E+03  0.00000000000E+00 0.  1.
          6    1    1    2  501    0  0.34878580381E+02 -0.34648121100E+02  0.23736544391E+03  0.29780591268E+03  0.17300000000E+03 0.  1.
         -6    1    1    2    0  503 -0.34878580381E+02  0.34648121100E+02  0.38709823698E+00  0.17985037534E+03  0.17300000000E+03 0.  1.
<mgrwt>
<rscale>  2 0.17984996E+03</rscale>
<asrwt>0</asrwt>
<pdfrwt beam="1">  1       21 0.55031448E-01 0.17984996E+03</pdfrwt>
<pdfrwt beam="2">  1       21 0.18454135E-01 0.17984996E+03</pdfrwt>
<totfact> 0.83957940E+04</totfact>
</mgrwt>
</event>
<event>
 4    1  0.4336176E+000  0.2506280E+03  0.7546771E-02  0.1112909E+00
         21   -1    0    0  501  502  0.00000000000E+00  0.00000000000E+00  0.48026365982E+03  0.48026365982E+03  0.00000000000E+00 0.  1.
         21   -1    0    0  502  503 -0.00000000000E+00 -0.00000000000E+00 -0.20113138565E+03  0.20113138565E+03  0.00000000000E+00 0. -1.
          6    1    1    2  501    0  0.14722124589E+03 -0.10588343875E+03  0.34104520103E+03  0.42323306462E+03  0.17300000000E+03 0.  1.
         -6    1    1    2    0  503 -0.14722124589E+03  0.10588343875E+03 -0.61912926859E+02  0.25816198085E+03  0.17300000000E+03 0. -1.
<mgrwt>
<rscale>  2 0.25062801E+03</rscale>
<asrwt>0</asrwt>
<pdfrwt beam="1">  1       21 0.73886716E-01 0.25062801E+03</pdfrwt>
<pdfrwt beam="2">  1       21 0.30943290E-01 0.25062801E+03</pdfrwt>
<totfact> 0.15949940E+04</totfact>
</mgrwt>
</event>
<event>
 4    1  0.4336176E+000  0.2277557E+03  0.7546771E-02  0.1128229E+00
         21   -1    0    0  501  502  0.00000000000E+00  0.00000000000E+00  0.79340381981E+03  0.79340381981E+03  0.00000000000E+00 0.  1.
         21   -1    0    0  502  503 -0.00000000000E+00 -0.00000000000E+00 -0.94988080095E+02  0.94988080095E+02  0.00000000000E+00 0. -1.
          6    1    1    2  501    0  0.24428924506E+02 -0.14610569359E+03  0.10121108667E+03  0.24923147898E+03  0.17300000000E+03 0. -1.
         -6    1    1    2    0  503 -0.24428924506E+02  0.14610569359E+03  0.59720465305E+03  0.63916042092E+03  0.17300000000E+03 0.  1.
<mgrwt>
<rscale>  2 0.22775567E+03</rscale>
<asrwt>0</asrwt>
<pdfrwt beam="1">  1       21 0.12206212E+00 0.22775567E+03</pdfrwt>
<pdfrwt beam="2">  1       21 0.14613551E-01 0.22775567E+03</pdfrwt>
<totfact> 0.20382706E+04</totfact>
</mgrwt>
</event>
<event>
 4    1  0.4336176E+000  0.1940858E+03  0.7546771E-02  0.1154827E+00
         21   -1    0    0  501  502  0.00000000000E+00  0.00000000000E+00  0.98689461036E+02  0.98689461036E+02  0.00000000000E+00 0.  1.
         21   -1    0    0  502  503 -0.00000000000E+00 -0.00000000000E+00 -0.61647445912E+03  0.61647445912E+03  0.00000000000E+00 0.  1.
          6    1    1    2  501    0  0.36170906508E+02  0.80199468972E+02 -0.38220128491E+02  0.19781321372E+03  0.17300000000E+03 0.  1.
         -6    1    1    2    0  503 -0.36170906508E+02 -0.80199468972E+02 -0.47956486959E+03  0.51735070643E+03  0.17300000000E+03 0.  1.
<mgrwt>
<rscale>  2 0.19408578E+03</rscale>
<asrwt>0</asrwt>
<pdfrwt beam="1">  1       21 0.15182994E-01 0.19408578E+03</pdfrwt>
<pdfrwt beam="2">  1       21 0.94842225E-01 0.19408578E+03</pdfrwt>
<totfact> 0.35657457E+04</totfact>
</mgrwt>
</event>
<event>
 4    1  0.4336176E+000  0.1967816E+03  0.7546771E-02  0.1152483E+00
         21   -1    0    0  501  502  0.00000000000E+00  0.00000000000E+00  0.21689954956E+03  0.21689954956E+03  0.00000000000E+00 0. -1.
         21   -1    0    0  502  503 -0.00000000000E+00 -0.00000000000E+00 -0.19216893565E+03  0.19216893565E+03  0.00000000000E+00 0.  1.
          6    1    1    2  501    0 -0.75389094933E+02  0.55771546468E+02  0.66855919314E+02  0.20782852301E+03  0.17300000000E+03 0. -1.
         -6    1    1    2    0  503  0.75389094933E+02 -0.55771546468E+02 -0.42125305402E+02  0.20123996220E+03  0.17300000000E+03 0.  1.
<mgrwt>
<rscale>  2 0.19678156E+03</rscale>
<asrwt>0</asrwt>
<pdfrwt beam="1">  1       21 0.33369161E-01 0.19678156E+03</pdfrwt>
<pdfrwt beam="2">  1       21 0.29564452E-01 0.19678156E+03</pdfrwt>
<totfact> 0.94667921E+04</totfact>
</mgrwt>
</event>
<event>
 4    1  0.4336176E+000  0.2338555E+03  0.7546771E-02  0.1123955E+00
         21   -1    0    0  501  502  0.00000000000E+00  0.00000000000E+00  0.76225232072E+02  0.76225232072E+02  0.00000000000E+00 0. -1.
         21   -1    0    0  502  503 -0.00000000000E+00 -0.00000000000E+00 -0.12320374814E+04  0.12320374814E+04  0.00000000000E+00 0.  1.
          6    1    1    2  501    0 -0.14630786435E+03 -0.57908453282E+02 -0.15516026328E+03  0.28064762146E+03  0.17300000000E+03 0. -1.
         -6    1    1    2    0  503  0.14630786435E+03  0.57908453282E+02 -0.10006519860E+04  0.10276150920E+04  0.17300000000E+03 0.  1.
<mgrwt>
<rscale>  2 0.23385547E+03</rscale>
<asrwt>0</asrwt>
<pdfrwt beam="1">  1       21 0.11726959E-01 0.23385547E+03</pdfrwt>
<pdfrwt beam="2">  1       21 0.18954423E+00 0.23385547E+03</pdfrwt>
<totfact> 0.93005800E+03</totfact>
</mgrwt>
</event>
<event>
 4    1  0.4336176E+000  0.2071740E+03  0.7546771E-02  0.1143824E+00
         21   -1    0    0  501  502  0.00000000000E+00  0.00000000000E+00  0.78921699130E+03  0.78921699130E+03  0.00000000000E+00 0. -1.
         21   -1    0    0  502  503 -0.00000000000E+00 -0.00000000000E+00 -0.88852766487E+02  0.88852766487E+02  0.00000000000E+00 0. -1.
          6    1    1    2  501    0  0.11397797476E+03  0.10526945060E+01  0.62362960332E+03  0.65714151371E+03  0.17300000000E+03 0. -1.
         -6    1    1    2    0  503 -0.11397797476E+03 -0.10526945060E+01  0.76734621491E+02  0.22092824408E+03  0.17300000000E+03 0. -1.
<mgrwt>
<rscale>  2 0.20717405E+03</rscale>
<asrwt>0</asrwt>
<pdfrwt beam="1">  1       21 0.12141799E+00 0.20717405E+03</pdfrwt>
<pdfrwt beam="2">  1       21 0.13669657E-01 0.20717405E+03</pdfrwt>
<totfact> 0.23600975E+04</totfact>
</mgrwt>
</event>
<event>
 4    1  0.4336176E+000  0.2221965E+03  0.7546771E-02  0.1132256E+00
         21   -1    0    0  503  502  0.00000000000E+00  0.00000000000E+00  0.33378633789E+03  0.33378633789E+03  0.00000000000E+00 0.  1.
         21   -1    0    0  501  503 -0.00000000000E+00 -0.00000000000E+00 -0.15884843424E+03  0.15884843424E+03  0.00000000000E+00 0.  1.
          6    1    1    2  501    0 -0.79501430628E+02  0.11455041519E+03  0.22840255939E+02  0.22336730375E+03  0.17300000000E+03 0.  1.
         -6    1    1    2    0  502  0.79501430628E+02 -0.11455041519E+03  0.15209764770E+03  0.26926746838E+03  0.17300000000E+03 0.  1.
<mgrwt>
<rscale>  2 0.22219648E+03</rscale>
<asrwt>0</asrwt>
<pdfrwt beam="1">  1       21 0.51351744E-01 0.22219648E+03</pdfrwt>
<pdfrwt beam="2">  1       21 0.24438221E-01 0.22219648E+03</pdfrwt>
<totfact> 0.56236753E+04</totfact>
</mgrwt>
</event>
<event>
 4    1  0.4336176E+000  0.2309023E+03  0.7546771E-02  0.1126006E+00
         21   -1    0    0  503  502  0.00000000000E+00  0.00000000000E+00  0.46440016515E+03  0.46440016515E+03  0.00000000000E+00 0.  1.
         21   -1    0    0  501  503 -0.00000000000E+00 -0.00000000000E+00 -0.20363053855E+03  0.20363053855E+03  0.00000000000E+00 0. -1.
          6    1    1    2  501    0 -0.10397159909E+03  0.11214631849E+03 -0.90218300613E+02  0.24790165779E+03  0.17300000000E+03 0. -1.
         -6    1    1    2    0  502  0.10397159909E+03 -0.11214631849E+03  0.35098792722E+03  0.42012904592E+03  0.17300000000E+03 0.  1.
<mgrwt>
<rscale>  2 0.23090234E+03</rscale>
<asrwt>0</asrwt>
<pdfrwt beam="1">  1       21 0.71446179E-01 0.23090234E+03</pdfrwt>
<pdfrwt beam="2">  1       21 0.31327775E-01 0.23090234E+03</pdfrwt>
<totfact> 0.16952982E+04</totfact>
</mgrwt>
</event>
<event>
 4    1  0.4336176E+000  0.2192534E+03  0.7546771E-02  0.1134441E+00
         21   -1    0    0  503  502  0.00000000000E+00  0.00000000000E+00  0.16246975137E+03  0.16246975137E+03  0.00000000000E+00 0.  1.
         21   -1    0    0  501  503 -0.00000000000E+00 -0.00000000000E+00 -0.31056400044E+03  0.31056400044E+03  0.00000000000E+00 0.  1.
          6    1    1    2  501    0  0.11315574304E+03 -0.73067330273E+02 -0.12547074253E+03  0.25261623893E+03  0.17300000000E+03 0.  1.
         -6    1    1    2    0  502 -0.11315574304E+03  0.73067330273E+02 -0.22623506536E+02  0.22041751288E+03  0.17300000000E+03 0.  1.
<mgrwt>
<rscale>  2 0.21925341E+03</rscale>
<asrwt>0</asrwt>
<pdfrwt beam="1">  1       21 0.24995346E-01 0.21925341E+03</pdfrwt>
<pdfrwt beam="2">  1       21 0.47779077E-01 0.21925341E+03</pdfrwt>
<totfact> 0.62700875E+04</totfact>
</mgrwt>
</event>
<event>
 4    1  0.4336176E+000  0.3764861E+03  0.7546771E-02  0.1052240E+00
         21   -1    0    0  501  502  0.00000000000E+00  0.00000000000E+00  0.35326832365E+03  0.35326832365E+03  0.00000000000E+00 0. -1.
         21   -1    0    0  502  503 -0.00000000000E+00 -0.00000000000E+00 -0.47224611901E+03  0.47224611901E+03  0.00000000000E+00 0.  1.
          6    1    1    2  501    0  0.32923561290E+03  0.58452334563E+02  0.10057363587E+03  0.38968810663E+03  0.17300000000E+03 0. -1.
         -6    1    1    2    0  503 -0.32923561290E+03 -0.58452334563E+02 -0.21955143123E+03  0.43582633603E+03  0.17300000000E+03 0.  1.
<mgrwt>
<rscale>  2 0.37648607E+03</rscale>
<asrwt>0</asrwt>
<pdfrwt beam="1">  1       21 0.54348973E-01 0.37648607E+03</pdfrwt>
<pdfrwt beam="2">  1       21 0.72653249E-01 0.37648607E+03</pdfrwt>
<totfact> 0.49290687E+03</totfact>
</mgrwt>
</event>
<event>
 4    1  0.4336176E+000  0.1873401E+03  0.7546771E-02  0.1160882E+00
         21   -1    0    0  503  502  0.00000000000E+00  0.00000000000E+00  0.72217193999E+02  0.72217193999E+02  0.00000000000E+00 0.  1.
         21   -1    0    0  501  503 -0.00000000000E+00 -0.00000000000E+00 -0.62873718239E+03  0.62873718239E+03  0.00000000000E+00 0.  1.
          6    1    1    2  501    0 -0.31293086327E+02 -0.64715322346E+02 -0.44526118593E+03  0.48306713187E+03  0.17300000000E+03 0.  1.
         -6    1    1    2    0  502  0.31293086327E+02  0.64715322346E+02 -0.11125880246E+03  0.21788724452E+03  0.17300000000E+03 0.  1.
<mgrwt>
<rscale>  2 0.18734015E+03</rscale>
<asrwt>0</asrwt>
<pdfrwt beam="1">  1       21 0.11110337E-01 0.18734015E+03</pdfrwt>
<pdfrwt beam="2">  1       21 0.96728799E-01 0.18734015E+03</pdfrwt>
<totfact> 0.59934914E+04</totfact>
</mgrwt>
</event>
<event>
 4    1  0.4336176E+000  0.2561017E+03  0.7546771E-02  0.1109508E+00
         21   -1    0    0  503  502  0.00000000000E+00  0.00000000000E+00  0.24677584325E+03  0.24677584325E+03  0.00000000000E+00 0.  1.
         21   -1    0    0  501  503 -0.00000000000E+00 -0.00000000000E+00 -0.34284447311E+03  0.34284447311E+03  0.00000000000E+00 0. -1.
          6    1    1    2  501    0  0.13471856301E+03  0.13232530541E+03 -0.18780659254E+03  0.31758368011E+03  0.17300000000E+03 0. -1.
         -6    1    1    2    0  502 -0.13471856301E+03 -0.13232530541E+03  0.91737962680E+02  0.27203663626E+03  0.17300000000E+03 0.  1.
<mgrwt>
<rscale>  2 0.25610169E+03</rscale>
<asrwt>0</asrwt>
<pdfrwt beam="1">  1       21 0.37965515E-01 0.25610169E+03</pdfrwt>
<pdfrwt beam="2">  1       21 0.52745303E-01 0.25610169E+03</pdfrwt>
<totfact> 0.22045409E+04</totfact>
</mgrwt>
</event>
<event>
 4    1  0.4336176E+000  0.2095430E+03  0.7546771E-02  0.1141928E+00
         21   -1    0    0  501  502  0.00000000000E+00  0.00000000000E+00  0.84408278693E+03  0.84408278693E+03  0.00000000000E+00 0. -1.
         21   -1    0    0  502  503 -0.00000000000E+00 -0.00000000000E+00 -0.13271410697E+03  0.13271410697E+03  0.00000000000E+00 0. -1.
          6    1    1    2  501    0 -0.11822725561E+03  0.12670878036E+01  0.73652165932E+03  0.76574959623E+03  0.17300000000E+03 0. -1.
         -6    1    1    2    0  503  0.11822725561E+03 -0.12670878036E+01 -0.25152979354E+02  0.21104729767E+03  0.17300000000E+03 0. -1.
<mgrwt>
<rscale>  2 0.20954305E+03</rscale>
<asrwt>0</asrwt>
<pdfrwt beam="1">  1       21 0.12985889E+00 0.20954305E+03</pdfrwt>
<pdfrwt beam="2">  1       21 0.20417555E-01 0.20954305E+03</pdfrwt>
<totfact> 0.95082186E+03</totfact>
</mgrwt>
</event>
<event>
 4    1  0.4336176E+000  0.1764140E+03  0.7546771E-02  0.1171319E+00
         21   -1    0    0  503  502  0.00000000000E+00  0.00000000000E+00  0.82589868896E+02  0.82589868896E+02  0.00000000000E+00 0. -1.
         21   -1    0    0  501  503 -0.00000000000E+00 -0.00000000000E+00 -0.59164374766E+03  0.59164374766E+03  0.00000000000E+00 0.  1.
          6    1    1    2  501    0 -0.21169737660E+02 -0.27289983667E+02 -0.45766283792E+03  0.49048667078E+03  0.17300000000E+03 0.  1.
         -6    1    1    2    0  502  0.21169737660E+02  0.27289983667E+02 -0.51391040839E+02  0.18374694577E+03  0.17300000000E+03 0. -1.
<mgrwt>
<rscale>  2 0.17641400E+03</rscale>
<asrwt>0</asrwt>
<pdfrwt beam="1">  1       21 0.12706134E-01 0.17641400E+03</pdfrwt>
<pdfrwt beam="2">  1       21 0.91022115E-01 0.17641400E+03</pdfrwt>
<totfact> 0.54634215E+04</totfact>
</mgrwt>
</event>
<event>
 4    1  0.4336176E+000  0.2435850E+03  0.7546771E-02  0.1117427E+00
         21   -1    0    0  501  502  0.00000000000E+00  0.00000000000E+00  0.16184543128E+03  0.16184543128E+03  0.00000000000E+00 0.  1.
         21   -1    0    0  502  503 -0.00000000000E+00 -0.00000000000E+00 -0.39494587209E+03  0.39494587209E+03  0.00000000000E+00 0. -1.
          6    1    1    2  501    0  0.88002074343E+01  0.17125182447E+03 -0.41976348929E+02  0.24717533231E+03  0.17300000000E+03 0.  1.
         -6    1    1    2    0  503 -0.88002074343E+01 -0.17125182447E+03 -0.19112409189E+03  0.30961597106E+03  0.17300000000E+03 0. -1.
<mgrwt>
<rscale>  2 0.24358496E+03</rscale>
<asrwt>0</asrwt>
<pdfrwt beam="1">  1       21 0.24899298E-01 0.24358496E+03</pdfrwt>
<pdfrwt beam="2">  1       21 0.60760902E-01 0.24358496E+03</pdfrwt>
<totfact> 0.37555776E+04</totfact>
</mgrwt>
</event>
<event>
 4    1  0.4336176E+000  0.2046916E+03  0.7546771E-02  0.1145840E+00
         21   -1    0    0  501  502  0.00000000000E+00  0.00000000000E+00  0.13112615865E+03  0.13112615865E+03  0.00000000000E+00 0. -1.
         21   -1    0    0  502  503 -0.00000000000E+00 -0.00000000000E+00 -0.36416649558E+03  0.36416649558E+03  0.00000000000E+00 0.  1.
          6    1    1    2  501    0 -0.88800274370E+02 -0.63907388338E+02 -0.29817872918E+02  0.20685199675E+03  0.17300000000E+03 0. -1.
         -6    1    1    2    0  503  0.88800274370E+02  0.63907388338E+02 -0.20322246401E+03  0.28844065749E+03  0.17300000000E+03 0. -1.
<mgrwt>
<rscale>  2 0.20469158E+03</rscale>
<asrwt>0</asrwt>
<pdfrwt beam="1">  1       21 0.20173256E-01 0.20469158E+03</pdfrwt>
<pdfrwt beam="2">  1       21 0.56025614E-01 0.20469158E+03</pdfrwt>
<totfact> 0.67758764E+04</totfact>
</mgrwt>
</event>
<event>
 4    1  0.4336176E+000  0.1764555E+03  0.7546771E-02  0.1171278E+00
         21   -1    0    0  501  502  0.00000000000E+00  0.00000000000E+00  0.28208746899E+03  0.28208746899E+03  0.00000000000E+00 0. -1.
         21   -1    0    0  502  503 -0.00000000000E+00 -0.00000000000E+00 -0.15727524316E+03  0.15727524316E+03  0.00000000000E+00 0. -1.
          6    1    1    2  501    0  0.25464690758E+02  0.23645372486E+02  0.18236479719E+03  0.25375869122E+03  0.17300000000E+03 0. -1.
         -6    1    1    2    0  503 -0.25464690758E+02 -0.23645372486E+02 -0.57552571356E+02  0.18560402093E+03  0.17300000000E+03 0. -1.
<mgrwt>
<rscale>  2 0.17645553E+03</rscale>
<asrwt>0</asrwt>
<pdfrwt beam="1">  1       21 0.43398072E-01 0.17645553E+03</pdfrwt>
<pdfrwt beam="2">  1       21 0.24196191E-01 0.17645553E+03</pdfrwt>
<totfact> 0.82817102E+04</totfact>
</mgrwt>
</event>
<event>
 4    1  0.4336176E+000  0.1763028E+03  0.7546771E-02  0.1171430E+00
         21   -1    0    0  503  502  0.00000000000E+00  0.00000000000E+00  0.10835296798E+03  0.10835296798E+03  0.00000000000E+00 0.  1.
         21   -1    0    0  501  503 -0.00000000000E+00 -0.00000000000E+00 -0.33724097103E+03  0.33724097103E+03  0.00000000000E+00 0. -1.
          6    1    1    2  501    0  0.33248002544E+02  0.69449056029E+01 -0.20055355497E+03  0.26702881829E+03  0.17300000000E+03 0. -1.
         -6    1    1    2    0  502 -0.33248002544E+02 -0.69449056029E+01 -0.28334448083E+02  0.17856512071E+03  0.17300000000E+03 0.  1.
<mgrwt>
<rscale>  2 0.17630275E+03</rscale>
<asrwt>0</asrwt>
<pdfrwt beam="1">  1       21 0.16669687E-01 0.17630275E+03</pdfrwt>
<pdfrwt beam="2">  1       21 0.51883226E-01 0.17630275E+03</pdfrwt>
<totfact> 0.11475237E+05</totfact>
</mgrwt>
</event>
<event>
 4    1  0.4336176E+000  0.5660415E+03  0.7546771E-02  0.9978477E-01
         21   -1    0    0  503  502  0.00000000000E+00  0.00000000000E+00  0.49902956371E+03  0.49902956371E+03  0.00000000000E+00 0.  1.
         21   -1    0    0  501  503 -0.00000000000E+00 -0.00000000000E+00 -0.10586463493E+04  0.10586463493E+04  0.00000000000E+00 0. -1.
          6    1    1    2  501    0 -0.31503834084E+03  0.43729260857E+03 -0.76838007264E+03  0.95436414315E+03  0.17300000000E+03 0. -1.
         -6    1    1    2    0  502  0.31503834084E+03 -0.43729260857E+03  0.20876328700E+03  0.60331176991E+03  0.17300000000E+03 0.  1.
<mgrwt>
<rscale>  2 0.56604150E+03</rscale>
<asrwt>0</asrwt>
<pdfrwt beam="1">  1       21 0.76773779E-01 0.56604150E+03</pdfrwt>
<pdfrwt beam="2">  1       21 0.16286867E+00 0.56604150E+03</pdfrwt>
<totfact> 0.28273974E+02</totfact>
</mgrwt>
</event>
<event>
 4    1  0.4336176E+000  0.1841261E+03  0.7546771E-02  0.1163868E+00
         21   -1    0    0  501  502  0.00000000000E+00  0.00000000000E+00  0.34807858718E+04  0.34807858718E+04  0.00000000000E+00 0. -1.
         21   -1    0    0  502  503 -0.00000000000E+00 -0.00000000000E+00 -0.11469315432E+02  0.11469315432E+02  0.00000000000E+00 0. -1.
          6    1    1    2  501    0  0.62157903993E+02 -0.10479148595E+02  0.24127057368E+04  0.24197213456E+04  0.17300000000E+03 0. -1.
         -6    1    1    2    0  503 -0.62157903993E+02  0.10479148595E+02  0.10566108195E+04  0.10725338417E+04  0.17300000000E+03 0. -1.
<mgrwt>
<rscale>  2 0.18412609E+03</rscale>
<asrwt>0</asrwt>
<pdfrwt beam="1">  1       21 0.53550467E+00 0.18412609E+03</pdfrwt>
<pdfrwt beam="2">  1       21 0.17645128E-02 0.18412609E+03</pdfrwt>
<totfact> 0.16076335E+03</totfact>
</mgrwt>
</event>
<event>
 4    1  0.4336176E+000  0.3138086E+03  0.7546771E-02  0.1078535E+00
         21   -1    0    0  503  502  0.00000000000E+00  0.00000000000E+00  0.18131127821E+03  0.18131127821E+03  0.00000000000E+00 0.  1.
         21   -1    0    0  501  503 -0.00000000000E+00 -0.00000000000E+00 -0.22128440956E+04  0.22128440956E+04  0.00000000000E+00 0. -1.
          6    1    1    2  501    0  0.19741446357E+03 -0.17197194506E+03 -0.20556095271E+04  0.20794245233E+04  0.17300000000E+03 0. -1.
         -6    1    1    2    0  502 -0.19741446357E+03  0.17197194506E+03  0.24076709686E+02  0.31473085051E+03  0.17300000000E+03 0.  1.
<mgrwt>
<rscale>  2 0.31380857E+03</rscale>
<asrwt>0</asrwt>
<pdfrwt beam="1">  1       21 0.27894042E-01 0.31380857E+03</pdfrwt>
<pdfrwt beam="2">  1       21 0.34043756E+00 0.31380857E+03</pdfrwt>
<totfact> 0.21004769E+02</totfact>
</mgrwt>
</event>
<event>
 4    1  0.4336176E+000  0.2615606E+03  0.7546771E-02  0.1106209E+00
         21   -1    0    0  503  502  0.00000000000E+00  0.00000000000E+00  0.42981075713E+02  0.42981075713E+02  0.00000000000E+00 0.  1.
         21   -1    0    0  501  503 -0.00000000000E+00 -0.00000000000E+00 -0.16001198976E+04  0.16001198976E+04  0.00000000000E+00 0.  1.
          6    1    1    2  501    0  0.19523358962E+03  0.19204384344E+02 -0.71905532602E+03  0.76515000149E+03  0.17300000000E+03 0.  1.
         -6    1    1    2    0  502 -0.19523358962E+03 -0.19204384344E+02 -0.83808349591E+03  0.87795097187E+03  0.17300000000E+03 0.  1.
<mgrwt>
<rscale>  2 0.26156063E+03</rscale>
<asrwt>0</asrwt>
<pdfrwt beam="1">  1       21 0.66124735E-02 0.26156063E+03</pdfrwt>
<pdfrwt beam="2">  1       21 0.24617228E+00 0.26156063E+03</pdfrwt>
<totfact> 0.11051345E+04</totfact>
</mgrwt>
</event>
<event>
 4    1  0.4336176E+000  0.1765060E+03  0.7546771E-02  0.1171228E+00
         21   -1    0    0  503  502  0.00000000000E+00  0.00000000000E+00  0.95116292959E+02  0.95116292959E+02  0.00000000000E+00 0.  1.
         21   -1    0    0  501  503 -0.00000000000E+00 -0.00000000000E+00 -0.10121983735E+04  0.10121983735E+04  0.00000000000E+00 0.  1.
          6    1    1    2  501    0 -0.15876052715E+02  0.31197924669E+02 -0.91389100216E+03  0.93077984689E+03  0.17300000000E+03 0.  1.
         -6    1    1    2    0  502  0.15876052715E+02 -0.31197924669E+02 -0.31910784253E+01  0.17653481961E+03  0.17300000000E+03 0.  1.
<mgrwt>
<rscale>  2 0.17650598E+03</rscale>
<asrwt>0</asrwt>
<pdfrwt beam="1">  1       21 0.14633276E-01 0.17650598E+03</pdfrwt>
<pdfrwt beam="2">  1       21 0.15572283E+00 0.17650598E+03</pdfrwt>
<totfact> 0.11246377E+04</totfact>
</mgrwt>
</event>
<event>
 4    1  0.4336176E+000  0.1830151E+03  0.7546771E-02  0.1164917E+00
         21   -1    0    0  503  502  0.00000000000E+00  0.00000000000E+00  0.17977371678E+04  0.17977371678E+04  0.00000000000E+00 0.  1.
         21   -1    0    0  501  503 -0.00000000000E+00 -0.00000000000E+00 -0.18690025763E+02  0.18690025763E+02  0.00000000000E+00 0.  1.
          6    1    1    2  501    0 -0.35791317664E+01 -0.59604615814E+02  0.83869626360E+03  0.85843225882E+03  0.17300000000E+03 0.  1.
         -6    1    1    2    0  502  0.35791317664E+01  0.59604615814E+02  0.94035087844E+03  0.95799493474E+03  0.17300000000E+03 0.  1.
<mgrwt>
<rscale>  2 0.18301508E+03</rscale>
<asrwt>0</asrwt>
<pdfrwt beam="1">  1       21 0.27657481E+00 0.18301508E+03</pdfrwt>
<pdfrwt beam="2">  1       21 0.28753900E-02 0.18301508E+03</pdfrwt>
<totfact> 0.31887234E+04</totfact>
</mgrwt>
</event>
<event>
 4    1  0.4336176E+000  0.1854055E+03  0.7546771E-02  0.1162672E+00
         21   -1    0    0  501  502  0.00000000000E+00  0.00000000000E+00  0.24309716218E+03  0.24309716218E+03  0.00000000000E+00 0. -1.
         21   -1    0    0  502  503 -0.00000000000E+00 -0.00000000000E+00 -0.14560250212E+03  0.14560250212E+03  0.00000000000E+00 0. -1.
          6    1    1    2  501    0  0.59706209209E+02 -0.29687695509E+02  0.15749342599E+02  0.18607319118E+03  0.17300000000E+03 0. -1.
         -6    1    1    2    0  503 -0.59706209209E+02  0.29687695509E+02  0.81745317463E+02  0.20262647312E+03  0.17300000000E+03 0. -1.
<mgrwt>
<rscale>  2 0.18540548E+03</rscale>
<asrwt>0</asrwt>
<pdfrwt beam="1">  1       21 0.37399563E-01 0.18540548E+03</pdfrwt>
<pdfrwt beam="2">  1       21 0.22400385E-01 0.18540548E+03</pdfrwt>
<totfact> 0.12896325E+05</totfact>
</mgrwt>
</event>
<event>
 4    1  0.4336176E+000  0.2518097E+03  0.7546771E-02  0.1112166E+00
         21   -1    0    0  501  502  0.00000000000E+00  0.00000000000E+00  0.25063602874E+03  0.25063602874E+03  0.00000000000E+00 0. -1.
         21   -1    0    0  502  503 -0.00000000000E+00 -0.00000000000E+00 -0.26339253259E+03  0.26339253259E+03  0.00000000000E+00 0.  1.
          6    1    1    2  501    0  0.17317757536E+03  0.59064762693E+02 -0.57458056771E+02  0.25828191398E+03  0.17300000000E+03 0. -1.
         -6    1    1    2    0  503 -0.17317757536E+03 -0.59064762693E+02  0.44701552915E+02  0.25574664735E+03  0.17300000000E+03 0.  1.
<mgrwt>
<rscale>  2 0.25180969E+03</rscale>
<asrwt>0</asrwt>
<pdfrwt beam="1">  1       21 0.38559389E-01 0.25180969E+03</pdfrwt>
<pdfrwt beam="2">  1       21 0.40521928E-01 0.25180969E+03</pdfrwt>
<totfact> 0.37001070E+04</totfact>
</mgrwt>
</event>
<event>
 4    1  0.4336176E+000  0.1983277E+03  0.7546771E-02  0.1151158E+00
         21   -1    0    0  503  502  0.00000000000E+00  0.00000000000E+00  0.63016522080E+02  0.63016522080E+02  0.00000000000E+00 0. -1.
         21   -1    0    0  501  503 -0.00000000000E+00 -0.00000000000E+00 -0.12190265020E+04  0.12190265020E+04  0.00000000000E+00 0.  1.
          6    1    1    2  501    0 -0.59810383118E+02 -0.76338737071E+02 -0.10257875169E+04  0.10447841473E+04  0.17300000000E+03 0.  1.
         -6    1    1    2    0  502  0.59810383118E+02  0.76338737071E+02 -0.13022246297E+03  0.23725887669E+03  0.17300000000E+03 0. -1.
<mgrwt>
<rscale>  2 0.19832772E+03</rscale>
<asrwt>0</asrwt>
<pdfrwt beam="1">  1       21 0.96948511E-02 0.19832772E+03</pdfrwt>
<pdfrwt beam="2">  1       21 0.18754251E+00 0.19832772E+03</pdfrwt>
<totfact> 0.13815964E+04</totfact>
</mgrwt>
</event>
<event>
 4    1  0.4336176E+000  0.1845424E+03  0.7546771E-02  0.1163478E+00
         21   -1    0    0  503  502  0.00000000000E+00  0.00000000000E+00  0.53241220604E+02  0.53241220604E+02  0.00000000000E+00 0. -1.
         21   -1    0    0  501  503 -0.00000000000E+00 -0.00000000000E+00 -0.64179598707E+03  0.64179598707E+03  0.00000000000E+00 0. -1.
          6    1    1    2  501    0  0.34063315400E+02  0.54466539586E+02 -0.31435796031E+03  0.36452275732E+03  0.17300000000E+03 0. -1.
         -6    1    1    2    0  502 -0.34063315400E+02 -0.54466539586E+02 -0.27419680616E+03  0.33051445036E+03  0.17300000000E+03 0. -1.
<mgrwt>
<rscale>  2 0.18454244E+03</rscale>
<asrwt>0</asrwt>
<pdfrwt beam="1">  1       21 0.81909573E-02 0.18454244E+03</pdfrwt>
<pdfrwt beam="2">  1       21 0.98737841E-01 0.18454244E+03</pdfrwt>
<totfact> 0.97759886E+04</totfact>
</mgrwt>
</event>
<event>
 4    1  0.4336176E+000  0.1794036E+03  0.7546771E-02  0.1168381E+00
         21   -1    0    0  503  502  0.00000000000E+00  0.00000000000E+00  0.70645664303E+02  0.70645664303E+02  0.00000000000E+00 0. -1.
         21   -1    0    0  501  503 -0.00000000000E+00 -0.00000000000E+00 -0.18225213517E+04  0.18225213517E+04  0.00000000000E+00 0.  1.
          6    1    1    2  501    0  0.11252821476E+02 -0.46152208675E+02 -0.16957144802E+04  0.17051783633E+04  0.17300000000E+03 0.  1.
         -6    1    1    2    0  502 -0.11252821476E+02  0.46152208675E+02 -0.56161207238E+02  0.18798865273E+03  0.17300000000E+03 0. -1.
<mgrwt>
<rscale>  2 0.17940360E+03</rscale>
<asrwt>0</asrwt>
<pdfrwt beam="1">  1       21 0.10868562E-01 0.17940360E+03</pdfrwt>
<pdfrwt beam="2">  1       21 0.28038793E+00 0.17940360E+03</pdfrwt>
<totfact> 0.31496724E+03</totfact>
</mgrwt>
</event>
<event>
 4    1  0.4336176E+000  0.2045995E+03  0.7546771E-02  0.1145915E+00
         21   -1    0    0  501  502  0.00000000000E+00  0.00000000000E+00  0.26518888399E+03  0.26518888399E+03  0.00000000000E+00 0.  1.
         21   -1    0    0  502  503 -0.00000000000E+00 -0.00000000000E+00 -0.16895186308E+03  0.16895186308E+03  0.00000000000E+00 0. -1.
          6    1    1    2  501    0  0.90587752291E+02 -0.61039361089E+02 -0.75170084112E+01  0.20473751460E+03  0.17300000000E+03 0. -1.
         -6    1    1    2    0  503 -0.90587752291E+02  0.61039361089E+02  0.10375402933E+03  0.22940323247E+03  0.17300000000E+03 0. -1.
<mgrwt>
<rscale>  2 0.20459947E+03</rscale>
<asrwt>0</asrwt>
<pdfrwt beam="1">  1       21 0.40798290E-01 0.20459947E+03</pdfrwt>
<pdfrwt beam="2">  1       21 0.25992594E-01 0.20459947E+03</pdfrwt>
<totfact> 0.80953530E+04</totfact>
</mgrwt>
</event>
<event>
 4    1  0.4336176E+000  0.2132257E+03  0.7546771E-02  0.1139037E+00
         21   -1    0    0  503  502  0.00000000000E+00  0.00000000000E+00  0.47146847492E+02  0.47146847492E+02  0.00000000000E+00 0.  1.
         21   -1    0    0  501  503 -0.00000000000E+00 -0.00000000000E+00 -0.10086884522E+04  0.10086884522E+04  0.00000000000E+00 0. -1.
          6    1    1    2  501    0  0.61664162813E+02  0.10832232613E+03 -0.59147598987E+03  0.62873606697E+03  0.17300000000E+03 0. -1.
         -6    1    1    2    0  502 -0.61664162813E+02 -0.10832232613E+03 -0.37006561488E+03  0.42709923277E+03  0.17300000000E+03 0.  1.
<mgrwt>
<rscale>  2 0.21322569E+03</rscale>
<asrwt>0</asrwt>
<pdfrwt beam="1">  1       21 0.72533617E-02 0.21322569E+03</pdfrwt>
<pdfrwt beam="2">  1       21 0.15518283E+00 0.21322569E+03</pdfrwt>
<totfact> 0.38391000E+04</totfact>
</mgrwt>
</event>
<event>
 4    1  0.4336176E+000  0.4231587E+03  0.7546771E-02  0.1036043E+00
         21   -1    0    0  503  502  0.00000000000E+00  0.00000000000E+00  0.21546100659E+03  0.21546100659E+03  0.00000000000E+00 0.  1.
         21   -1    0    0  501  503 -0.00000000000E+00 -0.00000000000E+00 -0.22305943150E+04  0.22305943150E+04  0.00000000000E+00 0. -1.
          6    1    1    2  501    0 -0.85749828817E+01 -0.38608383585E+03 -0.19763265471E+04  0.20211209462E+04  0.17300000000E+03 0. -1.
         -6    1    1    2    0  502  0.85749828817E+01  0.38608383585E+03 -0.38806761337E+02  0.42493437536E+03  0.17300000000E+03 0.  1.
<mgrwt>
<rscale>  2 0.42315867E+03</rscale>
<asrwt>0</asrwt>
<pdfrwt beam="1">  1       21 0.33147849E-01 0.42315867E+03</pdfrwt>
<pdfrwt beam="2">  1       21 0.34316834E+00 0.42315867E+03</pdfrwt>
<totfact> 0.13124921E+02</totfact>
</mgrwt>
</event>
<event>
 4    1  0.4336176E+000  0.2204610E+03  0.7546771E-02  0.1133540E+00
         21   -1    0    0  503  502  0.00000000000E+00  0.00000000000E+00  0.39669590456E+03  0.39669590456E+03  0.00000000000E+00 0. -1.
         21   -1    0    0  501  503 -0.00000000000E+00 -0.00000000000E+00 -0.23549233884E+03  0.23549233884E+03  0.00000000000E+00 0. -1.
          6    1    1    2  501    0 -0.13628323867E+03  0.10045984907E+02 -0.13833299898E+03  0.26026728869E+03  0.17300000000E+03 0. -1.
         -6    1    1    2    0  502  0.13628323867E+03 -0.10045984907E+02  0.29953656471E+03  0.37192095471E+03  0.17300000000E+03 0. -1.
<mgrwt>
<rscale>  2 0.22046098E+03</rscale>
<asrwt>0</asrwt>
<pdfrwt beam="1">  1       21 0.61030139E-01 0.22046098E+03</pdfrwt>
<pdfrwt beam="2">  1       21 0.36229591E-01 0.22046098E+03</pdfrwt>
<totfact> 0.18052015E+04</totfact>
</mgrwt>
</event>
<event>
 4    1  0.4336176E+000  0.2060650E+03  0.7546771E-02  0.1144720E+00
         21   -1    0    0  503  502  0.00000000000E+00  0.00000000000E+00  0.14278048854E+03  0.14278048854E+03  0.00000000000E+00 0. -1.
         21   -1    0    0  501  503 -0.00000000000E+00 -0.00000000000E+00 -0.29906259566E+03  0.29906259566E+03  0.00000000000E+00 0.  1.
          6    1    1    2  501    0  0.70836754185E+01 -0.11173011991E+03 -0.94617338460E+02  0.22674928641E+03  0.17300000000E+03 0. -1.
         -6    1    1    2    0  502 -0.70836754185E+01  0.11173011991E+03 -0.61664768654E+02  0.21509379778E+03  0.17300000000E+03 0. -1.
<mgrwt>
<rscale>  2 0.20606503E+03</rscale>
<asrwt>0</asrwt>
<pdfrwt beam="1">  1       21 0.21966229E-01 0.20606503E+03</pdfrwt>
<pdfrwt beam="2">  1       21 0.46009630E-01 0.20606503E+03</pdfrwt>
<totfact> 0.87151380E+04</totfact>
</mgrwt>
</event>
<event>
 4    1  0.4336176E+000  0.2217764E+03  0.7546771E-02  0.1132566E+00
         21   -1    0    0  501  502  0.00000000000E+00  0.00000000000E+00  0.26445867332E+03  0.26445867332E+03  0.00000000000E+00 0. -1.
         21   -1    0    0  502  503 -0.00000000000E+00 -0.00000000000E+00 -0.33241111028E+03  0.33241111028E+03  0.00000000000E+00 0.  1.
          6    1    1    2  501    0 -0.13445891948E+03  0.34301414587E+02  0.16409630098E+03  0.27588472967E+03  0.17300000000E+03 0. -1.
         -6    1    1    2    0  503  0.13445891948E+03 -0.34301414587E+02 -0.23204873794E+03  0.32098505394E+03  0.17300000000E+03 0.  1.
<mgrwt>
<rscale>  2 0.22177644E+03</rscale>
<asrwt>0</asrwt>
<pdfrwt beam="1">  1       21 0.40685950E-01 0.22177644E+03</pdfrwt>
<pdfrwt beam="2">  1       21 0.51140171E-01 0.22177644E+03</pdfrwt>
<totfact> 0.20804324E+04</totfact>
</mgrwt>
</event>
<event>
 4    1  0.4336176E+000  0.1822497E+03  0.7546771E-02  0.1165643E+00
         21   -1    0    0  501  502  0.00000000000E+00  0.00000000000E+00  0.34578752868E+02  0.34578752868E+02  0.00000000000E+00 0. -1.
         21   -1    0    0  502  503 -0.00000000000E+00 -0.00000000000E+00 -0.11446921982E+04  0.11446921982E+04  0.00000000000E+00 0.  1.
          6    1    1    2  501    0  0.28927352370E+02  0.49488829586E+02 -0.31857086948E+03  0.36701816692E+03  0.17300000000E+03 0. -1.
         -6    1    1    2    0  503 -0.28927352370E+02 -0.49488829586E+02 -0.79154257582E+03  0.81225278412E+03  0.17300000000E+03 0.  1.
<mgrwt>
<rscale>  2 0.18224965E+03</rscale>
<asrwt>0</asrwt>
<pdfrwt beam="1">  1       21 0.53198089E-02 0.18224965E+03</pdfrwt>
<pdfrwt beam="2">  1       21 0.17610647E+00 0.18224965E+03</pdfrwt>
<totfact> 0.47145402E+04</totfact>
</mgrwt>
</event>
<event>
 4    1  0.4336176E+000  0.1777858E+03  0.7546771E-02  0.1169963E+00
         21   -1    0    0  501  502  0.00000000000E+00  0.00000000000E+00  0.90306668888E+02  0.90306668888E+02  0.00000000000E+00 0. -1.
         21   -1    0    0  502  503 -0.00000000000E+00 -0.00000000000E+00 -0.38319022971E+03  0.38319022971E+03  0.00000000000E+00 0. -1.
          6    1    1    2  501    0 -0.17121694306E+02  0.37224303997E+02 -0.21611264734E+03  0.27984366629E+03  0.17300000000E+03 0. -1.
         -6    1    1    2    0  503  0.17121694306E+02 -0.37224303997E+02 -0.76770913475E+02  0.19365323230E+03  0.17300000000E+03 0. -1.
<mgrwt>
<rscale>  2 0.17778583E+03</rscale>
<asrwt>0</asrwt>
<pdfrwt beam="1">  1       21 0.13893334E-01 0.17778583E+03</pdfrwt>
<pdfrwt beam="2">  1       21 0.58952343E-01 0.17778583E+03</pdfrwt>
<totfact> 0.12196558E+05</totfact>
</mgrwt>
</event>
<event>
 4    1  0.4336176E+000  0.1986346E+03  0.7546771E-02  0.1150896E+00
         21   -1    0    0  501  502  0.00000000000E+00  0.00000000000E+00  0.96600411399E+02  0.96600411399E+02  0.00000000000E+00 0. -1.
         21   -1    0    0  502  503 -0.00000000000E+00 -0.00000000000E+00 -0.47404895960E+03  0.47404895960E+03  0.00000000000E+00 0. -1.
          6    1    1    2  501    0 -0.10901266526E+02 -0.96994061882E+02 -0.29486987615E+03  0.35553330296E+03  0.17300000000E+03 0. -1.
         -6    1    1    2    0  503  0.10901266526E+02  0.96994061882E+02 -0.82578672054E+02  0.21511606804E+03  0.17300000000E+03 0. -1.
<mgrwt>
<rscale>  2 0.19863455E+03</rscale>
<asrwt>0</asrwt>
<pdfrwt beam="1">  1       21 0.14861602E-01 0.19863455E+03</pdfrwt>
<pdfrwt beam="2">  1       21 0.72930608E-01 0.19863455E+03</pdfrwt>
<totfact> 0.67323769E+04</totfact>
</mgrwt>
</event>
<event>
 4    1  0.4336176E+000  0.2006612E+03  0.7546771E-02  0.1149182E+00
         21   -1    0    0  501  502  0.00000000000E+00  0.00000000000E+00  0.11229441546E+03  0.11229441546E+03  0.00000000000E+00 0.  1.
         21   -1    0    0  502  503 -0.00000000000E+00 -0.00000000000E+00 -0.47029342788E+03  0.47029342788E+03  0.00000000000E+00 0.  1.
          6    1    1    2  501    0  0.97136173667E+02  0.30008175882E+02 -0.37019421548E+02  0.20404745631E+03  0.17300000000E+03 0.  1.
         -6    1    1    2    0  503 -0.97136173667E+02 -0.30008175882E+02 -0.32097959088E+03  0.37854038703E+03  0.17300000000E+03 0.  1.
<mgrwt>
<rscale>  2 0.20066122E+03</rscale>
<asrwt>0</asrwt>
<pdfrwt beam="1">  1       21 0.17276064E-01 0.20066122E+03</pdfrwt>
<pdfrwt beam="2">  1       21 0.72352836E-01 0.20066122E+03</pdfrwt>
<totfact> 0.51954841E+04</totfact>
</mgrwt>
</event>
<event>
 4    1  0.4336176E+000  0.1799534E+03  0.7546771E-02  0.1167848E+00
         21   -1    0    0  503  502  0.00000000000E+00  0.00000000000E+00  0.56372545695E+03  0.56372545695E+03  0.00000000000E+00 0.  1.
         21   -1    0    0  501  503 -0.00000000000E+00 -0.00000000000E+00 -0.72511005933E+02  0.72511005933E+02  0.00000000000E+00 0.  1.
          6    1    1    2  501    0 -0.47118759831E+02  0.15298514789E+02  0.10060144220E+03  0.20616467266E+03  0.17300000000E+03 0.  1.
         -6    1    1    2    0  502  0.47118759831E+02 -0.15298514789E+02  0.39061300882E+03  0.43007179022E+03  0.17300000000E+03 0.  1.
<mgrwt>
<rscale>  2 0.17995339E+03</rscale>
<asrwt>0</asrwt>
<pdfrwt beam="1">  1       21 0.86726991E-01 0.17995339E+03</pdfrwt>
<pdfrwt beam="2">  1       21 0.11155540E-01 0.17995339E+03</pdfrwt>
<totfact> 0.76907116E+04</totfact>
</mgrwt>
</event>
<event>
 4    1  0.4336176E+000  0.1863882E+03  0.7546771E-02  0.1161760E+00
         21   -1    0    0  503  502  0.00000000000E+00  0.00000000000E+00  0.28805160553E+03  0.28805160553E+03  0.00000000000E+00 0.  1.
         21   -1    0    0  501  503 -0.00000000000E+00 -0.00000000000E+00 -0.30301370121E+03  0.30301370121E+03  0.00000000000E+00 0. -1.
          6    1    1    2  501    0  0.35567967971E+02  0.59552450889E+02 -0.23677714214E+03  0.30133700369E+03  0.17300000000E+03 0. -1.
         -6    1    1    2    0  502 -0.35567967971E+02 -0.59552450889E+02  0.22181504646E+03  0.28972830305E+03  0.17300000000E+03 0.  1.
<mgrwt>
<rscale>  2 0.18638824E+03</rscale>
<asrwt>0</asrwt>
<pdfrwt beam="1">  1       21 0.44315632E-01 0.18638824E+03</pdfrwt>
<pdfrwt beam="2">  1       21 0.46617492E-01 0.18638824E+03</pdfrwt>
<totfact> 0.21625607E+04</totfact>
</mgrwt>
</event>
<event>
 4    1  0.4336176E+000  0.2462205E+03  0.7546771E-02  0.1115717E+00
         21   -1    0    0  501  502  0.00000000000E+00  0.00000000000E+00  0.15896773576E+03  0.15896773576E+03  0.00000000000E+00 0.  1.
         21   -1    0    0  502  503 -0.00000000000E+00 -0.00000000000E+00 -0.43830482527E+03  0.43830482527E+03  0.00000000000E+00 0.  1.
          6    1    1    2  501    0  0.17473484419E+03  0.12776816198E+02 -0.32030021585E+02  0.24829505652E+03  0.17300000000E+03 0.  1.
         -6    1    1    2    0  503 -0.17473484419E+03 -0.12776816198E+02 -0.24730706793E+03  0.34897750451E+03  0.17300000000E+03 0.  1.
<mgrwt>
<rscale>  2 0.24622046E+03</rscale>
<asrwt>0</asrwt>
<pdfrwt beam="1">  1       21 0.24456575E-01 0.24622046E+03</pdfrwt>
<pdfrwt beam="2">  1       21 0.67431511E-01 0.24622046E+03</pdfrwt>
<totfact> 0.30924200E+04</totfact>
</mgrwt>
</event>
<event>
 4    1  0.4336176E+000  0.2402831E+03  0.7546771E-02  0.1119604E+00
         21   -1    0    0  501  502  0.00000000000E+00  0.00000000000E+00  0.12337095575E+04  0.12337095575E+04  0.00000000000E+00 0.  1.
         21   -1    0    0  502  503 -0.00000000000E+00 -0.00000000000E+00 -0.90434291965E+02  0.90434291965E+02  0.00000000000E+00 0.  1.
          6    1    1    2  501    0 -0.12076554368E+03  0.11498983113E+03  0.10315331117E+04  0.10591489689E+04  0.17300000000E+03 0.  1.
         -6    1    1    2    0  503  0.12076554368E+03 -0.11498983113E+03  0.11174215391E+03  0.26499488064E+03  0.17300000000E+03 0.  1.
<mgrwt>
<rscale>  2 0.24028312E+03</rscale>
<asrwt>0</asrwt>
<pdfrwt beam="1">  1       21 0.18980146E+00 0.24028312E+03</pdfrwt>
<pdfrwt beam="2">  1       21 0.13912969E-01 0.24028312E+03</pdfrwt>
<totfact> 0.67724343E+03</totfact>
</mgrwt>
</event>
<event>
 4    1  0.4336176E+000  0.1851206E+03  0.7546771E-02  0.1162937E+00
         21   -1    0    0  501  502  0.00000000000E+00  0.00000000000E+00  0.33746541778E+03  0.33746541778E+03  0.00000000000E+00 0. -1.
         21   -1    0    0  502  503 -0.00000000000E+00 -0.00000000000E+00 -0.14857716848E+03  0.14857716848E+03  0.00000000000E+00 0. -1.
          6    1    1    2  501    0 -0.44941116119E+02 -0.48175976935E+02  0.23116741200E+03  0.29615536639E+03  0.17300000000E+03 0. -1.
         -6    1    1    2    0  503  0.44941116119E+02  0.48175976935E+02 -0.42279162700E+02  0.18988721987E+03  0.17300000000E+03 0. -1.
<mgrwt>
<rscale>  2 0.18512058E+03</rscale>
<asrwt>0</asrwt>
<pdfrwt beam="1">  1       21 0.51917757E-01 0.18512058E+03</pdfrwt>
<pdfrwt beam="2">  1       21 0.22858026E-01 0.18512058E+03</pdfrwt>
<totfact> 0.63456268E+04</totfact>
</mgrwt>
</event>
<event>
 4    1  0.4336176E+000  0.1792314E+03  0.7546771E-02  0.1168549E+00
         21   -1    0    0  503  502  0.00000000000E+00  0.00000000000E+00  0.55214189660E+02  0.55214189660E+02  0.00000000000E+00 0. -1.
         21   -1    0    0  501  503 -0.00000000000E+00 -0.00000000000E+00 -0.69485615360E+03  0.69485615360E+03  0.00000000000E+00 0.  1.
          6    1    1    2  501    0  0.46696225267E+02  0.37879691628E+01 -0.47109426543E+03  0.50403739254E+03  0.17300000000E+03 0.  1.
         -6    1    1    2    0  502 -0.46696225267E+02 -0.37879691628E+01 -0.16854769852E+03  0.24603295072E+03  0.17300000000E+03 0. -1.
<mgrwt>
<rscale>  2 0.17923138E+03</rscale>
<asrwt>0</asrwt>
<pdfrwt beam="1">  1       21 0.84944901E-02 0.17923138E+03</pdfrwt>
<pdfrwt beam="2">  1       21 0.10690095E+00 0.17923138E+03</pdfrwt>
<totfact> 0.76094677E+04</totfact>
</mgrwt>
</event>
<event>
 4    1  0.4336176E+000  0.2862148E+03  0.7546771E-02  0.1092342E+00
         21   -1    0    0  501  502  0.00000000000E+00  0.00000000000E+00  0.37794838922E+03  0.37794838922E+03  0.00000000000E+00 0.  1.
         21   -1    0    0  502  503 -0.00000000000E+00 -0.00000000000E+00 -0.38772753745E+03  0.38772753745E+03  0.00000000000E+00 0. -1.
          6    1    1    2  501    0  0.52248997039E+02  0.22194580450E+03  0.24933993519E+03  0.37959096552E+03  0.17300000000E+03 0.  1.
         -6    1    1    2    0  503 -0.52248997039E+02 -0.22194580450E+03 -0.25911908342E+03  0.38608496114E+03  0.17300000000E+03 0. -1.
<mgrwt>
<rscale>  2 0.28621478E+03</rscale>
<asrwt>0</asrwt>
<pdfrwt beam="1">  1       21 0.58145906E-01 0.28621478E+03</pdfrwt>
<pdfrwt beam="2">  1       21 0.59650390E-01 0.28621478E+03</pdfrwt>
<totfact> 0.68640045E+03</totfact>
</mgrwt>
</event>
<event>
 4    1  0.4336176E+000  0.2112789E+03  0.7546771E-02  0.1140557E+00
         21   -1    0    0  501  502  0.00000000000E+00  0.00000000000E+00  0.87412676909E+03  0.87412676909E+03  0.00000000000E+00 0. -1.
         21   -1    0    0  502  503 -0.00000000000E+00 -0.00000000000E+00 -0.60270863213E+02  0.60270863213E+02  0.00000000000E+00 0. -1.
          6    1    1    2  501    0  0.31202973511E+02 -0.11720129384E+03  0.58950248696E+03  0.62622036933E+03  0.17300000000E+03 0. -1.
         -6    1    1    2    0  503 -0.31202973511E+02  0.11720129384E+03  0.22435341892E+03  0.30817726297E+03  0.17300000000E+03 0. -1.
<mgrwt>
<rscale>  2 0.21127889E+03</rscale>
<asrwt>0</asrwt>
<pdfrwt beam="1">  1       21 0.13448103E+00 0.21127889E+03</pdfrwt>
<pdfrwt beam="2">  1       21 0.92724411E-02 0.21127889E+03</pdfrwt>
<totfact> 0.36381005E+04</totfact>
</mgrwt>
</event>
<event>
 4    1  0.4336176E+000  0.2505575E+03  0.7546771E-02  0.1112953E+00
         21   -1    0    0  501  502  0.00000000000E+00  0.00000000000E+00  0.43296495665E+03  0.43296495665E+03  0.00000000000E+00 0.  1.
         21   -1    0    0  502  503 -0.00000000000E+00 -0.00000000000E+00 -0.14780536708E+03  0.14780536708E+03  0.00000000000E+00 0. -1.
          6    1    1    2  501    0  0.62621540721E+02 -0.17008405940E+03  0.10255949131E+03  0.27073509910E+03  0.17300000000E+03 0. -1.
         -6    1    1    2    0  503 -0.62621540721E+02  0.17008405940E+03  0.18260009827E+03  0.31003522463E+03  0.17300000000E+03 0.  1.
<mgrwt>
<rscale>  2 0.25055747E+03</rscale>
<asrwt>0</asrwt>
<pdfrwt beam="1">  1       21 0.66609993E-01 0.25055747E+03</pdfrwt>
<pdfrwt beam="2">  1       21 0.22739287E-01 0.25055747E+03</pdfrwt>
<totfact> 0.36439191E+04</totfact>
</mgrwt>
</event>
<event>
 4    1  0.4336176E+000  0.1969136E+03  0.7546771E-02  0.1152369E+00
         21   -1    0    0  501  502  0.00000000000E+00  0.00000000000E+00  0.91722920447E+02  0.91722920447E+02  0.00000000000E+00 0.  1.
         21   -1    0    0  502  503 -0.00000000000E+00 -0.00000000000E+00 -0.46987171214E+03  0.46987171214E+03  0.00000000000E+00 0. -1.
          6    1    1    2  501    0 -0.98442729652E+01  0.93536329908E+02 -0.10014209208E+03  0.22091490065E+03  0.17300000000E+03 0. -1.
         -6    1    1    2    0  503  0.98442729652E+01 -0.93536329908E+02 -0.27800669962E+03  0.34067973194E+03  0.17300000000E+03 0.  1.
<mgrwt>
<rscale>  2 0.19691357E+03</rscale>
<asrwt>0</asrwt>
<pdfrwt beam="1">  1       21 0.14111218E-01 0.19691357E+03</pdfrwt>
<pdfrwt beam="2">  1       21 0.72287956E-01 0.19691357E+03</pdfrwt>
<totfact> 0.75497759E+04</totfact>
</mgrwt>
</event>
<event>
 4    1  0.4336176E+000  0.3092242E+03  0.7546771E-02  0.1080718E+00
         21   -1    0    0  503  502  0.00000000000E+00  0.00000000000E+00  0.30893184301E+03  0.30893184301E+03  0.00000000000E+00 0. -1.
         21   -1    0    0  501  503 -0.00000000000E+00 -0.00000000000E+00 -0.33297215728E+03  0.33297215728E+03  0.00000000000E+00 0.  1.
          6    1    1    2  501    0  0.24527931128E+03  0.74354903200E+02 -0.97204004578E+02  0.32414226919E+03  0.17300000000E+03 0.  1.
         -6    1    1    2    0  502 -0.24527931128E+03 -0.74354903200E+02  0.73163690302E+02  0.31776173110E+03  0.17300000000E+03 0. -1.
<mgrwt>
<rscale>  2 0.30922418E+03</rscale>
<asrwt>0</asrwt>
<pdfrwt beam="1">  1       21 0.47527976E-01 0.30922418E+03</pdfrwt>
<pdfrwt beam="2">  1       21 0.51226486E-01 0.30922418E+03</pdfrwt>
<totfact> 0.14440646E+04</totfact>
</mgrwt>
</event>
<event>
 4    1  0.4336176E+000  0.2138760E+03  0.7546771E-02  0.1138533E+00
         21   -1    0    0  501  502  0.00000000000E+00  0.00000000000E+00  0.11135007024E+03  0.11135007024E+03  0.00000000000E+00 0. -1.
         21   -1    0    0  502  503 -0.00000000000E+00 -0.00000000000E+00 -0.79597328715E+03  0.79597328715E+03  0.00000000000E+00 0. -1.
          6    1    1    2  501    0 -0.11841667714E+03  0.42325164056E+02 -0.26731727271E+02  0.21554005238E+03  0.17300000000E+03 0. -1.
         -6    1    1    2    0  503  0.11841667714E+03 -0.42325164056E+02 -0.65789148964E+03  0.69178330501E+03  0.17300000000E+03 0. -1.
<mgrwt>
<rscale>  2 0.21387597E+03</rscale>
<asrwt>0</asrwt>
<pdfrwt beam="1">  1       21 0.17130781E-01 0.21387597E+03</pdfrwt>
<pdfrwt beam="2">  1       21 0.12245742E+00 0.21387597E+03</pdfrwt>
<totfact> 0.15231115E+04</totfact>
</mgrwt>
</event>
<event>
 4    1  0.4336176E+000  0.1854691E+03  0.7546771E-02  0.1162613E+00
         21   -1    0    0  501  502  0.00000000000E+00  0.00000000000E+00  0.64717447100E+03  0.64717447100E+03  0.00000000000E+00 0. -1.
         21   -1    0    0  502  503 -0.00000000000E+00 -0.00000000000E+00 -0.13275804625E+03  0.13275804625E+03  0.00000000000E+00 0. -1.
          6    1    1    2  501    0 -0.48703629204E+02 -0.45801184130E+02  0.55918175744E+03  0.58913753048E+03  0.17300000000E+03 0. -1.
         -6    1    1    2    0  503  0.48703629204E+02  0.45801184130E+02 -0.44765332687E+02  0.19079498677E+03  0.17300000000E+03 0. -1.
<mgrwt>
<rscale>  2 0.18546911E+03</rscale>
<asrwt>0</asrwt>
<pdfrwt beam="1">  1       21 0.99565301E-01 0.18546911E+03</pdfrwt>
<pdfrwt beam="2">  1       21 0.20424315E-01 0.18546911E+03</pdfrwt>
<totfact> 0.18492664E+04</totfact>
</mgrwt>
</event>
<event>
 4    1  0.4336176E+000  0.2388448E+03  0.7546771E-02  0.1120565E+00
         21   -1    0    0  503  502  0.00000000000E+00  0.00000000000E+00  0.38415173843E+02  0.38415173843E+02  0.00000000000E+00 0.  1.
         21   -1    0    0  501  503 -0.00000000000E+00 -0.00000000000E+00 -0.14976364347E+04  0.14976364347E+04  0.00000000000E+00 0. -1.
          6    1    1    2  501    0 -0.75675640694E+01  0.16450103500E+03 -0.80013501251E+03  0.83502269237E+03  0.17300000000E+03 0. -1.
         -6    1    1    2    0  502  0.75675640694E+01 -0.16450103500E+03 -0.65908624836E+03  0.70102891618E+03  0.17300000000E+03 0.  1.
<mgrwt>
<rscale>  2 0.23884484E+03</rscale>
<asrwt>0</asrwt>
<pdfrwt beam="1">  1       21 0.59100272E-02 0.23884484E+03</pdfrwt>
<pdfrwt beam="2">  1       21 0.23040559E+00 0.23884484E+03</pdfrwt>
<totfact> 0.16973679E+04</totfact>
</mgrwt>
</event>
<event>
 4    1  0.4336176E+000  0.1954301E+03  0.7546771E-02  0.1153653E+00
         21   -1    0    0  503  502  0.00000000000E+00  0.00000000000E+00  0.90357021917E+02  0.90357021917E+02  0.00000000000E+00 0. -1.
         21   -1    0    0  501  503 -0.00000000000E+00 -0.00000000000E+00 -0.46514742548E+03  0.46514742548E+03  0.00000000000E+00 0. -1.
          6    1    1    2  501    0 -0.90237267391E+02  0.11006731092E+02 -0.27131115931E+03  0.33436904420E+03  0.17300000000E+03 0. -1.
         -6    1    1    2    0  502  0.90237267391E+02 -0.11006731092E+02 -0.10347924426E+03  0.22113540320E+03  0.17300000000E+03 0. -1.
<mgrwt>
<rscale>  2 0.19543007E+03</rscale>
<asrwt>0</asrwt>
<pdfrwt beam="1">  1       21 0.13901080E-01 0.19543007E+03</pdfrwt>
<pdfrwt beam="2">  1       21 0.71561143E-01 0.19543007E+03</pdfrwt>
<totfact> 0.79389298E+04</totfact>
</mgrwt>
</event>
<event>
 4    1  0.4336176E+000  0.2263776E+03  0.7546771E-02  0.1129216E+00
         21   -1    0    0  501  502  0.00000000000E+00  0.00000000000E+00  0.15711303306E+03  0.15711303306E+03  0.00000000000E+00 0. -1.
         21   -1    0    0  502  503 -0.00000000000E+00 -0.00000000000E+00 -0.40366274352E+03  0.40366274352E+03  0.00000000000E+00 0. -1.
          6    1    1    2  501    0  0.20032696214E+02  0.14462548677E+03 -0.42983333781E+00  0.22637805790E+03  0.17300000000E+03 0. -1.
         -6    1    1    2    0  503 -0.20032696214E+02 -0.14462548677E+03 -0.24611987712E+03  0.33439771868E+03  0.17300000000E+03 0. -1.
<mgrwt>
<rscale>  2 0.22637765E+03</rscale>
<asrwt>0</asrwt>
<pdfrwt beam="1">  1       21 0.24171236E-01 0.22637765E+03</pdfrwt>
<pdfrwt beam="2">  1       21 0.62101960E-01 0.22637765E+03</pdfrwt>
<totfact> 0.38209333E+04</totfact>
</mgrwt>
</event>
<event>
 4    1  0.4336176E+000  0.2249214E+03  0.7546771E-02  0.1130266E+00
         21   -1    0    0  501  502  0.00000000000E+00  0.00000000000E+00  0.98394199575E+02  0.98394199575E+02  0.00000000000E+00 0.  1.
         21   -1    0    0  502  503 -0.00000000000E+00 -0.00000000000E+00 -0.56234554932E+03  0.56234554932E+03  0.00000000000E+00 0. -1.
          6    1    1    2  501    0  0.14363691484E+03  0.53898979405E+01 -0.13526120839E+03  0.26245991846E+03  0.17300000000E+03 0.  1.
         -6    1    1    2    0  503 -0.14363691484E+03 -0.53898979405E+01 -0.32869014136E+03  0.39827983043E+03  0.17300000000E+03 0.  1.
<mgrwt>
<rscale>  2 0.22492135E+03</rscale>
<asrwt>0</asrwt>
<pdfrwt beam="1">  1       21 0.15137570E-01 0.22492135E+03</pdfrwt>
<pdfrwt beam="2">  1       21 0.86514698E-01 0.22492135E+03</pdfrwt>
<totfact> 0.43686653E+04</totfact>
</mgrwt>
</event>
<event>
 4    1  0.4336176E+000  0.2552182E+03  0.7546771E-02  0.1110051E+00
         21   -1    0    0  501  502  0.00000000000E+00  0.00000000000E+00  0.37734757254E+02  0.37734757254E+02  0.00000000000E+00 0. -1.
         21   -1    0    0  502  503 -0.00000000000E+00 -0.00000000000E+00 -0.17880294436E+04  0.17880294436E+04  0.00000000000E+00 0.  1.
          6    1    1    2  501    0 -0.18083053137E+03 -0.50076287495E+02 -0.70533964856E+03  0.75009355115E+03  0.17300000000E+03 0.  1.
         -6    1    1    2    0  503  0.18083053137E+03  0.50076287495E+02 -0.10449550378E+04  0.10756706497E+04  0.17300000000E+03 0.  1.
<mgrwt>
<rscale>  2 0.25521817E+03</rscale>
<asrwt>0</asrwt>
<pdfrwt beam="1">  1       21 0.58053471E-02 0.25521817E+03</pdfrwt>
<pdfrwt beam="2">  1       21 0.27508146E+00 0.25521817E+03</pdfrwt>
<totfact> 0.93694424E+03</totfact>
</mgrwt>
</event>
<event>
 4    1  0.4336176E+000  0.1740143E+03  0.7546771E-02  0.1173725E+00
         21   -1    0    0  501  502  0.00000000000E+00  0.00000000000E+00  0.13036546428E+02  0.13036546428E+02  0.00000000000E+00 0.  1.
         21   -1    0    0  502  503 -0.00000000000E+00 -0.00000000000E+00 -0.25841101367E+04  0.25841101367E+04  0.00000000000E+00 0.  1.
          6    1    1    2  501    0 -0.12887127971E+02  0.13634956358E+02 -0.87257657363E+03  0.88975888135E+03  0.17300000000E+03 0.  1.
         -6    1    1    2    0  503  0.12887127971E+02 -0.13634956358E+02 -0.16984970166E+04  0.17073878017E+04  0.17300000000E+03 0.  1.
<mgrwt>
<rscale>  2 0.17401434E+03</rscale>
<asrwt>0</asrwt>
<pdfrwt beam="1">  1       21 0.20056201E-02 0.17401434E+03</pdfrwt>
<pdfrwt beam="2">  1       21 0.39755588E+00 0.17401434E+03</pdfrwt>
<totfact> 0.11334228E+04</totfact>
</mgrwt>
</event>
<event>
 4    1  0.4336176E+000  0.2298526E+03  0.7546771E-02  0.1126744E+00
         21   -1    0    0  501  502  0.00000000000E+00  0.00000000000E+00  0.96181200131E+02  0.96181200131E+02  0.00000000000E+00 0. -1.
         21   -1    0    0  502  503 -0.00000000000E+00 -0.00000000000E+00 -0.55662958477E+03  0.55662958477E+03  0.00000000000E+00 0.  1.
          6    1    1    2  501    0  0.14931060690E+03  0.24689212023E+02 -0.26768269648E+03  0.35282607687E+03  0.17300000000E+03 0. -1.
         -6    1    1    2    0  503 -0.14931060690E+03 -0.24689212023E+02 -0.19276568815E+03  0.29998470803E+03  0.17300000000E+03 0.  1.
<mgrwt>
<rscale>  2 0.22985259E+03</rscale>
<asrwt>0</asrwt>
<pdfrwt beam="1">  1       21 0.14797108E-01 0.22985259E+03</pdfrwt>
<pdfrwt beam="2">  1       21 0.85635321E-01 0.22985259E+03</pdfrwt>
<totfact> 0.46520364E+04</totfact>
</mgrwt>
</event>
<event>
 4    1  0.4336176E+000  0.2120916E+03  0.7546771E-02  0.1139920E+00
         21   -1    0    0  501  502  0.00000000000E+00  0.00000000000E+00  0.32042143879E+03  0.32042143879E+03  0.00000000000E+00 0.  1.
         21   -1    0    0  502  503 -0.00000000000E+00 -0.00000000000E+00 -0.14350184680E+03  0.14350184680E+03  0.00000000000E+00 0.  1.
          6    1    1    2  501    0  0.10158356643E+03 -0.68808600878E+02  0.54282272891E+02  0.21892786409E+03  0.17300000000E+03 0.  1.
         -6    1    1    2    0  503 -0.10158356643E+03  0.68808600878E+02  0.12263731910E+03  0.24499542151E+03  0.17300000000E+03 0.  1.
<mgrwt>
<rscale>  2 0.21209159E+03</rscale>
<asrwt>0</asrwt>
<pdfrwt beam="1">  1       21 0.49295606E-01 0.21209159E+03</pdfrwt>
<pdfrwt beam="2">  1       21 0.22077207E-01 0.21209159E+03</pdfrwt>
<totfact> 0.74627239E+04</totfact>
</mgrwt>
</event>
<event>
 4    1  0.4336176E+000  0.1911733E+03  0.7546771E-02  0.1157407E+00
         21   -1    0    0  503  502  0.00000000000E+00  0.00000000000E+00  0.11652355824E+03  0.11652355824E+03  0.00000000000E+00 0.  1.
         21   -1    0    0  501  503 -0.00000000000E+00 -0.00000000000E+00 -0.31612079751E+03  0.31612079751E+03  0.00000000000E+00 0. -1.
          6    1    1    2  501    0 -0.77936681934E+02 -0.23325640504E+02 -0.11893660373E+03  0.22515134377E+03  0.17300000000E+03 0. -1.
         -6    1    1    2    0  502  0.77936681934E+02  0.23325640504E+02 -0.80660635533E+02  0.20749301198E+03  0.17300000000E+03 0.  1.
<mgrwt>
<rscale>  2 0.19117325E+03</rscale>
<asrwt>0</asrwt>
<pdfrwt beam="1">  1       21 0.17926701E-01 0.19117325E+03</pdfrwt>
<pdfrwt beam="2">  1       21 0.48633968E-01 0.19117325E+03</pdfrwt>
<totfact> 0.11425167E+05</totfact>
</mgrwt>
</event>
<event>
 4    1  0.4336176E+000  0.2260452E+03  0.7546771E-02  0.1129455E+00
         21   -1    0    0  501  502  0.00000000000E+00  0.00000000000E+00  0.35476115546E+03  0.35476115546E+03  0.00000000000E+00 0.  1.
         21   -1    0    0  502  503 -0.00000000000E+00 -0.00000000000E+00 -0.33362563214E+03  0.33362563214E+03  0.00000000000E+00 0.  1.
          6    1    1    2  501    0  0.38420993889E+02 -0.14032561498E+03  0.27003727559E+03  0.35215988017E+03  0.17300000000E+03 0.  1.
         -6    1    1    2    0  503 -0.38420993889E+02  0.14032561498E+03 -0.24890175227E+03  0.33622690742E+03  0.17300000000E+03 0.  1.
<mgrwt>
<rscale>  2 0.22604524E+03</rscale>
<asrwt>0</asrwt>
<pdfrwt beam="1">  1       21 0.54578639E-01 0.22604524E+03</pdfrwt>
<pdfrwt beam="2">  1       21 0.51327020E-01 0.22604524E+03</pdfrwt>
<totfact> 0.11193542E+04</totfact>
</mgrwt>
</event>
<event>
 4    1  0.4336176E+000  0.3076311E+03  0.7546771E-02  0.1081487E+00
         21   -1    0    0  501  502  0.00000000000E+00  0.00000000000E+00  0.30100633095E+03  0.30100633095E+03  0.00000000000E+00 0. -1.
         21   -1    0    0  502  503 -0.00000000000E+00 -0.00000000000E+00 -0.38357988109E+03  0.38357988109E+03  0.00000000000E+00 0.  1.
          6    1    1    2  501    0  0.44535378786E+01 -0.25433845166E+03  0.10407660806E+03  0.32475963779E+03  0.17300000000E+03 0. -1.
         -6    1    1    2    0  503 -0.44535378786E+01  0.25433845166E+03 -0.18665015820E+03  0.35982657426E+03  0.17300000000E+03 0.  1.
<mgrwt>
<rscale>  2 0.30763108E+03</rscale>
<asrwt>0</asrwt>
<pdfrwt beam="1">  1       21 0.46308666E-01 0.30763108E+03</pdfrwt>
<pdfrwt beam="2">  1       21 0.59012289E-01 0.30763108E+03</pdfrwt>
<totfact> 0.11269881E+04</totfact>
</mgrwt>
</event>
<event>
 4    1  0.4336176E+000  0.1762142E+03  0.7546771E-02  0.1171518E+00
         21   -1    0    0  501  502  0.00000000000E+00  0.00000000000E+00  0.25447440205E+04  0.25447440205E+04  0.00000000000E+00 0.  1.
         21   -1    0    0  502  503 -0.00000000000E+00 -0.00000000000E+00 -0.20241416250E+02  0.20241416250E+02  0.00000000000E+00 0.  1.
          6    1    1    2  501    0 -0.32062154583E+02  0.97187068947E+01  0.20704939171E+04  0.20779789450E+04  0.17300000000E+03 0.  1.
         -6    1    1    2    0  503  0.32062154583E+02 -0.97187068947E+01  0.45400868715E+03  0.48700649177E+03  0.17300000000E+03 0.  1.
<mgrwt>
<rscale>  2 0.17621417E+03</rscale>
<asrwt>0</asrwt>
<pdfrwt beam="1">  1       21 0.39149883E+00 0.17621417E+03</pdfrwt>
<pdfrwt beam="2">  1       21 0.31140660E-02 0.17621417E+03</pdfrwt>
<totfact> 0.59857372E+03</totfact>
</mgrwt>
</event>
<event>
 4    1  0.4336176E+000  0.2679982E+03  0.7546771E-02  0.1102431E+00
         21   -1    0    0  501  502  0.00000000000E+00  0.00000000000E+00  0.96271101678E+02  0.96271101678E+02  0.00000000000E+00 0.  1.
         21   -1    0    0  502  503 -0.00000000000E+00 -0.00000000000E+00 -0.80221955406E+03  0.80221955406E+03  0.00000000000E+00 0. -1.
          6    1    1    2  501    0 -0.47578174643E+02 -0.19907374661E+03 -0.23409989614E+03  0.35584519200E+03  0.17300000000E+03 0.  1.
         -6    1    1    2    0  503  0.47578174643E+02  0.19907374661E+03 -0.47184855624E+03  0.54264546374E+03  0.17300000000E+03 0.  1.
<mgrwt>
<rscale>  2 0.26799821E+03</rscale>
<asrwt>0</asrwt>
<pdfrwt beam="1">  1       21 0.14810938E-01 0.26799821E+03</pdfrwt>
<pdfrwt beam="2">  1       21 0.12341840E+00 0.26799821E+03</pdfrwt>
<totfact> 0.18943293E+04</totfact>
</mgrwt>
</event>
<event>
 4    1  0.4336176E+000  0.1746547E+03  0.7546771E-02  0.1173079E+00
         21   -1    0    0  501  502  0.00000000000E+00  0.00000000000E+00  0.47762309938E+02  0.47762309938E+02  0.00000000000E+00 0. -1.
         21   -1    0    0  502  503 -0.00000000000E+00 -0.00000000000E+00 -0.79354051290E+03  0.79354051290E+03  0.00000000000E+00 0. -1.
          6    1    1    2  501    0  0.15474101232E+02  0.18325083710E+02 -0.18705515782E+03  0.25591773789E+03  0.17300000000E+03 0. -1.
         -6    1    1    2    0  503 -0.15474101232E+02 -0.18325083710E+02 -0.55872304515E+03  0.58538508495E+03  0.17300000000E+03 0. -1.
<mgrwt>
<rscale>  2 0.17465468E+03</rscale>
<asrwt>0</asrwt>
<pdfrwt beam="1">  1       21 0.73480475E-02 0.17465468E+03</pdfrwt>
<pdfrwt beam="2">  1       21 0.12208316E+00 0.17465468E+03</pdfrwt>
<totfact> 0.70992148E+04</totfact>
</mgrwt>
</event>
<event>
 4    1  0.4336176E+000  0.2844702E+03  0.7546771E-02  0.1093272E+00
         21   -1    0    0  503  502  0.00000000000E+00  0.00000000000E+00  0.26696495191E+02  0.26696495191E+02  0.00000000000E+00 0. -1.
         21   -1    0    0  501  503 -0.00000000000E+00 -0.00000000000E+00 -0.31056238456E+04  0.31056238456E+04  0.00000000000E+00 0.  1.
          6    1    1    2  501    0 -0.72782624187E+02 -0.21376847603E+03 -0.12970683263E+04  0.13278966507E+04  0.17300000000E+03 0.  1.
         -6    1    1    2    0  502  0.72782624187E+02  0.21376847603E+03 -0.17818590241E+04  0.18044236901E+04  0.17300000000E+03 0. -1.
<mgrwt>
<rscale>  2 0.28447016E+03</rscale>
<asrwt>0</asrwt>
<pdfrwt beam="1">  1       21 0.41071516E-02 0.28447016E+03</pdfrwt>
<pdfrwt beam="2">  1       21 0.47778846E+00 0.28447016E+03</pdfrwt>
<totfact> 0.89855125E+02</totfact>
</mgrwt>
</event>
<event>
 4    1  0.4336176E+000  0.3356951E+03  0.7546771E-02  0.1068644E+00
         21   -1    0    0  503  502  0.00000000000E+00  0.00000000000E+00  0.84601463693E+02  0.84601463693E+02  0.00000000000E+00 0. -1.
         21   -1    0    0  501  503 -0.00000000000E+00 -0.00000000000E+00 -0.15189163493E+04  0.15189163493E+04  0.00000000000E+00 0.  1.
          6    1    1    2  501    0  0.28760926966E+03  0.65634181472E+01 -0.99839463835E+03  0.10533200009E+04  0.17300000000E+03 0.  1.
         -6    1    1    2    0  502 -0.28760926966E+03 -0.65634181472E+01 -0.43592024728E+03  0.55019781210E+03  0.17300000000E+03 0. -1.
<mgrwt>
<rscale>  2 0.33569506E+03</rscale>
<asrwt>0</asrwt>
<pdfrwt beam="1">  1       21 0.13015611E-01 0.33569506E+03</pdfrwt>
<pdfrwt beam="2">  1       21 0.23367942E+00 0.33569506E+03</pdfrwt>
<totfact> 0.37728054E+03</totfact>
</mgrwt>
</event>
<event>
 4    1  0.4336176E+000  0.2271279E+03  0.7546771E-02  0.1128678E+00
         21   -1    0    0  501  502  0.00000000000E+00  0.00000000000E+00  0.28716675995E+03  0.28716675995E+03  0.00000000000E+00 0.  1.
         21   -1    0    0  502  503 -0.00000000000E+00 -0.00000000000E+00 -0.19711880542E+03  0.19711880542E+03  0.00000000000E+00 0.  1.
          6    1    1    2  501    0 -0.99900064596E+02  0.10806511591E+03  0.11712537270E+03  0.25554930075E+03  0.17300000000E+03 0.  1.
         -6    1    1    2    0  503  0.99900064596E+02 -0.10806511591E+03 -0.27077418170E+02  0.22873626463E+03  0.17300000000E+03 0.  1.
<mgrwt>
<rscale>  2 0.22712792E+03</rscale>
<asrwt>0</asrwt>
<pdfrwt beam="1">  1       21 0.44179502E-01 0.22712792E+03</pdfrwt>
<pdfrwt beam="2">  1       21 0.30325970E-01 0.22712792E+03</pdfrwt>
<totfact> 0.50527592E+04</totfact>
</mgrwt>
</event>
<event>
 4    1  0.4336176E+000  0.1775426E+03  0.7546771E-02  0.1170203E+00
         21   -1    0    0  501  502  0.00000000000E+00  0.00000000000E+00  0.42151473817E+03  0.42151473817E+03  0.00000000000E+00 0.  1.
         21   -1    0    0  502  503 -0.00000000000E+00 -0.00000000000E+00 -0.15074005657E+03  0.15074005657E+03  0.00000000000E+00 0.  1.
          6    1    1    2  501    0  0.27078150708E+02  0.29311153461E+02  0.33849877413E+03  0.38223394675E+03  0.17300000000E+03 0.  1.
         -6    1    1    2    0  503 -0.27078150708E+02 -0.29311153461E+02 -0.67724092522E+02  0.19002084799E+03  0.17300000000E+03 0.  1.
<mgrwt>
<rscale>  2 0.17754259E+03</rscale>
<asrwt>0</asrwt>
<pdfrwt beam="1">  1       21 0.64848421E-01 0.17754259E+03</pdfrwt>
<pdfrwt beam="2">  1       21 0.23190778E-01 0.17754259E+03</pdfrwt>
<totfact> 0.38574212E+04</totfact>
</mgrwt>
</event>
<event>
 4    1  0.4336176E+000  0.1940228E+03  0.7546771E-02  0.1154882E+00
         21   -1    0    0  503  502  0.00000000000E+00  0.00000000000E+00  0.61974712286E+03  0.61974712286E+03  0.00000000000E+00 0. -1.
         21   -1    0    0  501  503 -0.00000000000E+00 -0.00000000000E+00 -0.80841680669E+02  0.80841680669E+02  0.00000000000E+00 0.  1.
          6    1    1    2  501    0  0.25120928774E+02  0.84171273226E+02  0.94787317669E+02  0.21593864844E+03  0.17300000000E+03 0.  1.
         -6    1    1    2    0  502 -0.25120928774E+02 -0.84171273226E+02  0.44411812452E+03  0.48465015509E+03  0.17300000000E+03 0. -1.
<mgrwt>
<rscale>  2 0.19402284E+03</rscale>
<asrwt>0</asrwt>
<pdfrwt beam="1">  1       21 0.95345708E-01 0.19402284E+03</pdfrwt>
<pdfrwt beam="2">  1       21 0.12437182E-01 0.19402284E+03</pdfrwt>
<totfact> 0.50520276E+04</totfact>
</mgrwt>
</event>
<event>
 4    1  0.4336176E+000  0.2980055E+03  0.7546771E-02  0.1086242E+00
         21   -1    0    0  501  502  0.00000000000E+00  0.00000000000E+00  0.16521743371E+03  0.16521743371E+03  0.00000000000E+00 0. -1.
         21   -1    0    0  502  503 -0.00000000000E+00 -0.00000000000E+00 -0.13050713365E+04  0.13050713365E+04  0.00000000000E+00 0. -1.
          6    1    1    2  501    0 -0.13999600940E+03 -0.19819027360E+03 -0.61466035620E+01  0.29806886442E+03  0.17300000000E+03 0. -1.
         -6    1    1    2    0  503  0.13999600940E+03  0.19819027360E+03 -0.11337072992E+04  0.11722199058E+04  0.17300000000E+03 0. -1.
<mgrwt>
<rscale>  2 0.29800548E+03</rscale>
<asrwt>0</asrwt>
<pdfrwt beam="1">  1       21 0.25418066E-01 0.29800548E+03</pdfrwt>
<pdfrwt beam="2">  1       21 0.20078021E+00 0.29800548E+03</pdfrwt>
<totfact> 0.17810454E+03</totfact>
</mgrwt>
</event>
<event>
 4    1  0.4336176E+000  0.1795462E+03  0.7546771E-02  0.1168243E+00
         21   -1    0    0  501  502  0.00000000000E+00  0.00000000000E+00  0.32024975084E+03  0.32024975084E+03  0.00000000000E+00 0. -1.
         21   -1    0    0  502  503 -0.00000000000E+00 -0.00000000000E+00 -0.32204604072E+03  0.32204604072E+03  0.00000000000E+00 0. -1.
          6    1    1    2  501    0  0.18997973122E+02 -0.44123685435E+02  0.26537032151E+03  0.32040323054E+03  0.17300000000E+03 0. -1.
         -6    1    1    2    0  503 -0.18997973122E+02  0.44123685435E+02 -0.26716661139E+03  0.32189256102E+03  0.17300000000E+03 0. -1.
<mgrwt>
<rscale>  2 0.17954616E+03</rscale>
<asrwt>0</asrwt>
<pdfrwt beam="1">  1       21 0.49269192E-01 0.17954616E+03</pdfrwt>
<pdfrwt beam="2">  1       21 0.49545545E-01 0.17954616E+03</pdfrwt>
<totfact> 0.15386264E+04</totfact>
</mgrwt>
</event>
<event>
 4    1  0.4336176E+000  0.2496629E+03  0.7546771E-02  0.1113518E+00
         21   -1    0    0  503  502  0.00000000000E+00  0.00000000000E+00  0.29927757005E+03  0.29927757005E+03  0.00000000000E+00 0. -1.
         21   -1    0    0  501  503 -0.00000000000E+00 -0.00000000000E+00 -0.44982310434E+03  0.44982310434E+03  0.00000000000E+00 0.  1.
          6    1    1    2  501    0  0.17733761803E+03 -0.30885890454E+02 -0.34974128205E+03  0.42970982461E+03  0.17300000000E+03 0.  1.
         -6    1    1    2    0  502 -0.17733761803E+03  0.30885890454E+02  0.19919574775E+03  0.31939084978E+03  0.17300000000E+03 0. -1.
<mgrwt>
<rscale>  2 0.24966291E+03</rscale>
<asrwt>0</asrwt>
<pdfrwt beam="1">  1       21 0.46042703E-01 0.24966291E+03</pdfrwt>
<pdfrwt beam="2">  1       21 0.69203554E-01 0.24966291E+03</pdfrwt>
<totfact> 0.82794428E+03</totfact>
</mgrwt>
</event>
<event>
 4    1  0.4336176E+000  0.2511670E+03  0.7546771E-02  0.1112569E+00
         21   -1    0    0  503  502  0.00000000000E+00  0.00000000000E+00  0.22238326083E+03  0.22238326083E+03  0.00000000000E+00 0. -1.
         21   -1    0    0  501  503 -0.00000000000E+00 -0.00000000000E+00 -0.50138314493E+03  0.50138314493E+03  0.00000000000E+00 0. -1.
          6    1    1    2  501    0  0.20547716441E+02  0.18092450490E+03 -0.37796211243E+03  0.45380639436E+03  0.17300000000E+03 0. -1.
         -6    1    1    2    0  502 -0.20547716441E+02 -0.18092450490E+03  0.98962228331E+02  0.26996001141E+03  0.17300000000E+03 0. -1.
<mgrwt>
<rscale>  2 0.25116705E+03</rscale>
<asrwt>0</asrwt>
<pdfrwt beam="1">  1       21 0.34212809E-01 0.25116705E+03</pdfrwt>
<pdfrwt beam="2">  1       21 0.77135869E-01 0.25116705E+03</pdfrwt>
<totfact> 0.11862838E+04</totfact>
</mgrwt>
</event>
<event>
 4    1  0.4336176E+000  0.1870861E+03  0.7546771E-02  0.1161116E+00
         21   -1    0    0  501  502  0.00000000000E+00  0.00000000000E+00  0.29230181101E+03  0.29230181101E+03  0.00000000000E+00 0. -1.
         21   -1    0    0  502  503 -0.00000000000E+00 -0.00000000000E+00 -0.12049440901E+03  0.12049440901E+03  0.00000000000E+00 0. -1.
          6    1    1    2  501    0  0.52417861485E+02  0.48213782967E+02  0.10219877446E+03  0.21318018335E+03  0.17300000000E+03 0. -1.
         -6    1    1    2    0  503 -0.52417861485E+02 -0.48213782967E+02  0.69608627529E+02  0.19961603667E+03  0.17300000000E+03 0. -1.
<mgrwt>
<rscale>  2 0.18708608E+03</rscale>
<asrwt>0</asrwt>
<pdfrwt beam="1">  1       21 0.44969509E-01 0.18708608E+03</pdfrwt>
<pdfrwt beam="2">  1       21 0.18537601E-01 0.18708608E+03</pdfrwt>
<totfact> 0.12640531E+05</totfact>
</mgrwt>
</event>
<event>
 4    1  0.4336176E+000  0.1786736E+03  0.7546771E-02  0.1169093E+00
         21   -1    0    0  501  502  0.00000000000E+00  0.00000000000E+00  0.25695204196E+03  0.25695204196E+03  0.00000000000E+00 0.  1.
         21   -1    0    0  502  503 -0.00000000000E+00 -0.00000000000E+00 -0.19697504532E+03  0.19697504532E+03  0.00000000000E+00 0.  1.
          6    1    1    2  501    0  0.30484381853E+02 -0.32648974525E+02  0.16790498391E+03  0.24518633057E+03  0.17300000000E+03 0.  1.
         -6    1    1    2    0  503 -0.30484381853E+02  0.32648974525E+02 -0.10792798727E+03  0.20874075671E+03  0.17300000000E+03 0.  1.
<mgrwt>
<rscale>  2 0.17867359E+03</rscale>
<asrwt>0</asrwt>
<pdfrwt beam="1">  1       21 0.39531083E-01 0.17867359E+03</pdfrwt>
<pdfrwt beam="2">  1       21 0.30303853E-01 0.17867359E+03</pdfrwt>
<totfact> 0.64848762E+04</totfact>
</mgrwt>
</event>
<event>
 4    1  0.4336176E+000  0.2052261E+03  0.7546771E-02  0.1145403E+00
         21   -1    0    0  501  502  0.00000000000E+00  0.00000000000E+00  0.46483998756E+03  0.46483998756E+03  0.00000000000E+00 0. -1.
         21   -1    0    0  502  503 -0.00000000000E+00 -0.00000000000E+00 -0.93140700656E+02  0.93140700656E+02  0.00000000000E+00 0.  1.
          6    1    1    2  501    0  0.69701059295E+02  0.85618523136E+02  0.23186415164E+03  0.30964294596E+03  0.17300000000E+03 0.  1.
         -6    1    1    2    0  503 -0.69701059295E+02 -0.85618523136E+02  0.13983513526E+03  0.24833774225E+03  0.17300000000E+03 0.  1.
<mgrwt>
<rscale>  2 0.20522614E+03</rscale>
<asrwt>0</asrwt>
<pdfrwt beam="1">  1       21 0.71513843E-01 0.20522614E+03</pdfrwt>
<pdfrwt beam="2">  1       21 0.14329339E-01 0.20522614E+03</pdfrwt>
<totfact> 0.74919116E+04</totfact>
</mgrwt>
</event>
<event>
 4    1  0.4336176E+000  0.2512810E+03  0.7546771E-02  0.1112498E+00
         21   -1    0    0  501  502  0.00000000000E+00  0.00000000000E+00  0.96314352892E+02  0.96314352892E+02  0.00000000000E+00 0. -1.
         21   -1    0    0  502  503 -0.00000000000E+00 -0.00000000000E+00 -0.69961399851E+03  0.69961399851E+03  0.00000000000E+00 0. -1.
          6    1    1    2  501    0  0.17153321913E+03 -0.61558964620E+02 -0.20181341811E+03  0.32228994263E+03  0.17300000000E+03 0. -1.
         -6    1    1    2    0  503 -0.17153321913E+03  0.61558964620E+02 -0.40148622751E+03  0.47363840878E+03  0.17300000000E+03 0. -1.
<mgrwt>
<rscale>  2 0.25128102E+03</rscale>
<asrwt>0</asrwt>
<pdfrwt beam="1">  1       21 0.14817593E-01 0.25128102E+03</pdfrwt>
<pdfrwt beam="2">  1       21 0.10763292E+00 0.25128102E+03</pdfrwt>
<totfact> 0.26754469E+04</totfact>
</mgrwt>
</event>
<event>
 4    1  0.4336176E+000  0.1823721E+03  0.7546771E-02  0.1165527E+00
         21   -1    0    0  501  502  0.00000000000E+00  0.00000000000E+00  0.13996394770E+03  0.13996394770E+03  0.00000000000E+00 0.  1.
         21   -1    0    0  502  503 -0.00000000000E+00 -0.00000000000E+00 -0.26642934542E+03  0.26642934542E+03  0.00000000000E+00 0.  1.
          6    1    1    2  501    0 -0.57711170374E+02  0.35215962474E-01  0.35739430545E+01  0.18240710922E+03  0.17300000000E+03 0.  1.
         -6    1    1    2    0  503  0.57711170374E+02 -0.35215962474E-01 -0.13003934078E+03  0.22398618390E+03  0.17300000000E+03 0.  1.
<mgrwt>
<rscale>  2 0.18237209E+03</rscale>
<asrwt>0</asrwt>
<pdfrwt beam="1">  1       21 0.21532915E-01 0.18237209E+03</pdfrwt>
<pdfrwt beam="2">  1       21 0.40989130E-01 0.18237209E+03</pdfrwt>
<totfact> 0.11564951E+05</totfact>
</mgrwt>
</event>
<event>
 4    1  0.4336176E+000  0.2251705E+03  0.7546771E-02  0.1130086E+00
         21   -1    0    0  501  502  0.00000000000E+00  0.00000000000E+00  0.19344684074E+03  0.19344684074E+03  0.00000000000E+00 0. -1.
         21   -1    0    0  502  503 -0.00000000000E+00 -0.00000000000E+00 -0.36944126799E+03  0.36944126799E+03  0.00000000000E+00 0. -1.
          6    1    1    2  501    0  0.11074784494E+03 -0.92236927094E+02  0.63711266748E+02  0.23401038735E+03  0.17300000000E+03 0. -1.
         -6    1    1    2    0  503 -0.11074784494E+03  0.92236927094E+02 -0.23970569401E+03  0.32887772138E+03  0.17300000000E+03 0. -1.
<mgrwt>
<rscale>  2 0.22517046E+03</rscale>
<asrwt>0</asrwt>
<pdfrwt beam="1">  1       21 0.29761052E-01 0.22517046E+03</pdfrwt>
<pdfrwt beam="2">  1       21 0.56837119E-01 0.22517046E+03</pdfrwt>
<totfact> 0.30953761E+04</totfact>
</mgrwt>
</event>
<event>
 4    1  0.4336176E+000  0.2359024E+03  0.7546771E-02  0.1122553E+00
         21   -1    0    0  503  502  0.00000000000E+00  0.00000000000E+00  0.59765365953E+02  0.59765365953E+02  0.00000000000E+00 0.  1.
         21   -1    0    0  501  503 -0.00000000000E+00 -0.00000000000E+00 -0.93713638415E+03  0.93713638415E+03  0.00000000000E+00 0. -1.
          6    1    1    2  501    0  0.15555602999E+03 -0.39029064201E+02 -0.47855598939E+03  0.53354079628E+03  0.17300000000E+03 0. -1.
         -6    1    1    2    0  502 -0.15555602999E+03  0.39029064201E+02 -0.39881502881E+03  0.46336095382E+03  0.17300000000E+03 0.  1.
<mgrwt>
<rscale>  2 0.23590241E+03</rscale>
<asrwt>0</asrwt>
<pdfrwt beam="1">  1       21 0.91946724E-02 0.23590241E+03</pdfrwt>
<pdfrwt beam="2">  1       21 0.14417482E+00 0.23590241E+03</pdfrwt>
<totfact> 0.30421516E+04</totfact>
</mgrwt>
</event>
<event>
 4    1  0.4336176E+000  0.1883137E+03  0.7546771E-02  0.1159991E+00
         21   -1    0    0  501  502  0.00000000000E+00  0.00000000000E+00  0.31205826530E+03  0.31205826530E+03  0.00000000000E+00 0.  1.
         21   -1    0    0  502  503 -0.00000000000E+00 -0.00000000000E+00 -0.13916935006E+03  0.13916935006E+03  0.00000000000E+00 0.  1.
          6    1    1    2  501    0  0.73121616976E+02  0.13648663519E+02  0.18307633473E+03  0.26263853720E+03  0.17300000000E+03 0.  1.
         -6    1    1    2    0  503 -0.73121616976E+02 -0.13648663519E+02 -0.10187419497E+02  0.18858907816E+03  0.17300000000E+03 0.  1.
<mgrwt>
<rscale>  2 0.18831372E+03</rscale>
<asrwt>0</asrwt>
<pdfrwt beam="1">  1       21 0.48008964E-01 0.18831372E+03</pdfrwt>
<pdfrwt beam="2">  1       21 0.21410669E-01 0.18831372E+03</pdfrwt>
<totfact> 0.84380869E+04</totfact>
</mgrwt>
</event>
<event>
 4    1  0.4336176E+000  0.2041333E+03  0.7546771E-02  0.1146298E+00
         21   -1    0    0  503  502  0.00000000000E+00  0.00000000000E+00  0.14731861735E+03  0.14731861735E+03  0.00000000000E+00 0.  1.
         21   -1    0    0  501  503 -0.00000000000E+00 -0.00000000000E+00 -0.43909543052E+03  0.43909543052E+03  0.00000000000E+00 0.  1.
          6    1    1    2  501    0 -0.31210239875E+02  0.10376575943E+03 -0.32078684123E+03  0.38022967981E+03  0.17300000000E+03 0.  1.
         -6    1    1    2    0  502  0.31210239875E+02 -0.10376575943E+03  0.29010028058E+02  0.20618436806E+03  0.17300000000E+03 0.  1.
<mgrwt>
<rscale>  2 0.20413332E+03</rscale>
<asrwt>0</asrwt>
<pdfrwt beam="1">  1       21 0.22664403E-01 0.20413332E+03</pdfrwt>
<pdfrwt beam="2">  1       21 0.67553141E-01 0.20413332E+03</pdfrwt>
<totfact> 0.36341529E+04</totfact>
</mgrwt>
</event>
<event>
 4    1  0.4336176E+000  0.1975671E+03  0.7546771E-02  0.1151808E+00
         21   -1    0    0  503  502  0.00000000000E+00  0.00000000000E+00  0.46645647898E+03  0.46645647898E+03  0.00000000000E+00 0. -1.
         21   -1    0    0  501  503 -0.00000000000E+00 -0.00000000000E+00 -0.87246577530E+02  0.87246577530E+02  0.00000000000E+00 0.  1.
          6    1    1    2  501    0 -0.43318756680E+02  0.85013217556E+02  0.13362405493E+03  0.23851236844E+03  0.17300000000E+03 0.  1.
         -6    1    1    2    0  502  0.43318756680E+02 -0.85013217556E+02  0.24558584651E+03  0.31519068807E+03  0.17300000000E+03 0. -1.
<mgrwt>
<rscale>  2 0.19756711E+03</rscale>
<asrwt>0</asrwt>
<pdfrwt beam="1">  1       21 0.71762534E-01 0.19756711E+03</pdfrwt>
<pdfrwt beam="2">  1       21 0.13422551E-01 0.19756711E+03</pdfrwt>
<totfact> 0.83975491E+04</totfact>
</mgrwt>
</event>
<event>
 4    1  0.4336176E+000  0.2167737E+03  0.7546771E-02  0.1136312E+00
         21   -1    0    0  503  502  0.00000000000E+00  0.00000000000E+00  0.21613152861E+03  0.21613152861E+03  0.00000000000E+00 0.  1.
         21   -1    0    0  501  503 -0.00000000000E+00 -0.00000000000E+00 -0.22384999657E+03  0.22384999657E+03  0.00000000000E+00 0. -1.
          6    1    1    2  501    0 -0.64931430797E+01 -0.13045944454E+03 -0.41150551020E+02  0.22064495332E+03  0.17300000000E+03 0.  1.
         -6    1    1    2    0  502  0.64931430797E+01  0.13045944454E+03  0.33432083066E+02  0.21933657186E+03  0.17300000000E+03 0.  1.
<mgrwt>
<rscale>  2 0.21677368E+03</rscale>
<asrwt>0</asrwt>
<pdfrwt beam="1">  1       21 0.33251004E-01 0.21677368E+03</pdfrwt>
<pdfrwt beam="2">  1       21 0.34438461E-01 0.21677368E+03</pdfrwt>
<totfact> 0.70031522E+04</totfact>
</mgrwt>
</event>
<event>
 4    1  0.4336176E+000  0.2181654E+03  0.7546771E-02  0.1135258E+00
         21   -1    0    0  503  502  0.00000000000E+00  0.00000000000E+00  0.53331494110E+03  0.53331494110E+03  0.00000000000E+00 0. -1.
         21   -1    0    0  501  503 -0.00000000000E+00 -0.00000000000E+00 -0.11754739761E+03  0.11754739761E+03  0.00000000000E+00 0.  1.
          6    1    1    2  501    0  0.62079182282E+02 -0.11753014197E+03  0.48201195886E+02  0.22342675406E+03  0.17300000000E+03 0.  1.
         -6    1    1    2    0  502 -0.62079182282E+02  0.11753014197E+03  0.36756634760E+03  0.42743558466E+03  0.17300000000E+03 0.  1.
<mgrwt>
<rscale>  2 0.21816544E+03</rscale>
<asrwt>0</asrwt>
<pdfrwt beam="1">  1       21 0.82048451E-01 0.21816544E+03</pdfrwt>
<pdfrwt beam="2">  1       21 0.18084215E-01 0.21816544E+03</pdfrwt>
<totfact> 0.35668247E+04</totfact>
</mgrwt>
</event>
<event>
 4    1  0.4336176E+000  0.1920440E+03  0.7546771E-02  0.1156631E+00
         21   -1    0    0  503  502  0.00000000000E+00  0.00000000000E+00  0.73561845629E+02  0.73561845629E+02  0.00000000000E+00 0. -1.
         21   -1    0    0  501  503 -0.00000000000E+00 -0.00000000000E+00 -0.51591778125E+03  0.51591778125E+03  0.00000000000E+00 0.  1.
          6    1    1    2  501    0  0.73054878374E+02  0.40185540144E+02 -0.27069004676E+03  0.33189455299E+03  0.17300000000E+03 0.  1.
         -6    1    1    2    0  502 -0.73054878374E+02 -0.40185540144E+02 -0.17166588886E+03  0.25758507389E+03  0.17300000000E+03 0. -1.
<mgrwt>
<rscale>  2 0.19204399E+03</rscale>
<asrwt>0</asrwt>
<pdfrwt beam="1">  1       21 0.11317207E-01 0.19204399E+03</pdfrwt>
<pdfrwt beam="2">  1       21 0.79371968E-01 0.19204399E+03</pdfrwt>
<totfact> 0.91243050E+04</totfact>
</mgrwt>
</event>
<event>
 4    1  0.4336176E+000  0.1902253E+03  0.7546771E-02  0.1158258E+00
         21   -1    0    0  503  502  0.00000000000E+00  0.00000000000E+00  0.66444717755E+03  0.66444717755E+03  0.00000000000E+00 0. -1.
         21   -1    0    0  501  503 -0.00000000000E+00 -0.00000000000E+00 -0.54803381946E+02  0.54803381946E+02  0.00000000000E+00 0.  1.
          6    1    1    2  501    0  0.76045427464E+02  0.21766243750E+02  0.33329576637E+03  0.38376000871E+03  0.17300000000E+03 0.  1.
         -6    1    1    2    0  502 -0.76045427464E+02 -0.21766243750E+02  0.27634802923E+03  0.33549055078E+03  0.17300000000E+03 0. -1.
<mgrwt>
<rscale>  2 0.19022533E+03</rscale>
<asrwt>0</asrwt>
<pdfrwt beam="1">  1       21 0.10222264E+00 0.19022533E+03</pdfrwt>
<pdfrwt beam="2">  1       21 0.84312900E-02 0.19022533E+03</pdfrwt>
<totfact> 0.85401420E+04</totfact>
</mgrwt>
</event>
<event>
 4    1  0.4336176E+000  0.1801033E+03  0.7546771E-02  0.1167703E+00
         21   -1    0    0  503  502  0.00000000000E+00  0.00000000000E+00  0.24584657085E+02  0.24584657085E+02  0.00000000000E+00 0. -1.
         21   -1    0    0  501  503 -0.00000000000E+00 -0.00000000000E+00 -0.15081105154E+04  0.15081105154E+04  0.00000000000E+00 0. -1.
          6    1    1    2  501    0  0.35260810985E+01 -0.49957774784E+02 -0.10128427264E+04  0.10287310635E+04  0.17300000000E+03 0.  1.
         -6    1    1    2    0  502 -0.35260810985E+01  0.49957774784E+02 -0.47068313183E+03  0.50396410894E+03  0.17300000000E+03 0.  1.
<mgrwt>
<rscale>  2 0.18010334E+03</rscale>
<asrwt>0</asrwt>
<pdfrwt beam="1">  1       21 0.37822529E-02 0.18010334E+03</pdfrwt>
<pdfrwt beam="2">  1       21 0.23201713E+00 0.18010334E+03</pdfrwt>
<totfact> 0.36954432E+04</totfact>
</mgrwt>
</event>
<event>
 4    1  0.4336176E+000  0.1739071E+03  0.7546771E-02  0.1173833E+00
         21   -1    0    0  503  502  0.00000000000E+00  0.00000000000E+00  0.91022714803E+02  0.91022714803E+02  0.00000000000E+00 0.  1.
         21   -1    0    0  501  503 -0.00000000000E+00 -0.00000000000E+00 -0.45309868371E+03  0.45309868371E+03  0.00000000000E+00 0.  1.
          6    1    1    2  501    0  0.15981623184E+02 -0.76995176074E+01 -0.32153360131E+03  0.36555102465E+03  0.17300000000E+03 0.  1.
         -6    1    1    2    0  502 -0.15981623184E+02  0.76995176074E+01 -0.40542367595E+02  0.17857037386E+03  0.17300000000E+03 0.  1.
<mgrwt>
<rscale>  2 0.17390714E+03</rscale>
<asrwt>0</asrwt>
<pdfrwt beam="1">  1       21 0.14003495E-01 0.17390714E+03</pdfrwt>
<pdfrwt beam="2">  1       21 0.69707489E-01 0.17390714E+03</pdfrwt>
<totfact> 0.83764945E+04</totfact>
</mgrwt>
</event>
<event>
 4    1  0.4336176E+000  0.1750206E+03  0.7546771E-02  0.1172711E+00
         21   -1    0    0  503  502  0.00000000000E+00  0.00000000000E+00  0.18847220123E+03  0.18847220123E+03  0.00000000000E+00 0.  1.
         21   -1    0    0  501  503 -0.00000000000E+00 -0.00000000000E+00 -0.16356143866E+03  0.16356143866E+03  0.00000000000E+00 0.  1.
          6    1    1    2  501    0  0.18008448345E+02  0.19465806263E+02 -0.15282410874E+01  0.17502730457E+03  0.17300000000E+03 0. -1.
         -6    1    1    2    0  502 -0.18008448345E+02 -0.19465806263E+02  0.26439003656E+02  0.17700633531E+03  0.17300000000E+03 0. -1.
<mgrwt>
<rscale>  2 0.17502063E+03</rscale>
<asrwt>0</asrwt>
<pdfrwt beam="1">  1       21 0.28995723E-01 0.17502063E+03</pdfrwt>
<pdfrwt beam="2">  1       21 0.25163298E-01 0.17502063E+03</pdfrwt>
<totfact> 0.17124802E+05</totfact>
</mgrwt>
</event>
<event>
 4    1  0.4336176E+000  0.1856910E+03  0.7546771E-02  0.1162406E+00
         21   -1    0    0  501  502  0.00000000000E+00  0.00000000000E+00  0.72296142636E+02  0.72296142636E+02  0.00000000000E+00 0.  1.
         21   -1    0    0  502  503 -0.00000000000E+00 -0.00000000000E+00 -0.57926888061E+03  0.57926888061E+03  0.00000000000E+00 0.  1.
          6    1    1    2  501    0  0.10098689747E+02 -0.66709502807E+02 -0.11656212531E+03  0.21924386048E+03  0.17300000000E+03 0.  1.
         -6    1    1    2    0  503 -0.10098689747E+02  0.66709502807E+02 -0.39041061266E+03  0.43232116277E+03  0.17300000000E+03 0.  1.
<mgrwt>
<rscale>  2 0.18569098E+03</rscale>
<asrwt>0</asrwt>
<pdfrwt beam="1">  1       21 0.11122484E-01 0.18569098E+03</pdfrwt>
<pdfrwt beam="2">  1       21 0.89118287E-01 0.18569098E+03</pdfrwt>
<totfact> 0.72442609E+04</totfact>
</mgrwt>
</event>
<event>
 4    1  0.4336176E+000  0.2330077E+03  0.7546771E-02  0.1124541E+00
         21   -1    0    0  501  502  0.00000000000E+00  0.00000000000E+00  0.16396223857E+04  0.16396223857E+04  0.00000000000E+00 0. -1.
         21   -1    0    0  502  503 -0.00000000000E+00 -0.00000000000E+00 -0.50881579086E+02  0.50881579086E+02  0.00000000000E+00 0.  1.
          6    1    1    2  501    0 -0.13026047085E+03  0.85998780733E+02  0.12938687011E+04  0.13146820134E+04  0.17300000000E+03 0. -1.
         -6    1    1    2    0  503  0.13026047085E+03 -0.85998780733E+02  0.29487210544E+03  0.37582195135E+03  0.17300000000E+03 0.  1.
<mgrwt>
<rscale>  2 0.23300768E+03</rscale>
<asrwt>0</asrwt>
<pdfrwt beam="1">  1       21 0.25224956E+00 0.23300768E+03</pdfrwt>
<pdfrwt beam="2">  1       21 0.78279365E-02 0.23300768E+03</pdfrwt>
<totfact> 0.77450778E+03</totfact>
</mgrwt>
</event>
<event>
 4    1  0.4336176E+000  0.1799454E+03  0.7546771E-02  0.1167856E+00
         21   -1    0    0  501  502  0.00000000000E+00  0.00000000000E+00  0.30194257430E+03  0.30194257430E+03  0.00000000000E+00 0. -1.
         21   -1    0    0  502  503 -0.00000000000E+00 -0.00000000000E+00 -0.12107035397E+03  0.12107035397E+03  0.00000000000E+00 0.  1.
          6    1    1    2  501    0  0.22729660560E+02 -0.43985372220E+02  0.16192192807E+03  0.24207242972E+03  0.17300000000E+03 0. -1.
         -6    1    1    2    0  503 -0.22729660560E+02  0.43985372220E+02  0.18950292251E+02  0.18094049855E+03  0.17300000000E+03 0.  1.
<mgrwt>
<rscale>  2 0.17994541E+03</rscale>
<asrwt>0</asrwt>
<pdfrwt beam="1">  1       21 0.46452703E-01 0.17994541E+03</pdfrwt>
<pdfrwt beam="2">  1       21 0.18626208E-01 0.17994541E+03</pdfrwt>
<totfact> 0.11750341E+05</totfact>
</mgrwt>
</event>
<event>
 4    1  0.4336176E+000  0.3037795E+03  0.7546771E-02  0.1083366E+00
         21   -1    0    0  501  502  0.00000000000E+00  0.00000000000E+00  0.10525927194E+03  0.10525927194E+03  0.00000000000E+00 0.  1.
         21   -1    0    0  502  503 -0.00000000000E+00 -0.00000000000E+00 -0.92007173664E+03  0.92007173664E+03  0.00000000000E+00 0. -1.
          6    1    1    2  501    0 -0.23584499612E+03  0.82037261199E+02 -0.29611243394E+03  0.42422228602E+03  0.17300000000E+03 0.  1.
         -6    1    1    2    0  503  0.23584499612E+03 -0.82037261199E+02 -0.51870003076E+03  0.60110872256E+03  0.17300000000E+03 0. -1.
<mgrwt>
<rscale>  2 0.30377948E+03</rscale>
<asrwt>0</asrwt>
<pdfrwt beam="1">  1       21 0.16193734E-01 0.30377948E+03</pdfrwt>
<pdfrwt beam="2">  1       21 0.14154950E+00 0.30377948E+03</pdfrwt>
<totfact> 0.11104151E+04</totfact>
</mgrwt>
</event>
<event>
 4    1  0.4336176E+000  0.2295993E+03  0.7546771E-02  0.1126922E+00
         21   -1    0    0  503  502  0.00000000000E+00  0.00000000000E+00  0.36667461307E+03  0.36667461307E+03  0.00000000000E+00 0. -1.
         21   -1    0    0  501  503 -0.00000000000E+00 -0.00000000000E+00 -0.14425205357E+03  0.14425205357E+03  0.00000000000E+00 0.  1.
          6    1    1    2  501    0  0.40343865609E+02 -0.14546209930E+03  0.12601907981E+03  0.26190963766E+03  0.17300000000E+03 0. -1.
         -6    1    1    2    0  502 -0.40343865609E+02  0.14546209930E+03  0.96403479691E+02  0.24901702898E+03  0.17300000000E+03 0.  1.
<mgrwt>
<rscale>  2 0.22959932E+03</rscale>
<asrwt>0</asrwt>
<pdfrwt beam="1">  1       21 0.56411479E-01 0.22959932E+03</pdfrwt>
<pdfrwt beam="2">  1       21 0.22192624E-01 0.22959932E+03</pdfrwt>
<totfact> 0.55194322E+04</totfact>
</mgrwt>
</event>
<event>
 4    1  0.4336176E+000  0.1742019E+03  0.7546771E-02  0.1173535E+00
         21   -1    0    0  501  502  0.00000000000E+00  0.00000000000E+00  0.16963254889E+03  0.16963254889E+03  0.00000000000E+00 0.  1.
         21   -1    0    0  502  503 -0.00000000000E+00 -0.00000000000E+00 -0.25000734913E+03  0.25000734913E+03  0.00000000000E+00 0.  1.
          6    1    1    2  501    0 -0.17258006240E+02 -0.10929832692E+02  0.71716434547E+02  0.18838669541E+03  0.17300000000E+03 0.  1.
         -6    1    1    2    0  503  0.17258006240E+02  0.10929832692E+02 -0.15209123478E+03  0.23125320261E+03  0.17300000000E+03 0.  1.
<mgrwt>
<rscale>  2 0.17420189E+03</rscale>
<asrwt>0</asrwt>
<pdfrwt beam="1">  1       21 0.26097315E-01 0.17420189E+03</pdfrwt>
<pdfrwt beam="2">  1       21 0.38462669E-01 0.17420189E+03</pdfrwt>
<totfact> 0.91601692E+04</totfact>
</mgrwt>
</event>
<event>
 4    1  0.4336176E+000  0.2458765E+03  0.7546771E-02  0.1115939E+00
         21   -1    0    0  501  502  0.00000000000E+00  0.00000000000E+00  0.77821007954E+03  0.77821007954E+03  0.00000000000E+00 0.  1.
         21   -1    0    0  502  503 -0.00000000000E+00 -0.00000000000E+00 -0.81695257991E+02  0.81695257991E+02  0.00000000000E+00 0.  1.
          6    1    1    2  501    0  0.18628942990E+02  0.17372171412E+03  0.44351660180E+03  0.50711167167E+03  0.17300000000E+03 0.  1.
         -6    1    1    2    0  503 -0.18628942990E+02 -0.17372171412E+03  0.25299821975E+03  0.35279366586E+03  0.17300000000E+03 0.  1.
<mgrwt>
<rscale>  2 0.24587654E+03</rscale>
<asrwt>0</asrwt>
<pdfrwt beam="1">  1       21 0.11972462E+00 0.24587654E+03</pdfrwt>
<pdfrwt beam="2">  1       21 0.12568502E-01 0.24587654E+03</pdfrwt>
<totfact> 0.27859721E+04</totfact>
</mgrwt>
</event>
<event>
 4    1  0.4336176E+000  0.2027253E+03  0.7546771E-02  0.1147460E+00
         21   -1    0    0  501  502  0.00000000000E+00  0.00000000000E+00  0.27745423223E+03  0.27745423223E+03  0.00000000000E+00 0. -1.
         21   -1    0    0  502  503 -0.00000000000E+00 -0.00000000000E+00 -0.17351838122E+03  0.17351838122E+03  0.00000000000E+00 0. -1.
          6    1    1    2  501    0  0.42055361293E+01 -0.10559755156E+03  0.13822989469E+03  0.24536713964E+03  0.17300000000E+03 0. -1.
         -6    1    1    2    0  503 -0.42055361293E+01  0.10559755156E+03 -0.34294043684E+02  0.20560547381E+03  0.17300000000E+03 0. -1.
<mgrwt>
<rscale>  2 0.20272526E+03</rscale>
<asrwt>0</asrwt>
<pdfrwt beam="1">  1       21 0.42685266E-01 0.20272526E+03</pdfrwt>
<pdfrwt beam="2">  1       21 0.26695136E-01 0.20272526E+03</pdfrwt>
<totfact> 0.70204484E+04</totfact>
</mgrwt>
</event>
<event>
 4    1  0.4336176E+000  0.1937060E+03  0.7546771E-02  0.1155161E+00
         21   -1    0    0  501  502  0.00000000000E+00  0.00000000000E+00  0.20670864850E+03  0.20670864850E+03  0.00000000000E+00 0. -1.
         21   -1    0    0  502  503 -0.00000000000E+00 -0.00000000000E+00 -0.20876107248E+03  0.20876107248E+03  0.00000000000E+00 0.  1.
          6    1    1    2  501    0  0.67764898141E+02 -0.54780764536E+02  0.74012731123E+02  0.20736416747E+03  0.17300000000E+03 0. -1.
         -6    1    1    2    0  503 -0.67764898141E+02  0.54780764536E+02 -0.76065155102E+02  0.20810555352E+03  0.17300000000E+03 0.  1.
<mgrwt>
<rscale>  2 0.19370600E+03</rscale>
<asrwt>0</asrwt>
<pdfrwt beam="1">  1       21 0.31801331E-01 0.19370600E+03</pdfrwt>
<pdfrwt beam="2">  1       21 0.32117088E-01 0.19370600E+03</pdfrwt>
<totfact> 0.88629029E+04</totfact>
</mgrwt>
</event>
<event>
 4    1  0.4336176E+000  0.2421748E+03  0.7546771E-02  0.1118352E+00
         21   -1    0    0  501  502  0.00000000000E+00  0.00000000000E+00  0.90450094592E+02  0.90450094592E+02  0.00000000000E+00 0.  1.
         21   -1    0    0  502  503 -0.00000000000E+00 -0.00000000000E+00 -0.73704695441E+03  0.73704695441E+03  0.00000000000E+00 0.  1.
          6    1    1    2  501    0 -0.47564107238E+02 -0.16265697552E+03 -0.17981581994E+03  0.30163283157E+03  0.17300000000E+03 0.  1.
         -6    1    1    2    0  503  0.47564107238E+02  0.16265697552E+03 -0.46678103987E+03  0.52586421742E+03  0.17300000000E+03 0.  1.
<mgrwt>
<rscale>  2 0.24217480E+03</rscale>
<asrwt>0</asrwt>
<pdfrwt beam="1">  1       21 0.13915399E-01 0.24217480E+03</pdfrwt>
<pdfrwt beam="2">  1       21 0.11339184E+00 0.24217480E+03</pdfrwt>
<totfact> 0.26537097E+04</totfact>
</mgrwt>
</event>
<event>
 4    1  0.4336176E+000  0.1842836E+03  0.7546771E-02  0.1163721E+00
         21   -1    0    0  501  502  0.00000000000E+00  0.00000000000E+00  0.60070415214E+03  0.60070415214E+03  0.00000000000E+00 0. -1.
         21   -1    0    0  502  503 -0.00000000000E+00 -0.00000000000E+00 -0.81272195981E+02  0.81272195981E+02  0.00000000000E+00 0.  1.
          6    1    1    2  501    0 -0.59550084216E+02 -0.22027926394E+02  0.44784202092E+03  0.48427566300E+03  0.17300000000E+03 0. -1.
         -6    1    1    2    0  503  0.59550084216E+02  0.22027926394E+02  0.71589935242E+02  0.19770068513E+03  0.17300000000E+03 0.  1.
<mgrwt>
<rscale>  2 0.18428359E+03</rscale>
<asrwt>0</asrwt>
<pdfrwt beam="1">  1       21 0.92416021E-01 0.18428359E+03</pdfrwt>
<pdfrwt beam="2">  1       21 0.12503415E-01 0.18428359E+03</pdfrwt>
<totfact> 0.54075567E+04</totfact>
</mgrwt>
</event>
<event>
 4    1  0.4336176E+000  0.1904275E+03  0.7546771E-02  0.1158076E+00
         21   -1    0    0  501  502  0.00000000000E+00  0.00000000000E+00  0.11811255931E+03  0.11811255931E+03  0.00000000000E+00 0. -1.
         21   -1    0    0  502  503 -0.00000000000E+00 -0.00000000000E+00 -0.53405503750E+03  0.53405503750E+03  0.00000000000E+00 0. -1.
          6    1    1    2  501    0  0.54756935185E+02 -0.57752211589E+02  0.46393582840E+01  0.19048402437E+03  0.17300000000E+03 0. -1.
         -6    1    1    2    0  503 -0.54756935185E+02  0.57752211589E+02 -0.42058183647E+03  0.46168357244E+03  0.17300000000E+03 0. -1.
<mgrwt>
<rscale>  2 0.19042752E+03</rscale>
<asrwt>0</asrwt>
<pdfrwt beam="1">  1       21 0.18171163E-01 0.19042752E+03</pdfrwt>
<pdfrwt beam="2">  1       21 0.82162313E-01 0.19042752E+03</pdfrwt>
<totfact> 0.35761543E+04</totfact>
</mgrwt>
</event>
<event>
 4    1  0.4336176E+000  0.1769958E+03  0.7546771E-02  0.1170743E+00
         21   -1    0    0  501  502  0.00000000000E+00  0.00000000000E+00  0.19391028841E+03  0.19391028841E+03  0.00000000000E+00 0.  1.
         21   -1    0    0  502  503 -0.00000000000E+00 -0.00000000000E+00 -0.16157228636E+03  0.16157228636E+03  0.00000000000E+00 0. -1.
          6    1    1    2  501    0  0.93812539005E+01  0.36200817456E+02  0.14423506710E+02  0.17758250098E+03  0.17300000000E+03 0. -1.
         -6    1    1    2    0  503 -0.93812539005E+01 -0.36200817456E+02  0.17914495345E+02  0.17790007379E+03  0.17300000000E+03 0. -1.
<mgrwt>
<rscale>  2 0.17699578E+03</rscale>
<asrwt>0</asrwt>
<pdfrwt beam="1">  1       21 0.29832352E-01 0.17699578E+03</pdfrwt>
<pdfrwt beam="2">  1       21 0.24857275E-01 0.17699578E+03</pdfrwt>
<totfact> 0.16577097E+05</totfact>
</mgrwt>
</event>
<event>
 4    1  0.4336176E+000  0.1997717E+03  0.7546771E-02  0.1149932E+00
         21   -1    0    0  501  502  0.00000000000E+00  0.00000000000E+00  0.96628552668E+02  0.96628552668E+02  0.00000000000E+00 0. -1.
         21   -1    0    0  502  503 -0.00000000000E+00 -0.00000000000E+00 -0.60716611237E+03  0.60716611237E+03  0.00000000000E+00 0. -1.
          6    1    1    2  501    0 -0.11190231305E+02  0.99269978469E+02 -0.56276819080E+02  0.20754717600E+03  0.17300000000E+03 0.  1.
         -6    1    1    2    0  503  0.11190231305E+02 -0.99269978469E+02 -0.45426074062E+03  0.49624748903E+03  0.17300000000E+03 0.  1.
<mgrwt>
<rscale>  2 0.19977174E+03</rscale>
<asrwt>0</asrwt>
<pdfrwt beam="1">  1       21 0.14865932E-01 0.19977174E+03</pdfrwt>
<pdfrwt beam="2">  1       21 0.93410168E-01 0.19977174E+03</pdfrwt>
<totfact> 0.38276099E+04</totfact>
</mgrwt>
</event>
<event>
 4    1  0.4336176E+000  0.1926324E+03  0.7546771E-02  0.1156108E+00
         21   -1    0    0  503  502  0.00000000000E+00  0.00000000000E+00  0.58397046363E+03  0.58397046363E+03  0.00000000000E+00 0.  1.
         21   -1    0    0  501  503 -0.00000000000E+00 -0.00000000000E+00 -0.10661021714E+03  0.10661021714E+03  0.00000000000E+00 0. -1.
          6    1    1    2  501    0 -0.71010308917E+02  0.46214315928E+02  0.19218548648E+02  0.19358868660E+03  0.17300000000E+03 0. -1.
         -6    1    1    2    0  502  0.71010308917E+02 -0.46214315928E+02  0.45814169784E+03  0.49699199417E+03  0.17300000000E+03 0.  1.
<mgrwt>
<rscale>  2 0.19263236E+03</rscale>
<asrwt>0</asrwt>
<pdfrwt beam="1">  1       21 0.89841608E-01 0.19263236E+03</pdfrwt>
<pdfrwt beam="2">  1       21 0.16401572E-01 0.19263236E+03</pdfrwt>
<totfact> 0.35150738E+04</totfact>
</mgrwt>
</event>
<event>
 4    1  0.4336176E+000  0.2083433E+03  0.7546771E-02  0.1142885E+00
         21   -1    0    0  501  502  0.00000000000E+00  0.00000000000E+00  0.12180931251E+03  0.12180931251E+03  0.00000000000E+00 0. -1.
         21   -1    0    0  502  503 -0.00000000000E+00 -0.00000000000E+00 -0.10417967901E+04  0.10417967901E+04  0.00000000000E+00 0. -1.
          6    1    1    2  501    0  0.48087892478E+02  0.10566682731E+03  0.11929001245E+02  0.20868451037E+03  0.17300000000E+03 0. -1.
         -6    1    1    2    0  503 -0.48087892478E+02 -0.10566682731E+03 -0.93191647879E+03  0.95492159219E+03  0.17300000000E+03 0. -1.
<mgrwt>
<rscale>  2 0.20834328E+03</rscale>
<asrwt>0</asrwt>
<pdfrwt beam="1">  1       21 0.18739894E-01 0.20834328E+03</pdfrwt>
<pdfrwt beam="2">  1       21 0.16027643E+00 0.20834328E+03</pdfrwt>
<totfact> 0.64451642E+03</totfact>
</mgrwt>
</event>
<event>
 4    1  0.4336176E+000  0.2497488E+03  0.7546771E-02  0.1113464E+00
         21   -1    0    0  501  502  0.00000000000E+00  0.00000000000E+00  0.86618710974E+03  0.86618710974E+03  0.00000000000E+00 0.  1.
         21   -1    0    0  502  503 -0.00000000000E+00 -0.00000000000E+00 -0.12784656342E+03  0.12784656342E+03  0.00000000000E+00 0.  1.
          6    1    1    2  501    0 -0.41809353079E+02 -0.17520684573E+03  0.69763175191E+03  0.74098888121E+03  0.17300000000E+03 0.  1.
         -6    1    1    2    0  503  0.41809353079E+02  0.17520684573E+03  0.40708794409E+02  0.25304479196E+03  0.17300000000E+03 0.  1.
<mgrwt>
<rscale>  2 0.24974880E+03</rscale>
<asrwt>0</asrwt>
<pdfrwt beam="1">  1       21 0.13325955E+00 0.24974880E+03</pdfrwt>
<pdfrwt beam="2">  1       21 0.19668703E-01 0.24974880E+03</pdfrwt>
<totfact> 0.93042177E+03</totfact>
</mgrwt>
</event>
<event>
 4    1  0.4336176E+000  0.1767659E+03  0.7546771E-02  0.1170970E+00
         21   -1    0    0  501  502  0.00000000000E+00  0.00000000000E+00  0.27423611665E+02  0.27423611665E+02  0.00000000000E+00 0. -1.
         21   -1    0    0  502  503 -0.00000000000E+00 -0.00000000000E+00 -0.11439435524E+04  0.11439435524E+04  0.00000000000E+00 0. -1.
          6    1    1    2  501    0  0.35482589405E+02  0.76264591844E+01 -0.52130638743E+03  0.55046028613E+03  0.17300000000E+03 0. -1.
         -6    1    1    2    0  503 -0.35482589405E+02 -0.76264591844E+01 -0.59521355332E+03  0.62090687795E+03  0.17300000000E+03 0. -1.
<mgrwt>
<rscale>  2 0.17676588E+03</rscale>
<asrwt>0</asrwt>
<pdfrwt beam="1">  1       21 0.42190173E-02 0.17676588E+03</pdfrwt>
<pdfrwt beam="2">  1       21 0.17599131E+00 0.17676588E+03</pdfrwt>
<totfact> 0.70089201E+04</totfact>
</mgrwt>
</event>
<event>
 4    1  0.4336176E+000  0.2911021E+03  0.7546771E-02  0.1089775E+00
         21   -1    0    0  503  502  0.00000000000E+00  0.00000000000E+00  0.20495697626E+04  0.20495697626E+04  0.00000000000E+00 0.  1.
         21   -1    0    0  501  503 -0.00000000000E+00 -0.00000000000E+00 -0.42527690059E+02  0.42527690059E+02  0.00000000000E+00 0.  1.
          6    1    1    2  501    0 -0.64823720491E+02 -0.22496518857E+03  0.82911445109E+03  0.87873273742E+03  0.17300000000E+03 0.  1.
         -6    1    1    2    0  502  0.64823720491E+02  0.22496518857E+03  0.11779276214E+04  0.12133647152E+04  0.17300000000E+03 0.  1.
<mgrwt>
<rscale>  2 0.29110213E+03</rscale>
<asrwt>0</asrwt>
<pdfrwt beam="1">  1       21 0.31531835E+00 0.29110213E+03</pdfrwt>
<pdfrwt beam="2">  1       21 0.65427231E-02 0.29110213E+03</pdfrwt>
<totfact> 0.42992331E+03</totfact>
</mgrwt>
</event>
<event>
 4    1  0.4336176E+000  0.2034275E+03  0.7546771E-02  0.1146879E+00
         21   -1    0    0  501  502  0.00000000000E+00  0.00000000000E+00  0.24420835444E+03  0.24420835444E+03  0.00000000000E+00 0. -1.
         21   -1    0    0  502  503 -0.00000000000E+00 -0.00000000000E+00 -0.17645384327E+03  0.17645384327E+03  0.00000000000E+00 0. -1.
          6    1    1    2  501    0  0.81980624791E+02  0.68796366944E+02  0.75761012739E+02  0.21707716139E+03  0.17300000000E+03 0.  1.
         -6    1    1    2    0  503 -0.81980624791E+02 -0.68796366944E+02 -0.80065015764E+01  0.20358503632E+03  0.17300000000E+03 0.  1.
<mgrwt>
<rscale>  2 0.20342754E+03</rscale>
<asrwt>0</asrwt>
<pdfrwt beam="1">  1       21 0.37570516E-01 0.20342754E+03</pdfrwt>
<pdfrwt beam="2">  1       21 0.27146745E-01 0.20342754E+03</pdfrwt>
<totfact> 0.87971163E+04</totfact>
</mgrwt>
</event>
<event>
 4    1  0.4336176E+000  0.1911092E+03  0.7546771E-02  0.1157465E+00
         21   -1    0    0  503  502  0.00000000000E+00  0.00000000000E+00  0.13004310223E+03  0.13004310223E+03  0.00000000000E+00 0.  1.
         21   -1    0    0  501  503 -0.00000000000E+00 -0.00000000000E+00 -0.52698934323E+03  0.52698934323E+03  0.00000000000E+00 0.  1.
          6    1    1    2  501    0 -0.66441681469E+01 -0.80929531069E+02 -0.42298821765E+03  0.46415704911E+03  0.17300000000E+03 0.  1.
         -6    1    1    2    0  502  0.66441681469E+01  0.80929531069E+02  0.26041976642E+02  0.19287539635E+03  0.17300000000E+03 0.  1.
<mgrwt>
<rscale>  2 0.19110922E+03</rscale>
<asrwt>0</asrwt>
<pdfrwt beam="1">  1       21 0.20006631E-01 0.19110922E+03</pdfrwt>
<pdfrwt beam="2">  1       21 0.81075283E-01 0.19110922E+03</pdfrwt>
<totfact> 0.30810439E+04</totfact>
</mgrwt>
</event>
<event>
 4    1  0.4336176E+000  0.1753962E+03  0.7546771E-02  0.1172334E+00
         21   -1    0    0  503  502  0.00000000000E+00  0.00000000000E+00  0.73314012740E+02  0.73314012740E+02  0.00000000000E+00 0. -1.
         21   -1    0    0  501  503 -0.00000000000E+00 -0.00000000000E+00 -0.42107414136E+03  0.42107414136E+03  0.00000000000E+00 0. -1.
          6    1    1    2  501    0  0.25931904329E+02  0.12742672874E+02 -0.18841931212E+03  0.25742120455E+03  0.17300000000E+03 0. -1.
         -6    1    1    2    0  502 -0.25931904329E+02 -0.12742672874E+02 -0.15934081650E+03  0.23696694954E+03  0.17300000000E+03 0. -1.
<mgrwt>
<rscale>  2 0.17539624E+03</rscale>
<asrwt>0</asrwt>
<pdfrwt beam="1">  1       21 0.11279079E-01 0.17539624E+03</pdfrwt>
<pdfrwt beam="2">  1       21 0.64780637E-01 0.17539624E+03</pdfrwt>
<totfact> 0.14475598E+05</totfact>
</mgrwt>
</event>
<event>
 4    1  0.4336176E+000  0.1814266E+03  0.7546771E-02  0.1166429E+00
         21   -1    0    0  503  502  0.00000000000E+00  0.00000000000E+00  0.29847609509E+03  0.29847609509E+03  0.00000000000E+00 0. -1.
         21   -1    0    0  501  503 -0.00000000000E+00 -0.00000000000E+00 -0.14808835627E+03  0.14808835627E+03  0.00000000000E+00 0. -1.
          6    1    1    2  501    0  0.29488531157E+02 -0.46011311186E+02 -0.37628167311E+02  0.18528759592E+03  0.17300000000E+03 0. -1.
         -6    1    1    2    0  502 -0.29488531157E+02  0.46011311186E+02  0.18801590614E+03  0.26127685544E+03  0.17300000000E+03 0. -1.
<mgrwt>
<rscale>  2 0.18142661E+03</rscale>
<asrwt>0</asrwt>
<pdfrwt beam="1">  1       21 0.45919399E-01 0.18142661E+03</pdfrwt>
<pdfrwt beam="2">  1       21 0.22782824E-01 0.18142661E+03</pdfrwt>
<totfact> 0.82510501E+04</totfact>
</mgrwt>
</event>
<event>
 4    1  0.4336176E+000  0.2000565E+03  0.7546771E-02  0.1149691E+00
         21   -1    0    0  503  502  0.00000000000E+00  0.00000000000E+00  0.60454254925E+03  0.60454254925E+03  0.00000000000E+00 0.  1.
         21   -1    0    0  501  503 -0.00000000000E+00 -0.00000000000E+00 -0.17142206488E+03  0.17142206488E+03  0.00000000000E+00 0. -1.
          6    1    1    2  501    0 -0.23412002725E+02 -0.97700975259E+02 -0.87406124928E+02  0.21831727626E+03  0.17300000000E+03 0. -1.
         -6    1    1    2    0  502  0.23412002725E+02  0.97700975259E+02  0.52052660930E+03  0.55764733787E+03  0.17300000000E+03 0.  1.
<mgrwt>
<rscale>  2 0.20005650E+03</rscale>
<asrwt>0</asrwt>
<pdfrwt beam="1">  1       21 0.93006545E-01 0.20005650E+03</pdfrwt>
<pdfrwt beam="2">  1       21 0.26372626E-01 0.20005650E+03</pdfrwt>
<totfact> 0.13243949E+04</totfact>
</mgrwt>
</event>
<event>
 4    1  0.4336176E+000  0.2707226E+03  0.7546771E-02  0.1100867E+00
         21   -1    0    0  501  502  0.00000000000E+00  0.00000000000E+00  0.39616640895E+03  0.39616640895E+03  0.00000000000E+00 0. -1.
         21   -1    0    0  502  503 -0.00000000000E+00 -0.00000000000E+00 -0.18859437724E+03  0.18859437724E+03  0.00000000000E+00 0. -1.
          6    1    1    2  501    0 -0.20709921362E+03  0.21717585729E+02  0.14415083394E+03  0.30670865774E+03  0.17300000000E+03 0. -1.
         -6    1    1    2    0  503  0.20709921362E+03 -0.21717585729E+02  0.63421197773E+02  0.27805212845E+03  0.17300000000E+03 0. -1.
<mgrwt>
<rscale>  2 0.27072262E+03</rscale>
<asrwt>0</asrwt>
<pdfrwt beam="1">  1       21 0.60948678E-01 0.27072262E+03</pdfrwt>
<pdfrwt beam="2">  1       21 0.29014520E-01 0.27072262E+03</pdfrwt>
<totfact> 0.27417950E+04</totfact>
</mgrwt>
</event>
<event>
 4    1  0.4336176E+000  0.2013106E+03  0.7546771E-02  0.1148638E+00
         21   -1    0    0  501  502  0.00000000000E+00  0.00000000000E+00  0.52817786668E+02  0.52817786668E+02  0.00000000000E+00 0. -1.
         21   -1    0    0  502  503 -0.00000000000E+00 -0.00000000000E+00 -0.14143103791E+04  0.14143103791E+04  0.00000000000E+00 0. -1.
          6    1    1    2  501    0 -0.90668672751E+02 -0.48745648213E+02 -0.18457850300E+03  0.27312116397E+03  0.17300000000E+03 0. -1.
         -6    1    1    2    0  503  0.90668672751E+02  0.48745648213E+02 -0.11769140894E+04  0.11940070018E+04  0.17300000000E+03 0. -1.
<mgrwt>
<rscale>  2 0.20131057E+03</rscale>
<asrwt>0</asrwt>
<pdfrwt beam="1">  1       21 0.81258133E-02 0.20131057E+03</pdfrwt>
<pdfrwt beam="2">  1       21 0.21758621E+00 0.20131057E+03</pdfrwt>
<totfact> 0.12067615E+04</totfact>
</mgrwt>
</event>
<event>
 4    1  0.4336176E+000  0.2425583E+03  0.7546771E-02  0.1118100E+00
         21   -1    0    0  503  502  0.00000000000E+00  0.00000000000E+00  0.29009211077E+03  0.29009211077E+03  0.00000000000E+00 0.  1.
         21   -1    0    0  501  503 -0.00000000000E+00 -0.00000000000E+00 -0.20444920744E+03  0.20444920744E+03  0.00000000000E+00 0. -1.
          6    1    1    2  501    0 -0.10173486679E+03  0.13621867396E+03  0.20702116938E+02  0.24344011153E+03  0.17300000000E+03 0.  1.
         -6    1    1    2    0  502  0.10173486679E+03 -0.13621867396E+03  0.64940786400E+02  0.25110120668E+03  0.17300000000E+03 0.  1.
<mgrwt>
<rscale>  2 0.24255826E+03</rscale>
<asrwt>0</asrwt>
<pdfrwt beam="1">  1       21 0.44629555E-01 0.24255826E+03</pdfrwt>
<pdfrwt beam="2">  1       21 0.31453724E-01 0.24255826E+03</pdfrwt>
<totfact> 0.45758369E+04</totfact>
</mgrwt>
</event>
<event>
 4    1  0.4336176E+000  0.1802410E+03  0.7546771E-02  0.1167570E+00
         21   -1    0    0  503  502  0.00000000000E+00  0.00000000000E+00  0.54760486894E+03  0.54760486894E+03  0.00000000000E+00 0. -1.
         21   -1    0    0  501  503 -0.00000000000E+00 -0.00000000000E+00 -0.63218235566E+02  0.63218235566E+02  0.00000000000E+00 0. -1.
          6    1    1    2  501    0  0.15311910077E+02  0.48201168772E+02  0.16640460941E+03  0.24531062206E+03  0.17300000000E+03 0. -1.
         -6    1    1    2    0  502 -0.15311910077E+02 -0.48201168772E+02  0.31798202396E+03  0.36551248244E+03  0.17300000000E+03 0. -1.
<mgrwt>
<rscale>  2 0.18024097E+03</rscale>
<asrwt>0</asrwt>
<pdfrwt beam="1">  1       21 0.84246899E-01 0.18024097E+03</pdfrwt>
<pdfrwt beam="2">  1       21 0.97258828E-02 0.18024097E+03</pdfrwt>
<totfact> 0.10472708E+05</totfact>
</mgrwt>
</event>
<event>
 4    1  0.4336176E+000  0.1780637E+03  0.7546771E-02  0.1169690E+00
         21   -1    0    0  501  502  0.00000000000E+00  0.00000000000E+00  0.67670812333E+02  0.67670812333E+02  0.00000000000E+00 0.  1.
         21   -1    0    0  502  503 -0.00000000000E+00 -0.00000000000E+00 -0.49824911153E+03  0.49824911153E+03  0.00000000000E+00 0.  1.
          6    1    1    2  501    0  0.16601578712E+02  0.38756730195E+02 -0.28438045901E+03  0.33552785580E+03  0.17300000000E+03 0.  1.
         -6    1    1    2    0  503 -0.16601578712E+02 -0.38756730195E+02 -0.14619784019E+03  0.23039206806E+03  0.17300000000E+03 0.  1.
<mgrwt>
<rscale>  2 0.17806374E+03</rscale>
<asrwt>0</asrwt>
<pdfrwt beam="1">  1       21 0.10410894E-01 0.17806374E+03</pdfrwt>
<pdfrwt beam="2">  1       21 0.76653710E-01 0.17806374E+03</pdfrwt>
<totfact> 0.11505046E+05</totfact>
</mgrwt>
</event>
<event>
 4    1  0.4336176E+000  0.2528003E+03  0.7546771E-02  0.1111548E+00
         21   -1    0    0  501  502  0.00000000000E+00  0.00000000000E+00  0.12303259325E+03  0.12303259325E+03  0.00000000000E+00 0.  1.
         21   -1    0    0  502  503 -0.00000000000E+00 -0.00000000000E+00 -0.66129748103E+03  0.66129748103E+03  0.00000000000E+00 0.  1.
          6    1    1    2  501    0  0.66289919967E+02 -0.17200187118E+03 -0.87498413428E+02  0.26751442864E+03  0.17300000000E+03 0. -1.
         -6    1    1    2    0  503 -0.66289919967E+02  0.17200187118E+03 -0.45076647435E+03  0.51681564564E+03  0.17300000000E+03 0. -1.
<mgrwt>
<rscale>  2 0.25280031E+03</rscale>
<asrwt>0</asrwt>
<pdfrwt beam="1">  1       21 0.18928091E-01 0.25280031E+03</pdfrwt>
<pdfrwt beam="2">  1       21 0.10173808E+00 0.25280031E+03</pdfrwt>
<totfact> 0.19481561E+04</totfact>
</mgrwt>
</event>
<event>
 4    1  0.4336176E+000  0.2054279E+03  0.7546771E-02  0.1145239E+00
         21   -1    0    0  503  502  0.00000000000E+00  0.00000000000E+00  0.16158338096E+03  0.16158338096E+03  0.00000000000E+00 0. -1.
         21   -1    0    0  501  503 -0.00000000000E+00 -0.00000000000E+00 -0.60865246349E+03  0.60865246349E+03  0.00000000000E+00 0. -1.
          6    1    1    2  501    0  0.11054170797E+03 -0.72211487797E+01 -0.51452311628E+03  0.55401683312E+03  0.17300000000E+03 0. -1.
         -6    1    1    2    0  502 -0.11054170797E+03  0.72211487797E+01  0.67454033751E+02  0.21621901133E+03  0.17300000000E+03 0. -1.
<mgrwt>
<rscale>  2 0.20542788E+03</rscale>
<asrwt>0</asrwt>
<pdfrwt beam="1">  1       21 0.24858981E-01 0.20542788E+03</pdfrwt>
<pdfrwt beam="2">  1       21 0.93638842E-01 0.20542788E+03</pdfrwt>
<totfact> 0.14548189E+04</totfact>
</mgrwt>
</event>
<event>
 4    1  0.4336176E+000  0.2280333E+03  0.7546771E-02  0.1128032E+00
         21   -1    0    0  503  502  0.00000000000E+00  0.00000000000E+00  0.35359385588E+02  0.35359385588E+02  0.00000000000E+00 0.  1.
         21   -1    0    0  501  503 -0.00000000000E+00 -0.00000000000E+00 -0.14804466740E+04  0.14804466740E+04  0.00000000000E+00 0. -1.
          6    1    1    2  501    0  0.39853805832E+01 -0.14850683806E+03 -0.78438501630E+03  0.81685924002E+03  0.17300000000E+03 0.  1.
         -6    1    1    2    0  502 -0.39853805832E+01  0.14850683806E+03 -0.66070227212E+03  0.69894681957E+03  0.17300000000E+03 0.  1.
<mgrwt>
<rscale>  2 0.22803325E+03</rscale>
<asrwt>0</asrwt>
<pdfrwt beam="1">  1       21 0.54399043E-02 0.22803325E+03</pdfrwt>
<pdfrwt beam="2">  1       21 0.22776107E+00 0.22803325E+03</pdfrwt>
<totfact> 0.20460956E+04</totfact>
</mgrwt>
</event>
<event>
 4    1  0.4336176E+000  0.1846808E+03  0.7546771E-02  0.1163348E+00
         21   -1    0    0  501  502  0.00000000000E+00  0.00000000000E+00  0.91368673805E+02  0.91368673805E+02  0.00000000000E+00 0.  1.
         21   -1    0    0  502  503 -0.00000000000E+00 -0.00000000000E+00 -0.37448007117E+03  0.37448007117E+03  0.00000000000E+00 0. -1.
          6    1    1    2  501    0  0.49370762477E+02 -0.41719440803E+02 -0.15468808306E+03  0.24090534857E+03  0.17300000000E+03 0. -1.
         -6    1    1    2    0  503 -0.49370762477E+02  0.41719440803E+02 -0.12842331430E+03  0.22494339640E+03  0.17300000000E+03 0.  1.
<mgrwt>
<rscale>  2 0.18468076E+03</rscale>
<asrwt>0</asrwt>
<pdfrwt beam="1">  1       21 0.14056719E-01 0.18468076E+03</pdfrwt>
<pdfrwt beam="2">  1       21 0.57612319E-01 0.18468076E+03</pdfrwt>
<totfact> 0.12510886E+05</totfact>
</mgrwt>
</event>
<event>
 4    1  0.4336176E+000  0.1731839E+03  0.7546771E-02  0.1174568E+00
         21   -1    0    0  503  502  0.00000000000E+00  0.00000000000E+00  0.19117283609E+03  0.19117283609E+03  0.00000000000E+00 0. -1.
         21   -1    0    0  501  503 -0.00000000000E+00 -0.00000000000E+00 -0.24589809807E+03  0.24589809807E+03  0.00000000000E+00 0. -1.
          6    1    1    2  501    0  0.44866374420E+01 -0.65973698292E+01 -0.15884419524E+03  0.23499815651E+03  0.17300000000E+03 0. -1.
         -6    1    1    2    0  502 -0.44866374420E+01  0.65973698292E+01  0.10411893325E+03  0.20207277765E+03  0.17300000000E+03 0. -1.
<mgrwt>
<rscale>  2 0.17318388E+03</rscale>
<asrwt>0</asrwt>
<pdfrwt beam="1">  1       21 0.29411206E-01 0.17318388E+03</pdfrwt>
<pdfrwt beam="2">  1       21 0.37830476E-01 0.17318388E+03</pdfrwt>
<totfact> 0.75247529E+04</totfact>
</mgrwt>
</event>
<event>
 4    1  0.4336176E+000  0.2097670E+03  0.7546771E-02  0.1141751E+00
         21   -1    0    0  501  502  0.00000000000E+00  0.00000000000E+00  0.30259213975E+02  0.30259213975E+02  0.00000000000E+00 0. -1.
         21   -1    0    0  502  503 -0.00000000000E+00 -0.00000000000E+00 -0.19680824257E+04  0.19680824257E+04  0.00000000000E+00 0. -1.
          6    1    1    2  501    0  0.88605718375E+02 -0.78881164606E+02 -0.45833574043E+03  0.50405739992E+03  0.17300000000E+03 0. -1.
         -6    1    1    2    0  503 -0.88605718375E+02  0.78881164606E+02 -0.14794874713E+04  0.14942842397E+04  0.17300000000E+03 0. -1.
<mgrwt>
<rscale>  2 0.20976704E+03</rscale>
<asrwt>0</asrwt>
<pdfrwt beam="1">  1       21 0.46552641E-02 0.20976704E+03</pdfrwt>
<pdfrwt beam="2">  1       21 0.30278189E+00 0.20976704E+03</pdfrwt>
<totfact> 0.98094671E+03</totfact>
</mgrwt>
</event>
<event>
 4    1  0.4336176E+000  0.2361353E+03  0.7546771E-02  0.1122394E+00
         21   -1    0    0  503  502  0.00000000000E+00  0.00000000000E+00  0.35790779228E+04  0.35790779228E+04  0.00000000000E+00 0. -1.
         21   -1    0    0  501  503 -0.00000000000E+00 -0.00000000000E+00 -0.62984806066E+02  0.62984806066E+02  0.00000000000E+00 0. -1.
          6    1    1    2  501    0 -0.13789357217E+03  0.82560658920E+02  0.17820531818E+03  0.29583278228E+03  0.17300000000E+03 0. -1.
         -6    1    1    2    0  502  0.13789357217E+03 -0.82560658920E+02  0.33378877985E+04  0.33462299466E+04  0.17300000000E+03 0. -1.
<mgrwt>
<rscale>  2 0.23613534E+03</rscale>
<asrwt>0</asrwt>
<pdfrwt beam="1">  1       21 0.55062721E+00 0.23613534E+03</pdfrwt>
<pdfrwt beam="2">  1       21 0.96899730E-02 0.23613534E+03</pdfrwt>
<totfact> 0.64759924E+01</totfact>
</mgrwt>
</event>
<event>
 4    1  0.4336176E+000  0.2418777E+03  0.7546771E-02  0.1118548E+00
         21   -1    0    0  503  502  0.00000000000E+00  0.00000000000E+00  0.10548695020E+04  0.10548695020E+04  0.00000000000E+00 0.  1.
         21   -1    0    0  501  503 -0.00000000000E+00 -0.00000000000E+00 -0.71746816751E+02  0.71746816751E+02  0.00000000000E+00 0.  1.
          6    1    1    2  501    0 -0.10791403215E+03 -0.13011671815E+03  0.22318706751E+03  0.32911588503E+03  0.17300000000E+03 0.  1.
         -6    1    1    2    0  502  0.10791403215E+03  0.13011671815E+03  0.75993561775E+03  0.79750043374E+03  0.17300000000E+03 0.  1.
<mgrwt>
<rscale>  2 0.24187765E+03</rscale>
<asrwt>0</asrwt>
<pdfrwt beam="1">  1       21 0.16228760E+00 0.24187765E+03</pdfrwt>
<pdfrwt beam="2">  1       21 0.11037973E-01 0.24187765E+03</pdfrwt>
<totfact> 0.15968965E+04</totfact>
</mgrwt>
</event>
<event>
 4    1  0.4336176E+000  0.1971669E+03  0.7546771E-02  0.1152152E+00
         21   -1    0    0  503  502  0.00000000000E+00  0.00000000000E+00  0.40655924402E+03  0.40655924402E+03  0.00000000000E+00 0. -1.
         21   -1    0    0  501  503 -0.00000000000E+00 -0.00000000000E+00 -0.10015957355E+03  0.10015957355E+03  0.00000000000E+00 0.  1.
          6    1    1    2  501    0 -0.83491083798E+02  0.44441427724E+02  0.99255653966E+02  0.22074076745E+03  0.17300000000E+03 0.  1.
         -6    1    1    2    0  502  0.83491083798E+02 -0.44441427724E+02  0.20714401651E+03  0.28597805012E+03  0.17300000000E+03 0.  1.
<mgrwt>
<rscale>  2 0.19716694E+03</rscale>
<asrwt>0</asrwt>
<pdfrwt beam="1">  1       21 0.62547575E-01 0.19716694E+03</pdfrwt>
<pdfrwt beam="2">  1       21 0.15409165E-01 0.19716694E+03</pdfrwt>
<totfact> 0.88320182E+04</totfact>
</mgrwt>
</event>
<event>
 4    1  0.4336176E+000  0.2242083E+03  0.7546771E-02  0.1130784E+00
         21   -1    0    0  501  502  0.00000000000E+00  0.00000000000E+00  0.83557510959E+02  0.83557510959E+02  0.00000000000E+00 0. -1.
         21   -1    0    0  502  503 -0.00000000000E+00 -0.00000000000E+00 -0.77577764393E+03  0.77577764393E+03  0.00000000000E+00 0. -1.
          6    1    1    2  501    0 -0.11338591085E+03  0.86510132438E+02 -0.14252650225E+03  0.26567493604E+03  0.17300000000E+03 0. -1.
         -6    1    1    2    0  503  0.11338591085E+03 -0.86510132438E+02 -0.54969363072E+03  0.59366021885E+03  0.17300000000E+03 0. -1.
<mgrwt>
<rscale>  2 0.22420831E+03</rscale>
<asrwt>0</asrwt>
<pdfrwt beam="1">  1       21 0.12855002E-01 0.22420831E+03</pdfrwt>
<pdfrwt beam="2">  1       21 0.11935041E+00 0.22420831E+03</pdfrwt>
<totfact> 0.27260321E+04</totfact>
</mgrwt>
</event>
<event>
 4    1  0.4336176E+000  0.1831315E+03  0.7546771E-02  0.1164806E+00
         21   -1    0    0  501  502  0.00000000000E+00  0.00000000000E+00  0.31500534550E+03  0.31500534550E+03  0.00000000000E+00 0. -1.
         21   -1    0    0  502  503 -0.00000000000E+00 -0.00000000000E+00 -0.10771873661E+03  0.10771873661E+03  0.00000000000E+00 0.  1.
          6    1    1    2  501    0  0.48844108917E+02  0.34962894556E+02  0.80843781606E+02  0.20018208710E+03  0.17300000000E+03 0.  1.
         -6    1    1    2    0  503 -0.48844108917E+02 -0.34962894556E+02  0.12644282728E+03  0.22254199501E+03  0.17300000000E+03 0. -1.
<mgrwt>
<rscale>  2 0.18313151E+03</rscale>
<asrwt>0</asrwt>
<pdfrwt beam="1">  1       21 0.48462360E-01 0.18313151E+03</pdfrwt>
<pdfrwt beam="2">  1       21 0.16572114E-01 0.18313151E+03</pdfrwt>
<totfact> 0.13336927E+05</totfact>
</mgrwt>
</event>
<event>
 4    1  0.4336176E+000  0.2431172E+03  0.7546771E-02  0.1117734E+00
         21   -1    0    0  501  502  0.00000000000E+00  0.00000000000E+00  0.64596643235E+03  0.64596643235E+03  0.00000000000E+00 0.  1.
         21   -1    0    0  502  503 -0.00000000000E+00 -0.00000000000E+00 -0.10288688026E+03  0.10288688026E+03  0.00000000000E+00 0.  1.
          6    1    1    2  501    0  0.84094576396E+02 -0.14867772354E+03  0.39610250459E+03  0.46476139836E+03  0.17300000000E+03 0.  1.
         -6    1    1    2    0  503 -0.84094576396E+02  0.14867772354E+03  0.14697704749E+03  0.28409191425E+03  0.17300000000E+03 0.  1.
<mgrwt>
<rscale>  2 0.24311718E+03</rscale>
<asrwt>0</asrwt>
<pdfrwt beam="1">  1       21 0.99379449E-01 0.24311718E+03</pdfrwt>
<pdfrwt beam="2">  1       21 0.15828751E-01 0.24311718E+03</pdfrwt>
<totfact> 0.28842223E+04</totfact>
</mgrwt>
</event>
<event>
 4    1  0.4336176E+000  0.2303218E+03  0.7546771E-02  0.1126414E+00
         21   -1    0    0  503  502  0.00000000000E+00  0.00000000000E+00  0.15174215020E+03  0.15174215020E+03  0.00000000000E+00 0. -1.
         21   -1    0    0  501  503 -0.00000000000E+00 -0.00000000000E+00 -0.35252328143E+03  0.35252328143E+03  0.00000000000E+00 0. -1.
          6    1    1    2  501    0 -0.11288560272E+03  0.10186240953E+03 -0.77406165144E+02  0.24298111898E+03  0.17300000000E+03 0. -1.
         -6    1    1    2    0  502  0.11288560272E+03 -0.10186240953E+03 -0.12337496608E+03  0.26128431265E+03  0.17300000000E+03 0. -1.
<mgrwt>
<rscale>  2 0.23032175E+03</rscale>
<asrwt>0</asrwt>
<pdfrwt beam="1">  1       21 0.23344947E-01 0.23032175E+03</pdfrwt>
<pdfrwt beam="2">  1       21 0.54234350E-01 0.23032175E+03</pdfrwt>
<totfact> 0.54496280E+04</totfact>
</mgrwt>
</event>
<event>
 4    1  0.4336176E+000  0.3101382E+03  0.7546771E-02  0.1080280E+00
         21   -1    0    0  501  502  0.00000000000E+00  0.00000000000E+00  0.12395768739E+03  0.12395768739E+03  0.00000000000E+00 0.  1.
         21   -1    0    0  502  503 -0.00000000000E+00 -0.00000000000E+00 -0.77926557863E+03  0.77926557863E+03  0.00000000000E+00 0.  1.
          6    1    1    2  501    0 -0.14944934617E+03 -0.20957475014E+03 -0.29822167889E+03  0.43025789095E+03  0.17300000000E+03 0.  1.
         -6    1    1    2    0  503  0.14944934617E+03  0.20957475014E+03 -0.35708621235E+03  0.47296537507E+03  0.17300000000E+03 0.  1.
<mgrwt>
<rscale>  2 0.31013817E+03</rscale>
<asrwt>0</asrwt>
<pdfrwt beam="1">  1       21 0.19070414E-01 0.31013817E+03</pdfrwt>
<pdfrwt beam="2">  1       21 0.11988701E+00 0.31013817E+03</pdfrwt>
<totfact> 0.12506129E+04</totfact>
</mgrwt>
</event>
<event>
 4    1  0.4336176E+000  0.2065997E+03  0.7546771E-02  0.1144287E+00
         21   -1    0    0  503  502  0.00000000000E+00  0.00000000000E+00  0.43495534344E+03  0.43495534344E+03  0.00000000000E+00 0. -1.
         21   -1    0    0  501  503 -0.00000000000E+00 -0.00000000000E+00 -0.10650946068E+03  0.10650946068E+03  0.00000000000E+00 0.  1.
          6    1    1    2  501    0  0.27796297072E+02  0.10946147572E+03  0.88299157111E+02  0.22467796942E+03  0.17300000000E+03 0.  1.
         -6    1    1    2    0  502 -0.27796297072E+02 -0.10946147572E+03  0.24014672565E+03  0.31678683469E+03  0.17300000000E+03 0.  1.
<mgrwt>
<rscale>  2 0.20659973E+03</rscale>
<asrwt>0</asrwt>
<pdfrwt beam="1">  1       21 0.66916206E-01 0.20659973E+03</pdfrwt>
<pdfrwt beam="2">  1       21 0.16386071E-01 0.20659973E+03</pdfrwt>
<totfact> 0.67845378E+04</totfact>
</mgrwt>
</event>
<event>
 4    1  0.4336176E+000  0.3385340E+03  0.7546771E-02  0.1067422E+00
         21   -1    0    0  503  502  0.00000000000E+00  0.00000000000E+00  0.10961416789E+03  0.10961416789E+03  0.00000000000E+00 0. -1.
         21   -1    0    0  501  503 -0.00000000000E+00 -0.00000000000E+00 -0.10858763953E+04  0.10858763953E+04  0.00000000000E+00 0.  1.
          6    1    1    2  501    0 -0.23186814638E+03 -0.17582218572E+03 -0.60334632001E+03  0.69183239312E+03  0.17300000000E+03 0.  1.
         -6    1    1    2    0  502  0.23186814638E+03  0.17582218572E+03 -0.37291590740E+03  0.50365817008E+03  0.17300000000E+03 0. -1.
<mgrwt>
<rscale>  2 0.33853401E+03</rscale>
<asrwt>0</asrwt>
<pdfrwt beam="1">  1       21 0.16863719E-01 0.33853401E+03</pdfrwt>
<pdfrwt beam="2">  1       21 0.16705790E+00 0.33853401E+03</pdfrwt>
<totfact> 0.64626746E+03</totfact>
</mgrwt>
</event>
<event>
 4    1  0.4336176E+000  0.2449500E+03  0.7546771E-02  0.1116539E+00
         21   -1    0    0  503  502  0.00000000000E+00  0.00000000000E+00  0.51516732080E+02  0.51516732080E+02  0.00000000000E+00 0. -1.
         21   -1    0    0  501  503 -0.00000000000E+00 -0.00000000000E+00 -0.11921200723E+04  0.11921200723E+04  0.00000000000E+00 0.  1.
          6    1    1    2  501    0 -0.81638582967E+02  0.15299222708E+03 -0.66464266618E+03  0.70834338670E+03  0.17300000000E+03 0. -1.
         -6    1    1    2    0  502  0.81638582967E+02 -0.15299222708E+03 -0.47596067401E+03  0.53529341765E+03  0.17300000000E+03 0. -1.
<mgrwt>
<rscale>  2 0.24494995E+03</rscale>
<asrwt>0</asrwt>
<pdfrwt beam="1">  1       21 0.79256514E-02 0.24494995E+03</pdfrwt>
<pdfrwt beam="2">  1       21 0.18340308E+00 0.24494995E+03</pdfrwt>
<totfact> 0.20328392E+04</totfact>
</mgrwt>
</event>
<event>
 4    1  0.4336176E+000  0.3097621E+03  0.7546771E-02  0.1080460E+00
         21   -1    0    0  503  502  0.00000000000E+00  0.00000000000E+00  0.17566797079E+03  0.17566797079E+03  0.00000000000E+00 0.  1.
         21   -1    0    0  501  503 -0.00000000000E+00 -0.00000000000E+00 -0.57771920553E+03  0.57771920553E+03  0.00000000000E+00 0.  1.
          6    1    1    2  501    0  0.18328914680E+03  0.18007960251E+03 -0.28899071855E+03  0.42363688458E+03  0.17300000000E+03 0.  1.
         -6    1    1    2    0  502 -0.18328914680E+03 -0.18007960251E+03 -0.11306051620E+03  0.32975029173E+03  0.17300000000E+03 0.  1.
<mgrwt>
<rscale>  2 0.30976213E+03</rscale>
<asrwt>0</asrwt>
<pdfrwt beam="1">  1       21 0.27025842E-01 0.30976213E+03</pdfrwt>
<pdfrwt beam="2">  1       21 0.88879878E-01 0.30976213E+03</pdfrwt>
<totfact> 0.13253725E+04</totfact>
</mgrwt>
</event>
<event>
 4    1  0.4336176E+000  0.2085313E+03  0.7546771E-02  0.1142734E+00
         21   -1    0    0  503  502  0.00000000000E+00  0.00000000000E+00  0.30957738975E+03  0.30957738975E+03  0.00000000000E+00 0.  1.
         21   -1    0    0  501  503 -0.00000000000E+00 -0.00000000000E+00 -0.10201636841E+04  0.10201636841E+04  0.00000000000E+00 0.  1.
          6    1    1    2  501    0 -0.39638584690E+02 -0.10947633486E+03 -0.97269614382E+03  0.99479800638E+03  0.17300000000E+03 0.  1.
         -6    1    1    2    0  502  0.39638584690E+02  0.10947633486E+03  0.26210984945E+03  0.33494306750E+03  0.17300000000E+03 0.  1.
<mgrwt>
<rscale>  2 0.20853126E+03</rscale>
<asrwt>0</asrwt>
<pdfrwt beam="1">  1       21 0.47627291E-01 0.20853126E+03</pdfrwt>
<pdfrwt beam="2">  1       21 0.15694826E+00 0.20853126E+03</pdfrwt>
<totfact> 0.10994082E+03</totfact>
</mgrwt>
</event>
<event>
 4    1  0.4336176E+000  0.2485724E+03  0.7546771E-02  0.1114210E+00
         21   -1    0    0  501  502  0.00000000000E+00  0.00000000000E+00  0.31803913463E+03  0.31803913463E+03  0.00000000000E+00 0. -1.
         21   -1    0    0  502  503 -0.00000000000E+00 -0.00000000000E+00 -0.30453848286E+03  0.30453848286E+03  0.00000000000E+00 0. -1.
          6    1    1    2  501    0  0.34171248627E+02  0.17519008409E+03  0.19405599448E+03  0.31535054905E+03  0.17300000000E+03 0. -1.
         -6    1    1    2    0  503 -0.34171248627E+02 -0.17519008409E+03 -0.18055534271E+03  0.30722706843E+03  0.17300000000E+03 0. -1.
<mgrwt>
<rscale>  2 0.24857240E+03</rscale>
<asrwt>0</asrwt>
<pdfrwt beam="1">  1       21 0.48929098E-01 0.24857240E+03</pdfrwt>
<pdfrwt beam="2">  1       21 0.46852074E-01 0.24857240E+03</pdfrwt>
<totfact> 0.16841809E+04</totfact>
</mgrwt>
</event>
<event>
 4    1  0.4336176E+000  0.1758614E+03  0.7546771E-02  0.1171870E+00
         21   -1    0    0  503  502  0.00000000000E+00  0.00000000000E+00  0.98183365528E+03  0.98183365528E+03  0.00000000000E+00 0.  1.
         21   -1    0    0  501  503 -0.00000000000E+00 -0.00000000000E+00 -0.31499681846E+02  0.31499681846E+02  0.00000000000E+00 0.  1.
          6    1    1    2  501    0 -0.58105007948E+01 -0.31056011715E+02  0.47648719563E+03  0.50790479953E+03  0.17300000000E+03 0.  1.
         -6    1    1    2    0  502  0.58105007948E+01  0.31056011715E+02  0.47384677780E+03  0.50542853759E+03  0.17300000000E+03 0.  1.
<mgrwt>
<rscale>  2 0.17586142E+03</rscale>
<asrwt>0</asrwt>
<pdfrwt beam="1">  1       21 0.15105131E+00 0.17586142E+03</pdfrwt>
<pdfrwt beam="2">  1       21 0.48461056E-02 0.17586142E+03</pdfrwt>
<totfact> 0.83936084E+04</totfact>
</mgrwt>
</event>
<event>
 4    1  0.4336176E+000  0.1868216E+03  0.7546771E-02  0.1161360E+00
         21   -1    0    0  503  502  0.00000000000E+00  0.00000000000E+00  0.18459457385E+03  0.18459457385E+03  0.00000000000E+00 0. -1.
         21   -1    0    0  501  503 -0.00000000000E+00 -0.00000000000E+00 -0.20646170557E+03  0.20646170557E+03  0.00000000000E+00 0. -1.
          6    1    1    2  501    0 -0.27163344476E+02 -0.65080472903E+02 -0.67673869435E+02  0.19870095078E+03  0.17300000000E+03 0. -1.
         -6    1    1    2    0  502  0.27163344476E+02  0.65080472903E+02  0.45806737713E+02  0.19235532864E+03  0.17300000000E+03 0. -1.
<mgrwt>
<rscale>  2 0.18682161E+03</rscale>
<asrwt>0</asrwt>
<pdfrwt beam="1">  1       21 0.28399165E-01 0.18682161E+03</pdfrwt>
<pdfrwt beam="2">  1       21 0.31763339E-01 0.18682161E+03</pdfrwt>
<totfact> 0.11320866E+05</totfact>
</mgrwt>
</event>
<event>
 4    1  0.4336176E+000  0.1940982E+03  0.7546771E-02  0.1154816E+00
         21   -1    0    0  503  502  0.00000000000E+00  0.00000000000E+00  0.14236488326E+03  0.14236488326E+03  0.00000000000E+00 0.  1.
         21   -1    0    0  501  503 -0.00000000000E+00 -0.00000000000E+00 -0.81156755784E+03  0.81156755784E+03  0.00000000000E+00 0.  1.
          6    1    1    2  501    0  0.22500550220E+02 -0.85081440979E+02 -0.72615731461E+03  0.75165056504E+03  0.17300000000E+03 0.  1.
         -6    1    1    2    0  502 -0.22500550220E+02  0.85081440979E+02  0.56954640037E+02  0.20228187606E+03  0.17300000000E+03 0.  1.
<mgrwt>
<rscale>  2 0.19409824E+03</rscale>
<asrwt>0</asrwt>
<pdfrwt beam="1">  1       21 0.21902290E-01 0.19409824E+03</pdfrwt>
<pdfrwt beam="2">  1       21 0.12485655E+00 0.19409824E+03</pdfrwt>
<totfact> 0.93028493E+03</totfact>
</mgrwt>
</event>
<event>
 4    1  0.4336176E+000  0.2204389E+03  0.7546771E-02  0.1133556E+00
         21   -1    0    0  501  502  0.00000000000E+00  0.00000000000E+00  0.47595963250E+03  0.47595963250E+03  0.00000000000E+00 0.  1.
         21   -1    0    0  502  503 -0.00000000000E+00 -0.00000000000E+00 -0.13462681805E+03  0.13462681805E+03  0.00000000000E+00 0.  1.
          6    1    1    2  501    0 -0.10228884944E+03  0.90561029574E+02  0.32073941854E+03  0.38918772258E+03  0.17300000000E+03 0.  1.
         -6    1    1    2    0  503  0.10228884944E+03 -0.90561029574E+02  0.20593395905E+02  0.22139872798E+03  0.17300000000E+03 0.  1.
<mgrwt>
<rscale>  2 0.22043890E+03</rscale>
<asrwt>0</asrwt>
<pdfrwt beam="1">  1       21 0.73224558E-01 0.22043890E+03</pdfrwt>
<pdfrwt beam="2">  1       21 0.20711818E-01 0.22043890E+03</pdfrwt>
<totfact> 0.35740212E+04</totfact>
</mgrwt>
</event>
<event>
 4    1  0.4336176E+000  0.1842393E+03  0.7546771E-02  0.1163762E+00
         21   -1    0    0  501  502  0.00000000000E+00  0.00000000000E+00  0.43541853593E+03  0.43541853593E+03  0.00000000000E+00 0. -1.
         21   -1    0    0  502  503 -0.00000000000E+00 -0.00000000000E+00 -0.11576416786E+03  0.11576416786E+03  0.00000000000E+00 0. -1.
          6    1    1    2  501    0  0.36697373074E+01 -0.63258495566E+02  0.31732088463E+03  0.36692866889E+03  0.17300000000E+03 0. -1.
         -6    1    1    2    0  503 -0.36697373074E+01  0.63258495566E+02  0.23334834398E+01  0.18425403490E+03  0.17300000000E+03 0. -1.
<mgrwt>
<rscale>  2 0.18423926E+03</rscale>
<asrwt>0</asrwt>
<pdfrwt beam="1">  1       21 0.66987466E-01 0.18423926E+03</pdfrwt>
<pdfrwt beam="2">  1       21 0.17809872E-01 0.18423926E+03</pdfrwt>
<totfact> 0.58657481E+04</totfact>
</mgrwt>
</event>
<event>
 4    1  0.4336176E+000  0.1783742E+03  0.7546771E-02  0.1169386E+00
         21   -1    0    0  501  502  0.00000000000E+00  0.00000000000E+00  0.50881888141E+03  0.50881888141E+03  0.00000000000E+00 0.  1.
         21   -1    0    0  502  503 -0.00000000000E+00 -0.00000000000E+00 -0.97287900791E+02  0.97287900791E+02  0.00000000000E+00 0.  1.
          6    1    1    2  501    0 -0.42109926987E+02 -0.10728896253E+02  0.38690171909E+03  0.42604025092E+03  0.17300000000E+03 0.  1.
         -6    1    1    2    0  503  0.42109926987E+02  0.10728896253E+02  0.24629261529E+02  0.18006653129E+03  0.17300000000E+03 0.  1.
<mgrwt>
<rscale>  2 0.17837420E+03</rscale>
<asrwt>0</asrwt>
<pdfrwt beam="1">  1       21 0.78279826E-01 0.17837420E+03</pdfrwt>
<pdfrwt beam="2">  1       21 0.14967370E-01 0.17837420E+03</pdfrwt>
<totfact> 0.57269313E+04</totfact>
</mgrwt>
</event>
<event>
 4    1  0.4336176E+000  0.2068970E+03  0.7546771E-02  0.1144047E+00
         21   -1    0    0  503  502  0.00000000000E+00  0.00000000000E+00  0.78485073857E+03  0.78485073857E+03  0.00000000000E+00 0.  1.
         21   -1    0    0  501  503 -0.00000000000E+00 -0.00000000000E+00 -0.85192000298E+02  0.85192000298E+02  0.00000000000E+00 0. -1.
          6    1    1    2  501    0  0.11299753092E+03  0.10436406298E+02  0.88892668627E+02  0.22518496199E+03  0.17300000000E+03 0. -1.
         -6    1    1    2    0  502 -0.11299753092E+03 -0.10436406298E+02  0.61076606964E+03  0.64485777688E+03  0.17300000000E+03 0.  1.
<mgrwt>
<rscale>  2 0.20689698E+03</rscale>
<asrwt>0</asrwt>
<pdfrwt beam="1">  1       21 0.12074626E+00 0.20689698E+03</pdfrwt>
<pdfrwt beam="2">  1       21 0.13106462E-01 0.20689698E+03</pdfrwt>
<totfact> 0.25824700E+04</totfact>
</mgrwt>
</event>
<event>
 4    1  0.4336176E+000  0.1844706E+03  0.7546771E-02  0.1163545E+00
         21   -1    0    0  503  502  0.00000000000E+00  0.00000000000E+00  0.33622089265E+03  0.33622089265E+03  0.00000000000E+00 0.  1.
         21   -1    0    0  501  503 -0.00000000000E+00 -0.00000000000E+00 -0.10308349924E+03  0.10308349924E+03  0.00000000000E+00 0.  1.
          6    1    1    2  501    0 -0.16526263641E+02 -0.61865103446E+02  0.86968260757E+02  0.20394334212E+03  0.17300000000E+03 0.  1.
         -6    1    1    2    0  502  0.16526263641E+02  0.61865103446E+02  0.14616913265E+03  0.23536104978E+03  0.17300000000E+03 0.  1.
<mgrwt>
<rscale>  2 0.18447062E+03</rscale>
<asrwt>0</asrwt>
<pdfrwt beam="1">  1       21 0.51726291E-01 0.18447062E+03</pdfrwt>
<pdfrwt beam="2">  1       21 0.15859000E-01 0.18447062E+03</pdfrwt>
<totfact> 0.12614084E+05</totfact>
</mgrwt>
</event>
<event>
 4    1  0.4336176E+000  0.2391459E+03  0.7546771E-02  0.1120363E+00
         21   -1    0    0  501  502  0.00000000000E+00  0.00000000000E+00  0.17973972192E+03  0.17973972192E+03  0.00000000000E+00 0. -1.
         21   -1    0    0  502  503 -0.00000000000E+00 -0.00000000000E+00 -0.32056771647E+03  0.32056771647E+03  0.00000000000E+00 0. -1.
          6    1    1    2  501    0  0.38597252209E+02  0.16053666524E+03 -0.91973489522E+02  0.25622234785E+03  0.17300000000E+03 0. -1.
         -6    1    1    2    0  503 -0.38597252209E+02 -0.16053666524E+03 -0.48854505023E+02  0.24408509054E+03  0.17300000000E+03 0. -1.
<mgrwt>
<rscale>  2 0.23914592E+03</rscale>
<asrwt>0</asrwt>
<pdfrwt beam="1">  1       21 0.27652265E-01 0.23914592E+03</pdfrwt>
<pdfrwt beam="2">  1       21 0.49318110E-01 0.23914592E+03</pdfrwt>
<totfact> 0.47903503E+04</totfact>
</mgrwt>
</event>
<event>
 4    1  0.4336176E+000  0.1978572E+03  0.7546771E-02  0.1151560E+00
         21   -1    0    0  503  502  0.00000000000E+00  0.00000000000E+00  0.20708086631E+03  0.20708086631E+03  0.00000000000E+00 0. -1.
         21   -1    0    0  501  503 -0.00000000000E+00 -0.00000000000E+00 -0.19335162226E+03  0.19335162226E+03  0.00000000000E+00 0. -1.
          6    1    1    2  501    0  0.49265256324E+02  0.82410007740E+02  0.36747666203E+02  0.20124081551E+03  0.17300000000E+03 0. -1.
         -6    1    1    2    0  502 -0.49265256324E+02 -0.82410007740E+02 -0.23018422157E+02  0.19919167306E+03  0.17300000000E+03 0. -1.
<mgrwt>
<rscale>  2 0.19785721E+03</rscale>
<asrwt>0</asrwt>
<pdfrwt beam="1">  1       21 0.31858595E-01 0.19785721E+03</pdfrwt>
<pdfrwt beam="2">  1       21 0.29746403E-01 0.19785721E+03</pdfrwt>
<totfact> 0.10243203E+05</totfact>
</mgrwt>
</event>
<event>
 4    1  0.4336176E+000  0.1958462E+03  0.7546771E-02  0.1153292E+00
         21   -1    0    0  501  502  0.00000000000E+00  0.00000000000E+00  0.18865622074E+03  0.18865622074E+03  0.00000000000E+00 0. -1.
         21   -1    0    0  502  503 -0.00000000000E+00 -0.00000000000E+00 -0.34314979014E+03  0.34314979014E+03  0.00000000000E+00 0. -1.
          6    1    1    2  501    0 -0.35160257807E+02  0.84796857215E+02  0.92497949518E+02  0.21659090791E+03  0.17300000000E+03 0. -1.
         -6    1    1    2    0  503  0.35160257807E+02 -0.84796857215E+02 -0.24699151892E+03  0.31521510297E+03  0.17300000000E+03 0. -1.
<mgrwt>
<rscale>  2 0.19584624E+03</rscale>
<asrwt>0</asrwt>
<pdfrwt beam="1">  1       21 0.29024034E-01 0.19584624E+03</pdfrwt>
<pdfrwt beam="2">  1       21 0.52792275E-01 0.19584624E+03</pdfrwt>
<totfact> 0.38583156E+04</totfact>
</mgrwt>
</event>
<event>
 4    1  0.4336176E+000  0.2042739E+03  0.7546771E-02  0.1146182E+00
         21   -1    0    0  501  502  0.00000000000E+00  0.00000000000E+00  0.94836925040E+03  0.94836925040E+03  0.00000000000E+00 0. -1.
         21   -1    0    0  502  503 -0.00000000000E+00 -0.00000000000E+00 -0.62072548679E+02  0.62072548679E+02  0.00000000000E+00 0. -1.
          6    1    1    2  501    0  0.79353258375E+02  0.74174777299E+02  0.71576125703E+03  0.74433998567E+03  0.17300000000E+03 0. -1.
         -6    1    1    2    0  503 -0.79353258375E+02 -0.74174777299E+02  0.17053544469E+03  0.26610181340E+03  0.17300000000E+03 0. -1.
<mgrwt>
<rscale>  2 0.20427393E+03</rscale>
<asrwt>0</asrwt>
<pdfrwt beam="1">  1       21 0.14590295E+00 0.20427393E+03</pdfrwt>
<pdfrwt beam="2">  1       21 0.95496235E-02 0.20427393E+03</pdfrwt>
<totfact> 0.28084284E+04</totfact>
</mgrwt>
</event>
<event>
 4    1  0.4336176E+000  0.2395321E+03  0.7546771E-02  0.1120105E+00
         21   -1    0    0  501  502  0.00000000000E+00  0.00000000000E+00  0.16484817441E+03  0.16484817441E+03  0.00000000000E+00 0.  1.
         21   -1    0    0  502  503 -0.00000000000E+00 -0.00000000000E+00 -0.38853465593E+03  0.38853465593E+03  0.00000000000E+00 0.  1.
          6    1    1    2  501    0 -0.15265543196E+03 -0.64365589397E+02 -0.22529263861E+02  0.24058923030E+03  0.17300000000E+03 0.  1.
         -6    1    1    2    0  503  0.15265543196E+03  0.64365589397E+02 -0.20115721766E+03  0.31279360004E+03  0.17300000000E+03 0.  1.
<mgrwt>
<rscale>  2 0.23953206E+03</rscale>
<asrwt>0</asrwt>
<pdfrwt beam="1">  1       21 0.25361258E-01 0.23953206E+03</pdfrwt>
<pdfrwt beam="2">  1       21 0.59774562E-01 0.23953206E+03</pdfrwt>
<totfact> 0.37624844E+04</totfact>
</mgrwt>
</event>
<event>
 4    1  0.4336176E+000  0.1782328E+03  0.7546771E-02  0.1169524E+00
         21   -1    0    0  503  502  0.00000000000E+00  0.00000000000E+00  0.36811850733E+02  0.36811850733E+02  0.00000000000E+00 0.  1.
         21   -1    0    0  501  503 -0.00000000000E+00 -0.00000000000E+00 -0.10235006754E+04  0.10235006754E+04  0.00000000000E+00 0.  1.
          6    1    1    2  501    0 -0.41993291832E+02  0.86319722165E+01 -0.70331573587E+03  0.72554804929E+03  0.17300000000E+03 0.  1.
         -6    1    1    2    0  502  0.41993291832E+02 -0.86319722165E+01 -0.28337308881E+03  0.33476447685E+03  0.17300000000E+03 0.  1.
<mgrwt>
<rscale>  2 0.17823285E+03</rscale>
<asrwt>0</asrwt>
<pdfrwt beam="1">  1       21 0.56633614E-02 0.17823285E+03</pdfrwt>
<pdfrwt beam="2">  1       21 0.15746165E+00 0.17823285E+03</pdfrwt>
<totfact> 0.57646766E+04</totfact>
</mgrwt>
</event>
<event>
 4    1  0.4336176E+000  0.1804445E+03  0.7546771E-02  0.1167374E+00
         21   -1    0    0  501  502  0.00000000000E+00  0.00000000000E+00  0.11222315708E+03  0.11222315708E+03  0.00000000000E+00 0.  1.
         21   -1    0    0  502  503 -0.00000000000E+00 -0.00000000000E+00 -0.33739663785E+03  0.33739663785E+03  0.00000000000E+00 0.  1.
          6    1    1    2  501    0 -0.46259799414E+02  0.22164238011E+02 -0.28450165655E+02  0.18267357339E+03  0.17300000000E+03 0.  1.
         -6    1    1    2    0  503  0.46259799414E+02 -0.22164238011E+02 -0.19672331512E+03  0.26694622155E+03  0.17300000000E+03 0.  1.
<mgrwt>
<rscale>  2 0.18044451E+03</rscale>
<asrwt>0</asrwt>
<pdfrwt beam="1">  1       21 0.17265102E-01 0.18044451E+03</pdfrwt>
<pdfrwt beam="2">  1       21 0.51907173E-01 0.18044451E+03</pdfrwt>
<totfact> 0.10732038E+05</totfact>
</mgrwt>
</event>
<event>
 4    1  0.4336176E+000  0.1735298E+03  0.7546771E-02  0.1174216E+00
         21   -1    0    0  503  502  0.00000000000E+00  0.00000000000E+00  0.26032812948E+03  0.26032812948E+03  0.00000000000E+00 0.  1.
         21   -1    0    0  501  503 -0.00000000000E+00 -0.00000000000E+00 -0.18547827848E+03  0.18547827848E+03  0.00000000000E+00 0.  1.
          6    1    1    2  501    0 -0.12933566571E+02  0.40412161278E+01 -0.99322079739E+02  0.19994370232E+03  0.17300000000E+03 0.  1.
         -6    1    1    2    0  502  0.12933566571E+02 -0.40412161278E+01  0.17417193074E+03  0.24586270565E+03  0.17300000000E+03 0.  1.
<mgrwt>
<rscale>  2 0.17352985E+03</rscale>
<asrwt>0</asrwt>
<pdfrwt beam="1">  1       21 0.40050481E-01 0.17352985E+03</pdfrwt>
<pdfrwt beam="2">  1       21 0.28535120E-01 0.17352985E+03</pdfrwt>
<totfact> 0.71146275E+04</totfact>
</mgrwt>
</event>
<event>
 4    1  0.4336176E+000  0.1823039E+03  0.7546771E-02  0.1165592E+00
         21   -1    0    0  501  502  0.00000000000E+00  0.00000000000E+00  0.60796001802E+03  0.60796001802E+03  0.00000000000E+00 0.  1.
         21   -1    0    0  502  503 -0.00000000000E+00 -0.00000000000E+00 -0.54710610257E+02  0.54710610257E+02  0.00000000000E+00 0.  1.
          6    1    1    2  501    0  0.29902340845E+02  0.49107677586E+02  0.26715849136E+03  0.32343217758E+03  0.17300000000E+03 0.  1.
         -6    1    1    2    0  503 -0.29902340845E+02 -0.49107677586E+02  0.28609091640E+03  0.33923845070E+03  0.17300000000E+03 0.  1.
<mgrwt>
<rscale>  2 0.18230391E+03</rscale>
<asrwt>0</asrwt>
<pdfrwt beam="1">  1       21 0.93532306E-01 0.18230391E+03</pdfrwt>
<pdfrwt beam="2">  1       21 0.84170174E-02 0.18230391E+03</pdfrwt>
<totfact> 0.10594356E+05</totfact>
</mgrwt>
</event>
<event>
 4    1  0.4336176E+000  0.1933309E+03  0.7546771E-02  0.1155491E+00
         21   -1    0    0  501  502  0.00000000000E+00  0.00000000000E+00  0.35756795590E+03  0.35756795590E+03  0.00000000000E+00 0. -1.
         21   -1    0    0  502  503 -0.00000000000E+00 -0.00000000000E+00 -0.11814145236E+03  0.11814145236E+03  0.00000000000E+00 0. -1.
          6    1    1    2  501    0  0.82764546085E+02  0.24451216724E+02  0.20044632939E+03  0.27848799445E+03  0.17300000000E+03 0.  1.
         -6    1    1    2    0  503 -0.82764546085E+02 -0.24451216724E+02  0.38980174153E+02  0.19722141381E+03  0.17300000000E+03 0.  1.
<mgrwt>
<rscale>  2 0.19333089E+03</rscale>
<asrwt>0</asrwt>
<pdfrwt beam="1">  1       21 0.55010454E-01 0.19333089E+03</pdfrwt>
<pdfrwt beam="2">  1       21 0.18175608E-01 0.19333089E+03</pdfrwt>
<totfact> 0.85961744E+04</totfact>
</mgrwt>
</event>
<event>
 4    1  0.4336176E+000  0.2581875E+03  0.7546771E-02  0.1108237E+00
         21   -1    0    0  503  502  0.00000000000E+00  0.00000000000E+00  0.27279974810E+03  0.27279974810E+03  0.00000000000E+00 0. -1.
         21   -1    0    0  501  503 -0.00000000000E+00 -0.00000000000E+00 -0.24520955582E+03  0.24520955582E+03  0.00000000000E+00 0.  1.
          6    1    1    2  501    0 -0.17747412483E+03  0.72351281244E+02 -0.14690167861E+01  0.25819165535E+03  0.17300000000E+03 0. -1.
         -6    1    1    2    0  502  0.17747412483E+03 -0.72351281244E+02  0.29059209064E+02  0.25981764858E+03  0.17300000000E+03 0.  1.
<mgrwt>
<rscale>  2 0.25818748E+03</rscale>
<asrwt>0</asrwt>
<pdfrwt beam="1">  1       21 0.41969192E-01 0.25818748E+03</pdfrwt>
<pdfrwt beam="2">  1       21 0.37724547E-01 0.25818748E+03</pdfrwt>
<totfact> 0.35903263E+04</totfact>
</mgrwt>
</event>
<event>
 4    1  0.4336176E+000  0.1757267E+03  0.7546771E-02  0.1172004E+00
         21   -1    0    0  501  502  0.00000000000E+00  0.00000000000E+00  0.95979183965E+03  0.95979183965E+03  0.00000000000E+00 0.  1.
         21   -1    0    0  502  503 -0.00000000000E+00 -0.00000000000E+00 -0.85690155862E+02  0.85690155862E+02  0.00000000000E+00 0.  1.
          6    1    1    2  501    0  0.23735365765E+02  0.19684724678E+02  0.85016074733E+03  0.86813199012E+03  0.17300000000E+03 0.  1.
         -6    1    1    2    0  503 -0.23735365765E+02 -0.19684724678E+02  0.23940936460E+02  0.17735000539E+03  0.17300000000E+03 0.  1.
<mgrwt>
<rscale>  2 0.17572665E+03</rscale>
<asrwt>0</asrwt>
<pdfrwt beam="1">  1       21 0.14766028E+00 0.17572665E+03</pdfrwt>
<pdfrwt beam="2">  1       21 0.13183102E-01 0.17572665E+03</pdfrwt>
<totfact> 0.15627384E+04</totfact>
</mgrwt>
</event>
<event>
 4    1  0.4336176E+000  0.1994277E+03  0.7546771E-02  0.1150223E+00
         21   -1    0    0  501  502  0.00000000000E+00  0.00000000000E+00  0.21757896357E+03  0.21757896357E+03  0.00000000000E+00 0. -1.
         21   -1    0    0  502  503 -0.00000000000E+00 -0.00000000000E+00 -0.29914899441E+03  0.29914899441E+03  0.00000000000E+00 0. -1.
          6    1    1    2  501    0  0.78746702788E+02 -0.60343657639E+02  0.12034889882E+03  0.23292758030E+03  0.17300000000E+03 0. -1.
         -6    1    1    2    0  503 -0.78746702788E+02  0.60343657639E+02 -0.20191892966E+03  0.28380037768E+03  0.17300000000E+03 0. -1.
<mgrwt>
<rscale>  2 0.19942768E+03</rscale>
<asrwt>0</asrwt>
<pdfrwt beam="1">  1       21 0.33473687E-01 0.19942768E+03</pdfrwt>
<pdfrwt beam="2">  1       21 0.46022922E-01 0.19942768E+03</pdfrwt>
<totfact> 0.38754358E+04</totfact>
</mgrwt>
</event>
<event>
 4    1  0.4336176E+000  0.2160599E+03  0.7546771E-02  0.1136855E+00
         21   -1    0    0  501  502  0.00000000000E+00  0.00000000000E+00  0.18904921475E+03  0.18904921475E+03  0.00000000000E+00 0. -1.
         21   -1    0    0  502  503 -0.00000000000E+00 -0.00000000000E+00 -0.31823522471E+03  0.31823522471E+03  0.00000000000E+00 0.  1.
          6    1    1    2  501    0 -0.12837345030E+03 -0.16526914215E+02  0.55469875095E+02  0.22306678076E+03  0.17300000000E+03 0. -1.
         -6    1    1    2    0  503  0.12837345030E+03  0.16526914215E+02 -0.18465588506E+03  0.28421765871E+03  0.17300000000E+03 0.  1.
<mgrwt>
<rscale>  2 0.21605990E+03</rscale>
<asrwt>0</asrwt>
<pdfrwt beam="1">  1       21 0.29084495E-01 0.21605990E+03</pdfrwt>
<pdfrwt beam="2">  1       21 0.48959265E-01 0.21605990E+03</pdfrwt>
<totfact> 0.44543257E+04</totfact>
</mgrwt>
</event>
<event>
 4    1  0.4336176E+000  0.2285258E+03  0.7546771E-02  0.1127682E+00
         21   -1    0    0  503  502  0.00000000000E+00  0.00000000000E+00  0.50581695896E+03  0.50581695896E+03  0.00000000000E+00 0. -1.
         21   -1    0    0  501  503 -0.00000000000E+00 -0.00000000000E+00 -0.10370968539E+03  0.10370968539E+03  0.00000000000E+00 0. -1.
          6    1    1    2  501    0 -0.11328163016E+03  0.97274476744E+02  0.18069608140E+03  0.29133335784E+03  0.17300000000E+03 0. -1.
         -6    1    1    2    0  502  0.11328163016E+03 -0.97274476744E+02  0.22141119217E+03  0.31819328650E+03  0.17300000000E+03 0. -1.
<mgrwt>
<rscale>  2 0.22852582E+03</rscale>
<asrwt>0</asrwt>
<pdfrwt beam="1">  1       21 0.77817993E-01 0.22852582E+03</pdfrwt>
<pdfrwt beam="2">  1       21 0.15955336E-01 0.22852582E+03</pdfrwt>
<totfact> 0.50435899E+04</totfact>
</mgrwt>
</event>
<event>
 4    1  0.4336176E+000  0.1900165E+03  0.7546771E-02  0.1158446E+00
         21   -1    0    0  503  502  0.00000000000E+00  0.00000000000E+00  0.51564701467E+03  0.51564701467E+03  0.00000000000E+00 0. -1.
         21   -1    0    0  501  503 -0.00000000000E+00 -0.00000000000E+00 -0.70036614383E+02  0.70036614383E+02  0.00000000000E+00 0.  1.
          6    1    1    2  501    0 -0.54178691511E+02 -0.56937879547E+02  0.22714143217E+03  0.29614098492E+03  0.17300000000E+03 0.  1.
         -6    1    1    2    0  502  0.54178691511E+02  0.56937879547E+02  0.21846896811E+03  0.28954264413E+03  0.17300000000E+03 0. -1.
<mgrwt>
<rscale>  2 0.19001645E+03</rscale>
<asrwt>0</asrwt>
<pdfrwt beam="1">  1       21 0.79330308E-01 0.19001645E+03</pdfrwt>
<pdfrwt beam="2">  1       21 0.10774864E-01 0.19001645E+03</pdfrwt>
<totfact> 0.99765052E+04</totfact>
</mgrwt>
</event>
<event>
 4    1  0.4336176E+000  0.2169941E+03  0.7546771E-02  0.1136144E+00
         21   -1    0    0  501  502  0.00000000000E+00  0.00000000000E+00  0.36558333837E+03  0.36558333837E+03  0.00000000000E+00 0.  1.
         21   -1    0    0  502  503 -0.00000000000E+00 -0.00000000000E+00 -0.20830203551E+03  0.20830203551E+03  0.00000000000E+00 0. -1.
          6    1    1    2  501    0  0.10461925146E+03 -0.78817715104E+02  0.25591376075E+03  0.33552685873E+03  0.17300000000E+03 0.  1.
         -6    1    1    2    0  503 -0.10461925146E+03  0.78817715104E+02 -0.98632457890E+02  0.23835851514E+03  0.17300000000E+03 0.  1.
<mgrwt>
<rscale>  2 0.21699406E+03</rscale>
<asrwt>0</asrwt>
<pdfrwt beam="1">  1       21 0.56243591E-01 0.21699406E+03</pdfrwt>
<pdfrwt beam="2">  1       21 0.32046467E-01 0.21699406E+03</pdfrwt>
<totfact> 0.27491035E+04</totfact>
</mgrwt>
</event>
<event>
 4    1  0.4336176E+000  0.2360329E+03  0.7546771E-02  0.1122464E+00
         21   -1    0    0  501  502  0.00000000000E+00  0.00000000000E+00  0.33743529132E+03  0.33743529132E+03  0.00000000000E+00 0. -1.
         21   -1    0    0  502  503 -0.00000000000E+00 -0.00000000000E+00 -0.22068312778E+03  0.22068312778E+03  0.00000000000E+00 0.  1.
          6    1    1    2  501    0  0.15591333211E+03  0.38386960415E+02  0.19842255580E+03  0.30835537373E+03  0.17300000000E+03 0.  1.
         -6    1    1    2    0  503 -0.15591333211E+03 -0.38386960415E+02 -0.81670392260E+02  0.24976304537E+03  0.17300000000E+03 0.  1.
<mgrwt>
<rscale>  2 0.23603289E+03</rscale>
<asrwt>0</asrwt>
<pdfrwt beam="1">  1       21 0.51913122E-01 0.23603289E+03</pdfrwt>
<pdfrwt beam="2">  1       21 0.33951250E-01 0.23603289E+03</pdfrwt>
<totfact> 0.28785523E+04</totfact>
</mgrwt>
</event>
<event>
 4    1  0.4336176E+000  0.1912903E+03  0.7546771E-02  0.1157303E+00
         21   -1    0    0  501  502  0.00000000000E+00  0.00000000000E+00  0.15460563214E+04  0.15460563214E+04  0.00000000000E+00 0. -1.
         21   -1    0    0  502  503 -0.00000000000E+00 -0.00000000000E+00 -0.36439404398E+02  0.36439404398E+02  0.00000000000E+00 0. -1.
          6    1    1    2  501    0  0.48730408089E+02  0.65485338944E+02  0.12232410559E+04  0.12381076945E+04  0.17300000000E+03 0. -1.
         -6    1    1    2    0  503 -0.48730408089E+02 -0.65485338944E+02  0.28637586106E+03  0.34438803128E+03  0.17300000000E+03 0. -1.
<mgrwt>
<rscale>  2 0.19129031E+03</rscale>
<asrwt>0</asrwt>
<pdfrwt beam="1">  1       21 0.23785477E+00 0.19129031E+03</pdfrwt>
<pdfrwt beam="2">  1       21 0.56060634E-02 0.19129031E+03</pdfrwt>
<totfact> 0.17394811E+04</totfact>
</mgrwt>
</event>
<event>
 4    1  0.4336176E+000  0.1907844E+03  0.7546771E-02  0.1157756E+00
         21   -1    0    0  501  502  0.00000000000E+00  0.00000000000E+00  0.10104781745E+03  0.10104781745E+03  0.00000000000E+00 0. -1.
         21   -1    0    0  502  503 -0.00000000000E+00 -0.00000000000E+00 -0.10248338747E+04  0.10248338747E+04  0.00000000000E+00 0. -1.
          6    1    1    2  501    0  0.32420499044E+02 -0.73611233083E+02 -0.85539812267E+01  0.19097610581E+03  0.17300000000E+03 0. -1.
         -6    1    1    2    0  503 -0.32420499044E+02  0.73611233083E+02 -0.91523207602E+03  0.93490558634E+03  0.17300000000E+03 0. -1.
<mgrwt>
<rscale>  2 0.19078444E+03</rscale>
<asrwt>0</asrwt>
<pdfrwt beam="1">  1       21 0.15545819E-01 0.19078444E+03</pdfrwt>
<pdfrwt beam="2">  1       21 0.15766674E+00 0.19078444E+03</pdfrwt>
<totfact> 0.96377172E+03</totfact>
</mgrwt>
</event>
<event>
 4    1  0.4336176E+000  0.1992452E+03  0.7546771E-02  0.1150377E+00
         21   -1    0    0  503  502  0.00000000000E+00  0.00000000000E+00  0.43544447687E+02  0.43544447687E+02  0.00000000000E+00 0.  1.
         21   -1    0    0  501  503 -0.00000000000E+00 -0.00000000000E+00 -0.91834405826E+03  0.91834405826E+03  0.00000000000E+00 0. -1.
          6    1    1    2  501    0 -0.75532256692E+01 -0.98552584535E+02 -0.47836506554E+03  0.51820053943E+03  0.17300000000E+03 0.  1.
         -6    1    1    2    0  502  0.75532256692E+01  0.98552584535E+02 -0.39643454503E+03  0.44368796651E+03  0.17300000000E+03 0.  1.
<mgrwt>
<rscale>  2 0.19924523E+03</rscale>
<asrwt>0</asrwt>
<pdfrwt beam="1">  1       21 0.66991461E-02 0.19924523E+03</pdfrwt>
<pdfrwt beam="2">  1       21 0.14128370E+00 0.19924523E+03</pdfrwt>
<totfact> 0.56821991E+04</totfact>
</mgrwt>
</event>
<event>
 4    1  0.4336176E+000  0.2487380E+03  0.7546771E-02  0.1114105E+00
         21   -1    0    0  503  502  0.00000000000E+00  0.00000000000E+00  0.18371662775E+04  0.18371662775E+04  0.00000000000E+00 0.  1.
         21   -1    0    0  501  503 -0.00000000000E+00 -0.00000000000E+00 -0.45538162918E+02  0.45538162918E+02  0.00000000000E+00 0. -1.
          6    1    1    2  501    0 -0.14478759812E+03 -0.10477659207E+03  0.41539004678E+03  0.48416884842E+03  0.17300000000E+03 0. -1.
         -6    1    1    2    0  502  0.14478759812E+03  0.10477659207E+03  0.13762380678E+04  0.13985355920E+04  0.17300000000E+03 0.  1.
<mgrwt>
<rscale>  2 0.24873798E+03</rscale>
<asrwt>0</asrwt>
<pdfrwt beam="1">  1       21 0.28264091E+00 0.24873798E+03</pdfrwt>
<pdfrwt beam="2">  1       21 0.70058727E-02 0.24873798E+03</pdfrwt>
<totfact> 0.61469243E+03</totfact>
</mgrwt>
</event>
<event>
 4    1  0.4336176E+000  0.1731042E+03  0.7546771E-02  0.1174649E+00
         21   -1    0    0  503  502  0.00000000000E+00  0.00000000000E+00  0.49354299349E+03  0.49354299349E+03  0.00000000000E+00 0. -1.
         21   -1    0    0  501  503 -0.00000000000E+00 -0.00000000000E+00 -0.67371928652E+02  0.67371928652E+02  0.00000000000E+00 0. -1.
          6    1    1    2  501    0 -0.31156709171E+01 -0.51324118785E+01  0.12492142677E+03  0.21347227437E+03  0.17300000000E+03 0. -1.
         -6    1    1    2    0  502  0.31156709171E+01  0.51324118785E+01  0.30124963806E+03  0.34744264777E+03  0.17300000000E+03 0. -1.
<mgrwt>
<rscale>  2 0.17310416E+03</rscale>
<asrwt>0</asrwt>
<pdfrwt beam="1">  1       21 0.75929689E-01 0.17310416E+03</pdfrwt>
<pdfrwt beam="2">  1       21 0.10364912E-01 0.17310416E+03</pdfrwt>
<totfact> 0.11866637E+05</totfact>
</mgrwt>
</event>
<event>
 4    1  0.4336176E+000  0.2351707E+03  0.7546771E-02  0.1123052E+00
         21   -1    0    0  501  502  0.00000000000E+00  0.00000000000E+00  0.47323676248E+03  0.47323676248E+03  0.00000000000E+00 0. -1.
         21   -1    0    0  502  503 -0.00000000000E+00 -0.00000000000E+00 -0.17448092449E+03  0.17448092449E+03  0.00000000000E+00 0. -1.
          6    1    1    2  501    0 -0.15926221245E+03  0.34372542696E+01  0.33547923543E+03  0.40969694218E+03  0.17300000000E+03 0. -1.
         -6    1    1    2    0  503  0.15926221245E+03 -0.34372542696E+01 -0.36723397430E+02  0.23802074479E+03  0.17300000000E+03 0. -1.
<mgrwt>
<rscale>  2 0.23517072E+03</rscale>
<asrwt>0</asrwt>
<pdfrwt beam="1">  1       21 0.72805655E-01 0.23517072E+03</pdfrwt>
<pdfrwt beam="2">  1       21 0.26843219E-01 0.23517072E+03</pdfrwt>
<totfact> 0.21922886E+04</totfact>
</mgrwt>
</event>
<event>
 4    1  0.4336176E+000  0.2497179E+03  0.7546771E-02  0.1113483E+00
         21   -1    0    0  501  502  0.00000000000E+00  0.00000000000E+00  0.24454313848E+03  0.24454313848E+03  0.00000000000E+00 0. -1.
         21   -1    0    0  502  503 -0.00000000000E+00 -0.00000000000E+00 -0.25544329807E+03  0.25544329807E+03  0.00000000000E+00 0. -1.
          6    1    1    2  501    0  0.15751304586E+03  0.87290595014E+02 -0.15839955758E+02  0.25021972703E+03  0.17300000000E+03 0. -1.
         -6    1    1    2    0  503 -0.15751304586E+03 -0.87290595014E+02  0.49397961696E+01  0.24976670951E+03  0.17300000000E+03 0. -1.
<mgrwt>
<rscale>  2 0.24971786E+03</rscale>
<asrwt>0</asrwt>
<pdfrwt beam="1">  1       21 0.37622022E-01 0.24971786E+03</pdfrwt>
<pdfrwt beam="2">  1       21 0.39298969E-01 0.24971786E+03</pdfrwt>
<totfact> 0.41421325E+04</totfact>
</mgrwt>
</event>
<event>
 4    1  0.4336176E+000  0.2104198E+03  0.7546771E-02  0.1141234E+00
         21   -1    0    0  503  502  0.00000000000E+00  0.00000000000E+00  0.12056417657E+03  0.12056417657E+03  0.00000000000E+00 0. -1.
         21   -1    0    0  501  503 -0.00000000000E+00 -0.00000000000E+00 -0.37200293387E+03  0.37200293387E+03  0.00000000000E+00 0.  1.
          6    1    1    2  501    0 -0.74961420220E+02 -0.93425222283E+02 -0.97863880618E+02  0.23206427086E+03  0.17300000000E+03 0. -1.
         -6    1    1    2    0  502  0.74961420220E+02  0.93425222283E+02 -0.15357487668E+03  0.26050283958E+03  0.17300000000E+03 0.  1.
<mgrwt>
<rscale>  2 0.21041979E+03</rscale>
<asrwt>0</asrwt>
<pdfrwt beam="1">  1       21 0.18548335E-01 0.21041979E+03</pdfrwt>
<pdfrwt beam="2">  1       21 0.57231221E-01 0.21041979E+03</pdfrwt>
<totfact> 0.75547881E+04</totfact>
</mgrwt>
</event>
<event>
 4    1  0.4336176E+000  0.1736394E+03  0.7546771E-02  0.1174105E+00
         21   -1    0    0  501  502  0.00000000000E+00  0.00000000000E+00  0.22991800862E+03  0.22991800862E+03  0.00000000000E+00 0. -1.
         21   -1    0    0  502  503 -0.00000000000E+00 -0.00000000000E+00 -0.13371393358E+03  0.13371393358E+03  0.00000000000E+00 0. -1.
          6    1    1    2  501    0 -0.14776856198E+02 -0.18157426128E+01  0.22859444149E+02  0.17513767895E+03  0.17300000000E+03 0. -1.
         -6    1    1    2    0  503  0.14776856198E+02  0.18157426128E+01  0.73344630883E+02  0.18849426325E+03  0.17300000000E+03 0. -1.
<mgrwt>
<rscale>  2 0.17363943E+03</rscale>
<asrwt>0</asrwt>
<pdfrwt beam="1">  1       21 0.35372001E-01 0.17363943E+03</pdfrwt>
<pdfrwt beam="2">  1       21 0.20571374E-01 0.17363943E+03</pdfrwt>
<totfact> 0.16973911E+05</totfact>
</mgrwt>
</event>
<event>
 4    1  0.4336176E+000  0.1889990E+03  0.7546771E-02  0.1159367E+00
         21   -1    0    0  503  502  0.00000000000E+00  0.00000000000E+00  0.57767913849E+03  0.57767913849E+03  0.00000000000E+00 0. -1.
         21   -1    0    0  501  503 -0.00000000000E+00 -0.00000000000E+00 -0.18033250366E+03  0.18033250366E+03  0.00000000000E+00 0. -1.
          6    1    1    2  501    0 -0.44119635829E+02 -0.62008698507E+02 -0.10855695753E+03  0.21795695443E+03  0.17300000000E+03 0. -1.
         -6    1    1    2    0  502  0.44119635829E+02  0.62008698507E+02  0.50590359237E+03  0.54005468772E+03  0.17300000000E+03 0. -1.
<mgrwt>
<rscale>  2 0.18899900E+03</rscale>
<asrwt>0</asrwt>
<pdfrwt beam="1">  1       21 0.88873713E-01 0.18899900E+03</pdfrwt>
<pdfrwt beam="2">  1       21 0.27743462E-01 0.18899900E+03</pdfrwt>
<totfact> 0.13446852E+04</totfact>
</mgrwt>
</event>
<event>
 4    1  0.4336176E+000  0.2000861E+03  0.7546771E-02  0.1149666E+00
         21   -1    0    0  501  502  0.00000000000E+00  0.00000000000E+00  0.11988755118E+03  0.11988755118E+03  0.00000000000E+00 0.  1.
         21   -1    0    0  502  503 -0.00000000000E+00 -0.00000000000E+00 -0.36281803601E+03  0.36281803601E+03  0.00000000000E+00 0.  1.
          6    1    1    2  501    0  0.35126032567E+02  0.94189276813E+02 -0.53366151007E+02  0.20708067052E+03  0.17300000000E+03 0.  1.
         -6    1    1    2    0  503 -0.35126032567E+02 -0.94189276813E+02 -0.18956433383E+03  0.27562491667E+03  0.17300000000E+03 0.  1.
<mgrwt>
<rscale>  2 0.20008613E+03</rscale>
<asrwt>0</asrwt>
<pdfrwt beam="1">  1       21 0.18444239E-01 0.20008613E+03</pdfrwt>
<pdfrwt beam="2">  1       21 0.55818158E-01 0.20008613E+03</pdfrwt>
<totfact> 0.80871437E+04</totfact>
</mgrwt>
</event>
<event>
 4    1  0.4336176E+000  0.2354573E+03  0.7546771E-02  0.1122857E+00
         21   -1    0    0  503  502  0.00000000000E+00  0.00000000000E+00  0.14878088186E+04  0.14878088186E+04  0.00000000000E+00 0.  1.
         21   -1    0    0  501  503 -0.00000000000E+00 -0.00000000000E+00 -0.41485194933E+02  0.41485194933E+02  0.00000000000E+00 0. -1.
          6    1    1    2  501    0 -0.42223426923E+02 -0.15404004144E+03  0.47922018765E+03  0.53394020302E+03  0.17300000000E+03 0.  1.
         -6    1    1    2    0  502  0.42223426923E+02  0.15404004144E+03  0.96710343599E+03  0.99535381049E+03  0.17300000000E+03 0.  1.
<mgrwt>
<rscale>  2 0.23545733E+03</rscale>
<asrwt>0</asrwt>
<pdfrwt beam="1">  1       21 0.22889362E+00 0.23545733E+03</pdfrwt>
<pdfrwt beam="2">  1       21 0.63823388E-02 0.23545733E+03</pdfrwt>
<totfact> 0.15224152E+04</totfact>
</mgrwt>
</event>
<event>
 4    1  0.4336176E+000  0.1994576E+03  0.7546771E-02  0.1150197E+00
         21   -1    0    0  503  502  0.00000000000E+00  0.00000000000E+00  0.34736573044E+03  0.34736573044E+03  0.00000000000E+00 0. -1.
         21   -1    0    0  501  503 -0.00000000000E+00 -0.00000000000E+00 -0.12104977817E+03  0.12104977817E+03  0.00000000000E+00 0. -1.
          6    1    1    2  501    0  0.34829673717E+02  0.92958184227E+02  0.58797851321E+02  0.20794354404E+03  0.17300000000E+03 0. -1.
         -6    1    1    2    0  502 -0.34829673717E+02 -0.92958184227E+02  0.16751810094E+03  0.26047196458E+03  0.17300000000E+03 0. -1.
<mgrwt>
<rscale>  2 0.19945759E+03</rscale>
<asrwt>0</asrwt>
<pdfrwt beam="1">  1       21 0.53440881E-01 0.19945759E+03</pdfrwt>
<pdfrwt beam="2">  1       21 0.18623043E-01 0.19945759E+03</pdfrwt>
<totfact> 0.87120820E+04</totfact>
</mgrwt>
</event>
<event>
 4    1  0.4336176E+000  0.1951503E+03  0.7546771E-02  0.1153896E+00
         21   -1    0    0  501  502  0.00000000000E+00  0.00000000000E+00  0.11731468848E+04  0.11731468848E+04  0.00000000000E+00 0.  1.
         21   -1    0    0  502  503 -0.00000000000E+00 -0.00000000000E+00 -0.46760504489E+02  0.46760504489E+02  0.00000000000E+00 0.  1.
          6    1    1    2  501    0 -0.25162687734E+02 -0.86726414380E+02  0.90047307588E+03  0.92137690018E+03  0.17300000000E+03 0.  1.
         -6    1    1    2    0  503  0.25162687734E+02  0.86726414380E+02  0.22591330442E+03  0.29853048910E+03  0.17300000000E+03 0.  1.
<mgrwt>
<rscale>  2 0.19515028E+03</rscale>
<asrwt>0</asrwt>
<pdfrwt beam="1">  1       21 0.18048411E+00 0.19515028E+03</pdfrwt>
<pdfrwt beam="2">  1       21 0.71939246E-02 0.19515028E+03</pdfrwt>
<totfact> 0.26011526E+04</totfact>
</mgrwt>
</event>
<event>
 4    1  0.4336176E+000  0.4169011E+03  0.7546771E-02  0.1038080E+00
         21   -1    0    0  501  502  0.00000000000E+00  0.00000000000E+00  0.26928673905E+03  0.26928673905E+03  0.00000000000E+00 0. -1.
         21   -1    0    0  502  503 -0.00000000000E+00 -0.00000000000E+00 -0.64544052235E+03  0.64544052235E+03  0.00000000000E+00 0. -1.
          6    1    1    2  501    0 -0.32619188336E+03  0.19358822269E+03 -0.18963947399E+03  0.45800619519E+03  0.17300000000E+03 0. -1.
         -6    1    1    2    0  503  0.32619188336E+03 -0.19358822269E+03 -0.18651430931E+03  0.45672106621E+03  0.17300000000E+03 0. -1.
<mgrwt>
<rscale>  2 0.41690112E+03</rscale>
<asrwt>0</asrwt>
<pdfrwt beam="1">  1       21 0.41428730E-01 0.41690112E+03</pdfrwt>
<pdfrwt beam="2">  1       21 0.99298540E-01 0.41690112E+03</pdfrwt>
<totfact> 0.41456140E+03</totfact>
</mgrwt>
</event>
<event>
 4    1  0.4336176E+000  0.2775545E+03  0.7546771E-02  0.1097032E+00
         21   -1    0    0  501  502  0.00000000000E+00  0.00000000000E+00  0.33324738213E+02  0.33324738213E+02  0.00000000000E+00 0. -1.
         21   -1    0    0  502  503 -0.00000000000E+00 -0.00000000000E+00 -0.26114702828E+04  0.26114702828E+04  0.00000000000E+00 0.  1.
          6    1    1    2  501    0 -0.20317181760E+03  0.76346051752E+02 -0.84102938013E+03  0.88564492057E+03  0.17300000000E+03 0. -1.
         -6    1    1    2    0  503  0.20317181760E+03 -0.76346051752E+02 -0.17371161645E+04  0.17591501005E+04  0.17300000000E+03 0.  1.
<mgrwt>
<rscale>  2 0.27755451E+03</rscale>
<asrwt>0</asrwt>
<pdfrwt beam="1">  1       21 0.51268833E-02 0.27755451E+03</pdfrwt>
<pdfrwt beam="2">  1       21 0.40176462E+00 0.27755451E+03</pdfrwt>
<totfact> 0.19758403E+03</totfact>
</mgrwt>
</event>
<event>
 4    1  0.4336176E+000  0.1778244E+03  0.7546771E-02  0.1169925E+00
         21   -1    0    0  503  502  0.00000000000E+00  0.00000000000E+00  0.10033365274E+03  0.10033365274E+03  0.00000000000E+00 0.  1.
         21   -1    0    0  501  503 -0.00000000000E+00 -0.00000000000E+00 -0.39498031449E+03  0.39498031449E+03  0.00000000000E+00 0.  1.
          6    1    1    2  501    0 -0.31632041050E+02  0.26304656004E+02 -0.25865266742E+03  0.31388329569E+03  0.17300000000E+03 0.  1.
         -6    1    1    2    0  502  0.31632041050E+02 -0.26304656004E+02 -0.35993994329E+02  0.18143067154E+03  0.17300000000E+03 0.  1.
<mgrwt>
<rscale>  2 0.17782441E+03</rscale>
<asrwt>0</asrwt>
<pdfrwt beam="1">  1       21 0.15435947E-01 0.17782441E+03</pdfrwt>
<pdfrwt beam="2">  1       21 0.60766202E-01 0.17782441E+03</pdfrwt>
<totfact> 0.94427671E+04</totfact>
</mgrwt>
</event>
<event>
 4    1  0.4336176E+000  0.2074877E+03  0.7546771E-02  0.1143571E+00
         21   -1    0    0  501  502  0.00000000000E+00  0.00000000000E+00  0.53096898927E+03  0.53096898927E+03  0.00000000000E+00 0.  1.
         21   -1    0    0  502  503 -0.00000000000E+00 -0.00000000000E+00 -0.19721801812E+03  0.19721801812E+03  0.00000000000E+00 0.  1.
          6    1    1    2  501    0  0.11439201844E+03 -0.60517718261E+01 -0.11252436121E+03  0.23603578053E+03  0.17300000000E+03 0.  1.
         -6    1    1    2    0  503 -0.11439201844E+03  0.60517718261E+01  0.44627533236E+03  0.49215122685E+03  0.17300000000E+03 0.  1.
<mgrwt>
<rscale>  2 0.20748773E+03</rscale>
<asrwt>0</asrwt>
<pdfrwt beam="1">  1       21 0.81687536E-01 0.20748773E+03</pdfrwt>
<pdfrwt beam="2">  1       21 0.30341234E-01 0.20748773E+03</pdfrwt>
<totfact> 0.13542535E+04</totfact>
</mgrwt>
</event>
<event>
 4    1  0.4336176E+000  0.1802569E+03  0.7546771E-02  0.1167555E+00
         21   -1    0    0  501  502  0.00000000000E+00  0.00000000000E+00  0.45741780751E+03  0.45741780751E+03  0.00000000000E+00 0. -1.
         21   -1    0    0  502  503 -0.00000000000E+00 -0.00000000000E+00 -0.71240245403E+02  0.71240245403E+02  0.00000000000E+00 0. -1.
          6    1    1    2  501    0  0.42241251626E+02 -0.27914808882E+02  0.17889224029E+03  0.25395864531E+03  0.17300000000E+03 0. -1.
         -6    1    1    2    0  503 -0.42241251626E+02  0.27914808882E+02  0.20728532182E+03  0.27469940760E+03  0.17300000000E+03 0. -1.
<mgrwt>
<rscale>  2 0.18025693E+03</rscale>
<asrwt>0</asrwt>
<pdfrwt beam="1">  1       21 0.70371969E-01 0.18025693E+03</pdfrwt>
<pdfrwt beam="2">  1       21 0.10960038E-01 0.18025693E+03</pdfrwt>
<totfact> 0.12688569E+05</totfact>
</mgrwt>
</event>
<event>
 4    1  0.4336176E+000  0.1814653E+03  0.7546771E-02  0.1166392E+00
         21   -1    0    0  503  502  0.00000000000E+00  0.00000000000E+00  0.92682938424E+02  0.92682938424E+02  0.00000000000E+00 0. -1.
         21   -1    0    0  501  503 -0.00000000000E+00 -0.00000000000E+00 -0.35537600233E+03  0.35537600233E+03  0.00000000000E+00 0. -1.
          6    1    1    2  501    0  0.47297655330E+01  0.54573713287E+02 -0.13475657470E+03  0.22602874881E+03  0.17300000000E+03 0. -1.
         -6    1    1    2    0  502 -0.47297655330E+01 -0.54573713287E+02 -0.12793648920E+03  0.22203019194E+03  0.17300000000E+03 0. -1.
<mgrwt>
<rscale>  2 0.18146532E+03</rscale>
<asrwt>0</asrwt>
<pdfrwt beam="1">  1       21 0.14258914E-01 0.18146532E+03</pdfrwt>
<pdfrwt beam="2">  1       21 0.54673231E-01 0.18146532E+03</pdfrwt>
<totfact> 0.13637926E+05</totfact>
</mgrwt>
</event>
<event>
 4    1  0.4336176E+000  0.1864012E+03  0.7546771E-02  0.1161748E+00
         21   -1    0    0  501  502  0.00000000000E+00  0.00000000000E+00  0.13284917531E+03  0.13284917531E+03  0.00000000000E+00 0.  1.
         21   -1    0    0  502  503 -0.00000000000E+00 -0.00000000000E+00 -0.36834834763E+03  0.36834834763E+03  0.00000000000E+00 0.  1.
          6    1    1    2  501    0 -0.68472172664E+02 -0.11311701054E+02  0.17193877738E+02  0.18719247432E+03  0.17300000000E+03 0.  1.
         -6    1    1    2    0  503  0.68472172664E+02  0.11311701054E+02 -0.25269305006E+03  0.31400504862E+03  0.17300000000E+03 0.  1.
<mgrwt>
<rscale>  2 0.18640116E+03</rscale>
<asrwt>0</asrwt>
<pdfrwt beam="1">  1       21 0.20438335E-01 0.18640116E+03</pdfrwt>
<pdfrwt beam="2">  1       21 0.56668976E-01 0.18640116E+03</pdfrwt>
<totfact> 0.65070068E+04</totfact>
</mgrwt>
</event>
<event>
 4    1  0.4336176E+000  0.1858849E+03  0.7546771E-02  0.1162226E+00
         21   -1    0    0  503  502  0.00000000000E+00  0.00000000000E+00  0.31554129691E+03  0.31554129691E+03  0.00000000000E+00 0. -1.
         21   -1    0    0  501  503 -0.00000000000E+00 -0.00000000000E+00 -0.28067823264E+03  0.28067823264E+03  0.00000000000E+00 0. -1.
          6    1    1    2  501    0  0.67732390873E+02 -0.60418943948E+01 -0.21537246825E+03  0.28449689162E+03  0.17300000000E+03 0. -1.
         -6    1    1    2    0  502 -0.67732390873E+02  0.60418943948E+01  0.25023553253E+03  0.31172263793E+03  0.17300000000E+03 0. -1.
<mgrwt>
<rscale>  2 0.18588486E+03</rscale>
<asrwt>0</asrwt>
<pdfrwt beam="1">  1       21 0.48544815E-01 0.18588486E+03</pdfrwt>
<pdfrwt beam="2">  1       21 0.43181266E-01 0.18588486E+03</pdfrwt>
<totfact> 0.20976063E+04</totfact>
</mgrwt>
</event>
<event>
 4    1  0.4336176E+000  0.1878864E+03  0.7546771E-02  0.1160382E+00
         21   -1    0    0  503  502  0.00000000000E+00  0.00000000000E+00  0.71320252063E+03  0.71320252063E+03  0.00000000000E+00 0.  1.
         21   -1    0    0  501  503 -0.00000000000E+00 -0.00000000000E+00 -0.94475911902E+02  0.94475911902E+02  0.00000000000E+00 0.  1.
          6    1    1    2  501    0 -0.30873418297E+02  0.66476539818E+02  0.30717181460E+02  0.19038078564E+03  0.17300000000E+03 0.  1.
         -6    1    1    2    0  502  0.30873418297E+02 -0.66476539818E+02  0.58800942727E+03  0.61729764689E+03  0.17300000000E+03 0.  1.
<mgrwt>
<rscale>  2 0.18788640E+03</rscale>
<asrwt>0</asrwt>
<pdfrwt beam="1">  1       21 0.10972346E+00 0.18788640E+03</pdfrwt>
<pdfrwt beam="2">  1       21 0.14534756E-01 0.18788640E+03</pdfrwt>
<totfact> 0.27372745E+04</totfact>
</mgrwt>
</event>
<event>
 4    1  0.4336176E+000  0.2490646E+03  0.7546771E-02  0.1113897E+00
         21   -1    0    0  503  502  0.00000000000E+00  0.00000000000E+00  0.46638604556E+02  0.46638604556E+02  0.00000000000E+00 0. -1.
         21   -1    0    0  501  503 -0.00000000000E+00 -0.00000000000E+00 -0.13417593257E+04  0.13417593257E+04  0.00000000000E+00 0.  1.
          6    1    1    2  501    0  0.83245762485E+02 -0.15866421080E+03 -0.71232086754E+03  0.75460864499E+03  0.17300000000E+03 0.  1.
         -6    1    1    2    0  502 -0.83245762485E+02  0.15866421080E+03 -0.58279985365E+03  0.63378928531E+03  0.17300000000E+03 0.  1.
<mgrwt>
<rscale>  2 0.24906463E+03</rscale>
<asrwt>0</asrwt>
<pdfrwt beam="1">  1       21 0.71751697E-02 0.24906463E+03</pdfrwt>
<pdfrwt beam="2">  1       21 0.20642452E+00 0.24906463E+03</pdfrwt>
<totfact> 0.17011889E+04</totfact>
</mgrwt>
</event>
<event>
 4    1  0.4336176E+000  0.1822896E+03  0.7546771E-02  0.1165605E+00
         21   -1    0    0  503  502  0.00000000000E+00  0.00000000000E+00  0.73775205976E+02  0.73775205976E+02  0.00000000000E+00 0. -1.
         21   -1    0    0  501  503 -0.00000000000E+00 -0.00000000000E+00 -0.45053326327E+03  0.45053326327E+03  0.00000000000E+00 0. -1.
          6    1    1    2  501    0 -0.57446967852E+02  0.58250251044E+00 -0.19261809209E+03  0.26520034469E+03  0.17300000000E+03 0. -1.
         -6    1    1    2    0  502  0.57446967852E+02 -0.58250251044E+00 -0.18413996520E+03  0.25910812455E+03  0.17300000000E+03 0. -1.
<mgrwt>
<rscale>  2 0.18228959E+03</rscale>
<asrwt>0</asrwt>
<pdfrwt beam="1">  1       21 0.11350031E-01 0.18228959E+03</pdfrwt>
<pdfrwt beam="2">  1       21 0.69312813E-01 0.18228959E+03</pdfrwt>
<totfact> 0.12319600E+05</totfact>
</mgrwt>
</event>
<event>
 4    1  0.4336176E+000  0.1955246E+03  0.7546771E-02  0.1153571E+00
         21   -1    0    0  503  502  0.00000000000E+00  0.00000000000E+00  0.92873458166E+02  0.92873458166E+02  0.00000000000E+00 0. -1.
         21   -1    0    0  501  503 -0.00000000000E+00 -0.00000000000E+00 -0.42411994561E+03  0.42411994561E+03  0.00000000000E+00 0. -1.
          6    1    1    2  501    0 -0.86581543232E+02 -0.28364004252E+02 -0.20997593859E+03  0.28691422961E+03  0.17300000000E+03 0.  1.
         -6    1    1    2    0  502  0.86581543232E+02  0.28364004252E+02 -0.12127054886E+03  0.23007917417E+03  0.17300000000E+03 0.  1.
<mgrwt>
<rscale>  2 0.19552463E+03</rscale>
<asrwt>0</asrwt>
<pdfrwt beam="1">  1       21 0.14288224E-01 0.19552463E+03</pdfrwt>
<pdfrwt beam="2">  1       21 0.65249223E-01 0.19552463E+03</pdfrwt>
<totfact> 0.92512381E+04</totfact>
</mgrwt>
</event>
<event>
 4    1  0.4336176E+000  0.1983677E+03  0.7546771E-02  0.1151124E+00
         21   -1    0    0  501  502  0.00000000000E+00  0.00000000000E+00  0.30129673069E+03  0.30129673069E+03  0.00000000000E+00 0.  1.
         21   -1    0    0  502  503 -0.00000000000E+00 -0.00000000000E+00 -0.14561807697E+03  0.14561807697E+03  0.00000000000E+00 0.  1.
          6    1    1    2  501    0  0.74218272602E+02 -0.62549169889E+02  0.14959812956E+03  0.24845392130E+03  0.17300000000E+03 0.  1.
         -6    1    1    2    0  503 -0.74218272602E+02  0.62549169889E+02  0.60805241556E+01  0.19846088636E+03  0.17300000000E+03 0.  1.
<mgrwt>
<rscale>  2 0.19836772E+03</rscale>
<asrwt>0</asrwt>
<pdfrwt beam="1">  1       21 0.46353343E-01 0.19836772E+03</pdfrwt>
<pdfrwt beam="2">  1       21 0.22402781E-01 0.19836772E+03</pdfrwt>
<totfact> 0.82962199E+04</totfact>
</mgrwt>
</event>
<event>
 4    1  0.4336176E+000  0.1762414E+03  0.7546771E-02  0.1171491E+00
         21   -1    0    0  503  502  0.00000000000E+00  0.00000000000E+00  0.57646072694E+03  0.57646072694E+03  0.00000000000E+00 0. -1.
         21   -1    0    0  501  503 -0.00000000000E+00 -0.00000000000E+00 -0.54083663945E+02  0.54083663945E+02  0.00000000000E+00 0. -1.
          6    1    1    2  501    0  0.24820959772E+02  0.22714889069E+02  0.24195261920E+03  0.29933612573E+03  0.17300000000E+03 0. -1.
         -6    1    1    2    0  502 -0.24820959772E+02 -0.22714889069E+02  0.28042444380E+03  0.33120826516E+03  0.17300000000E+03 0. -1.
<mgrwt>
<rscale>  2 0.17624144E+03</rscale>
<asrwt>0</asrwt>
<pdfrwt beam="1">  1       21 0.88686261E-01 0.17624144E+03</pdfrwt>
<pdfrwt beam="2">  1       21 0.83205641E-02 0.17624144E+03</pdfrwt>
<totfact> 0.12255541E+05</totfact>
</mgrwt>
</event>
<event>
 4    1  0.4336176E+000  0.1995238E+03  0.7546771E-02  0.1150141E+00
         21   -1    0    0  503  502  0.00000000000E+00  0.00000000000E+00  0.23410916938E+03  0.23410916938E+03  0.00000000000E+00 0.  1.
         21   -1    0    0  501  503 -0.00000000000E+00 -0.00000000000E+00 -0.60339210688E+03  0.60339210688E+03  0.00000000000E+00 0.  1.
          6    1    1    2  501    0  0.85922302317E+02 -0.49980914779E+02 -0.53951389025E+03  0.57522601789E+03  0.17300000000E+03 0.  1.
         -6    1    1    2    0  502 -0.85922302317E+02  0.49980914779E+02  0.17023095275E+03  0.26227525837E+03  0.17300000000E+03 0.  1.
<mgrwt>
<rscale>  2 0.19952377E+03</rscale>
<asrwt>0</asrwt>
<pdfrwt beam="1">  1       21 0.36016796E-01 0.19952377E+03</pdfrwt>
<pdfrwt beam="2">  1       21 0.92829554E-01 0.19952377E+03</pdfrwt>
<totfact> 0.72312001E+03</totfact>
</mgrwt>
</event>
<event>
 4    1  0.4336176E+000  0.2524643E+03  0.7546771E-02  0.1111757E+00
         21   -1    0    0  503  502  0.00000000000E+00  0.00000000000E+00  0.40068872773E+03  0.40068872773E+03  0.00000000000E+00 0. -1.
         21   -1    0    0  501  503 -0.00000000000E+00 -0.00000000000E+00 -0.38661319960E+03  0.38661319960E+03  0.00000000000E+00 0.  1.
          6    1    1    2  501    0 -0.16974814601E+03  0.70674003626E+02 -0.29495967665E+03  0.38825179808E+03  0.17300000000E+03 0.  1.
         -6    1    1    2    0  502  0.16974814601E+03 -0.70674003626E+02  0.30903520478E+03  0.39905012925E+03  0.17300000000E+03 0. -1.
<mgrwt>
<rscale>  2 0.25246435E+03</rscale>
<asrwt>0</asrwt>
<pdfrwt beam="1">  1       21 0.61644420E-01 0.25246435E+03</pdfrwt>
<pdfrwt beam="2">  1       21 0.59478954E-01 0.25246435E+03</pdfrwt>
<totfact> 0.61996957E+03</totfact>
</mgrwt>
</event>
<event>
 4    1  0.4336176E+000  0.2658392E+03  0.7546771E-02  0.1103685E+00
         21   -1    0    0  503  502  0.00000000000E+00  0.00000000000E+00  0.44783704249E+03  0.44783704249E+03  0.00000000000E+00 0.  1.
         21   -1    0    0  501  503 -0.00000000000E+00 -0.00000000000E+00 -0.17263611103E+03  0.17263611103E+03  0.00000000000E+00 0.  1.
          6    1    1    2  501    0  0.86838309891E+02  0.18221027582E+03  0.46665970445E+02  0.26990403753E+03  0.17300000000E+03 0.  1.
         -6    1    1    2    0  502 -0.86838309891E+02 -0.18221027582E+03  0.22853496102E+03  0.35056911599E+03  0.17300000000E+03 0.  1.
<mgrwt>
<rscale>  2 0.26583919E+03</rscale>
<asrwt>0</asrwt>
<pdfrwt beam="1">  1       21 0.68898006E-01 0.26583919E+03</pdfrwt>
<pdfrwt beam="2">  1       21 0.26559402E-01 0.26583919E+03</pdfrwt>
<totfact> 0.24939370E+04</totfact>
</mgrwt>
</event>
<event>
 4    1  0.4336176E+000  0.2073851E+03  0.7546771E-02  0.1143654E+00
         21   -1    0    0  503  502  0.00000000000E+00  0.00000000000E+00  0.51101085340E+02  0.51101085340E+02  0.00000000000E+00 0. -1.
         21   -1    0    0  501  503 -0.00000000000E+00 -0.00000000000E+00 -0.11628324084E+04  0.11628324084E+04  0.00000000000E+00 0. -1.
          6    1    1    2  501    0 -0.66341723042E+02  0.93157767584E+02 -0.87486560496E+03  0.89910979341E+03  0.17300000000E+03 0. -1.
         -6    1    1    2    0  502  0.66341723042E+02 -0.93157767584E+02 -0.23686571812E+03  0.31482370035E+03  0.17300000000E+03 0. -1.
<mgrwt>
<rscale>  2 0.20738513E+03</rscale>
<asrwt>0</asrwt>
<pdfrwt beam="1">  1       21 0.78617056E-02 0.20738513E+03</pdfrwt>
<pdfrwt beam="2">  1       21 0.17889729E+00 0.20738513E+03</pdfrwt>
<totfact> 0.22666702E+04</totfact>
</mgrwt>
</event>
<event>
 4    1  0.4336176E+000  0.2057207E+03  0.7546771E-02  0.1145000E+00
         21   -1    0    0  501  502  0.00000000000E+00  0.00000000000E+00  0.19025271974E+03  0.19025271974E+03  0.00000000000E+00 0.  1.
         21   -1    0    0  502  503 -0.00000000000E+00 -0.00000000000E+00 -0.24162605730E+03  0.24162605730E+03  0.00000000000E+00 0. -1.
          6    1    1    2  501    0  0.10833981676E+03  0.25583240854E+02 -0.86525556728E+02  0.22317636541E+03  0.17300000000E+03 0. -1.
         -6    1    1    2    0  503 -0.10833981676E+03 -0.25583240854E+02  0.35152219164E+02  0.20870241163E+03  0.17300000000E+03 0.  1.
<mgrwt>
<rscale>  2 0.20572073E+03</rscale>
<asrwt>0</asrwt>
<pdfrwt beam="1">  1       21 0.29269649E-01 0.20572073E+03</pdfrwt>
<pdfrwt beam="2">  1       21 0.37173240E-01 0.20572073E+03</pdfrwt>
<totfact> 0.77588503E+04</totfact>
</mgrwt>
</event>
<event>
 4    1  0.4336176E+000  0.2133940E+03  0.7546771E-02  0.1138906E+00
         21   -1    0    0  501  502  0.00000000000E+00  0.00000000000E+00  0.79153806155E+03  0.79153806155E+03  0.00000000000E+00 0.  1.
         21   -1    0    0  502  503 -0.00000000000E+00 -0.00000000000E+00 -0.74986143588E+02  0.74986143588E+02  0.00000000000E+00 0.  1.
          6    1    1    2  501    0  0.89936533032E+02 -0.86714655712E+02  0.56731965146E+03  0.60612589321E+03  0.17300000000E+03 0.  1.
         -6    1    1    2    0  503 -0.89936533032E+02  0.86714655712E+02  0.14923226650E+03  0.26039831193E+03  0.17300000000E+03 0.  1.
<mgrwt>
<rscale>  2 0.21339403E+03</rscale>
<asrwt>0</asrwt>
<pdfrwt beam="1">  1       21 0.12177508E+00 0.21339403E+03</pdfrwt>
<pdfrwt beam="2">  1       21 0.11536330E-01 0.21339403E+03</pdfrwt>
<totfact> 0.31678216E+04</totfact>
</mgrwt>
</event>
<event>
 4    1  0.4336176E+000  0.2452234E+03  0.7546771E-02  0.1116361E+00
         21   -1    0    0  501  502  0.00000000000E+00  0.00000000000E+00  0.19906307802E+03  0.19906307802E+03  0.00000000000E+00 0.  1.
         21   -1    0    0  502  503 -0.00000000000E+00 -0.00000000000E+00 -0.13523918982E+04  0.13523918982E+04  0.00000000000E+00 0. -1.
          6    1    1    2  501    0 -0.48913014976E+02 -0.16677241248E+03  0.10695665701E+03  0.26753363728E+03  0.17300000000E+03 0.  1.
         -6    1    1    2    0  503  0.48913014976E+02  0.16677241248E+03 -0.12602854772E+04  0.12839213390E+04  0.17300000000E+03 0. -1.
<mgrwt>
<rscale>  2 0.24522341E+03</rscale>
<asrwt>0</asrwt>
<pdfrwt beam="1">  1       21 0.30625090E-01 0.24522341E+03</pdfrwt>
<pdfrwt beam="2">  1       21 0.20806029E+00 0.24522341E+03</pdfrwt>
<totfact> 0.11584013E+03</totfact>
</mgrwt>
</event>
<event>
 4    1  0.4336176E+000  0.1969257E+03  0.7546771E-02  0.1152359E+00
         21   -1    0    0  501  502  0.00000000000E+00  0.00000000000E+00  0.34636837331E+03  0.34636837331E+03  0.00000000000E+00 0.  1.
         21   -1    0    0  502  503 -0.00000000000E+00 -0.00000000000E+00 -0.14863447523E+03  0.14863447523E+03  0.00000000000E+00 0.  1.
          6    1    1    2  501    0 -0.18148211869E+02  0.92311376149E+02  0.22180716942E+03  0.29661113966E+03  0.17300000000E+03 0.  1.
         -6    1    1    2    0  503  0.18148211869E+02 -0.92311376149E+02 -0.24073271334E+02  0.19839170888E+03  0.17300000000E+03 0.  1.
<mgrwt>
<rscale>  2 0.19692574E+03</rscale>
<asrwt>0</asrwt>
<pdfrwt beam="1">  1       21 0.53287442E-01 0.19692574E+03</pdfrwt>
<pdfrwt beam="2">  1       21 0.22866842E-01 0.19692574E+03</pdfrwt>
<totfact> 0.59718157E+04</totfact>
</mgrwt>
</event>
<event>
 4    1  0.4336176E+000  0.2219602E+03  0.7546771E-02  0.1132430E+00
         21   -1    0    0  501  502  0.00000000000E+00  0.00000000000E+00  0.57372265365E+03  0.57372265365E+03  0.00000000000E+00 0. -1.
         21   -1    0    0  502  503 -0.00000000000E+00 -0.00000000000E+00 -0.87245442125E+02  0.87245442125E+02  0.00000000000E+00 0.  1.
          6    1    1    2  501    0  0.56353631155E+01  0.13894447191E+03  0.20176314300E+03  0.29995781281E+03  0.17300000000E+03 0. -1.
         -6    1    1    2    0  503 -0.56353631155E+01 -0.13894447191E+03  0.28471406852E+03  0.36101028297E+03  0.17300000000E+03 0.  1.
<mgrwt>
<rscale>  2 0.22196018E+03</rscale>
<asrwt>0</asrwt>
<pdfrwt beam="1">  1       21 0.88265021E-01 0.22196018E+03</pdfrwt>
<pdfrwt beam="2">  1       21 0.13422376E-01 0.22196018E+03</pdfrwt>
<totfact> 0.51986778E+04</totfact>
</mgrwt>
</event>
<event>
 4    1  0.4336176E+000  0.2268836E+03  0.7546771E-02  0.1128853E+00
         21   -1    0    0  501  502  0.00000000000E+00  0.00000000000E+00  0.15110239880E+03  0.15110239880E+03  0.00000000000E+00 0.  1.
         21   -1    0    0  502  503 -0.00000000000E+00 -0.00000000000E+00 -0.36946854361E+03  0.36946854361E+03  0.00000000000E+00 0. -1.
          6    1    1    2  501    0  0.36486301045E+02 -0.14218267073E+03 -0.36515429251E+02  0.22980326062E+03  0.17300000000E+03 0.  1.
         -6    1    1    2    0  503 -0.36486301045E+02  0.14218267073E+03 -0.18185071556E+03  0.29076768179E+03  0.17300000000E+03 0. -1.
<mgrwt>
<rscale>  2 0.22688359E+03</rscale>
<asrwt>0</asrwt>
<pdfrwt beam="1">  1       21 0.23246523E-01 0.22688359E+03</pdfrwt>
<pdfrwt beam="2">  1       21 0.56841314E-01 0.22688359E+03</pdfrwt>
<totfact> 0.49786624E+04</totfact>
</mgrwt>
</event>
<event>
 4    1  0.4336176E+000  0.2062898E+03  0.7546771E-02  0.1144538E+00
         21   -1    0    0  503  502  0.00000000000E+00  0.00000000000E+00  0.17066721278E+03  0.17066721278E+03  0.00000000000E+00 0. -1.
         21   -1    0    0  501  503 -0.00000000000E+00 -0.00000000000E+00 -0.30050409553E+03  0.30050409553E+03  0.00000000000E+00 0. -1.
          6    1    1    2  501    0 -0.95998077335E+02  0.58402346260E+02 -0.16212015283E+03  0.26237074695E+03  0.17300000000E+03 0. -1.
         -6    1    1    2    0  502  0.95998077335E+02 -0.58402346260E+02  0.32283270078E+02  0.20880056137E+03  0.17300000000E+03 0. -1.
<mgrwt>
<rscale>  2 0.20628976E+03</rscale>
<asrwt>0</asrwt>
<pdfrwt beam="1">  1       21 0.26256495E-01 0.20628976E+03</pdfrwt>
<pdfrwt beam="2">  1       21 0.46231399E-01 0.20628976E+03</pdfrwt>
<totfact> 0.61426408E+04</totfact>
</mgrwt>
</event>
<event>
 4    1  0.4336176E+000  0.2104426E+03  0.7546771E-02  0.1141216E+00
         21   -1    0    0  503  502  0.00000000000E+00  0.00000000000E+00  0.62208519374E+03  0.62208519374E+03  0.00000000000E+00 0.  1.
         21   -1    0    0  501  503 -0.00000000000E+00 -0.00000000000E+00 -0.92781393704E+02  0.92781393704E+02  0.00000000000E+00 0.  1.
          6    1    1    2  501    0 -0.75985396345E+02 -0.92646106250E+02  0.92224000244E+02  0.22976367790E+03  0.17300000000E+03 0.  1.
         -6    1    1    2    0  502  0.75985396345E+02  0.92646106250E+02  0.43707979979E+03  0.48510290954E+03  0.17300000000E+03 0.  1.
<mgrwt>
<rscale>  2 0.21044258E+03</rscale>
<asrwt>0</asrwt>
<pdfrwt beam="1">  1       21 0.95705412E-01 0.21044258E+03</pdfrwt>
<pdfrwt beam="2">  1       21 0.14274061E-01 0.21044258E+03</pdfrwt>
<totfact> 0.38714265E+04</totfact>
</mgrwt>
</event>
<event>
 4    1  0.4336176E+000  0.1770633E+03  0.7546771E-02  0.1170676E+00
         21   -1    0    0  503  502  0.00000000000E+00  0.00000000000E+00  0.43806760208E+02  0.43806760208E+02  0.00000000000E+00 0. -1.
         21   -1    0    0  501  503 -0.00000000000E+00 -0.00000000000E+00 -0.74397234757E+03  0.74397234757E+03  0.00000000000E+00 0. -1.
          6    1    1    2  501    0  0.22954598757E+00  0.37714348003E+02 -0.42690117345E+03  0.46216451251E+03  0.17300000000E+03 0. -1.
         -6    1    1    2    0  502 -0.22954598757E+00 -0.37714348003E+02 -0.27326441391E+03  0.32561459526E+03  0.17300000000E+03 0. -1.
<mgrwt>
<rscale>  2 0.17706334E+03</rscale>
<asrwt>0</asrwt>
<pdfrwt beam="1">  1       21 0.67395023E-02 0.17706334E+03</pdfrwt>
<pdfrwt beam="2">  1       21 0.11445727E+00 0.17706334E+03</pdfrwt>
<totfact> 0.96424929E+04</totfact>
</mgrwt>
</event>
<event>
 4    1  0.4336176E+000  0.2323081E+03  0.7546771E-02  0.1125026E+00
         21   -1    0    0  503  502  0.00000000000E+00  0.00000000000E+00  0.33335478871E+03  0.33335478871E+03  0.00000000000E+00 0.  1.
         21   -1    0    0  501  503 -0.00000000000E+00 -0.00000000000E+00 -0.16259776084E+03  0.16259776084E+03  0.00000000000E+00 0. -1.
          6    1    1    2  501    0 -0.11726426331E+03 -0.10142567490E+03  0.69027333795E+02  0.24234654483E+03  0.17300000000E+03 0. -1.
         -6    1    1    2    0  502  0.11726426331E+03  0.10142567490E+03  0.10172969407E+03  0.25360600473E+03  0.17300000000E+03 0. -1.
<mgrwt>
<rscale>  2 0.23230815E+03</rscale>
<asrwt>0</asrwt>
<pdfrwt beam="1">  1       21 0.51285352E-01 0.23230815E+03</pdfrwt>
<pdfrwt beam="2">  1       21 0.25015040E-01 0.23230815E+03</pdfrwt>
<totfact> 0.53695261E+04</totfact>
</mgrwt>
</event>
<event>
 4    1  0.4336176E+000  0.2156434E+03  0.7546771E-02  0.1137173E+00
         21   -1    0    0  501  502  0.00000000000E+00  0.00000000000E+00  0.93312430814E+03  0.93312430814E+03  0.00000000000E+00 0.  1.
         21   -1    0    0  502  503 -0.00000000000E+00 -0.00000000000E+00 -0.60165898677E+02  0.60165898677E+02  0.00000000000E+00 0.  1.
          6    1    1    2  501    0 -0.11182191848E+03  0.63788205823E+02  0.64227851143E+03  0.67751292453E+03  0.17300000000E+03 0.  1.
         -6    1    1    2    0  503  0.11182191848E+03 -0.63788205823E+02  0.23067989803E+03  0.31577728229E+03  0.17300000000E+03 0.  1.
<mgrwt>
<rscale>  2 0.21564340E+03</rscale>
<asrwt>0</asrwt>
<pdfrwt beam="1">  1       21 0.14355758E+00 0.21564340E+03</pdfrwt>
<pdfrwt beam="2">  1       21 0.92562928E-02 0.21564340E+03</pdfrwt>
<totfact> 0.30747537E+04</totfact>
</mgrwt>
</event>
<event>
 4    1  0.4336176E+000  0.2373849E+03  0.7546771E-02  0.1121547E+00
         21   -1    0    0  501  502  0.00000000000E+00  0.00000000000E+00  0.31198708228E+03  0.31198708228E+03  0.00000000000E+00 0. -1.
         21   -1    0    0  502  503 -0.00000000000E+00 -0.00000000000E+00 -0.32349673933E+03  0.32349673933E+03  0.00000000000E+00 0.  1.
          6    1    1    2  501    0 -0.88014302339E+02 -0.13666048847E+03  0.20540819896E+03  0.31391740112E+03  0.17300000000E+03 0. -1.
         -6    1    1    2    0  503  0.88014302339E+02  0.13666048847E+03 -0.21691785601E+03  0.32156642048E+03  0.17300000000E+03 0.  1.
<mgrwt>
<rscale>  2 0.23738493E+03</rscale>
<asrwt>0</asrwt>
<pdfrwt beam="1">  1       21 0.47998013E-01 0.23738493E+03</pdfrwt>
<pdfrwt beam="2">  1       21 0.49768729E-01 0.23738493E+03</pdfrwt>
<totfact> 0.15544636E+04</totfact>
</mgrwt>
</event>
<event>
 4    1  0.4336176E+000  0.1851177E+03  0.7546771E-02  0.1162940E+00
         21   -1    0    0  503  502  0.00000000000E+00  0.00000000000E+00  0.32415580922E+02  0.32415580922E+02  0.00000000000E+00 0.  1.
         21   -1    0    0  501  503 -0.00000000000E+00 -0.00000000000E+00 -0.10627333577E+04  0.10627333577E+04  0.00000000000E+00 0.  1.
          6    1    1    2  501    0  0.61938360159E+02  0.22431962946E+02 -0.55480237113E+03  0.58487111780E+03  0.17300000000E+03 0. -1.
         -6    1    1    2    0  502 -0.61938360159E+02 -0.22431962946E+02 -0.47551540568E+03  0.51027782086E+03  0.17300000000E+03 0. -1.
<mgrwt>
<rscale>  2 0.18511767E+03</rscale>
<asrwt>0</asrwt>
<pdfrwt beam="1">  1       21 0.49870134E-02 0.18511767E+03</pdfrwt>
<pdfrwt beam="2">  1       21 0.16349741E+00 0.18511767E+03</pdfrwt>
<totfact> 0.64403218E+04</totfact>
</mgrwt>
</event>
<event>
 4    1  0.4336176E+000  0.2272698E+03  0.7546771E-02  0.1128576E+00
         21   -1    0    0  501  502  0.00000000000E+00  0.00000000000E+00  0.13409132562E+03  0.13409132562E+03  0.00000000000E+00 0. -1.
         21   -1    0    0  502  503 -0.00000000000E+00 -0.00000000000E+00 -0.67229619525E+03  0.67229619525E+03  0.00000000000E+00 0. -1.
          6    1    1    2  501    0  0.10812387563E+03  0.10015870905E+03 -0.56212113073E+01  0.22733925639E+03  0.17300000000E+03 0. -1.
         -6    1    1    2    0  503 -0.10812387563E+03 -0.10015870905E+03 -0.53258365832E+03  0.57904826447E+03  0.17300000000E+03 0. -1.
<mgrwt>
<rscale>  2 0.22726975E+03</rscale>
<asrwt>0</asrwt>
<pdfrwt beam="1">  1       21 0.20629435E-01 0.22726975E+03</pdfrwt>
<pdfrwt beam="2">  1       21 0.10343018E+00 0.22726975E+03</pdfrwt>
<totfact> 0.16149941E+04</totfact>
</mgrwt>
</event>
<event>
 4    1  0.4336176E+000  0.2155880E+03  0.7546771E-02  0.1137216E+00
         21   -1    0    0  501  502  0.00000000000E+00  0.00000000000E+00  0.28701885348E+03  0.28701885348E+03  0.00000000000E+00 0. -1.
         21   -1    0    0  502  503 -0.00000000000E+00 -0.00000000000E+00 -0.16456540555E+03  0.16456540555E+03  0.00000000000E+00 0. -1.
          6    1    1    2  501    0 -0.11711359480E+03  0.53231335360E+02  0.89777420407E+02  0.23353405398E+03  0.17300000000E+03 0. -1.
         -6    1    1    2    0  503  0.11711359480E+03 -0.53231335360E+02  0.32676027517E+02  0.21805020506E+03  0.17300000000E+03 0. -1.
<mgrwt>
<rscale>  2 0.21558796E+03</rscale>
<asrwt>0</asrwt>
<pdfrwt beam="1">  1       21 0.44156746E-01 0.21558796E+03</pdfrwt>
<pdfrwt beam="2">  1       21 0.25317755E-01 0.21558796E+03</pdfrwt>
<totfact> 0.72113237E+04</totfact>
</mgrwt>
</event>
<event>
 4    1  0.4336176E+000  0.2119620E+03  0.7546771E-02  0.1140022E+00
         21   -1    0    0  501  502  0.00000000000E+00  0.00000000000E+00  0.15190231975E+03  0.15190231975E+03  0.00000000000E+00 0. -1.
         21   -1    0    0  502  503 -0.00000000000E+00 -0.00000000000E+00 -0.32818843145E+03  0.32818843145E+03  0.00000000000E+00 0.  1.
          6    1    1    2  501    0  0.92970371614E+02  0.79720876004E+02 -0.12696687889E+02  0.21234197407E+03  0.17300000000E+03 0. -1.
         -6    1    1    2    0  503 -0.92970371614E+02 -0.79720876004E+02 -0.16358942381E+03  0.26774877712E+03  0.17300000000E+03 0.  1.
<mgrwt>
<rscale>  2 0.21196204E+03</rscale>
<asrwt>0</asrwt>
<pdfrwt beam="1">  1       21 0.23369587E-01 0.21196204E+03</pdfrwt>
<pdfrwt beam="2">  1       21 0.50490528E-01 0.21196204E+03</pdfrwt>
<totfact> 0.63733180E+04</totfact>
</mgrwt>
</event>
<event>
 4    1  0.4336176E+000  0.2066049E+03  0.7546771E-02  0.1144283E+00
         21   -1    0    0  501  502  0.00000000000E+00  0.00000000000E+00  0.10064299478E+03  0.10064299478E+03  0.00000000000E+00 0.  1.
         21   -1    0    0  502  503 -0.00000000000E+00 -0.00000000000E+00 -0.44103109582E+03  0.44103109582E+03  0.00000000000E+00 0.  1.
          6    1    1    2  501    0 -0.47842692969E+02  0.10231162588E+03 -0.11717323782E+03  0.23751875657E+03  0.17300000000E+03 0.  1.
         -6    1    1    2    0  503  0.47842692969E+02 -0.10231162588E+03 -0.22321486322E+03  0.30415533403E+03  0.17300000000E+03 0.  1.
<mgrwt>
<rscale>  2 0.20660492E+03</rscale>
<asrwt>0</asrwt>
<pdfrwt beam="1">  1       21 0.15483538E-01 0.20660492E+03</pdfrwt>
<pdfrwt beam="2">  1       21 0.67850937E-01 0.20660492E+03</pdfrwt>
<totfact> 0.73012378E+04</totfact>
</mgrwt>
</event>
<event>
 4    1  0.4336176E+000  0.1865268E+03  0.7546771E-02  0.1161632E+00
         21   -1    0    0  503  502  0.00000000000E+00  0.00000000000E+00  0.82480533829E+02  0.82480533829E+02  0.00000000000E+00 0.  1.
         21   -1    0    0  501  503 -0.00000000000E+00 -0.00000000000E+00 -0.48265600920E+03  0.48265600920E+03  0.00000000000E+00 0.  1.
          6    1    1    2  501    0  0.69634912092E+02  0.37734804930E+01 -0.30040391798E+03  0.35360256514E+03  0.17300000000E+03 0. -1.
         -6    1    1    2    0  502 -0.69634912092E+02 -0.37734804930E+01 -0.99771557395E+02  0.21153397789E+03  0.17300000000E+03 0. -1.
<mgrwt>
<rscale>  2 0.18652683E+03</rscale>
<asrwt>0</asrwt>
<pdfrwt beam="1">  1       21 0.12689313E-01 0.18652683E+03</pdfrwt>
<pdfrwt beam="2">  1       21 0.74254771E-01 0.18652683E+03</pdfrwt>
<totfact> 0.86527404E+04</totfact>
</mgrwt>
</event>
<event>
 4    1  0.4336176E+000  0.3592234E+03  0.7546771E-02  0.1058892E+00
         21   -1    0    0  503  502  0.00000000000E+00  0.00000000000E+00  0.17470281111E+04  0.17470281111E+04  0.00000000000E+00 0. -1.
         21   -1    0    0  501  503 -0.00000000000E+00 -0.00000000000E+00 -0.73968606395E+02  0.73968606395E+02  0.00000000000E+00 0. -1.
          6    1    1    2  501    0 -0.29052307665E+03  0.12127984680E+03  0.80219379241E+03  0.87895184162E+03  0.17300000000E+03 0. -1.
         -6    1    1    2    0  502  0.29052307665E+03 -0.12127984680E+03  0.87086571226E+03  0.94204487584E+03  0.17300000000E+03 0. -1.
<mgrwt>
<rscale>  2 0.35922341E+03</rscale>
<asrwt>0</asrwt>
<pdfrwt beam="1">  1       21 0.26877352E+00 0.35922341E+03</pdfrwt>
<pdfrwt beam="2">  1       21 0.11379787E-01 0.35922341E+03</pdfrwt>
<totfact> 0.29081843E+03</totfact>
</mgrwt>
</event>
<event>
 4    1  0.4336176E+000  0.4099798E+03  0.7546771E-02  0.1040378E+00
         21   -1    0    0  501  502  0.00000000000E+00  0.00000000000E+00  0.54077998565E+03  0.54077998565E+03  0.00000000000E+00 0.  1.
         21   -1    0    0  502  503 -0.00000000000E+00 -0.00000000000E+00 -0.37139159046E+03  0.37139159046E+03  0.00000000000E+00 0. -1.
          6    1    1    2  501    0 -0.32214770461E+03  0.18540578644E+03  0.26888877232E+03  0.49029034368E+03  0.17300000000E+03 0.  1.
         -6    1    1    2    0  503  0.32214770461E+03 -0.18540578644E+03 -0.99500377122E+02  0.42188123243E+03  0.17300000000E+03 0. -1.
<mgrwt>
<rscale>  2 0.40997982E+03</rscale>
<asrwt>0</asrwt>
<pdfrwt beam="1">  1       21 0.83196921E-01 0.40997982E+03</pdfrwt>
<pdfrwt beam="2">  1       21 0.57137167E-01 0.40997982E+03</pdfrwt>
<totfact> 0.32016457E+03</totfact>
</mgrwt>
</event>
<event>
 4    1  0.4336176E+000  0.2662646E+03  0.7546771E-02  0.1103437E+00
         21   -1    0    0  501  502  0.00000000000E+00  0.00000000000E+00  0.11006123691E+04  0.11006123691E+04  0.00000000000E+00 0.  1.
         21   -1    0    0  502  503 -0.00000000000E+00 -0.00000000000E+00 -0.64934956939E+02  0.64934956939E+02  0.00000000000E+00 0.  1.
          6    1    1    2  501    0 -0.13411273086E+02  0.20196026615E+03  0.56994805302E+03  0.62907677949E+03  0.17300000000E+03 0.  1.
         -6    1    1    2    0  503  0.13411273086E+02 -0.20196026615E+03  0.46572935914E+03  0.53647054655E+03  0.17300000000E+03 0.  1.
<mgrwt>
<rscale>  2 0.26626455E+03</rscale>
<asrwt>0</asrwt>
<pdfrwt beam="1">  1       21 0.16932497E+00 0.26626455E+03</pdfrwt>
<pdfrwt beam="2">  1       21 0.99899942E-02 0.26626455E+03</pdfrwt>
<totfact> 0.16737129E+04</totfact>
</mgrwt>
</event>
<event>
 4    1  0.4336176E+000  0.2143828E+03  0.7546771E-02  0.1138142E+00
         21   -1    0    0  503  502  0.00000000000E+00  0.00000000000E+00  0.60136484084E+03  0.60136484084E+03  0.00000000000E+00 0.  1.
         21   -1    0    0  501  503 -0.00000000000E+00 -0.00000000000E+00 -0.14024397762E+03  0.14024397762E+03  0.00000000000E+00 0.  1.
          6    1    1    2  501    0 -0.37066576110E+02 -0.12106636434E+03 -0.19574191267E+02  0.21527457955E+03  0.17300000000E+03 0.  1.
         -6    1    1    2    0  502  0.37066576110E+02  0.12106636434E+03  0.48069505448E+03  0.52633423890E+03  0.17300000000E+03 0.  1.
<mgrwt>
<rscale>  2 0.21438282E+03</rscale>
<asrwt>0</asrwt>
<pdfrwt beam="1">  1       21 0.92517667E-01 0.21438282E+03</pdfrwt>
<pdfrwt beam="2">  1       21 0.21575997E-01 0.21438282E+03</pdfrwt>
<totfact> 0.19472857E+04</totfact>
</mgrwt>
</event>
<event>
 4    1  0.4336176E+000  0.2583563E+03  0.7546771E-02  0.1108135E+00
         21   -1    0    0  501  502  0.00000000000E+00  0.00000000000E+00  0.10985465565E+03  0.10985465565E+03  0.00000000000E+00 0. -1.
         21   -1    0    0  502  503 -0.00000000000E+00 -0.00000000000E+00 -0.61528617435E+03  0.61528617435E+03  0.00000000000E+00 0.  1.
          6    1    1    2  501    0  0.11610699210E+03  0.15276819171E+03 -0.21219844241E+03  0.33432937797E+03  0.17300000000E+03 0.  1.
         -6    1    1    2    0  503 -0.11610699210E+03 -0.15276819171E+03 -0.29323307629E+03  0.39081145204E+03  0.17300000000E+03 0. -1.
<mgrwt>
<rscale>  2 0.25835625E+03</rscale>
<asrwt>0</asrwt>
<pdfrwt beam="1">  1       21 0.16900717E-01 0.25835625E+03</pdfrwt>
<pdfrwt beam="2">  1       21 0.94659408E-01 0.25835625E+03</pdfrwt>
<totfact> 0.28480975E+04</totfact>
</mgrwt>
</event>
<event>
 4    1  0.4336176E+000  0.2179533E+03  0.7546771E-02  0.1135418E+00
         21   -1    0    0  503  502  0.00000000000E+00  0.00000000000E+00  0.11153258244E+03  0.11153258244E+03  0.00000000000E+00 0.  1.
         21   -1    0    0  501  503 -0.00000000000E+00 -0.00000000000E+00 -0.48428678479E+03  0.48428678479E+03  0.00000000000E+00 0.  1.
          6    1    1    2  501    0 -0.16475169206E+02 -0.13154169000E+03 -0.28980234186E+03  0.36261418168E+03  0.17300000000E+03 0.  1.
         -6    1    1    2    0  502  0.16475169206E+02  0.13154169000E+03 -0.82951860490E+02  0.23320518555E+03  0.17300000000E+03 0.  1.
<mgrwt>
<rscale>  2 0.21795331E+03</rscale>
<asrwt>0</asrwt>
<pdfrwt beam="1">  1       21 0.17158859E-01 0.21795331E+03</pdfrwt>
<pdfrwt beam="2">  1       21 0.74505660E-01 0.21795331E+03</pdfrwt>
<totfact> 0.48877530E+04</totfact>
</mgrwt>
</event>
<event>
 4    1  0.4336176E+000  0.1910261E+03  0.7546771E-02  0.1157539E+00
         21   -1    0    0  501  502  0.00000000000E+00  0.00000000000E+00  0.16455883479E+03  0.16455883479E+03  0.00000000000E+00 0.  1.
         21   -1    0    0  502  503 -0.00000000000E+00 -0.00000000000E+00 -0.22303904554E+03  0.22303904554E+03  0.00000000000E+00 0.  1.
          6    1    1    2  501    0  0.43042319851E+02  0.68624427271E+02 -0.14508074374E+02  0.19157619251E+03  0.17300000000E+03 0.  1.
         -6    1    1    2    0  503 -0.43042319851E+02 -0.68624427271E+02 -0.43972136376E+02  0.19602168781E+03  0.17300000000E+03 0.  1.
<mgrwt>
<rscale>  2 0.19102605E+03</rscale>
<asrwt>0</asrwt>
<pdfrwt beam="1">  1       21 0.25316744E-01 0.19102605E+03</pdfrwt>
<pdfrwt beam="2">  1       21 0.34313699E-01 0.19102605E+03</pdfrwt>
<totfact> 0.12109594E+05</totfact>
</mgrwt>
</event>
<event>
 4    1  0.4336176E+000  0.1801038E+03  0.7546771E-02  0.1167703E+00
         21   -1    0    0  501  502  0.00000000000E+00  0.00000000000E+00  0.18742250422E+03  0.18742250422E+03  0.00000000000E+00 0.  1.
         21   -1    0    0  502  503 -0.00000000000E+00 -0.00000000000E+00 -0.33821048975E+03  0.33821048975E+03  0.00000000000E+00 0.  1.
          6    1    1    2  501    0 -0.17654697121E+02 -0.46868836572E+02  0.10825338166E+03  0.21013369747E+03  0.17300000000E+03 0.  1.
         -6    1    1    2    0  503  0.17654697121E+02  0.46868836572E+02 -0.25904136719E+03  0.31549929650E+03  0.17300000000E+03 0.  1.
<mgrwt>
<rscale>  2 0.18010379E+03</rscale>
<asrwt>0</asrwt>
<pdfrwt beam="1">  1       21 0.28834232E-01 0.18010379E+03</pdfrwt>
<pdfrwt beam="2">  1       21 0.52032383E-01 0.18010379E+03</pdfrwt>
<totfact> 0.40605344E+04</totfact>
</mgrwt>
</event>
<event>
 4    1  0.4336176E+000  0.2305609E+03  0.7546771E-02  0.1126246E+00
         21   -1    0    0  503  502  0.00000000000E+00  0.00000000000E+00  0.50168038157E+03  0.50168038157E+03  0.00000000000E+00 0. -1.
         21   -1    0    0  501  503 -0.00000000000E+00 -0.00000000000E+00 -0.10805968029E+03  0.10805968029E+03  0.00000000000E+00 0.  1.
          6    1    1    2  501    0  0.11611995112E+03  0.98719341371E+02  0.15431924769E+03  0.27743969006E+03  0.17300000000E+03 0.  1.
         -6    1    1    2    0  502 -0.11611995112E+03 -0.98719341371E+02  0.23930145359E+03  0.33230037181E+03  0.17300000000E+03 0.  1.
<mgrwt>
<rscale>  2 0.23056095E+03</rscale>
<asrwt>0</asrwt>
<pdfrwt beam="1">  1       21 0.77181595E-01 0.23056095E+03</pdfrwt>
<pdfrwt beam="2">  1       21 0.16624567E-01 0.23056095E+03</pdfrwt>
<totfact> 0.47593948E+04</totfact>
</mgrwt>
</event>
<event>
 4    1  0.4336176E+000  0.1846468E+03  0.7546771E-02  0.1163380E+00
         21   -1    0    0  503  502  0.00000000000E+00  0.00000000000E+00  0.82987640134E+02  0.82987640134E+02  0.00000000000E+00 0. -1.
         21   -1    0    0  501  503 -0.00000000000E+00 -0.00000000000E+00 -0.62269056251E+03  0.62269056251E+03  0.00000000000E+00 0. -1.
          6    1    1    2  501    0  0.12267938188E+02  0.63363550040E+02 -0.47565737501E+03  0.51023953217E+03  0.17300000000E+03 0. -1.
         -6    1    1    2    0  502 -0.12267938188E+02 -0.63363550040E+02 -0.64045547362E+02  0.19543867048E+03  0.17300000000E+03 0. -1.
<mgrwt>
<rscale>  2 0.18464680E+03</rscale>
<asrwt>0</asrwt>
<pdfrwt beam="1">  1       21 0.12767330E-01 0.18464680E+03</pdfrwt>
<pdfrwt beam="2">  1       21 0.95798546E-01 0.18464680E+03</pdfrwt>
<totfact> 0.47887720E+04</totfact>
</mgrwt>
</event>
<event>
 4    1  0.4336176E+000  0.1770036E+03  0.7546771E-02  0.1170735E+00
         21   -1    0    0  501  502  0.00000000000E+00  0.00000000000E+00  0.94674043943E+02  0.94674043943E+02  0.00000000000E+00 0. -1.
         21   -1    0    0  502  503 -0.00000000000E+00 -0.00000000000E+00 -0.62945241674E+03  0.62945241674E+03  0.00000000000E+00 0. -1.
          6    1    1    2  501    0 -0.28002148535E+02  0.24842515492E+02 -0.18048551666E+02  0.17792139027E+03  0.17300000000E+03 0. -1.
         -6    1    1    2    0  503  0.28002148535E+02 -0.24842515492E+02 -0.51672982113E+03  0.54620507042E+03  0.17300000000E+03 0. -1.
<mgrwt>
<rscale>  2 0.17700359E+03</rscale>
<asrwt>0</asrwt>
<pdfrwt beam="1">  1       21 0.14565238E-01 0.17700359E+03</pdfrwt>
<pdfrwt beam="2">  1       21 0.96838832E-01 0.17700359E+03</pdfrwt>
<totfact> 0.36960502E+04</totfact>
</mgrwt>
</event>
<event>
 4    1  0.4336176E+000  0.2346889E+03  0.7546771E-02  0.1123382E+00
         21   -1    0    0  501  502  0.00000000000E+00  0.00000000000E+00  0.44763616999E+03  0.44763616999E+03  0.00000000000E+00 0.  1.
         21   -1    0    0  502  503 -0.00000000000E+00 -0.00000000000E+00 -0.14324236022E+03  0.14324236022E+03  0.00000000000E+00 0.  1.
          6    1    1    2  501    0  0.10846034895E+03  0.11569897655E+03  0.26313778421E+03  0.35259097259E+03  0.17300000000E+03 0.  1.
         -6    1    1    2    0  503 -0.10846034895E+03 -0.11569897655E+03  0.41256025559E+02  0.23828755762E+03  0.17300000000E+03 0.  1.
<mgrwt>
<rscale>  2 0.23468894E+03</rscale>
<asrwt>0</asrwt>
<pdfrwt beam="1">  1       21 0.68867103E-01 0.23468894E+03</pdfrwt>
<pdfrwt beam="2">  1       21 0.22037286E-01 0.23468894E+03</pdfrwt>
<totfact> 0.36185990E+04</totfact>
</mgrwt>
</event>
<event>
 4    1  0.4336176E+000  0.2627103E+03  0.7546771E-02  0.1105526E+00
         21   -1    0    0  501  502  0.00000000000E+00  0.00000000000E+00  0.40981562777E+03  0.40981562777E+03  0.00000000000E+00 0.  1.
         21   -1    0    0  502  503 -0.00000000000E+00 -0.00000000000E+00 -0.32861207665E+03  0.32861207665E+03  0.00000000000E+00 0.  1.
          6    1    1    2  501    0  0.13786270340E+02  0.19722482174E+03  0.29839499037E+03  0.39756290300E+03  0.17300000000E+03 0.  1.
         -6    1    1    2    0  503 -0.13786270340E+02 -0.19722482174E+03 -0.21719143926E+03  0.34086480142E+03  0.17300000000E+03 0.  1.
<mgrwt>
<rscale>  2 0.26271028E+03</rscale>
<asrwt>0</asrwt>
<pdfrwt beam="1">  1       21 0.63048558E-01 0.26271028E+03</pdfrwt>
<pdfrwt beam="2">  1       21 0.50555704E-01 0.26271028E+03</pdfrwt>
<totfact> 0.82981783E+03</totfact>
</mgrwt>
</event>
<event>
 4    1  0.4336176E+000  0.1768695E+03  0.7546771E-02  0.1170868E+00
         21   -1    0    0  501  502  0.00000000000E+00  0.00000000000E+00  0.94444505935E+02  0.94444505935E+02  0.00000000000E+00 0.  1.
         21   -1    0    0  502  503 -0.00000000000E+00 -0.00000000000E+00 -0.40100814279E+03  0.40100814279E+03  0.00000000000E+00 0.  1.
          6    1    1    2  501    0  0.75277891042E+01  0.36016094843E+02 -0.49944745447E+02  0.18378602856E+03  0.17300000000E+03 0.  1.
         -6    1    1    2    0  503 -0.75277891042E+01 -0.36016094843E+02 -0.25661889140E+03  0.31166662016E+03  0.17300000000E+03 0.  1.
<mgrwt>
<rscale>  2 0.17686952E+03</rscale>
<asrwt>0</asrwt>
<pdfrwt beam="1">  1       21 0.14529924E-01 0.17686952E+03</pdfrwt>
<pdfrwt beam="2">  1       21 0.61693560E-01 0.17686952E+03</pdfrwt>
<totfact> 0.10206029E+05</totfact>
</mgrwt>
</event>
<event>
 4    1  0.4336176E+000  0.2307452E+03  0.7546771E-02  0.1126116E+00
         21   -1    0    0  503  502  0.00000000000E+00  0.00000000000E+00  0.63204308152E+03  0.63204308152E+03  0.00000000000E+00 0.  1.
         21   -1    0    0  501  503 -0.00000000000E+00 -0.00000000000E+00 -0.14214571269E+03  0.14214571269E+03  0.00000000000E+00 0. -1.
          6    1    1    2  501    0 -0.79628034740E+02 -0.13028327283E+03 -0.21158659433E+01  0.23075491757E+03  0.17300000000E+03 0. -1.
         -6    1    1    2    0  502  0.79628034740E+02  0.13028327283E+03  0.49201323477E+03  0.54343387664E+03  0.17300000000E+03 0.  1.
<mgrwt>
<rscale>  2 0.23074522E+03</rscale>
<asrwt>0</asrwt>
<pdfrwt beam="1">  1       21 0.97237395E-01 0.23074522E+03</pdfrwt>
<pdfrwt beam="2">  1       21 0.21868572E-01 0.23074522E+03</pdfrwt>
<totfact> 0.16731311E+04</totfact>
</mgrwt>
</event>
<event>
 4    1  0.4336176E+000  0.1781606E+03  0.7546771E-02  0.1169595E+00
         21   -1    0    0  503  502  0.00000000000E+00  0.00000000000E+00  0.47834959311E+03  0.47834959311E+03  0.00000000000E+00 0.  1.
         21   -1    0    0  501  503 -0.00000000000E+00 -0.00000000000E+00 -0.74249513131E+02  0.74249513131E+02  0.00000000000E+00 0.  1.
          6    1    1    2  501    0 -0.28499110033E+01 -0.42474465219E+02  0.11195975873E+03  0.21041908127E+03  0.17300000000E+03 0.  1.
         -6    1    1    2    0  502  0.28499110033E+01  0.42474465219E+02  0.29214032125E+03  0.34218002497E+03  0.17300000000E+03 0.  1.
<mgrwt>
<rscale>  2 0.17816061E+03</rscale>
<asrwt>0</asrwt>
<pdfrwt beam="1">  1       21 0.73592243E-01 0.17816061E+03</pdfrwt>
<pdfrwt beam="2">  1       21 0.11423002E-01 0.17816061E+03</pdfrwt>
<totfact> 0.10686885E+05</totfact>
</mgrwt>
</event>
<event>
 4    1  0.4336176E+000  0.2146834E+03  0.7546771E-02  0.1137910E+00
         21   -1    0    0  501  502  0.00000000000E+00  0.00000000000E+00  0.16288742202E+02  0.16288742202E+02  0.00000000000E+00 0. -1.
         21   -1    0    0  502  503 -0.00000000000E+00 -0.00000000000E+00 -0.28295036074E+04  0.28295036074E+04  0.00000000000E+00 0.  1.
          6    1    1    2  501    0 -0.76991440163E+02  0.10115479413E+03 -0.14047259184E+04  0.14210361994E+04  0.17300000000E+03 0.  1.
         -6    1    1    2    0  503  0.76991440163E+02 -0.10115479413E+03 -0.14084889468E+04  0.14247561502E+04  0.17300000000E+03 0. -1.
<mgrwt>
<rscale>  2 0.21468343E+03</rscale>
<asrwt>0</asrwt>
<pdfrwt beam="1">  1       21 0.25059608E-02 0.21468343E+03</pdfrwt>
<pdfrwt beam="2">  1       21 0.43530817E+00 0.21468343E+03</pdfrwt>
<totfact> 0.42935915E+03</totfact>
</mgrwt>
</event>
<event>
 4    1  0.4336176E+000  0.1799428E+03  0.7546771E-02  0.1167858E+00
         21   -1    0    0  503  502  0.00000000000E+00  0.00000000000E+00  0.39515187086E+02  0.39515187086E+02  0.00000000000E+00 0. -1.
         21   -1    0    0  501  503 -0.00000000000E+00 -0.00000000000E+00 -0.10016794248E+04  0.10016794248E+04  0.00000000000E+00 0. -1.
          6    1    1    2  501    0 -0.24887161033E+02  0.42790520173E+02 -0.25901379539E+03  0.31538475804E+03  0.17300000000E+03 0. -1.
         -6    1    1    2    0  502  0.24887161033E+02 -0.42790520173E+02 -0.70315044237E+03  0.72580985389E+03  0.17300000000E+03 0. -1.
<mgrwt>
<rscale>  2 0.17994277E+03</rscale>
<asrwt>0</asrwt>
<pdfrwt beam="1">  1       21 0.60792594E-02 0.17994277E+03</pdfrwt>
<pdfrwt beam="2">  1       21 0.15410453E+00 0.17994277E+03</pdfrwt>
<totfact> 0.54043184E+04</totfact>
</mgrwt>
</event>
<event>
 4    1  0.4336176E+000  0.1736412E+03  0.7546771E-02  0.1174103E+00
         21   -1    0    0  503  502  0.00000000000E+00  0.00000000000E+00  0.30298421511E+03  0.30298421511E+03  0.00000000000E+00 0.  1.
         21   -1    0    0  501  503 -0.00000000000E+00 -0.00000000000E+00 -0.24406605161E+03  0.24406605161E+03  0.00000000000E+00 0.  1.
          6    1    1    2  501    0 -0.13490477936E+02  0.63449293062E+01 -0.18104246163E+03  0.25085379015E+03  0.17300000000E+03 0.  1.
         -6    1    1    2    0  502  0.13490477936E+02 -0.63449293062E+01  0.23996062512E+03  0.29619647657E+03  0.17300000000E+03 0.  1.
<mgrwt>
<rscale>  2 0.17364116E+03</rscale>
<asrwt>0</asrwt>
<pdfrwt beam="1">  1       21 0.46612956E-01 0.17364116E+03</pdfrwt>
<pdfrwt beam="2">  1       21 0.37548623E-01 0.17364116E+03</pdfrwt>
<totfact> 0.30462051E+04</totfact>
</mgrwt>
</event>
<event>
 4    1  0.4336176E+000  0.1852847E+03  0.7546771E-02  0.1162784E+00
         21   -1    0    0  503  502  0.00000000000E+00  0.00000000000E+00  0.13671123172E+04  0.13671123172E+04  0.00000000000E+00 0.  1.
         21   -1    0    0  501  503 -0.00000000000E+00 -0.00000000000E+00 -0.14069117757E+03  0.14069117757E+03  0.00000000000E+00 0.  1.
          6    1    1    2  501    0 -0.19960666853E+02 -0.63269230980E+02 -0.70105769478E+02  0.19810412092E+03  0.17300000000E+03 0.  1.
         -6    1    1    2    0  502  0.19960666853E+02  0.63269230980E+02  0.12965269091E+04  0.13096993738E+04  0.17300000000E+03 0.  1.
<mgrwt>
<rscale>  2 0.18528471E+03</rscale>
<asrwt>0</asrwt>
<pdfrwt beam="1">  1       21 0.21032496E+00 0.18528471E+03</pdfrwt>
<pdfrwt beam="2">  1       21 0.21644797E-01 0.18528471E+03</pdfrwt>
<totfact> 0.23169489E+03</totfact>
</mgrwt>
</event>
<event>
 4    1  0.4336176E+000  0.2706883E+03  0.7546771E-02  0.1100886E+00
         21   -1    0    0  501  502  0.00000000000E+00  0.00000000000E+00  0.57288855458E+03  0.57288855458E+03  0.00000000000E+00 0.  1.
         21   -1    0    0  502  503 -0.00000000000E+00 -0.00000000000E+00 -0.25233217612E+03  0.25233217612E+03  0.00000000000E+00 0.  1.
          6    1    1    2  501    0  0.55379989328E+02  0.20068933718E+03  0.45002659664E+03  0.52516291849E+03  0.17300000000E+03 0.  1.
         -6    1    1    2    0  503 -0.55379989328E+02 -0.20068933718E+03 -0.12947021818E+03  0.30005781221E+03  0.17300000000E+03 0.  1.
<mgrwt>
<rscale>  2 0.27068830E+03</rscale>
<asrwt>0</asrwt>
<pdfrwt beam="1">  1       21 0.88136701E-01 0.27068830E+03</pdfrwt>
<pdfrwt beam="2">  1       21 0.38820335E-01 0.27068830E+03</pdfrwt>
<totfact> 0.67078658E+03</totfact>
</mgrwt>
</event>
<event>
 4    1  0.4336176E+000  0.2129558E+03  0.7546771E-02  0.1139246E+00
         21   -1    0    0  501  502  0.00000000000E+00  0.00000000000E+00  0.66588502787E+03  0.66588502787E+03  0.00000000000E+00 0.  1.
         21   -1    0    0  502  503 -0.00000000000E+00 -0.00000000000E+00 -0.70071071779E+02  0.70071071779E+02  0.00000000000E+00 0.  1.
          6    1    1    2  501    0  0.35291108573E+02 -0.11906176002E+03  0.23626999121E+03  0.31807809385E+03  0.17300000000E+03 0.  1.
         -6    1    1    2    0  503 -0.35291108573E+02  0.11906176002E+03  0.35954396488E+03  0.41787800579E+03  0.17300000000E+03 0.  1.
<mgrwt>
<rscale>  2 0.21295578E+03</rscale>
<asrwt>0</asrwt>
<pdfrwt beam="1">  1       21 0.10244385E+00 0.21295578E+03</pdfrwt>
<pdfrwt beam="2">  1       21 0.10780165E-01 0.21295578E+03</pdfrwt>
<totfact> 0.54502843E+04</totfact>
</mgrwt>
</event>
<event>
 4    1  0.4336176E+000  0.2297269E+03  0.7546771E-02  0.1126832E+00
         21   -1    0    0  503  502  0.00000000000E+00  0.00000000000E+00  0.62028679008E+03  0.62028679008E+03  0.00000000000E+00 0. -1.
         21   -1    0    0  501  503 -0.00000000000E+00 -0.00000000000E+00 -0.14380264400E+03  0.14380264400E+03  0.00000000000E+00 0.  1.
          6    1    1    2  501    0 -0.12995949742E+03  0.77174963517E+02 -0.58934103750E+01  0.22980247660E+03  0.17300000000E+03 0.  1.
         -6    1    1    2    0  502  0.12995949742E+03 -0.77174963517E+02  0.48237755646E+03  0.53428695749E+03  0.17300000000E+03 0. -1.
<mgrwt>
<rscale>  2 0.22972689E+03</rscale>
<asrwt>0</asrwt>
<pdfrwt beam="1">  1       21 0.95428735E-01 0.22972689E+03</pdfrwt>
<pdfrwt beam="2">  1       21 0.22123484E-01 0.22972689E+03</pdfrwt>
<totfact> 0.17119836E+04</totfact>
</mgrwt>
</event>
<event>
 4    1  0.4336176E+000  0.2139552E+03  0.7546771E-02  0.1138472E+00
         21   -1    0    0  501  502  0.00000000000E+00  0.00000000000E+00  0.64380826520E+02  0.64380826520E+02  0.00000000000E+00 0. -1.
         21   -1    0    0  502  503 -0.00000000000E+00 -0.00000000000E+00 -0.72574360711E+03  0.72574360711E+03  0.00000000000E+00 0. -1.
          6    1    1    2  501    0  0.77577812425E+02  0.99143809420E+02 -0.27443332427E+03  0.34798054744E+03  0.17300000000E+03 0. -1.
         -6    1    1    2    0  503 -0.77577812425E+02 -0.99143809420E+02 -0.38692945633E+03  0.44214388619E+03  0.17300000000E+03 0. -1.
<mgrwt>
<rscale>  2 0.21395516E+03</rscale>
<asrwt>0</asrwt>
<pdfrwt beam="1">  1       21 0.99047420E-02 0.21395516E+03</pdfrwt>
<pdfrwt beam="2">  1       21 0.11165287E+00 0.21395516E+03</pdfrwt>
<totfact> 0.51423444E+04</totfact>
</mgrwt>
</event>
<event>
 4    1  0.4336176E+000  0.1735662E+03  0.7546771E-02  0.1174179E+00
         21   -1    0    0  503  502  0.00000000000E+00  0.00000000000E+00  0.22373580940E+03  0.22373580940E+03  0.00000000000E+00 0. -1.
         21   -1    0    0  501  503 -0.00000000000E+00 -0.00000000000E+00 -0.19372363564E+03  0.19372363564E+03  0.00000000000E+00 0. -1.
          6    1    1    2  501    0  0.13832431482E+02 -0.22081001659E+01  0.13027261914E+03  0.21701651358E+03  0.17300000000E+03 0. -1.
         -6    1    1    2    0  502 -0.13832431482E+02  0.22081001659E+01 -0.10026044538E+03  0.20044293146E+03  0.17300000000E+03 0. -1.
<mgrwt>
<rscale>  2 0.17356616E+03</rscale>
<asrwt>0</asrwt>
<pdfrwt beam="1">  1       21 0.34420894E-01 0.17356616E+03</pdfrwt>
<pdfrwt beam="2">  1       21 0.29803636E-01 0.17356616E+03</pdfrwt>
<totfact> 0.88462812E+04</totfact>
</mgrwt>
</event>
<event>
 4    1  0.4336176E+000  0.2078655E+03  0.7546771E-02  0.1143267E+00
         21   -1    0    0  503  502  0.00000000000E+00  0.00000000000E+00  0.45421798602E+03  0.45421798602E+03  0.00000000000E+00 0.  1.
         21   -1    0    0  501  503 -0.00000000000E+00 -0.00000000000E+00 -0.10274097074E+03  0.10274097074E+03  0.00000000000E+00 0. -1.
          6    1    1    2  501    0 -0.88324987295E+02  0.74012028740E+02  0.99925021770E+02  0.23063628022E+03  0.17300000000E+03 0. -1.
         -6    1    1    2    0  502  0.88324987295E+02 -0.74012028740E+02  0.25155199351E+03  0.32632267653E+03  0.17300000000E+03 0.  1.
<mgrwt>
<rscale>  2 0.20786554E+03</rscale>
<asrwt>0</asrwt>
<pdfrwt beam="1">  1       21 0.69879689E-01 0.20786554E+03</pdfrwt>
<pdfrwt beam="2">  1       21 0.15806303E-01 0.20786554E+03</pdfrwt>
<totfact> 0.65852386E+04</totfact>
</mgrwt>
</event>
<event>
 4    1  0.4336176E+000  0.1823555E+03  0.7546771E-02  0.1165543E+00
         21   -1    0    0  503  502  0.00000000000E+00  0.00000000000E+00  0.48374456247E+03  0.48374456247E+03  0.00000000000E+00 0. -1.
         21   -1    0    0  501  503 -0.00000000000E+00 -0.00000000000E+00 -0.69053055337E+02  0.69053055337E+02  0.00000000000E+00 0.  1.
          6    1    1    2  501    0 -0.37511264907E+02 -0.43788706583E+02  0.18879350378E+03  0.26248149056E+03  0.17300000000E+03 0. -1.
         -6    1    1    2    0  502  0.37511264907E+02  0.43788706583E+02  0.22589800336E+03  0.29031612725E+03  0.17300000000E+03 0.  1.
<mgrwt>
<rscale>  2 0.18235555E+03</rscale>
<asrwt>0</asrwt>
<pdfrwt beam="1">  1       21 0.74422238E-01 0.18235555E+03</pdfrwt>
<pdfrwt beam="2">  1       21 0.10623547E-01 0.18235555E+03</pdfrwt>
<totfact> 0.11837868E+05</totfact>
</mgrwt>
</event>
<event>
 4    1  0.4336176E+000  0.1883030E+03  0.7546771E-02  0.1160001E+00
         21   -1    0    0  503  502  0.00000000000E+00  0.00000000000E+00  0.30398190306E+03  0.30398190306E+03  0.00000000000E+00 0.  1.
         21   -1    0    0  501  503 -0.00000000000E+00 -0.00000000000E+00 -0.17228512281E+03  0.17228512281E+03  0.00000000000E+00 0.  1.
          6    1    1    2  501    0 -0.17042942311E+02  0.72377813801E+02 -0.69480383860E+02  0.20071256452E+03  0.17300000000E+03 0.  1.
         -6    1    1    2    0  502  0.17042942311E+02 -0.72377813801E+02  0.20117716411E+03  0.27555446135E+03  0.17300000000E+03 0.  1.
<mgrwt>
<rscale>  2 0.18830297E+03</rscale>
<asrwt>0</asrwt>
<pdfrwt beam="1">  1       21 0.46766446E-01 0.18830297E+03</pdfrwt>
<pdfrwt beam="2">  1       21 0.26505404E-01 0.18830297E+03</pdfrwt>
<totfact> 0.59395805E+04</totfact>
</mgrwt>
</event>
<event>
 4    1  0.4336176E+000  0.1863657E+03  0.7546771E-02  0.1161781E+00
         21   -1    0    0  501  502  0.00000000000E+00  0.00000000000E+00  0.39692546625E+03  0.39692546625E+03  0.00000000000E+00 0.  1.
         21   -1    0    0  502  503 -0.00000000000E+00 -0.00000000000E+00 -0.96519821019E+02  0.96519821019E+02  0.00000000000E+00 0.  1.
          6    1    1    2  501    0  0.55358713070E+02  0.41696352367E+02  0.22561252859E+03  0.29263148493E+03  0.17300000000E+03 0.  1.
         -6    1    1    2    0  503 -0.55358713070E+02 -0.41696352367E+02  0.74793116638E+02  0.20081380234E+03  0.17300000000E+03 0.  1.
<mgrwt>
<rscale>  2 0.18636570E+03</rscale>
<asrwt>0</asrwt>
<pdfrwt beam="1">  1       21 0.61065455E-01 0.18636570E+03</pdfrwt>
<pdfrwt beam="2">  1       21 0.14849203E-01 0.18636570E+03</pdfrwt>
<totfact> 0.99929184E+04</totfact>
</mgrwt>
</event>
<event>
 4    1  0.4336176E+000  0.1820338E+03  0.7546771E-02  0.1165849E+00
         21   -1    0    0  501  502  0.00000000000E+00  0.00000000000E+00  0.84802973432E+03  0.84802973432E+03  0.00000000000E+00 0.  1.
         21   -1    0    0  502  503 -0.00000000000E+00 -0.00000000000E+00 -0.73547930958E+02  0.73547930958E+02  0.00000000000E+00 0.  1.
          6    1    1    2  501    0  0.16893843198E+02 -0.54054647817E+02  0.70271172537E+03  0.72590638230E+03  0.17300000000E+03 0.  1.
         -6    1    1    2    0  503 -0.16893843198E+02  0.54054647817E+02  0.71770077995E+02  0.19567128298E+03  0.17300000000E+03 0.  1.
<mgrwt>
<rscale>  2 0.18203381E+03</rscale>
<asrwt>0</asrwt>
<pdfrwt beam="1">  1       21 0.13046611E+00 0.18203381E+03</pdfrwt>
<pdfrwt beam="2">  1       21 0.11315067E-01 0.18203381E+03</pdfrwt>
<totfact> 0.28097893E+04</totfact>
</mgrwt>
</event>
<event>
 4    1  0.4336176E+000  0.2024848E+03  0.7546771E-02  0.1147659E+00
         21   -1    0    0  501  502  0.00000000000E+00  0.00000000000E+00  0.14314811091E+03  0.14314811091E+03  0.00000000000E+00 0.  1.
         21   -1    0    0  502  503 -0.00000000000E+00 -0.00000000000E+00 -0.59688091835E+03  0.59688091835E+03  0.00000000000E+00 0. -1.
          6    1    1    2  501    0  0.10326479951E+02  0.10471121935E+03  0.39991682393E+02  0.20639624586E+03  0.17300000000E+03 0.  1.
         -6    1    1    2    0  503 -0.10326479951E+02 -0.10471121935E+03 -0.49372448984E+03  0.53363278339E+03  0.17300000000E+03 0. -1.
<mgrwt>
<rscale>  2 0.20248475E+03</rscale>
<asrwt>0</asrwt>
<pdfrwt beam="1">  1       21 0.22022787E-01 0.20248475E+03</pdfrwt>
<pdfrwt beam="2">  1       21 0.91827832E-01 0.20248475E+03</pdfrwt>
<totfact> 0.19200207E+04</totfact>
</mgrwt>
</event>
<event>
 4    1  0.4336176E+000  0.1804127E+03  0.7546771E-02  0.1167404E+00
         21   -1    0    0  501  502  0.00000000000E+00  0.00000000000E+00  0.47240193967E+02  0.47240193967E+02  0.00000000000E+00 0. -1.
         21   -1    0    0  502  503 -0.00000000000E+00 -0.00000000000E+00 -0.94820926325E+03  0.94820926325E+03  0.00000000000E+00 0. -1.
          6    1    1    2  501    0 -0.25107008857E+02  0.44602275027E+02 -0.19025398402E+03  0.26219325557E+03  0.17300000000E+03 0. -1.
         -6    1    1    2    0  503  0.25107008857E+02 -0.44602275027E+02 -0.71071508526E+03  0.73325620165E+03  0.17300000000E+03 0. -1.
<mgrwt>
<rscale>  2 0.18041265E+03</rscale>
<asrwt>0</asrwt>
<pdfrwt beam="1">  1       21 0.72677221E-02 0.18041265E+03</pdfrwt>
<pdfrwt beam="2">  1       21 0.14587835E+00 0.18041265E+03</pdfrwt>
<totfact> 0.45901221E+04</totfact>
</mgrwt>
</event>
<event>
 4    1  0.4336176E+000  0.1968872E+03  0.7546771E-02  0.1152392E+00
         21   -1    0    0  501  502  0.00000000000E+00  0.00000000000E+00  0.44968154563E+02  0.44968154563E+02  0.00000000000E+00 0.  1.
         21   -1    0    0  502  503 -0.00000000000E+00 -0.00000000000E+00 -0.88327827371E+03  0.88327827371E+03  0.00000000000E+00 0.  1.
          6    1    1    2  501    0  0.40917641880E+02  0.84624674473E+02 -0.34719536288E+03  0.39913557716E+03  0.17300000000E+03 0.  1.
         -6    1    1    2    0  503 -0.40917641880E+02 -0.84624674473E+02 -0.49111475626E+03  0.52911085112E+03  0.17300000000E+03 0.  1.
<mgrwt>
<rscale>  2 0.19688725E+03</rscale>
<asrwt>0</asrwt>
<pdfrwt beam="1">  1       21 0.69181768E-02 0.19688725E+03</pdfrwt>
<pdfrwt beam="2">  1       21 0.13588898E+00 0.19688725E+03</pdfrwt>
<totfact> 0.59503345E+04</totfact>
</mgrwt>
</event>
<event>
 4    1  0.4336176E+000  0.3988343E+03  0.7546771E-02  0.1044184E+00
         21   -1    0    0  503  502  0.00000000000E+00  0.00000000000E+00  0.19149428827E+03  0.19149428827E+03  0.00000000000E+00 0.  1.
         21   -1    0    0  501  503 -0.00000000000E+00 -0.00000000000E+00 -0.84288110937E+03  0.84288110937E+03  0.00000000000E+00 0. -1.
          6    1    1    2  501    0 -0.17699594780E+03  0.31274941606E+03 -0.26344564083E+03  0.47798783296E+03  0.17300000000E+03 0. -1.
         -6    1    1    2    0  502  0.17699594780E+03 -0.31274941606E+03 -0.38794118027E+03  0.55638756468E+03  0.17300000000E+03 0.  1.
<mgrwt>
<rscale>  2 0.39883425E+03</rscale>
<asrwt>0</asrwt>
<pdfrwt beam="1">  1       21 0.29460660E-01 0.39883425E+03</pdfrwt>
<pdfrwt beam="2">  1       21 0.12967401E+00 0.39883425E+03</pdfrwt>
<totfact> 0.42666725E+03</totfact>
</mgrwt>
</event>
<event>
 4    1  0.4336176E+000  0.2223726E+03  0.7546771E-02  0.1132126E+00
         21   -1    0    0  501  502  0.00000000000E+00  0.00000000000E+00  0.13675013069E+03  0.13675013069E+03  0.00000000000E+00 0. -1.
         21   -1    0    0  502  503 -0.00000000000E+00 -0.00000000000E+00 -0.42392480246E+03  0.42392480246E+03  0.00000000000E+00 0. -1.
          6    1    1    2  501    0  0.33380750342E+02  0.13566973378E+03 -0.36101991637E+02  0.22528405393E+03  0.17300000000E+03 0. -1.
         -6    1    1    2    0  503 -0.33380750342E+02 -0.13566973378E+03 -0.25107268012E+03  0.33539087922E+03  0.17300000000E+03 0. -1.
<mgrwt>
<rscale>  2 0.22237255E+03</rscale>
<asrwt>0</asrwt>
<pdfrwt beam="1">  1       21 0.21038482E-01 0.22237255E+03</pdfrwt>
<pdfrwt beam="2">  1       21 0.65219199E-01 0.22237255E+03</pdfrwt>
<totfact> 0.44770441E+04</totfact>
</mgrwt>
</event>
<event>
 4    1  0.4336176E+000  0.1803159E+03  0.7546771E-02  0.1167498E+00
         21   -1    0    0  503  502  0.00000000000E+00  0.00000000000E+00  0.52412273076E+03  0.52412273076E+03  0.00000000000E+00 0.  1.
         21   -1    0    0  501  503 -0.00000000000E+00 -0.00000000000E+00 -0.10345362323E+03  0.10345362323E+03  0.00000000000E+00 0.  1.
          6    1    1    2  501    0 -0.81092157121E+00 -0.50834540202E+02  0.11787700480E+02  0.18070074143E+03  0.17300000000E+03 0.  1.
         -6    1    1    2    0  502  0.81092157121E+00  0.50834540202E+02  0.40888140705E+03  0.44687561256E+03  0.17300000000E+03 0.  1.
<mgrwt>
<rscale>  2 0.18031586E+03</rscale>
<asrwt>0</asrwt>
<pdfrwt beam="1">  1       21 0.80634265E-01 0.18031586E+03</pdfrwt>
<pdfrwt beam="2">  1       21 0.15915942E-01 0.18031586E+03</pdfrwt>
<totfact> 0.47851727E+04</totfact>
</mgrwt>
</event>
<event>
 4    1  0.4336176E+000  0.2487410E+03  0.7546771E-02  0.1114103E+00
         21   -1    0    0  501  502  0.00000000000E+00  0.00000000000E+00  0.99592086257E+02  0.99592086257E+02  0.00000000000E+00 0. -1.
         21   -1    0    0  502  503 -0.00000000000E+00 -0.00000000000E+00 -0.72271896039E+03  0.72271896039E+03  0.00000000000E+00 0. -1.
          6    1    1    2  501    0 -0.69604838091E+02  0.16461549128E+03 -0.15750799177E+03  0.29441613564E+03  0.17300000000E+03 0. -1.
         -6    1    1    2    0  503  0.69604838091E+02 -0.16461549128E+03 -0.46561888236E+03  0.52789491101E+03  0.17300000000E+03 0. -1.
<mgrwt>
<rscale>  2 0.24874102E+03</rscale>
<asrwt>0</asrwt>
<pdfrwt beam="1">  1       21 0.15321860E-01 0.24874102E+03</pdfrwt>
<pdfrwt beam="2">  1       21 0.11118753E+00 0.24874102E+03</pdfrwt>
<totfact> 0.23275566E+04</totfact>
</mgrwt>
</event>
<event>
 4    1  0.4336176E+000  0.1881278E+03  0.7546771E-02  0.1160161E+00
         21   -1    0    0  503  502  0.00000000000E+00  0.00000000000E+00  0.94428051544E+02  0.94428051544E+02  0.00000000000E+00 0. -1.
         21   -1    0    0  501  503 -0.00000000000E+00 -0.00000000000E+00 -0.46460924219E+03  0.46460924219E+03  0.00000000000E+00 0. -1.
          6    1    1    2  501    0  0.66719448915E+02  0.31805652814E+02 -0.30798039555E+03  0.36089334776E+03  0.17300000000E+03 0. -1.
         -6    1    1    2    0  502 -0.66719448915E+02 -0.31805652814E+02 -0.62200795090E+02  0.19814394597E+03  0.17300000000E+03 0. -1.
<mgrwt>
<rscale>  2 0.18812784E+03</rscale>
<asrwt>0</asrwt>
<pdfrwt beam="1">  1       21 0.14527393E-01 0.18812784E+03</pdfrwt>
<pdfrwt beam="2">  1       21 0.71478345E-01 0.18812784E+03</pdfrwt>
<totfact> 0.73710615E+04</totfact>
</mgrwt>
</event>
<event>
 4    1  0.4336176E+000  0.2254385E+03  0.7546771E-02  0.1129892E+00
         21   -1    0    0  503  502  0.00000000000E+00  0.00000000000E+00  0.23407211174E+04  0.23407211174E+04  0.00000000000E+00 0.  1.
         21   -1    0    0  501  503 -0.00000000000E+00 -0.00000000000E+00 -0.23850085496E+02  0.23850085496E+02  0.00000000000E+00 0. -1.
          6    1    1    2  501    0 -0.26171844779E+02 -0.14215672557E+03  0.80447334681E+03  0.83546386266E+03  0.17300000000E+03 0.  1.
         -6    1    1    2    0  502  0.26171844779E+02  0.14215672557E+03  0.15123976851E+04  0.15291073402E+04  0.17300000000E+03 0.  1.
<mgrwt>
<rscale>  2 0.22543846E+03</rscale>
<asrwt>0</asrwt>
<pdfrwt beam="1">  1       21 0.36011076E+00 0.22543846E+03</pdfrwt>
<pdfrwt beam="2">  1       21 0.36692458E-02 0.22543846E+03</pdfrwt>
<totfact> 0.66353520E+03</totfact>
</mgrwt>
</event>
<event>
 4    1  0.4336176E+000  0.3778716E+03  0.7546771E-02  0.1051723E+00
         21   -1    0    0  501  502  0.00000000000E+00  0.00000000000E+00  0.28661415839E+03  0.28661415839E+03  0.00000000000E+00 0.  1.
         21   -1    0    0  502  503 -0.00000000000E+00 -0.00000000000E+00 -0.10934711151E+04  0.10934711151E+04  0.00000000000E+00 0. -1.
          6    1    1    2  501    0  0.28817315138E+03  0.17266788817E+03  0.10570895616E+03  0.39237908736E+03  0.17300000000E+03 0.  1.
         -6    1    1    2    0  503 -0.28817315138E+03 -0.17266788817E+03 -0.91256591292E+03  0.98770618618E+03  0.17300000000E+03 0. -1.
<mgrwt>
<rscale>  2 0.37787162E+03</rscale>
<asrwt>0</asrwt>
<pdfrwt beam="1">  1       21 0.44094485E-01 0.37787162E+03</pdfrwt>
<pdfrwt beam="2">  1       21 0.16822633E+00 0.37787162E+03</pdfrwt>
<totfact> 0.94379545E+02</totfact>
</mgrwt>
</event>
<event>
 4    1  0.4336176E+000  0.1807596E+03  0.7546771E-02  0.1167070E+00
         21   -1    0    0  503  502  0.00000000000E+00  0.00000000000E+00  0.81219395269E+02  0.81219395269E+02  0.00000000000E+00 0.  1.
         21   -1    0    0  501  503 -0.00000000000E+00 -0.00000000000E+00 -0.72015588435E+03  0.72015588435E+03  0.00000000000E+00 0.  1.
          6    1    1    2  501    0 -0.49702826219E+02 -0.16573471382E+02 -0.58567073975E+03  0.61293088215E+03  0.17300000000E+03 0.  1.
         -6    1    1    2    0  502  0.49702826219E+02  0.16573471382E+02 -0.53265749332E+02  0.18844439748E+03  0.17300000000E+03 0.  1.
<mgrwt>
<rscale>  2 0.18075965E+03</rscale>
<asrwt>0</asrwt>
<pdfrwt beam="1">  1       21 0.12495292E-01 0.18075965E+03</pdfrwt>
<pdfrwt beam="2">  1       21 0.11079321E+00 0.18075965E+03</pdfrwt>
<totfact> 0.35263281E+04</totfact>
</mgrwt>
</event>
<event>
 4    1  0.4336176E+000  0.1944230E+03  0.7546771E-02  0.1154532E+00
         21   -1    0    0  501  502  0.00000000000E+00  0.00000000000E+00  0.54110135173E+03  0.54110135173E+03  0.00000000000E+00 0.  1.
         21   -1    0    0  502  503 -0.00000000000E+00 -0.00000000000E+00 -0.16532566047E+03  0.16532566047E+03  0.00000000000E+00 0.  1.
          6    1    1    2  501    0  0.22729863963E+02  0.85759248671E+02  0.45629565773E+03  0.49598994215E+03  0.17300000000E+03 0.  1.
         -6    1    1    2    0  503 -0.22729863963E+02 -0.85759248671E+02 -0.80519966472E+02  0.21043707004E+03  0.17300000000E+03 0.  1.
<mgrwt>
<rscale>  2 0.19442298E+03</rscale>
<asrwt>0</asrwt>
<pdfrwt beam="1">  1       21 0.83246361E-01 0.19442298E+03</pdfrwt>
<pdfrwt beam="2">  1       21 0.25434717E-01 0.19442298E+03</pdfrwt>
<totfact> 0.18398136E+04</totfact>
</mgrwt>
</event>
<event>
 4    1  0.4336176E+000  0.1807433E+03  0.7546771E-02  0.1167086E+00
         21   -1    0    0  503  502  0.00000000000E+00  0.00000000000E+00  0.92223401520E+02  0.92223401520E+02  0.00000000000E+00 0. -1.
         21   -1    0    0  501  503 -0.00000000000E+00 -0.00000000000E+00 -0.35749792246E+03  0.35749792246E+03  0.00000000000E+00 0. -1.
          6    1    1    2  501    0  0.28665503041E+02  0.43788534879E+02 -0.15414128202E+03  0.23754511503E+03  0.17300000000E+03 0. -1.
         -6    1    1    2    0  502 -0.28665503041E+02 -0.43788534879E+02 -0.11113323892E+03  0.21217620895E+03  0.17300000000E+03 0. -1.
<mgrwt>
<rscale>  2 0.18074332E+03</rscale>
<asrwt>0</asrwt>
<pdfrwt beam="1">  1       21 0.14188216E-01 0.18074332E+03</pdfrwt>
<pdfrwt beam="2">  1       21 0.54999680E-01 0.18074332E+03</pdfrwt>
<totfact> 0.13592714E+05</totfact>
</mgrwt>
</event>
<event>
 4    1  0.4336176E+000  0.2256780E+03  0.7546771E-02  0.1129719E+00
         21   -1    0    0  501  502  0.00000000000E+00  0.00000000000E+00  0.24458615266E+03  0.24458615266E+03  0.00000000000E+00 0.  1.
         21   -1    0    0  502  503 -0.00000000000E+00 -0.00000000000E+00 -0.22570279713E+03  0.22570279713E+03  0.00000000000E+00 0.  1.
          6    1    1    2  501    0  0.14457678612E+03 -0.99545280073E+01 -0.55981098689E+02  0.23251757595E+03  0.17300000000E+03 0.  1.
         -6    1    1    2    0  503 -0.14457678612E+03  0.99545280073E+01  0.74864454212E+02  0.23777137384E+03  0.17300000000E+03 0.  1.
<mgrwt>
<rscale>  2 0.22567796E+03</rscale>
<asrwt>0</asrwt>
<pdfrwt beam="1">  1       21 0.37628639E-01 0.22567796E+03</pdfrwt>
<pdfrwt beam="2">  1       21 0.34723507E-01 0.22567796E+03</pdfrwt>
<totfact> 0.53631737E+04</totfact>
</mgrwt>
</event>
<event>
 4    1  0.4336176E+000  0.2131410E+03  0.7546771E-02  0.1139103E+00
         21   -1    0    0  503  502  0.00000000000E+00  0.00000000000E+00  0.18911663718E+04  0.18911663718E+04  0.00000000000E+00 0.  1.
         21   -1    0    0  501  503 -0.00000000000E+00 -0.00000000000E+00 -0.54715210690E+02  0.54715210690E+02  0.00000000000E+00 0. -1.
          6    1    1    2  501    0 -0.68020697379E+02  0.10427492994E+03  0.18951430741E+03  0.28521000859E+03  0.17300000000E+03 0. -1.
         -6    1    1    2    0  502  0.68020697379E+02 -0.10427492994E+03  0.16469368537E+04  0.16606715739E+04  0.17300000000E+03 0.  1.
<mgrwt>
<rscale>  2 0.21314098E+03</rscale>
<asrwt>0</asrwt>
<pdfrwt beam="1">  1       21 0.29094862E+00 0.21314098E+03</pdfrwt>
<pdfrwt beam="2">  1       21 0.84177262E-02 0.21314098E+03</pdfrwt>
<totfact> 0.41310315E+03</totfact>
</mgrwt>
</event>
<event>
 4    1  0.4336176E+000  0.2687405E+03  0.7546771E-02  0.1102003E+00
         21   -1    0    0  501  502  0.00000000000E+00  0.00000000000E+00  0.58028214254E+03  0.58028214254E+03  0.00000000000E+00 0. -1.
         21   -1    0    0  502  503 -0.00000000000E+00 -0.00000000000E+00 -0.26031070411E+03  0.26031070411E+03  0.00000000000E+00 0. -1.
          6    1    1    2  501    0  0.19878760204E+03  0.52687372901E+02  0.46361374426E+03  0.53587234847E+03  0.17300000000E+03 0. -1.
         -6    1    1    2    0  503 -0.19878760204E+03 -0.52687372901E+02 -0.14364230584E+03  0.30472049818E+03  0.17300000000E+03 0. -1.
<mgrwt>
<rscale>  2 0.26874053E+03</rscale>
<asrwt>0</asrwt>
<pdfrwt beam="1">  1       21 0.89274175E-01 0.26874053E+03</pdfrwt>
<pdfrwt beam="2">  1       21 0.40047801E-01 0.26874053E+03</pdfrwt>
<totfact> 0.61179146E+03</totfact>
</mgrwt>
</event>
<event>
 4    1  0.4336176E+000  0.1955513E+03  0.7546771E-02  0.1153548E+00
         21   -1    0    0  501  502  0.00000000000E+00  0.00000000000E+00  0.97827521705E+02  0.97827521705E+02  0.00000000000E+00 0. -1.
         21   -1    0    0  502  503 -0.00000000000E+00 -0.00000000000E+00 -0.66588940425E+03  0.66588940425E+03  0.00000000000E+00 0. -1.
          6    1    1    2  501    0  0.64698671043E+02  0.64229307253E+02 -0.38637454715E+02  0.19933182097E+03  0.17300000000E+03 0. -1.
         -6    1    1    2    0  503 -0.64698671043E+02 -0.64229307253E+02 -0.52942442783E+03  0.56438510499E+03  0.17300000000E+03 0. -1.
<mgrwt>
<rscale>  2 0.19555133E+03</rscale>
<asrwt>0</asrwt>
<pdfrwt beam="1">  1       21 0.15050388E-01 0.19555133E+03</pdfrwt>
<pdfrwt beam="2">  1       21 0.10244452E+00 0.19555133E+03</pdfrwt>
<totfact> 0.30168686E+04</totfact>
</mgrwt>
</event>
<event>
 4    1  0.4336176E+000  0.2064468E+03  0.7546771E-02  0.1144411E+00
         21   -1    0    0  503  502  0.00000000000E+00  0.00000000000E+00  0.77109731088E+03  0.77109731088E+03  0.00000000000E+00 0.  1.
         21   -1    0    0  501  503 -0.00000000000E+00 -0.00000000000E+00 -0.16168809675E+03  0.16168809675E+03  0.00000000000E+00 0. -1.
          6    1    1    2  501    0 -0.60539466690E+02 -0.95006576155E+02 -0.73664694941E+02  0.21919572035E+03  0.17300000000E+03 0. -1.
         -6    1    1    2    0  502  0.60539466690E+02  0.95006576155E+02  0.68307390907E+03  0.71358968728E+03  0.17300000000E+03 0.  1.
<mgrwt>
<rscale>  2 0.20644679E+03</rscale>
<asrwt>0</asrwt>
<pdfrwt beam="1">  1       21 0.11863035E+00 0.20644679E+03</pdfrwt>
<pdfrwt beam="2">  1       21 0.24875092E-01 0.20644679E+03</pdfrwt>
<totfact> 0.82245154E+03</totfact>
</mgrwt>
</event>
<event>
 4    1  0.4336176E+000  0.1896899E+03  0.7546771E-02  0.1158741E+00
         21   -1    0    0  501  502  0.00000000000E+00  0.00000000000E+00  0.27883081849E+03  0.27883081849E+03  0.00000000000E+00 0.  1.
         21   -1    0    0  502  503 -0.00000000000E+00 -0.00000000000E+00 -0.23680481502E+03  0.23680481502E+03  0.00000000000E+00 0.  1.
          6    1    1    2  501    0  0.33778031680E+02  0.70087890990E+02  0.19493004462E+03  0.27199262891E+03  0.17300000000E+03 0.  1.
         -6    1    1    2    0  503 -0.33778031680E+02 -0.70087890990E+02 -0.15290404115E+03  0.24364300459E+03  0.17300000000E+03 0.  1.
<mgrwt>
<rscale>  2 0.18968993E+03</rscale>
<asrwt>0</asrwt>
<pdfrwt beam="1">  1       21 0.42897049E-01 0.18968993E+03</pdfrwt>
<pdfrwt beam="2">  1       21 0.36431510E-01 0.18968993E+03</pdfrwt>
<totfact> 0.38032520E+04</totfact>
</mgrwt>
</event>
<event>
 4    1  0.4336176E+000  0.1800773E+03  0.7546771E-02  0.1167728E+00
         21   -1    0    0  501  502  0.00000000000E+00  0.00000000000E+00  0.20249096265E+02  0.20249096265E+02  0.00000000000E+00 0. -1.
         21   -1    0    0  502  503 -0.00000000000E+00 -0.00000000000E+00 -0.16329790115E+04  0.16329790115E+04  0.00000000000E+00 0. -1.
          6    1    1    2  501    0 -0.43255134709E+02 -0.25056385815E+02 -0.69149752054E+03  0.71456045934E+03  0.17300000000E+03 0.  1.
         -6    1    1    2    0  503  0.43255134709E+02  0.25056385815E+02 -0.92123239467E+03  0.93866764839E+03  0.17300000000E+03 0.  1.
<mgrwt>
<rscale>  2 0.18007729E+03</rscale>
<asrwt>0</asrwt>
<pdfrwt beam="1">  1       21 0.31152453E-02 0.18007729E+03</pdfrwt>
<pdfrwt beam="2">  1       21 0.25122757E+00 0.18007729E+03</pdfrwt>
<totfact> 0.39276642E+04</totfact>
</mgrwt>
</event>
<event>
 4    1  0.4336176E+000  0.1756146E+03  0.7546771E-02  0.1172116E+00
         21   -1    0    0  503  502  0.00000000000E+00  0.00000000000E+00  0.50371265985E+02  0.50371265985E+02  0.00000000000E+00 0. -1.
         21   -1    0    0  501  503 -0.00000000000E+00 -0.00000000000E+00 -0.61567798542E+03  0.61567798542E+03  0.00000000000E+00 0. -1.
          6    1    1    2  501    0 -0.21021430693E+02  0.21670303192E+02 -0.30745287870E+03  0.35407312127E+03  0.17300000000E+03 0. -1.
         -6    1    1    2    0  502  0.21021430693E+02 -0.21670303192E+02 -0.25785384074E+03  0.31197613013E+03  0.17300000000E+03 0. -1.
<mgrwt>
<rscale>  2 0.17561464E+03</rscale>
<asrwt>0</asrwt>
<pdfrwt beam="1">  1       21 0.77494257E-02 0.17561464E+03</pdfrwt>
<pdfrwt beam="2">  1       21 0.94719689E-01 0.17561464E+03</pdfrwt>
<totfact> 0.11908796E+05</totfact>
</mgrwt>
</event>
<event>
 4    1  0.4336176E+000  0.1893438E+03  0.7546771E-02  0.1159055E+00
         21   -1    0    0  503  502  0.00000000000E+00  0.00000000000E+00  0.35242631752E+03  0.35242631752E+03  0.00000000000E+00 0. -1.
         21   -1    0    0  501  503 -0.00000000000E+00 -0.00000000000E+00 -0.10292313755E+03  0.10292313755E+03  0.00000000000E+00 0. -1.
          6    1    1    2  501    0 -0.25285035773E+02 -0.72682447044E+02  0.14930163660E+03  0.24112662614E+03  0.17300000000E+03 0. -1.
         -6    1    1    2    0  502  0.25285035773E+02  0.72682447044E+02  0.10020154337E+03  0.21422282893E+03  0.17300000000E+03 0. -1.
<mgrwt>
<rscale>  2 0.18934379E+03</rscale>
<asrwt>0</asrwt>
<pdfrwt beam="1">  1       21 0.54219433E-01 0.18934379E+03</pdfrwt>
<pdfrwt beam="2">  1       21 0.15834329E-01 0.18934379E+03</pdfrwt>
<totfact> 0.11438979E+05</totfact>
</mgrwt>
</event>
<event>
 4    1  0.4336176E+000  0.1999921E+03  0.7546771E-02  0.1149746E+00
         21   -1    0    0  501  502  0.00000000000E+00  0.00000000000E+00  0.44169076430E+03  0.44169076430E+03  0.00000000000E+00 0. -1.
         21   -1    0    0  502  503 -0.00000000000E+00 -0.00000000000E+00 -0.96304330456E+02  0.96304330456E+02  0.00000000000E+00 0.  1.
          6    1    1    2  501    0  0.98213186869E+02 -0.20543229630E+02  0.23842459897E+03  0.31119631064E+03  0.17300000000E+03 0.  1.
         -6    1    1    2    0  503 -0.98213186869E+02  0.20543229630E+02  0.10696183487E+03  0.22679878412E+03  0.17300000000E+03 0.  1.
<mgrwt>
<rscale>  2 0.19999214E+03</rscale>
<asrwt>0</asrwt>
<pdfrwt beam="1">  1       21 0.67952424E-01 0.19999214E+03</pdfrwt>
<pdfrwt beam="2">  1       21 0.14816051E-01 0.19999214E+03</pdfrwt>
<totfact> 0.79096594E+04</totfact>
</mgrwt>
</event>
<event>
 4    1  0.4336176E+000  0.2220882E+03  0.7546771E-02  0.1132336E+00
         21   -1    0    0  503  502  0.00000000000E+00  0.00000000000E+00  0.38020663329E+03  0.38020663329E+03  0.00000000000E+00 0.  1.
         21   -1    0    0  501  503 -0.00000000000E+00 -0.00000000000E+00 -0.15505131187E+03  0.15505131187E+03  0.00000000000E+00 0. -1.
          6    1    1    2  501    0 -0.13705756609E+03  0.24685475093E+02  0.44187375202E+01  0.22213211012E+03  0.17300000000E+03 0. -1.
         -6    1    1    2    0  502  0.13705756609E+03 -0.24685475093E+02  0.22073658390E+03  0.31312583505E+03  0.17300000000E+03 0.  1.
<mgrwt>
<rscale>  2 0.22208816E+03</rscale>
<asrwt>0</asrwt>
<pdfrwt beam="1">  1       21 0.58493328E-01 0.22208816E+03</pdfrwt>
<pdfrwt beam="2">  1       21 0.23854048E-01 0.22208816E+03</pdfrwt>
<totfact> 0.44675254E+04</totfact>
</mgrwt>
</event>
<event>
 4    1  0.4336176E+000  0.1842433E+03  0.7546771E-02  0.1163758E+00
         21   -1    0    0  501  502  0.00000000000E+00  0.00000000000E+00  0.27860074579E+03  0.27860074579E+03  0.00000000000E+00 0. -1.
         21   -1    0    0  502  503 -0.00000000000E+00 -0.00000000000E+00 -0.32113033094E+03  0.32113033094E+03  0.00000000000E+00 0. -1.
          6    1    1    2  501    0  0.70386885535E+01 -0.62984541285E+02  0.21496004780E+03  0.28311378936E+03  0.17300000000E+03 0. -1.
         -6    1    1    2    0  503 -0.70386885535E+01  0.62984541285E+02 -0.25748963295E+03  0.31661728736E+03  0.17300000000E+03 0. -1.
<mgrwt>
<rscale>  2 0.18424331E+03</rscale>
<asrwt>0</asrwt>
<pdfrwt beam="1">  1       21 0.42861653E-01 0.18424331E+03</pdfrwt>
<pdfrwt beam="2">  1       21 0.49404666E-01 0.18424331E+03</pdfrwt>
<totfact> 0.20553572E+04</totfact>
</mgrwt>
</event>
<event>
 4    1  0.4336176E+000  0.2105082E+03  0.7546771E-02  0.1141164E+00
         21   -1    0    0  503  502  0.00000000000E+00  0.00000000000E+00  0.27738824025E+03  0.27738824025E+03  0.00000000000E+00 0. -1.
         21   -1    0    0  501  503 -0.00000000000E+00 -0.00000000000E+00 -0.16095190812E+03  0.16095190812E+03  0.00000000000E+00 0.  1.
          6    1    1    2  501    0 -0.25821188614E+02  0.11712377491E+03  0.77130931298E+02  0.22419387367E+03  0.17300000000E+03 0. -1.
         -6    1    1    2    0  502  0.25821188614E+02 -0.11712377491E+03  0.39305400829E+02  0.21414627469E+03  0.17300000000E+03 0. -1.
<mgrwt>
<rscale>  2 0.21050822E+03</rscale>
<asrwt>0</asrwt>
<pdfrwt beam="1">  1       21 0.42675114E-01 0.21050822E+03</pdfrwt>
<pdfrwt beam="2">  1       21 0.24761832E-01 0.21050822E+03</pdfrwt>
<totfact> 0.80862490E+04</totfact>
</mgrwt>
</event>
<event>
 4    1  0.4336176E+000  0.1822394E+03  0.7546771E-02  0.1165653E+00
         21   -1    0    0  501  502  0.00000000000E+00  0.00000000000E+00  0.46971713958E+02  0.46971713958E+02  0.00000000000E+00 0. -1.
         21   -1    0    0  502  503 -0.00000000000E+00 -0.00000000000E+00 -0.10560629953E+04  0.10560629953E+04  0.00000000000E+00 0. -1.
          6    1    1    2  501    0  0.47364600235E+02 -0.32230310465E+02 -0.18748883204E+03  0.26146368851E+03  0.17300000000E+03 0. -1.
         -6    1    1    2    0  503 -0.47364600235E+02  0.32230310465E+02 -0.82160244928E+03  0.84157102073E+03  0.17300000000E+03 0. -1.
<mgrwt>
<rscale>  2 0.18223940E+03</rscale>
<asrwt>0</asrwt>
<pdfrwt beam="1">  1       21 0.72264176E-02 0.18223940E+03</pdfrwt>
<pdfrwt beam="2">  1       21 0.16247123E+00 0.18223940E+03</pdfrwt>
<totfact> 0.34797561E+04</totfact>
</mgrwt>
</event>
<event>
 4    1  0.4336176E+000  0.1903290E+03  0.7546771E-02  0.1158165E+00
         21   -1    0    0  501  502  0.00000000000E+00  0.00000000000E+00  0.13741511451E+04  0.13741511451E+04  0.00000000000E+00 0.  1.
         21   -1    0    0  502  503 -0.00000000000E+00 -0.00000000000E+00 -0.41651501224E+02  0.41651501224E+02  0.00000000000E+00 0.  1.
          6    1    1    2  501    0 -0.76096676596E+02 -0.22481788274E+02  0.23734936577E+03  0.30423651396E+03  0.17300000000E+03 0.  1.
         -6    1    1    2    0  503  0.76096676596E+02  0.22481788274E+02  0.10951502781E+04  0.11115661324E+04  0.17300000000E+03 0.  1.
<mgrwt>
<rscale>  2 0.19032902E+03</rscale>
<asrwt>0</asrwt>
<pdfrwt beam="1">  1       21 0.21140783E+00 0.19032902E+03</pdfrwt>
<pdfrwt beam="2">  1       21 0.64079243E-02 0.19032902E+03</pdfrwt>
<totfact> 0.20065945E+04</totfact>
</mgrwt>
</event>
<event>
 4    1  0.4336176E+000  0.1930431E+03  0.7546771E-02  0.1155745E+00
         21   -1    0    0  503  502  0.00000000000E+00  0.00000000000E+00  0.98857889594E+02  0.98857889594E+02  0.00000000000E+00 0.  1.
         21   -1    0    0  501  503 -0.00000000000E+00 -0.00000000000E+00 -0.39701563883E+03  0.39701563883E+03  0.00000000000E+00 0. -1.
          6    1    1    2  501    0 -0.82048677325E+02 -0.24589410081E+02 -0.93355366201E+02  0.21443145510E+03  0.17300000000E+03 0.  1.
         -6    1    1    2    0  502  0.82048677325E+02  0.24589410081E+02 -0.20480238304E+03  0.28144207333E+03  0.17300000000E+03 0. -1.
<mgrwt>
<rscale>  2 0.19304306E+03</rscale>
<asrwt>0</asrwt>
<pdfrwt beam="1">  1       21 0.15208907E-01 0.19304306E+03</pdfrwt>
<pdfrwt beam="2">  1       21 0.61079327E-01 0.19304306E+03</pdfrwt>
<totfact> 0.95382801E+04</totfact>
</mgrwt>
</event>
<event>
 4    1  0.4336176E+000  0.2201285E+03  0.7546771E-02  0.1133787E+00
         21   -1    0    0  503  502  0.00000000000E+00  0.00000000000E+00  0.35360724594E+03  0.35360724594E+03  0.00000000000E+00 0.  1.
         21   -1    0    0  501  503 -0.00000000000E+00 -0.00000000000E+00 -0.13723862049E+03  0.13723862049E+03  0.00000000000E+00 0.  1.
          6    1    1    2  501    0  0.11119308309E+03 -0.78508932120E+02  0.11763867689E+03  0.24959048950E+03  0.17300000000E+03 0.  1.
         -6    1    1    2    0  502 -0.11119308309E+03  0.78508932120E+02  0.98729948564E+02  0.24125537692E+03  0.17300000000E+03 0.  1.
<mgrwt>
<rscale>  2 0.22012849E+03</rscale>
<asrwt>0</asrwt>
<pdfrwt beam="1">  1       21 0.54401115E-01 0.22012849E+03</pdfrwt>
<pdfrwt beam="2">  1       21 0.21113634E-01 0.22012849E+03</pdfrwt>
<totfact> 0.65769074E+04</totfact>
</mgrwt>
</event>
<event>
 4    1  0.4336176E+000  0.2153011E+03  0.7546771E-02  0.1137436E+00
         21   -1    0    0  503  502  0.00000000000E+00  0.00000000000E+00  0.29249587715E+03  0.29249587715E+03  0.00000000000E+00 0. -1.
         21   -1    0    0  501  503 -0.00000000000E+00 -0.00000000000E+00 -0.17418530277E+03  0.17418530277E+03  0.00000000000E+00 0. -1.
          6    1    1    2  501    0 -0.12143561486E+03  0.40975126843E+02  0.12922269691E+03  0.25110371358E+03  0.17300000000E+03 0. -1.
         -6    1    1    2    0  502  0.12143561486E+03 -0.40975126843E+02 -0.10912122532E+02  0.21557746634E+03  0.17300000000E+03 0. -1.
<mgrwt>
<rscale>  2 0.21530111E+03</rscale>
<asrwt>0</asrwt>
<pdfrwt beam="1">  1       21 0.44999366E-01 0.21530111E+03</pdfrwt>
<pdfrwt beam="2">  1       21 0.26797739E-01 0.21530111E+03</pdfrwt>
<totfact> 0.62194433E+04</totfact>
</mgrwt>
</event>
<event>
 4    1  0.4336176E+000  0.4324935E+03  0.7546771E-02  0.1033075E+00
         21   -1    0    0  503  502  0.00000000000E+00  0.00000000000E+00  0.30285734569E+03  0.30285734569E+03  0.00000000000E+00 0. -1.
         21   -1    0    0  501  503 -0.00000000000E+00 -0.00000000000E+00 -0.82145214893E+03  0.82145214893E+03  0.00000000000E+00 0.  1.
          6    1    1    2  501    0 -0.17435060572E+03  0.35598243514E+03 -0.53932544912E+03  0.69131943985E+03  0.17300000000E+03 0.  1.
         -6    1    1    2    0  502  0.17435060572E+03 -0.35598243514E+03  0.20730645879E+02  0.43299005476E+03  0.17300000000E+03 0.  1.
<mgrwt>
<rscale>  2 0.43249350E+03</rscale>
<asrwt>0</asrwt>
<pdfrwt beam="1">  1       21 0.46593438E-01 0.43249350E+03</pdfrwt>
<pdfrwt beam="2">  1       21 0.12637725E+00 0.43249350E+03</pdfrwt>
<totfact> 0.17679526E+03</totfact>
</mgrwt>
</event>
<event>
 4    1  0.4336176E+000  0.2138953E+03  0.7546771E-02  0.1138518E+00
         21   -1    0    0  501  502  0.00000000000E+00  0.00000000000E+00  0.94143003866E+03  0.94143003866E+03  0.00000000000E+00 0. -1.
         21   -1    0    0  502  503 -0.00000000000E+00 -0.00000000000E+00 -0.53044230655E+02  0.53044230655E+02  0.00000000000E+00 0.  1.
          6    1    1    2  501    0 -0.84406150111E+02 -0.93261973094E+02  0.58815972873E+03  0.62584587584E+03  0.17300000000E+03 0. -1.
         -6    1    1    2    0  503  0.84406150111E+02  0.93261973094E+02  0.30022607928E+03  0.36862839348E+03  0.17300000000E+03 0.  1.
<mgrwt>
<rscale>  2 0.21389529E+03</rscale>
<asrwt>0</asrwt>
<pdfrwt beam="1">  1       21 0.14483538E+00 0.21389529E+03</pdfrwt>
<pdfrwt beam="2">  1       21 0.81606515E-02 0.21389529E+03</pdfrwt>
<totfact> 0.37511091E+04</totfact>
</mgrwt>
</event>
<event>
 4    1  0.4336176E+000  0.2134490E+03  0.7546771E-02  0.1138863E+00
         21   -1    0    0  501  502  0.00000000000E+00  0.00000000000E+00  0.13654371745E+03  0.13654371745E+03  0.00000000000E+00 0.  1.
         21   -1    0    0  502  503 -0.00000000000E+00 -0.00000000000E+00 -0.33560928431E+03  0.33560928431E+03  0.00000000000E+00 0.  1.
          6    1    1    2  501    0 -0.11093927973E+03  0.57653773437E+02 -0.11748038383E+03  0.24364343202E+03  0.17300000000E+03 0.  1.
         -6    1    1    2    0  503  0.11093927973E+03 -0.57653773437E+02 -0.81585183027E+02  0.22850956975E+03  0.17300000000E+03 0.  1.
<mgrwt>
<rscale>  2 0.21344901E+03</rscale>
<asrwt>0</asrwt>
<pdfrwt beam="1">  1       21 0.21006726E-01 0.21344901E+03</pdfrwt>
<pdfrwt beam="2">  1       21 0.51632197E-01 0.21344901E+03</pdfrwt>
<totfact> 0.74345046E+04</totfact>
</mgrwt>
</event>
<event>
 4    1  0.4336176E+000  0.2438134E+03  0.7546771E-02  0.1117278E+00
         21   -1    0    0  501  502  0.00000000000E+00  0.00000000000E+00  0.69518002073E+03  0.69518002073E+03  0.00000000000E+00 0. -1.
         21   -1    0    0  502  503 -0.00000000000E+00 -0.00000000000E+00 -0.90812299202E+02  0.90812299202E+02  0.00000000000E+00 0.  1.
          6    1    1    2  501    0 -0.88270875300E+02  0.14739147562E+03  0.39714353028E+03  0.46601285192E+03  0.17300000000E+03 0. -1.
         -6    1    1    2    0  503  0.88270875300E+02 -0.14739147562E+03  0.20722419126E+03  0.31997946802E+03  0.17300000000E+03 0.  1.
<mgrwt>
<rscale>  2 0.24381344E+03</rscale>
<asrwt>0</asrwt>
<pdfrwt beam="1">  1       21 0.10695077E+00 0.24381344E+03</pdfrwt>
<pdfrwt beam="2">  1       21 0.13971123E-01 0.24381344E+03</pdfrwt>
<totfact> 0.30357774E+04</totfact>
</mgrwt>
</event>
<event>
 4    1  0.4336176E+000  0.1737639E+03  0.7546771E-02  0.1173979E+00
         21   -1    0    0  503  502  0.00000000000E+00  0.00000000000E+00  0.11249673878E+04  0.11249673878E+04  0.00000000000E+00 0. -1.
         21   -1    0    0  501  503 -0.00000000000E+00 -0.00000000000E+00 -0.27084303745E+02  0.27084303745E+02  0.00000000000E+00 0. -1.
          6    1    1    2  501    0  0.22773024341E+01  0.16115284940E+02  0.49421037413E+03  0.52386809639E+03  0.17300000000E+03 0. -1.
         -6    1    1    2    0  502 -0.22773024341E+01 -0.16115284940E+02  0.60367270990E+03  0.62818359513E+03  0.17300000000E+03 0. -1.
<mgrwt>
<rscale>  2 0.17376389E+03</rscale>
<asrwt>0</asrwt>
<pdfrwt beam="1">  1       21 0.17307187E+00 0.17376389E+03</pdfrwt>
<pdfrwt beam="2">  1       21 0.41668168E-02 0.17376389E+03</pdfrwt>
<totfact> 0.75098530E+04</totfact>
</mgrwt>
</event>
<event>
 4    1  0.4336176E+000  0.2339273E+03  0.7546771E-02  0.1123906E+00
         21   -1    0    0  503  502  0.00000000000E+00  0.00000000000E+00  0.58538805708E+03  0.58538805708E+03  0.00000000000E+00 0.  1.
         21   -1    0    0  501  503 -0.00000000000E+00 -0.00000000000E+00 -0.18090629345E+03  0.18090629345E+03  0.00000000000E+00 0.  1.
          6    1    1    2  501    0 -0.13784205100E+03  0.76108728585E+02 -0.64113762094E+02  0.24255420854E+03  0.17300000000E+03 0.  1.
         -6    1    1    2    0  502  0.13784205100E+03 -0.76108728585E+02  0.46859552573E+03  0.52374014198E+03  0.17300000000E+03 0.  1.
<mgrwt>
<rscale>  2 0.23392727E+03</rscale>
<asrwt>0</asrwt>
<pdfrwt beam="1">  1       21 0.90059701E-01 0.23392727E+03</pdfrwt>
<pdfrwt beam="2">  1       21 0.27831738E-01 0.23392727E+03</pdfrwt>
<totfact> 0.12597821E+04</totfact>
</mgrwt>
</event>
<event>
 4    1  0.4336176E+000  0.1972024E+03  0.7546771E-02  0.1152121E+00
         21   -1    0    0  503  502  0.00000000000E+00  0.00000000000E+00  0.29316426100E+04  0.29316426100E+04  0.00000000000E+00 0. -1.
         21   -1    0    0  501  503 -0.00000000000E+00 -0.00000000000E+00 -0.13266851224E+02  0.13266851224E+02  0.00000000000E+00 0. -1.
          6    1    1    2  501    0 -0.51764180500E+02  0.79248010545E+02  0.14426795477E+04  0.14560951394E+04  0.17300000000E+03 0. -1.
         -6    1    1    2    0  502  0.51764180500E+02 -0.79248010545E+02  0.14756962111E+04  0.14888143219E+04  0.17300000000E+03 0. -1.
<mgrwt>
<rscale>  2 0.19720238E+03</rscale>
<asrwt>0</asrwt>
<pdfrwt beam="1">  1       21 0.45102143E+00 0.19720238E+03</pdfrwt>
<pdfrwt beam="2">  1       21 0.20410564E-02 0.19720238E+03</pdfrwt>
<totfact> 0.48468393E+03</totfact>
</mgrwt>
</event>
<event>
 4    1  0.4336176E+000  0.2308598E+03  0.7546771E-02  0.1126036E+00
         21   -1    0    0  501  502  0.00000000000E+00  0.00000000000E+00  0.18487536645E+03  0.18487536645E+03  0.00000000000E+00 0. -1.
         21   -1    0    0  502  503 -0.00000000000E+00 -0.00000000000E+00 -0.92153526678E+03  0.92153526678E+03  0.00000000000E+00 0.  1.
          6    1    1    2  501    0 -0.42253928392E+02  0.14690763164E+03  0.90254234435E+02  0.24787511681E+03  0.17300000000E+03 0. -1.
         -6    1    1    2    0  503  0.42253928392E+02 -0.14690763164E+03 -0.82691413476E+03  0.85853551642E+03  0.17300000000E+03 0.  1.
<mgrwt>
<rscale>  2 0.23085980E+03</rscale>
<asrwt>0</asrwt>
<pdfrwt beam="1">  1       21 0.28442364E-01 0.23085980E+03</pdfrwt>
<pdfrwt beam="2">  1       21 0.14177466E+00 0.23085980E+03</pdfrwt>
<totfact> 0.39690380E+03</totfact>
</mgrwt>
</event>
<event>
 4    1  0.4336176E+000  0.2314640E+03  0.7546771E-02  0.1125614E+00
         21   -1    0    0  503  502  0.00000000000E+00  0.00000000000E+00  0.23823298331E+04  0.23823298331E+04  0.00000000000E+00 0.  1.
         21   -1    0    0  501  503 -0.00000000000E+00 -0.00000000000E+00 -0.34019247016E+02  0.34019247016E+02  0.00000000000E+00 0.  1.
          6    1    1    2  501    0  0.10637169637E+02 -0.15340608875E+03  0.47077259412E+03  0.52459738164E+03  0.17300000000E+03 0.  1.
         -6    1    1    2    0  502 -0.10637169637E+02  0.15340608875E+03  0.18775379920E+04  0.18917516985E+04  0.17300000000E+03 0.  1.
<mgrwt>
<rscale>  2 0.23146399E+03</rscale>
<asrwt>0</asrwt>
<pdfrwt beam="1">  1       21 0.36651215E+00 0.23146399E+03</pdfrwt>
<pdfrwt beam="2">  1       21 0.52337322E-02 0.23146399E+03</pdfrwt>
<totfact> 0.33078982E+03</totfact>
</mgrwt>
</event>
<event>
 4    1  0.4336176E+000  0.1783205E+03  0.7546771E-02  0.1169438E+00
         21   -1    0    0  503  502  0.00000000000E+00  0.00000000000E+00  0.19107124829E+03  0.19107124829E+03  0.00000000000E+00 0. -1.
         21   -1    0    0  501  503 -0.00000000000E+00 -0.00000000000E+00 -0.26672664184E+03  0.26672664184E+03  0.00000000000E+00 0. -1.
          6    1    1    2  501    0 -0.43055912418E+02  0.39243247510E+01 -0.17819757108E+03  0.25209638287E+03  0.17300000000E+03 0. -1.
         -6    1    1    2    0  502  0.43055912418E+02 -0.39243247510E+01  0.10254217752E+03  0.20570150726E+03  0.17300000000E+03 0. -1.
<mgrwt>
<rscale>  2 0.17832053E+03</rscale>
<asrwt>0</asrwt>
<pdfrwt beam="1">  1       21 0.29395577E-01 0.17832053E+03</pdfrwt>
<pdfrwt beam="2">  1       21 0.41034868E-01 0.17832053E+03</pdfrwt>
<totfact> 0.63816582E+04</totfact>
</mgrwt>
</event>
<event>
 4    1  0.4336176E+000  0.2065191E+03  0.7546771E-02  0.1144352E+00
         21   -1    0    0  501  502  0.00000000000E+00  0.00000000000E+00  0.84320420710E+03  0.84320420710E+03  0.00000000000E+00 0. -1.
         21   -1    0    0  502  503 -0.00000000000E+00 -0.00000000000E+00 -0.15588129565E+03  0.15588129565E+03  0.00000000000E+00 0. -1.
          6    1    1    2  501    0 -0.37090365055E+02 -0.10651504980E+03  0.75423442918E+03  0.78199726673E+03  0.17300000000E+03 0. -1.
         -6    1    1    2    0  503  0.37090365055E+02  0.10651504980E+03 -0.66911517723E+02  0.21708823602E+03  0.17300000000E+03 0. -1.
<mgrwt>
<rscale>  2 0.20651913E+03</rscale>
<asrwt>0</asrwt>
<pdfrwt beam="1">  1       21 0.12972372E+00 0.20651913E+03</pdfrwt>
<pdfrwt beam="2">  1       21 0.23981738E-01 0.20651913E+03</pdfrwt>
<totfact> 0.70496282E+03</totfact>
</mgrwt>
</event>
<event>
 4    1  0.4336176E+000  0.2435661E+03  0.7546771E-02  0.1117440E+00
         21   -1    0    0  501  502  0.00000000000E+00  0.00000000000E+00  0.29822035745E+03  0.29822035745E+03  0.00000000000E+00 0. -1.
         21   -1    0    0  502  503 -0.00000000000E+00 -0.00000000000E+00 -0.20461016172E+03  0.20461016172E+03  0.00000000000E+00 0.  1.
          6    1    1    2  501    0  0.16240515399E+02  0.17068003444E+03  0.49085229684E+01  0.24361552105E+03  0.17300000000E+03 0.  1.
         -6    1    1    2    0  503 -0.16240515399E+02 -0.17068003444E+03  0.88701672761E+02  0.25921499811E+03  0.17300000000E+03 0.  1.
<mgrwt>
<rscale>  2 0.24356607E+03</rscale>
<asrwt>0</asrwt>
<pdfrwt beam="1">  1       21 0.45880055E-01 0.24356607E+03</pdfrwt>
<pdfrwt beam="2">  1       21 0.31478486E-01 0.24356607E+03</pdfrwt>
<totfact> 0.43132793E+04</totfact>
</mgrwt>
</event>
<event>
 4    1  0.4336176E+000  0.1908736E+03  0.7546771E-02  0.1157676E+00
         21   -1    0    0  501  502  0.00000000000E+00  0.00000000000E+00  0.11642123404E+03  0.11642123404E+03  0.00000000000E+00 0. -1.
         21   -1    0    0  502  503 -0.00000000000E+00 -0.00000000000E+00 -0.47731600102E+03  0.47731600102E+03  0.00000000000E+00 0. -1.
          6    1    1    2  501    0 -0.30633298910E+02  0.74601094472E+02 -0.62337766660E+01  0.19097534467E+03  0.17300000000E+03 0. -1.
         -6    1    1    2    0  503  0.30633298910E+02 -0.74601094472E+02 -0.35466099031E+03  0.40276189039E+03  0.17300000000E+03 0. -1.
<mgrwt>
<rscale>  2 0.19087358E+03</rscale>
<asrwt>0</asrwt>
<pdfrwt beam="1">  1       21 0.17910959E-01 0.19087358E+03</pdfrwt>
<pdfrwt beam="2">  1       21 0.73433232E-01 0.19087358E+03</pdfrwt>
<totfact> 0.47261578E+04</totfact>
</mgrwt>
</event>
<event>
 4    1  0.4336176E+000  0.3121790E+03  0.7546771E-02  0.1079306E+00
         21   -1    0    0  503  502  0.00000000000E+00  0.00000000000E+00  0.12315475403E+03  0.12315475403E+03  0.00000000000E+00 0. -1.
         21   -1    0    0  501  503 -0.00000000000E+00 -0.00000000000E+00 -0.11246931763E+04  0.11246931763E+04  0.00000000000E+00 0.  1.
          6    1    1    2  501    0 -0.21327081651E+03 -0.14846638099E+03 -0.84045335096E+03  0.89655872234E+03  0.17300000000E+03 0.  1.
         -6    1    1    2    0  502  0.21327081651E+03  0.14846638099E+03 -0.16108507134E+03  0.35128920802E+03  0.17300000000E+03 0. -1.
<mgrwt>
<rscale>  2 0.31217897E+03</rscale>
<asrwt>0</asrwt>
<pdfrwt beam="1">  1       21 0.18946885E-01 0.31217897E+03</pdfrwt>
<pdfrwt beam="2">  1       21 0.17302972E+00 0.31217897E+03</pdfrwt>
<totfact> 0.47734849E+03</totfact>
</mgrwt>
</event>
<event>
 4    1  0.4336176E+000  0.2742415E+03  0.7546771E-02  0.1098876E+00
         21   -1    0    0  503  502  0.00000000000E+00  0.00000000000E+00  0.24214683081E+03  0.24214683081E+03  0.00000000000E+00 0.  1.
         21   -1    0    0  501  503 -0.00000000000E+00 -0.00000000000E+00 -0.32345832018E+03  0.32345832018E+03  0.00000000000E+00 0. -1.
          6    1    1    2  501    0  0.14829826773E+03 -0.15260078803E+03  0.15751598649E+02  0.27469344655E+03  0.17300000000E+03 0. -1.
         -6    1    1    2    0  502 -0.14829826773E+03  0.15260078803E+03 -0.97063088016E+02  0.29091170443E+03  0.17300000000E+03 0. -1.
<mgrwt>
<rscale>  2 0.27424146E+03</rscale>
<asrwt>0</asrwt>
<pdfrwt beam="1">  1       21 0.37253359E-01 0.27424146E+03</pdfrwt>
<pdfrwt beam="2">  1       21 0.49762818E-01 0.27424146E+03</pdfrwt>
<totfact> 0.25691355E+04</totfact>
</mgrwt>
</event>
<event>
 4    1  0.4336176E+000  0.2475406E+03  0.7546771E-02  0.1114869E+00
         21   -1    0    0  503  502  0.00000000000E+00  0.00000000000E+00  0.11132147890E+04  0.11132147890E+04  0.00000000000E+00 0. -1.
         21   -1    0    0  501  503 -0.00000000000E+00 -0.00000000000E+00 -0.58972017579E+02  0.58972017579E+02  0.00000000000E+00 0.  1.
          6    1    1    2  501    0  0.13931293280E+03 -0.10926691139E+03  0.37586875986E+03  0.45005963584E+03  0.17300000000E+03 0. -1.
         -6    1    1    2    0  502 -0.13931293280E+03  0.10926691139E+03  0.67837401159E+03  0.72212717077E+03  0.17300000000E+03 0. -1.
<mgrwt>
<rscale>  2 0.24754061E+03</rscale>
<asrwt>0</asrwt>
<pdfrwt beam="1">  1       21 0.17126380E+00 0.24754061E+03</pdfrwt>
<pdfrwt beam="2">  1       21 0.90726189E-02 0.24754061E+03</pdfrwt>
<totfact> 0.19434435E+04</totfact>
</mgrwt>
</event>
<event>
 4    1  0.4336176E+000  0.2005907E+03  0.7546771E-02  0.1149242E+00
         21   -1    0    0  503  502  0.00000000000E+00  0.00000000000E+00  0.14866144053E+03  0.14866144053E+03  0.00000000000E+00 0.  1.
         21   -1    0    0  501  503 -0.00000000000E+00 -0.00000000000E+00 -0.36117823804E+03  0.36117823804E+03  0.00000000000E+00 0.  1.
          6    1    1    2  501    0 -0.21717218545E+02  0.99176525253E+02 -0.23387649507E+03  0.30811497154E+03  0.17300000000E+03 0.  1.
         -6    1    1    2    0  502  0.21717218545E+02 -0.99176525253E+02  0.21359697558E+02  0.20172470702E+03  0.17300000000E+03 0.  1.
<mgrwt>
<rscale>  2 0.20059068E+03</rscale>
<asrwt>0</asrwt>
<pdfrwt beam="1">  1       21 0.22870991E-01 0.20059068E+03</pdfrwt>
<pdfrwt beam="2">  1       21 0.55565882E-01 0.20059068E+03</pdfrwt>
<totfact> 0.54545289E+04</totfact>
</mgrwt>
</event>
<event>
 4    1  0.4336176E+000  0.2226877E+03  0.7546771E-02  0.1131895E+00
         21   -1    0    0  503  502  0.00000000000E+00  0.00000000000E+00  0.72721280456E+03  0.72721280456E+03  0.00000000000E+00 0. -1.
         21   -1    0    0  501  503 -0.00000000000E+00 -0.00000000000E+00 -0.68720496996E+02  0.68720496996E+02  0.00000000000E+00 0.  1.
          6    1    1    2  501    0  0.91600763371E+02  0.10616088171E+03  0.29433426930E+03  0.36908331680E+03  0.17300000000E+03 0.  1.
         -6    1    1    2    0  502 -0.91600763371E+02 -0.10616088171E+03  0.36415803826E+03  0.42684998475E+03  0.17300000000E+03 0. -1.
<mgrwt>
<rscale>  2 0.22268775E+03</rscale>
<asrwt>0</asrwt>
<pdfrwt beam="1">  1       21 0.11187889E+00 0.22268775E+03</pdfrwt>
<pdfrwt beam="2">  1       21 0.10572385E-01 0.22268775E+03</pdfrwt>
<totfact> 0.45383219E+04</totfact>
</mgrwt>
</event>
<event>
 4    1  0.4336176E+000  0.1839463E+03  0.7546771E-02  0.1164038E+00
         21   -1    0    0  503  502  0.00000000000E+00  0.00000000000E+00  0.18764168284E+04  0.18764168284E+04  0.00000000000E+00 0.  1.
         21   -1    0    0  501  503 -0.00000000000E+00 -0.00000000000E+00 -0.20203648594E+02  0.20203648594E+02  0.00000000000E+00 0.  1.
          6    1    1    2  501    0  0.31804196150E+02 -0.53811959353E+02  0.61722588105E+03  0.64405281002E+03  0.17300000000E+03 0.  1.
         -6    1    1    2    0  502 -0.31804196150E+02  0.53811959353E+02  0.12389872988E+04  0.12525676670E+04  0.17300000000E+03 0.  1.
<mgrwt>
<rscale>  2 0.18394628E+03</rscale>
<asrwt>0</asrwt>
<pdfrwt beam="1">  1       21 0.28867937E+00 0.18394628E+03</pdfrwt>
<pdfrwt beam="2">  1       21 0.31082551E-02 0.18394628E+03</pdfrwt>
<totfact> 0.23864826E+04</totfact>
</mgrwt>
</event>
<event>
 4    1  0.4336176E+000  0.1751808E+03  0.7546771E-02  0.1172550E+00
         21   -1    0    0  501  502  0.00000000000E+00  0.00000000000E+00  0.13009153554E+03  0.13009153554E+03  0.00000000000E+00 0.  1.
         21   -1    0    0  502  503 -0.00000000000E+00 -0.00000000000E+00 -0.31549773164E+03  0.31549773164E+03  0.00000000000E+00 0.  1.
          6    1    1    2  501    0  0.35562497208E+01  0.27325162901E+02  0.19205346727E+02  0.17623040822E+03  0.17300000000E+03 0.  1.
         -6    1    1    2    0  503 -0.35562497208E+01 -0.27325162901E+02 -0.20461154283E+03  0.26935885896E+03  0.17300000000E+03 0.  1.
<mgrwt>
<rscale>  2 0.17518080E+03</rscale>
<asrwt>0</asrwt>
<pdfrwt beam="1">  1       21 0.20014083E-01 0.17518080E+03</pdfrwt>
<pdfrwt beam="2">  1       21 0.48538112E-01 0.17518080E+03</pdfrwt>
<totfact> 0.94074031E+04</totfact>
</mgrwt>
</event>
<event>
 4    1  0.4336176E+000  0.1956634E+03  0.7546771E-02  0.1153450E+00
         21   -1    0    0  501  502  0.00000000000E+00  0.00000000000E+00  0.37633907061E+03  0.37633907061E+03  0.00000000000E+00 0. -1.
         21   -1    0    0  502  503 -0.00000000000E+00 -0.00000000000E+00 -0.12452796400E+03  0.12452796400E+03  0.00000000000E+00 0. -1.
          6    1    1    2  501    0  0.67356211990E+02  0.61792395891E+02  0.23306430509E+03  0.30430762362E+03  0.17300000000E+03 0. -1.
         -6    1    1    2    0  503 -0.67356211990E+02 -0.61792395891E+02  0.18746801518E+02  0.19655941100E+03  0.17300000000E+03 0. -1.
<mgrwt>
<rscale>  2 0.19566338E+03</rscale>
<asrwt>0</asrwt>
<pdfrwt beam="1">  1       21 0.57898318E-01 0.19566338E+03</pdfrwt>
<pdfrwt beam="2">  1       21 0.19158148E-01 0.19566338E+03</pdfrwt>
<totfact> 0.69854037E+04</totfact>
</mgrwt>
</event>
<event>
 4    1  0.4336176E+000  0.2489956E+03  0.7546771E-02  0.1113941E+00
         21   -1    0    0  501  502  0.00000000000E+00  0.00000000000E+00  0.20256034824E+03  0.20256034824E+03  0.00000000000E+00 0. -1.
         21   -1    0    0  502  503 -0.00000000000E+00 -0.00000000000E+00 -0.30622758523E+03  0.30622758523E+03  0.00000000000E+00 0.  1.
          6    1    1    2  501    0  0.16415940141E+03 -0.71564554740E+02 -0.57499708252E+02  0.25554845141E+03  0.17300000000E+03 0.  1.
         -6    1    1    2    0  503 -0.16415940141E+03  0.71564554740E+02 -0.46167528736E+02  0.25323948207E+03  0.17300000000E+03 0.  1.
<mgrwt>
<rscale>  2 0.24899557E+03</rscale>
<asrwt>0</asrwt>
<pdfrwt beam="1">  1       21 0.31163130E-01 0.24899557E+03</pdfrwt>
<pdfrwt beam="2">  1       21 0.47111936E-01 0.24899557E+03</pdfrwt>
<totfact> 0.41548926E+04</totfact>
</mgrwt>
</event>
<event>
 4    1  0.4336176E+000  0.1795081E+03  0.7546771E-02  0.1168280E+00
         21   -1    0    0  503  502  0.00000000000E+00  0.00000000000E+00  0.55866105486E+03  0.55866105486E+03  0.00000000000E+00 0.  1.
         21   -1    0    0  501  503 -0.00000000000E+00 -0.00000000000E+00 -0.59696940829E+02  0.59696940829E+02  0.00000000000E+00 0.  1.
          6    1    1    2  501    0 -0.15352991293E+02  0.45370139422E+02  0.19264145022E+03  0.26331329673E+03  0.17300000000E+03 0.  1.
         -6    1    1    2    0  502  0.15352991293E+02 -0.45370139422E+02  0.30632266381E+03  0.35504469896E+03  0.17300000000E+03 0.  1.
<mgrwt>
<rscale>  2 0.17950812E+03</rscale>
<asrwt>0</asrwt>
<pdfrwt beam="1">  1       21 0.85947851E-01 0.17950812E+03</pdfrwt>
<pdfrwt beam="2">  1       21 0.91841451E-02 0.17950812E+03</pdfrwt>
<totfact> 0.11068722E+05</totfact>
</mgrwt>
</event>
<event>
 4    1  0.4336176E+000  0.1831495E+03  0.7546771E-02  0.1164789E+00
         21   -1    0    0  501  502  0.00000000000E+00  0.00000000000E+00  0.59402497785E+02  0.59402497785E+02  0.00000000000E+00 0.  1.
         21   -1    0    0  502  503 -0.00000000000E+00 -0.00000000000E+00 -0.60459979719E+03  0.60459979719E+03  0.00000000000E+00 0.  1.
          6    1    1    2  501    0 -0.45945060218E+02  0.38778552118E+02 -0.18729448365E+03  0.26195982186E+03  0.17300000000E+03 0.  1.
         -6    1    1    2    0  503  0.45945060218E+02 -0.38778552118E+02 -0.35790281576E+03  0.40204247312E+03  0.17300000000E+03 0.  1.
<mgrwt>
<rscale>  2 0.18314946E+03</rscale>
<asrwt>0</asrwt>
<pdfrwt beam="1">  1       21 0.91388452E-02 0.18314946E+03</pdfrwt>
<pdfrwt beam="2">  1       21 0.93015359E-01 0.18314946E+03</pdfrwt>
<totfact> 0.92904921E+04</totfact>
</mgrwt>
</event>
<event>
 4    1  0.4336176E+000  0.1888482E+03  0.7546771E-02  0.1159504E+00
         21   -1    0    0  503  502  0.00000000000E+00  0.00000000000E+00  0.86647705997E+02  0.86647705997E+02  0.00000000000E+00 0. -1.
         21   -1    0    0  501  503 -0.00000000000E+00 -0.00000000000E+00 -0.83934262243E+03  0.83934262243E+03  0.00000000000E+00 0. -1.
          6    1    1    2  501    0 -0.32497907581E+02  0.68399865855E+02 -0.70687012240E+03  0.73166182461E+03  0.17300000000E+03 0. -1.
         -6    1    1    2    0  502  0.32497907581E+02 -0.68399865855E+02 -0.45824794024E+02  0.19432850381E+03  0.17300000000E+03 0. -1.
<mgrwt>
<rscale>  2 0.18884823E+03</rscale>
<asrwt>0</asrwt>
<pdfrwt beam="1">  1       21 0.13330416E-01 0.18884823E+03</pdfrwt>
<pdfrwt beam="2">  1       21 0.12912964E+00 0.18884823E+03</pdfrwt>
<totfact> 0.21410451E+04</totfact>
</mgrwt>
</event>
<event>
 4    1  0.4336176E+000  0.1971759E+03  0.7546771E-02  0.1152144E+00
         21   -1    0    0  501  502  0.00000000000E+00  0.00000000000E+00  0.17635995453E+04  0.17635995453E+04  0.00000000000E+00 0. -1.
         21   -1    0    0  502  503 -0.00000000000E+00 -0.00000000000E+00 -0.30686268996E+02  0.30686268996E+02  0.00000000000E+00 0. -1.
          6    1    1    2  501    0  0.27209600385E+02  0.90603275705E+02  0.13425385812E+04  0.13569407349E+04  0.17300000000E+03 0. -1.
         -6    1    1    2    0  503 -0.27209600385E+02 -0.90603275705E+02  0.39037469504E+03  0.43734507937E+03  0.17300000000E+03 0. -1.
<mgrwt>
<rscale>  2 0.19717585E+03</rscale>
<asrwt>0</asrwt>
<pdfrwt beam="1">  1       21 0.27132293E+00 0.19717585E+03</pdfrwt>
<pdfrwt beam="2">  1       21 0.47209658E-02 0.19717585E+03</pdfrwt>
<totfact> 0.14742458E+04</totfact>
</mgrwt>
</event>
<event>
 4    1  0.4336176E+000  0.2001099E+03  0.7546771E-02  0.1149646E+00
         21   -1    0    0  503  502  0.00000000000E+00  0.00000000000E+00  0.20453953849E+03  0.20453953849E+03  0.00000000000E+00 0.  1.
         21   -1    0    0  501  503 -0.00000000000E+00 -0.00000000000E+00 -0.22259697327E+03  0.22259697327E+03  0.00000000000E+00 0.  1.
          6    1    1    2  501    0 -0.34251936152E+02 -0.94560969513E+02 -0.83161923131E+02  0.21670227859E+03  0.17300000000E+03 0. -1.
         -6    1    1    2    0  502  0.34251936152E+02  0.94560969513E+02  0.65104488353E+02  0.21043423317E+03  0.17300000000E+03 0. -1.
<mgrwt>
<rscale>  2 0.20010990E+03</rscale>
<asrwt>0</asrwt>
<pdfrwt beam="1">  1       21 0.31467622E-01 0.20010990E+03</pdfrwt>
<pdfrwt beam="2">  1       21 0.34245688E-01 0.20010990E+03</pdfrwt>
<totfact> 0.79500061E+04</totfact>
</mgrwt>
</event>
<event>
 4    1  0.4336176E+000  0.1744430E+03  0.7546771E-02  0.1173292E+00
         21   -1    0    0  503  502  0.00000000000E+00  0.00000000000E+00  0.14831882670E+03  0.14831882670E+03  0.00000000000E+00 0.  1.
         21   -1    0    0  501  503 -0.00000000000E+00 -0.00000000000E+00 -0.36471611652E+03  0.36471611652E+03  0.00000000000E+00 0.  1.
          6    1    1    2  501    0 -0.12481232381E+02  0.18589770943E+02 -0.27786063071E+03  0.32808061638E+03  0.17300000000E+03 0. -1.
         -6    1    1    2    0  502  0.12481232381E+02 -0.18589770943E+02  0.61463340887E+02  0.18495432684E+03  0.17300000000E+03 0. -1.
<mgrwt>
<rscale>  2 0.17444300E+03</rscale>
<asrwt>0</asrwt>
<pdfrwt beam="1">  1       21 0.22818281E-01 0.17444300E+03</pdfrwt>
<pdfrwt beam="2">  1       21 0.56110172E-01 0.17444300E+03</pdfrwt>
<totfact> 0.54328354E+04</totfact>
</mgrwt>
</event>
<event>
 4    1  0.4336176E+000  0.2118923E+03  0.7546771E-02  0.1140076E+00
         21   -1    0    0  501  502  0.00000000000E+00  0.00000000000E+00  0.78691406520E+02  0.78691406520E+02  0.00000000000E+00 0. -1.
         21   -1    0    0  502  503 -0.00000000000E+00 -0.00000000000E+00 -0.59391181068E+03  0.59391181068E+03  0.00000000000E+00 0.  1.
          6    1    1    2  501    0 -0.12203932233E+03 -0.87028449082E+01 -0.19092821505E+03  0.28522257801E+03  0.17300000000E+03 0. -1.
         -6    1    1    2    0  503  0.12203932233E+03  0.87028449082E+01 -0.32429218911E+03  0.38738063919E+03  0.17300000000E+03 0.  1.
<mgrwt>
<rscale>  2 0.21189227E+03</rscale>
<asrwt>0</asrwt>
<pdfrwt beam="1">  1       21 0.12106371E-01 0.21189227E+03</pdfrwt>
<pdfrwt beam="2">  1       21 0.91371045E-01 0.21189227E+03</pdfrwt>
<totfact> 0.58052325E+04</totfact>
</mgrwt>
</event>
<event>
 4    1  0.4336176E+000  0.2133972E+03  0.7546771E-02  0.1138904E+00
         21   -1    0    0  501  502  0.00000000000E+00  0.00000000000E+00  0.14436671697E+03  0.14436671697E+03  0.00000000000E+00 0.  1.
         21   -1    0    0  502  503 -0.00000000000E+00 -0.00000000000E+00 -0.40043637190E+03  0.40043637190E+03  0.00000000000E+00 0.  1.
          6    1    1    2  501    0 -0.12371016973E+03 -0.17469261563E+02 -0.25316823546E+01  0.21341225506E+03  0.17300000000E+03 0.  1.
         -6    1    1    2    0  503  0.12371016973E+03  0.17469261563E+02 -0.25353797258E+03  0.33139083381E+03  0.17300000000E+03 0.  1.
<mgrwt>
<rscale>  2 0.21339724E+03</rscale>
<asrwt>0</asrwt>
<pdfrwt beam="1">  1       21 0.22210264E-01 0.21339724E+03</pdfrwt>
<pdfrwt beam="2">  1       21 0.61605595E-01 0.21339724E+03</pdfrwt>
<totfact> 0.45941921E+04</totfact>
</mgrwt>
</event>
<event>
 4    1  0.4336176E+000  0.2416980E+03  0.7546771E-02  0.1118667E+00
         21   -1    0    0  503  502  0.00000000000E+00  0.00000000000E+00  0.47755805259E+02  0.47755805259E+02  0.00000000000E+00 0. -1.
         21   -1    0    0  501  503 -0.00000000000E+00 -0.00000000000E+00 -0.20790102821E+04  0.20790102821E+04  0.00000000000E+00 0. -1.
          6    1    1    2  501    0 -0.10259445041E+03 -0.13402718876E+03 -0.16978625310E+04  0.17149796158E+04  0.17300000000E+03 0. -1.
         -6    1    1    2    0  502  0.10259445041E+03  0.13402718876E+03 -0.33339194590E+03  0.41178647158E+03  0.17300000000E+03 0. -1.
<mgrwt>
<rscale>  2 0.24169797E+03</rscale>
<asrwt>0</asrwt>
<pdfrwt beam="1">  1       21 0.73470486E-02 0.24169797E+03</pdfrwt>
<pdfrwt beam="2">  1       21 0.31984766E+00 0.24169797E+03</pdfrwt>
<totfact> 0.34532830E+03</totfact>
</mgrwt>
</event>
<event>
 4    1  0.4336176E+000  0.1957439E+03  0.7546771E-02  0.1153380E+00
         21   -1    0    0  501  502  0.00000000000E+00  0.00000000000E+00  0.24810326754E+02  0.24810326754E+02  0.00000000000E+00 0.  1.
         21   -1    0    0  502  503 -0.00000000000E+00 -0.00000000000E+00 -0.21544375188E+04  0.21544375188E+04  0.00000000000E+00 0. -1.
          6    1    1    2  501    0 -0.74724068681E+02 -0.52943084027E+02 -0.48497354640E+03  0.52298661292E+03  0.17300000000E+03 0.  1.
         -6    1    1    2    0  503  0.74724068681E+02  0.52943084027E+02 -0.16446536456E+04  0.16562612326E+04  0.17300000000E+03 0. -1.
<mgrwt>
<rscale>  2 0.19574385E+03</rscale>
<asrwt>0</asrwt>
<pdfrwt beam="1">  1       21 0.38169729E-02 0.19574385E+03</pdfrwt>
<pdfrwt beam="2">  1       21 0.33145196E+00 0.19574385E+03</pdfrwt>
<totfact> 0.94845906E+03</totfact>
</mgrwt>
</event>
<event>
 4    1  0.4336176E+000  0.1825841E+03  0.7546771E-02  0.1165325E+00
         21   -1    0    0  501  502  0.00000000000E+00  0.00000000000E+00  0.18468974895E+03  0.18468974895E+03  0.00000000000E+00 0.  1.
         21   -1    0    0  502  503 -0.00000000000E+00 -0.00000000000E+00 -0.26899161197E+03  0.26899161197E+03  0.00000000000E+00 0.  1.
          6    1    1    2  501    0 -0.35408979082E+02  0.46412948850E+02  0.87954833709E+02  0.20266477344E+03  0.17300000000E+03 0.  1.
         -6    1    1    2    0  503  0.35408979082E+02 -0.46412948850E+02 -0.17225669673E+03  0.25101658748E+03  0.17300000000E+03 0.  1.
<mgrwt>
<rscale>  2 0.18258411E+03</rscale>
<asrwt>0</asrwt>
<pdfrwt beam="1">  1       21 0.28413807E-01 0.18258411E+03</pdfrwt>
<pdfrwt beam="2">  1       21 0.41383325E-01 0.18258411E+03</pdfrwt>
<totfact> 0.66874715E+04</totfact>
</mgrwt>
</event>
<event>
 4    1  0.4336176E+000  0.1946160E+03  0.7546771E-02  0.1154363E+00
         21   -1    0    0  501  502  0.00000000000E+00  0.00000000000E+00  0.77670316736E+02  0.77670316736E+02  0.00000000000E+00 0. -1.
         21   -1    0    0  502  503 -0.00000000000E+00 -0.00000000000E+00 -0.54296314896E+03  0.54296314896E+03  0.00000000000E+00 0. -1.
          6    1    1    2  501    0  0.64164230618E+02  0.61881621301E+02 -0.13359474099E+03  0.23605706591E+03  0.17300000000E+03 0. -1.
         -6    1    1    2    0  503 -0.64164230618E+02 -0.61881621301E+02 -0.33169809123E+03  0.38457639979E+03  0.17300000000E+03 0. -1.
<mgrwt>
<rscale>  2 0.19461599E+03</rscale>
<asrwt>0</asrwt>
<pdfrwt beam="1">  1       21 0.11949280E-01 0.19461599E+03</pdfrwt>
<pdfrwt beam="2">  1       21 0.83532792E-01 0.19461599E+03</pdfrwt>
<totfact> 0.73662330E+04</totfact>
</mgrwt>
</event>
<event>
 4    1  0.4336176E+000  0.2070654E+03  0.7546771E-02  0.1143911E+00
         21   -1    0    0  503  502  0.00000000000E+00  0.00000000000E+00  0.24794911964E+03  0.24794911964E+03  0.00000000000E+00 0. -1.
         21   -1    0    0  501  503 -0.00000000000E+00 -0.00000000000E+00 -0.23370798771E+03  0.23370798771E+03  0.00000000000E+00 0. -1.
          6    1    1    2  501    0 -0.61938927759E+02  0.95449824417E+02 -0.11569953513E+03  0.23719713780E+03  0.17300000000E+03 0. -1.
         -6    1    1    2    0  502  0.61938927759E+02 -0.95449824417E+02  0.12994066706E+03  0.24445996955E+03  0.17300000000E+03 0. -1.
<mgrwt>
<rscale>  2 0.20706545E+03</rscale>
<asrwt>0</asrwt>
<pdfrwt beam="1">  1       21 0.38146018E-01 0.20706545E+03</pdfrwt>
<pdfrwt beam="2">  1       21 0.35955075E-01 0.20706545E+03</pdfrwt>
<totfact> 0.49089673E+04</totfact>
</mgrwt>
</event>
<event>
 4    1  0.4336176E+000  0.2476886E+03  0.7546771E-02  0.1114774E+00
         21   -1    0    0  501  502  0.00000000000E+00  0.00000000000E+00  0.32771948666E+03  0.32771948666E+03  0.00000000000E+00 0.  1.
         21   -1    0    0  502  503 -0.00000000000E+00 -0.00000000000E+00 -0.24269117991E+03  0.24269117991E+03  0.00000000000E+00 0. -1.
          6    1    1    2  501    0 -0.13708104179E+03 -0.11238063039E+03  0.17888963411E+03  0.30553415406E+03  0.17300000000E+03 0.  1.
         -6    1    1    2    0  503  0.13708104179E+03  0.11238063039E+03 -0.93861327360E+02  0.26487651251E+03  0.17300000000E+03 0. -1.
<mgrwt>
<rscale>  2 0.24768855E+03</rscale>
<asrwt>0</asrwt>
<pdfrwt beam="1">  1       21 0.50418383E-01 0.24768855E+03</pdfrwt>
<pdfrwt beam="2">  1       21 0.37337105E-01 0.24768855E+03</pdfrwt>
<totfact> 0.25173149E+04</totfact>
</mgrwt>
</event>
<event>
 4    1  0.4336176E+000  0.1906945E+03  0.7546771E-02  0.1157836E+00
         21   -1    0    0  501  502  0.00000000000E+00  0.00000000000E+00  0.71489960987E+02  0.71489960987E+02  0.00000000000E+00 0.  1.
         21   -1    0    0  502  503 -0.00000000000E+00 -0.00000000000E+00 -0.87241460788E+03  0.87241460788E+03  0.00000000000E+00 0.  1.
          6    1    1    2  501    0  0.50611386457E+02  0.62240611187E+02 -0.95716202435E+02  0.21336822052E+03  0.17300000000E+03 0.  1.
         -6    1    1    2    0  503 -0.50611386457E+02 -0.62240611187E+02 -0.70520844446E+03  0.73053634835E+03  0.17300000000E+03 0.  1.
<mgrwt>
<rscale>  2 0.19069454E+03</rscale>
<asrwt>0</asrwt>
<pdfrwt beam="1">  1       21 0.10998456E-01 0.19069454E+03</pdfrwt>
<pdfrwt beam="2">  1       21 0.13421763E+00 0.19069454E+03</pdfrwt>
<totfact> 0.27363240E+04</totfact>
</mgrwt>
</event>
<event>
 4    1  0.4336176E+000  0.2181850E+03  0.7546771E-02  0.1135243E+00
         21   -1    0    0  503  502  0.00000000000E+00  0.00000000000E+00  0.76349266745E+03  0.76349266745E+03  0.00000000000E+00 0. -1.
         21   -1    0    0  501  503 -0.00000000000E+00 -0.00000000000E+00 -0.62935023232E+02  0.62935023232E+02  0.00000000000E+00 0.  1.
          6    1    1    2  501    0 -0.97575717202E+02  0.90303232103E+02  0.31048053960E+03  0.37947708730E+03  0.17300000000E+03 0.  1.
         -6    1    1    2    0  502  0.97575717202E+02 -0.90303232103E+02  0.39007710462E+03  0.44695060338E+03  0.17300000000E+03 0.  1.
<mgrwt>
<rscale>  2 0.21818500E+03</rscale>
<asrwt>0</asrwt>
<pdfrwt beam="1">  1       21 0.11746040E+00 0.21818500E+03</pdfrwt>
<pdfrwt beam="2">  1       21 0.96823118E-02 0.21818500E+03</pdfrwt>
<totfact> 0.47190039E+04</totfact>
</mgrwt>
</event>
<event>
 4    1  0.4336176E+000  0.2856633E+03  0.7546771E-02  0.1092635E+00
         21   -1    0    0  503  502  0.00000000000E+00  0.00000000000E+00  0.26345689533E+03  0.26345689533E+03  0.00000000000E+00 0.  1.
         21   -1    0    0  501  503 -0.00000000000E+00 -0.00000000000E+00 -0.37345195800E+03  0.37345195800E+03  0.00000000000E+00 0. -1.
          6    1    1    2  501    0  0.21729946426E+03  0.66749401084E+02 -0.18653067765E+03  0.34117038766E+03  0.17300000000E+03 0. -1.
         -6    1    1    2    0  502 -0.21729946426E+03 -0.66749401084E+02  0.76535614986E+02  0.29573846566E+03  0.17300000000E+03 0.  1.
<mgrwt>
<rscale>  2 0.28566333E+03</rscale>
<asrwt>0</asrwt>
<pdfrwt beam="1">  1       21 0.40531830E-01 0.28566333E+03</pdfrwt>
<pdfrwt beam="2">  1       21 0.57454147E-01 0.28566333E+03</pdfrwt>
<totfact> 0.15870777E+04</totfact>
</mgrwt>
</event>
<event>
 4    1  0.4336176E+000  0.1961715E+03  0.7546771E-02  0.1153010E+00
         21   -1    0    0  501  502  0.00000000000E+00  0.00000000000E+00  0.46715613076E+03  0.46715613076E+03  0.00000000000E+00 0.  1.
         21   -1    0    0  502  503 -0.00000000000E+00 -0.00000000000E+00 -0.14983132262E+03  0.14983132262E+03  0.00000000000E+00 0.  1.
          6    1    1    2  501    0  0.54625958048E+02  0.74634285980E+02  0.36565151631E+03  0.41495096495E+03  0.17300000000E+03 0.  1.
         -6    1    1    2    0  503 -0.54625958048E+02 -0.74634285980E+02 -0.48326708163E+02  0.20203648843E+03  0.17300000000E+03 0.  1.
<mgrwt>
<rscale>  2 0.19617154E+03</rscale>
<asrwt>0</asrwt>
<pdfrwt beam="1">  1       21 0.71870173E-01 0.19617154E+03</pdfrwt>
<pdfrwt beam="2">  1       21 0.23050973E-01 0.19617154E+03</pdfrwt>
<totfact> 0.30835563E+04</totfact>
</mgrwt>
</event>
<event>
 4    1  0.4336176E+000  0.2334023E+03  0.7546771E-02  0.1124268E+00
         21   -1    0    0  503  502  0.00000000000E+00  0.00000000000E+00  0.21060705208E+02  0.21060705208E+02  0.00000000000E+00 0. -1.
         21   -1    0    0  501  503 -0.00000000000E+00 -0.00000000000E+00 -0.28659531654E+04  0.28659531654E+04  0.00000000000E+00 0.  1.
          6    1    1    2  501    0 -0.57601232749E+02  0.14570418248E+03 -0.18730808566E+04  0.18875668217E+04  0.17300000000E+03 0.  1.
         -6    1    1    2    0  502  0.57601232749E+02 -0.14570418248E+03 -0.97181160359E+03  0.99944704896E+03  0.17300000000E+03 0. -1.
<mgrwt>
<rscale>  2 0.23340225E+03</rscale>
<asrwt>0</asrwt>
<pdfrwt beam="1">  1       21 0.32401085E-02 0.23340225E+03</pdfrwt>
<pdfrwt beam="2">  1       21 0.44091587E+00 0.23340225E+03</pdfrwt>
<totfact> 0.25160894E+03</totfact>
</mgrwt>
</event>
<event>
 4    1  0.4336176E+000  0.2229390E+03  0.7546771E-02  0.1131711E+00
         21   -1    0    0  501  502  0.00000000000E+00  0.00000000000E+00  0.48997929528E+03  0.48997929528E+03  0.00000000000E+00 0.  1.
         21   -1    0    0  502  503 -0.00000000000E+00 -0.00000000000E+00 -0.10417913354E+03  0.10417913354E+03  0.00000000000E+00 0. -1.
          6    1    1    2  501    0  0.84517790147E+02 -0.11238131732E+03  0.24110157806E+03  0.32837750879E+03  0.17300000000E+03 0.  1.
         -6    1    1    2    0  503 -0.84517790147E+02  0.11238131732E+03  0.14469858368E+03  0.26578092003E+03  0.17300000000E+03 0. -1.
<mgrwt>
<rscale>  2 0.22293904E+03</rscale>
<asrwt>0</asrwt>
<pdfrwt beam="1">  1       21 0.75381428E-01 0.22293904E+03</pdfrwt>
<pdfrwt beam="2">  1       21 0.16027559E-01 0.22293904E+03</pdfrwt>
<totfact> 0.53865518E+04</totfact>
</mgrwt>
</event>
<event>
 4    1  0.4336176E+000  0.4313661E+03  0.7546771E-02  0.1033429E+00
         21   -1    0    0  503  502  0.00000000000E+00  0.00000000000E+00  0.12469438085E+04  0.12469438085E+04  0.00000000000E+00 0. -1.
         21   -1    0    0  501  503 -0.00000000000E+00 -0.00000000000E+00 -0.15512359479E+03  0.15512359479E+03  0.00000000000E+00 0.  1.
          6    1    1    2  501    0 -0.37585830356E+03 -0.12197657505E+03  0.40922279411E+03  0.59459233466E+03  0.17300000000E+03 0.  1.
         -6    1    1    2    0  502  0.37585830356E+03  0.12197657505E+03  0.68259741962E+03  0.80747506865E+03  0.17300000000E+03 0. -1.
<mgrwt>
<rscale>  2 0.43136614E+03</rscale>
<asrwt>0</asrwt>
<pdfrwt beam="1">  1       21 0.19183750E+00 0.43136614E+03</pdfrwt>
<pdfrwt beam="2">  1       21 0.23865169E-01 0.43136614E+03</pdfrwt>
<totfact> 0.21469991E+03</totfact>
</mgrwt>
</event>
<event>
 4    1  0.4336176E+000  0.1991353E+03  0.7546771E-02  0.1150471E+00
         21   -1    0    0  501  502  0.00000000000E+00  0.00000000000E+00  0.11518560219E+03  0.11518560219E+03  0.00000000000E+00 0.  1.
         21   -1    0    0  502  503 -0.00000000000E+00 -0.00000000000E+00 -0.34432005656E+03  0.34432005656E+03  0.00000000000E+00 0.  1.
          6    1    1    2  501    0  0.27621208549E+02 -0.94672850323E+02 -0.11735359298E+03  0.23114226254E+03  0.17300000000E+03 0. -1.
         -6    1    1    2    0  503 -0.27621208549E+02  0.94672850323E+02 -0.11178086140E+03  0.22836339620E+03  0.17300000000E+03 0. -1.
<mgrwt>
<rscale>  2 0.19913533E+03</rscale>
<asrwt>0</asrwt>
<pdfrwt beam="1">  1       21 0.17720862E-01 0.19913533E+03</pdfrwt>
<pdfrwt beam="2">  1       21 0.52972315E-01 0.19913533E+03</pdfrwt>
<totfact> 0.97313903E+04</totfact>
</mgrwt>
</event>
<event>
 4    1  0.4336176E+000  0.2087876E+03  0.7546771E-02  0.1142530E+00
         21   -1    0    0  501  502  0.00000000000E+00  0.00000000000E+00  0.20076890418E+03  0.20076890418E+03  0.00000000000E+00 0.  1.
         21   -1    0    0  502  503 -0.00000000000E+00 -0.00000000000E+00 -0.21791877145E+03  0.21791877145E+03  0.00000000000E+00 0. -1.
          6    1    1    2  501    0  0.47117441871E+02  0.10697290574E+03 -0.21197309342E+02  0.20986086299E+03  0.17300000000E+03 0. -1.
         -6    1    1    2    0  503 -0.47117441871E+02 -0.10697290574E+03  0.40474420775E+01  0.20882681264E+03  0.17300000000E+03 0. -1.
<mgrwt>
<rscale>  2 0.20878759E+03</rscale>
<asrwt>0</asrwt>
<pdfrwt beam="1">  1       21 0.30887524E-01 0.20878759E+03</pdfrwt>
<pdfrwt beam="2">  1       21 0.33525965E-01 0.20878759E+03</pdfrwt>
<totfact> 0.85681214E+04</totfact>
</mgrwt>
</event>
<event>
 4    1  0.4336176E+000  0.1970384E+03  0.7546771E-02  0.1152262E+00
         21   -1    0    0  503  502  0.00000000000E+00  0.00000000000E+00  0.13612752329E+03  0.13612752329E+03  0.00000000000E+00 0.  1.
         21   -1    0    0  501  503 -0.00000000000E+00 -0.00000000000E+00 -0.30337325200E+03  0.30337325200E+03  0.00000000000E+00 0.  1.
          6    1    1    2  501    0  0.68950483425E+02 -0.64350281617E+02 -0.13740131956E+03  0.24021500895E+03  0.17300000000E+03 0.  1.
         -6    1    1    2    0  502 -0.68950483425E+02  0.64350281617E+02 -0.29844409143E+02  0.19928576634E+03  0.17300000000E+03 0.  1.
<mgrwt>
<rscale>  2 0.19703839E+03</rscale>
<asrwt>0</asrwt>
<pdfrwt beam="1">  1       21 0.20942696E-01 0.19703839E+03</pdfrwt>
<pdfrwt beam="2">  1       21 0.46672808E-01 0.19703839E+03</pdfrwt>
<totfact> 0.92916032E+04</totfact>
</mgrwt>
</event>
<event>
 4    1  0.4336176E+000  0.1919504E+03  0.7546771E-02  0.1156714E+00
         21   -1    0    0  501  502  0.00000000000E+00  0.00000000000E+00  0.89064997879E+03  0.89064997879E+03  0.00000000000E+00 0.  1.
         21   -1    0    0  502  503 -0.00000000000E+00 -0.00000000000E+00 -0.11866297022E+03  0.11866297022E+03  0.00000000000E+00 0. -1.
          6    1    1    2  501    0  0.83077370732E+02  0.37557602523E+01  0.79329136959E+03  0.81618389614E+03  0.17300000000E+03 0.  1.
         -6    1    1    2    0  503 -0.83077370732E+02 -0.37557602523E+01 -0.21304361015E+02  0.19312905287E+03  0.17300000000E+03 0. -1.
<mgrwt>
<rscale>  2 0.19195040E+03</rscale>
<asrwt>0</asrwt>
<pdfrwt beam="1">  1       21 0.13702307E+00 0.19195040E+03</pdfrwt>
<pdfrwt beam="2">  1       21 0.18255842E-01 0.19195040E+03</pdfrwt>
<totfact> 0.10350586E+04</totfact>
</mgrwt>
</event>
<event>
 4    1  0.4336176E+000  0.1884028E+03  0.7546771E-02  0.1159910E+00
         21   -1    0    0  501  502  0.00000000000E+00  0.00000000000E+00  0.39737353400E+03  0.39737353400E+03  0.00000000000E+00 0.  1.
         21   -1    0    0  502  503 -0.00000000000E+00 -0.00000000000E+00 -0.11641150290E+03  0.11641150290E+03  0.00000000000E+00 0.  1.
          6    1    1    2  501    0  0.56118215134E+02 -0.49166487383E+02  0.26439656544E+03  0.32465541943E+03  0.17300000000E+03 0.  1.
         -6    1    1    2    0  503 -0.56118215134E+02  0.49166487383E+02  0.16565465655E+02  0.18912961747E+03  0.17300000000E+03 0.  1.
<mgrwt>
<rscale>  2 0.18840275E+03</rscale>
<asrwt>0</asrwt>
<pdfrwt beam="1">  1       21 0.61134389E-01 0.18840275E+03</pdfrwt>
<pdfrwt beam="2">  1       21 0.17909462E-01 0.18840275E+03</pdfrwt>
<totfact> 0.70660815E+04</totfact>
</mgrwt>
</event>
<event>
 4    1  0.4336176E+000  0.2124451E+03  0.7546771E-02  0.1139644E+00
         21   -1    0    0  503  502  0.00000000000E+00  0.00000000000E+00  0.19512234700E+04  0.19512234700E+04  0.00000000000E+00 0. -1.
         21   -1    0    0  501  503 -0.00000000000E+00 -0.00000000000E+00 -0.23696981405E+02  0.23696981405E+02  0.00000000000E+00 0. -1.
          6    1    1    2  501    0 -0.46996616782E+02 -0.11399666484E+03  0.81109910822E+03  0.83845970979E+03  0.17300000000E+03 0. -1.
         -6    1    1    2    0  502  0.46996616782E+02  0.11399666484E+03  0.11164273804E+04  0.11364607416E+04  0.17300000000E+03 0. -1.
<mgrwt>
<rscale>  2 0.21244510E+03</rscale>
<asrwt>0</asrwt>
<pdfrwt beam="1">  1       21 0.30018810E+00 0.21244510E+03</pdfrwt>
<pdfrwt beam="2">  1       21 0.36456910E-02 0.21244510E+03</pdfrwt>
<totfact> 0.15280017E+04</totfact>
</mgrwt>
</event>
<event>
 4    1  0.4336176E+000  0.3907096E+03  0.7546771E-02  0.1047045E+00
         21   -1    0    0  501  502  0.00000000000E+00  0.00000000000E+00  0.45001373437E+03  0.45001373437E+03  0.00000000000E+00 0. -1.
         21   -1    0    0  502  503 -0.00000000000E+00 -0.00000000000E+00 -0.40659193786E+03  0.40659193786E+03  0.00000000000E+00 0.  1.
          6    1    1    2  501    0 -0.13169612586E+03 -0.32462461472E+03  0.19605552776E+03  0.43714045799E+03  0.17300000000E+03 0.  1.
         -6    1    1    2    0  503  0.13169612586E+03  0.32462461472E+03 -0.15263373125E+03  0.41946521425E+03  0.17300000000E+03 0. -1.
<mgrwt>
<rscale>  2 0.39070962E+03</rscale>
<asrwt>0</asrwt>
<pdfrwt beam="1">  1       21 0.69232882E-01 0.39070962E+03</pdfrwt>
<pdfrwt beam="2">  1       21 0.62552606E-01 0.39070962E+03</pdfrwt>
<totfact> 0.40247345E+03</totfact>
</mgrwt>
</event>
<event>
 4    1  0.4336176E+000  0.2063626E+03  0.7546771E-02  0.1144479E+00
         21   -1    0    0  503  502  0.00000000000E+00  0.00000000000E+00  0.58158816388E+03  0.58158816388E+03  0.00000000000E+00 0. -1.
         21   -1    0    0  501  503 -0.00000000000E+00 -0.00000000000E+00 -0.12409555909E+03  0.12409555909E+03  0.00000000000E+00 0.  1.
          6    1    1    2  501    0  0.82133264785E+02  0.76880827479E+02  0.28316098437E+01  0.20638205550E+03  0.17300000000E+03 0.  1.
         -6    1    1    2    0  502 -0.82133264785E+02 -0.76880827479E+02  0.45466099495E+03  0.49930166747E+03  0.17300000000E+03 0. -1.
<mgrwt>
<rscale>  2 0.20636263E+03</rscale>
<asrwt>0</asrwt>
<pdfrwt beam="1">  1       21 0.89475101E-01 0.20636263E+03</pdfrwt>
<pdfrwt beam="2">  1       21 0.19091625E-01 0.20636263E+03</pdfrwt>
<totfact> 0.26594221E+04</totfact>
</mgrwt>
</event>
<event>
 4    1  0.4336176E+000  0.1779819E+03  0.7546771E-02  0.1169771E+00
         21   -1    0    0  501  502  0.00000000000E+00  0.00000000000E+00  0.43676124500E+02  0.43676124500E+02  0.00000000000E+00 0.  1.
         21   -1    0    0  502  503 -0.00000000000E+00 -0.00000000000E+00 -0.74673675035E+03  0.74673675035E+03  0.00000000000E+00 0.  1.
          6    1    1    2  501    0 -0.28228395581E+02  0.30849751380E+02 -0.28454306742E+03  0.33562226787E+03  0.17300000000E+03 0.  1.
         -6    1    1    2    0  503  0.28228395581E+02 -0.30849751380E+02 -0.41851755843E+03  0.45479060698E+03  0.17300000000E+03 0.  1.
<mgrwt>
<rscale>  2 0.17798188E+03</rscale>
<asrwt>0</asrwt>
<pdfrwt beam="1">  1       21 0.67194041E-02 0.17798188E+03</pdfrwt>
<pdfrwt beam="2">  1       21 0.11488257E+00 0.17798188E+03</pdfrwt>
<totfact> 0.96012547E+04</totfact>
</mgrwt>
</event>
<event>
 4    1  0.4336176E+000  0.1920828E+03  0.7546771E-02  0.1156596E+00
         21   -1    0    0  501  502  0.00000000000E+00  0.00000000000E+00  0.11785826649E+03  0.11785826649E+03  0.00000000000E+00 0.  1.
         21   -1    0    0  502  503 -0.00000000000E+00 -0.00000000000E+00 -0.31722642018E+03  0.31722642018E+03  0.00000000000E+00 0.  1.
          6    1    1    2  501    0  0.17907603615E+02  0.81523686338E+02 -0.74729799408E+02  0.20610758506E+03  0.17300000000E+03 0.  1.
         -6    1    1    2    0  503 -0.17907603615E+02 -0.81523686338E+02 -0.12463835428E+03  0.22897710160E+03  0.17300000000E+03 0.  1.
<mgrwt>
<rscale>  2 0.19208278E+03</rscale>
<asrwt>0</asrwt>
<pdfrwt beam="1">  1       21 0.18132041E-01 0.19208278E+03</pdfrwt>
<pdfrwt beam="2">  1       21 0.48804065E-01 0.19208278E+03</pdfrwt>
<totfact> 0.11102757E+05</totfact>
</mgrwt>
</event>
<event>
 4    1  0.4336176E+000  0.1831447E+03  0.7546771E-02  0.1164794E+00
         21   -1    0    0  501  502  0.00000000000E+00  0.00000000000E+00  0.16781295988E+02  0.16781295988E+02  0.00000000000E+00 0.  1.
         21   -1    0    0  502  503 -0.00000000000E+00 -0.00000000000E+00 -0.20830335719E+04  0.20830335719E+04  0.00000000000E+00 0. -1.
          6    1    1    2  501    0  0.60101666804E+02  0.87940397445E+00 -0.82196315736E+03  0.84211959707E+03  0.17300000000E+03 0. -1.
         -6    1    1    2    0  503 -0.60101666804E+02 -0.87940397445E+00 -0.12442891186E+04  0.12576952708E+04  0.17300000000E+03 0. -1.
<mgrwt>
<rscale>  2 0.18314471E+03</rscale>
<asrwt>0</asrwt>
<pdfrwt beam="1">  1       21 0.25817371E-02 0.18314471E+03</pdfrwt>
<pdfrwt beam="2">  1       21 0.32046679E+00 0.18314471E+03</pdfrwt>
<totfact> 0.21299137E+04</totfact>
</mgrwt>
</event>
<event>
 4    1  0.4336176E+000  0.2707574E+03  0.7546771E-02  0.1100847E+00
         21   -1    0    0  501  502  0.00000000000E+00  0.00000000000E+00  0.42897806759E+02  0.42897806759E+02  0.00000000000E+00 0.  1.
         21   -1    0    0  502  503 -0.00000000000E+00 -0.00000000000E+00 -0.19352912498E+04  0.19352912498E+04  0.00000000000E+00 0.  1.
          6    1    1    2  501    0  0.18349927881E+03  0.98532186906E+02 -0.60792899110E+03  0.66549773508E+03  0.17300000000E+03 0.  1.
         -6    1    1    2    0  503 -0.18349927881E+03 -0.98532186906E+02 -0.12844644520E+04  0.13126913215E+04  0.17300000000E+03 0.  1.
<mgrwt>
<rscale>  2 0.27075741E+03</rscale>
<asrwt>0</asrwt>
<pdfrwt beam="1">  1       21 0.65996621E-02 0.27075741E+03</pdfrwt>
<pdfrwt beam="2">  1       21 0.29773714E+00 0.27075741E+03</pdfrwt>
<totfact> 0.54618597E+03</totfact>
</mgrwt>
</event>
<event>
 4    1  0.4336176E+000  0.1865194E+03  0.7546771E-02  0.1161639E+00
         21   -1    0    0  501  502  0.00000000000E+00  0.00000000000E+00  0.12100349252E+04  0.12100349252E+04  0.00000000000E+00 0. -1.
         21   -1    0    0  502  503 -0.00000000000E+00 -0.00000000000E+00 -0.38632294311E+02  0.38632294311E+02  0.00000000000E+00 0. -1.
          6    1    1    2  501    0  0.37453782186E+02 -0.58802082094E+02  0.90145818194E+03  0.92055218453E+03  0.17300000000E+03 0. -1.
         -6    1    1    2    0  503 -0.37453782186E+02  0.58802082094E+02  0.26994444893E+03  0.32811503496E+03  0.17300000000E+03 0. -1.
<mgrwt>
<rscale>  2 0.18651936E+03</rscale>
<asrwt>0</asrwt>
<pdfrwt beam="1">  1       21 0.18615919E+00 0.18651936E+03</pdfrwt>
<pdfrwt beam="2">  1       21 0.59434308E-02 0.18651936E+03</pdfrwt>
<totfact> 0.33280053E+04</totfact>
</mgrwt>
</event>
<event>
 4    1  0.4336176E+000  0.2041887E+03  0.7546771E-02  0.1146252E+00
         21   -1    0    0  501  502  0.00000000000E+00  0.00000000000E+00  0.17058988358E+03  0.17058988358E+03  0.00000000000E+00 0.  1.
         21   -1    0    0  502  503 -0.00000000000E+00 -0.00000000000E+00 -0.25489211802E+03  0.25489211802E+03  0.00000000000E+00 0. -1.
          6    1    1    2  501    0  0.95711984241E+02  0.51021960121E+02  0.10008506461E+01  0.20419115075E+03  0.17300000000E+03 0.  1.
         -6    1    1    2    0  503 -0.95711984241E+02 -0.51021960121E+02 -0.85303085088E+02  0.22129085084E+03  0.17300000000E+03 0.  1.
<mgrwt>
<rscale>  2 0.20418870E+03</rscale>
<asrwt>0</asrwt>
<pdfrwt beam="1">  1       21 0.26244598E-01 0.20418870E+03</pdfrwt>
<pdfrwt beam="2">  1       21 0.39214172E-01 0.20418870E+03</pdfrwt>
<totfact> 0.86111790E+04</totfact>
</mgrwt>
</event>
<event>
 4    1  0.4336176E+000  0.2095719E+03  0.7546771E-02  0.1141905E+00
         21   -1    0    0  501  502  0.00000000000E+00  0.00000000000E+00  0.12588236338E+03  0.12588236338E+03  0.00000000000E+00 0.  1.
         21   -1    0    0  502  503 -0.00000000000E+00 -0.00000000000E+00 -0.38786304575E+03  0.38786304575E+03  0.00000000000E+00 0. -1.
          6    1    1    2  501    0  0.57560836922E+02 -0.10333507768E+03 -0.49575457858E+02  0.21535578527E+03  0.17300000000E+03 0.  1.
         -6    1    1    2    0  503 -0.57560836922E+02  0.10333507768E+03 -0.21240522452E+03  0.29838962386E+03  0.17300000000E+03 0. -1.
<mgrwt>
<rscale>  2 0.20957192E+03</rscale>
<asrwt>0</asrwt>
<pdfrwt beam="1">  1       21 0.19366517E-01 0.20957192E+03</pdfrwt>
<pdfrwt beam="2">  1       21 0.59671238E-01 0.20957192E+03</pdfrwt>
<totfact> 0.63770838E+04</totfact>
</mgrwt>
</event>
<event>
 4    1  0.4336176E+000  0.2871154E+03  0.7546771E-02  0.1091865E+00
         21   -1    0    0  501  502  0.00000000000E+00  0.00000000000E+00  0.16845507044E+03  0.16845507044E+03  0.00000000000E+00 0. -1.
         21   -1    0    0  502  503 -0.00000000000E+00 -0.00000000000E+00 -0.64468215618E+03  0.64468215618E+03  0.00000000000E+00 0. -1.
          6    1    1    2  501    0 -0.22819623926E+03 -0.20802425702E+02 -0.38551945467E+02  0.28969210729E+03  0.17300000000E+03 0. -1.
         -6    1    1    2    0  503  0.22819623926E+03  0.20802425702E+02 -0.43767514028E+03  0.52344511933E+03  0.17300000000E+03 0. -1.
<mgrwt>
<rscale>  2 0.28711542E+03</rscale>
<asrwt>0</asrwt>
<pdfrwt beam="1">  1       21 0.25916164E-01 0.28711542E+03</pdfrwt>
<pdfrwt beam="2">  1       21 0.99181872E-01 0.28711542E+03</pdfrwt>
<totfact> 0.11205413E+04</totfact>
</mgrwt>
</event>
<event>
 4    1  0.4336176E+000  0.1854283E+03  0.7546771E-02  0.1162651E+00
         21   -1    0    0  501  502  0.00000000000E+00  0.00000000000E+00  0.94143087222E+03  0.94143087222E+03  0.00000000000E+00 0. -1.
         21   -1    0    0  502  503 -0.00000000000E+00 -0.00000000000E+00 -0.76785997185E+02  0.76785997185E+02  0.00000000000E+00 0. -1.
          6    1    1    2  501    0 -0.55767126380E+02  0.36669933886E+02  0.80098039080E+03  0.82216375673E+03  0.17300000000E+03 0. -1.
         -6    1    1    2    0  503  0.55767126380E+02 -0.36669933886E+02  0.63664484233E+02  0.19605311267E+03  0.17300000000E+03 0. -1.
<mgrwt>
<rscale>  2 0.18542831E+03</rscale>
<asrwt>0</asrwt>
<pdfrwt beam="1">  1       21 0.14483551E+00 0.18542831E+03</pdfrwt>
<pdfrwt beam="2">  1       21 0.11813231E-01 0.18542831E+03</pdfrwt>
<totfact> 0.19868439E+04</totfact>
</mgrwt>
</event>
<event>
 4    1  0.4336176E+000  0.2063009E+03  0.7546771E-02  0.1144529E+00
         21   -1    0    0  501  502  0.00000000000E+00  0.00000000000E+00  0.17515882377E+03  0.17515882377E+03  0.00000000000E+00 0. -1.
         21   -1    0    0  502  503 -0.00000000000E+00 -0.00000000000E+00 -0.24572704017E+03  0.24572704017E+03  0.00000000000E+00 0. -1.
          6    1    1    2  501    0 -0.70281854660E+01 -0.11216803309E+03 -0.13032930990E+02  0.20671216783E+03  0.17300000000E+03 0. -1.
         -6    1    1    2    0  503  0.70281854660E+01  0.11216803309E+03 -0.57535285418E+02  0.21417369611E+03  0.17300000000E+03 0. -1.
<mgrwt>
<rscale>  2 0.20630090E+03</rscale>
<asrwt>0</asrwt>
<pdfrwt beam="1">  1       21 0.26947511E-01 0.20630090E+03</pdfrwt>
<pdfrwt beam="2">  1       21 0.37804160E-01 0.20630090E+03</pdfrwt>
<totfact> 0.88021863E+04</totfact>
</mgrwt>
</event>
<event>
 4    1  0.4336176E+000  0.2027944E+03  0.7546771E-02  0.1147403E+00
         21   -1    0    0  503  502  0.00000000000E+00  0.00000000000E+00  0.16594713541E+03  0.16594713541E+03  0.00000000000E+00 0.  1.
         21   -1    0    0  501  503 -0.00000000000E+00 -0.00000000000E+00 -0.33102262962E+03  0.33102262962E+03  0.00000000000E+00 0.  1.
          6    1    1    2  501    0  0.51099051402E+02 -0.92657795629E+02 -0.20711272884E+03  0.28986421406E+03  0.17300000000E+03 0.  1.
         -6    1    1    2    0  502 -0.51099051402E+02  0.92657795629E+02  0.42037234634E+02  0.20710555097E+03  0.17300000000E+03 0.  1.
<mgrwt>
<rscale>  2 0.20279443E+03</rscale>
<asrwt>0</asrwt>
<pdfrwt beam="1">  1       21 0.25530329E-01 0.20279443E+03</pdfrwt>
<pdfrwt beam="2">  1       21 0.50926558E-01 0.20279443E+03</pdfrwt>
<totfact> 0.53100311E+04</totfact>
</mgrwt>
</event>
<event>
 4    1  0.4336176E+000  0.1974405E+03  0.7546771E-02  0.1151917E+00
         21   -1    0    0  503  502  0.00000000000E+00  0.00000000000E+00  0.20857551380E+03  0.20857551380E+03  0.00000000000E+00 0.  1.
         21   -1    0    0  501  503 -0.00000000000E+00 -0.00000000000E+00 -0.34410445104E+03  0.34410445104E+03  0.00000000000E+00 0.  1.
          6    1    1    2  501    0 -0.82211096964E+02  0.47907259285E+02 -0.25454472066E+03  0.32214249141E+03  0.17300000000E+03 0.  1.
         -6    1    1    2    0  502  0.82211096964E+02 -0.47907259285E+02  0.11901578342E+03  0.23053747344E+03  0.17300000000E+03 0.  1.
<mgrwt>
<rscale>  2 0.19744055E+03</rscale>
<asrwt>0</asrwt>
<pdfrwt beam="1">  1       21 0.32088541E-01 0.19744055E+03</pdfrwt>
<pdfrwt beam="2">  1       21 0.52939146E-01 0.19744055E+03</pdfrwt>
<totfact> 0.31499963E+04</totfact>
</mgrwt>
</event>
<event>
 4    1  0.4336176E+000  0.2461406E+03  0.7546771E-02  0.1115768E+00
         21   -1    0    0  503  502  0.00000000000E+00  0.00000000000E+00  0.44844162366E+03  0.44844162366E+03  0.00000000000E+00 0.  1.
         21   -1    0    0  501  503 -0.00000000000E+00 -0.00000000000E+00 -0.14194984879E+03  0.14194984879E+03  0.00000000000E+00 0. -1.
          6    1    1    2  501    0  0.13454156151E+03 -0.11204805556E+03  0.88407660676E+02  0.26153606442E+03  0.17300000000E+03 0. -1.
         -6    1    1    2    0  502 -0.13454156151E+03  0.11204805556E+03  0.21808411419E+03  0.32885540803E+03  0.17300000000E+03 0.  1.
<mgrwt>
<rscale>  2 0.24614061E+03</rscale>
<asrwt>0</asrwt>
<pdfrwt beam="1">  1       21 0.68991018E-01 0.24614061E+03</pdfrwt>
<pdfrwt beam="2">  1       21 0.21838439E-01 0.24614061E+03</pdfrwt>
<totfact> 0.36480581E+04</totfact>
</mgrwt>
</event>
<event>
 4    1  0.4336176E+000  0.2051863E+03  0.7546771E-02  0.1145436E+00
         21   -1    0    0  501  502  0.00000000000E+00  0.00000000000E+00  0.80953359579E+03  0.80953359579E+03  0.00000000000E+00 0.  1.
         21   -1    0    0  502  503 -0.00000000000E+00 -0.00000000000E+00 -0.65046918845E+02  0.65046918845E+02  0.00000000000E+00 0.  1.
          6    1    1    2  501    0  0.79017011079E+02  0.76998202370E+02  0.56803488308E+03  0.60395781276E+03  0.17300000000E+03 0.  1.
         -6    1    1    2    0  503 -0.79017011079E+02 -0.76998202370E+02  0.17645179387E+03  0.27062270187E+03  0.17300000000E+03 0.  1.
<mgrwt>
<rscale>  2 0.20518628E+03</rscale>
<asrwt>0</asrwt>
<pdfrwt beam="1">  1       21 0.12454362E+00 0.20518628E+03</pdfrwt>
<pdfrwt beam="2">  1       21 0.10007219E-01 0.20518628E+03</pdfrwt>
<totfact> 0.38739336E+04</totfact>
</mgrwt>
</event>
<event>
 4    1  0.4336176E+000  0.3190057E+03  0.7546771E-02  0.1076108E+00
         21   -1    0    0  501  502  0.00000000000E+00  0.00000000000E+00  0.68622629187E+03  0.68622629187E+03  0.00000000000E+00 0. -1.
         21   -1    0    0  502  503 -0.00000000000E+00 -0.00000000000E+00 -0.16595664238E+03  0.16595664238E+03  0.00000000000E+00 0.  1.
          6    1    1    2  501    0 -0.17327913753E+03 -0.20447488074E+03  0.39913276612E+03  0.51095166243E+03  0.17300000000E+03 0. -1.
         -6    1    1    2    0  503  0.17327913753E+03  0.20447488074E+03  0.12113688337E+03  0.34123127182E+03  0.17300000000E+03 0.  1.
<mgrwt>
<rscale>  2 0.31900570E+03</rscale>
<asrwt>0</asrwt>
<pdfrwt beam="1">  1       21 0.10557327E+00 0.31900570E+03</pdfrwt>
<pdfrwt beam="2">  1       21 0.25531791E-01 0.31900570E+03</pdfrwt>
<totfact> 0.97733922E+03</totfact>
</mgrwt>
</event>
<event>
 4    1  0.4336176E+000  0.1878003E+03  0.7546771E-02  0.1160460E+00
         21   -1    0    0  503  502  0.00000000000E+00  0.00000000000E+00  0.55542380784E+02  0.55542380784E+02  0.00000000000E+00 0.  1.
         21   -1    0    0  501  503 -0.00000000000E+00 -0.00000000000E+00 -0.70192251316E+03  0.70192251316E+03  0.00000000000E+00 0. -1.
          6    1    1    2  501    0  0.25426374634E+02 -0.68508818171E+02 -0.44014014456E+03  0.47853140498E+03  0.17300000000E+03 0. -1.
         -6    1    1    2    0  502 -0.25426374634E+02  0.68508818171E+02 -0.20623998782E+03  0.27893348897E+03  0.17300000000E+03 0.  1.
<mgrwt>
<rscale>  2 0.18780032E+03</rscale>
<asrwt>0</asrwt>
<pdfrwt beam="1">  1       21 0.85449819E-02 0.18780032E+03</pdfrwt>
<pdfrwt beam="2">  1       21 0.10798808E+00 0.18780032E+03</pdfrwt>
<totfact> 0.73212287E+04</totfact>
</mgrwt>
</event>
<event>
 4    1  0.4336176E+000  0.1792027E+03  0.7546771E-02  0.1168577E+00
         21   -1    0    0  503  502  0.00000000000E+00  0.00000000000E+00  0.21323486971E+03  0.21323486971E+03  0.00000000000E+00 0. -1.
         21   -1    0    0  501  503 -0.00000000000E+00 -0.00000000000E+00 -0.26283466487E+03  0.26283466487E+03  0.00000000000E+00 0. -1.
          6    1    1    2  501    0 -0.82942161459E+01 -0.45997894434E+02 -0.18034584058E+03  0.25424048169E+03  0.17300000000E+03 0. -1.
         -6    1    1    2    0  502  0.82942161459E+01  0.45997894434E+02  0.13074604542E+03  0.22182905289E+03  0.17300000000E+03 0. -1.
<mgrwt>
<rscale>  2 0.17920268E+03</rscale>
<asrwt>0</asrwt>
<pdfrwt beam="1">  1       21 0.32805365E-01 0.17920268E+03</pdfrwt>
<pdfrwt beam="2">  1       21 0.40436102E-01 0.17920268E+03</pdfrwt>
<totfact> 0.53036107E+04</totfact>
</mgrwt>
</event>
<event>
 4    1  0.4336176E+000  0.1838030E+03  0.7546771E-02  0.1164172E+00
         21   -1    0    0  501  502  0.00000000000E+00  0.00000000000E+00  0.42592234534E+03  0.42592234534E+03  0.00000000000E+00 0.  1.
         21   -1    0    0  502  503 -0.00000000000E+00 -0.00000000000E+00 -0.81531186697E+02  0.81531186697E+02  0.00000000000E+00 0.  1.
          6    1    1    2  501    0 -0.38769179023E+02  0.48492232455E+02  0.21399389342E+03  0.28209383593E+03  0.17300000000E+03 0.  1.
         -6    1    1    2    0  503  0.38769179023E+02 -0.48492232455E+02  0.13039726523E+03  0.22535969611E+03  0.17300000000E+03 0.  1.
<mgrwt>
<rscale>  2 0.18380301E+03</rscale>
<asrwt>0</asrwt>
<pdfrwt beam="1">  1       21 0.65526513E-01 0.18380301E+03</pdfrwt>
<pdfrwt beam="2">  1       21 0.12543260E-01 0.18380301E+03</pdfrwt>
<totfact> 0.11645868E+05</totfact>
</mgrwt>
</event>
<event>
 4    1  0.4336176E+000  0.2236709E+03  0.7546771E-02  0.1131175E+00
         21   -1    0    0  503  502  0.00000000000E+00  0.00000000000E+00  0.15345278743E+04  0.15345278743E+04  0.00000000000E+00 0. -1.
         21   -1    0    0  501  503 -0.00000000000E+00 -0.00000000000E+00 -0.35007120452E+02  0.35007120452E+02  0.00000000000E+00 0. -1.
          6    1    1    2  501    0  0.44076139069E+02  0.13474773062E+03  0.54406124752E+03  0.58824425029E+03  0.17300000000E+03 0. -1.
         -6    1    1    2    0  502 -0.44076139069E+02 -0.13474773062E+03  0.95545950634E+03  0.98129074448E+03  0.17300000000E+03 0. -1.
<mgrwt>
<rscale>  2 0.22367087E+03</rscale>
<asrwt>0</asrwt>
<pdfrwt beam="1">  1       21 0.23608116E+00 0.22367087E+03</pdfrwt>
<pdfrwt beam="2">  1       21 0.53857120E-02 0.22367087E+03</pdfrwt>
<totfact> 0.18589769E+04</totfact>
</mgrwt>
</event>
<event>
 4    1  0.4336176E+000  0.2532392E+03  0.7546771E-02  0.1111275E+00
         21   -1    0    0  503  502  0.00000000000E+00  0.00000000000E+00  0.30125247275E+03  0.30125247275E+03  0.00000000000E+00 0.  1.
         21   -1    0    0  501  503 -0.00000000000E+00 -0.00000000000E+00 -0.40827652654E+03  0.40827652654E+03  0.00000000000E+00 0. -1.
          6    1    1    2  501    0  0.32523878713E+02 -0.18205298996E+03 -0.29893958885E+03  0.39178434326E+03  0.17300000000E+03 0. -1.
         -6    1    1    2    0  502 -0.32523878713E+02  0.18205298996E+03  0.19191553506E+03  0.31774465603E+03  0.17300000000E+03 0.  1.
<mgrwt>
<rscale>  2 0.25323920E+03</rscale>
<asrwt>0</asrwt>
<pdfrwt beam="1">  1       21 0.46346535E-01 0.25323920E+03</pdfrwt>
<pdfrwt beam="2">  1       21 0.62811773E-01 0.25323920E+03</pdfrwt>
<totfact> 0.10085030E+04</totfact>
</mgrwt>
</event>
<event>
 4    1  0.4336176E+000  0.1836044E+03  0.7546771E-02  0.1164360E+00
         21   -1    0    0  503  502  0.00000000000E+00  0.00000000000E+00  0.14981229698E+03  0.14981229698E+03  0.00000000000E+00 0. -1.
         21   -1    0    0  501  503 -0.00000000000E+00 -0.00000000000E+00 -0.22888288616E+03  0.22888288616E+03  0.00000000000E+00 0. -1.
          6    1    1    2  501    0  0.60537099783E+02  0.10809414282E+02 -0.64137628123E+02  0.19448449611E+03  0.17300000000E+03 0.  1.
         -6    1    1    2    0  502 -0.60537099783E+02 -0.10809414282E+02 -0.14932961056E+02  0.18421068702E+03  0.17300000000E+03 0.  1.
<mgrwt>
<rscale>  2 0.18360442E+03</rscale>
<asrwt>0</asrwt>
<pdfrwt beam="1">  1       21 0.23048046E-01 0.18360442E+03</pdfrwt>
<pdfrwt beam="2">  1       21 0.35212751E-01 0.18360442E+03</pdfrwt>
<totfact> 0.13786735E+05</totfact>
</mgrwt>
</event>
<event>
 4    1  0.4336176E+000  0.2123666E+03  0.7546771E-02  0.1139705E+00
         21   -1    0    0  501  502  0.00000000000E+00  0.00000000000E+00  0.31339227820E+03  0.31339227820E+03  0.00000000000E+00 0. -1.
         21   -1    0    0  502  503 -0.00000000000E+00 -0.00000000000E+00 -0.14653282795E+03  0.14653282795E+03  0.00000000000E+00 0. -1.
          6    1    1    2  501    0  0.11992985436E+03 -0.28060770779E+02  0.11420918321E+03  0.24112924823E+03  0.17300000000E+03 0. -1.
         -6    1    1    2    0  503 -0.11992985436E+03  0.28060770779E+02  0.52650267047E+02  0.21879585792E+03  0.17300000000E+03 0. -1.
<mgrwt>
<rscale>  2 0.21236661E+03</rscale>
<asrwt>0</asrwt>
<pdfrwt beam="1">  1       21 0.48214197E-01 0.21236661E+03</pdfrwt>
<pdfrwt beam="2">  1       21 0.22543512E-01 0.21236661E+03</pdfrwt>
<totfact> 0.75116416E+04</totfact>
</mgrwt>
</event>
<event>
 4    1  0.4336176E+000  0.2842142E+03  0.7546771E-02  0.1093409E+00
         21   -1    0    0  501  502  0.00000000000E+00  0.00000000000E+00  0.61156631192E+03  0.61156631192E+03  0.00000000000E+00 0.  1.
         21   -1    0    0  502  503 -0.00000000000E+00 -0.00000000000E+00 -0.27860126210E+03  0.27860126210E+03  0.00000000000E+00 0. -1.
          6    1    1    2  501    0 -0.21799991999E+03  0.57660472549E+02  0.48925439099E+03  0.56581583073E+03  0.17300000000E+03 0.  1.
         -6    1    1    2    0  503  0.21799991999E+03 -0.57660472549E+02 -0.15628934117E+03  0.32435174329E+03  0.17300000000E+03 0. -1.
<mgrwt>
<rscale>  2 0.28421417E+03</rscale>
<asrwt>0</asrwt>
<pdfrwt beam="1">  1       21 0.94087125E-01 0.28421417E+03</pdfrwt>
<pdfrwt beam="2">  1       21 0.42861733E-01 0.28421417E+03</pdfrwt>
<totfact> 0.46658536E+03</totfact>
</mgrwt>
</event>
<event>
 4    1  0.4336176E+000  0.1851126E+03  0.7546771E-02  0.1162945E+00
         21   -1    0    0  501  502  0.00000000000E+00  0.00000000000E+00  0.15048320817E+02  0.15048320817E+02  0.00000000000E+00 0. -1.
         21   -1    0    0  502  503 -0.00000000000E+00 -0.00000000000E+00 -0.23080072715E+04  0.23080072715E+04  0.00000000000E+00 0. -1.
          6    1    1    2  501    0  0.34590374889E+02  0.56046391812E+02 -0.10120896789E+04  0.10288791038E+04  0.17300000000E+03 0. -1.
         -6    1    1    2    0  503 -0.34590374889E+02 -0.56046391812E+02 -0.12808692718E+04  0.12941764885E+04  0.17300000000E+03 0. -1.
<mgrwt>
<rscale>  2 0.18511265E+03</rscale>
<asrwt>0</asrwt>
<pdfrwt beam="1">  1       21 0.23151277E-02 0.18511265E+03</pdfrwt>
<pdfrwt beam="2">  1       21 0.35507783E+00 0.18511265E+03</pdfrwt>
<totfact> 0.15959449E+04</totfact>
</mgrwt>
</event>
<event>
 4    1  0.4336176E+000  0.1879810E+03  0.7546771E-02  0.1160295E+00
         21   -1    0    0  503  502  0.00000000000E+00  0.00000000000E+00  0.59827342295E+02  0.59827342295E+02  0.00000000000E+00 0. -1.
         21   -1    0    0  501  503 -0.00000000000E+00 -0.00000000000E+00 -0.87157784580E+03  0.87157784580E+03  0.00000000000E+00 0. -1.
          6    1    1    2  501    0  0.47708077603E+02 -0.55962561911E+02 -0.67027126821E+03  0.69613248882E+03  0.17300000000E+03 0. -1.
         -6    1    1    2    0  502 -0.47708077603E+02  0.55962561911E+02 -0.14147923530E+03  0.23527269927E+03  0.17300000000E+03 0. -1.
<mgrwt>
<rscale>  2 0.18798103E+03</rscale>
<asrwt>0</asrwt>
<pdfrwt beam="1">  1       21 0.92042064E-02 0.18798103E+03</pdfrwt>
<pdfrwt beam="2">  1       21 0.13408890E+00 0.18798103E+03</pdfrwt>
<totfact> 0.37631706E+04</totfact>
</mgrwt>
</event>
<event>
 4    1  0.4336176E+000  0.2024445E+03  0.7546771E-02  0.1147693E+00
         21   -1    0    0  503  502  0.00000000000E+00  0.00000000000E+00  0.20472150082E+02  0.20472150082E+02  0.00000000000E+00 0.  1.
         21   -1    0    0  501  503 -0.00000000000E+00 -0.00000000000E+00 -0.20036223443E+04  0.20036223443E+04  0.00000000000E+00 0.  1.
          6    1    1    2  501    0  0.69384849556E+02 -0.78996900540E+02 -0.10210065286E+04  0.10408833263E+04  0.17300000000E+03 0.  1.
         -6    1    1    2    0  502 -0.69384849556E+02  0.78996900540E+02 -0.96214366567E+03  0.98321116808E+03  0.17300000000E+03 0.  1.
<mgrwt>
<rscale>  2 0.20244448E+03</rscale>
<asrwt>0</asrwt>
<pdfrwt beam="1">  1       21 0.31495615E-02 0.20244448E+03</pdfrwt>
<pdfrwt beam="2">  1       21 0.30824960E+00 0.20244448E+03</pdfrwt>
<totfact> 0.17685082E+04</totfact>
</mgrwt>
</event>
<event>
 4    1  0.4336176E+000  0.1993818E+03  0.7546771E-02  0.1150262E+00
         21   -1    0    0  503  502  0.00000000000E+00  0.00000000000E+00  0.16055218317E+04  0.16055218317E+04  0.00000000000E+00 0.  1.
         21   -1    0    0  501  503 -0.00000000000E+00 -0.00000000000E+00 -0.52126846005E+02  0.52126846005E+02  0.00000000000E+00 0.  1.
          6    1    1    2  501    0 -0.29222123727E+02 -0.94710992090E+02  0.17615706611E+03  0.26605340907E+03  0.17300000000E+03 0. -1.
         -6    1    1    2    0  502  0.29222123727E+02  0.94710992090E+02  0.13772379196E+04  0.13915952686E+04  0.17300000000E+03 0. -1.
<mgrwt>
<rscale>  2 0.19938181E+03</rscale>
<asrwt>0</asrwt>
<pdfrwt beam="1">  1       21 0.24700332E+00 0.19938181E+03</pdfrwt>
<pdfrwt beam="2">  1       21 0.80195160E-02 0.19938181E+03</pdfrwt>
<totfact> 0.82218305E+03</totfact>
</mgrwt>
</event>
<event>
 4    1  0.4336176E+000  0.3157648E+03  0.7546771E-02  0.1077615E+00
         21   -1    0    0  501  502  0.00000000000E+00  0.00000000000E+00  0.12012035516E+03  0.12012035516E+03  0.00000000000E+00 0. -1.
         21   -1    0    0  502  503 -0.00000000000E+00 -0.00000000000E+00 -0.86233805119E+03  0.86233805119E+03  0.00000000000E+00 0.  1.
          6    1    1    2  501    0 -0.15632382806E+03  0.21293484947E+03 -0.27607398296E+03  0.41943322878E+03  0.17300000000E+03 0. -1.
         -6    1    1    2    0  503  0.15632382806E+03 -0.21293484947E+03 -0.46614371307E+03  0.56302517757E+03  0.17300000000E+03 0.  1.
<mgrwt>
<rscale>  2 0.31576477E+03</rscale>
<asrwt>0</asrwt>
<pdfrwt beam="1">  1       21 0.18480055E-01 0.31576477E+03</pdfrwt>
<pdfrwt beam="2">  1       21 0.13266739E+00 0.31576477E+03</pdfrwt>
<totfact> 0.10222901E+04</totfact>
</mgrwt>
</event>
<event>
 4    1  0.4336176E+000  0.1867331E+03  0.7546771E-02  0.1161441E+00
         21   -1    0    0  503  502  0.00000000000E+00  0.00000000000E+00  0.82430298074E+02  0.82430298074E+02  0.00000000000E+00 0. -1.
         21   -1    0    0  501  503 -0.00000000000E+00 -0.00000000000E+00 -0.71314819839E+03  0.71314819839E+03  0.00000000000E+00 0. -1.
          6    1    1    2  501    0  0.51523074357E+02  0.47808359102E+02 -0.56908305727E+03  0.59893638432E+03  0.17300000000E+03 0. -1.
         -6    1    1    2    0  502 -0.51523074357E+02 -0.47808359102E+02 -0.61634843048E+02  0.19664211215E+03  0.17300000000E+03 0. -1.
<mgrwt>
<rscale>  2 0.18673314E+03</rscale>
<asrwt>0</asrwt>
<pdfrwt beam="1">  1       21 0.12681584E-01 0.18673314E+03</pdfrwt>
<pdfrwt beam="2">  1       21 0.10971511E+00 0.18673314E+03</pdfrwt>
<totfact> 0.35044345E+04</totfact>
</mgrwt>
</event>
<event>
 4    1  0.4336176E+000  0.1993436E+03  0.7546771E-02  0.1150294E+00
         21   -1    0    0  503  502  0.00000000000E+00  0.00000000000E+00  0.14298111031E+04  0.14298111031E+04  0.00000000000E+00 0. -1.
         21   -1    0    0  501  503 -0.00000000000E+00 -0.00000000000E+00 -0.28045859122E+02  0.28045859122E+02  0.00000000000E+00 0. -1.
          6    1    1    2  501    0 -0.39689352140E+02  0.90739299887E+02  0.63158559135E+03  0.66229768565E+03  0.17300000000E+03 0. -1.
         -6    1    1    2    0  502  0.39689352140E+02 -0.90739299887E+02  0.77017965266E+03  0.79555927660E+03  0.17300000000E+03 0. -1.
<mgrwt>
<rscale>  2 0.19934359E+03</rscale>
<asrwt>0</asrwt>
<pdfrwt beam="1">  1       21 0.21997088E+00 0.19934359E+03</pdfrwt>
<pdfrwt beam="2">  1       21 0.43147487E-02 0.19934359E+03</pdfrwt>
<totfact> 0.34553076E+04</totfact>
</mgrwt>
</event>
<event>
 4    1  0.4336176E+000  0.1775126E+03  0.7546771E-02  0.1170232E+00
         21   -1    0    0  501  502  0.00000000000E+00  0.00000000000E+00  0.85176113172E+02  0.85176113172E+02  0.00000000000E+00 0. -1.
         21   -1    0    0  502  503 -0.00000000000E+00 -0.00000000000E+00 -0.39203155046E+03  0.39203155046E+03  0.00000000000E+00 0. -1.
          6    1    1    2  501    0 -0.36229659784E+02 -0.16405371740E+02 -0.96796969773E+02  0.20218896564E+03  0.17300000000E+03 0. -1.
         -6    1    1    2    0  503  0.36229659784E+02  0.16405371740E+02 -0.21005846752E+03  0.27501869799E+03  0.17300000000E+03 0. -1.
<mgrwt>
<rscale>  2 0.17751260E+03</rscale>
<asrwt>0</asrwt>
<pdfrwt beam="1">  1       21 0.13104017E-01 0.17751260E+03</pdfrwt>
<pdfrwt beam="2">  1       21 0.60312546E-01 0.17751260E+03</pdfrwt>
<totfact> 0.12907951E+05</totfact>
</mgrwt>
</event>
<event>
 4    1  0.4336176E+000  0.1821761E+03  0.7546771E-02  0.1165713E+00
         21   -1    0    0  501  502  0.00000000000E+00  0.00000000000E+00  0.36091698503E+02  0.36091698503E+02  0.00000000000E+00 0. -1.
         21   -1    0    0  502  503 -0.00000000000E+00 -0.00000000000E+00 -0.11218564771E+04  0.11218564771E+04  0.00000000000E+00 0. -1.
          6    1    1    2  501    0  0.54212544780E+02  0.17892001620E+02 -0.29701818693E+03  0.34843640324E+03  0.17300000000E+03 0. -1.
         -6    1    1    2    0  503 -0.54212544780E+02 -0.17892001620E+02 -0.78874659164E+03  0.80951177234E+03  0.17300000000E+03 0. -1.
<mgrwt>
<rscale>  2 0.18217608E+03</rscale>
<asrwt>0</asrwt>
<pdfrwt beam="1">  1       21 0.55525691E-02 0.18217608E+03</pdfrwt>
<pdfrwt beam="2">  1       21 0.17259330E+00 0.18217608E+03</pdfrwt>
<totfact> 0.46359110E+04</totfact>
</mgrwt>
</event>
<event>
 4    1  0.4336176E+000  0.1849459E+03  0.7546771E-02  0.1163100E+00
         21   -1    0    0  503  502  0.00000000000E+00  0.00000000000E+00  0.34560853041E+03  0.34560853041E+03  0.00000000000E+00 0.  1.
         21   -1    0    0  501  503 -0.00000000000E+00 -0.00000000000E+00 -0.10054637046E+03  0.10054637046E+03  0.00000000000E+00 0. -1.
          6    1    1    2  501    0  0.29873787617E+02  0.58168294815E+02  0.94602117819E+02  0.20773674303E+03  0.17300000000E+03 0. -1.
         -6    1    1    2    0  502 -0.29873787617E+02 -0.58168294815E+02  0.15046004213E+03  0.23841815784E+03  0.17300000000E+03 0.  1.
<mgrwt>
<rscale>  2 0.18494592E+03</rscale>
<asrwt>0</asrwt>
<pdfrwt beam="1">  1       21 0.53170543E-01 0.18494592E+03</pdfrwt>
<pdfrwt beam="2">  1       21 0.15468673E-01 0.18494592E+03</pdfrwt>
<totfact> 0.12458057E+05</totfact>
</mgrwt>
</event>
<event>
 4    1  0.4336176E+000  0.2129982E+03  0.7546771E-02  0.1139214E+00
         21   -1    0    0  501  502  0.00000000000E+00  0.00000000000E+00  0.13226540233E+04  0.13226540233E+04  0.00000000000E+00 0.  1.
         21   -1    0    0  502  503 -0.00000000000E+00 -0.00000000000E+00 -0.34686841953E+02  0.34686841953E+02  0.00000000000E+00 0.  1.
          6    1    1    2  501    0  0.12420051739E+03  0.36686927299E+01  0.57239634455E+03  0.61074201025E+03  0.17300000000E+03 0.  1.
         -6    1    1    2    0  503 -0.12420051739E+03 -0.36686927299E+01  0.71557083681E+03  0.74659885502E+03  0.17300000000E+03 0.  1.
<mgrwt>
<rscale>  2 0.21299819E+03</rscale>
<asrwt>0</asrwt>
<pdfrwt beam="1">  1       21 0.20348520E+00 0.21299819E+03</pdfrwt>
<pdfrwt beam="2">  1       21 0.53364383E-02 0.21299819E+03</pdfrwt>
<totfact> 0.30282692E+04</totfact>
</mgrwt>
</event>
<event>
 4    1  0.4336176E+000  0.1774300E+03  0.7546771E-02  0.1170314E+00
         21   -1    0    0  501  502  0.00000000000E+00  0.00000000000E+00  0.70632725026E+02  0.70632725026E+02  0.00000000000E+00 0.  1.
         21   -1    0    0  502  503 -0.00000000000E+00 -0.00000000000E+00 -0.45056015101E+03  0.45056015101E+03  0.00000000000E+00 0.  1.
          6    1    1    2  501    0 -0.33213789213E+02 -0.21195435502E+02 -0.16291380047E+03  0.24087820297E+03  0.17300000000E+03 0.  1.
         -6    1    1    2    0  503  0.33213789213E+02  0.21195435502E+02 -0.21701362551E+03  0.28031467307E+03  0.17300000000E+03 0.  1.
<mgrwt>
<rscale>  2 0.17742999E+03</rscale>
<asrwt>0</asrwt>
<pdfrwt beam="1">  1       21 0.10866572E-01 0.17742999E+03</pdfrwt>
<pdfrwt beam="2">  1       21 0.69316950E-01 0.17742999E+03</pdfrwt>
<totfact> 0.13331684E+05</totfact>
</mgrwt>
</event>
<event>
 4    1  0.4336176E+000  0.2897156E+03  0.7546771E-02  0.1090498E+00
         21   -1    0    0  503  502  0.00000000000E+00  0.00000000000E+00  0.25502100855E+03  0.25502100855E+03  0.00000000000E+00 0.  1.
         21   -1    0    0  501  503 -0.00000000000E+00 -0.00000000000E+00 -0.50976528886E+03  0.50976528886E+03  0.00000000000E+00 0.  1.
          6    1    1    2  501    0 -0.71084578153E+02 -0.22125355229E+03 -0.35500023357E+03  0.45821427028E+03  0.17300000000E+03 0.  1.
         -6    1    1    2    0  502  0.71084578153E+02  0.22125355229E+03  0.10025595326E+03  0.30657202713E+03  0.17300000000E+03 0.  1.
<mgrwt>
<rscale>  2 0.28971564E+03</rscale>
<asrwt>0</asrwt>
<pdfrwt beam="1">  1       21 0.39234001E-01 0.28971564E+03</pdfrwt>
<pdfrwt beam="2">  1       21 0.78425429E-01 0.28971564E+03</pdfrwt>
<totfact> 0.85044637E+03</totfact>
</mgrwt>
</event>
<event>
 4    1  0.4336176E+000  0.2085942E+03  0.7546771E-02  0.1142684E+00
         21   -1    0    0  503  502  0.00000000000E+00  0.00000000000E+00  0.24461080255E+03  0.24461080255E+03  0.00000000000E+00 0. -1.
         21   -1    0    0  501  503 -0.00000000000E+00 -0.00000000000E+00 -0.18381593661E+03  0.18381593661E+03  0.00000000000E+00 0. -1.
          6    1    1    2  501    0 -0.10110133635E+03 -0.57974719993E+02 -0.80947796579E+01  0.20875122473E+03  0.17300000000E+03 0. -1.
         -6    1    1    2    0  502  0.10110133635E+03  0.57974719993E+02  0.68889645590E+02  0.21967551443E+03  0.17300000000E+03 0. -1.
<mgrwt>
<rscale>  2 0.20859422E+03</rscale>
<asrwt>0</asrwt>
<pdfrwt beam="1">  1       21 0.37632431E-01 0.20859422E+03</pdfrwt>
<pdfrwt beam="2">  1       21 0.28279375E-01 0.20859422E+03</pdfrwt>
<totfact> 0.80840322E+04</totfact>
</mgrwt>
</event>
<event>
 4    1  0.4336176E+000  0.2464104E+03  0.7546771E-02  0.1115595E+00
         21   -1    0    0  501  502  0.00000000000E+00  0.00000000000E+00  0.15387444220E+03  0.15387444220E+03  0.00000000000E+00 0.  1.
         21   -1    0    0  502  503 -0.00000000000E+00 -0.00000000000E+00 -0.54892511143E+03  0.54892511143E+03  0.00000000000E+00 0. -1.
          6    1    1    2  501    0  0.16193598917E+03 -0.67571029768E+02 -0.11200795646E+02  0.24666488700E+03  0.17300000000E+03 0.  1.
         -6    1    1    2    0  503 -0.16193598917E+03  0.67571029768E+02 -0.38384987359E+03  0.45613466663E+03  0.17300000000E+03 0. -1.
<mgrwt>
<rscale>  2 0.24641045E+03</rscale>
<asrwt>0</asrwt>
<pdfrwt beam="1">  1       21 0.23672991E-01 0.24641045E+03</pdfrwt>
<pdfrwt beam="2">  1       21 0.84450018E-01 0.24641045E+03</pdfrwt>
<totfact> 0.19830601E+04</totfact>
</mgrwt>
</event>
<event>
 4    1  0.4336176E+000  0.2000957E+03  0.7546771E-02  0.1149658E+00
         21   -1    0    0  501  502  0.00000000000E+00  0.00000000000E+00  0.19574666914E+03  0.19574666914E+03  0.00000000000E+00 0.  1.
         21   -1    0    0  502  503 -0.00000000000E+00 -0.00000000000E+00 -0.21199135067E+03  0.21199135067E+03  0.00000000000E+00 0.  1.
          6    1    1    2  501    0 -0.73796014664E+02 -0.68289303054E+02 -0.46340642222E+02  0.20539166442E+03  0.17300000000E+03 0.  1.
         -6    1    1    2    0  503  0.73796014664E+02  0.68289303054E+02  0.30095960693E+02  0.20234635540E+03  0.17300000000E+03 0.  1.
<mgrwt>
<rscale>  2 0.20009568E+03</rscale>
<asrwt>0</asrwt>
<pdfrwt beam="1">  1       21 0.30114872E-01 0.20009568E+03</pdfrwt>
<pdfrwt beam="2">  1       21 0.32614054E-01 0.20009568E+03</pdfrwt>
<totfact> 0.95409582E+04</totfact>
</mgrwt>
</event>
<event>
 4    1  0.4336176E+000  0.2886981E+03  0.7546771E-02  0.1091031E+00
         21   -1    0    0  501  502  0.00000000000E+00  0.00000000000E+00  0.21099959507E+03  0.21099959507E+03  0.00000000000E+00 0. -1.
         21   -1    0    0  502  503 -0.00000000000E+00 -0.00000000000E+00 -0.55543501634E+03  0.55543501634E+03  0.00000000000E+00 0.  1.
          6    1    1    2  501    0 -0.13929439105E+03 -0.18443062292E+03  0.33734705955E+02  0.29066236845E+03  0.17300000000E+03 0. -1.
         -6    1    1    2    0  503  0.13929439105E+03  0.18443062292E+03 -0.37817012722E+03  0.47577224296E+03  0.17300000000E+03 0.  1.
<mgrwt>
<rscale>  2 0.28869808E+03</rscale>
<asrwt>0</asrwt>
<pdfrwt beam="1">  1       21 0.32461476E-01 0.28869808E+03</pdfrwt>
<pdfrwt beam="2">  1       21 0.85451541E-01 0.28869808E+03</pdfrwt>
<totfact> 0.10225009E+04</totfact>
</mgrwt>
</event>
<event>
 4    1  0.4336176E+000  0.2012678E+03  0.7546771E-02  0.1148674E+00
         21   -1    0    0  503  502  0.00000000000E+00  0.00000000000E+00  0.80798542762E+02  0.80798542762E+02  0.00000000000E+00 0.  1.
         21   -1    0    0  501  503 -0.00000000000E+00 -0.00000000000E+00 -0.54640598218E+03  0.54640598218E+03  0.00000000000E+00 0. -1.
          6    1    1    2  501    0  0.86325719423E+02 -0.55924810435E+02 -0.32285210545E+03  0.38044999179E+03  0.17300000000E+03 0. -1.
         -6    1    1    2    0  502 -0.86325719423E+02  0.55924810435E+02 -0.14275533396E+03  0.24675453315E+03  0.17300000000E+03 0.  1.
<mgrwt>
<rscale>  2 0.20126777E+03</rscale>
<asrwt>0</asrwt>
<pdfrwt beam="1">  1       21 0.12430545E-01 0.20126777E+03</pdfrwt>
<pdfrwt beam="2">  1       21 0.84062460E-01 0.20126777E+03</pdfrwt>
<totfact> 0.67435561E+04</totfact>
</mgrwt>
</event>
<event>
 4    1  0.4336176E+000  0.2474633E+03  0.7546771E-02  0.1114919E+00
         21   -1    0    0  503  502  0.00000000000E+00  0.00000000000E+00  0.19689869320E+03  0.19689869320E+03  0.00000000000E+00 0.  1.
         21   -1    0    0  501  503 -0.00000000000E+00 -0.00000000000E+00 -0.36382845797E+03  0.36382845797E+03  0.00000000000E+00 0. -1.
          6    1    1    2  501    0 -0.88078837341E+02 -0.15346394783E+03 -0.19028512004E+03  0.31216420644E+03  0.17300000000E+03 0.  1.
         -6    1    1    2    0  502  0.88078837341E+02  0.15346394783E+03  0.23355355268E+02  0.24856294473E+03  0.17300000000E+03 0. -1.
<mgrwt>
<rscale>  2 0.24746326E+03</rscale>
<asrwt>0</asrwt>
<pdfrwt beam="1">  1       21 0.30292107E-01 0.24746326E+03</pdfrwt>
<pdfrwt beam="2">  1       21 0.55973609E-01 0.24746326E+03</pdfrwt>
<totfact> 0.30573337E+04</totfact>
</mgrwt>
</event>
<event>
 4    1  0.4336176E+000  0.1835055E+03  0.7546771E-02  0.1164453E+00
         21   -1    0    0  503  502  0.00000000000E+00  0.00000000000E+00  0.60269416115E+02  0.60269416115E+02  0.00000000000E+00 0. -1.
         21   -1    0    0  501  503 -0.00000000000E+00 -0.00000000000E+00 -0.20706491288E+04  0.20706491288E+04  0.00000000000E+00 0.  1.
          6    1    1    2  501    0  0.50287851254E+02  0.34877107861E+02 -0.19156228687E+04  0.19243921783E+04  0.17300000000E+03 0.  1.
         -6    1    1    2    0  502 -0.50287851254E+02 -0.34877107861E+02 -0.94756843950E+02  0.20652636663E+03  0.17300000000E+03 0. -1.
<mgrwt>
<rscale>  2 0.18350553E+03</rscale>
<asrwt>0</asrwt>
<pdfrwt beam="1">  1       21 0.92722193E-02 0.18350553E+03</pdfrwt>
<pdfrwt beam="2">  1       21 0.31856136E+00 0.18350553E+03</pdfrwt>
<totfact> 0.25033147E+03</totfact>
</mgrwt>
</event>
<event>
 4    1  0.4336176E+000  0.1807554E+03  0.7546771E-02  0.1167074E+00
         21   -1    0    0  501  502  0.00000000000E+00  0.00000000000E+00  0.22114431292E+02  0.22114431292E+02  0.00000000000E+00 0.  1.
         21   -1    0    0  502  503 -0.00000000000E+00 -0.00000000000E+00 -0.19393005379E+04  0.19393005379E+04  0.00000000000E+00 0.  1.
          6    1    1    2  501    0 -0.52368085788E+02 -0.10473794436E+01 -0.47998798794E+03  0.51289470847E+03  0.17300000000E+03 0.  1.
         -6    1    1    2    0  503  0.52368085788E+02  0.10473794436E+01 -0.14371981187E+04  0.14485202608E+04  0.17300000000E+03 0.  1.
<mgrwt>
<rscale>  2 0.18075540E+03</rscale>
<asrwt>0</asrwt>
<pdfrwt beam="1">  1       21 0.34022210E-02 0.18075540E+03</pdfrwt>
<pdfrwt beam="2">  1       21 0.29835386E+00 0.18075540E+03</pdfrwt>
<totfact> 0.18137230E+04</totfact>
</mgrwt>
</event>
<event>
 4    1  0.4336176E+000  0.2476698E+03  0.7546771E-02  0.1114786E+00
         21   -1    0    0  501  502  0.00000000000E+00  0.00000000000E+00  0.15983062909E+03  0.15983062909E+03  0.00000000000E+00 0.  1.
         21   -1    0    0  502  503 -0.00000000000E+00 -0.00000000000E+00 -0.49534910814E+03  0.49534910814E+03  0.00000000000E+00 0. -1.
          6    1    1    2  501    0 -0.18085149578E+02  0.17630722398E+03 -0.12291413080E+02  0.24797457268E+03  0.17300000000E+03 0.  1.
         -6    1    1    2    0  503  0.18085149578E+02 -0.17630722398E+03 -0.32322706597E+03  0.40720516455E+03  0.17300000000E+03 0. -1.
<mgrwt>
<rscale>  2 0.24766976E+03</rscale>
<asrwt>0</asrwt>
<pdfrwt beam="1">  1       21 0.24589328E-01 0.24766976E+03</pdfrwt>
<pdfrwt beam="2">  1       21 0.76207554E-01 0.24766976E+03</pdfrwt>
<totfact> 0.23284389E+04</totfact>
</mgrwt>
</event>
<event>
 4    1  0.4336176E+000  0.2258231E+03  0.7546771E-02  0.1129615E+00
         21   -1    0    0  503  502  0.00000000000E+00  0.00000000000E+00  0.13440850023E+03  0.13440850023E+03  0.00000000000E+00 0.  1.
         21   -1    0    0  501  503 -0.00000000000E+00 -0.00000000000E+00 -0.38550402961E+03  0.38550402961E+03  0.00000000000E+00 0.  1.
          6    1    1    2  501    0 -0.13660881770E+03  0.49041881044E+02 -0.92866461002E+02  0.24417259213E+03  0.17300000000E+03 0.  1.
         -6    1    1    2    0  502  0.13660881770E+03 -0.49041881044E+02 -0.15822906837E+03  0.27573993771E+03  0.17300000000E+03 0.  1.
<mgrwt>
<rscale>  2 0.22582311E+03</rscale>
<asrwt>0</asrwt>
<pdfrwt beam="1">  1       21 0.20678231E-01 0.22582311E+03</pdfrwt>
<pdfrwt beam="2">  1       21 0.59308311E-01 0.22582311E+03</pdfrwt>
<totfact> 0.56744429E+04</totfact>
</mgrwt>
</event>
<event>
 4    1  0.4336176E+000  0.1799118E+03  0.7546771E-02  0.1167888E+00
         21   -1    0    0  501  502  0.00000000000E+00  0.00000000000E+00  0.50302771272E+02  0.50302771272E+02  0.00000000000E+00 0.  1.
         21   -1    0    0  502  503 -0.00000000000E+00 -0.00000000000E+00 -0.11518490533E+04  0.11518490533E+04  0.00000000000E+00 0.  1.
          6    1    1    2  501    0 -0.22970633483E+02  0.43721938067E+02 -0.15144866826E+03  0.23517005972E+03  0.17300000000E+03 0.  1.
         -6    1    1    2    0  503  0.22970633483E+02 -0.43721938067E+02 -0.95009761381E+03  0.96698176490E+03  0.17300000000E+03 0.  1.
<mgrwt>
<rscale>  2 0.17991181E+03</rscale>
<asrwt>0</asrwt>
<pdfrwt beam="1">  1       21 0.77388875E-02 0.17991181E+03</pdfrwt>
<pdfrwt beam="2">  1       21 0.17720756E+00 0.17991181E+03</pdfrwt>
<totfact> 0.24389298E+04</totfact>
</mgrwt>
</event>
<event>
 4    1  0.4336176E+000  0.1832240E+03  0.7546771E-02  0.1164719E+00
         21   -1    0    0  501  502  0.00000000000E+00  0.00000000000E+00  0.10159238826E+04  0.10159238826E+04  0.00000000000E+00 0. -1.
         21   -1    0    0  502  503 -0.00000000000E+00 -0.00000000000E+00 -0.56773473702E+02  0.56773473702E+02  0.00000000000E+00 0. -1.
          6    1    1    2  501    0  0.59835491872E+02 -0.78579979614E+01  0.82632077220E+03  0.84639060296E+03  0.17300000000E+03 0. -1.
         -6    1    1    2    0  503 -0.59835491872E+02  0.78579979614E+01  0.13282963670E+03  0.22630675333E+03  0.17300000000E+03 0. -1.
<mgrwt>
<rscale>  2 0.18322400E+03</rscale>
<asrwt>0</asrwt>
<pdfrwt beam="1">  1       21 0.15629597E+00 0.18322400E+03</pdfrwt>
<pdfrwt beam="2">  1       21 0.87343813E-02 0.18322400E+03</pdfrwt>
<totfact> 0.27762159E+04</totfact>
</mgrwt>
</event>
<event>
 4    1  0.4336176E+000  0.2407783E+03  0.7546771E-02  0.1119275E+00
         21   -1    0    0  503  502  0.00000000000E+00  0.00000000000E+00  0.11174910019E+04  0.11174910019E+04  0.00000000000E+00 0. -1.
         21   -1    0    0  501  503 -0.00000000000E+00 -0.00000000000E+00 -0.75199743262E+02  0.75199743262E+02  0.00000000000E+00 0.  1.
          6    1    1    2  501    0  0.16731041396E+03 -0.72408404026E+01  0.18905104297E+03  0.30612824313E+03  0.17300000000E+03 0.  1.
         -6    1    1    2    0  502 -0.16731041396E+03  0.72408404026E+01  0.85324021568E+03  0.88656250205E+03  0.17300000000E+03 0. -1.
<mgrwt>
<rscale>  2 0.24077833E+03</rscale>
<asrwt>0</asrwt>
<pdfrwt beam="1">  1       21 0.17192168E+00 0.24077833E+03</pdfrwt>
<pdfrwt beam="2">  1       21 0.11569192E-01 0.24077833E+03</pdfrwt>
<totfact> 0.12527160E+04</totfact>
</mgrwt>
</event>
<event>
 4    1  0.4336176E+000  0.3143629E+03  0.7546771E-02  0.1078273E+00
         21   -1    0    0  501  502  0.00000000000E+00  0.00000000000E+00  0.29892254724E+03  0.29892254724E+03  0.00000000000E+00 0. -1.
         21   -1    0    0  502  503 -0.00000000000E+00 -0.00000000000E+00 -0.33402689021E+03  0.33402689021E+03  0.00000000000E+00 0.  1.
          6    1    1    2  501    0  0.24053069954E+03 -0.10507134043E+03  0.14499737956E+02  0.31469707085E+03  0.17300000000E+03 0.  1.
         -6    1    1    2    0  503 -0.24053069954E+03  0.10507134043E+03 -0.49604080928E+02  0.31825236660E+03  0.17300000000E+03 0.  1.
<mgrwt>
<rscale>  2 0.31436285E+03</rscale>
<asrwt>0</asrwt>
<pdfrwt beam="1">  1       21 0.45988084E-01 0.31436285E+03</pdfrwt>
<pdfrwt beam="2">  1       21 0.51388752E-01 0.31436285E+03</pdfrwt>
<totfact> 0.15334076E+04</totfact>
</mgrwt>
</event>
<event>
 4    1  0.4336176E+000  0.1822677E+03  0.7546771E-02  0.1165626E+00
         21   -1    0    0  501  502  0.00000000000E+00  0.00000000000E+00  0.19652065423E+03  0.19652065423E+03  0.00000000000E+00 0. -1.
         21   -1    0    0  502  503 -0.00000000000E+00 -0.00000000000E+00 -0.25271619111E+03  0.25271619111E+03  0.00000000000E+00 0. -1.
          6    1    1    2  501    0 -0.71885899328E+01 -0.56928520336E+02  0.10114539926E+03  0.20845125100E+03  0.17300000000E+03 0. -1.
         -6    1    1    2    0  503  0.71885899328E+01  0.56928520336E+02 -0.15734093614E+03  0.24078559433E+03  0.17300000000E+03 0. -1.
<mgrwt>
<rscale>  2 0.18226775E+03</rscale>
<asrwt>0</asrwt>
<pdfrwt beam="1">  1       21 0.30233947E-01 0.18226775E+03</pdfrwt>
<pdfrwt beam="2">  1       21 0.38879414E-01 0.18226775E+03</pdfrwt>
<totfact> 0.67248537E+04</totfact>
</mgrwt>
</event>
<event>
 4    1  0.4336176E+000  0.2860808E+03  0.7546771E-02  0.1092413E+00
         21   -1    0    0  501  502  0.00000000000E+00  0.00000000000E+00  0.14120792421E+04  0.14120792421E+04  0.00000000000E+00 0.  1.
         21   -1    0    0  502  503 -0.00000000000E+00 -0.00000000000E+00 -0.93100590286E+02  0.93100590286E+02  0.00000000000E+00 0. -1.
          6    1    1    2  501    0  0.12669626499E+03  0.18937072813E+03  0.11218650279E+04  0.11577665382E+04  0.17300000000E+03 0.  1.
         -6    1    1    2    0  503 -0.12669626499E+03 -0.18937072813E+03  0.19711362396E+03  0.34741329420E+03  0.17300000000E+03 0. -1.
<mgrwt>
<rscale>  2 0.28608079E+03</rscale>
<asrwt>0</asrwt>
<pdfrwt beam="1">  1       21 0.21724295E+00 0.28608079E+03</pdfrwt>
<pdfrwt beam="2">  1       21 0.14323169E-01 0.28608079E+03</pdfrwt>
<totfact> 0.41355729E+03</totfact>
</mgrwt>
</event>
<event>
 4    1  0.4336176E+000  0.1945277E+03  0.7546771E-02  0.1154440E+00
         21   -1    0    0  503  502  0.00000000000E+00  0.00000000000E+00  0.83541362795E+02  0.83541362795E+02  0.00000000000E+00 0. -1.
         21   -1    0    0  501  503 -0.00000000000E+00 -0.00000000000E+00 -0.11846690226E+04  0.11846690226E+04  0.00000000000E+00 0. -1.
          6    1    1    2  501    0  0.35112761395E+02 -0.81725994319E+02 -0.10489103973E+04  0.10667961688E+04  0.17300000000E+03 0. -1.
         -6    1    1    2    0  502 -0.35112761395E+02  0.81725994319E+02 -0.52217262536E+02  0.20141421665E+03  0.17300000000E+03 0. -1.
<mgrwt>
<rscale>  2 0.19452775E+03</rscale>
<asrwt>0</asrwt>
<pdfrwt beam="1">  1       21 0.12852516E-01 0.19452775E+03</pdfrwt>
<pdfrwt beam="2">  1       21 0.18225679E+00 0.19452775E+03</pdfrwt>
<totfact> 0.91004573E+03</totfact>
</mgrwt>
</event>
<event>
 4    1  0.4336176E+000  0.1858614E+03  0.7546771E-02  0.1162248E+00
         21   -1    0    0  501  502  0.00000000000E+00  0.00000000000E+00  0.25696557254E+04  0.25696557254E+04  0.00000000000E+00 0.  1.
         21   -1    0    0  502  503 -0.00000000000E+00 -0.00000000000E+00 -0.16321263272E+02  0.16321263272E+02  0.00000000000E+00 0.  1.
          6    1    1    2  501    0 -0.10478032130E+02 -0.67124251594E+02  0.18196252197E+04  0.18290927791E+04  0.17300000000E+03 0.  1.
         -6    1    1    2    0  503  0.10478032130E+02  0.67124251594E+02  0.73370924244E+03  0.75688420961E+03  0.17300000000E+03 0.  1.
<mgrwt>
<rscale>  2 0.18586138E+03</rscale>
<asrwt>0</asrwt>
<pdfrwt beam="1">  1       21 0.39533133E+00 0.18586138E+03</pdfrwt>
<pdfrwt beam="2">  1       21 0.25109656E-02 0.18586138E+03</pdfrwt>
<totfact> 0.79741118E+03</totfact>
</mgrwt>
</event>
<event>
 4    1  0.4336176E+000  0.1752858E+03  0.7546771E-02  0.1172445E+00
         21   -1    0    0  501  502  0.00000000000E+00  0.00000000000E+00  0.27739049176E+03  0.27739049176E+03  0.00000000000E+00 0.  1.
         21   -1    0    0  502  503 -0.00000000000E+00 -0.00000000000E+00 -0.14717739015E+03  0.14717739015E+03  0.00000000000E+00 0.  1.
          6    1    1    2  501    0  0.10449858513E+02 -0.26208933405E+02  0.17069642278E+03  0.24466789018E+03  0.17300000000E+03 0.  1.
         -6    1    1    2    0  503 -0.10449858513E+02  0.26208933405E+02 -0.40483321162E+02  0.17989999173E+03  0.17300000000E+03 0.  1.
<mgrwt>
<rscale>  2 0.17528579E+03</rscale>
<asrwt>0</asrwt>
<pdfrwt beam="1">  1       21 0.42675460E-01 0.17528579E+03</pdfrwt>
<pdfrwt beam="2">  1       21 0.22642675E-01 0.17528579E+03</pdfrwt>
<totfact> 0.97208674E+04</totfact>
</mgrwt>
</event>
<event>
 4    1  0.4336176E+000  0.1910047E+03  0.7546771E-02  0.1157558E+00
         21   -1    0    0  503  502  0.00000000000E+00  0.00000000000E+00  0.99145923570E+02  0.99145923570E+02  0.00000000000E+00 0.  1.
         21   -1    0    0  501  503 -0.00000000000E+00 -0.00000000000E+00 -0.81769081652E+03  0.81769081652E+03  0.00000000000E+00 0.  1.
          6    1    1    2  501    0 -0.72440997696E+02 -0.36139775900E+02 -0.69924094313E+03  0.72485907464E+03  0.17300000000E+03 0.  1.
         -6    1    1    2    0  502  0.72440997696E+02  0.36139775900E+02 -0.19303949818E+02  0.19197766544E+03  0.17300000000E+03 0.  1.
<mgrwt>
<rscale>  2 0.19100466E+03</rscale>
<asrwt>0</asrwt>
<pdfrwt beam="1">  1       21 0.15253218E-01 0.19100466E+03</pdfrwt>
<pdfrwt beam="2">  1       21 0.12579859E+00 0.19100466E+03</pdfrwt>
<totfact> 0.17883251E+04</totfact>
</mgrwt>
</event>
<event>
 4    1  0.4336176E+000  0.2333795E+03  0.7546771E-02  0.1124284E+00
         21   -1    0    0  503  502  0.00000000000E+00  0.00000000000E+00  0.94425475927E+03  0.94425475927E+03  0.00000000000E+00 0.  1.
         21   -1    0    0  501  503 -0.00000000000E+00 -0.00000000000E+00 -0.15326548644E+03  0.15326548644E+03  0.00000000000E+00 0. -1.
          6    1    1    2  501    0  0.14309423763E+03 -0.63726079507E+02 -0.37869599012E+02  0.23643197876E+03  0.17300000000E+03 0. -1.
         -6    1    1    2    0  502 -0.14309423763E+03  0.63726079507E+02  0.82885887183E+03  0.86108826694E+03  0.17300000000E+03 0.  1.
<mgrwt>
<rscale>  2 0.23337946E+03</rscale>
<asrwt>0</asrwt>
<pdfrwt beam="1">  1       21 0.14526996E+00 0.23337946E+03</pdfrwt>
<pdfrwt beam="2">  1       21 0.23579306E-01 0.23337946E+03</pdfrwt>
<totfact> 0.53329055E+03</totfact>
</mgrwt>
</event>
<event>
 4    1  0.4336176E+000  0.2229478E+03  0.7546771E-02  0.1131704E+00
         21   -1    0    0  503  502  0.00000000000E+00  0.00000000000E+00  0.21225407062E+03  0.21225407062E+03  0.00000000000E+00 0.  1.
         21   -1    0    0  501  503 -0.00000000000E+00 -0.00000000000E+00 -0.25965126319E+03  0.25965126319E+03  0.00000000000E+00 0. -1.
          6    1    1    2  501    0 -0.11347282130E+03 -0.83070208589E+02 -0.97599814871E+02  0.24337515196E+03  0.17300000000E+03 0.  1.
         -6    1    1    2    0  502  0.11347282130E+03  0.83070208589E+02  0.50202622297E+02  0.22853018184E+03  0.17300000000E+03 0.  1.
<mgrwt>
<rscale>  2 0.22294784E+03</rscale>
<asrwt>0</asrwt>
<pdfrwt beam="1">  1       21 0.32654473E-01 0.22294784E+03</pdfrwt>
<pdfrwt beam="2">  1       21 0.39946348E-01 0.22294784E+03</pdfrwt>
<totfact> 0.53757507E+04</totfact>
</mgrwt>
</event>
<event>
 4    1  0.4336176E+000  0.2033874E+03  0.7546771E-02  0.1146912E+00
         21   -1    0    0  503  502  0.00000000000E+00  0.00000000000E+00  0.82150333559E+03  0.82150333559E+03  0.00000000000E+00 0.  1.
         21   -1    0    0  501  503 -0.00000000000E+00 -0.00000000000E+00 -0.11267284220E+03  0.11267284220E+03  0.00000000000E+00 0. -1.
          6    1    1    2  501    0  0.65953265296E+02  0.84187905775E+02  0.70415627849E+01  0.20350926340E+03  0.17300000000E+03 0. -1.
         -6    1    1    2    0  502 -0.65953265296E+02 -0.84187905775E+02  0.70178893060E+03  0.73066691440E+03  0.17300000000E+03 0.  1.
<mgrwt>
<rscale>  2 0.20338741E+03</rscale>
<asrwt>0</asrwt>
<pdfrwt beam="1">  1       21 0.12638512E+00 0.20338741E+03</pdfrwt>
<pdfrwt beam="2">  1       21 0.17334284E-01 0.20338741E+03</pdfrwt>
<totfact> 0.13863834E+04</totfact>
</mgrwt>
</event>
<event>
 4    1  0.4336176E+000  0.1794368E+03  0.7546771E-02  0.1168349E+00
         21   -1    0    0  501  502  0.00000000000E+00  0.00000000000E+00  0.27128706041E+03  0.27128706041E+03  0.00000000000E+00 0.  1.
         21   -1    0    0  502  503 -0.00000000000E+00 -0.00000000000E+00 -0.12377582657E+03  0.12377582657E+03  0.00000000000E+00 0.  1.
          6    1    1    2  501    0  0.44087379271E+02  0.18024118319E+02  0.11381777229E+03  0.21249012010E+03  0.17300000000E+03 0.  1.
         -6    1    1    2    0  503 -0.44087379271E+02 -0.18024118319E+02  0.33693461555E+02  0.18257276687E+03  0.17300000000E+03 0.  1.
<mgrwt>
<rscale>  2 0.17943680E+03</rscale>
<asrwt>0</asrwt>
<pdfrwt beam="1">  1       21 0.41736471E-01 0.17943680E+03</pdfrwt>
<pdfrwt beam="2">  1       21 0.19042435E-01 0.17943680E+03</pdfrwt>
<totfact> 0.14039707E+05</totfact>
</mgrwt>
</event>
<event>
 4    1  0.4336176E+000  0.1778579E+03  0.7546771E-02  0.1169892E+00
         21   -1    0    0  501  502  0.00000000000E+00  0.00000000000E+00  0.30541473836E+03  0.30541473836E+03  0.00000000000E+00 0. -1.
         21   -1    0    0  502  503 -0.00000000000E+00 -0.00000000000E+00 -0.16932920560E+03  0.16932920560E+03  0.00000000000E+00 0. -1.
          6    1    1    2  501    0 -0.30326368368E+01 -0.41173321385E+02  0.21596181496E+03  0.27977302372E+03  0.17300000000E+03 0. -1.
         -6    1    1    2    0  503  0.30326368368E+01  0.41173321385E+02 -0.79876282201E+02  0.19497092024E+03  0.17300000000E+03 0. -1.
<mgrwt>
<rscale>  2 0.17785792E+03</rscale>
<asrwt>0</asrwt>
<pdfrwt beam="1">  1       21 0.46986883E-01 0.17785792E+03</pdfrwt>
<pdfrwt beam="2">  1       21 0.26050647E-01 0.17785792E+03</pdfrwt>
<totfact> 0.61091240E+04</totfact>
</mgrwt>
</event>
<event>
 4    1  0.4336176E+000  0.1835436E+03  0.7546771E-02  0.1164417E+00
         21   -1    0    0  501  502  0.00000000000E+00  0.00000000000E+00  0.29183622518E+03  0.29183622518E+03  0.00000000000E+00 0. -1.
         21   -1    0    0  502  503 -0.00000000000E+00 -0.00000000000E+00 -0.14122865807E+03  0.14122865807E+03  0.00000000000E+00 0. -1.
          6    1    1    2  501    0 -0.52797115521E+02 -0.31172130353E+02  0.16784058698E+03  0.24871409239E+03  0.17300000000E+03 0. -1.
         -6    1    1    2    0  503  0.52797115521E+02  0.31172130353E+02 -0.17233019867E+02  0.18435079086E+03  0.17300000000E+03 0. -1.
<mgrwt>
<rscale>  2 0.18354356E+03</rscale>
<asrwt>0</asrwt>
<pdfrwt beam="1">  1       21 0.44897881E-01 0.18354356E+03</pdfrwt>
<pdfrwt beam="2">  1       21 0.21727486E-01 0.18354356E+03</pdfrwt>
<totfact> 0.94410846E+04</totfact>
</mgrwt>
</event>
<event>
 4    1  0.4336176E+000  0.1812357E+03  0.7546771E-02  0.1166612E+00
         21   -1    0    0  503  502  0.00000000000E+00  0.00000000000E+00  0.29000877070E+03  0.29000877070E+03  0.00000000000E+00 0.  1.
         21   -1    0    0  501  503 -0.00000000000E+00 -0.00000000000E+00 -0.16348555459E+03  0.16348555459E+03  0.00000000000E+00 0.  1.
          6    1    1    2  501    0  0.31918551085E+02 -0.43572730562E+02 -0.62417991148E+02  0.19168302578E+03  0.17300000000E+03 0.  1.
         -6    1    1    2    0  502 -0.31918551085E+02  0.43572730562E+02  0.18894120726E+03  0.26181129951E+03  0.17300000000E+03 0.  1.
<mgrwt>
<rscale>  2 0.18123569E+03</rscale>
<asrwt>0</asrwt>
<pdfrwt beam="1">  1       21 0.44616734E-01 0.18123569E+03</pdfrwt>
<pdfrwt beam="2">  1       21 0.25151624E-01 0.18123569E+03</pdfrwt>
<totfact> 0.72554155E+04</totfact>
</mgrwt>
</event>
<event>
 4    1  0.4336176E+000  0.1774586E+03  0.7546771E-02  0.1170286E+00
         21   -1    0    0  503  502  0.00000000000E+00  0.00000000000E+00  0.26009205476E+03  0.26009205476E+03  0.00000000000E+00 0.  1.
         21   -1    0    0  501  503 -0.00000000000E+00 -0.00000000000E+00 -0.12256261821E+03  0.12256261821E+03  0.00000000000E+00 0.  1.
          6    1    1    2  501    0 -0.19734098155E+02 -0.34250931297E+02  0.47710971037E+02  0.18376043557E+03  0.17300000000E+03 0.  1.
         -6    1    1    2    0  502  0.19734098155E+02  0.34250931297E+02  0.89818465506E+02  0.19889423740E+03  0.17300000000E+03 0.  1.
<mgrwt>
<rscale>  2 0.17745862E+03</rscale>
<asrwt>0</asrwt>
<pdfrwt beam="1">  1       21 0.40014162E-01 0.17745862E+03</pdfrwt>
<pdfrwt beam="2">  1       21 0.18855787E-01 0.17745862E+03</pdfrwt>
<totfact> 0.15581019E+05</totfact>
</mgrwt>
</event>
<event>
 4    1  0.4336176E+000  0.1737655E+03  0.7546771E-02  0.1173977E+00
         21   -1    0    0  503  502  0.00000000000E+00  0.00000000000E+00  0.59738930736E+03  0.59738930736E+03  0.00000000000E+00 0. -1.
         21   -1    0    0  501  503 -0.00000000000E+00 -0.00000000000E+00 -0.56796653349E+02  0.56796653349E+02  0.00000000000E+00 0. -1.
          6    1    1    2  501    0  0.93343964637E+01  0.13353671319E+02  0.16176836245E+03  0.23740988729E+03  0.17300000000E+03 0. -1.
         -6    1    1    2    0  502 -0.93343964637E+01 -0.13353671319E+02  0.37882429157E+03  0.41677607342E+03  0.17300000000E+03 0. -1.
<mgrwt>
<rscale>  2 0.17376551E+03</rscale>
<asrwt>0</asrwt>
<pdfrwt beam="1">  1       21 0.91906043E-01 0.17376551E+03</pdfrwt>
<pdfrwt beam="2">  1       21 0.87379471E-02 0.17376551E+03</pdfrwt>
<totfact> 0.10373751E+05</totfact>
</mgrwt>
</event>
<event>
 4    1  0.4336176E+000  0.2057384E+03  0.7546771E-02  0.1144986E+00
         21   -1    0    0  501  502  0.00000000000E+00  0.00000000000E+00  0.69625838654E+03  0.69625838654E+03  0.00000000000E+00 0. -1.
         21   -1    0    0  502  503 -0.00000000000E+00 -0.00000000000E+00 -0.61206889079E+02  0.61206889079E+02  0.00000000000E+00 0. -1.
          6    1    1    2  501    0 -0.73890113420E+02  0.83303893247E+02  0.34863454163E+03  0.40481394629E+03  0.17300000000E+03 0. -1.
         -6    1    1    2    0  503  0.73890113420E+02 -0.83303893247E+02  0.28641695583E+03  0.35265132933E+03  0.17300000000E+03 0. -1.
<mgrwt>
<rscale>  2 0.20573840E+03</rscale>
<asrwt>0</asrwt>
<pdfrwt beam="1">  1       21 0.10711667E+00 0.20573840E+03</pdfrwt>
<pdfrwt beam="2">  1       21 0.94164450E-02 0.20573840E+03</pdfrwt>
<totfact> 0.62422735E+04</totfact>
</mgrwt>
</event>
<event>
 4    1  0.4336176E+000  0.2168588E+03  0.7546771E-02  0.1136247E+00
         21   -1    0    0  501  502  0.00000000000E+00  0.00000000000E+00  0.30713755436E+03  0.30713755436E+03  0.00000000000E+00 0. -1.
         21   -1    0    0  502  503 -0.00000000000E+00 -0.00000000000E+00 -0.16145666077E+03  0.16145666077E+03  0.00000000000E+00 0. -1.
          6    1    1    2  501    0 -0.10286066060E+03  0.80736659771E+02  0.12609232603E+03  0.25085254317E+03  0.17300000000E+03 0. -1.
         -6    1    1    2    0  503  0.10286066060E+03 -0.80736659771E+02  0.19588567551E+02  0.21774167196E+03  0.17300000000E+03 0. -1.
<mgrwt>
<rscale>  2 0.21685876E+03</rscale>
<asrwt>0</asrwt>
<pdfrwt beam="1">  1       21 0.47251931E-01 0.21685876E+03</pdfrwt>
<pdfrwt beam="2">  1       21 0.24839486E-01 0.21685876E+03</pdfrwt>
<totfact> 0.65000775E+04</totfact>
</mgrwt>
</event>
<event>
 4    1  0.4336176E+000  0.1859561E+03  0.7546771E-02  0.1162160E+00
         21   -1    0    0  503  502  0.00000000000E+00  0.00000000000E+00  0.24450929279E+04  0.24450929279E+04  0.00000000000E+00 0.  1.
         21   -1    0    0  501  503 -0.00000000000E+00 -0.00000000000E+00 -0.59767611753E+02  0.59767611753E+02  0.00000000000E+00 0.  1.
          6    1    1    2  501    0  0.35452677947E+02  0.58256285798E+02  0.98397296932E+02  0.21038468398E+03  0.17300000000E+03 0.  1.
         -6    1    1    2    0  502 -0.35452677947E+02 -0.58256285798E+02  0.22869280193E+04  0.22944758557E+04  0.17300000000E+03 0.  1.
<mgrwt>
<rscale>  2 0.18595614E+03</rscale>
<asrwt>0</asrwt>
<pdfrwt beam="1">  1       21 0.37616806E+00 0.18595614E+03</pdfrwt>
<pdfrwt beam="2">  1       21 0.91950191E-02 0.18595614E+03</pdfrwt>
<totfact> 0.11595841E+03</totfact>
</mgrwt>
</event>
<event>
 4    1  0.4336176E+000  0.2273241E+03  0.7546771E-02  0.1128537E+00
         21   -1    0    0  503  502  0.00000000000E+00  0.00000000000E+00  0.44206833687E+03  0.44206833687E+03  0.00000000000E+00 0.  1.
         21   -1    0    0  501  503 -0.00000000000E+00 -0.00000000000E+00 -0.22714823539E+03  0.22714823539E+03  0.00000000000E+00 0. -1.
          6    1    1    2  501    0 -0.12347816643E+03 -0.80625111715E+02 -0.12565730810E+03  0.25974222857E+03  0.17300000000E+03 0. -1.
         -6    1    1    2    0  502  0.12347816643E+03  0.80625111715E+02  0.34057740958E+03  0.40947434369E+03  0.17300000000E+03 0.  1.
<mgrwt>
<rscale>  2 0.22732414E+03</rscale>
<asrwt>0</asrwt>
<pdfrwt beam="1">  1       21 0.68010513E-01 0.22732414E+03</pdfrwt>
<pdfrwt beam="2">  1       21 0.34945882E-01 0.22732414E+03</pdfrwt>
<totfact> 0.15258407E+04</totfact>
</mgrwt>
</event>
<event>
 4    1  0.4336176E+000  0.2029714E+03  0.7546771E-02  0.1147256E+00
         21   -1    0    0  501  502  0.00000000000E+00  0.00000000000E+00  0.20769815370E+03  0.20769815370E+03  0.00000000000E+00 0. -1.
         21   -1    0    0  502  503 -0.00000000000E+00 -0.00000000000E+00 -0.41086980594E+03  0.41086980594E+03  0.00000000000E+00 0. -1.
          6    1    1    2  501    0  0.84328053108E+02 -0.64476265602E+02  0.12084893242E+03  0.23622420247E+03  0.17300000000E+03 0. -1.
         -6    1    1    2    0  503 -0.84328053108E+02  0.64476265602E+02 -0.32402058465E+03  0.38234375717E+03  0.17300000000E+03 0. -1.
<mgrwt>
<rscale>  2 0.20297145E+03</rscale>
<asrwt>0</asrwt>
<pdfrwt beam="1">  1       21 0.31953562E-01 0.20297145E+03</pdfrwt>
<pdfrwt beam="2">  1       21 0.63210739E-01 0.20297145E+03</pdfrwt>
<totfact> 0.21678322E+04</totfact>
</mgrwt>
</event>
<event>
 4    1  0.4336176E+000  0.2957696E+03  0.7546771E-02  0.1087375E+00
         21   -1    0    0  503  502  0.00000000000E+00  0.00000000000E+00  0.56675699185E+03  0.56675699185E+03  0.00000000000E+00 0. -1.
         21   -1    0    0  501  503 -0.00000000000E+00 -0.00000000000E+00 -0.20864990192E+03  0.20864990192E+03  0.00000000000E+00 0.  1.
          6    1    1    2  501    0 -0.24941191248E+02  0.23859707929E+03 -0.18727761190E+02  0.29636187054E+03  0.17300000000E+03 0.  1.
         -6    1    1    2    0  502  0.24941191248E+02 -0.23859707929E+03  0.37683485112E+03  0.47904502324E+03  0.17300000000E+03 0. -1.
<mgrwt>
<rscale>  2 0.29576955E+03</rscale>
<asrwt>0</asrwt>
<pdfrwt beam="1">  1       21 0.87193383E-01 0.29576955E+03</pdfrwt>
<pdfrwt beam="2">  1       21 0.32099985E-01 0.29576955E+03</pdfrwt>
<totfact> 0.99435446E+03</totfact>
</mgrwt>
</event>
<event>
 4    1  0.4336176E+000  0.1759274E+03  0.7546771E-02  0.1171804E+00
         21   -1    0    0  501  502  0.00000000000E+00  0.00000000000E+00  0.31610920844E+04  0.31610920844E+04  0.00000000000E+00 0. -1.
         21   -1    0    0  502  503 -0.00000000000E+00 -0.00000000000E+00 -0.10453727927E+02  0.10453727927E+02  0.00000000000E+00 0. -1.
          6    1    1    2  501    0 -0.19620436712E+02 -0.25228506568E+02  0.19745772479E+04  0.19823989879E+04  0.17300000000E+03 0. -1.
         -6    1    1    2    0  503  0.19620436712E+02  0.25228506568E+02  0.11760611085E+04  0.11891468244E+04  0.17300000000E+03 0. -1.
<mgrwt>
<rscale>  2 0.17592737E+03</rscale>
<asrwt>0</asrwt>
<pdfrwt beam="1">  1       21 0.48632110E+00 0.17592737E+03</pdfrwt>
<pdfrwt beam="2">  1       21 0.16082684E-02 0.17592737E+03</pdfrwt>
<totfact> 0.42431839E+03</totfact>
</mgrwt>
</event>
<event>
 4    1  0.4336176E+000  0.1838893E+03  0.7546771E-02  0.1164091E+00
         21   -1    0    0  501  502  0.00000000000E+00  0.00000000000E+00  0.10945684344E+04  0.10945684344E+04  0.00000000000E+00 0. -1.
         21   -1    0    0  502  503 -0.00000000000E+00 -0.00000000000E+00 -0.41367884561E+02  0.41367884561E+02  0.00000000000E+00 0. -1.
          6    1    1    2  501    0  0.59404042192E+02 -0.18906032957E+02  0.81239372087E+03  0.83294587821E+03  0.17300000000E+03 0. -1.
         -6    1    1    2    0  503 -0.59404042192E+02  0.18906032957E+02  0.24080682897E+03  0.30299044076E+03  0.17300000000E+03 0. -1.
<mgrwt>
<rscale>  2 0.18388931E+03</rscale>
<asrwt>0</asrwt>
<pdfrwt beam="1">  1       21 0.16839512E+00 0.18388931E+03</pdfrwt>
<pdfrwt beam="2">  1       21 0.63642908E-02 0.18388931E+03</pdfrwt>
<totfact> 0.39245938E+04</totfact>
</mgrwt>
</event>
<event>
 4    1  0.4336176E+000  0.1917725E+03  0.7546771E-02  0.1156872E+00
         21   -1    0    0  501  502  0.00000000000E+00  0.00000000000E+00  0.87996899100E+03  0.87996899100E+03  0.00000000000E+00 0.  1.
         21   -1    0    0  502  503 -0.00000000000E+00 -0.00000000000E+00 -0.73094884838E+02  0.73094884838E+02  0.00000000000E+00 0.  1.
          6    1    1    2  501    0  0.37028797039E+01  0.82667836434E+02  0.71527766435E+03  0.74053954628E+03  0.17300000000E+03 0.  1.
         -6    1    1    2    0  503 -0.37028797039E+01 -0.82667836434E+02  0.91596441815E+02  0.21252432955E+03  0.17300000000E+03 0.  1.
<mgrwt>
<rscale>  2 0.19177248E+03</rscale>
<asrwt>0</asrwt>
<pdfrwt beam="1">  1       21 0.13537984E+00 0.19177248E+03</pdfrwt>
<pdfrwt beam="2">  1       21 0.11245368E-01 0.19177248E+03</pdfrwt>
<totfact> 0.25716448E+04</totfact>
</mgrwt>
</event>
<event>
 4    1  0.4336176E+000  0.2452528E+03  0.7546771E-02  0.1116342E+00
         21   -1    0    0  501  502  0.00000000000E+00  0.00000000000E+00  0.76691538319E+02  0.76691538319E+02  0.00000000000E+00 0. -1.
         21   -1    0    0  502  503 -0.00000000000E+00 -0.00000000000E+00 -0.79195288891E+03  0.79195288891E+03  0.00000000000E+00 0.  1.
          6    1    1    2  501    0  0.15875389967E+03 -0.70831668702E+02 -0.40033448724E+03  0.46948549245E+03  0.17300000000E+03 0.  1.
         -6    1    1    2    0  503 -0.15875389967E+03  0.70831668702E+02 -0.31492686336E+03  0.39915893478E+03  0.17300000000E+03 0. -1.
<mgrwt>
<rscale>  2 0.24525278E+03</rscale>
<asrwt>0</asrwt>
<pdfrwt beam="1">  1       21 0.11798698E-01 0.24525278E+03</pdfrwt>
<pdfrwt beam="2">  1       21 0.12183891E+00 0.24525278E+03</pdfrwt>
<totfact> 0.29888608E+04</totfact>
</mgrwt>
</event>
<event>
 4    1  0.4336176E+000  0.2505373E+03  0.7546771E-02  0.1112966E+00
         21   -1    0    0  503  502  0.00000000000E+00  0.00000000000E+00  0.11154532907E+03  0.11154532907E+03  0.00000000000E+00 0. -1.
         21   -1    0    0  501  503 -0.00000000000E+00 -0.00000000000E+00 -0.56381716266E+03  0.56381716266E+03  0.00000000000E+00 0. -1.
          6    1    1    2  501    0  0.18108362430E+03  0.69773226628E+01 -0.24102142136E+03  0.34764966212E+03  0.17300000000E+03 0. -1.
         -6    1    1    2    0  502 -0.18108362430E+03 -0.69773226628E+01 -0.21125041224E+03  0.32771282961E+03  0.17300000000E+03 0. -1.
<mgrwt>
<rscale>  2 0.25053735E+03</rscale>
<asrwt>0</asrwt>
<pdfrwt beam="1">  1       21 0.17160820E-01 0.25053735E+03</pdfrwt>
<pdfrwt beam="2">  1       21 0.86741103E-01 0.25053735E+03</pdfrwt>
<totfact> 0.34073273E+04</totfact>
</mgrwt>
</event>
<event>
 4    1  0.4336176E+000  0.1808239E+03  0.7546771E-02  0.1167008E+00
         21   -1    0    0  503  502  0.00000000000E+00  0.00000000000E+00  0.19933654022E+03  0.19933654022E+03  0.00000000000E+00 0. -1.
         21   -1    0    0  501  503 -0.00000000000E+00 -0.00000000000E+00 -0.17584683881E+03  0.17584683881E+03  0.00000000000E+00 0. -1.
          6    1    1    2  501    0 -0.32744689469E+02  0.41183409824E+02 -0.36883142106E+02  0.18454715957E+03  0.17300000000E+03 0. -1.
         -6    1    1    2    0  502  0.32744689469E+02 -0.41183409824E+02  0.60372843516E+02  0.19063621945E+03  0.17300000000E+03 0. -1.
<mgrwt>
<rscale>  2 0.18082391E+03</rscale>
<asrwt>0</asrwt>
<pdfrwt beam="1">  1       21 0.30667160E-01 0.18082391E+03</pdfrwt>
<pdfrwt beam="2">  1       21 0.27053360E-01 0.18082391E+03</pdfrwt>
<totfact> 0.13344050E+05</totfact>
</mgrwt>
</event>
<event>
 4    1  0.4336176E+000  0.1885319E+03  0.7546771E-02  0.1159792E+00
         21   -1    0    0  503  502  0.00000000000E+00  0.00000000000E+00  0.11742183634E+04  0.11742183634E+04  0.00000000000E+00 0. -1.
         21   -1    0    0  501  503 -0.00000000000E+00 -0.00000000000E+00 -0.30504452732E+02  0.30504452732E+02  0.00000000000E+00 0. -1.
          6    1    1    2  501    0 -0.60779256784E+02  0.43830904491E+02  0.62460046204E+03  0.65243390732E+03  0.17300000000E+03 0.  1.
         -6    1    1    2    0  502  0.60779256784E+02 -0.43830904491E+02  0.51911344859E+03  0.55228890877E+03  0.17300000000E+03 0.  1.
<mgrwt>
<rscale>  2 0.18853187E+03</rscale>
<asrwt>0</asrwt>
<pdfrwt beam="1">  1       21 0.18064894E+00 0.18853187E+03</pdfrwt>
<pdfrwt beam="2">  1       21 0.46929936E-02 0.18853187E+03</pdfrwt>
<totfact> 0.54070973E+04</totfact>
</mgrwt>
</event>
<event>
 4    1  0.4336176E+000  0.2883761E+03  0.7546771E-02  0.1091200E+00
         21   -1    0    0  503  502  0.00000000000E+00  0.00000000000E+00  0.18466038019E+03  0.18466038019E+03  0.00000000000E+00 0. -1.
         21   -1    0    0  501  503 -0.00000000000E+00 -0.00000000000E+00 -0.10855159981E+04  0.10855159981E+04  0.00000000000E+00 0.  1.
          6    1    1    2  501    0 -0.32763931517E+02  0.22838197780E+03 -0.93623215138E+03  0.97963842527E+03  0.17300000000E+03 0.  1.
         -6    1    1    2    0  502  0.32763931517E+02 -0.22838197780E+03  0.35376533508E+02  0.29053795297E+03  0.17300000000E+03 0. -1.
<mgrwt>
<rscale>  2 0.28837615E+03</rscale>
<asrwt>0</asrwt>
<pdfrwt beam="1">  1       21 0.28409290E-01 0.28837615E+03</pdfrwt>
<pdfrwt beam="2">  1       21 0.16700246E+00 0.28837615E+03</pdfrwt>
<totfact> 0.24611985E+03</totfact>
</mgrwt>
</event>
<event>
 4    1  0.4336176E+000  0.2009077E+03  0.7546771E-02  0.1148975E+00
         21   -1    0    0  501  502  0.00000000000E+00  0.00000000000E+00  0.73331355651E+03  0.73331355651E+03  0.00000000000E+00 0.  1.
         21   -1    0    0  502  503 -0.00000000000E+00 -0.00000000000E+00 -0.87585287931E+02  0.87585287931E+02  0.00000000000E+00 0.  1.
          6    1    1    2  501    0  0.10102744390E+03  0.15111329515E+02  0.57305245380E+03  0.60725036971E+03  0.17300000000E+03 0.  1.
         -6    1    1    2    0  503 -0.10102744390E+03 -0.15111329515E+02  0.72675814772E+02  0.21364847473E+03  0.17300000000E+03 0.  1.
<mgrwt>
<rscale>  2 0.20090768E+03</rscale>
<asrwt>0</asrwt>
<pdfrwt beam="1">  1       21 0.11281747E+00 0.20090768E+03</pdfrwt>
<pdfrwt beam="2">  1       21 0.13474660E-01 0.20090768E+03</pdfrwt>
<totfact> 0.29126036E+04</totfact>
</mgrwt>
</event>
<event>
 4    1  0.4336176E+000  0.2253877E+03  0.7546771E-02  0.1129929E+00
         21   -1    0    0  501  502  0.00000000000E+00  0.00000000000E+00  0.63206886541E+03  0.63206886541E+03  0.00000000000E+00 0. -1.
         21   -1    0    0  502  503 -0.00000000000E+00 -0.00000000000E+00 -0.41494472506E+03  0.41494472506E+03  0.00000000000E+00 0.  1.
          6    1    1    2  501    0 -0.62691257973E+02 -0.13015544018E+03  0.57864393776E+03  0.62098988650E+03  0.17300000000E+03 0. -1.
         -6    1    1    2    0  503  0.62691257973E+02  0.13015544018E+03 -0.36151979740E+03  0.42602370398E+03  0.17300000000E+03 0.  1.
<mgrwt>
<rscale>  2 0.22538774E+03</rscale>
<asrwt>0</asrwt>
<pdfrwt beam="1">  1       21 0.97241364E-01 0.22538774E+03</pdfrwt>
<pdfrwt beam="2">  1       21 0.63837650E-01 0.22538774E+03</pdfrwt>
<totfact> 0.19321874E+03</totfact>
</mgrwt>
</event>
<event>
 4    1  0.4336176E+000  0.2393841E+03  0.7546771E-02  0.1120204E+00
         21   -1    0    0  503  502  0.00000000000E+00  0.00000000000E+00  0.49539809920E+03  0.49539809920E+03  0.00000000000E+00 0.  1.
         21   -1    0    0  501  503 -0.00000000000E+00 -0.00000000000E+00 -0.15132939826E+03  0.15132939826E+03  0.00000000000E+00 0.  1.
          6    1    1    2  501    0  0.16276916803E+03 -0.29697662883E+02  0.15073472069E+02  0.23985821395E+03  0.17300000000E+03 0.  1.
         -6    1    1    2    0  502 -0.16276916803E+03  0.29697662883E+02  0.32899522887E+03  0.40686928350E+03  0.17300000000E+03 0.  1.
<mgrwt>
<rscale>  2 0.23938411E+03</rscale>
<asrwt>0</asrwt>
<pdfrwt beam="1">  1       21 0.76215091E-01 0.23938411E+03</pdfrwt>
<pdfrwt beam="2">  1       21 0.23281446E-01 0.23938411E+03</pdfrwt>
<totfact> 0.25944951E+04</totfact>
</mgrwt>
</event>
<event>
 4    1  0.4336176E+000  0.2195469E+03  0.7546771E-02  0.1134221E+00
         21   -1    0    0  501  502  0.00000000000E+00  0.00000000000E+00  0.30810825364E+02  0.30810825364E+02  0.00000000000E+00 0. -1.
         21   -1    0    0  502  503 -0.00000000000E+00 -0.00000000000E+00 -0.19180965054E+04  0.19180965054E+04  0.00000000000E+00 0.  1.
          6    1    1    2  501    0  0.11780571813E+03  0.66284690305E+02 -0.52520251000E+03  0.56924381763E+03  0.17300000000E+03 0. -1.
         -6    1    1    2    0  503 -0.11780571813E+03 -0.66284690305E+02 -0.13620831700E+04  0.13796635131E+04  0.17300000000E+03 0.  1.
<mgrwt>
<rscale>  2 0.21954691E+03</rscale>
<asrwt>0</asrwt>
<pdfrwt beam="1">  1       21 0.47401248E-02 0.21954691E+03</pdfrwt>
<pdfrwt beam="2">  1       21 0.29509191E+00 0.21954691E+03</pdfrwt>
<totfact> 0.10439428E+04</totfact>
</mgrwt>
</event>
<event>
 4    1  0.4336176E+000  0.1832435E+03  0.7546771E-02  0.1164700E+00
         21   -1    0    0  501  502  0.00000000000E+00  0.00000000000E+00  0.14171806988E+03  0.14171806988E+03  0.00000000000E+00 0. -1.
         21   -1    0    0  502  503 -0.00000000000E+00 -0.00000000000E+00 -0.25683372657E+03  0.25683372657E+03  0.00000000000E+00 0.  1.
          6    1    1    2  501    0  0.31945619023E+02  0.51270582264E+02 -0.20921767632E+01  0.18325548391E+03  0.17300000000E+03 0.  1.
         -6    1    1    2    0  503 -0.31945619023E+02 -0.51270582264E+02 -0.11302347993E+03  0.21529631254E+03  0.17300000000E+03 0.  1.
<mgrwt>
<rscale>  2 0.18324354E+03</rscale>
<asrwt>0</asrwt>
<pdfrwt beam="1">  1       21 0.21802780E-01 0.18324354E+03</pdfrwt>
<pdfrwt beam="2">  1       21 0.39512880E-01 0.18324354E+03</pdfrwt>
<totfact> 0.12162271E+05</totfact>
</mgrwt>
</event>
<event>
 4    1  0.4336176E+000  0.1876553E+03  0.7546771E-02  0.1160593E+00
         21   -1    0    0  503  502  0.00000000000E+00  0.00000000000E+00  0.58335676673E+02  0.58335676673E+02  0.00000000000E+00 0. -1.
         21   -1    0    0  501  503 -0.00000000000E+00 -0.00000000000E+00 -0.64928858361E+03  0.64928858361E+03  0.00000000000E+00 0.  1.
          6    1    1    2  501    0  0.42348478241E+01 -0.72578092093E+02 -0.38927693232E+03  0.43214701598E+03  0.17300000000E+03 0.  1.
         -6    1    1    2    0  502 -0.42348478241E+01  0.72578092093E+02 -0.20167597462E+03  0.27547724430E+03  0.17300000000E+03 0. -1.
<mgrwt>
<rscale>  2 0.18765530E+03</rscale>
<asrwt>0</asrwt>
<pdfrwt beam="1">  1       21 0.89747193E-02 0.18765530E+03</pdfrwt>
<pdfrwt beam="2">  1       21 0.99890553E-01 0.18765530E+03</pdfrwt>
<totfact> 0.80976939E+04</totfact>
</mgrwt>
</event>
<event>
 4    1  0.4336176E+000  0.1740186E+03  0.7546771E-02  0.1173721E+00
         21   -1    0    0  501  502  0.00000000000E+00  0.00000000000E+00  0.71621632136E+02  0.71621632136E+02  0.00000000000E+00 0.  1.
         21   -1    0    0  502  503 -0.00000000000E+00 -0.00000000000E+00 -0.65586607370E+03  0.65586607370E+03  0.00000000000E+00 0.  1.
          6    1    1    2  501    0 -0.67248213302E+00 -0.18788431530E+02 -0.75293506409E+02  0.18960899108E+03  0.17300000000E+03 0.  1.
         -6    1    1    2    0  503  0.67248213302E+00  0.18788431530E+02 -0.50895093515E+03  0.53787871475E+03  0.17300000000E+03 0.  1.
<mgrwt>
<rscale>  2 0.17401855E+03</rscale>
<asrwt>0</asrwt>
<pdfrwt beam="1">  1       21 0.11018713E-01 0.17401855E+03</pdfrwt>
<pdfrwt beam="2">  1       21 0.10090247E+00 0.17401855E+03</pdfrwt>
<totfact> 0.55414176E+04</totfact>
</mgrwt>
</event>
<event>
 4    1  0.4336176E+000  0.1755449E+03  0.7546771E-02  0.1172186E+00
         21   -1    0    0  503  502  0.00000000000E+00  0.00000000000E+00  0.20546357844E+03  0.20546357844E+03  0.00000000000E+00 0. -1.
         21   -1    0    0  501  503 -0.00000000000E+00 -0.00000000000E+00 -0.34895230566E+03  0.34895230566E+03  0.00000000000E+00 0.  1.
          6    1    1    2  501    0 -0.22008110160E+02  0.20066057917E+02 -0.28106685195E+03  0.33138282825E+03  0.17300000000E+03 0.  1.
         -6    1    1    2    0  502  0.22008110160E+02 -0.20066057917E+02  0.13757812473E+03  0.22303305584E+03  0.17300000000E+03 0. -1.
<mgrwt>
<rscale>  2 0.17554488E+03</rscale>
<asrwt>0</asrwt>
<pdfrwt beam="1">  1       21 0.31609781E-01 0.17554488E+03</pdfrwt>
<pdfrwt beam="2">  1       21 0.53684970E-01 0.17554488E+03</pdfrwt>
<totfact> 0.31875629E+04</totfact>
</mgrwt>
</event>
<event>
 4    1  0.4336176E+000  0.1763308E+03  0.7546771E-02  0.1171402E+00
         21   -1    0    0  501  502  0.00000000000E+00  0.00000000000E+00  0.26558732719E+03  0.26558732719E+03  0.00000000000E+00 0. -1.
         21   -1    0    0  502  503 -0.00000000000E+00 -0.00000000000E+00 -0.11835705612E+03  0.11835705612E+03  0.00000000000E+00 0. -1.
          6    1    1    2  501    0 -0.33843305499E+02  0.42645050106E+01  0.53603477913E+02  0.18429836726E+03  0.17300000000E+03 0.  1.
         -6    1    1    2    0  503  0.33843305499E+02 -0.42645050106E+01  0.93626793158E+02  0.19964601606E+03  0.17300000000E+03 0.  1.
<mgrwt>
<rscale>  2 0.17633081E+03</rscale>
<asrwt>0</asrwt>
<pdfrwt beam="1">  1       21 0.40859589E-01 0.17633081E+03</pdfrwt>
<pdfrwt beam="2">  1       21 0.18208778E-01 0.17633081E+03</pdfrwt>
<totfact> 0.15939482E+05</totfact>
</mgrwt>
</event>
<event>
 4    1  0.4336176E+000  0.1770216E+03  0.7546771E-02  0.1170717E+00
         21   -1    0    0  503  502  0.00000000000E+00  0.00000000000E+00  0.17842821347E+03  0.17842821347E+03  0.00000000000E+00 0. -1.
         21   -1    0    0  501  503 -0.00000000000E+00 -0.00000000000E+00 -0.19005555212E+03  0.19005555212E+03  0.00000000000E+00 0. -1.
          6    1    1    2  501    0  0.74297568467E+01  0.36775753324E+02 -0.56579616362E+02  0.18584377931E+03  0.17300000000E+03 0.  1.
         -6    1    1    2    0  502 -0.74297568467E+01 -0.36775753324E+02  0.44952277711E+02  0.18263998629E+03  0.17300000000E+03 0.  1.
<mgrwt>
<rscale>  2 0.17702163E+03</rscale>
<asrwt>0</asrwt>
<pdfrwt beam="1">  1       21 0.27450494E-01 0.17702163E+03</pdfrwt>
<pdfrwt beam="2">  1       21 0.29239316E-01 0.17702163E+03</pdfrwt>
<totfact> 0.14254246E+05</totfact>
</mgrwt>
</event>
<event>
 4    1  0.4336176E+000  0.1882784E+03  0.7546771E-02  0.1160023E+00
         21   -1    0    0  501  502  0.00000000000E+00  0.00000000000E+00  0.77552812769E+02  0.77552812769E+02  0.00000000000E+00 0.  1.
         21   -1    0    0  502  503 -0.00000000000E+00 -0.00000000000E+00 -0.46612187041E+03  0.46612187041E+03  0.00000000000E+00 0. -1.
          6    1    1    2  501    0 -0.28112643218E+02  0.68770810008E+02 -0.15644828891E+03  0.24479544955E+03  0.17300000000E+03 0.  1.
         -6    1    1    2    0  503  0.28112643218E+02 -0.68770810008E+02 -0.23212076874E+03  0.29887923363E+03  0.17300000000E+03 0. -1.
<mgrwt>
<rscale>  2 0.18827837E+03</rscale>
<asrwt>0</asrwt>
<pdfrwt beam="1">  1       21 0.11931202E-01 0.18827837E+03</pdfrwt>
<pdfrwt beam="2">  1       21 0.71711057E-01 0.18827837E+03</pdfrwt>
<totfact> 0.10432323E+05</totfact>
</mgrwt>
</event>
<event>
 4    1  0.4336176E+000  0.1814163E+03  0.7546771E-02  0.1166439E+00
         21   -1    0    0  501  502  0.00000000000E+00  0.00000000000E+00  0.15441472630E+03  0.15441472630E+03  0.00000000000E+00 0.  1.
         21   -1    0    0  502  503 -0.00000000000E+00 -0.00000000000E+00 -0.28883213678E+03  0.28883213678E+03  0.00000000000E+00 0.  1.
          6    1    1    2  501    0 -0.29535424019E+02  0.45940730188E+02  0.46245204835E+02  0.18721781681E+03  0.17300000000E+03 0.  1.
         -6    1    1    2    0  503  0.29535424019E+02 -0.45940730188E+02 -0.18066261532E+03  0.25602904627E+03  0.17300000000E+03 0.  1.
<mgrwt>
<rscale>  2 0.18141635E+03</rscale>
<asrwt>0</asrwt>
<pdfrwt beam="1">  1       21 0.23756112E-01 0.18141635E+03</pdfrwt>
<pdfrwt beam="2">  1       21 0.44435713E-01 0.18141635E+03</pdfrwt>
<totfact> 0.81544172E+04</totfact>
</mgrwt>
</event>
<event>
 4    1  0.4336176E+000  0.2363663E+03  0.7546771E-02  0.1122237E+00
         21   -1    0    0  503  502  0.00000000000E+00  0.00000000000E+00  0.67945536516E+03  0.67945536516E+03  0.00000000000E+00 0.  1.
         21   -1    0    0  501  503 -0.00000000000E+00 -0.00000000000E+00 -0.63396731864E+03  0.63396731864E+03  0.00000000000E+00 0.  1.
          6    1    1    2  501    0 -0.10217446117E+02 -0.16073470634E+03 -0.58990077712E+03  0.63549348453E+03  0.17300000000E+03 0.  1.
         -6    1    1    2    0  502  0.10217446117E+02  0.16073470634E+03  0.63538882364E+03  0.67792919927E+03  0.17300000000E+03 0.  1.
<mgrwt>
<rscale>  2 0.23636633E+03</rscale>
<asrwt>0</asrwt>
<pdfrwt beam="1">  1       21 0.10453160E+00 0.23636633E+03</pdfrwt>
<pdfrwt beam="2">  1       21 0.97533433E-01 0.23636633E+03</pdfrwt>
<totfact> 0.61574080E+02</totfact>
</mgrwt>
</event>
<event>
 4    1  0.4336176E+000  0.1907591E+03  0.7546771E-02  0.1157778E+00
         21   -1    0    0  501  502  0.00000000000E+00  0.00000000000E+00  0.59607894319E+03  0.59607894319E+03  0.00000000000E+00 0. -1.
         21   -1    0    0  502  503 -0.00000000000E+00 -0.00000000000E+00 -0.11933446491E+03  0.11933446491E+03  0.00000000000E+00 0.  1.
          6    1    1    2  501    0  0.67070683612E+02 -0.44289554237E+02  0.48836671136E+03  0.52430056836E+03  0.17300000000E+03 0. -1.
         -6    1    1    2    0  503 -0.67070683612E+02  0.44289554237E+02 -0.11622233076E+02  0.19111283975E+03  0.17300000000E+03 0.  1.
<mgrwt>
<rscale>  2 0.19075912E+03</rscale>
<asrwt>0</asrwt>
<pdfrwt beam="1">  1       21 0.91704452E-01 0.19075912E+03</pdfrwt>
<pdfrwt beam="2">  1       21 0.18359149E-01 0.19075912E+03</pdfrwt>
<totfact> 0.27256411E+04</totfact>
</mgrwt>
</event>
<event>
 4    1  0.4336176E+000  0.1934776E+03  0.7546771E-02  0.1155362E+00
         21   -1    0    0  503  502  0.00000000000E+00  0.00000000000E+00  0.13271610618E+03  0.13271610618E+03  0.00000000000E+00 0.  1.
         21   -1    0    0  501  503 -0.00000000000E+00 -0.00000000000E+00 -0.57699362433E+03  0.57699362433E+03  0.00000000000E+00 0.  1.
          6    1    1    2  501    0  0.66473375556E+02  0.55550569114E+02 -0.47584387733E+03  0.51367399290E+03  0.17300000000E+03 0.  1.
         -6    1    1    2    0  502 -0.66473375556E+02 -0.55550569114E+02  0.31566359183E+02  0.19603573761E+03  0.17300000000E+03 0.  1.
<mgrwt>
<rscale>  2 0.19347758E+03</rscale>
<asrwt>0</asrwt>
<pdfrwt beam="1">  1       21 0.20417863E-01 0.19347758E+03</pdfrwt>
<pdfrwt beam="2">  1       21 0.88768248E-01 0.19347758E+03</pdfrwt>
<totfact> 0.24075885E+04</totfact>
</mgrwt>
</event>
<event>
 4    1  0.4336176E+000  0.1815573E+03  0.7546771E-02  0.1166304E+00
         21   -1    0    0  501  502  0.00000000000E+00  0.00000000000E+00  0.22043773311E+03  0.22043773311E+03  0.00000000000E+00 0. -1.
         21   -1    0    0  502  503 -0.00000000000E+00 -0.00000000000E+00 -0.43412217528E+03  0.43412217528E+03  0.00000000000E+00 0. -1.
          6    1    1    2  501    0  0.66723453561E+00 -0.55078291334E+02  0.15814284878E+03  0.24077421789E+03  0.17300000000E+03 0. -1.
         -6    1    1    2    0  503 -0.66723453561E+00  0.55078291334E+02 -0.37182729094E+03  0.41378569051E+03  0.17300000000E+03 0. -1.
<mgrwt>
<rscale>  2 0.18155733E+03</rscale>
<asrwt>0</asrwt>
<pdfrwt beam="1">  1       21 0.33913497E-01 0.18155733E+03</pdfrwt>
<pdfrwt beam="2">  1       21 0.66788027E-01 0.18155733E+03</pdfrwt>
<totfact> 0.17325819E+04</totfact>
</mgrwt>
</event>
<event>
 4    1  0.4336176E+000  0.1760976E+03  0.7546771E-02  0.1171634E+00
         21   -1    0    0  501  502  0.00000000000E+00  0.00000000000E+00  0.27071247367E+02  0.27071247367E+02  0.00000000000E+00 0.  1.
         21   -1    0    0  502  503 -0.00000000000E+00 -0.00000000000E+00 -0.11747469325E+04  0.11747469325E+04  0.00000000000E+00 0.  1.
          6    1    1    2  501    0 -0.18452475473E+02  0.27219002200E+02 -0.47903811668E+03  0.51038013790E+03  0.17300000000E+03 0.  1.
         -6    1    1    2    0  503  0.18452475473E+02 -0.27219002200E+02 -0.66863756846E+03  0.69143804198E+03  0.17300000000E+03 0.  1.
<mgrwt>
<rscale>  2 0.17609761E+03</rscale>
<asrwt>0</asrwt>
<pdfrwt beam="1">  1       21 0.41648072E-02 0.17609761E+03</pdfrwt>
<pdfrwt beam="2">  1       21 0.18073030E+00 0.17609761E+03</pdfrwt>
<totfact> 0.66518238E+04</totfact>
</mgrwt>
</event>
<event>
 4    1  0.4336176E+000  0.1909893E+03  0.7546771E-02  0.1157572E+00
         21   -1    0    0  501  502  0.00000000000E+00  0.00000000000E+00  0.12401751995E+04  0.12401751995E+04  0.00000000000E+00 0.  1.
         21   -1    0    0  502  503 -0.00000000000E+00 -0.00000000000E+00 -0.30943483416E+02  0.30943483416E+02  0.00000000000E+00 0.  1.
          6    1    1    2  501    0  0.54638327573E+02  0.59687287544E+02  0.46325592998E+03  0.50108180549E+03  0.17300000000E+03 0.  1.
         -6    1    1    2    0  503 -0.54638327573E+02 -0.59687287544E+02  0.74597578607E+03  0.77003687739E+03  0.17300000000E+03 0.  1.
<mgrwt>
<rscale>  2 0.19098932E+03</rscale>
<asrwt>0</asrwt>
<pdfrwt beam="1">  1       21 0.19079615E+00 0.19098932E+03</pdfrwt>
<pdfrwt beam="2">  1       21 0.47605369E-02 0.19098932E+03</pdfrwt>
<totfact> 0.45092179E+04</totfact>
</mgrwt>
</event>
<event>
 4    1  0.4336176E+000  0.3012183E+03  0.7546771E-02  0.1084633E+00
         21   -1    0    0  503  502  0.00000000000E+00  0.00000000000E+00  0.48157699125E+03  0.48157699125E+03  0.00000000000E+00 0.  1.
         21   -1    0    0  501  503 -0.00000000000E+00 -0.00000000000E+00 -0.55857886085E+03  0.55857886085E+03  0.00000000000E+00 0. -1.
          6    1    1    2  501    0  0.13581017876E+03  0.20581322062E+03 -0.46187852024E+03  0.55142021535E+03  0.17300000000E+03 0. -1.
         -6    1    1    2    0  502 -0.13581017876E+03 -0.20581322062E+03  0.38487665064E+03  0.48873563676E+03  0.17300000000E+03 0.  1.
<mgrwt>
<rscale>  2 0.30121834E+03</rscale>
<asrwt>0</asrwt>
<pdfrwt beam="1">  1       21 0.74088768E-01 0.30121834E+03</pdfrwt>
<pdfrwt beam="2">  1       21 0.85935209E-01 0.30121834E+03</pdfrwt>
<totfact> 0.17615403E+03</totfact>
</mgrwt>
</event>
<event>
 4    1  0.4336176E+000  0.1895119E+03  0.7546771E-02  0.1158902E+00
         21   -1    0    0  503  502  0.00000000000E+00  0.00000000000E+00  0.25634559714E+03  0.25634559714E+03  0.00000000000E+00 0. -1.
         21   -1    0    0  501  503 -0.00000000000E+00 -0.00000000000E+00 -0.19976352120E+03  0.19976352120E+03  0.00000000000E+00 0. -1.
          6    1    1    2  501    0 -0.77290885760E+02 -0.34451287308E+01 -0.96339571036E+02  0.21259365673E+03  0.17300000000E+03 0. -1.
         -6    1    1    2    0  502  0.77290885760E+02  0.34451287308E+01  0.15292164697E+03  0.24351546162E+03  0.17300000000E+03 0. -1.
<mgrwt>
<rscale>  2 0.18951187E+03</rscale>
<asrwt>0</asrwt>
<pdfrwt beam="1">  1       21 0.39437784E-01 0.18951187E+03</pdfrwt>
<pdfrwt beam="2">  1       21 0.30732849E-01 0.18951187E+03</pdfrwt>
<totfact> 0.63097224E+04</totfact>
</mgrwt>
</event>
<event>
 4    1  0.4336176E+000  0.2128790E+03  0.7546771E-02  0.1139306E+00
         21   -1    0    0  503  502  0.00000000000E+00  0.00000000000E+00  0.14995686541E+03  0.14995686541E+03  0.00000000000E+00 0. -1.
         21   -1    0    0  501  503 -0.00000000000E+00 -0.00000000000E+00 -0.30300360999E+03  0.30300360999E+03  0.00000000000E+00 0. -1.
          6    1    1    2  501    0  0.12127337134E+03  0.26100531587E+02 -0.88162479745E+02  0.23041287113E+03  0.17300000000E+03 0.  1.
         -6    1    1    2    0  502 -0.12127337134E+03 -0.26100531587E+02 -0.64884264832E+02  0.22254760428E+03  0.17300000000E+03 0.  1.
<mgrwt>
<rscale>  2 0.21287900E+03</rscale>
<asrwt>0</asrwt>
<pdfrwt beam="1">  1       21 0.23070287E-01 0.21287900E+03</pdfrwt>
<pdfrwt beam="2">  1       21 0.46615940E-01 0.21287900E+03</pdfrwt>
<totfact> 0.77088198E+04</totfact>
</mgrwt>
</event>
<event>
 4    1  0.4336176E+000  0.2202318E+03  0.7546771E-02  0.1133710E+00
         21   -1    0    0  503  502  0.00000000000E+00  0.00000000000E+00  0.19264271912E+03  0.19264271912E+03  0.00000000000E+00 0.  1.
         21   -1    0    0  501  503 -0.00000000000E+00 -0.00000000000E+00 -0.26260138148E+03  0.26260138148E+03  0.00000000000E+00 0. -1.
          6    1    1    2  501    0  0.90044913069E+01 -0.13598515742E+03 -0.81203331386E+02  0.23472542455E+03  0.17300000000E+03 0. -1.
         -6    1    1    2    0  502 -0.90044913069E+01  0.13598515742E+03  0.11244669024E+02  0.22051867604E+03  0.17300000000E+03 0.  1.
<mgrwt>
<rscale>  2 0.22023180E+03</rscale>
<asrwt>0</asrwt>
<pdfrwt beam="1">  1       21 0.29637341E-01 0.22023180E+03</pdfrwt>
<pdfrwt beam="2">  1       21 0.40400213E-01 0.22023180E+03</pdfrwt>
<totfact> 0.63631637E+04</totfact>
</mgrwt>
</event>
<event>
 4    1  0.4336176E+000  0.1762071E+03  0.7546771E-02  0.1171525E+00
         21   -1    0    0  503  502  0.00000000000E+00  0.00000000000E+00  0.49221542438E+02  0.49221542438E+02  0.00000000000E+00 0.  1.
         21   -1    0    0  501  503 -0.00000000000E+00 -0.00000000000E+00 -0.76601958808E+03  0.76601958808E+03  0.00000000000E+00 0.  1.
          6    1    1    2  501    0 -0.33464936413E+02  0.19980487375E+00 -0.52965911937E+03  0.55820043409E+03  0.17300000000E+03 0.  1.
         -6    1    1    2    0  502  0.33464936413E+02 -0.19980487375E+00 -0.18713892627E+03  0.25704069642E+03  0.17300000000E+03 0.  1.
<mgrwt>
<rscale>  2 0.17620710E+03</rscale>
<asrwt>0</asrwt>
<pdfrwt beam="1">  1       21 0.75725451E-02 0.17620710E+03</pdfrwt>
<pdfrwt beam="2">  1       21 0.11784917E+00 0.17620710E+03</pdfrwt>
<totfact> 0.73472825E+04</totfact>
</mgrwt>
</event>
<event>
 4    1  0.4336176E+000  0.2075628E+03  0.7546771E-02  0.1143511E+00
         21   -1    0    0  503  502  0.00000000000E+00  0.00000000000E+00  0.19861405407E+03  0.19861405407E+03  0.00000000000E+00 0.  1.
         21   -1    0    0  501  503 -0.00000000000E+00 -0.00000000000E+00 -0.23626654617E+03  0.23626654617E+03  0.00000000000E+00 0.  1.
          6    1    1    2  501    0  0.10507962919E+03  0.45951813810E+02  0.43403883547E+02  0.21205233970E+03  0.17300000000E+03 0.  1.
         -6    1    1    2    0  502 -0.10507962919E+03 -0.45951813810E+02 -0.81056375643E+02  0.22282826054E+03  0.17300000000E+03 0.  1.
<mgrwt>
<rscale>  2 0.20756276E+03</rscale>
<asrwt>0</asrwt>
<pdfrwt beam="1">  1       21 0.30556009E-01 0.20756276E+03</pdfrwt>
<pdfrwt beam="2">  1       21 0.36348699E-01 0.20756276E+03</pdfrwt>
<totfact> 0.74557177E+04</totfact>
</mgrwt>
</event>
<event>
 4    1  0.4336176E+000  0.2255142E+03  0.7546771E-02  0.1129838E+00
         21   -1    0    0  501  502  0.00000000000E+00  0.00000000000E+00  0.76459722344E+02  0.76459722344E+02  0.00000000000E+00 0. -1.
         21   -1    0    0  502  503 -0.00000000000E+00 -0.00000000000E+00 -0.95729463964E+03  0.95729463964E+03  0.00000000000E+00 0. -1.
          6    1    1    2  501    0 -0.14461740790E+03  0.36679832030E+01 -0.15487630283E+03  0.27357506821E+03  0.17300000000E+03 0. -1.
         -6    1    1    2    0  503  0.14461740790E+03 -0.36679832030E+01 -0.72595861446E+03  0.76017929377E+03  0.17300000000E+03 0. -1.
<mgrwt>
<rscale>  2 0.22551419E+03</rscale>
<asrwt>0</asrwt>
<pdfrwt beam="1">  1       21 0.11763033E-01 0.22551419E+03</pdfrwt>
<pdfrwt beam="2">  1       21 0.14727611E+00 0.22551419E+03</pdfrwt>
<totfact> 0.18669800E+04</totfact>
</mgrwt>
</event>
<event>
 4    1  0.4336176E+000  0.2387807E+03  0.7546771E-02  0.1120608E+00
         21   -1    0    0  501  502  0.00000000000E+00  0.00000000000E+00  0.97091190322E+03  0.97091190322E+03  0.00000000000E+00 0.  1.
         21   -1    0    0  502  503 -0.00000000000E+00 -0.00000000000E+00 -0.60334770920E+02  0.60334770920E+02  0.00000000000E+00 0.  1.
          6    1    1    2  501    0 -0.16114317074E+03  0.33467898618E+02  0.53952719895E+03  0.59000493228E+03  0.17300000000E+03 0.  1.
         -6    1    1    2    0  503  0.16114317074E+03 -0.33467898618E+02  0.37104993336E+03  0.44124174186E+03  0.17300000000E+03 0.  1.
<mgrwt>
<rscale>  2 0.23878070E+03</rscale>
<asrwt>0</asrwt>
<pdfrwt beam="1">  1       21 0.14937105E+00 0.23878070E+03</pdfrwt>
<pdfrwt beam="2">  1       21 0.92822732E-02 0.23878070E+03</pdfrwt>
<totfact> 0.27207865E+04</totfact>
</mgrwt>
</event>
<event>
 4    1  0.4336176E+000  0.2320192E+03  0.7546771E-02  0.1125227E+00
         21   -1    0    0  501  502  0.00000000000E+00  0.00000000000E+00  0.24350880515E+03  0.24350880515E+03  0.00000000000E+00 0. -1.
         21   -1    0    0  502  503 -0.00000000000E+00 -0.00000000000E+00 -0.29047699222E+03  0.29047699222E+03  0.00000000000E+00 0. -1.
          6    1    1    2  501    0 -0.13010429173E+03 -0.83527076900E+02  0.10702483205E+03  0.25551362777E+03  0.17300000000E+03 0. -1.
         -6    1    1    2    0  503  0.13010429173E+03  0.83527076900E+02 -0.15399301912E+03  0.27847216960E+03  0.17300000000E+03 0. -1.
<mgrwt>
<rscale>  2 0.23201918E+03</rscale>
<asrwt>0</asrwt>
<pdfrwt beam="1">  1       21 0.37462893E-01 0.23201918E+03</pdfrwt>
<pdfrwt beam="2">  1       21 0.44688768E-01 0.23201918E+03</pdfrwt>
<totfact> 0.32371925E+04</totfact>
</mgrwt>
</event>
<event>
 4    1  0.4336176E+000  0.2484654E+03  0.7546771E-02  0.1114279E+00
         21   -1    0    0  503  502  0.00000000000E+00  0.00000000000E+00  0.79910154315E+03  0.79910154315E+03  0.00000000000E+00 0.  1.
         21   -1    0    0  501  503 -0.00000000000E+00 -0.00000000000E+00 -0.11113069269E+03  0.11113069269E+03  0.00000000000E+00 0.  1.
          6    1    1    2  501    0  0.13881099130E+03  0.11197124528E+03  0.92712557142E+02  0.26519930115E+03  0.17300000000E+03 0.  1.
         -6    1    1    2    0  502 -0.13881099130E+03 -0.11197124528E+03  0.59525829332E+03  0.64503293470E+03  0.17300000000E+03 0.  1.
<mgrwt>
<rscale>  2 0.24846539E+03</rscale>
<asrwt>0</asrwt>
<pdfrwt beam="1">  1       21 0.12293870E+00 0.24846539E+03</pdfrwt>
<pdfrwt beam="2">  1       21 0.17097030E-01 0.24846539E+03</pdfrwt>
<totfact> 0.14833099E+04</totfact>
</mgrwt>
</event>
<event>
 4    1  0.4336176E+000  0.1918993E+03  0.7546771E-02  0.1156759E+00
         21   -1    0    0  501  502  0.00000000000E+00  0.00000000000E+00  0.53261429105E+02  0.53261429105E+02  0.00000000000E+00 0. -1.
         21   -1    0    0  502  503 -0.00000000000E+00 -0.00000000000E+00 -0.10894847796E+04  0.10894847796E+04  0.00000000000E+00 0. -1.
          6    1    1    2  501    0 -0.73358662349E+02  0.38921292800E+02 -0.17273515094E+03  0.25819138782E+03  0.17300000000E+03 0. -1.
         -6    1    1    2    0  503  0.73358662349E+02 -0.38921292800E+02 -0.86348819956E+03  0.88455482088E+03  0.17300000000E+03 0. -1.
<mgrwt>
<rscale>  2 0.19189935E+03</rscale>
<asrwt>0</asrwt>
<pdfrwt beam="1">  1       21 0.81940659E-02 0.19189935E+03</pdfrwt>
<pdfrwt beam="2">  1       21 0.16761305E+00 0.19189935E+03</pdfrwt>
<totfact> 0.25544549E+04</totfact>
</mgrwt>
</event>
<event>
 4    1  0.4336176E+000  0.1796465E+03  0.7546771E-02  0.1168146E+00
         21   -1    0    0  501  502  0.00000000000E+00  0.00000000000E+00  0.21830355955E+03  0.21830355955E+03  0.00000000000E+00 0. -1.
         21   -1    0    0  502  503 -0.00000000000E+00 -0.00000000000E+00 -0.14951611379E+03  0.14951611379E+03  0.00000000000E+00 0. -1.
          6    1    1    2  501    0  0.37893414626E+02 -0.30132104884E+02  0.53896225474E+02  0.18755707861E+03  0.17300000000E+03 0.  1.
         -6    1    1    2    0  503 -0.37893414626E+02  0.30132104884E+02  0.14891220285E+02  0.18026259473E+03  0.17300000000E+03 0.  1.
<mgrwt>
<rscale>  2 0.17964647E+03</rscale>
<asrwt>0</asrwt>
<pdfrwt beam="1">  1       21 0.33585163E-01 0.17964647E+03</pdfrwt>
<pdfrwt beam="2">  1       21 0.23002479E-01 0.17964647E+03</pdfrwt>
<totfact> 0.15215870E+05</totfact>
</mgrwt>
</event>
<event>
 4    1  0.4336176E+000  0.1836804E+03  0.7546771E-02  0.1164288E+00
         21   -1    0    0  503  502  0.00000000000E+00  0.00000000000E+00  0.17201103128E+03  0.17201103128E+03  0.00000000000E+00 0. -1.
         21   -1    0    0  501  503 -0.00000000000E+00 -0.00000000000E+00 -0.19829001896E+03  0.19829001896E+03  0.00000000000E+00 0.  1.
          6    1    1    2  501    0 -0.57611567232E+02 -0.22144514968E+02 -0.32413031211E+02  0.18651830155E+03  0.17300000000E+03 0.  1.
         -6    1    1    2    0  502  0.57611567232E+02  0.22144514968E+02  0.61340435298E+01  0.18378274868E+03  0.17300000000E+03 0. -1.
<mgrwt>
<rscale>  2 0.18368035E+03</rscale>
<asrwt>0</asrwt>
<pdfrwt beam="1">  1       21 0.26463236E-01 0.18368035E+03</pdfrwt>
<pdfrwt beam="2">  1       21 0.30506157E-01 0.18368035E+03</pdfrwt>
<totfact> 0.14051535E+05</totfact>
</mgrwt>
</event>
<event>
 4    1  0.4336176E+000  0.1878181E+03  0.7546771E-02  0.1160444E+00
         21   -1    0    0  503  502  0.00000000000E+00  0.00000000000E+00  0.52295062630E+03  0.52295062630E+03  0.00000000000E+00 0.  1.
         21   -1    0    0  501  503 -0.00000000000E+00 -0.00000000000E+00 -0.16945478982E+03  0.16945478982E+03  0.00000000000E+00 0.  1.
          6    1    1    2  501    0  0.35098423953E+02  0.64146143886E+02 -0.91850347665E+02  0.20907442097E+03  0.17300000000E+03 0.  1.
         -6    1    1    2    0  502 -0.35098423953E+02 -0.64146143886E+02  0.44534618415E+03  0.48333099515E+03  0.17300000000E+03 0.  1.
<mgrwt>
<rscale>  2 0.18781807E+03</rscale>
<asrwt>0</asrwt>
<pdfrwt beam="1">  1       21 0.80453942E-01 0.18781807E+03</pdfrwt>
<pdfrwt beam="2">  1       21 0.26069968E-01 0.18781807E+03</pdfrwt>
<totfact> 0.19038428E+04</totfact>
</mgrwt>
</event>
<event>
 4    1  0.4336176E+000  0.2398265E+03  0.7546771E-02  0.1119908E+00
         21   -1    0    0  503  502  0.00000000000E+00  0.00000000000E+00  0.10953901210E+03  0.10953901210E+03  0.00000000000E+00 0. -1.
         21   -1    0    0  501  503 -0.00000000000E+00 -0.00000000000E+00 -0.82535644695E+03  0.82535644695E+03  0.00000000000E+00 0. -1.
          6    1    1    2  501    0 -0.16227723916E+03  0.35410012317E+02 -0.63985913209E+03  0.68332750585E+03  0.17300000000E+03 0. -1.
         -6    1    1    2    0  502  0.16227723916E+03 -0.35410012317E+02 -0.75958302759E+02  0.25156795321E+03  0.17300000000E+03 0. -1.
<mgrwt>
<rscale>  2 0.23982654E+03</rscale>
<asrwt>0</asrwt>
<pdfrwt beam="1">  1       21 0.16852155E-01 0.23982654E+03</pdfrwt>
<pdfrwt beam="2">  1       21 0.12697792E+00 0.23982654E+03</pdfrwt>
<totfact> 0.14108734E+04</totfact>
</mgrwt>
</event>
<event>
 4    1  0.4336176E+000  0.2104104E+03  0.7546771E-02  0.1141241E+00
         21   -1    0    0  501  502  0.00000000000E+00  0.00000000000E+00  0.14249211434E+03  0.14249211434E+03  0.00000000000E+00 0. -1.
         21   -1    0    0  502  503 -0.00000000000E+00 -0.00000000000E+00 -0.31210437858E+03  0.31210437858E+03  0.00000000000E+00 0. -1.
          6    1    1    2  501    0  0.45071038970E+01 -0.11967970737E+03 -0.69568387394E+02  0.22161296638E+03  0.17300000000E+03 0. -1.
         -6    1    1    2    0  503 -0.45071038970E+01  0.11967970737E+03 -0.10004387685E+03  0.23298352654E+03  0.17300000000E+03 0. -1.
<mgrwt>
<rscale>  2 0.21041042E+03</rscale>
<asrwt>0</asrwt>
<pdfrwt beam="1">  1       21 0.21921864E-01 0.21041042E+03</pdfrwt>
<pdfrwt beam="2">  1       21 0.48016057E-01 0.21041042E+03</pdfrwt>
<totfact> 0.79941036E+04</totfact>
</mgrwt>
</event>
<event>
 4    1  0.4336176E+000  0.2099496E+03  0.7546771E-02  0.1141606E+00
         21   -1    0    0  501  502  0.00000000000E+00  0.00000000000E+00  0.81905641829E+02  0.81905641829E+02  0.00000000000E+00 0.  1.
         21   -1    0    0  502  503 -0.00000000000E+00 -0.00000000000E+00 -0.56528084541E+03  0.56528084541E+03  0.00000000000E+00 0. -1.
          6    1    1    2  501    0 -0.78566611573E+02 -0.89314672559E+02 -0.31255911461E+03  0.37652625846E+03  0.17300000000E+03 0. -1.
         -6    1    1    2    0  503  0.78566611573E+02  0.89314672559E+02 -0.17081608897E+03  0.27066022877E+03  0.17300000000E+03 0.  1.
<mgrwt>
<rscale>  2 0.20994957E+03</rscale>
<asrwt>0</asrwt>
<pdfrwt beam="1">  1       21 0.12600868E-01 0.20994957E+03</pdfrwt>
<pdfrwt beam="2">  1       21 0.86966281E-01 0.20994957E+03</pdfrwt>
<totfact> 0.60627541E+04</totfact>
</mgrwt>
</event>
<event>
 4    1  0.4336176E+000  0.1922729E+03  0.7546771E-02  0.1156427E+00
         21   -1    0    0  503  502  0.00000000000E+00  0.00000000000E+00  0.59037567650E+03  0.59037567650E+03  0.00000000000E+00 0. -1.
         21   -1    0    0  501  503 -0.00000000000E+00 -0.00000000000E+00 -0.65042349751E+02  0.65042349751E+02  0.00000000000E+00 0. -1.
          6    1    1    2  501    0  0.35069437780E+02 -0.76223415583E+02  0.19941425523E+03  0.27701068524E+03  0.17300000000E+03 0. -1.
         -6    1    1    2    0  502 -0.35069437780E+02  0.76223415583E+02  0.32591907152E+03  0.37840734101E+03  0.17300000000E+03 0. -1.
<mgrwt>
<rscale>  2 0.19227292E+03</rscale>
<asrwt>0</asrwt>
<pdfrwt beam="1">  1       21 0.90827024E-01 0.19227292E+03</pdfrwt>
<pdfrwt beam="2">  1       21 0.10006516E-01 0.19227292E+03</pdfrwt>
<totfact> 0.83383804E+04</totfact>
</mgrwt>
</event>
<event>
 4    1  0.4336176E+000  0.2155458E+03  0.7546771E-02  0.1137248E+00
         21   -1    0    0  503  502  0.00000000000E+00  0.00000000000E+00  0.99468606461E+02  0.99468606461E+02  0.00000000000E+00 0.  1.
         21   -1    0    0  501  503 -0.00000000000E+00 -0.00000000000E+00 -0.14949760848E+04  0.14949760848E+04  0.00000000000E+00 0.  1.
          6    1    1    2  501    0  0.11042005929E+03  0.65866679160E+02 -0.36700411473E+02  0.21864795704E+03  0.17300000000E+03 0.  1.
         -6    1    1    2    0  502 -0.11042005929E+03 -0.65866679160E+02 -0.13588070669E+04  0.13757967342E+04  0.17300000000E+03 0.  1.
<mgrwt>
<rscale>  2 0.21554584E+03</rscale>
<asrwt>0</asrwt>
<pdfrwt beam="1">  1       21 0.15302864E-01 0.21554584E+03</pdfrwt>
<pdfrwt beam="2">  1       21 0.22999630E+00 0.21554584E+03</pdfrwt>
<totfact> 0.32330286E+03</totfact>
</mgrwt>
</event>
<event>
 4    1  0.4336176E+000  0.2166852E+03  0.7546771E-02  0.1136379E+00
         21   -1    0    0  501  502  0.00000000000E+00  0.00000000000E+00  0.74418853161E+03  0.74418853161E+03  0.00000000000E+00 0. -1.
         21   -1    0    0  502  503 -0.00000000000E+00 -0.00000000000E+00 -0.79190740429E+02  0.79190740429E+02  0.00000000000E+00 0.  1.
          6    1    1    2  501    0 -0.12491353545E+03  0.37684037669E+02  0.51811952067E+03  0.56160512438E+03  0.17300000000E+03 0. -1.
         -6    1    1    2    0  503  0.12491353545E+03 -0.37684037669E+02  0.14687827051E+03  0.26177414766E+03  0.17300000000E+03 0.  1.
<mgrwt>
<rscale>  2 0.21668520E+03</rscale>
<asrwt>0</asrwt>
<pdfrwt beam="1">  1       21 0.11449054E+00 0.21668520E+03</pdfrwt>
<pdfrwt beam="2">  1       21 0.12183191E-01 0.21668520E+03</pdfrwt>
<totfact> 0.33394597E+04</totfact>
</mgrwt>
</event>
<event>
 4    1  0.4336176E+000  0.2017740E+03  0.7546771E-02  0.1148251E+00
         21   -1    0    0  503  502  0.00000000000E+00  0.00000000000E+00  0.18806874590E+03  0.18806874590E+03  0.00000000000E+00 0. -1.
         21   -1    0    0  501  503 -0.00000000000E+00 -0.00000000000E+00 -0.21666344011E+03  0.21666344011E+03  0.00000000000E+00 0.  1.
          6    1    1    2  501    0 -0.98872592172E+02 -0.31748485402E+02 -0.20216854053E+02  0.20278431151E+03  0.17300000000E+03 0. -1.
         -6    1    1    2    0  502  0.98872592172E+02  0.31748485402E+02 -0.83778401658E+01  0.20194787450E+03  0.17300000000E+03 0. -1.
<mgrwt>
<rscale>  2 0.20177402E+03</rscale>
<asrwt>0</asrwt>
<pdfrwt beam="1">  1       21 0.28933653E-01 0.20177402E+03</pdfrwt>
<pdfrwt beam="2">  1       21 0.33332837E-01 0.20177402E+03</pdfrwt>
<totfact> 0.98732352E+04</totfact>
</mgrwt>
</event>
<event>
 4    1  0.4336176E+000  0.1737573E+03  0.7546771E-02  0.1173985E+00
         21   -1    0    0  501  502  0.00000000000E+00  0.00000000000E+00  0.74197862125E+03  0.74197862125E+03  0.00000000000E+00 0. -1.
         21   -1    0    0  502  503 -0.00000000000E+00 -0.00000000000E+00 -0.86293122532E+02  0.86293122532E+02  0.00000000000E+00 0. -1.
          6    1    1    2  501    0 -0.37459607140E+01  0.15766346205E+02  0.62889982644E+03  0.65246195414E+03  0.17300000000E+03 0. -1.
         -6    1    1    2    0  503  0.37459607140E+01 -0.15766346205E+02  0.26785672268E+02  0.17580978964E+03  0.17300000000E+03 0. -1.
<mgrwt>
<rscale>  2 0.17375733E+03</rscale>
<asrwt>0</asrwt>
<pdfrwt beam="1">  1       21 0.11415055E+00 0.17375733E+03</pdfrwt>
<pdfrwt beam="2">  1       21 0.13275865E-01 0.17375733E+03</pdfrwt>
<totfact> 0.29543712E+04</totfact>
</mgrwt>
</event>
<event>
 4    1  0.4336176E+000  0.2098206E+03  0.7546771E-02  0.1141708E+00
         21   -1    0    0  503  502  0.00000000000E+00  0.00000000000E+00  0.71414166164E+02  0.71414166164E+02  0.00000000000E+00 0.  1.
         21   -1    0    0  501  503 -0.00000000000E+00 -0.00000000000E+00 -0.14010295178E+04  0.14010295178E+04  0.00000000000E+00 0.  1.
          6    1    1    2  501    0 -0.68871571400E+02  0.96707769643E+02 -0.12157397058E+04  0.12337129805E+04  0.17300000000E+03 0.  1.
         -6    1    1    2    0  502  0.68871571400E+02 -0.96707769643E+02 -0.11387564586E+03  0.23873070347E+03  0.17300000000E+03 0.  1.
<mgrwt>
<rscale>  2 0.20982060E+03</rscale>
<asrwt>0</asrwt>
<pdfrwt beam="1">  1       21 0.10986794E-01 0.20982060E+03</pdfrwt>
<pdfrwt beam="2">  1       21 0.21554301E+00 0.20982060E+03</pdfrwt>
<totfact> 0.72484149E+03</totfact>
</mgrwt>
</event>
<event>
 4    1  0.4336176E+000  0.2389334E+03  0.7546771E-02  0.1120505E+00
         21   -1    0    0  503  502  0.00000000000E+00  0.00000000000E+00  0.34851330257E+03  0.34851330257E+03  0.00000000000E+00 0. -1.
         21   -1    0    0  501  503 -0.00000000000E+00 -0.00000000000E+00 -0.16385200980E+03  0.16385200980E+03  0.00000000000E+00 0.  1.
          6    1    1    2  501    0 -0.13755006266E+03  0.90775177569E+02  0.96544826532E+02  0.25770148647E+03  0.17300000000E+03 0.  1.
         -6    1    1    2    0  502  0.13755006266E+03 -0.90775177569E+02  0.88116466233E+02  0.25466382590E+03  0.17300000000E+03 0.  1.
<mgrwt>
<rscale>  2 0.23893336E+03</rscale>
<asrwt>0</asrwt>
<pdfrwt beam="1">  1       21 0.53617431E-01 0.23893336E+03</pdfrwt>
<pdfrwt beam="2">  1       21 0.25208002E-01 0.23893336E+03</pdfrwt>
<totfact> 0.48036277E+04</totfact>
</mgrwt>
</event>
<event>
 4    1  0.4336176E+000  0.2392034E+03  0.7546771E-02  0.1120325E+00
         21   -1    0    0  501  502  0.00000000000E+00  0.00000000000E+00  0.17134565467E+03  0.17134565467E+03  0.00000000000E+00 0. -1.
         21   -1    0    0  502  503 -0.00000000000E+00 -0.00000000000E+00 -0.35863004610E+03  0.35863004610E+03  0.00000000000E+00 0.  1.
          6    1    1    2  501    0  0.15658662791E+03  0.52629648762E+02 -0.24106054602E+02  0.24041496176E+03  0.17300000000E+03 0.  1.
         -6    1    1    2    0  503 -0.15658662791E+03 -0.52629648762E+02 -0.16317833683E+03  0.28956073901E+03  0.17300000000E+03 0. -1.
<mgrwt>
<rscale>  2 0.23920337E+03</rscale>
<asrwt>0</asrwt>
<pdfrwt beam="1">  1       21 0.26360870E-01 0.23920337E+03</pdfrwt>
<pdfrwt beam="2">  1       21 0.55173852E-01 0.23920337E+03</pdfrwt>
<totfact> 0.41470895E+04</totfact>
</mgrwt>
</event>
<event>
 4    1  0.4336176E+000  0.1982209E+03  0.7546771E-02  0.1151249E+00
         21   -1    0    0  503  502  0.00000000000E+00  0.00000000000E+00  0.29456017219E+03  0.29456017219E+03  0.00000000000E+00 0. -1.
         21   -1    0    0  501  503 -0.00000000000E+00 -0.00000000000E+00 -0.23744068241E+03  0.23744068241E+03  0.00000000000E+00 0.  1.
          6    1    1    2  501    0  0.90864839620E+02  0.33257938615E+02 -0.14752686270E+03  0.24709448553E+03  0.17300000000E+03 0.  1.
         -6    1    1    2    0  502 -0.90864839620E+02 -0.33257938615E+02  0.20464635248E+03  0.28490636908E+03  0.17300000000E+03 0. -1.
<mgrwt>
<rscale>  2 0.19822086E+03</rscale>
<asrwt>0</asrwt>
<pdfrwt beam="1">  1       21 0.45316950E-01 0.19822086E+03</pdfrwt>
<pdfrwt beam="2">  1       21 0.36529336E-01 0.19822086E+03</pdfrwt>
<totfact> 0.33656858E+04</totfact>
</mgrwt>
</event>
<event>
 4    1  0.4336176E+000  0.4337187E+03  0.7546771E-02  0.1032692E+00
         21   -1    0    0  503  502  0.00000000000E+00  0.00000000000E+00  0.46781464216E+03  0.46781464216E+03  0.00000000000E+00 0. -1.
         21   -1    0    0  501  503 -0.00000000000E+00 -0.00000000000E+00 -0.40691204619E+03  0.40691204619E+03  0.00000000000E+00 0. -1.
          6    1    1    2  501    0 -0.32150143978E+03 -0.23413605768E+03 -0.17072298916E+02  0.43405452731E+03  0.17300000000E+03 0. -1.
         -6    1    1    2    0  502  0.32150143978E+03  0.23413605768E+03  0.77974894880E+02  0.44067216104E+03  0.17300000000E+03 0. -1.
<mgrwt>
<rscale>  2 0.43371865E+03</rscale>
<asrwt>0</asrwt>
<pdfrwt beam="1">  1       21 0.71971484E-01 0.43371865E+03</pdfrwt>
<pdfrwt beam="2">  1       21 0.62601853E-01 0.43371865E+03</pdfrwt>
<totfact> 0.36228465E+03</totfact>
</mgrwt>
</event>
<event>
 4    1  0.4336176E+000  0.2003807E+03  0.7546771E-02  0.1149418E+00
         21   -1    0    0  501  502  0.00000000000E+00  0.00000000000E+00  0.65537404044E+03  0.65537404044E+03  0.00000000000E+00 0. -1.
         21   -1    0    0  502  503 -0.00000000000E+00 -0.00000000000E+00 -0.70575519444E+02  0.70575519444E+02  0.00000000000E+00 0. -1.
          6    1    1    2  501    0 -0.91479050173E+02  0.43069913442E+02  0.42422578019E+03  0.46916942211E+03  0.17300000000E+03 0. -1.
         -6    1    1    2    0  503  0.91479050173E+02 -0.43069913442E+02  0.16057274080E+03  0.25678013777E+03  0.17300000000E+03 0. -1.
<mgrwt>
<rscale>  2 0.20038072E+03</rscale>
<asrwt>0</asrwt>
<pdfrwt beam="1">  1       21 0.10082677E+00 0.20038072E+03</pdfrwt>
<pdfrwt beam="2">  1       21 0.10857773E-01 0.20038072E+03</pdfrwt>
<totfact> 0.56244758E+04</totfact>
</mgrwt>
</event>
<event>
 4    1  0.4336176E+000  0.2506520E+03  0.7546771E-02  0.1112893E+00
         21   -1    0    0  503  502  0.00000000000E+00  0.00000000000E+00  0.15292875077E+04  0.15292875077E+04  0.00000000000E+00 0.  1.
         21   -1    0    0  501  503 -0.00000000000E+00 -0.00000000000E+00 -0.44384886589E+02  0.44384886589E+02  0.00000000000E+00 0.  1.
          6    1    1    2  501    0 -0.17018830057E+03 -0.62716720494E+02  0.52781527949E+03  0.58430763639E+03  0.17300000000E+03 0.  1.
         -6    1    1    2    0  502  0.17018830057E+03  0.62716720494E+02  0.95708734158E+03  0.98936475786E+03  0.17300000000E+03 0.  1.
<mgrwt>
<rscale>  2 0.25065204E+03</rscale>
<asrwt>0</asrwt>
<pdfrwt beam="1">  1       21 0.23527496E+00 0.25065204E+03</pdfrwt>
<pdfrwt beam="2">  1       21 0.68284453E-02 0.25065204E+03</pdfrwt>
<totfact> 0.12253633E+04</totfact>
</mgrwt>
</event>
<event>
 4    1  0.4336176E+000  0.1999475E+03  0.7546771E-02  0.1149783E+00
         21   -1    0    0  503  502  0.00000000000E+00  0.00000000000E+00  0.24634912695E+03  0.24634912695E+03  0.00000000000E+00 0. -1.
         21   -1    0    0  501  503 -0.00000000000E+00 -0.00000000000E+00 -0.53855003896E+03  0.53855003896E+03  0.00000000000E+00 0. -1.
          6    1    1    2  501    0 -0.10011000102E+03  0.52909743655E+01 -0.47413321422E+03  0.51456905420E+03  0.17300000000E+03 0. -1.
         -6    1    1    2    0  502  0.10011000102E+03 -0.52909743655E+01  0.18193230220E+03  0.27033011171E+03  0.17300000000E+03 0. -1.
<mgrwt>
<rscale>  2 0.19994751E+03</rscale>
<asrwt>0</asrwt>
<pdfrwt beam="1">  1       21 0.37899866E-01 0.19994751E+03</pdfrwt>
<pdfrwt beam="2">  1       21 0.82853851E-01 0.19994751E+03</pdfrwt>
<totfact> 0.84840322E+03</totfact>
</mgrwt>
</event>
<event>
 4    1  0.4336176E+000  0.2140074E+03  0.7546771E-02  0.1138431E+00
         21   -1    0    0  501  502  0.00000000000E+00  0.00000000000E+00  0.10129308059E+04  0.10129308059E+04  0.00000000000E+00 0. -1.
         21   -1    0    0  502  503 -0.00000000000E+00 -0.00000000000E+00 -0.18237368099E+03  0.18237368099E+03  0.00000000000E+00 0.  1.
          6    1    1    2  501    0 -0.11240720277E+03  0.56875189463E+02  0.93357700468E+03  0.95779183024E+03  0.17300000000E+03 0. -1.
         -6    1    1    2    0  503  0.11240720277E+03 -0.56875189463E+02 -0.10301987982E+03  0.23751265661E+03  0.17300000000E+03 0.  1.
<mgrwt>
<rscale>  2 0.21400740E+03</rscale>
<asrwt>0</asrwt>
<pdfrwt beam="1">  1       21 0.15583551E+00 0.21400740E+03</pdfrwt>
<pdfrwt beam="2">  1       21 0.28057490E-01 0.21400740E+03</pdfrwt>
<totfact> 0.32175552E+03</totfact>
</mgrwt>
</event>
<event>
 4    1  0.4336176E+000  0.2225167E+03  0.7546771E-02  0.1132021E+00
         21   -1    0    0  501  502  0.00000000000E+00  0.00000000000E+00  0.34478270230E+03  0.34478270230E+03  0.00000000000E+00 0. -1.
         21   -1    0    0  502  503 -0.00000000000E+00 -0.00000000000E+00 -0.16380139730E+03  0.16380139730E+03  0.00000000000E+00 0. -1.
          6    1    1    2  501    0 -0.50127196907E+01 -0.13985547645E+03  0.17977487166E+03  0.28606412941E+03  0.17300000000E+03 0.  1.
         -6    1    1    2    0  503  0.50127196907E+01  0.13985547645E+03  0.12064333326E+01  0.22251997019E+03  0.17300000000E+03 0.  1.
<mgrwt>
<rscale>  2 0.22251670E+03</rscale>
<asrwt>0</asrwt>
<pdfrwt beam="1">  1       21 0.53043492E-01 0.22251670E+03</pdfrwt>
<pdfrwt beam="2">  1       21 0.25200215E-01 0.22251670E+03</pdfrwt>
<totfact> 0.49520564E+04</totfact>
</mgrwt>
</event>
<event>
 4    1  0.4336176E+000  0.2107845E+03  0.7546771E-02  0.1140946E+00
         21   -1    0    0  501  502  0.00000000000E+00  0.00000000000E+00  0.27508302644E+03  0.27508302644E+03  0.00000000000E+00 0. -1.
         21   -1    0    0  502  503 -0.00000000000E+00 -0.00000000000E+00 -0.36806693754E+03  0.36806693754E+03  0.00000000000E+00 0. -1.
          6    1    1    2  501    0  0.56816153175E+02  0.10617459254E+03  0.19440602781E+03  0.28674696687E+03  0.17300000000E+03 0. -1.
         -6    1    1    2    0  503 -0.56816153175E+02 -0.10617459254E+03 -0.28738993891E+03  0.35640299711E+03  0.17300000000E+03 0. -1.
<mgrwt>
<rscale>  2 0.21078453E+03</rscale>
<asrwt>0</asrwt>
<pdfrwt beam="1">  1       21 0.42320466E-01 0.21078453E+03</pdfrwt>
<pdfrwt beam="2">  1       21 0.56625682E-01 0.21078453E+03</pdfrwt>
<totfact> 0.15576576E+04</totfact>
</mgrwt>
</event>
<event>
 4    1  0.4336176E+000  0.1894284E+03  0.7546771E-02  0.1158978E+00
         21   -1    0    0  501  502  0.00000000000E+00  0.00000000000E+00  0.14727325765E+03  0.14727325765E+03  0.00000000000E+00 0. -1.
         21   -1    0    0  502  503 -0.00000000000E+00 -0.00000000000E+00 -0.25416236194E+03  0.25416236194E+03  0.00000000000E+00 0. -1.
          6    1    1    2  501    0  0.13377000313E+02 -0.75994626178E+02 -0.12623827780E+02  0.18984859329E+03  0.17300000000E+03 0.  1.
         -6    1    1    2    0  503 -0.13377000313E+02  0.75994626178E+02 -0.94265276513E+02  0.21158702631E+03  0.17300000000E+03 0.  1.
<mgrwt>
<rscale>  2 0.18942842E+03</rscale>
<asrwt>0</asrwt>
<pdfrwt beam="1">  1       21 0.22657424E-01 0.18942842E+03</pdfrwt>
<pdfrwt beam="2">  1       21 0.39101902E-01 0.18942842E+03</pdfrwt>
<totfact> 0.11527632E+05</totfact>
</mgrwt>
</event>
<event>
 4    1  0.4336176E+000  0.1782215E+03  0.7546771E-02  0.1169535E+00
         21   -1    0    0  503  502  0.00000000000E+00  0.00000000000E+00  0.55169084913E+02  0.55169084913E+02  0.00000000000E+00 0.  1.
         21   -1    0    0  501  503 -0.00000000000E+00 -0.00000000000E+00 -0.58911335847E+03  0.58911335847E+03  0.00000000000E+00 0.  1.
          6    1    1    2  501    0  0.34845358671E+02  0.24893764702E+02 -0.31551343328E+03  0.36236945943E+03  0.17300000000E+03 0.  1.
         -6    1    1    2    0  502 -0.34845358671E+02 -0.24893764702E+02 -0.21843084028E+03  0.28191298396E+03  0.17300000000E+03 0.  1.
<mgrwt>
<rscale>  2 0.17822149E+03</rscale>
<asrwt>0</asrwt>
<pdfrwt beam="1">  1       21 0.84875516E-02 0.17822149E+03</pdfrwt>
<pdfrwt beam="2">  1       21 0.90632823E-01 0.17822149E+03</pdfrwt>
<totfact> 0.11251325E+05</totfact>
</mgrwt>
</event>
<event>
 4    1  0.4336176E+000  0.2654549E+03  0.7546771E-02  0.1103909E+00
         21   -1    0    0  501  502  0.00000000000E+00  0.00000000000E+00  0.45013782125E+02  0.45013782125E+02  0.00000000000E+00 0. -1.
         21   -1    0    0  502  503 -0.00000000000E+00 -0.00000000000E+00 -0.19490118079E+04  0.19490118079E+04  0.00000000000E+00 0.  1.
          6    1    1    2  501    0 -0.16689054006E+03  0.11262701456E+03 -0.50969811458E+03  0.57468118534E+03  0.17300000000E+03 0.  1.
         -6    1    1    2    0  503  0.16689054006E+03 -0.11262701456E+03 -0.13942999112E+04  0.14193444047E+04  0.17300000000E+03 0. -1.
<mgrwt>
<rscale>  2 0.26545489E+03</rscale>
<asrwt>0</asrwt>
<pdfrwt beam="1">  1       21 0.69251951E-02 0.26545489E+03</pdfrwt>
<pdfrwt beam="2">  1       21 0.29984806E+00 0.26545489E+03</pdfrwt>
<totfact> 0.49044715E+03</totfact>
</mgrwt>
</event>
<event>
 4    1  0.4336176E+000  0.2039247E+03  0.7546771E-02  0.1146469E+00
         21   -1    0    0  501  502  0.00000000000E+00  0.00000000000E+00  0.44878510422E+03  0.44878510422E+03  0.00000000000E+00 0. -1.
         21   -1    0    0  502  503 -0.00000000000E+00 -0.00000000000E+00 -0.10059092092E+03  0.10059092092E+03  0.00000000000E+00 0. -1.
          6    1    1    2  501    0  0.10502165734E+03 -0.25034338974E+02  0.25121778755E+03  0.32356706170E+03  0.17300000000E+03 0. -1.
         -6    1    1    2    0  503 -0.10502165734E+03  0.25034338974E+02  0.96976395758E+02  0.22580896345E+03  0.17300000000E+03 0. -1.
<mgrwt>
<rscale>  2 0.20392466E+03</rscale>
<asrwt>0</asrwt>
<pdfrwt beam="1">  1       21 0.69043861E-01 0.20392466E+03</pdfrwt>
<pdfrwt beam="2">  1       21 0.15475527E-01 0.20392466E+03</pdfrwt>
<totfact> 0.70416514E+04</totfact>
</mgrwt>
</event>
<event>
 4    1  0.4336176E+000  0.1867805E+03  0.7546771E-02  0.1161398E+00
         21   -1    0    0  503  502  0.00000000000E+00  0.00000000000E+00  0.51305977888E+03  0.51305977888E+03  0.00000000000E+00 0. -1.
         21   -1    0    0  501  503 -0.00000000000E+00 -0.00000000000E+00 -0.68632121519E+02  0.68632121519E+02  0.00000000000E+00 0.  1.
          6    1    1    2  501    0 -0.25184220003E+01 -0.70367609083E+02  0.19425302752E+03  0.26948317491E+03  0.17300000000E+03 0. -1.
         -6    1    1    2    0  502  0.25184220003E+01  0.70367609083E+02  0.25017462984E+03  0.31220872549E+03  0.17300000000E+03 0.  1.
<mgrwt>
<rscale>  2 0.18678047E+03</rscale>
<asrwt>0</asrwt>
<pdfrwt beam="1">  1       21 0.78932271E-01 0.18678047E+03</pdfrwt>
<pdfrwt beam="2">  1       21 0.10558788E-01 0.18678047E+03</pdfrwt>
<totfact> 0.10472266E+05</totfact>
</mgrwt>
</event>
<event>
 4    1  0.4336176E+000  0.1742171E+03  0.7546771E-02  0.1173520E+00
         21   -1    0    0  501  502  0.00000000000E+00  0.00000000000E+00  0.13008160564E+03  0.13008160564E+03  0.00000000000E+00 0.  1.
         21   -1    0    0  502  503 -0.00000000000E+00 -0.00000000000E+00 -0.29039306383E+03  0.29039306383E+03  0.00000000000E+00 0.  1.
          6    1    1    2  501    0 -0.14511084512E+02  0.14561405807E+02  0.13041728189E+02  0.17470458719E+03  0.17300000000E+03 0.  1.
         -6    1    1    2    0  503  0.14511084512E+02 -0.14561405807E+02 -0.17335318638E+03  0.24577008227E+03  0.17300000000E+03 0.  1.
<mgrwt>
<rscale>  2 0.17421712E+03</rscale>
<asrwt>0</asrwt>
<pdfrwt beam="1">  1       21 0.20012555E-01 0.17421712E+03</pdfrwt>
<pdfrwt beam="2">  1       21 0.44675855E-01 0.17421712E+03</pdfrwt>
<totfact> 0.11164035E+05</totfact>
</mgrwt>
</event>
<event>
 4    1  0.4336176E+000  0.2365407E+03  0.7546771E-02  0.1122119E+00
         21   -1    0    0  501  502  0.00000000000E+00  0.00000000000E+00  0.16937004767E+03  0.16937004767E+03  0.00000000000E+00 0. -1.
         21   -1    0    0  502  503 -0.00000000000E+00 -0.00000000000E+00 -0.73029225075E+03  0.73029225075E+03  0.00000000000E+00 0.  1.
          6    1    1    2  501    0  0.33895241367E+02 -0.15771372471E+03  0.52427915177E+02  0.24228122635E+03  0.17300000000E+03 0. -1.
         -6    1    1    2    0  503 -0.33895241367E+02  0.15771372471E+03 -0.61335011826E+03  0.65738107207E+03  0.17300000000E+03 0.  1.
<mgrwt>
<rscale>  2 0.23654071E+03</rscale>
<asrwt>0</asrwt>
<pdfrwt beam="1">  1       21 0.26056930E-01 0.23654071E+03</pdfrwt>
<pdfrwt beam="2">  1       21 0.11235265E+00 0.23654071E+03</pdfrwt>
<totfact> 0.84242866E+03</totfact>
</mgrwt>
</event>
<event>
 4    1  0.4336176E+000  0.2026507E+03  0.7546771E-02  0.1147522E+00
         21   -1    0    0  503  502  0.00000000000E+00  0.00000000000E+00  0.68616974710E+02  0.68616974710E+02  0.00000000000E+00 0. -1.
         21   -1    0    0  501  503 -0.00000000000E+00 -0.00000000000E+00 -0.59916883996E+03  0.59916883996E+03  0.00000000000E+00 0. -1.
          6    1    1    2  501    0  0.90636280759E+02  0.54068098144E+02 -0.27642726553E+03  0.34275257513E+03  0.17300000000E+03 0. -1.
         -6    1    1    2    0  502 -0.90636280759E+02 -0.54068098144E+02 -0.25412459972E+03  0.32503323955E+03  0.17300000000E+03 0. -1.
<mgrwt>
<rscale>  2 0.20265067E+03</rscale>
<asrwt>0</asrwt>
<pdfrwt beam="1">  1       21 0.10556458E-01 0.20265067E+03</pdfrwt>
<pdfrwt beam="2">  1       21 0.92179821E-01 0.20265067E+03</pdfrwt>
<totfact> 0.72935835E+04</totfact>
</mgrwt>
</event>
<event>
 4    1  0.4336176E+000  0.2817865E+03  0.7546771E-02  0.1094717E+00
         21   -1    0    0  503  502  0.00000000000E+00  0.00000000000E+00  0.30181292716E+03  0.30181292716E+03  0.00000000000E+00 0. -1.
         21   -1    0    0  501  503 -0.00000000000E+00 -0.00000000000E+00 -0.26997406582E+03  0.26997406582E+03  0.00000000000E+00 0. -1.
          6    1    1    2  501    0  0.13259809686E+03 -0.17858435028E+03 -0.29736903187E+02  0.28335121117E+03  0.17300000000E+03 0. -1.
         -6    1    1    2    0  502 -0.13259809686E+03  0.17858435028E+03  0.61575764529E+02  0.28843578182E+03  0.17300000000E+03 0. -1.
<mgrwt>
<rscale>  2 0.28178649E+03</rscale>
<asrwt>0</asrwt>
<pdfrwt beam="1">  1       21 0.46432758E-01 0.28178649E+03</pdfrwt>
<pdfrwt beam="2">  1       21 0.41534472E-01 0.28178649E+03</pdfrwt>
<totfact> 0.23729726E+04</totfact>
</mgrwt>
</event>
<event>
 4    1  0.4336176E+000  0.2116357E+03  0.7546771E-02  0.1140277E+00
         21   -1    0    0  501  502  0.00000000000E+00  0.00000000000E+00  0.30567186929E+03  0.30567186929E+03  0.00000000000E+00 0.  1.
         21   -1    0    0  502  503 -0.00000000000E+00 -0.00000000000E+00 -0.17126741294E+03  0.17126741294E+03  0.00000000000E+00 0. -1.
          6    1    1    2  501    0 -0.10214561927E+03  0.66535260390E+02 -0.23430537736E+02  0.21292876393E+03  0.17300000000E+03 0. -1.
         -6    1    1    2    0  503  0.10214561927E+03 -0.66535260390E+02  0.15783499409E+03  0.26401051829E+03  0.17300000000E+03 0.  1.
<mgrwt>
<rscale>  2 0.21163570E+03</rscale>
<asrwt>0</asrwt>
<pdfrwt beam="1">  1       21 0.47026441E-01 0.21163570E+03</pdfrwt>
<pdfrwt beam="2">  1       21 0.26348833E-01 0.21163570E+03</pdfrwt>
<totfact> 0.58757422E+04</totfact>
</mgrwt>
</event>
<event>
 4    1  0.4336176E+000  0.2587519E+03  0.7546771E-02  0.1107895E+00
         21   -1    0    0  501  502  0.00000000000E+00  0.00000000000E+00  0.28666618747E+03  0.28666618747E+03  0.00000000000E+00 0.  1.
         21   -1    0    0  502  503 -0.00000000000E+00 -0.00000000000E+00 -0.24172203933E+03  0.24172203933E+03  0.00000000000E+00 0. -1.
          6    1    1    2  501    0 -0.18527251015E+03 -0.51938935982E+02  0.71031726380E+02  0.26832454647E+03  0.17300000000E+03 0.  1.
         -6    1    1    2    0  503  0.18527251015E+03  0.51938935982E+02 -0.26087578239E+02  0.26006368033E+03  0.17300000000E+03 0.  1.
<mgrwt>
<rscale>  2 0.25875192E+03</rscale>
<asrwt>0</asrwt>
<pdfrwt beam="1">  1       21 0.44102491E-01 0.25875192E+03</pdfrwt>
<pdfrwt beam="2">  1       21 0.37188006E-01 0.25875192E+03</pdfrwt>
<totfact> 0.33366725E+04</totfact>
</mgrwt>
</event>
<event>
 4    1  0.4336176E+000  0.1737346E+03  0.7546771E-02  0.1174008E+00
         21   -1    0    0  503  502  0.00000000000E+00  0.00000000000E+00  0.77687240891E+02  0.77687240891E+02  0.00000000000E+00 0. -1.
         21   -1    0    0  501  503 -0.00000000000E+00 -0.00000000000E+00 -0.39270745999E+03  0.39270745999E+03  0.00000000000E+00 0. -1.
          6    1    1    2  501    0  0.74529748638E+01  0.14112201736E+02 -0.18177263680E+03  0.25144580442E+03  0.17300000000E+03 0. -1.
         -6    1    1    2    0  502 -0.74529748638E+01 -0.14112201736E+02 -0.13324758230E+03  0.21894889646E+03  0.17300000000E+03 0. -1.
<mgrwt>
<rscale>  2 0.17373457E+03</rscale>
<asrwt>0</asrwt>
<pdfrwt beam="1">  1       21 0.11951883E-01 0.17373457E+03</pdfrwt>
<pdfrwt beam="2">  1       21 0.60416533E-01 0.17373457E+03</pdfrwt>
<totfact> 0.15184667E+05</totfact>
</mgrwt>
</event>
<event>
 4    1  0.4336176E+000  0.1832085E+03  0.7546771E-02  0.1164733E+00
         21   -1    0    0  501  502  0.00000000000E+00  0.00000000000E+00  0.91551027480E+03  0.91551027480E+03  0.00000000000E+00 0.  1.
         21   -1    0    0  502  503 -0.00000000000E+00 -0.00000000000E+00 -0.87222657234E+02  0.87222657234E+02  0.00000000000E+00 0.  1.
          6    1    1    2  501    0 -0.40935847120E+01 -0.60163132148E+02  0.79586182238E+03  0.81667704769E+03  0.17300000000E+03 0.  1.
         -6    1    1    2    0  503  0.40935847120E+01  0.60163132148E+02  0.32425795190E+02  0.18605588434E+03  0.17300000000E+03 0.  1.
<mgrwt>
<rscale>  2 0.18320851E+03</rscale>
<asrwt>0</asrwt>
<pdfrwt beam="1">  1       21 0.14084773E+00 0.18320851E+03</pdfrwt>
<pdfrwt beam="2">  1       21 0.13418871E-01 0.18320851E+03</pdfrwt>
<totfact> 0.17021075E+04</totfact>
</mgrwt>
</event>
<event>
 4    1  0.4336176E+000  0.1823760E+03  0.7546771E-02  0.1165523E+00
         21   -1    0    0  501  502  0.00000000000E+00  0.00000000000E+00  0.30657264001E+02  0.30657264001E+02  0.00000000000E+00 0.  1.
         21   -1    0    0  502  503 -0.00000000000E+00 -0.00000000000E+00 -0.14495244082E+04  0.14495244082E+04  0.00000000000E+00 0.  1.
          6    1    1    2  501    0 -0.57560100817E+02  0.43407595939E+01 -0.33826018039E+03  0.38429280118E+03  0.17300000000E+03 0.  1.
         -6    1    1    2    0  503  0.57560100817E+02 -0.43407595939E+01 -0.10806069638E+04  0.10958888710E+04  0.17300000000E+03 0.  1.
<mgrwt>
<rscale>  2 0.18237601E+03</rscale>
<asrwt>0</asrwt>
<pdfrwt beam="1">  1       21 0.47165028E-02 0.18237601E+03</pdfrwt>
<pdfrwt beam="2">  1       21 0.22300372E+00 0.18237601E+03</pdfrwt>
<totfact> 0.28862180E+04</totfact>
</mgrwt>
</event>
<event>
 4    1  0.4336176E+000  0.1798407E+03  0.7546771E-02  0.1167957E+00
         21   -1    0    0  501  502  0.00000000000E+00  0.00000000000E+00  0.71775048859E+02  0.71775048859E+02  0.00000000000E+00 0.  1.
         21   -1    0    0  502  503 -0.00000000000E+00 -0.00000000000E+00 -0.65402388258E+03  0.65402388258E+03  0.00000000000E+00 0.  1.
          6    1    1    2  501    0  0.33850076856E+02 -0.35606740416E+02 -0.88739501008E+02  0.20054268051E+03  0.17300000000E+03 0.  1.
         -6    1    1    2    0  503 -0.33850076856E+02  0.35606740416E+02 -0.49350933271E+03  0.52525625093E+03  0.17300000000E+03 0.  1.
<mgrwt>
<rscale>  2 0.17984067E+03</rscale>
<asrwt>0</asrwt>
<pdfrwt beam="1">  1       21 0.11042315E-01 0.17984067E+03</pdfrwt>
<pdfrwt beam="2">  1       21 0.10061906E+00 0.17984067E+03</pdfrwt>
<totfact> 0.55411028E+04</totfact>
</mgrwt>
</event>
<event>
 4    1  0.4336176E+000  0.2165187E+03  0.7546771E-02  0.1136505E+00
         21   -1    0    0  501  502  0.00000000000E+00  0.00000000000E+00  0.27882668651E+02  0.27882668651E+02  0.00000000000E+00 0. -1.
         21   -1    0    0  502  503 -0.00000000000E+00 -0.00000000000E+00 -0.16824288198E+04  0.16824288198E+04  0.00000000000E+00 0. -1.
          6    1    1    2  501    0  0.12616472683E+03 -0.32152793559E+02 -0.80555210628E+03  0.83414299515E+03  0.17300000000E+03 0. -1.
         -6    1    1    2    0  503 -0.12616472683E+03  0.32152793559E+02 -0.84899404490E+03  0.87616849333E+03  0.17300000000E+03 0. -1.
<mgrwt>
<rscale>  2 0.21651868E+03</rscale>
<asrwt>0</asrwt>
<pdfrwt beam="1">  1       21 0.42896408E-02 0.21651868E+03</pdfrwt>
<pdfrwt beam="2">  1       21 0.25883524E+00 0.21651868E+03</pdfrwt>
<totfact> 0.20148671E+04</totfact>
</mgrwt>
</event>
<event>
 4    1  0.4336176E+000  0.1948069E+03  0.7546771E-02  0.1154196E+00
         21   -1    0    0  501  502  0.00000000000E+00  0.00000000000E+00  0.27805994437E+03  0.27805994437E+03  0.00000000000E+00 0. -1.
         21   -1    0    0  502  503 -0.00000000000E+00 -0.00000000000E+00 -0.25730448865E+03  0.25730448865E+03  0.00000000000E+00 0. -1.
          6    1    1    2  501    0  0.72124485698E+02  0.53092355139E+02  0.19380865286E+03  0.27479361990E+03  0.17300000000E+03 0. -1.
         -6    1    1    2    0  503 -0.72124485698E+02 -0.53092355139E+02 -0.17305319715E+03  0.26057081313E+03  0.17300000000E+03 0. -1.
<mgrwt>
<rscale>  2 0.19480693E+03</rscale>
<asrwt>0</asrwt>
<pdfrwt beam="1">  1       21 0.42778453E-01 0.19480693E+03</pdfrwt>
<pdfrwt beam="2">  1       21 0.39585306E-01 0.19480693E+03</pdfrwt>
<totfact> 0.32296301E+04</totfact>
</mgrwt>
</event>
<event>
 4    1  0.4336176E+000  0.1907050E+03  0.7546771E-02  0.1157827E+00
         21   -1    0    0  501  502  0.00000000000E+00  0.00000000000E+00  0.14440294791E+03  0.14440294791E+03  0.00000000000E+00 0. -1.
         21   -1    0    0  502  503 -0.00000000000E+00 -0.00000000000E+00 -0.37685536429E+03  0.37685536429E+03  0.00000000000E+00 0.  1.
          6    1    1    2  501    0 -0.79375831535E+02  0.11784134690E+02  0.33878351406E+02  0.19369081330E+03  0.17300000000E+03 0. -1.
         -6    1    1    2    0  503  0.79375831535E+02 -0.11784134690E+02 -0.26633076779E+03  0.32756749890E+03  0.17300000000E+03 0.  1.
<mgrwt>
<rscale>  2 0.19070498E+03</rscale>
<asrwt>0</asrwt>
<pdfrwt beam="1">  1       21 0.22215839E-01 0.19070498E+03</pdfrwt>
<pdfrwt beam="2">  1       21 0.57977747E-01 0.19070498E+03</pdfrwt>
<totfact> 0.52895904E+04</totfact>
</mgrwt>
</event>
<event>
 4    1  0.4336176E+000  0.1998642E+03  0.7546771E-02  0.1149854E+00
         21   -1    0    0  501  502  0.00000000000E+00  0.00000000000E+00  0.66981090278E+03  0.66981090278E+03  0.00000000000E+00 0.  1.
         21   -1    0    0  502  503 -0.00000000000E+00 -0.00000000000E+00 -0.63250698229E+02  0.63250698229E+02  0.00000000000E+00 0.  1.
          6    1    1    2  501    0 -0.83324652294E+02 -0.55440887245E+02  0.39088691670E+03  0.43901967075E+03  0.17300000000E+03 0.  1.
         -6    1    1    2    0  503  0.83324652294E+02  0.55440887245E+02  0.21567328785E+03  0.29404193026E+03  0.17300000000E+03 0.  1.
<mgrwt>
<rscale>  2 0.19986418E+03</rscale>
<asrwt>0</asrwt>
<pdfrwt beam="1">  1       21 0.10304783E+00 0.19986418E+03</pdfrwt>
<pdfrwt beam="2">  1       21 0.97308771E-02 0.19986418E+03</pdfrwt>
<totfact> 0.64844622E+04</totfact>
</mgrwt>
</event>
<event>
 4    1  0.4336176E+000  0.1832316E+03  0.7546771E-02  0.1164712E+00
         21   -1    0    0  503  502  0.00000000000E+00  0.00000000000E+00  0.48198648107E+03  0.48198648107E+03  0.00000000000E+00 0.  1.
         21   -1    0    0  501  503 -0.00000000000E+00 -0.00000000000E+00 -0.69857186459E+02  0.69857186459E+02  0.00000000000E+00 0.  1.
          6    1    1    2  501    0  0.19828639950E+02 -0.57023037917E+02  0.19129937725E+03  0.26489479714E+03  0.17300000000E+03 0.  1.
         -6    1    1    2    0  502 -0.19828639950E+02  0.57023037917E+02  0.22082991735E+03  0.28694887038E+03  0.17300000000E+03 0.  1.
<mgrwt>
<rscale>  2 0.18323155E+03</rscale>
<asrwt>0</asrwt>
<pdfrwt beam="1">  1       21 0.74151764E-01 0.18323155E+03</pdfrwt>
<pdfrwt beam="2">  1       21 0.10747260E-01 0.18323155E+03</pdfrwt>
<totfact> 0.11687990E+05</totfact>
</mgrwt>
</event>
<event>
 4    1  0.4336176E+000  0.3357096E+03  0.7546771E-02  0.1068638E+00
         21   -1    0    0  503  502  0.00000000000E+00  0.00000000000E+00  0.70774847742E+03  0.70774847742E+03  0.00000000000E+00 0.  1.
         21   -1    0    0  501  503 -0.00000000000E+00 -0.00000000000E+00 -0.18746378867E+03  0.18746378867E+03  0.00000000000E+00 0. -1.
          6    1    1    2  501    0 -0.20638001779E+03  0.20044756946E+03  0.86460239429E+02  0.34666455378E+03  0.17300000000E+03 0. -1.
         -6    1    1    2    0  502  0.20638001779E+03 -0.20044756946E+03  0.43382444932E+03  0.54854771231E+03  0.17300000000E+03 0. -1.
<mgrwt>
<rscale>  2 0.33570961E+03</rscale>
<asrwt>0</asrwt>
<pdfrwt beam="1">  1       21 0.10888438E+00 0.33570961E+03</pdfrwt>
<pdfrwt beam="2">  1       21 0.28840583E-01 0.33570961E+03</pdfrwt>
<totfact> 0.70922551E+03</totfact>
</mgrwt>
</event>
<event>
 4    1  0.4336176E+000  0.2161007E+03  0.7546771E-02  0.1136824E+00
         21   -1    0    0  501  502  0.00000000000E+00  0.00000000000E+00  0.10682965672E+03  0.10682965672E+03  0.00000000000E+00 0. -1.
         21   -1    0    0  502  503 -0.00000000000E+00 -0.00000000000E+00 -0.51520995339E+03  0.51520995339E+03  0.00000000000E+00 0. -1.
          6    1    1    2  501    0 -0.12211112009E+03  0.43120572431E+02 -0.83119725968E+02  0.23153487483E+03  0.17300000000E+03 0. -1.
         -6    1    1    2    0  503  0.12211112009E+03 -0.43120572431E+02 -0.32526057071E+03  0.39050473528E+03  0.17300000000E+03 0. -1.
<mgrwt>
<rscale>  2 0.21610069E+03</rscale>
<asrwt>0</asrwt>
<pdfrwt beam="1">  1       21 0.16435332E-01 0.21610069E+03</pdfrwt>
<pdfrwt beam="2">  1       21 0.79263069E-01 0.21610069E+03</pdfrwt>
<totfact> 0.46076856E+04</totfact>
</mgrwt>
</event>
<event>
 4    1  0.4336176E+000  0.1769171E+03  0.7546771E-02  0.1170820E+00
         21   -1    0    0  501  502  0.00000000000E+00  0.00000000000E+00  0.63118640950E+02  0.63118640950E+02  0.00000000000E+00 0. -1.
         21   -1    0    0  502  503 -0.00000000000E+00 -0.00000000000E+00 -0.50150731111E+03  0.50150731111E+03  0.00000000000E+00 0. -1.
          6    1    1    2  501    0 -0.20930904235E+02 -0.30538033930E+02 -0.18930636636E+03  0.25910726468E+03  0.17300000000E+03 0.  1.
         -6    1    1    2    0  503  0.20930904235E+02  0.30538033930E+02 -0.24908230380E+03  0.30551868738E+03  0.17300000000E+03 0.  1.
<mgrwt>
<rscale>  2 0.17691714E+03</rscale>
<asrwt>0</asrwt>
<pdfrwt beam="1">  1       21 0.97105597E-02 0.17691714E+03</pdfrwt>
<pdfrwt beam="2">  1       21 0.77154975E-01 0.17691714E+03</pdfrwt>
<totfact> 0.12825846E+05</totfact>
</mgrwt>
</event>
<event>
 4    1  0.4336176E+000  0.1782560E+03  0.7546771E-02  0.1169502E+00
         21   -1    0    0  501  502  0.00000000000E+00  0.00000000000E+00  0.23277431662E+03  0.23277431662E+03  0.00000000000E+00 0.  1.
         21   -1    0    0  502  503 -0.00000000000E+00 -0.00000000000E+00 -0.17284327630E+03  0.17284327630E+03  0.00000000000E+00 0.  1.
          6    1    1    2  501    0 -0.19595274712E+02 -0.38239074481E+02  0.12295501435E+03  0.21654823288E+03  0.17300000000E+03 0.  1.
         -6    1    1    2    0  503  0.19595274712E+02  0.38239074481E+02 -0.63023974027E+02  0.18906936005E+03  0.17300000000E+03 0.  1.
<mgrwt>
<rscale>  2 0.17825600E+03</rscale>
<asrwt>0</asrwt>
<pdfrwt beam="1">  1       21 0.35811433E-01 0.17825600E+03</pdfrwt>
<pdfrwt beam="2">  1       21 0.26591273E-01 0.17825600E+03</pdfrwt>
<totfact> 0.10173920E+05</totfact>
</mgrwt>
</event>
<event>
 4    1  0.4336176E+000  0.2645874E+03  0.7546771E-02  0.1104418E+00
         21   -1    0    0  503  502  0.00000000000E+00  0.00000000000E+00  0.20879704041E+03  0.20879704041E+03  0.00000000000E+00 0.  1.
         21   -1    0    0  501  503 -0.00000000000E+00 -0.00000000000E+00 -0.54423070010E+03  0.54423070010E+03  0.00000000000E+00 0.  1.
          6    1    1    2  501    0 -0.16745082845E+03  0.10971649734E+03 -0.40101230177E+03  0.48043454904E+03  0.17300000000E+03 0.  1.
         -6    1    1    2    0  502  0.16745082845E+03 -0.10971649734E+03  0.65578642078E+02  0.27259319147E+03  0.17300000000E+03 0.  1.
<mgrwt>
<rscale>  2 0.26458740E+03</rscale>
<asrwt>0</asrwt>
<pdfrwt beam="1">  1       21 0.32122622E-01 0.26458740E+03</pdfrwt>
<pdfrwt beam="2">  1       21 0.83727800E-01 0.26458740E+03</pdfrwt>
<totfact> 0.11073915E+04</totfact>
</mgrwt>
</event>
<event>
 4    1  0.4336176E+000  0.1946699E+03  0.7546771E-02  0.1154316E+00
         21   -1    0    0  501  502  0.00000000000E+00  0.00000000000E+00  0.21261587571E+03  0.21261587571E+03  0.00000000000E+00 0. -1.
         21   -1    0    0  502  503 -0.00000000000E+00 -0.00000000000E+00 -0.18914826804E+03  0.18914826804E+03  0.00000000000E+00 0. -1.
          6    1    1    2  501    0  0.69796385627E+02 -0.55640202478E+02  0.59977956260E+02  0.20370008055E+03  0.17300000000E+03 0. -1.
         -6    1    1    2    0  503 -0.69796385627E+02  0.55640202478E+02 -0.36510348581E+02  0.19806406320E+03  0.17300000000E+03 0. -1.
<mgrwt>
<rscale>  2 0.19466989E+03</rscale>
<asrwt>0</asrwt>
<pdfrwt beam="1">  1       21 0.32710135E-01 0.19466989E+03</pdfrwt>
<pdfrwt beam="2">  1       21 0.29099734E-01 0.19466989E+03</pdfrwt>
<totfact> 0.10163647E+05</totfact>
</mgrwt>
</event>
<event>
 4    1  0.4336176E+000  0.2123435E+03  0.7546771E-02  0.1139723E+00
         21   -1    0    0  501  502  0.00000000000E+00  0.00000000000E+00  0.14003201981E+03  0.14003201981E+03  0.00000000000E+00 0. -1.
         21   -1    0    0  502  503 -0.00000000000E+00 -0.00000000000E+00 -0.37892239476E+03  0.37892239476E+03  0.00000000000E+00 0. -1.
          6    1    1    2  501    0 -0.86926690205E+02 -0.87203909026E+02 -0.18872432420E+02  0.21318053364E+03  0.17300000000E+03 0. -1.
         -6    1    1    2    0  503  0.86926690205E+02  0.87203909026E+02 -0.22001794254E+03  0.30577388093E+03  0.17300000000E+03 0. -1.
<mgrwt>
<rscale>  2 0.21234352E+03</rscale>
<asrwt>0</asrwt>
<pdfrwt beam="1">  1       21 0.21543388E-01 0.21234352E+03</pdfrwt>
<pdfrwt beam="2">  1       21 0.58295752E-01 0.21234352E+03</pdfrwt>
<totfact> 0.54833140E+04</totfact>
</mgrwt>
</event>
<event>
 4    1  0.4336176E+000  0.1950331E+03  0.7546771E-02  0.1153999E+00
         21   -1    0    0  503  502  0.00000000000E+00  0.00000000000E+00  0.93806893566E+03  0.93806893566E+03  0.00000000000E+00 0. -1.
         21   -1    0    0  501  503 -0.00000000000E+00 -0.00000000000E+00 -0.54495174843E+02  0.54495174843E+02  0.00000000000E+00 0.  1.
          6    1    1    2  501    0  0.79630981726E+02  0.42045333649E+02  0.19072852743E+03  0.27279163203E+03  0.17300000000E+03 0.  1.
         -6    1    1    2    0  502 -0.79630981726E+02 -0.42045333649E+02  0.69284523339E+03  0.71977247847E+03  0.17300000000E+03 0. -1.
<mgrwt>
<rscale>  2 0.19503308E+03</rscale>
<asrwt>0</asrwt>
<pdfrwt beam="1">  1       21 0.14431829E+00 0.19503308E+03</pdfrwt>
<pdfrwt beam="2">  1       21 0.83838737E-02 0.19503308E+03</pdfrwt>
<totfact> 0.36520808E+04</totfact>
</mgrwt>
</event>
<event>
 4    1  0.4336176E+000  0.1761709E+03  0.7546771E-02  0.1171561E+00
         21   -1    0    0  501  502  0.00000000000E+00  0.00000000000E+00  0.67467534763E+03  0.67467534763E+03  0.00000000000E+00 0. -1.
         21   -1    0    0  502  503 -0.00000000000E+00 -0.00000000000E+00 -0.87096419200E+02  0.87096419200E+02  0.00000000000E+00 0. -1.
          6    1    1    2  501    0  0.15495038091E+02 -0.29446534222E+02  0.55541966783E+03  0.58268962750E+03  0.17300000000E+03 0. -1.
         -6    1    1    2    0  503 -0.15495038091E+02  0.29446534222E+02  0.32159260594E+02  0.17908213932E+03  0.17300000000E+03 0. -1.
<mgrwt>
<rscale>  2 0.17617092E+03</rscale>
<asrwt>0</asrwt>
<pdfrwt beam="1">  1       21 0.10379620E+00 0.17617092E+03</pdfrwt>
<pdfrwt beam="2">  1       21 0.13399450E-01 0.17617092E+03</pdfrwt>
<totfact> 0.36480122E+04</totfact>
</mgrwt>
</event>
<event>
 4    1  0.4336176E+000  0.1871053E+03  0.7546771E-02  0.1161098E+00
         21   -1    0    0  503  502  0.00000000000E+00  0.00000000000E+00  0.15899456365E+04  0.15899456365E+04  0.00000000000E+00 0. -1.
         21   -1    0    0  501  503 -0.00000000000E+00 -0.00000000000E+00 -0.24676687887E+02  0.24676687887E+02  0.00000000000E+00 0. -1.
          6    1    1    2  501    0  0.66676296454E+02 -0.25172346334E+02  0.51767328375E+03  0.55044891156E+03  0.17300000000E+03 0. -1.
         -6    1    1    2    0  502 -0.66676296454E+02  0.25172346334E+02  0.10475956649E+04  0.10641734128E+04  0.17300000000E+03 0. -1.
<mgrwt>
<rscale>  2 0.18710525E+03</rscale>
<asrwt>0</asrwt>
<pdfrwt beam="1">  1       21 0.24460694E+00 0.18710525E+03</pdfrwt>
<pdfrwt beam="2">  1       21 0.37964148E-02 0.18710525E+03</pdfrwt>
<totfact> 0.30736777E+04</totfact>
</mgrwt>
</event>
<event>
 4    1  0.4336176E+000  0.1876078E+03  0.7546771E-02  0.1160637E+00
         21   -1    0    0  503  502  0.00000000000E+00  0.00000000000E+00  0.22125858449E+03  0.22125858449E+03  0.00000000000E+00 0.  1.
         21   -1    0    0  501  503 -0.00000000000E+00 -0.00000000000E+00 -0.89092837356E+03  0.89092837356E+03  0.00000000000E+00 0.  1.
          6    1    1    2  501    0 -0.23969684659E+02 -0.68506605325E+02 -0.83884408800E+03  0.85956739394E+03  0.17300000000E+03 0.  1.
         -6    1    1    2    0  502  0.23969684659E+02  0.68506605325E+02  0.16917429892E+03  0.25261956411E+03  0.17300000000E+03 0.  1.
<mgrwt>
<rscale>  2 0.18760784E+03</rscale>
<asrwt>0</asrwt>
<pdfrwt beam="1">  1       21 0.34039782E-01 0.18760784E+03</pdfrwt>
<pdfrwt beam="2">  1       21 0.13706591E+00 0.18760784E+03</pdfrwt>
<totfact> 0.31566091E+03</totfact>
</mgrwt>
</event>
<event>
 4    1  0.4336176E+000  0.1888022E+03  0.7546771E-02  0.1159546E+00
         21   -1    0    0  501  502  0.00000000000E+00  0.00000000000E+00  0.10684910590E+04  0.10684910590E+04  0.00000000000E+00 0. -1.
         21   -1    0    0  502  503 -0.00000000000E+00 -0.00000000000E+00 -0.44162439699E+02  0.44162439699E+02  0.00000000000E+00 0. -1.
          6    1    1    2  501    0  0.29347095272E+02 -0.69685215836E+02  0.23703451092E+03  0.30303735854E+03  0.17300000000E+03 0. -1.
         -6    1    1    2    0  503 -0.29347095272E+02  0.69685215836E+02  0.78729410841E+03  0.80961614018E+03  0.17300000000E+03 0. -1.
<mgrwt>
<rscale>  2 0.18880223E+03</rscale>
<asrwt>0</asrwt>
<pdfrwt beam="1">  1       21 0.16438322E+00 0.18880223E+03</pdfrwt>
<pdfrwt beam="2">  1       21 0.67942223E-02 0.18880223E+03</pdfrwt>
<totfact> 0.37343412E+04</totfact>
</mgrwt>
</event>
<event>
 4    1  0.4336176E+000  0.2026040E+03  0.7546771E-02  0.1147560E+00
         21   -1    0    0  503  502  0.00000000000E+00  0.00000000000E+00  0.10264722604E+03  0.10264722604E+03  0.00000000000E+00 0. -1.
         21   -1    0    0  501  503 -0.00000000000E+00 -0.00000000000E+00 -0.56993016839E+03  0.56993016839E+03  0.00000000000E+00 0. -1.
          6    1    1    2  501    0  0.45841523709E+02 -0.94962871273E+02 -0.41732378645E+03  0.46390466149E+03  0.17300000000E+03 0. -1.
         -6    1    1    2    0  502 -0.45841523709E+02  0.94962871273E+02 -0.49959155899E+02  0.20867273294E+03  0.17300000000E+03 0. -1.
<mgrwt>
<rscale>  2 0.20260403E+03</rscale>
<asrwt>0</asrwt>
<pdfrwt beam="1">  1       21 0.15791881E-01 0.20260403E+03</pdfrwt>
<pdfrwt beam="2">  1       21 0.87681566E-01 0.20260403E+03</pdfrwt>
<totfact> 0.39639232E+04</totfact>
</mgrwt>
</event>
<event>
 4    1  0.4336176E+000  0.1753591E+03  0.7546771E-02  0.1172372E+00
         21   -1    0    0  503  502  0.00000000000E+00  0.00000000000E+00  0.15452036453E+03  0.15452036453E+03  0.00000000000E+00 0.  1.
         21   -1    0    0  501  503 -0.00000000000E+00 -0.00000000000E+00 -0.20849600845E+03  0.20849600845E+03  0.00000000000E+00 0.  1.
          6    1    1    2  501    0  0.27099066244E+02  0.93519643678E+01 -0.65707384689E+02  0.18726526381E+03  0.17300000000E+03 0. -1.
         -6    1    1    2    0  502 -0.27099066244E+02 -0.93519643678E+01  0.11731740767E+02  0.17575110916E+03  0.17300000000E+03 0. -1.
<mgrwt>
<rscale>  2 0.17535911E+03</rscale>
<asrwt>0</asrwt>
<pdfrwt beam="1">  1       21 0.23772364E-01 0.17535911E+03</pdfrwt>
<pdfrwt beam="2">  1       21 0.32076309E-01 0.17535911E+03</pdfrwt>
<totfact> 0.15670588E+05</totfact>
</mgrwt>
</event>
<event>
 4    1  0.4336176E+000  0.1760250E+03  0.7546771E-02  0.1171706E+00
         21   -1    0    0  503  502  0.00000000000E+00  0.00000000000E+00  0.30226331806E+03  0.30226331806E+03  0.00000000000E+00 0. -1.
         21   -1    0    0  501  503 -0.00000000000E+00 -0.00000000000E+00 -0.11829678237E+03  0.11829678237E+03  0.00000000000E+00 0. -1.
          6    1    1    2  501    0 -0.99747194591E+01  0.30924257531E+02  0.15164403530E+02  0.17667700435E+03  0.17300000000E+03 0. -1.
         -6    1    1    2    0  502  0.99747194591E+01 -0.30924257531E+02  0.16880213216E+03  0.24388309608E+03  0.17300000000E+03 0. -1.
<mgrwt>
<rscale>  2 0.17602501E+03</rscale>
<asrwt>0</asrwt>
<pdfrwt beam="1">  1       21 0.46502049E-01 0.17602501E+03</pdfrwt>
<pdfrwt beam="2">  1       21 0.18199505E-01 0.17602501E+03</pdfrwt>
<totfact> 0.12255500E+05</totfact>
</mgrwt>
</event>
<event>
 4    1  0.4336176E+000  0.1943975E+03  0.7546771E-02  0.1154554E+00
         21   -1    0    0  501  502  0.00000000000E+00  0.00000000000E+00  0.78357338324E+02  0.78357338324E+02  0.00000000000E+00 0.  1.
         21   -1    0    0  502  503 -0.00000000000E+00 -0.00000000000E+00 -0.53464313127E+03  0.53464313127E+03  0.00000000000E+00 0.  1.
          6    1    1    2  501    0 -0.86343789597E+02  0.20152422597E+02 -0.13222461146E+03  0.23510363250E+03  0.17300000000E+03 0.  1.
         -6    1    1    2    0  503  0.86343789597E+02 -0.20152422597E+02 -0.32406118149E+03  0.37789683709E+03  0.17300000000E+03 0.  1.
<mgrwt>
<rscale>  2 0.19439745E+03</rscale>
<asrwt>0</asrwt>
<pdfrwt beam="1">  1       21 0.12054975E-01 0.19439745E+03</pdfrwt>
<pdfrwt beam="2">  1       21 0.82252789E-01 0.19439745E+03</pdfrwt>
<totfact> 0.75112836E+04</totfact>
</mgrwt>
</event>
<event>
 4    1  0.4336176E+000  0.1929400E+03  0.7546771E-02  0.1155836E+00
         21   -1    0    0  503  502  0.00000000000E+00  0.00000000000E+00  0.98556487391E+03  0.98556487391E+03  0.00000000000E+00 0.  1.
         21   -1    0    0  501  503 -0.00000000000E+00 -0.00000000000E+00 -0.41867078915E+02  0.41867078915E+02  0.00000000000E+00 0. -1.
          6    1    1    2  501    0  0.88521320230E+01  0.84961699674E+02  0.31116712755E+03  0.36612952889E+03  0.17300000000E+03 0. -1.
         -6    1    1    2    0  502 -0.88521320230E+01 -0.84961699674E+02  0.63253066744E+03  0.66130242394E+03  0.17300000000E+03 0.  1.
<mgrwt>
<rscale>  2 0.19294002E+03</rscale>
<asrwt>0</asrwt>
<pdfrwt beam="1">  1       21 0.15162535E+00 0.19294002E+03</pdfrwt>
<pdfrwt beam="2">  1       21 0.64410898E-02 0.19294002E+03</pdfrwt>
<totfact> 0.50716847E+04</totfact>
</mgrwt>
</event>
<event>
 4    1  0.4336176E+000  0.2354929E+03  0.7546771E-02  0.1122832E+00
         21   -1    0    0  503  502  0.00000000000E+00  0.00000000000E+00  0.10556047443E+03  0.10556047443E+03  0.00000000000E+00 0.  1.
         21   -1    0    0  501  503 -0.00000000000E+00 -0.00000000000E+00 -0.59915269783E+03  0.59915269783E+03  0.00000000000E+00 0.  1.
          6    1    1    2  501    0 -0.63720100435E+02 -0.14651849012E+03 -0.37045620636E+03  0.43897006729E+03  0.17300000000E+03 0.  1.
         -6    1    1    2    0  502  0.63720100435E+02  0.14651849012E+03 -0.12313601704E+03  0.26574310497E+03  0.17300000000E+03 0.  1.
<mgrwt>
<rscale>  2 0.23549293E+03</rscale>
<asrwt>0</asrwt>
<pdfrwt beam="1">  1       21 0.16240073E-01 0.23549293E+03</pdfrwt>
<pdfrwt beam="2">  1       21 0.92177339E-01 0.23549293E+03</pdfrwt>
<totfact> 0.32976179E+04</totfact>
</mgrwt>
</event>
<event>
 4    1  0.4336176E+000  0.2020625E+03  0.7546771E-02  0.1148010E+00
         21   -1    0    0  503  502  0.00000000000E+00  0.00000000000E+00  0.55922551368E+03  0.55922551368E+03  0.00000000000E+00 0.  1.
         21   -1    0    0  501  503 -0.00000000000E+00 -0.00000000000E+00 -0.14105947334E+03  0.14105947334E+03  0.00000000000E+00 0. -1.
          6    1    1    2  501    0  0.71350423990E+01  0.10416019940E+03 -0.34112139684E+02  0.20492167783E+03  0.17300000000E+03 0. -1.
         -6    1    1    2    0  502 -0.71350423990E+01 -0.10416019940E+03  0.45227818002E+03  0.49536330919E+03  0.17300000000E+03 0.  1.
<mgrwt>
<rscale>  2 0.20206251E+03</rscale>
<asrwt>0</asrwt>
<pdfrwt beam="1">  1       21 0.86034693E-01 0.20206251E+03</pdfrwt>
<pdfrwt beam="2">  1       21 0.21701458E-01 0.20206251E+03</pdfrwt>
<totfact> 0.22955169E+04</totfact>
</mgrwt>
</event>
<event>
 4    1  0.4336176E+000  0.2133416E+03  0.7546771E-02  0.1138947E+00
         21   -1    0    0  501  502  0.00000000000E+00  0.00000000000E+00  0.55591083120E+03  0.55591083120E+03  0.00000000000E+00 0.  1.
         21   -1    0    0  502  503 -0.00000000000E+00 -0.00000000000E+00 -0.15765720448E+03  0.15765720448E+03  0.00000000000E+00 0. -1.
          6    1    1    2  501    0 -0.96016224764E+02  0.79790443357E+02  0.44648997974E+03  0.49484132030E+03  0.17300000000E+03 0.  1.
         -6    1    1    2    0  503  0.96016224764E+02 -0.79790443357E+02 -0.48236353017E+02  0.21872671538E+03  0.17300000000E+03 0. -1.
<mgrwt>
<rscale>  2 0.21334158E+03</rscale>
<asrwt>0</asrwt>
<pdfrwt beam="1">  1       21 0.85524742E-01 0.21334158E+03</pdfrwt>
<pdfrwt beam="2">  1       21 0.24254955E-01 0.21334158E+03</pdfrwt>
<totfact> 0.18720763E+04</totfact>
</mgrwt>
</event>
<event>
 4    1  0.4336176E+000  0.1791788E+03  0.7546771E-02  0.1168600E+00
         21   -1    0    0  501  502  0.00000000000E+00  0.00000000000E+00  0.38967805958E+03  0.38967805958E+03  0.00000000000E+00 0.  1.
         21   -1    0    0  502  503 -0.00000000000E+00 -0.00000000000E+00 -0.83370661686E+02  0.83370661686E+02  0.00000000000E+00 0.  1.
          6    1    1    2  501    0  0.34737494337E+02 -0.31134516178E+02  0.12748367646E+03  0.21990256791E+03  0.17300000000E+03 0.  1.
         -6    1    1    2    0  503 -0.34737494337E+02  0.31134516178E+02  0.17882372144E+03  0.25314615336E+03  0.17300000000E+03 0.  1.
<mgrwt>
<rscale>  2 0.17917883E+03</rscale>
<asrwt>0</asrwt>
<pdfrwt beam="1">  1       21 0.59950470E-01 0.17917883E+03</pdfrwt>
<pdfrwt beam="2">  1       21 0.12826256E-01 0.17917883E+03</pdfrwt>
<totfact> 0.13580704E+05</totfact>
</mgrwt>
</event>
<event>
 4    1  0.4336176E+000  0.1730065E+03  0.7546771E-02  0.1174748E+00
         21   -1    0    0  503  502  0.00000000000E+00  0.00000000000E+00  0.14376608591E+03  0.14376608591E+03  0.00000000000E+00 0.  1.
         21   -1    0    0  501  503 -0.00000000000E+00 -0.00000000000E+00 -0.23519728596E+03  0.23519728596E+03  0.00000000000E+00 0.  1.
          6    1    1    2  501    0 -0.25443014602E+00  0.14760101354E+01 -0.10991914555E+03  0.20497185636E+03  0.17300000000E+03 0. -1.
         -6    1    1    2    0  502  0.25443014602E+00 -0.14760101354E+01  0.18487945499E+02  0.17399151551E+03  0.17300000000E+03 0. -1.
<mgrwt>
<rscale>  2 0.17300648E+03</rscale>
<asrwt>0</asrwt>
<pdfrwt beam="1">  1       21 0.22117860E-01 0.17300648E+03</pdfrwt>
<pdfrwt beam="2">  1       21 0.36184198E-01 0.17300648E+03</pdfrwt>
<totfact> 0.14167665E+05</totfact>
</mgrwt>
</event>
<event>
 4    1  0.4336176E+000  0.2916624E+03  0.7546771E-02  0.1089484E+00
         21   -1    0    0  503  502  0.00000000000E+00  0.00000000000E+00  0.20980018852E+04  0.20980018852E+04  0.00000000000E+00 0.  1.
         21   -1    0    0  501  503 -0.00000000000E+00 -0.00000000000E+00 -0.87843481726E+02  0.87843481726E+02  0.00000000000E+00 0. -1.
          6    1    1    2  501    0  0.18459956627E+03 -0.14512401925E+03  0.20312305112E+03  0.35542362714E+03  0.17300000000E+03 0. -1.
         -6    1    1    2    0  502 -0.18459956627E+03  0.14512401925E+03  0.18070353524E+04  0.18304217398E+04  0.17300000000E+03 0.  1.
<mgrwt>
<rscale>  2 0.29166244E+03</rscale>
<asrwt>0</asrwt>
<pdfrwt beam="1">  1       21 0.32276948E+00 0.29166244E+03</pdfrwt>
<pdfrwt beam="2">  1       21 0.13514383E-01 0.29166244E+03</pdfrwt>
<totfact> 0.10700908E+03</totfact>
</mgrwt>
</event>
<event>
 4    1  0.4336176E+000  0.1866656E+03  0.7546771E-02  0.1161504E+00
         21   -1    0    0  501  502  0.00000000000E+00  0.00000000000E+00  0.33983456464E+03  0.33983456464E+03  0.00000000000E+00 0.  1.
         21   -1    0    0  502  503 -0.00000000000E+00 -0.00000000000E+00 -0.13196555888E+03  0.13196555888E+03  0.00000000000E+00 0.  1.
          6    1    1    2  501    0 -0.12732050357E+02 -0.68941647525E+02  0.21534244192E+03  0.28498495252E+03  0.17300000000E+03 0.  1.
         -6    1    1    2    0  503  0.12732050357E+02  0.68941647525E+02 -0.74734361584E+01  0.18681517101E+03  0.17300000000E+03 0.  1.
<mgrwt>
<rscale>  2 0.18666563E+03</rscale>
<asrwt>0</asrwt>
<pdfrwt beam="1">  1       21 0.52282240E-01 0.18666563E+03</pdfrwt>
<pdfrwt beam="2">  1       21 0.20302394E-01 0.18666563E+03</pdfrwt>
<totfact> 0.78090663E+04</totfact>
</mgrwt>
</event>
<event>
 4    1  0.4336176E+000  0.4232267E+03  0.7546771E-02  0.1036021E+00
         21   -1    0    0  501  502  0.00000000000E+00  0.00000000000E+00  0.14304234819E+04  0.14304234819E+04  0.00000000000E+00 0.  1.
         21   -1    0    0  502  503 -0.00000000000E+00 -0.00000000000E+00 -0.12529960726E+03  0.12529960726E+03  0.00000000000E+00 0. -1.
          6    1    1    2  501    0  0.30480952180E+03  0.23724030913E+03  0.63323101601E+03  0.76164448957E+03  0.17300000000E+03 0.  1.
         -6    1    1    2    0  503 -0.30480952180E+03 -0.23724030913E+03  0.67189285860E+03  0.79407859957E+03  0.17300000000E+03 0. -1.
<mgrwt>
<rscale>  2 0.42322666E+03</rscale>
<asrwt>0</asrwt>
<pdfrwt beam="1">  1       21 0.22006514E+00 0.42322666E+03</pdfrwt>
<pdfrwt beam="2">  1       21 0.19276864E-01 0.42322666E+03</pdfrwt>
<totfact> 0.21154394E+03</totfact>
</mgrwt>
</event>
<event>
 4    1  0.4336176E+000  0.2103827E+03  0.7546771E-02  0.1141263E+00
         21   -1    0    0  503  502  0.00000000000E+00  0.00000000000E+00  0.26419357753E+03  0.26419357753E+03  0.00000000000E+00 0.  1.
         21   -1    0    0  501  503 -0.00000000000E+00 -0.00000000000E+00 -0.17380976641E+03  0.17380976641E+03  0.00000000000E+00 0. -1.
          6    1    1    2  501    0  0.96707024640E+02 -0.70566391279E+02  0.35706878150E+01  0.21041296064E+03  0.17300000000E+03 0. -1.
         -6    1    1    2    0  502 -0.96707024640E+02  0.70566391279E+02  0.86813123300E+02  0.22759038330E+03  0.17300000000E+03 0. -1.
<mgrwt>
<rscale>  2 0.21038266E+03</rscale>
<asrwt>0</asrwt>
<pdfrwt beam="1">  1       21 0.40645166E-01 0.21038266E+03</pdfrwt>
<pdfrwt beam="2">  1       21 0.26739964E-01 0.21038266E+03</pdfrwt>
<totfact> 0.77057713E+04</totfact>
</mgrwt>
</event>
<event>
 4    1  0.4336176E+000  0.1780330E+03  0.7546771E-02  0.1169720E+00
         21   -1    0    0  501  502  0.00000000000E+00  0.00000000000E+00  0.15162117407E+03  0.15162117407E+03  0.00000000000E+00 0.  1.
         21   -1    0    0  502  503 -0.00000000000E+00 -0.00000000000E+00 -0.28923866741E+03  0.28923866741E+03  0.00000000000E+00 0.  1.
          6    1    1    2  501    0 -0.36078632847E+02  0.21565448297E+02  0.47258808040E+02  0.18419861901E+03  0.17300000000E+03 0.  1.
         -6    1    1    2    0  503  0.36078632847E+02 -0.21565448297E+02 -0.18487630138E+03  0.25666122247E+03  0.17300000000E+03 0.  1.
<mgrwt>
<rscale>  2 0.17803296E+03</rscale>
<asrwt>0</asrwt>
<pdfrwt beam="1">  1       21 0.23326335E-01 0.17803296E+03</pdfrwt>
<pdfrwt beam="2">  1       21 0.44498256E-01 0.17803296E+03</pdfrwt>
<totfact> 0.84287976E+04</totfact>
</mgrwt>
</event>
<event>
 4    1  0.4336176E+000  0.1786131E+03  0.7546771E-02  0.1169152E+00
         21   -1    0    0  501  502  0.00000000000E+00  0.00000000000E+00  0.17542333717E+04  0.17542333717E+04  0.00000000000E+00 0. -1.
         21   -1    0    0  502  503 -0.00000000000E+00 -0.00000000000E+00 -0.18395708682E+02  0.18395708682E+02  0.00000000000E+00 0. -1.
          6    1    1    2  501    0  0.40321139477E+02 -0.18650946420E+02  0.96252969273E+03  0.97896172626E+03  0.17300000000E+03 0.  1.
         -6    1    1    2    0  503 -0.40321139477E+02  0.18650946420E+02  0.77330797026E+03  0.79366735409E+03  0.17300000000E+03 0.  1.
<mgrwt>
<rscale>  2 0.17861314E+03</rscale>
<asrwt>0</asrwt>
<pdfrwt beam="1">  1       21 0.26988193E+00 0.17861314E+03</pdfrwt>
<pdfrwt beam="2">  1       21 0.28301104E-02 0.17861314E+03</pdfrwt>
<totfact> 0.35915903E+04</totfact>
</mgrwt>
</event>
<event>
 4    1  0.4336176E+000  0.1781993E+03  0.7546771E-02  0.1169557E+00
         21   -1    0    0  501  502  0.00000000000E+00  0.00000000000E+00  0.33557261263E+03  0.33557261263E+03  0.00000000000E+00 0. -1.
         21   -1    0    0  502  503 -0.00000000000E+00 -0.00000000000E+00 -0.23854692959E+03  0.23854692959E+03  0.00000000000E+00 0. -1.
          6    1    1    2  501    0  0.32561286112E+02  0.27671946686E+02  0.27148084280E+03  0.32474116153E+03  0.17300000000E+03 0. -1.
         -6    1    1    2    0  503 -0.32561286112E+02 -0.27671946686E+02 -0.17445515976E+03  0.24937838069E+03  0.17300000000E+03 0. -1.
<mgrwt>
<rscale>  2 0.17819925E+03</rscale>
<asrwt>0</asrwt>
<pdfrwt beam="1">  1       21 0.51626556E-01 0.17819925E+03</pdfrwt>
<pdfrwt beam="2">  1       21 0.36699527E-01 0.17819925E+03</pdfrwt>
<totfact> 0.25727693E+04</totfact>
</mgrwt>
</event>
<event>
 4    1  0.4336176E+000  0.1976790E+03  0.7546771E-02  0.1151712E+00
         21   -1    0    0  503  502  0.00000000000E+00  0.00000000000E+00  0.19685113575E+04  0.19685113575E+04  0.00000000000E+00 0. -1.
         21   -1    0    0  501  503 -0.00000000000E+00 -0.00000000000E+00 -0.27394406765E+02  0.27394406765E+02  0.00000000000E+00 0. -1.
          6    1    1    2  501    0  0.20729698257E+02 -0.93371676007E+02  0.14942334343E+04  0.15072526485E+04  0.17300000000E+03 0. -1.
         -6    1    1    2    0  502 -0.20729698257E+02  0.93371676007E+02  0.44688351641E+03  0.48865311573E+03  0.17300000000E+03 0. -1.
<mgrwt>
<rscale>  2 0.19767901E+03</rscale>
<asrwt>0</asrwt>
<pdfrwt beam="1">  1       21 0.30284779E+00 0.19767901E+03</pdfrwt>
<pdfrwt beam="2">  1       21 0.42145257E-02 0.19767901E+03</pdfrwt>
<totfact> 0.11736785E+04</totfact>
</mgrwt>
</event>
<event>
 4    1  0.4336176E+000  0.1900289E+03  0.7546771E-02  0.1158435E+00
         21   -1    0    0  501  502  0.00000000000E+00  0.00000000000E+00  0.50298370133E+03  0.50298370133E+03  0.00000000000E+00 0.  1.
         21   -1    0    0  502  503 -0.00000000000E+00 -0.00000000000E+00 -0.74896885804E+02  0.74896885804E+02  0.00000000000E+00 0.  1.
          6    1    1    2  501    0 -0.75582719934E+02 -0.21661612115E+02  0.27285898410E+03  0.33251014751E+03  0.17300000000E+03 0.  1.
         -6    1    1    2    0  503  0.75582719934E+02  0.21661612115E+02  0.15522783143E+03  0.24537043962E+03  0.17300000000E+03 0.  1.
<mgrwt>
<rscale>  2 0.19002887E+03</rscale>
<asrwt>0</asrwt>
<pdfrwt beam="1">  1       21 0.77382106E-01 0.19002887E+03</pdfrwt>
<pdfrwt beam="2">  1       21 0.11522598E-01 0.19002887E+03</pdfrwt>
<totfact> 0.93634477E+04</totfact>
</mgrwt>
</event>
<event>
 4    1  0.4336176E+000  0.1865384E+03  0.7546771E-02  0.1161621E+00
         21   -1    0    0  503  502  0.00000000000E+00  0.00000000000E+00  0.51546243577E+03  0.51546243577E+03  0.00000000000E+00 0.  1.
         21   -1    0    0  501  503 -0.00000000000E+00 -0.00000000000E+00 -0.84784573735E+02  0.84784573735E+02  0.00000000000E+00 0. -1.
          6    1    1    2  501    0 -0.69766349524E+02  0.49956480669E+00  0.79850955349E+02  0.20291073939E+03  0.17300000000E+03 0.  1.
         -6    1    1    2    0  502  0.69766349524E+02 -0.49956480669E+00  0.35082690668E+03  0.39733627011E+03  0.17300000000E+03 0. -1.
<mgrwt>
<rscale>  2 0.18653845E+03</rscale>
<asrwt>0</asrwt>
<pdfrwt beam="1">  1       21 0.79301911E-01 0.18653845E+03</pdfrwt>
<pdfrwt beam="2">  1       21 0.13043781E-01 0.18653845E+03</pdfrwt>
<totfact> 0.71066613E+04</totfact>
</mgrwt>
</event>
<event>
 4    1  0.4336176E+000  0.1796396E+03  0.7546771E-02  0.1168152E+00
         21   -1    0    0  501  502  0.00000000000E+00  0.00000000000E+00  0.89606088129E+03  0.89606088129E+03  0.00000000000E+00 0. -1.
         21   -1    0    0  502  503 -0.00000000000E+00 -0.00000000000E+00 -0.36718964205E+02  0.36718964205E+02  0.00000000000E+00 0. -1.
          6    1    1    2  501    0 -0.36317545762E+02 -0.31975464425E+02  0.49431151037E+03  0.52594131207E+03  0.17300000000E+03 0.  1.
         -6    1    1    2    0  503  0.36317545762E+02  0.31975464425E+02  0.36503040672E+03  0.40683853343E+03  0.17300000000E+03 0.  1.
<mgrwt>
<rscale>  2 0.17963962E+03</rscale>
<asrwt>0</asrwt>
<pdfrwt beam="1">  1       21 0.13785550E+00 0.17963962E+03</pdfrwt>
<pdfrwt beam="2">  1       21 0.56490721E-02 0.17963962E+03</pdfrwt>
<totfact> 0.81899166E+04</totfact>
</mgrwt>
</event>
<event>
 4    1  0.4336176E+000  0.2019990E+03  0.7546771E-02  0.1148063E+00
         21   -1    0    0  503  502  0.00000000000E+00  0.00000000000E+00  0.73778282963E+02  0.73778282963E+02  0.00000000000E+00 0. -1.
         21   -1    0    0  501  503 -0.00000000000E+00 -0.00000000000E+00 -0.59450970821E+03  0.59450970821E+03  0.00000000000E+00 0. -1.
          6    1    1    2  501    0  0.54957113548E+02  0.88624452779E+02 -0.34859888823E+03  0.40289547383E+03  0.17300000000E+03 0. -1.
         -6    1    1    2    0  502 -0.54957113548E+02 -0.88624452779E+02 -0.17213253701E+03  0.26539251734E+03  0.17300000000E+03 0. -1.
<mgrwt>
<rscale>  2 0.20199896E+03</rscale>
<asrwt>0</asrwt>
<pdfrwt beam="1">  1       21 0.11350505E-01 0.20199896E+03</pdfrwt>
<pdfrwt beam="2">  1       21 0.91463034E-01 0.20199896E+03</pdfrwt>
<totfact> 0.65300327E+04</totfact>
</mgrwt>
</event>
<event>
 4    1  0.4336176E+000  0.1757014E+03  0.7546771E-02  0.1172029E+00
         21   -1    0    0  501  502  0.00000000000E+00  0.00000000000E+00  0.52208404350E+02  0.52208404350E+02  0.00000000000E+00 0. -1.
         21   -1    0    0  502  503 -0.00000000000E+00 -0.00000000000E+00 -0.76139600772E+03  0.76139600772E+03  0.00000000000E+00 0. -1.
          6    1    1    2  501    0 -0.29407449422E+02 -0.87849298019E+01 -0.16231936349E+03  0.23920399001E+03  0.17300000000E+03 0. -1.
         -6    1    1    2    0  503  0.29407449422E+02  0.87849298019E+01 -0.54686823988E+03  0.57440042206E+03  0.17300000000E+03 0. -1.
<mgrwt>
<rscale>  2 0.17570137E+03</rscale>
<asrwt>0</asrwt>
<pdfrwt beam="1">  1       21 0.80320619E-02 0.17570137E+03</pdfrwt>
<pdfrwt beam="2">  1       21 0.11713785E+00 0.17570137E+03</pdfrwt>
<totfact> 0.67340408E+04</totfact>
</mgrwt>
</event>
<event>
 4    1  0.4336176E+000  0.2071829E+03  0.7546771E-02  0.1143816E+00
         21   -1    0    0  503  502  0.00000000000E+00  0.00000000000E+00  0.48204914798E+03  0.48204914798E+03  0.00000000000E+00 0.  1.
         21   -1    0    0  501  503 -0.00000000000E+00 -0.00000000000E+00 -0.89167516338E+02  0.89167516338E+02  0.00000000000E+00 0.  1.
          6    1    1    2  501    0 -0.97701195237E+01  0.11357952948E+03  0.18591680030E+03  0.27836993621E+03  0.17300000000E+03 0.  1.
         -6    1    1    2    0  502  0.97701195237E+01 -0.11357952948E+03  0.20696483134E+03  0.29284672811E+03  0.17300000000E+03 0.  1.
<mgrwt>
<rscale>  2 0.20718293E+03</rscale>
<asrwt>0</asrwt>
<pdfrwt beam="1">  1       21 0.74161406E-01 0.20718293E+03</pdfrwt>
<pdfrwt beam="2">  1       21 0.13718080E-01 0.20718293E+03</pdfrwt>
<totfact> 0.74720812E+04</totfact>
</mgrwt>
</event>
<event>
 4    1  0.4336176E+000  0.1860077E+03  0.7546771E-02  0.1162112E+00
         21   -1    0    0  501  502  0.00000000000E+00  0.00000000000E+00  0.59973987111E+03  0.59973987111E+03  0.00000000000E+00 0. -1.
         21   -1    0    0  502  503 -0.00000000000E+00 -0.00000000000E+00 -0.12047525539E+03  0.12047525539E+03  0.00000000000E+00 0. -1.
          6    1    1    2  501    0 -0.44237791732E+02 -0.52085418160E+02  0.49959608629E+03  0.53309954271E+03  0.17300000000E+03 0. -1.
         -6    1    1    2    0  503  0.44237791732E+02  0.52085418160E+02 -0.20331470566E+02  0.18711558379E+03  0.17300000000E+03 0. -1.
<mgrwt>
<rscale>  2 0.18600772E+03</rscale>
<asrwt>0</asrwt>
<pdfrwt beam="1">  1       21 0.92267670E-01 0.18600772E+03</pdfrwt>
<pdfrwt beam="2">  1       21 0.18534655E-01 0.18600772E+03</pdfrwt>
<totfact> 0.26472774E+04</totfact>
</mgrwt>
</event>
<event>
 4    1  0.4336176E+000  0.1954244E+03  0.7546771E-02  0.1153658E+00
         21   -1    0    0  503  502  0.00000000000E+00  0.00000000000E+00  0.33592705250E+02  0.33592705250E+02  0.00000000000E+00 0.  1.
         21   -1    0    0  501  503 -0.00000000000E+00 -0.00000000000E+00 -0.13066999179E+04  0.13066999179E+04  0.00000000000E+00 0.  1.
          6    1    1    2  501    0  0.89374186346E+02  0.16551727645E+02 -0.87814556730E+03  0.89962789098E+03  0.17300000000E+03 0.  1.
         -6    1    1    2    0  502 -0.89374186346E+02 -0.16551727645E+02 -0.39496164532E+03  0.44066473214E+03  0.17300000000E+03 0.  1.
<mgrwt>
<rscale>  2 0.19542442E+03</rscale>
<asrwt>0</asrwt>
<pdfrwt beam="1">  1       21 0.51681090E-02 0.19542442E+03</pdfrwt>
<pdfrwt beam="2">  1       21 0.20103074E+00 0.19542442E+03</pdfrwt>
<totfact> 0.33565297E+04</totfact>
</mgrwt>
</event>
<event>
 4    1  0.4336176E+000  0.1862655E+03  0.7546771E-02  0.1161873E+00
         21   -1    0    0  503  502  0.00000000000E+00  0.00000000000E+00  0.11232841915E+03  0.11232841915E+03  0.00000000000E+00 0.  1.
         21   -1    0    0  501  503 -0.00000000000E+00 -0.00000000000E+00 -0.41108773791E+03  0.41108773791E+03  0.00000000000E+00 0.  1.
          6    1    1    2  501    0  0.38524140490E+02  0.57286242392E+02 -0.27988072464E+03  0.33619643512E+03  0.17300000000E+03 0.  1.
         -6    1    1    2    0  502 -0.38524140490E+02 -0.57286242392E+02 -0.18878594122E+02  0.18721972194E+03  0.17300000000E+03 0.  1.
<mgrwt>
<rscale>  2 0.18626546E+03</rscale>
<asrwt>0</asrwt>
<pdfrwt beam="1">  1       21 0.17281295E-01 0.18626546E+03</pdfrwt>
<pdfrwt beam="2">  1       21 0.63244267E-01 0.18626546E+03</pdfrwt>
<totfact> 0.70203197E+04</totfact>
</mgrwt>
</event>
<event>
 4    1  0.4336176E+000  0.1938871E+03  0.7546771E-02  0.1155001E+00
         21   -1    0    0  501  502  0.00000000000E+00  0.00000000000E+00  0.10217036419E+03  0.10217036419E+03  0.00000000000E+00 0.  1.
         21   -1    0    0  502  503 -0.00000000000E+00 -0.00000000000E+00 -0.58785824915E+03  0.58785824915E+03  0.00000000000E+00 0.  1.
          6    1    1    2  501    0 -0.32280898012E+02  0.81370468733E+02 -0.31818483286E+02  0.19648059812E+03  0.17300000000E+03 0.  1.
         -6    1    1    2    0  503  0.32280898012E+02 -0.81370468733E+02 -0.45386940167E+03  0.49354801522E+03  0.17300000000E+03 0.  1.
<mgrwt>
<rscale>  2 0.19388711E+03</rscale>
<asrwt>0</asrwt>
<pdfrwt beam="1">  1       21 0.15718518E-01 0.19388711E+03</pdfrwt>
<pdfrwt beam="2">  1       21 0.90439731E-01 0.19388711E+03</pdfrwt>
<totfact> 0.37393216E+04</totfact>
</mgrwt>
</event>
<event>
 4    1  0.4336176E+000  0.1867883E+03  0.7546771E-02  0.1161390E+00
         21   -1    0    0  501  502  0.00000000000E+00  0.00000000000E+00  0.14964770935E+04  0.14964770935E+04  0.00000000000E+00 0.  1.
         21   -1    0    0  502  503 -0.00000000000E+00 -0.00000000000E+00 -0.58959500500E+02  0.58959500500E+02  0.00000000000E+00 0. -1.
          6    1    1    2  501    0 -0.46624375262E+02  0.52792254210E+02  0.13234640717E+04  0.13365803393E+04  0.17300000000E+03 0.  1.
         -6    1    1    2    0  503  0.46624375262E+02 -0.52792254210E+02  0.11405352129E+03  0.21885625463E+03  0.17300000000E+03 0. -1.
<mgrwt>
<rscale>  2 0.18678826E+03</rscale>
<asrwt>0</asrwt>
<pdfrwt beam="1">  1       21 0.23022722E+00 0.18678826E+03</pdfrwt>
<pdfrwt beam="2">  1       21 0.90706935E-02 0.18678826E+03</pdfrwt>
<totfact> 0.84460902E+03</totfact>
</mgrwt>
</event>
<event>
 4    1  0.4336176E+000  0.2906066E+03  0.7546771E-02  0.1090033E+00
         21   -1    0    0  503  502  0.00000000000E+00  0.00000000000E+00  0.81261098443E+03  0.81261098443E+03  0.00000000000E+00 0. -1.
         21   -1    0    0  501  503 -0.00000000000E+00 -0.00000000000E+00 -0.39388754304E+03  0.39388754304E+03  0.00000000000E+00 0.  1.
          6    1    1    2  501    0 -0.21134438932E+03  0.99281115184E+02 -0.30822146375E+03  0.42361853294E+03  0.17300000000E+03 0.  1.
         -6    1    1    2    0  502  0.21134438932E+03 -0.99281115184E+02  0.72694490514E+03  0.78287999453E+03  0.17300000000E+03 0. -1.
<mgrwt>
<rscale>  2 0.29060659E+03</rscale>
<asrwt>0</asrwt>
<pdfrwt beam="1">  1       21 0.12501707E+00 0.29060659E+03</pdfrwt>
<pdfrwt beam="2">  1       21 0.60598084E-01 0.29060659E+03</pdfrwt>
<totfact> 0.11158215E+03</totfact>
</mgrwt>
</event>
<event>
 4    1  0.4336176E+000  0.1888137E+03  0.7546771E-02  0.1159536E+00
         21   -1    0    0  503  502  0.00000000000E+00  0.00000000000E+00  0.57471485257E+03  0.57471485257E+03  0.00000000000E+00 0. -1.
         21   -1    0    0  501  503 -0.00000000000E+00 -0.00000000000E+00 -0.70087889832E+02  0.70087889832E+02  0.00000000000E+00 0. -1.
          6    1    1    2  501    0  0.56286144864E+02  0.50531915845E+02  0.14300920063E+03  0.23685910599E+03  0.17300000000E+03 0. -1.
         -6    1    1    2    0  502 -0.56286144864E+02 -0.50531915845E+02  0.36161776211E+03  0.40794363642E+03  0.17300000000E+03 0. -1.
<mgrwt>
<rscale>  2 0.18881368E+03</rscale>
<asrwt>0</asrwt>
<pdfrwt beam="1">  1       21 0.88417666E-01 0.18881368E+03</pdfrwt>
<pdfrwt beam="2">  1       21 0.10782753E-01 0.18881368E+03</pdfrwt>
<totfact> 0.77847612E+04</totfact>
</mgrwt>
</event>
<event>
 4    1  0.4336176E+000  0.1741527E+03  0.7546771E-02  0.1173585E+00
         21   -1    0    0  501  502  0.00000000000E+00  0.00000000000E+00  0.10171329157E+04  0.10171329157E+04  0.00000000000E+00 0. -1.
         21   -1    0    0  502  503 -0.00000000000E+00 -0.00000000000E+00 -0.29994735852E+02  0.29994735852E+02  0.00000000000E+00 0. -1.
          6    1    1    2  501    0 -0.60049113029E+01 -0.19081325493E+02  0.45341193941E+03  0.48570726034E+03  0.17300000000E+03 0. -1.
         -6    1    1    2    0  503  0.60049113029E+01  0.19081325493E+02  0.53372624043E+03  0.56142039121E+03  0.17300000000E+03 0. -1.
<mgrwt>
<rscale>  2 0.17415268E+03</rscale>
<asrwt>0</asrwt>
<pdfrwt beam="1">  1       21 0.15648196E+00 0.17415268E+03</pdfrwt>
<pdfrwt beam="2">  1       21 0.46145755E-02 0.17415268E+03</pdfrwt>
<totfact> 0.83110731E+04</totfact>
</mgrwt>
</event>
<event>
 4    1  0.4336176E+000  0.3644501E+03  0.7546771E-02  0.1056836E+00
         21   -1    0    0  503  502  0.00000000000E+00  0.00000000000E+00  0.81963794245E+03  0.81963794245E+03  0.00000000000E+00 0.  1.
         21   -1    0    0  501  503 -0.00000000000E+00 -0.00000000000E+00 -0.17161120526E+03  0.17161120526E+03  0.00000000000E+00 0. -1.
          6    1    1    2  501    0  0.31944360726E+03  0.29165663614E+02  0.20703809886E+03  0.41915227368E+03  0.17300000000E+03 0. -1.
         -6    1    1    2    0  502 -0.31944360726E+03 -0.29165663614E+02  0.44098863833E+03  0.57209687404E+03  0.17300000000E+03 0.  1.
<mgrwt>
<rscale>  2 0.36445007E+03</rscale>
<asrwt>0</asrwt>
<pdfrwt beam="1">  1       21 0.12609814E+00 0.36445007E+03</pdfrwt>
<pdfrwt beam="2">  1       21 0.26401724E-01 0.36445007E+03</pdfrwt>
<totfact> 0.57669164E+03</totfact>
</mgrwt>
</event>
<event>
 4    1  0.4336176E+000  0.1967260E+03  0.7546771E-02  0.1152531E+00
         21   -1    0    0  503  502  0.00000000000E+00  0.00000000000E+00  0.24613031222E+03  0.24613031222E+03  0.00000000000E+00 0. -1.
         21   -1    0    0  501  503 -0.00000000000E+00 -0.00000000000E+00 -0.23282905918E+03  0.23282905918E+03  0.00000000000E+00 0. -1.
          6    1    1    2  501    0  0.40889124394E+02  0.84262654303E+02 -0.12980278567E+03  0.23569021738E+03  0.17300000000E+03 0. -1.
         -6    1    1    2    0  502 -0.40889124394E+02 -0.84262654303E+02  0.14310403870E+03  0.24326915402E+03  0.17300000000E+03 0. -1.
<mgrwt>
<rscale>  2 0.19672599E+03</rscale>
<asrwt>0</asrwt>
<pdfrwt beam="1">  1       21 0.37866202E-01 0.19672599E+03</pdfrwt>
<pdfrwt beam="2">  1       21 0.35819855E-01 0.19672599E+03</pdfrwt>
<totfact> 0.50449825E+04</totfact>
</mgrwt>
</event>
<event>
 4    1  0.4336176E+000  0.2724439E+03  0.7546771E-02  0.1099889E+00
         21   -1    0    0  503  502  0.00000000000E+00  0.00000000000E+00  0.13516414177E+03  0.13516414177E+03  0.00000000000E+00 0.  1.
         21   -1    0    0  501  503 -0.00000000000E+00 -0.00000000000E+00 -0.54974973932E+03  0.54974973932E+03  0.00000000000E+00 0. -1.
          6    1    1    2  501    0 -0.19517594720E+03 -0.78759255125E+02 -0.21858419166E+03  0.34929173977E+03  0.17300000000E+03 0. -1.
         -6    1    1    2    0  502  0.19517594720E+03  0.78759255125E+02 -0.19600140589E+03  0.33562214132E+03  0.17300000000E+03 0.  1.
<mgrwt>
<rscale>  2 0.27244389E+03</rscale>
<asrwt>0</asrwt>
<pdfrwt beam="1">  1       21 0.20794483E-01 0.27244389E+03</pdfrwt>
<pdfrwt beam="2">  1       21 0.84576886E-01 0.27244389E+03</pdfrwt>
<totfact> 0.24978633E+04</totfact>
</mgrwt>
</event>
<event>
 4    1  0.4336176E+000  0.2050960E+03  0.7546771E-02  0.1145509E+00
         21   -1    0    0  503  502  0.00000000000E+00  0.00000000000E+00  0.12041347760E+04  0.12041347760E+04  0.00000000000E+00 0.  1.
         21   -1    0    0  501  503 -0.00000000000E+00 -0.00000000000E+00 -0.36215385165E+02  0.36215385165E+02  0.00000000000E+00 0. -1.
          6    1    1    2  501    0  0.73312007291E+01  0.10991652555E+03  0.70064815903E+03  0.73004947219E+03  0.17300000000E+03 0. -1.
         -6    1    1    2    0  502 -0.73312007291E+01 -0.10991652555E+03  0.46727123176E+03  0.51030068893E+03  0.17300000000E+03 0.  1.
<mgrwt>
<rscale>  2 0.20509605E+03</rscale>
<asrwt>0</asrwt>
<pdfrwt beam="1">  1       21 0.18525147E+00 0.20509605E+03</pdfrwt>
<pdfrwt beam="2">  1       21 0.55715986E-02 0.20509605E+03</pdfrwt>
<totfact> 0.37223600E+04</totfact>
</mgrwt>
</event>
<event>
 4    1  0.4336176E+000  0.1832317E+03  0.7546771E-02  0.1164712E+00
         21   -1    0    0  501  502  0.00000000000E+00  0.00000000000E+00  0.16677567522E+03  0.16677567522E+03  0.00000000000E+00 0. -1.
         21   -1    0    0  502  503 -0.00000000000E+00 -0.00000000000E+00 -0.30447265536E+03  0.30447265536E+03  0.00000000000E+00 0. -1.
          6    1    1    2  501    0  0.60365588872E+02 -0.92628402482E+00  0.68304022467E+02  0.19554871978E+03  0.17300000000E+03 0. -1.
         -6    1    1    2    0  503 -0.60365588872E+02  0.92628402482E+00 -0.20600100261E+03  0.27569961080E+03  0.17300000000E+03 0. -1.
<mgrwt>
<rscale>  2 0.18323172E+03</rscale>
<asrwt>0</asrwt>
<pdfrwt beam="1">  1       21 0.25657796E-01 0.18323172E+03</pdfrwt>
<pdfrwt beam="2">  1       21 0.46841946E-01 0.18323172E+03</pdfrwt>
<totfact> 0.63142140E+04</totfact>
</mgrwt>
</event>
