<event>
 4    1  0.4539494E+000  0.2044868E+03  0.7818608E-02  0.1146008E+00
         21   -1    0    0  503  502  0.00000000000E+00  0.00000000000E+00  0.48155942926E+03  0.48155942926E+03  0.00000000000E+00 0.  1.
         21   -1    0    0  501  503 -0.00000000000E+00 -0.00000000000E+00 -0.28711922897E+03  0.28711922897E+03  0.00000000000E+00 0.  1.
          6    1    1    2  501    0 -0.71690403701E+02  0.84210145861E+02 -0.22378364912E+03  0.30314020561E+03  0.17200000000E+03 0.  1.
         -6    1    1    2    0  502  0.71690403701E+02 -0.84210145861E+02  0.41822384940E+03  0.46553845261E+03  0.17200000000E+03 0.  1.
</event>
<event>
 4    1  0.4539494E+000  0.2057266E+03  0.7818608E-02  0.1144995E+00
         21   -1    0    0  503  502  0.00000000000E+00  0.00000000000E+00  0.43679843913E+02  0.43679843913E+02  0.00000000000E+00 0.  1.
         21   -1    0    0  501  503 -0.00000000000E+00 -0.00000000000E+00 -0.13449790973E+04  0.13449790973E+04  0.00000000000E+00 0.  1.
          6    1    1    2  501    0 -0.42520774059E+02 -0.10455333198E+03 -0.10177804059E+04  0.10383642762E+04  0.17200000000E+03 0.  1.
         -6    1    1    2    0  502  0.42520774059E+02  0.10455333198E+03 -0.28351884748E+03  0.35029466500E+03  0.17200000000E+03 0.  1.
</event>
<event>
 4    1  0.4539494E+000  0.2202591E+03  0.7818608E-02  0.1133690E+00
         21   -1    0    0  503  502  0.00000000000E+00  0.00000000000E+00  0.20132791825E+03  0.20132791825E+03  0.00000000000E+00 0. -1.
         21   -1    0    0  501  503 -0.00000000000E+00 -0.00000000000E+00 -0.71028038912E+03  0.71028038912E+03  0.00000000000E+00 0. -1.
          6    1    1    2  501    0  0.11177953948E+03  0.80220894708E+02 -0.62498056922E+03  0.66265735437E+03  0.17200000000E+03 0. -1.
         -6    1    1    2    0  502 -0.11177953948E+03 -0.80220894708E+02  0.11602809835E+03  0.24895095301E+03  0.17200000000E+03 0. -1.
</event>
<event>
 4    1  0.4539494E+000  0.2300039E+03  0.7818608E-02  0.1126637E+00
         21   -1    0    0  501  502  0.00000000000E+00  0.00000000000E+00  0.13586672380E+04  0.13586672380E+04  0.00000000000E+00 0.  1.
         21   -1    0    0  502  503 -0.00000000000E+00 -0.00000000000E+00 -0.29462362190E+03  0.29462362190E+03  0.00000000000E+00 0.  1.
          6    1    1    2  501    0 -0.11935353758E+03 -0.95249888052E+02  0.13021089571E+04  0.13222668204E+04  0.17200000000E+03 0.  1.
         -6    1    1    2    0  503  0.11935353758E+03  0.95249888052E+02 -0.23806534104E+03  0.33102403948E+03  0.17200000000E+03 0.  1.
</event>
<event>
 4    1  0.4539494E+000  0.1790003E+03  0.7818608E-02  0.1168774E+00
         21   -1    0    0  503  502  0.00000000000E+00  0.00000000000E+00  0.47594218715E+03  0.47594218715E+03  0.00000000000E+00 0. -1.
         21   -1    0    0  501  503 -0.00000000000E+00 -0.00000000000E+00 -0.70631424696E+02  0.70631424696E+02  0.00000000000E+00 0. -1.
          6    1    1    2  501    0  0.34358518438E+02 -0.35729323071E+02  0.14349437117E+03  0.22941605627E+03  0.17200000000E+03 0.  1.
         -6    1    1    2    0  502 -0.34358518438E+02  0.35729323071E+02  0.26181639128E+03  0.31715755558E+03  0.17200000000E+03 0.  1.
</event>
<event>
 4    1  0.4539494E+000  0.2160793E+03  0.7818608E-02  0.1136840E+00
         21   -1    0    0  503  502  0.00000000000E+00  0.00000000000E+00  0.22518152350E+03  0.22518152350E+03  0.00000000000E+00 0.  1.
         21   -1    0    0  501  503 -0.00000000000E+00 -0.00000000000E+00 -0.21201128082E+03  0.21201128082E+03  0.00000000000E+00 0.  1.
          6    1    1    2  501    0 -0.22474725360E+02 -0.12884536901E+03  0.39015589356E+02  0.21957335587E+03  0.17200000000E+03 0.  1.
         -6    1    1    2    0  502  0.22474725360E+02  0.12884536901E+03 -0.25845346684E+02  0.21761944845E+03  0.17200000000E+03 0.  1.
</event>
<event>
 4    1  0.4539494E+000  0.2222867E+03  0.7818608E-02  0.1132190E+00
         21   -1    0    0  501  502  0.00000000000E+00  0.00000000000E+00  0.24410445421E+03  0.24410445421E+03  0.00000000000E+00 0.  1.
         21   -1    0    0  502  503 -0.00000000000E+00 -0.00000000000E+00 -0.21269483712E+03  0.21269483712E+03  0.00000000000E+00 0.  1.
          6    1    1    2  501    0  0.14098806474E+02  0.14010206532E+03 -0.34497860801E+02  0.22494769937E+03  0.17200000000E+03 0.  1.
         -6    1    1    2    0  503 -0.14098806474E+02 -0.14010206532E+03  0.65907477892E+02  0.23185159196E+03  0.17200000000E+03 0.  1.
</event>
<event>
 4    1  0.4539494E+000  0.2169161E+03  0.7818608E-02  0.1136203E+00
         21   -1    0    0  503  502  0.00000000000E+00  0.00000000000E+00  0.42075788635E+03  0.42075788635E+03  0.00000000000E+00 0. -1.
         21   -1    0    0  501  503 -0.00000000000E+00 -0.00000000000E+00 -0.15923861227E+03  0.15923861227E+03  0.00000000000E+00 0. -1.
          6    1    1    2  501    0  0.65260078619E+02  0.11493360093E+03 -0.27477313169E+02  0.21864952143E+03  0.17200000000E+03 0. -1.
         -6    1    1    2    0  502 -0.65260078619E+02 -0.11493360093E+03  0.28899658725E+03  0.36134697719E+03  0.17200000000E+03 0. -1.
</event>
<event>
 4    1  0.4539494E+000  0.2419432E+03  0.7818608E-02  0.1118505E+00
         21   -1    0    0  503  502  0.00000000000E+00  0.00000000000E+00  0.14793160639E+04  0.14793160639E+04  0.00000000000E+00 0. -1.
         21   -1    0    0  501  503 -0.00000000000E+00 -0.00000000000E+00 -0.66142350680E+02  0.66142350680E+02  0.00000000000E+00 0. -1.
          6    1    1    2  501    0  0.16312650822E+03  0.48396601360E+02  0.21680491615E+03  0.32487052863E+03  0.17200000000E+03 0. -1.
         -6    1    1    2    0  502 -0.16312650822E+03 -0.48396601360E+02  0.11963687970E+04  0.12205878859E+04  0.17200000000E+03 0. -1.
</event>
<event>
 4    1  0.4539494E+000  0.2926116E+03  0.7818608E-02  0.1088993E+00
         21   -1    0    0  501  502  0.00000000000E+00  0.00000000000E+00  0.15051314746E+03  0.15051314746E+03  0.00000000000E+00 0. -1.
         21   -1    0    0  502  503 -0.00000000000E+00 -0.00000000000E+00 -0.68422244946E+03  0.68422244946E+03  0.00000000000E+00 0.  1.
          6    1    1    2  501    0  0.13300335280E+03 -0.19582560323E+03 -0.95480866167E+02  0.30779563762E+03  0.17200000000E+03 0. -1.
         -6    1    1    2    0  503 -0.13300335280E+03  0.19582560323E+03 -0.43822843583E+03  0.52693995930E+03  0.17200000000E+03 0.  1.
</event>
<event>
 4    1  0.4539494E+000  0.1900392E+03  0.7818608E-02  0.1158426E+00
         21   -1    0    0  501  502  0.00000000000E+00  0.00000000000E+00  0.45628084251E+03  0.45628084251E+03  0.00000000000E+00 0.  1.
         21   -1    0    0  502  503 -0.00000000000E+00 -0.00000000000E+00 -0.79202208192E+02  0.79202208192E+02  0.00000000000E+00 0.  1.
          6    1    1    2  501    0 -0.25029438787E+02  0.76840163228E+02  0.18170207122E+03  0.26292684567E+03  0.17200000000E+03 0.  1.
         -6    1    1    2    0  503  0.25029438787E+02 -0.76840163228E+02  0.19537656310E+03  0.27255620503E+03  0.17200000000E+03 0.  1.
</event>
<event>
 4    1  0.4539494E+000  0.1931931E+03  0.7818608E-02  0.1155612E+00
         21   -1    0    0  503  502  0.00000000000E+00  0.00000000000E+00  0.32776417971E+03  0.32776417971E+03  0.00000000000E+00 0. -1.
         21   -1    0    0  501  503 -0.00000000000E+00 -0.00000000000E+00 -0.11400677537E+03  0.11400677537E+03  0.00000000000E+00 0.  1.
          6    1    1    2  501    0 -0.62377141189E+02  0.62037728093E+02  0.99320666716E+02  0.21722841040E+03  0.17200000000E+03 0. -1.
         -6    1    1    2    0  502  0.62377141189E+02 -0.62037728093E+02  0.11443673763E+03  0.22454254468E+03  0.17200000000E+03 0. -1.
</event>
<event>
 4    1  0.4539494E+000  0.1933201E+03  0.7818608E-02  0.1155500E+00
         21   -1    0    0  503  502  0.00000000000E+00  0.00000000000E+00  0.89506327578E+03  0.89506327578E+03  0.00000000000E+00 0. -1.
         21   -1    0    0  501  503 -0.00000000000E+00 -0.00000000000E+00 -0.42848155316E+02  0.42848155316E+02  0.00000000000E+00 0.  1.
          6    1    1    2  501    0  0.28152004867E+02  0.83642948642E+02  0.35117690564E+03  0.40087142239E+03  0.17200000000E+03 0. -1.
         -6    1    1    2    0  502 -0.28152004867E+02 -0.83642948642E+02  0.50103821483E+03  0.53704000871E+03  0.17200000000E+03 0. -1.
</event>
<event>
 4    1  0.4539494E+000  0.1951193E+03  0.7818608E-02  0.1153923E+00
         21   -1    0    0  501  502  0.00000000000E+00  0.00000000000E+00  0.26977416341E+03  0.26977416341E+03  0.00000000000E+00 0.  1.
         21   -1    0    0  502  503 -0.00000000000E+00 -0.00000000000E+00 -0.14586828768E+03  0.14586828768E+03  0.00000000000E+00 0.  1.
          6    1    1    2  501    0  0.42114461239E+02  0.81938580003E+02  0.99433276021E+02  0.21899437235E+03  0.17200000000E+03 0.  1.
         -6    1    1    2    0  503 -0.42114461239E+02 -0.81938580003E+02  0.24472599715E+02  0.19664807875E+03  0.17200000000E+03 0.  1.
</event>
<event>
 4    1  0.4539494E+000  0.5644784E+03  0.7818608E-02  0.9981972E-01
         21   -1    0    0  503  502  0.00000000000E+00  0.00000000000E+00  0.53498217247E+03  0.53498217247E+03  0.00000000000E+00 0.  1.
         21   -1    0    0  501  503 -0.00000000000E+00 -0.00000000000E+00 -0.83700196164E+03  0.83700196164E+03  0.00000000000E+00 0.  1.
          6    1    1    2  501    0 -0.36522512482E+03 -0.39454081255E+03 -0.51941486003E+03  0.76709037368E+03  0.17200000000E+03 0.  1.
         -6    1    1    2    0  502  0.36522512482E+03  0.39454081255E+03  0.21739507086E+03  0.60489376043E+03  0.17200000000E+03 0.  1.
</event>
<event>
 4    1  0.4539494E+000  0.2358678E+03  0.7818608E-02  0.1122577E+00
         21   -1    0    0  501  502  0.00000000000E+00  0.00000000000E+00  0.22070328609E+03  0.22070328609E+03  0.00000000000E+00 0.  1.
         21   -1    0    0  502  503 -0.00000000000E+00 -0.00000000000E+00 -0.32391682187E+03  0.32391682187E+03  0.00000000000E+00 0. -1.
          6    1    1    2  501    0  0.43379577276E+02 -0.15546003353E+03  0.76637492335E+02  0.24800587691E+03  0.17200000000E+03 0.  1.
         -6    1    1    2    0  503 -0.43379577276E+02  0.15546003353E+03 -0.17985102811E+03  0.29661423105E+03  0.17200000000E+03 0. -1.
</event>
<event>
 4    1  0.4539494E+000  0.2013303E+03  0.7818608E-02  0.1148621E+00
         21   -1    0    0  503  502  0.00000000000E+00  0.00000000000E+00  0.54798131125E+02  0.54798131125E+02  0.00000000000E+00 0. -1.
         21   -1    0    0  501  503 -0.00000000000E+00 -0.00000000000E+00 -0.96923431807E+03  0.96923431807E+03  0.00000000000E+00 0. -1.
          6    1    1    2  501    0 -0.89560365636E+02  0.54118826107E+02 -0.70638928339E+03  0.73452006516E+03  0.17200000000E+03 0. -1.
         -6    1    1    2    0  502  0.89560365636E+02 -0.54118826107E+02 -0.20804690355E+03  0.28951238404E+03  0.17200000000E+03 0. -1.
</event>
<event>
 4    1  0.4539494E+000  0.2528406E+03  0.7818608E-02  0.1111523E+00
         21   -1    0    0  501  502  0.00000000000E+00  0.00000000000E+00  0.68403630388E+03  0.68403630388E+03  0.00000000000E+00 0.  1.
         21   -1    0    0  502  503 -0.00000000000E+00 -0.00000000000E+00 -0.11071953225E+03  0.11071953225E+03  0.00000000000E+00 0. -1.
          6    1    1    2  501    0 -0.11767969153E+03 -0.14316370994E+03  0.44356343928E+03  0.51056525764E+03  0.17200000000E+03 0. -1.
         -6    1    1    2    0  503  0.11767969153E+03  0.14316370994E+03  0.12975333235E+03  0.28419057849E+03  0.17200000000E+03 0. -1.
</event>
<event>
 4    1  0.4539494E+000  0.1997957E+03  0.7818608E-02  0.1149911E+00
         21   -1    0    0  501  502  0.00000000000E+00  0.00000000000E+00  0.23648070730E+02  0.23648070730E+02  0.00000000000E+00 0.  1.
         21   -1    0    0  502  503 -0.00000000000E+00 -0.00000000000E+00 -0.17725858333E+04  0.17725858333E+04  0.00000000000E+00 0.  1.
          6    1    1    2  501    0 -0.13167062271E+02  0.10080154891E+03 -0.10706407701E+04  0.10891234927E+04  0.17200000000E+03 0.  1.
         -6    1    1    2    0  503  0.13167062271E+02 -0.10080154891E+03 -0.67829699246E+03  0.70711041130E+03  0.17200000000E+03 0.  1.
</event>
<event>
 4    1  0.4539494E+000  0.1997638E+03  0.7818608E-02  0.1149938E+00
         21   -1    0    0  501  502  0.00000000000E+00  0.00000000000E+00  0.20811797864E+03  0.20811797864E+03  0.00000000000E+00 0. -1.
         21   -1    0    0  502  503 -0.00000000000E+00 -0.00000000000E+00 -0.19214321715E+03  0.19214321715E+03  0.00000000000E+00 0. -1.
          6    1    1    2  501    0 -0.79283913879E+02  0.63526751577E+02 -0.11232180861E+01  0.19976698622E+03  0.17200000000E+03 0. -1.
         -6    1    1    2    0  503  0.79283913879E+02 -0.63526751577E+02  0.17097979575E+02  0.20049420957E+03  0.17200000000E+03 0. -1.
</event>
<event>
 4    1  0.4539494E+000  0.3522728E+03  0.7818608E-02  0.1061686E+00
         21   -1    0    0  501  502  0.00000000000E+00  0.00000000000E+00  0.71503785315E+03  0.71503785315E+03  0.00000000000E+00 0. -1.
         21   -1    0    0  502  503 -0.00000000000E+00 -0.00000000000E+00 -0.21209403306E+03  0.21209403306E+03  0.00000000000E+00 0.  1.
          6    1    1    2  501    0 -0.16927740210E+03  0.25662677067E+03  0.44908489707E+03  0.57076561132E+03  0.17200000000E+03 0. -1.
         -6    1    1    2    0  503  0.16927740210E+03 -0.25662677067E+03  0.53858923022E+02  0.35636627489E+03  0.17200000000E+03 0. -1.
</event>
<event>
 4    1  0.4539494E+000  0.1968895E+03  0.7818608E-02  0.1152390E+00
         21   -1    0    0  503  502  0.00000000000E+00  0.00000000000E+00  0.11198050117E+04  0.11198050117E+04  0.00000000000E+00 0.  1.
         21   -1    0    0  501  503 -0.00000000000E+00 -0.00000000000E+00 -0.15376023029E+03  0.15376023029E+03  0.00000000000E+00 0. -1.
          6    1    1    2  501    0 -0.90325741822E+02 -0.31979950790E+02 -0.77511632048E+02  0.21159751887E+03  0.17200000000E+03 0. -1.
         -6    1    1    2    0  502  0.90325741822E+02  0.31979950790E+02  0.10435564134E+04  0.10619677231E+04  0.17200000000E+03 0.  1.
</event>
<event>
 4    1  0.4539494E+000  0.1825069E+03  0.7818608E-02  0.1165399E+00
         21   -1    0    0  501  502  0.00000000000E+00  0.00000000000E+00  0.87932550978E+02  0.87932550978E+02  0.00000000000E+00 0.  1.
         21   -1    0    0  502  503 -0.00000000000E+00 -0.00000000000E+00 -0.51844852645E+03  0.51844852645E+03  0.00000000000E+00 0. -1.
          6    1    1    2  501    0  0.59258722993E+02  0.14600407597E+02 -0.57902296885E+02  0.19147178418E+03  0.17200000000E+03 0.  1.
         -6    1    1    2    0  503 -0.59258722993E+02 -0.14600407597E+02 -0.37261367859E+03  0.41490929325E+03  0.17200000000E+03 0. -1.
</event>
<event>
 4    1  0.4539494E+000  0.1974250E+03  0.7818608E-02  0.1151930E+00
         21   -1    0    0  503  502  0.00000000000E+00  0.00000000000E+00  0.97654705503E+03  0.97654705503E+03  0.00000000000E+00 0.  1.
         21   -1    0    0  501  503 -0.00000000000E+00 -0.00000000000E+00 -0.42606648837E+02  0.42606648837E+02  0.00000000000E+00 0.  1.
          6    1    1    2  501    0  0.43661119178E+02  0.86523679388E+02  0.33883608472E+03  0.39215626060E+03  0.17200000000E+03 0.  1.
         -6    1    1    2    0  502 -0.43661119178E+02 -0.86523679388E+02  0.59510432148E+03  0.62699744327E+03  0.17200000000E+03 0.  1.
</event>
<event>
 4    1  0.4539494E+000  0.1992652E+03  0.7818608E-02  0.1150360E+00
         21   -1    0    0  501  502  0.00000000000E+00  0.00000000000E+00  0.34485415757E+03  0.34485415757E+03  0.00000000000E+00 0. -1.
         21   -1    0    0  502  503 -0.00000000000E+00 -0.00000000000E+00 -0.21398558875E+03  0.21398558875E+03  0.00000000000E+00 0. -1.
          6    1    1    2  501    0 -0.98699609837E+02 -0.19519359181E+02  0.25534215735E+03  0.32389232113E+03  0.17200000000E+03 0. -1.
         -6    1    1    2    0  503  0.98699609837E+02  0.19519359181E+02 -0.12447358852E+03  0.23494742519E+03  0.17200000000E+03 0. -1.
</event>
<event>
 4    1  0.4539494E+000  0.1800966E+03  0.7818608E-02  0.1167710E+00
         21   -1    0    0  501  502  0.00000000000E+00  0.00000000000E+00  0.46940626298E+03  0.46940626298E+03  0.00000000000E+00 0. -1.
         21   -1    0    0  502  503 -0.00000000000E+00 -0.00000000000E+00 -0.80679405832E+02  0.80679405832E+02  0.00000000000E+00 0.  1.
          6    1    1    2  501    0 -0.53005997848E+02  0.64152936151E+01  0.29857340602E+03  0.34868448572E+03  0.17200000000E+03 0. -1.
         -6    1    1    2    0  503  0.53005997848E+02 -0.64152936151E+01  0.90153451125E+02  0.20140118309E+03  0.17200000000E+03 0.  1.
</event>
<event>
 4    1  0.4539494E+000  0.2518798E+03  0.7818608E-02  0.1112123E+00
         21   -1    0    0  501  502  0.00000000000E+00  0.00000000000E+00  0.91800545042E+02  0.91800545042E+02  0.00000000000E+00 0. -1.
         21   -1    0    0  502  503 -0.00000000000E+00 -0.00000000000E+00 -0.12618652134E+04  0.12618652134E+04  0.00000000000E+00 0. -1.
          6    1    1    2  501    0  0.18077378576E+03 -0.34355014203E+02 -0.12983111808E+03  0.28337174849E+03  0.17200000000E+03 0. -1.
         -6    1    1    2    0  503 -0.18077378576E+03  0.34355014203E+02 -0.10402335503E+04  0.10702940099E+04  0.17200000000E+03 0. -1.
</event>
<event>
 4    1  0.4539494E+000  0.2305791E+03  0.7818608E-02  0.1126233E+00
         21   -1    0    0  501  502  0.00000000000E+00  0.00000000000E+00  0.37630097026E+03  0.37630097026E+03  0.00000000000E+00 0. -1.
         21   -1    0    0  502  503 -0.00000000000E+00 -0.00000000000E+00 -0.48849854305E+03  0.48849854305E+03  0.00000000000E+00 0.  1.
          6    1    1    2  501    0  0.76890351828E+02  0.13293080785E+03  0.30844558645E+03  0.38510440880E+03  0.17200000000E+03 0. -1.
         -6    1    1    2    0  503 -0.76890351828E+02 -0.13293080785E+03 -0.42064315924E+03  0.47969510451E+03  0.17200000000E+03 0.  1.
</event>
<event>
 4    1  0.4539494E+000  0.1800328E+03  0.7818608E-02  0.1167771E+00
         21   -1    0    0  503  502  0.00000000000E+00  0.00000000000E+00  0.40774164421E+03  0.40774164421E+03  0.00000000000E+00 0.  1.
         21   -1    0    0  501  503 -0.00000000000E+00 -0.00000000000E+00 -0.22935699928E+03  0.22935699928E+03  0.00000000000E+00 0.  1.
          6    1    1    2  501    0 -0.52111042218E+02  0.10594499866E+02 -0.16830469084E+03  0.24645136053E+03  0.17200000000E+03 0.  1.
         -6    1    1    2    0  502  0.52111042218E+02 -0.10594499866E+02  0.34668933577E+03  0.39064728296E+03  0.17200000000E+03 0.  1.
</event>
<event>
 4    1  0.4539494E+000  0.2250395E+03  0.7818608E-02  0.1130181E+00
         21   -1    0    0  501  502  0.00000000000E+00  0.00000000000E+00  0.70217785225E+02  0.70217785225E+02  0.00000000000E+00 0. -1.
         21   -1    0    0  502  503 -0.00000000000E+00 -0.00000000000E+00 -0.15537575085E+04  0.15537575085E+04  0.00000000000E+00 0.  1.
          6    1    1    2  501    0  0.60777951015E+01 -0.14498915555E+03 -0.14739764047E+03  0.26901460785E+03  0.17200000000E+03 0. -1.
         -6    1    1    2    0  503 -0.60777951015E+01  0.14498915555E+03 -0.13361420828E+04  0.13549606859E+04  0.17200000000E+03 0.  1.
</event>
<event>
 4    1  0.4539494E+000  0.2303794E+03  0.7818608E-02  0.1126373E+00
         21   -1    0    0  503  502  0.00000000000E+00  0.00000000000E+00  0.99074636973E+02  0.99074636973E+02  0.00000000000E+00 0.  1.
         21   -1    0    0  501  503 -0.00000000000E+00 -0.00000000000E+00 -0.61453349084E+03  0.61453349084E+03  0.00000000000E+00 0.  1.
          6    1    1    2  501    0  0.75657278088E+02 -0.13329162285E+03 -0.38552074327E+03  0.44911126009E+03  0.17200000000E+03 0.  1.
         -6    1    1    2    0  502 -0.75657278088E+02  0.13329162285E+03 -0.12993811059E+03  0.26449686772E+03  0.17200000000E+03 0.  1.
</event>
<event>
 4    1  0.4539494E+000  0.2034288E+03  0.7818608E-02  0.1146878E+00
         21   -1    0    0  503  502  0.00000000000E+00  0.00000000000E+00  0.99648043134E+02  0.99648043134E+02  0.00000000000E+00 0.  1.
         21   -1    0    0  501  503 -0.00000000000E+00 -0.00000000000E+00 -0.49737280772E+03  0.49737280772E+03  0.00000000000E+00 0. -1.
          6    1    1    2  501    0 -0.10809180272E+03  0.10745135420E+02 -0.32012651803E+03  0.37929445461E+03  0.17200000000E+03 0. -1.
         -6    1    1    2    0  502  0.10809180272E+03 -0.10745135420E+02 -0.77598246548E+02  0.21772639624E+03  0.17200000000E+03 0.  1.
</event>
<event>
 4    1  0.4539494E+000  0.1902076E+03  0.7818608E-02  0.1158274E+00
         21   -1    0    0  503  502  0.00000000000E+00  0.00000000000E+00  0.23925938659E+03  0.23925938659E+03  0.00000000000E+00 0.  1.
         21   -1    0    0  501  503 -0.00000000000E+00 -0.00000000000E+00 -0.41721491401E+03  0.41721491401E+03  0.00000000000E+00 0.  1.
          6    1    1    2  501    0  0.57396988521E+02  0.57450015614E+02 -0.35106804809E+03  0.39928397536E+03  0.17200000000E+03 0.  1.
         -6    1    1    2    0  502 -0.57396988521E+02 -0.57450015614E+02  0.17311252068E+03  0.25719032525E+03  0.17200000000E+03 0.  1.
</event>
<event>
 4    1  0.4539494E+000  0.2281513E+03  0.7818608E-02  0.1127948E+00
         21   -1    0    0  503  502  0.00000000000E+00  0.00000000000E+00  0.20578729302E+03  0.20578729302E+03  0.00000000000E+00 0. -1.
         21   -1    0    0  501  503 -0.00000000000E+00 -0.00000000000E+00 -0.50702597987E+03  0.50702597987E+03  0.00000000000E+00 0.  1.
          6    1    1    2  501    0  0.85635628451E+02 -0.12302669337E+03 -0.40291866549E+03  0.46302967415E+03  0.17200000000E+03 0.  1.
         -6    1    1    2    0  502 -0.85635628451E+02  0.12302669337E+03  0.10167997864E+03  0.24978359874E+03  0.17200000000E+03 0. -1.
</event>
<event>
 4    1  0.4539494E+000  0.1990767E+03  0.7818608E-02  0.1150520E+00
         21   -1    0    0  501  502  0.00000000000E+00  0.00000000000E+00  0.12257420052E+03  0.12257420052E+03  0.00000000000E+00 0. -1.
         21   -1    0    0  502  503 -0.00000000000E+00 -0.00000000000E+00 -0.32698519868E+03  0.32698519868E+03  0.00000000000E+00 0.  1.
          6    1    1    2  501    0 -0.65619720066E+02 -0.75773210120E+02 -0.12598140617E+03  0.23559041096E+03  0.17200000000E+03 0.  1.
         -6    1    1    2    0  503  0.65619720066E+02  0.75773210120E+02 -0.78429591983E+02  0.21396898825E+03  0.17200000000E+03 0.  1.
</event>
<event>
 4    1  0.4539494E+000  0.1937954E+03  0.7818608E-02  0.1155082E+00
         21   -1    0    0  501  502  0.00000000000E+00  0.00000000000E+00  0.13260007379E+04  0.13260007379E+04  0.00000000000E+00 0.  1.
         21   -1    0    0  502  503 -0.00000000000E+00 -0.00000000000E+00 -0.30548354942E+02  0.30548354942E+02  0.00000000000E+00 0. -1.
          6    1    1    2  501    0 -0.44358026900E+02 -0.77492187249E+02  0.46466969559E+03  0.50346260997E+03  0.17200000000E+03 0. -1.
         -6    1    1    2    0  503  0.44358026900E+02  0.77492187249E+02  0.83078268741E+03  0.85308648292E+03  0.17200000000E+03 0.  1.
</event>
<event>
 4    1  0.4539494E+000  0.2173912E+03  0.7818608E-02  0.1135843E+00
         21   -1    0    0  503  502  0.00000000000E+00  0.00000000000E+00  0.65804309966E+02  0.65804309966E+02  0.00000000000E+00 0.  1.
         21   -1    0    0  501  503 -0.00000000000E+00 -0.00000000000E+00 -0.10763429140E+04  0.10763429140E+04  0.00000000000E+00 0. -1.
          6    1    1    2  501    0  0.12864591660E+03 -0.33543717937E+02 -0.83469739551E+03  0.86254199604E+03  0.17200000000E+03 0. -1.
         -6    1    1    2    0  502 -0.12864591660E+03  0.33543717937E+02 -0.17584120855E+03  0.27960522795E+03  0.17200000000E+03 0.  1.
</event>
<event>
 4    1  0.4539494E+000  0.2048498E+03  0.7818608E-02  0.1145711E+00
         21   -1    0    0  501  502  0.00000000000E+00  0.00000000000E+00  0.36288605854E+03  0.36288605854E+03  0.00000000000E+00 0. -1.
         21   -1    0    0  502  503 -0.00000000000E+00 -0.00000000000E+00 -0.12018744713E+03  0.12018744713E+03  0.00000000000E+00 0. -1.
          6    1    1    2  501    0 -0.79755865128E+02 -0.77578525023E+02  0.16834217779E+03  0.26514621323E+03  0.17200000000E+03 0. -1.
         -6    1    1    2    0  503  0.79755865128E+02  0.77578525023E+02  0.74356433615E+02  0.21792729243E+03  0.17200000000E+03 0. -1.
</event>
<event>
 4    1  0.4539494E+000  0.1973806E+03  0.7818608E-02  0.1151968E+00
         21   -1    0    0  503  502  0.00000000000E+00  0.00000000000E+00  0.97168365119E+02  0.97168365119E+02  0.00000000000E+00 0.  1.
         21   -1    0    0  501  503 -0.00000000000E+00 -0.00000000000E+00 -0.40802971959E+03  0.40802971959E+03  0.00000000000E+00 0.  1.
          6    1    1    2  501    0  0.95538860635E+02 -0.15729204517E+02 -0.12214364992E+03  0.23211667967E+03  0.17200000000E+03 0.  1.
         -6    1    1    2    0  502 -0.95538860635E+02  0.15729204517E+02 -0.18871770455E+03  0.27308140504E+03  0.17200000000E+03 0.  1.
</event>
<event>
 4    1  0.4539494E+000  0.1830825E+03  0.7818608E-02  0.1164853E+00
         21   -1    0    0  503  502  0.00000000000E+00  0.00000000000E+00  0.20642682510E+02  0.20642682510E+02  0.00000000000E+00 0.  1.
         21   -1    0    0  501  503 -0.00000000000E+00 -0.00000000000E+00 -0.17331711160E+04  0.17331711160E+04  0.00000000000E+00 0.  1.
          6    1    1    2  501    0  0.27604491316E+02 -0.56331167394E+02 -0.10765673047E+04  0.10920239786E+04  0.17200000000E+03 0. -1.
         -6    1    1    2    0  502 -0.27604491316E+02  0.56331167394E+02 -0.63596112882E+03  0.66178981990E+03  0.17200000000E+03 0. -1.
</event>
<event>
 4    1  0.4539494E+000  0.1795937E+03  0.7818608E-02  0.1168197E+00
         21   -1    0    0  501  502  0.00000000000E+00  0.00000000000E+00  0.40365726673E+02  0.40365726673E+02  0.00000000000E+00 0.  1.
         21   -1    0    0  502  503 -0.00000000000E+00 -0.00000000000E+00 -0.86065210275E+03  0.86065210275E+03  0.00000000000E+00 0.  1.
          6    1    1    2  501    0 -0.51638025746E+02 -0.18508604609E+01 -0.28960754129E+03  0.34077329614E+03  0.17200000000E+03 0.  1.
         -6    1    1    2    0  503  0.51638025746E+02  0.18508604609E+01 -0.53067883478E+03  0.56024453328E+03  0.17200000000E+03 0.  1.
</event>
<event>
 4    1  0.4539494E+000  0.1945519E+03  0.7818608E-02  0.1154419E+00
         21   -1    0    0  503  502  0.00000000000E+00  0.00000000000E+00  0.19569278458E+04  0.19569278458E+04  0.00000000000E+00 0. -1.
         21   -1    0    0  501  503 -0.00000000000E+00 -0.00000000000E+00 -0.42374887322E+02  0.42374887322E+02  0.00000000000E+00 0. -1.
          6    1    1    2  501    0 -0.80685313846E+02  0.41908623920E+02  0.22027115575E+03  0.29388745241E+03  0.17200000000E+03 0. -1.
         -6    1    1    2    0  502  0.80685313846E+02 -0.41908623920E+02  0.16942818027E+04  0.17054152807E+04  0.17200000000E+03 0. -1.
</event>
<event>
 4    1  0.4539494E+000  0.2577376E+03  0.7818608E-02  0.1108510E+00
         21   -1    0    0  503  502  0.00000000000E+00  0.00000000000E+00  0.47624110705E+03  0.47624110705E+03  0.00000000000E+00 0. -1.
         21   -1    0    0  501  503 -0.00000000000E+00 -0.00000000000E+00 -0.15313199854E+03  0.15313199854E+03  0.00000000000E+00 0. -1.
          6    1    1    2  501    0 -0.16366751501E+03 -0.10028756639E+03  0.67612854157E+02  0.26645853240E+03  0.17200000000E+03 0. -1.
         -6    1    1    2    0  502  0.16366751501E+03  0.10028756639E+03  0.25549625436E+03  0.36291457319E+03  0.17200000000E+03 0. -1.
</event>
<event>
 4    1  0.4539494E+000  0.1854381E+03  0.7818608E-02  0.1162641E+00
         21   -1    0    0  503  502  0.00000000000E+00  0.00000000000E+00  0.51787535599E+03  0.51787535599E+03  0.00000000000E+00 0. -1.
         21   -1    0    0  501  503 -0.00000000000E+00 -0.00000000000E+00 -0.93436873710E+02  0.93436873710E+02  0.00000000000E+00 0. -1.
          6    1    1    2  501    0 -0.49467528652E+02  0.48541186405E+02  0.47802286685E+02  0.19150023964E+03  0.17200000000E+03 0. -1.
         -6    1    1    2    0  502  0.49467528652E+02 -0.48541186405E+02  0.37663619559E+03  0.41981199006E+03  0.17200000000E+03 0. -1.
</event>
<event>
 4    1  0.4539494E+000  0.2022369E+03  0.7818608E-02  0.1147865E+00
         21   -1    0    0  503  502  0.00000000000E+00  0.00000000000E+00  0.44476309362E+02  0.44476309362E+02  0.00000000000E+00 0.  1.
         21   -1    0    0  501  503 -0.00000000000E+00 -0.00000000000E+00 -0.13622426907E+04  0.13622426907E+04  0.00000000000E+00 0.  1.
          6    1    1    2  501    0  0.59973492256E+02  0.87857523088E+02 -0.10598273874E+04  0.10789503488E+04  0.17200000000E+03 0.  1.
         -6    1    1    2    0  502 -0.59973492256E+02 -0.87857523088E+02 -0.25793899389E+03  0.32776865119E+03  0.17200000000E+03 0.  1.
</event>
<event>
 4    1  0.4539494E+000  0.1895318E+03  0.7818608E-02  0.1158884E+00
         21   -1    0    0  503  502  0.00000000000E+00  0.00000000000E+00  0.33754256028E+02  0.33754256028E+02  0.00000000000E+00 0.  1.
         21   -1    0    0  501  503 -0.00000000000E+00 -0.00000000000E+00 -0.10649936336E+04  0.10649936336E+04  0.00000000000E+00 0.  1.
          6    1    1    2  501    0 -0.63255757436E+02  0.48342580893E+02 -0.53032934938E+03  0.56317982456E+03  0.17200000000E+03 0.  1.
         -6    1    1    2    0  502  0.63255757436E+02 -0.48342580893E+02 -0.50091002815E+03  0.53556806503E+03  0.17200000000E+03 0.  1.
</event>
<event>
 4    1  0.4539494E+000  0.2491100E+03  0.7818608E-02  0.1113869E+00
         21   -1    0    0  503  502  0.00000000000E+00  0.00000000000E+00  0.17202215345E+04  0.17202215345E+04  0.00000000000E+00 0. -1.
         21   -1    0    0  501  503 -0.00000000000E+00 -0.00000000000E+00 -0.51779153027E+02  0.51779153027E+02  0.00000000000E+00 0.  1.
          6    1    1    2  501    0  0.17774868143E+03 -0.29617329998E+02  0.34627332866E+03  0.42656886681E+03  0.17200000000E+03 0.  1.
         -6    1    1    2    0  502 -0.17774868143E+03  0.29617329998E+02  0.13221690528E+04  0.13454318207E+04  0.17200000000E+03 0. -1.
</event>
<event>
 4    1  0.4539494E+000  0.1738780E+03  0.7818608E-02  0.1173863E+00
         21   -1    0    0  503  502  0.00000000000E+00  0.00000000000E+00  0.32874587597E+03  0.32874587597E+03  0.00000000000E+00 0. -1.
         21   -1    0    0  501  503 -0.00000000000E+00 -0.00000000000E+00 -0.10109648825E+03  0.10109648825E+03  0.00000000000E+00 0. -1.
          6    1    1    2  501    0 -0.25072095113E+02  0.45751204306E+01  0.49236808713E+02  0.18071470613E+03  0.17200000000E+03 0. -1.
         -6    1    1    2    0  502  0.25072095113E+02 -0.45751204306E+01  0.17841257901E+03  0.24912765810E+03  0.17200000000E+03 0. -1.
</event>
<event>
 4    1  0.4539494E+000  0.1858676E+03  0.7818608E-02  0.1162242E+00
         21   -1    0    0  501  502  0.00000000000E+00  0.00000000000E+00  0.12516218425E+03  0.12516218425E+03  0.00000000000E+00 0.  1.
         21   -1    0    0  502  503 -0.00000000000E+00 -0.00000000000E+00 -0.30322449579E+03  0.30322449579E+03  0.00000000000E+00 0.  1.
          6    1    1    2  501    0  0.28297095035E+02 -0.64513925529E+02 -0.24869485772E+02  0.18752403445E+03  0.17200000000E+03 0.  1.
         -6    1    1    2    0  503 -0.28297095035E+02  0.64513925529E+02 -0.15319282577E+03  0.24086264559E+03  0.17200000000E+03 0.  1.
</event>
<event>
 4    1  0.4539494E+000  0.2511709E+03  0.7818608E-02  0.1112567E+00
         21   -1    0    0  501  502  0.00000000000E+00  0.00000000000E+00  0.20560419835E+03  0.20560419835E+03  0.00000000000E+00 0.  1.
         21   -1    0    0  502  503 -0.00000000000E+00 -0.00000000000E+00 -0.96459959330E+03  0.96459959330E+03  0.00000000000E+00 0. -1.
          6    1    1    2  501    0 -0.17451296296E+03  0.55209120994E+02  0.10366433709E+03  0.27172249827E+03  0.17200000000E+03 0.  1.
         -6    1    1    2    0  503  0.17451296296E+03 -0.55209120994E+02 -0.86265973203E+03  0.89848129338E+03  0.17200000000E+03 0. -1.
</event>
<event>
 4    1  0.4539494E+000  0.1757935E+03  0.7818608E-02  0.1171937E+00
         21   -1    0    0  501  502  0.00000000000E+00  0.00000000000E+00  0.16859472750E+03  0.16859472750E+03  0.00000000000E+00 0. -1.
         21   -1    0    0  502  503 -0.00000000000E+00 -0.00000000000E+00 -0.19227598958E+03  0.19227598958E+03  0.00000000000E+00 0. -1.
          6    1    1    2  501    0 -0.29279923951E+02 -0.21495490267E+02 -0.50826438298E+02  0.18299370721E+03  0.17200000000E+03 0.  1.
         -6    1    1    2    0  503  0.29279923951E+02  0.21495490267E+02  0.27145176210E+02  0.17787700987E+03  0.17200000000E+03 0.  1.
</event>
<event>
 4    1  0.4539494E+000  0.2359751E+03  0.7818608E-02  0.1122504E+00
         21   -1    0    0  503  502  0.00000000000E+00  0.00000000000E+00  0.24746544646E+03  0.24746544646E+03  0.00000000000E+00 0. -1.
         21   -1    0    0  501  503 -0.00000000000E+00 -0.00000000000E+00 -0.23857470485E+03  0.23857470485E+03  0.00000000000E+00 0.  1.
          6    1    1    2  501    0  0.58553178394E+02  0.15057145230E+03 -0.53484602393E+02  0.24196040924E+03  0.17200000000E+03 0.  1.
         -6    1    1    2    0  502 -0.58553178394E+02 -0.15057145230E+03  0.62375344000E+02  0.24407974206E+03  0.17200000000E+03 0. -1.
</event>
<event>
 4    1  0.4539494E+000  0.1812749E+03  0.7818608E-02  0.1166575E+00
         21   -1    0    0  501  502  0.00000000000E+00  0.00000000000E+00  0.35017192147E+03  0.35017192147E+03  0.00000000000E+00 0. -1.
         21   -1    0    0  502  503 -0.00000000000E+00 -0.00000000000E+00 -0.20054331525E+03  0.20054331525E+03  0.00000000000E+00 0. -1.
          6    1    1    2  501    0 -0.45618801999E+02  0.34576224101E+02  0.27566775535E+03  0.32992923743E+03  0.17200000000E+03 0. -1.
         -6    1    1    2    0  503  0.45618801999E+02 -0.34576224101E+02 -0.12603914913E+03  0.22078599929E+03  0.17200000000E+03 0. -1.
</event>
<event>
 4    1  0.4539494E+000  0.2522758E+03  0.7818608E-02  0.1111875E+00
         21   -1    0    0  503  502  0.00000000000E+00  0.00000000000E+00  0.10135198690E+03  0.10135198690E+03  0.00000000000E+00 0.  1.
         21   -1    0    0  501  503 -0.00000000000E+00 -0.00000000000E+00 -0.69415388433E+03  0.69415388433E+03  0.00000000000E+00 0.  1.
          6    1    1    2  501    0  0.17475753985E+03 -0.59319996681E+02 -0.41924582164E+03  0.48929553309E+03  0.17200000000E+03 0.  1.
         -6    1    1    2    0  502 -0.17475753985E+03  0.59319996681E+02 -0.17355607579E+03  0.30621033814E+03  0.17200000000E+03 0.  1.
</event>
<event>
 4    1  0.4539494E+000  0.1987424E+03  0.7818608E-02  0.1150804E+00
         21   -1    0    0  501  502  0.00000000000E+00  0.00000000000E+00  0.42219140085E+02  0.42219140085E+02  0.00000000000E+00 0.  1.
         21   -1    0    0  502  503 -0.00000000000E+00 -0.00000000000E+00 -0.94158040489E+03  0.94158040489E+03  0.00000000000E+00 0.  1.
          6    1    1    2  501    0  0.18629318882E+02 -0.97813602449E+02 -0.48901291090E+03  0.52785621089E+03  0.17200000000E+03 0.  1.
         -6    1    1    2    0  503 -0.18629318882E+02  0.97813602449E+02 -0.41034835391E+03  0.45594333409E+03  0.17200000000E+03 0.  1.
</event>
<event>
 4    1  0.4539494E+000  0.1773082E+03  0.7818608E-02  0.1170434E+00
         21   -1    0    0  501  502  0.00000000000E+00  0.00000000000E+00  0.24294606724E+03  0.24294606724E+03  0.00000000000E+00 0.  1.
         21   -1    0    0  502  503 -0.00000000000E+00 -0.00000000000E+00 -0.13053930486E+03  0.13053930486E+03  0.00000000000E+00 0.  1.
          6    1    1    2  501    0 -0.68751895152E+01 -0.42508037544E+02  0.73618339128E+02  0.19198401325E+03  0.17200000000E+03 0.  1.
         -6    1    1    2    0  503  0.68751895152E+01  0.42508037544E+02  0.38788423254E+02  0.18150135885E+03  0.17200000000E+03 0.  1.
</event>
<event>
 4    1  0.4539494E+000  0.2041050E+03  0.7818608E-02  0.1146321E+00
         21   -1    0    0  501  502  0.00000000000E+00  0.00000000000E+00  0.36125533998E+03  0.36125533998E+03  0.00000000000E+00 0.  1.
         21   -1    0    0  502  503 -0.00000000000E+00 -0.00000000000E+00 -0.11861102714E+03  0.11861102714E+03  0.00000000000E+00 0.  1.
          6    1    1    2  501    0 -0.79637227567E+02 -0.75714957434E+02  0.81337024678E+02  0.21971471134E+03  0.17200000000E+03 0.  1.
         -6    1    1    2    0  503  0.79637227567E+02  0.75714957434E+02  0.16130728816E+03  0.26015165579E+03  0.17200000000E+03 0.  1.
</event>
<event>
 4    1  0.4539494E+000  0.1956129E+03  0.7818608E-02  0.1153494E+00
         21   -1    0    0  503  502  0.00000000000E+00  0.00000000000E+00  0.90571912656E+03  0.90571912656E+03  0.00000000000E+00 0. -1.
         21   -1    0    0  501  503 -0.00000000000E+00 -0.00000000000E+00 -0.52185059706E+02  0.52185059706E+02  0.00000000000E+00 0. -1.
          6    1    1    2  501    0  0.49117705772E+02  0.79169913945E+02  0.21776162723E+03  0.29271923509E+03  0.17200000000E+03 0. -1.
         -6    1    1    2    0  502 -0.49117705772E+02 -0.79169913945E+02  0.63577243962E+03  0.66518495118E+03  0.17200000000E+03 0. -1.
</event>
<event>
 4    1  0.4539494E+000  0.2058054E+03  0.7818608E-02  0.1144931E+00
         21   -1    0    0  501  502  0.00000000000E+00  0.00000000000E+00  0.30916754512E+03  0.30916754512E+03  0.00000000000E+00 0.  1.
         21   -1    0    0  502  503 -0.00000000000E+00 -0.00000000000E+00 -0.17599082614E+03  0.17599082614E+03  0.00000000000E+00 0. -1.
          6    1    1    2  501    0  0.11294374328E+03 -0.39464135873E+01  0.18076870818E+03  0.27392186693E+03  0.17200000000E+03 0.  1.
         -6    1    1    2    0  503 -0.11294374328E+03  0.39464135873E+01 -0.47591989191E+02  0.21123650433E+03  0.17200000000E+03 0. -1.
</event>
<event>
 4    1  0.4539494E+000  0.2394778E+03  0.7818608E-02  0.1120141E+00
         21   -1    0    0  503  502  0.00000000000E+00  0.00000000000E+00  0.45425063490E+03  0.45425063490E+03  0.00000000000E+00 0.  1.
         21   -1    0    0  501  503 -0.00000000000E+00 -0.00000000000E+00 -0.12877573760E+03  0.12877573760E+03  0.00000000000E+00 0. -1.
          6    1    1    2  501    0 -0.16635873962E+03  0.95072979901E+01  0.12192006826E+03  0.26872685390E+03  0.17200000000E+03 0.  1.
         -6    1    1    2    0  502  0.16635873962E+03 -0.95072979901E+01  0.20355482905E+03  0.31429951860E+03  0.17200000000E+03 0.  1.
</event>
<event>
 4    1  0.4539494E+000  0.2791680E+03  0.7818608E-02  0.1096144E+00
         21   -1    0    0  503  502  0.00000000000E+00  0.00000000000E+00  0.77735678910E+03  0.77735678910E+03  0.00000000000E+00 0. -1.
         21   -1    0    0  501  503 -0.00000000000E+00 -0.00000000000E+00 -0.23737975736E+03  0.23737975736E+03  0.00000000000E+00 0.  1.
          6    1    1    2  501    0 -0.12867622179E+02 -0.21951128427E+03 -0.11562976994E+03  0.30216721086E+03  0.17200000000E+03 0.  1.
         -6    1    1    2    0  502  0.12867622179E+02  0.21951128427E+03  0.65560680168E+03  0.71256933559E+03  0.17200000000E+03 0. -1.
</event>
<event>
 4    1  0.4539494E+000  0.2369466E+03  0.7818608E-02  0.1121844E+00
         21   -1    0    0  503  502  0.00000000000E+00  0.00000000000E+00  0.20735859729E+03  0.20735859729E+03  0.00000000000E+00 0.  1.
         21   -1    0    0  501  503 -0.00000000000E+00 -0.00000000000E+00 -0.62063946380E+03  0.62063946380E+03  0.00000000000E+00 0. -1.
          6    1    1    2  501    0 -0.15897077974E+03  0.35888290881E+02 -0.51748340933E+03  0.56915090896E+03  0.17200000000E+03 0. -1.
         -6    1    1    2    0  502  0.15897077974E+03 -0.35888290881E+02  0.10420254282E+03  0.25884715213E+03  0.17200000000E+03 0.  1.
</event>
<event>
 4    1  0.4539494E+000  0.1768046E+03  0.7818608E-02  0.1170932E+00
         21   -1    0    0  501  502  0.00000000000E+00  0.00000000000E+00  0.95397859774E+03  0.95397859774E+03  0.00000000000E+00 0.  1.
         21   -1    0    0  502  503 -0.00000000000E+00 -0.00000000000E+00 -0.17203763659E+03  0.17203763659E+03  0.00000000000E+00 0.  1.
          6    1    1    2  501    0 -0.36980766735E+02  0.17558002330E+02  0.89753098269E+03  0.91477960485E+03  0.17200000000E+03 0.  1.
         -6    1    1    2    0  503  0.36980766735E+02 -0.17558002330E+02 -0.11559002155E+03  0.21123662948E+03  0.17200000000E+03 0.  1.
</event>
<event>
 4    1  0.4539494E+000  0.1876899E+03  0.7818608E-02  0.1160562E+00
         21   -1    0    0  501  502  0.00000000000E+00  0.00000000000E+00  0.25729528544E+03  0.25729528544E+03  0.00000000000E+00 0. -1.
         21   -1    0    0  502  503 -0.00000000000E+00 -0.00000000000E+00 -0.22638381733E+03  0.22638381733E+03  0.00000000000E+00 0.  1.
          6    1    1    2  501    0 -0.85930927741E+01  0.74630053365E+02  0.16748997525E+03  0.25155591410E+03  0.17200000000E+03 0. -1.
         -6    1    1    2    0  503  0.85930927741E+01 -0.74630053365E+02 -0.13657850713E+03  0.23212318867E+03  0.17200000000E+03 0.  1.
</event>
<event>
 4    1  0.4539494E+000  0.2307328E+03  0.7818608E-02  0.1126125E+00
         21   -1    0    0  501  502  0.00000000000E+00  0.00000000000E+00  0.25019221771E+03  0.25019221771E+03  0.00000000000E+00 0.  1.
         21   -1    0    0  502  503 -0.00000000000E+00 -0.00000000000E+00 -0.21423405056E+03  0.21423405056E+03  0.00000000000E+00 0. -1.
          6    1    1    2  501    0 -0.15376597399E+03 -0.31048347246E+01  0.37064708224E+02  0.23369083712E+03  0.17200000000E+03 0.  1.
         -6    1    1    2    0  503  0.15376597399E+03  0.31048347246E+01 -0.11065410691E+01  0.23073543115E+03  0.17200000000E+03 0. -1.
</event>
<event>
 4    1  0.4539494E+000  0.2296883E+03  0.7818608E-02  0.1126859E+00
         21   -1    0    0  501  502  0.00000000000E+00  0.00000000000E+00  0.75336749388E+02  0.75336749388E+02  0.00000000000E+00 0.  1.
         21   -1    0    0  502  503 -0.00000000000E+00 -0.00000000000E+00 -0.71044568930E+03  0.71044568930E+03  0.00000000000E+00 0.  1.
          6    1    1    2  501    0 -0.75646773255E+02 -0.13209955821E+03 -0.27055411082E+03  0.35490316210E+03  0.17200000000E+03 0.  1.
         -6    1    1    2    0  503  0.75646773255E+02  0.13209955821E+03 -0.36455482909E+03  0.43087927659E+03  0.17200000000E+03 0.  1.
</event>
<event>
 4    1  0.4539494E+000  0.2041086E+03  0.7818608E-02  0.1146318E+00
         21   -1    0    0  501  502  0.00000000000E+00  0.00000000000E+00  0.27680766274E+03  0.27680766274E+03  0.00000000000E+00 0.  1.
         21   -1    0    0  502  503 -0.00000000000E+00 -0.00000000000E+00 -0.16361693572E+03  0.16361693572E+03  0.00000000000E+00 0.  1.
          6    1    1    2  501    0  0.46107604677E+02  0.99751661557E+02  0.11893993776E+03  0.23623508204E+03  0.17200000000E+03 0.  1.
         -6    1    1    2    0  503 -0.46107604677E+02 -0.99751661557E+02 -0.57492107476E+01  0.20418951642E+03  0.17200000000E+03 0.  1.
</event>
<event>
 4    1  0.4539494E+000  0.2099482E+03  0.7818608E-02  0.1141607E+00
         21   -1    0    0  503  502  0.00000000000E+00  0.00000000000E+00  0.64055999610E+02  0.64055999610E+02  0.00000000000E+00 0. -1.
         21   -1    0    0  501  503 -0.00000000000E+00 -0.00000000000E+00 -0.10882041145E+04  0.10882041145E+04  0.00000000000E+00 0. -1.
          6    1    1    2  501    0 -0.11022466294E+03  0.48422867927E+02 -0.86140793160E+03  0.88662386336E+03  0.17200000000E+03 0. -1.
         -6    1    1    2    0  502  0.11022466294E+03 -0.48422867927E+02 -0.16274018331E+03  0.26563625077E+03  0.17200000000E+03 0. -1.
</event>
<event>
 4    1  0.4539494E+000  0.2059815E+03  0.7818608E-02  0.1144788E+00
         21   -1    0    0  501  502  0.00000000000E+00  0.00000000000E+00  0.39352877573E+02  0.39352877573E+02  0.00000000000E+00 0. -1.
         21   -1    0    0  502  503 -0.00000000000E+00 -0.00000000000E+00 -0.10821540499E+04  0.10821540499E+04  0.00000000000E+00 0. -1.
          6    1    1    2  501    0 -0.19910269639E+02  0.11157037918E+03 -0.55550336619E+03  0.59246295935E+03  0.17200000000E+03 0. -1.
         -6    1    1    2    0  503  0.19910269639E+02 -0.11157037918E+03 -0.48729780615E+03  0.52904396814E+03  0.17200000000E+03 0. -1.
</event>
<event>
 4    1  0.4539494E+000  0.2369270E+03  0.7818608E-02  0.1121857E+00
         21   -1    0    0  503  502  0.00000000000E+00  0.00000000000E+00  0.20485193026E+04  0.20485193026E+04  0.00000000000E+00 0. -1.
         21   -1    0    0  501  503 -0.00000000000E+00 -0.00000000000E+00 -0.28994767830E+02  0.28994767830E+02  0.00000000000E+00 0.  1.
          6    1    1    2  501    0 -0.14373376911E+03 -0.76752964053E+02  0.76633383882E+03  0.80212341095E+03  0.17200000000E+03 0.  1.
         -6    1    1    2    0  502  0.14373376911E+03  0.76752964053E+02  0.12531906959E+04  0.12753906595E+04  0.17200000000E+03 0. -1.
</event>
<event>
 4    1  0.4539494E+000  0.2185645E+03  0.7818608E-02  0.1134958E+00
         21   -1    0    0  503  502  0.00000000000E+00  0.00000000000E+00  0.48654826857E+03  0.48654826857E+03  0.00000000000E+00 0. -1.
         21   -1    0    0  501  503 -0.00000000000E+00 -0.00000000000E+00 -0.13587205130E+03  0.13587205130E+03  0.00000000000E+00 0. -1.
          6    1    1    2  501    0  0.69034377237E+02  0.11584772871E+03  0.11430098604E+02  0.21886317334E+03  0.17200000000E+03 0. -1.
         -6    1    1    2    0  502 -0.69034377237E+02 -0.11584772871E+03  0.33924611866E+03  0.40355714653E+03  0.17200000000E+03 0. -1.
</event>
<event>
 4    1  0.4539494E+000  0.3727837E+03  0.7818608E-02  0.1053634E+00
         21   -1    0    0  501  502  0.00000000000E+00  0.00000000000E+00  0.12075939426E+03  0.12075939426E+03  0.00000000000E+00 0. -1.
         21   -1    0    0  502  503 -0.00000000000E+00 -0.00000000000E+00 -0.13001706622E+04  0.13001706622E+04  0.00000000000E+00 0. -1.
          6    1    1    2  501    0  0.32589786527E+03  0.56340682695E+02 -0.34888045129E+03  0.51057346230E+03  0.17200000000E+03 0. -1.
         -6    1    1    2    0  503 -0.32589786527E+03 -0.56340682695E+02 -0.83053081660E+03  0.91035659411E+03  0.17200000000E+03 0. -1.
</event>
<event>
 4    1  0.4539494E+000  0.2406718E+03  0.7818608E-02  0.1119346E+00
         21   -1    0    0  503  502  0.00000000000E+00  0.00000000000E+00  0.12331529276E+03  0.12331529276E+03  0.00000000000E+00 0. -1.
         21   -1    0    0  501  503 -0.00000000000E+00 -0.00000000000E+00 -0.57187643703E+03  0.57187643703E+03  0.00000000000E+00 0. -1.
          6    1    1    2  501    0  0.10531590445E+03 -0.13132957281E+03 -0.37119671521E+03  0.44239111407E+03  0.17200000000E+03 0. -1.
         -6    1    1    2    0  502 -0.10531590445E+03  0.13132957281E+03 -0.77364429054E+02  0.25280061572E+03  0.17200000000E+03 0. -1.
</event>
<event>
 4    1  0.4539494E+000  0.1769424E+03  0.7818608E-02  0.1170795E+00
         21   -1    0    0  501  502  0.00000000000E+00  0.00000000000E+00  0.51087570065E+02  0.51087570065E+02  0.00000000000E+00 0.  1.
         21   -1    0    0  502  503 -0.00000000000E+00 -0.00000000000E+00 -0.61766409148E+03  0.61766409148E+03  0.00000000000E+00 0.  1.
          6    1    1    2  501    0 -0.37776275297E+02  0.17249622486E+02 -0.25374304639E+03  0.30934467838E+03  0.17200000000E+03 0.  1.
         -6    1    1    2    0  503  0.37776275297E+02 -0.17249622486E+02 -0.31283347503E+03  0.35940698317E+03  0.17200000000E+03 0.  1.
</event>
<event>
 4    1  0.4539494E+000  0.2219269E+03  0.7818608E-02  0.1132455E+00
         21   -1    0    0  503  502  0.00000000000E+00  0.00000000000E+00  0.32309143501E+03  0.32309143501E+03  0.00000000000E+00 0. -1.
         21   -1    0    0  501  503 -0.00000000000E+00 -0.00000000000E+00 -0.19907527632E+03  0.19907527632E+03  0.00000000000E+00 0.  1.
          6    1    1    2  501    0 -0.13900030517E+03 -0.18613635209E+02 -0.64359333215E+02  0.23107071651E+03  0.17200000000E+03 0.  1.
         -6    1    1    2    0  502  0.13900030517E+03  0.18613635209E+02  0.18837549191E+03  0.29109599483E+03  0.17200000000E+03 0.  1.
</event>
<event>
 4    1  0.4539494E+000  0.3345344E+03  0.7818608E-02  0.1069148E+00
         21   -1    0    0  503  502  0.00000000000E+00  0.00000000000E+00  0.92017513628E+02  0.92017513628E+02  0.00000000000E+00 0. -1.
         21   -1    0    0  501  503 -0.00000000000E+00 -0.00000000000E+00 -0.13739803492E+04  0.13739803492E+04  0.00000000000E+00 0. -1.
          6    1    1    2  501    0 -0.13483299915E+03 -0.25327715404E+03 -0.88936122662E+03  0.95019821397E+03  0.17200000000E+03 0. -1.
         -6    1    1    2    0  502  0.13483299915E+03  0.25327715404E+03 -0.39260160899E+03  0.51579964890E+03  0.17200000000E+03 0. -1.
</event>
<event>
 4    1  0.4539494E+000  0.1907279E+03  0.7818608E-02  0.1157806E+00
         21   -1    0    0  501  502  0.00000000000E+00  0.00000000000E+00  0.56234295422E+02  0.56234295422E+02  0.00000000000E+00 0. -1.
         21   -1    0    0  502  503 -0.00000000000E+00 -0.00000000000E+00 -0.16673545594E+04  0.16673545594E+04  0.00000000000E+00 0. -1.
          6    1    1    2  501    0 -0.43170270952E+02  0.70210243645E+02 -0.13135877798E+03  0.23158643993E+03  0.17200000000E+03 0. -1.
         -6    1    1    2    0  503  0.43170270952E+02 -0.70210243645E+02 -0.14797614860E+04  0.14920024149E+04  0.17200000000E+03 0. -1.
</event>
<event>
 4    1  0.4539494E+000  0.2540747E+03  0.7818608E-02  0.1110756E+00
         21   -1    0    0  501  502  0.00000000000E+00  0.00000000000E+00  0.60252895536E+02  0.60252895536E+02  0.00000000000E+00 0.  1.
         21   -1    0    0  502  503 -0.00000000000E+00 -0.00000000000E+00 -0.16225866922E+04  0.16225866922E+04  0.00000000000E+00 0. -1.
          6    1    1    2  501    0 -0.16357473749E+03  0.90626904098E+02 -0.12715831030E+04  0.12967179795E+04  0.17200000000E+03 0. -1.
         -6    1    1    2    0  503  0.16357473749E+03 -0.90626904098E+02 -0.29075069366E+03  0.38612160825E+03  0.17200000000E+03 0.  1.
</event>
<event>
 4    1  0.4539494E+000  0.1720343E+03  0.7818608E-02  0.1175743E+00
         21   -1    0    0  501  502  0.00000000000E+00  0.00000000000E+00  0.60850520269E+03  0.60850520269E+03  0.00000000000E+00 0.  1.
         21   -1    0    0  502  503 -0.00000000000E+00 -0.00000000000E+00 -0.52479520907E+02  0.52479520907E+02  0.00000000000E+00 0.  1.
          6    1    1    2  501    0 -0.34193389091E+01  0.30708191864E+00  0.36744262280E+03  0.40572141579E+03  0.17200000000E+03 0.  1.
         -6    1    1    2    0  503  0.34193389091E+01 -0.30708191864E+00  0.18858305898E+03  0.25526330781E+03  0.17200000000E+03 0.  1.
</event>
<event>
 4    1  0.4539494E+000  0.1931879E+03  0.7818608E-02  0.1155617E+00
         21   -1    0    0  503  502  0.00000000000E+00  0.00000000000E+00  0.84948797735E+02  0.84948797735E+02  0.00000000000E+00 0.  1.
         21   -1    0    0  501  503 -0.00000000000E+00 -0.00000000000E+00 -0.19429822095E+04  0.19429822095E+04  0.00000000000E+00 0.  1.
          6    1    1    2  501    0  0.87469829218E+02 -0.93053610813E+01 -0.18210082904E+04  0.18312271171E+04  0.17200000000E+03 0.  1.
         -6    1    1    2    0  502 -0.87469829218E+02  0.93053610813E+01 -0.37025121345E+02  0.19670389010E+03  0.17200000000E+03 0.  1.
</event>
<event>
 4    1  0.4539494E+000  0.2071085E+03  0.7818608E-02  0.1143876E+00
         21   -1    0    0  503  502  0.00000000000E+00  0.00000000000E+00  0.51719036329E+03  0.51719036329E+03  0.00000000000E+00 0. -1.
         21   -1    0    0  501  503 -0.00000000000E+00 -0.00000000000E+00 -0.88784780383E+02  0.88784780383E+02  0.00000000000E+00 0. -1.
          6    1    1    2  501    0  0.10030161977E+03  0.57004580558E+02  0.13644011788E+03  0.24801177976E+03  0.17200000000E+03 0. -1.
         -6    1    1    2    0  502 -0.10030161977E+03 -0.57004580558E+02  0.29196546503E+03  0.35796336391E+03  0.17200000000E+03 0. -1.
</event>
<event>
 4    1  0.4539494E+000  0.1897577E+03  0.7818608E-02  0.1158680E+00
         21   -1    0    0  503  502  0.00000000000E+00  0.00000000000E+00  0.54816931970E+03  0.54816931970E+03  0.00000000000E+00 0. -1.
         21   -1    0    0  501  503 -0.00000000000E+00 -0.00000000000E+00 -0.87031333325E+02  0.87031333325E+02  0.00000000000E+00 0. -1.
          6    1    1    2  501    0 -0.71038559976E+02 -0.37114914345E+02  0.73287699116E+02  0.20341848665E+03  0.17200000000E+03 0. -1.
         -6    1    1    2    0  502  0.71038559976E+02  0.37114914345E+02  0.38785028726E+03  0.43178216637E+03  0.17200000000E+03 0. -1.
</event>
<event>
 4    1  0.4539494E+000  0.2087570E+03  0.7818608E-02  0.1142554E+00
         21   -1    0    0  503  502  0.00000000000E+00  0.00000000000E+00  0.89846595773E+02  0.89846595773E+02  0.00000000000E+00 0.  1.
         21   -1    0    0  501  503 -0.00000000000E+00 -0.00000000000E+00 -0.88199141597E+03  0.88199141597E+03  0.00000000000E+00 0.  1.
          6    1    1    2  501    0  0.10215774672E+03  0.59659663472E+02 -0.72205817219E+03  0.75162988544E+03  0.17200000000E+03 0.  1.
         -6    1    1    2    0  502 -0.10215774672E+03 -0.59659663472E+02 -0.70086648004E+02  0.22020812630E+03  0.17200000000E+03 0.  1.
</event>
<event>
 4    1  0.4539494E+000  0.1808416E+03  0.7818608E-02  0.1166991E+00
         21   -1    0    0  503  502  0.00000000000E+00  0.00000000000E+00  0.12448982924E+03  0.12448982924E+03  0.00000000000E+00 0.  1.
         21   -1    0    0  501  503 -0.00000000000E+00 -0.00000000000E+00 -0.70628491293E+03  0.70628491293E+03  0.00000000000E+00 0.  1.
          6    1    1    2  501    0  0.19110414656E+01 -0.55821359164E+02 -0.62009079705E+03  0.64592280716E+03  0.17200000000E+03 0.  1.
         -6    1    1    2    0  502 -0.19110414656E+01  0.55821359164E+02  0.38295713357E+02  0.18485193502E+03  0.17200000000E+03 0.  1.
</event>
<event>
 4    1  0.4539494E+000  0.3441689E+03  0.7818608E-02  0.1065034E+00
         21   -1    0    0  501  502  0.00000000000E+00  0.00000000000E+00  0.53502586938E+03  0.53502586938E+03  0.00000000000E+00 0.  1.
         21   -1    0    0  502  503 -0.00000000000E+00 -0.00000000000E+00 -0.66601857239E+03  0.66601857239E+03  0.00000000000E+00 0.  1.
          6    1    1    2  501    0 -0.28962694294E+03  0.70600912493E+02  0.42516513366E+03  0.54700790287E+03  0.17200000000E+03 0.  1.
         -6    1    1    2    0  503  0.28962694294E+03 -0.70600912493E+02 -0.55615783668E+03  0.65403653890E+03  0.17200000000E+03 0.  1.
</event>
<event>
 4    1  0.4539494E+000  0.2714348E+03  0.7818608E-02  0.1100461E+00
         21   -1    0    0  503  502  0.00000000000E+00  0.00000000000E+00  0.47208293635E+02  0.47208293635E+02  0.00000000000E+00 0. -1.
         21   -1    0    0  501  503 -0.00000000000E+00 -0.00000000000E+00 -0.18533870334E+04  0.18533870334E+04  0.00000000000E+00 0. -1.
          6    1    1    2  501    0 -0.68202548446E+02 -0.19859824146E+03 -0.12807451841E+04  0.13091925282E+04  0.17200000000E+03 0. -1.
         -6    1    1    2    0  502  0.68202548446E+02  0.19859824146E+03 -0.52543355561E+03  0.59140279885E+03  0.17200000000E+03 0. -1.
</event>
<event>
 4    1  0.4539494E+000  0.1840563E+03  0.7818608E-02  0.1163934E+00
         21   -1    0    0  501  502  0.00000000000E+00  0.00000000000E+00  0.56368096990E+03  0.56368096990E+03  0.00000000000E+00 0.  1.
         21   -1    0    0  502  503 -0.00000000000E+00 -0.00000000000E+00 -0.78392763249E+02  0.78392763249E+02  0.00000000000E+00 0. -1.
          6    1    1    2  501    0 -0.30709638498E+02 -0.57876039677E+02  0.39772820721E+03  0.43825157693E+03  0.17200000000E+03 0.  1.
         -6    1    1    2    0  503  0.30709638498E+02  0.57876039677E+02  0.87559999437E+02  0.20382215622E+03  0.17200000000E+03 0. -1.
</event>
<event>
 4    1  0.4539494E+000  0.2757070E+03  0.7818608E-02  0.1098057E+00
         21   -1    0    0  501  502  0.00000000000E+00  0.00000000000E+00  0.24751201089E+03  0.24751201089E+03  0.00000000000E+00 0. -1.
         21   -1    0    0  502  503 -0.00000000000E+00 -0.00000000000E+00 -0.55977096391E+03  0.55977096391E+03  0.00000000000E+00 0.  1.
          6    1    1    2  501    0 -0.15401363984E+03 -0.15069878821E+03  0.11504981424E+03  0.29874870005E+03  0.17200000000E+03 0. -1.
         -6    1    1    2    0  503  0.15401363984E+03  0.15069878821E+03 -0.42730876725E+03  0.50853427475E+03  0.17200000000E+03 0.  1.
</event>
<event>
 4    1  0.4539494E+000  0.2094970E+03  0.7818608E-02  0.1141965E+00
         21   -1    0    0  501  502  0.00000000000E+00  0.00000000000E+00  0.21727254242E+04  0.21727254242E+04  0.00000000000E+00 0.  1.
         21   -1    0    0  502  503 -0.00000000000E+00 -0.00000000000E+00 -0.35837367003E+02  0.35837367003E+02  0.00000000000E+00 0.  1.
          6    1    1    2  501    0  0.10040364635E+03 -0.64992928113E+02  0.17978915256E+04  0.18100560518E+04  0.17200000000E+03 0.  1.
         -6    1    1    2    0  503 -0.10040364635E+03  0.64992928113E+02  0.33899653165E+03  0.39850673944E+03  0.17200000000E+03 0.  1.
</event>
<event>
 4    1  0.4539494E+000  0.2029696E+03  0.7818608E-02  0.1147257E+00
         21   -1    0    0  503  502  0.00000000000E+00  0.00000000000E+00  0.30610614905E+02  0.30610614905E+02  0.00000000000E+00 0. -1.
         21   -1    0    0  501  503 -0.00000000000E+00 -0.00000000000E+00 -0.16844905318E+04  0.16844905318E+04  0.00000000000E+00 0. -1.
          6    1    1    2  501    0 -0.25287577667E+02  0.10475308435E+03 -0.44242961031E+03  0.48676547776E+03  0.17200000000E+03 0. -1.
         -6    1    1    2    0  502  0.25287577667E+02 -0.10475308435E+03 -0.12114503066E+04  0.12283356689E+04  0.17200000000E+03 0. -1.
</event>
<event>
 4    1  0.4539494E+000  0.1907572E+03  0.7818608E-02  0.1157780E+00
         21   -1    0    0  503  502  0.00000000000E+00  0.00000000000E+00  0.77535428987E+02  0.77535428987E+02  0.00000000000E+00 0.  1.
         21   -1    0    0  501  503 -0.00000000000E+00 -0.00000000000E+00 -0.62117787548E+03  0.62117787548E+03  0.00000000000E+00 0.  1.
          6    1    1    2  501    0  0.82202500382E+02  0.68603519043E+01 -0.44456045138E+03  0.48375852491E+03  0.17200000000E+03 0.  1.
         -6    1    1    2    0  502 -0.82202500382E+02 -0.68603519043E+01 -0.99081995118E+02  0.21495477956E+03  0.17200000000E+03 0.  1.
</event>
<event>
 4    1  0.4539494E+000  0.1789717E+03  0.7818608E-02  0.1168802E+00
         21   -1    0    0  503  502  0.00000000000E+00  0.00000000000E+00  0.26809083469E+03  0.26809083469E+03  0.00000000000E+00 0.  1.
         21   -1    0    0  501  503 -0.00000000000E+00 -0.00000000000E+00 -0.21400620379E+03  0.21400620379E+03  0.00000000000E+00 0.  1.
          6    1    1    2  501    0  0.48309909996E+02  0.10631230755E+02 -0.13316145326E+03  0.22307586850E+03  0.17200000000E+03 0.  1.
         -6    1    1    2    0  502 -0.48309909996E+02 -0.10631230755E+02  0.18724608416E+03  0.25902116999E+03  0.17200000000E+03 0.  1.
</event>
<event>
 4    1  0.4539494E+000  0.2011007E+03  0.7818608E-02  0.1148814E+00
         21   -1    0    0  501  502  0.00000000000E+00  0.00000000000E+00  0.92276214440E+03  0.92276214440E+03  0.00000000000E+00 0. -1.
         21   -1    0    0  502  503 -0.00000000000E+00 -0.00000000000E+00 -0.43936412611E+02  0.43936412611E+02  0.00000000000E+00 0.  1.
          6    1    1    2  501    0 -0.60499288714E+02 -0.84836999175E+02  0.46358281051E+03  0.50532217699E+03  0.17200000000E+03 0. -1.
         -6    1    1    2    0  503  0.60499288714E+02  0.84836999175E+02  0.41524292129E+03  0.46137638002E+03  0.17200000000E+03 0.  1.
</event>
<event>
 4    1  0.4539494E+000  0.1813458E+03  0.7818608E-02  0.1166507E+00
         21   -1    0    0  503  502  0.00000000000E+00  0.00000000000E+00  0.45754107109E+03  0.45754107109E+03  0.00000000000E+00 0.  1.
         21   -1    0    0  501  503 -0.00000000000E+00 -0.00000000000E+00 -0.11312925518E+03  0.11312925518E+03  0.00000000000E+00 0.  1.
          6    1    1    2  501    0  0.39012327061E+02 -0.42194201473E+02 -0.98308091683E-01  0.18134586283E+03  0.17200000000E+03 0.  1.
         -6    1    1    2    0  502 -0.39012327061E+02  0.42194201473E+02  0.34451012400E+03  0.38932446345E+03  0.17200000000E+03 0.  1.
</event>
<event>
 4    1  0.4539494E+000  0.2194032E+03  0.7818608E-02  0.1134329E+00
         21   -1    0    0  501  502  0.00000000000E+00  0.00000000000E+00  0.10126135798E+04  0.10126135798E+04  0.00000000000E+00 0. -1.
         21   -1    0    0  502  503 -0.00000000000E+00 -0.00000000000E+00 -0.50957930104E+02  0.50957930104E+02  0.00000000000E+00 0.  1.
          6    1    1    2  501    0 -0.13620373364E+03 -0.15215729200E+01  0.61859005097E+03  0.65634702971E+03  0.17200000000E+03 0.  1.
         -6    1    1    2    0  503  0.13620373364E+03  0.15215729200E+01  0.34306559868E+03  0.40722448016E+03  0.17200000000E+03 0. -1.
</event>
<event>
 4    1  0.4539494E+000  0.2005858E+03  0.7818608E-02  0.1149246E+00
         21   -1    0    0  503  502  0.00000000000E+00  0.00000000000E+00  0.37066442708E+02  0.37066442708E+02  0.00000000000E+00 0. -1.
         21   -1    0    0  501  503 -0.00000000000E+00 -0.00000000000E+00 -0.11704276291E+04  0.11704276291E+04  0.00000000000E+00 0.  1.
          6    1    1    2  501    0  0.97636317385E+02  0.33433833505E+02 -0.72933763853E+03  0.75641791536E+03  0.17200000000E+03 0.  1.
         -6    1    1    2    0  502 -0.97636317385E+02 -0.33433833505E+02 -0.40402354789E+03  0.45107615648E+03  0.17200000000E+03 0. -1.
</event>
<event>
 4    1  0.4539494E+000  0.1835330E+03  0.7818608E-02  0.1164427E+00
         21   -1    0    0  501  502  0.00000000000E+00  0.00000000000E+00  0.33541053224E+03  0.33541053224E+03  0.00000000000E+00 0. -1.
         21   -1    0    0  502  503 -0.00000000000E+00 -0.00000000000E+00 -0.30065231296E+03  0.30065231296E+03  0.00000000000E+00 0. -1.
          6    1    1    2  501    0 -0.53838564828E+02 -0.34666811746E+02  0.27691469141E+03  0.33221397505E+03  0.17200000000E+03 0. -1.
         -6    1    1    2    0  503  0.53838564828E+02  0.34666811746E+02 -0.24215647213E+03  0.30384887015E+03  0.17200000000E+03 0. -1.
</event>
<event>
 4    1  0.4539494E+000  0.1731220E+03  0.7818608E-02  0.1174631E+00
         21   -1    0    0  501  502  0.00000000000E+00  0.00000000000E+00  0.10696211304E+04  0.10696211304E+04  0.00000000000E+00 0.  1.
         21   -1    0    0  502  503 -0.00000000000E+00 -0.00000000000E+00 -0.29376168489E+02  0.29376168489E+02  0.00000000000E+00 0.  1.
          6    1    1    2  501    0  0.16072175016E+02 -0.11353665114E+02  0.63817099762E+03  0.66123629870E+03  0.17200000000E+03 0.  1.
         -6    1    1    2    0  503 -0.16072175016E+02  0.11353665114E+02  0.40207396428E+03  0.43776100017E+03  0.17200000000E+03 0.  1.
</event>
<event>
 4    1  0.4539494E+000  0.1811623E+03  0.7818608E-02  0.1166683E+00
         21   -1    0    0  501  502  0.00000000000E+00  0.00000000000E+00  0.86314369744E+03  0.86314369744E+03  0.00000000000E+00 0.  1.
         21   -1    0    0  502  503 -0.00000000000E+00 -0.00000000000E+00 -0.39106282926E+02  0.39106282926E+02  0.00000000000E+00 0.  1.
          6    1    1    2  501    0 -0.18836818600E+02  0.53674359945E+02  0.48708415354E+03  0.51968330287E+03  0.17200000000E+03 0.  1.
         -6    1    1    2    0  503  0.18836818600E+02 -0.53674359945E+02  0.33695326098E+03  0.38256667750E+03  0.17200000000E+03 0.  1.
</event>
<event>
 4    1  0.4539494E+000  0.2052750E+03  0.7818608E-02  0.1145363E+00
         21   -1    0    0  501  502  0.00000000000E+00  0.00000000000E+00  0.24128105309E+02  0.24128105309E+02  0.00000000000E+00 0. -1.
         21   -1    0    0  502  503 -0.00000000000E+00 -0.00000000000E+00 -0.18168651448E+04  0.18168651448E+04  0.00000000000E+00 0. -1.
          6    1    1    2  501    0  0.10818144190E+03 -0.29165293964E+02 -0.10776202503E+04  0.10969973758E+04  0.17200000000E+03 0. -1.
         -6    1    1    2    0  503 -0.10818144190E+03  0.29165293964E+02 -0.71511678918E+03  0.74399587426E+03  0.17200000000E+03 0. -1.
</event>
<event>
 4    1  0.4539494E+000  0.1953644E+03  0.7818608E-02  0.1153710E+00
         21   -1    0    0  501  502  0.00000000000E+00  0.00000000000E+00  0.14565595151E+04  0.14565595151E+04  0.00000000000E+00 0.  1.
         21   -1    0    0  502  503 -0.00000000000E+00 -0.00000000000E+00 -0.36535977506E+02  0.36535977506E+02  0.00000000000E+00 0.  1.
          6    1    1    2  501    0  0.68380741112E+02  0.62508734699E+02  0.11070158565E+04  0.11241224908E+04  0.17200000000E+03 0. -1.
         -6    1    1    2    0  503 -0.68380741112E+02 -0.62508734699E+02  0.31300768104E+03  0.36897300180E+03  0.17200000000E+03 0. -1.
</event>
<event>
 4    1  0.4539494E+000  0.1738311E+03  0.7818608E-02  0.1173910E+00
         21   -1    0    0  501  502  0.00000000000E+00  0.00000000000E+00  0.76519835517E+02  0.76519835517E+02  0.00000000000E+00 0.  1.
         21   -1    0    0  502  503 -0.00000000000E+00 -0.00000000000E+00 -0.48898701740E+03  0.48898701740E+03  0.00000000000E+00 0.  1.
          6    1    1    2  501    0  0.16736152522E+02 -0.18792705038E+02 -0.82200751943E+02  0.19228683830E+03  0.17200000000E+03 0.  1.
         -6    1    1    2    0  503 -0.16736152522E+02  0.18792705038E+02 -0.33026642994E+03  0.37322001461E+03  0.17200000000E+03 0.  1.
</event>
<event>
 4    1  0.4539494E+000  0.1735848E+03  0.7818608E-02  0.1174160E+00
         21   -1    0    0  501  502  0.00000000000E+00  0.00000000000E+00  0.11577342854E+04  0.11577342854E+04  0.00000000000E+00 0.  1.
         21   -1    0    0  502  503 -0.00000000000E+00 -0.00000000000E+00 -0.42118920394E+02  0.42118920394E+02  0.00000000000E+00 0.  1.
          6    1    1    2  501    0 -0.11097181312E+02 -0.20604495805E+02  0.92863447710E+03  0.94471883898E+03  0.17200000000E+03 0.  1.
         -6    1    1    2    0  503  0.11097181312E+02  0.20604495805E+02  0.18698088789E+03  0.25513436679E+03  0.17200000000E+03 0.  1.
</event>
<event>
 4    1  0.4539494E+000  0.2205446E+03  0.7818608E-02  0.1133478E+00
         21   -1    0    0  501  502  0.00000000000E+00  0.00000000000E+00  0.20481604593E+03  0.20481604593E+03  0.00000000000E+00 0. -1.
         21   -1    0    0  502  503 -0.00000000000E+00 -0.00000000000E+00 -0.43477626450E+03  0.43477626450E+03  0.00000000000E+00 0. -1.
          6    1    1    2  501    0 -0.13803858762E+03  0.11268132602E+01  0.10044615220E+03  0.24234139323E+03  0.17200000000E+03 0.  1.
         -6    1    1    2    0  503  0.13803858762E+03 -0.11268132602E+01 -0.33040637076E+03  0.39725091720E+03  0.17200000000E+03 0.  1.
</event>
<event>
 4    1  0.4539494E+000  0.2463969E+03  0.7818608E-02  0.1115603E+00
         21   -1    0    0  501  502  0.00000000000E+00  0.00000000000E+00  0.31201478958E+02  0.31201478958E+02  0.00000000000E+00 0. -1.
         21   -1    0    0  502  503 -0.00000000000E+00 -0.00000000000E+00 -0.21449515635E+04  0.21449515635E+04  0.00000000000E+00 0.  1.
          6    1    1    2  501    0  0.88936171008E+01  0.17620535581E+03 -0.72531894523E+03  0.76602806486E+03  0.17200000000E+03 0. -1.
         -6    1    1    2    0  503 -0.88936171008E+01 -0.17620535581E+03 -0.13884311394E+04  0.14101249776E+04  0.17200000000E+03 0.  1.
</event>
<event>
 4    1  0.4539494E+000  0.2357477E+03  0.7818608E-02  0.1122658E+00
         21   -1    0    0  503  502  0.00000000000E+00  0.00000000000E+00  0.79214314450E+02  0.79214314450E+02  0.00000000000E+00 0.  1.
         21   -1    0    0  501  503 -0.00000000000E+00 -0.00000000000E+00 -0.78357654142E+03  0.78357654142E+03  0.00000000000E+00 0.  1.
          6    1    1    2  501    0 -0.81914062503E+02 -0.13886350534E+03 -0.49171257373E+03  0.54530564082E+03  0.17200000000E+03 0.  1.
         -6    1    1    2    0  502  0.81914062503E+02  0.13886350534E+03 -0.21264965324E+03  0.31748521505E+03  0.17200000000E+03 0.  1.
</event>
<event>
 4    1  0.4539494E+000  0.2022376E+03  0.7818608E-02  0.1147865E+00
         21   -1    0    0  503  502  0.00000000000E+00  0.00000000000E+00  0.77314605756E+02  0.77314605756E+02  0.00000000000E+00 0.  1.
         21   -1    0    0  501  503 -0.00000000000E+00 -0.00000000000E+00 -0.77382744002E+03  0.77382744002E+03  0.00000000000E+00 0.  1.
          6    1    1    2  501    0  0.86572610613E+02 -0.61816226271E+02 -0.58762807764E+03  0.62145540497E+03  0.17200000000E+03 0.  1.
         -6    1    1    2    0  502 -0.86572610613E+02  0.61816226271E+02 -0.10888475663E+03  0.22968664080E+03  0.17200000000E+03 0.  1.
</event>
<event>
 4    1  0.4539494E+000  0.1772427E+03  0.7818608E-02  0.1170499E+00
         21   -1    0    0  503  502  0.00000000000E+00  0.00000000000E+00  0.87442488383E+02  0.87442488383E+02  0.00000000000E+00 0. -1.
         21   -1    0    0  501  503 -0.00000000000E+00 -0.00000000000E+00 -0.46707932473E+03  0.46707932473E+03  0.00000000000E+00 0. -1.
          6    1    1    2  501    0 -0.12976915662E+02  0.40774648595E+02 -0.32302717580E+03  0.36845831326E+03  0.17200000000E+03 0. -1.
         -6    1    1    2    0  502  0.12976915662E+02 -0.40774648595E+02 -0.56609660544E+02  0.18606349985E+03  0.17200000000E+03 0. -1.
</event>
<event>
 4    1  0.4539494E+000  0.2377034E+03  0.7818608E-02  0.1121332E+00
         21   -1    0    0  501  502  0.00000000000E+00  0.00000000000E+00  0.38507729855E+02  0.38507729855E+02  0.00000000000E+00 0.  1.
         21   -1    0    0  502  503 -0.00000000000E+00 -0.00000000000E+00 -0.17648206541E+04  0.17648206541E+04  0.00000000000E+00 0.  1.
          6    1    1    2  501    0  0.11629677763E+03  0.11573236879E+03 -0.49295080164E+03  0.54726905130E+03  0.17200000000E+03 0.  1.
         -6    1    1    2    0  503 -0.11629677763E+03 -0.11573236879E+03 -0.12333621226E+04  0.12560593326E+04  0.17200000000E+03 0.  1.
</event>
<event>
 4    1  0.4539494E+000  0.2154872E+03  0.7818608E-02  0.1137293E+00
         21   -1    0    0  503  502  0.00000000000E+00  0.00000000000E+00  0.30261875278E+03  0.30261875278E+03  0.00000000000E+00 0.  1.
         21   -1    0    0  501  503 -0.00000000000E+00 -0.00000000000E+00 -0.15668755510E+03  0.15668755510E+03  0.00000000000E+00 0.  1.
          6    1    1    2  501    0 -0.12701354437E+03  0.26801240182E+02  0.10601235503E+03  0.24015279792E+03  0.17200000000E+03 0.  1.
         -6    1    1    2    0  502  0.12701354437E+03 -0.26801240182E+02  0.39918842648E+02  0.21915350996E+03  0.17200000000E+03 0.  1.
</event>
<event>
 4    1  0.4539494E+000  0.1758278E+03  0.7818608E-02  0.1171903E+00
         21   -1    0    0  501  502  0.00000000000E+00  0.00000000000E+00  0.27260660065E+03  0.27260660065E+03  0.00000000000E+00 0. -1.
         21   -1    0    0  502  503 -0.00000000000E+00 -0.00000000000E+00 -0.12538979450E+03  0.12538979450E+03  0.00000000000E+00 0. -1.
          6    1    1    2  501    0  0.23636866899E+02  0.27797976548E+02  0.13512631827E+03  0.22175335593E+03  0.17200000000E+03 0.  1.
         -6    1    1    2    0  503 -0.23636866899E+02 -0.27797976548E+02  0.12090487880E+02  0.17624303922E+03  0.17200000000E+03 0.  1.
</event>
<event>
 4    1  0.4539494E+000  0.2138532E+03  0.7818608E-02  0.1138551E+00
         21   -1    0    0  503  502  0.00000000000E+00  0.00000000000E+00  0.18608900021E+03  0.18608900021E+03  0.00000000000E+00 0.  1.
         21   -1    0    0  501  503 -0.00000000000E+00 -0.00000000000E+00 -0.53060936020E+03  0.53060936020E+03  0.00000000000E+00 0. -1.
          6    1    1    2  501    0 -0.12660168766E+03 -0.11008334246E+02 -0.43481913777E+03  0.48456253808E+03  0.17200000000E+03 0. -1.
         -6    1    1    2    0  502  0.12660168766E+03  0.11008334246E+02  0.90298777774E+02  0.23213582233E+03  0.17200000000E+03 0.  1.
</event>
<event>
 4    1  0.4539494E+000  0.2135858E+03  0.7818608E-02  0.1138757E+00
         21   -1    0    0  503  502  0.00000000000E+00  0.00000000000E+00  0.14965613850E+04  0.14965613850E+04  0.00000000000E+00 0.  1.
         21   -1    0    0  501  503 -0.00000000000E+00 -0.00000000000E+00 -0.42711738613E+02  0.42711738613E+02  0.00000000000E+00 0.  1.
          6    1    1    2  501    0  0.86756394459E+02  0.92240003758E+02  0.31510023268E+03  0.38066658233E+03  0.17200000000E+03 0.  1.
         -6    1    1    2    0  502 -0.86756394459E+02 -0.92240003758E+02  0.11387494138E+04  0.11586065413E+04  0.17200000000E+03 0.  1.
</event>
<event>
 4    1  0.4539494E+000  0.1906576E+03  0.7818608E-02  0.1157870E+00
         21   -1    0    0  501  502  0.00000000000E+00  0.00000000000E+00  0.11587061766E+03  0.11587061766E+03  0.00000000000E+00 0. -1.
         21   -1    0    0  502  503 -0.00000000000E+00 -0.00000000000E+00 -0.12886123755E+04  0.12886123755E+04  0.00000000000E+00 0. -1.
          6    1    1    2  501    0  0.50612721742E+02  0.64843478936E+02  0.24437296919E+02  0.19221734012E+03  0.17200000000E+03 0. -1.
         -6    1    1    2    0  503 -0.50612721742E+02 -0.64843478936E+02 -0.11971790548E+04  0.12122656530E+04  0.17200000000E+03 0. -1.
</event>
<event>
 4    1  0.4539494E+000  0.2030902E+03  0.7818608E-02  0.1147158E+00
         21   -1    0    0  503  502  0.00000000000E+00  0.00000000000E+00  0.41146403650E+03  0.41146403650E+03  0.00000000000E+00 0. -1.
         21   -1    0    0  501  503 -0.00000000000E+00 -0.00000000000E+00 -0.27145432451E+03  0.27145432451E+03  0.00000000000E+00 0. -1.
          6    1    1    2  501    0 -0.45953967132E+02  0.97723419711E+02 -0.20117597283E+03  0.28586256470E+03  0.17200000000E+03 0. -1.
         -6    1    1    2    0  502  0.45953967132E+02 -0.97723419711E+02  0.34118568482E+03  0.39705579631E+03  0.17200000000E+03 0. -1.
</event>
<event>
 4    1  0.4539494E+000  0.2042073E+03  0.7818608E-02  0.1146237E+00
         21   -1    0    0  501  502  0.00000000000E+00  0.00000000000E+00  0.67913790870E+03  0.67913790870E+03  0.00000000000E+00 0. -1.
         21   -1    0    0  502  503 -0.00000000000E+00 -0.00000000000E+00 -0.12231804412E+03  0.12231804412E+03  0.00000000000E+00 0.  1.
          6    1    1    2  501    0  0.10547748616E+03 -0.31482046784E+02  0.56120330661E+03  0.59720161646E+03  0.17200000000E+03 0. -1.
         -6    1    1    2    0  503 -0.10547748616E+03  0.31482046784E+02 -0.43834420227E+01  0.20425433636E+03  0.17200000000E+03 0.  1.
</event>
<event>
 4    1  0.4539494E+000  0.2858021E+03  0.7818608E-02  0.1092561E+00
         21   -1    0    0  503  502  0.00000000000E+00  0.00000000000E+00  0.54591441622E+02  0.54591441622E+02  0.00000000000E+00 0. -1.
         21   -1    0    0  501  503 -0.00000000000E+00 -0.00000000000E+00 -0.15467344413E+04  0.15467344413E+04  0.00000000000E+00 0. -1.
          6    1    1    2  501    0  0.94565009388E+02 -0.20774099630E+03 -0.89071125864E+03  0.93544075644E+03  0.17200000000E+03 0. -1.
         -6    1    1    2    0  502 -0.94565009388E+02  0.20774099630E+03 -0.60143174106E+03  0.66588512650E+03  0.17200000000E+03 0. -1.
</event>
<event>
 4    1  0.4539494E+000  0.2075324E+03  0.7818608E-02  0.1143535E+00
         21   -1    0    0  501  502  0.00000000000E+00  0.00000000000E+00  0.20088785908E+03  0.20088785908E+03  0.00000000000E+00 0. -1.
         21   -1    0    0  502  503 -0.00000000000E+00 -0.00000000000E+00 -0.49938082593E+03  0.49938082593E+03  0.00000000000E+00 0. -1.
          6    1    1    2  501    0 -0.82566407704E+02 -0.81660791771E+02  0.11525560396E+03  0.23738902847E+03  0.17200000000E+03 0. -1.
         -6    1    1    2    0  503  0.82566407704E+02  0.81660791771E+02 -0.41374857081E+03  0.46287965654E+03  0.17200000000E+03 0. -1.
</event>
<event>
 4    1  0.4539494E+000  0.1866995E+03  0.7818608E-02  0.1161472E+00
         21   -1    0    0  501  502  0.00000000000E+00  0.00000000000E+00  0.24063420450E+03  0.24063420450E+03  0.00000000000E+00 0. -1.
         21   -1    0    0  502  503 -0.00000000000E+00 -0.00000000000E+00 -0.14673465664E+03  0.14673465664E+03  0.00000000000E+00 0. -1.
          6    1    1    2  501    0  0.69767019747E+02 -0.20131157347E+02  0.68880035701E+02  0.19900040165E+03  0.17200000000E+03 0. -1.
         -6    1    1    2    0  503 -0.69767019747E+02  0.20131157347E+02  0.25019512162E+02  0.18836845949E+03  0.17200000000E+03 0. -1.
</event>
<event>
 4    1  0.4539494E+000  0.1939769E+03  0.7818608E-02  0.1154923E+00
         21   -1    0    0  501  502  0.00000000000E+00  0.00000000000E+00  0.17772999481E+03  0.17772999481E+03  0.00000000000E+00 0.  1.
         21   -1    0    0  502  503 -0.00000000000E+00 -0.00000000000E+00 -0.21847238718E+03  0.21847238718E+03  0.00000000000E+00 0. -1.
          6    1    1    2  501    0  0.11479542752E+02 -0.88945160694E+02  0.14484533458E+02  0.19451689701E+03  0.17200000000E+03 0. -1.
         -6    1    1    2    0  503 -0.11479542752E+02  0.88945160694E+02 -0.55226925829E+02  0.20168548497E+03  0.17200000000E+03 0. -1.
</event>
<event>
 4    1  0.4539494E+000  0.2006838E+03  0.7818608E-02  0.1149163E+00
         21   -1    0    0  503  502  0.00000000000E+00  0.00000000000E+00  0.20207152265E+03  0.20207152265E+03  0.00000000000E+00 0.  1.
         21   -1    0    0  501  503 -0.00000000000E+00 -0.00000000000E+00 -0.40613549809E+03  0.40613549809E+03  0.00000000000E+00 0.  1.
          6    1    1    2  501    0 -0.10338677490E+03  0.10852873268E+01 -0.31904837468E+03  0.37691626186E+03  0.17200000000E+03 0.  1.
         -6    1    1    2    0  502  0.10338677490E+03 -0.10852873268E+01  0.11498439924E+03  0.23129075887E+03  0.17200000000E+03 0.  1.
</event>
<event>
 4    1  0.4539494E+000  0.2180674E+03  0.7818608E-02  0.1135332E+00
         21   -1    0    0  503  502  0.00000000000E+00  0.00000000000E+00  0.10655568126E+03  0.10655568126E+03  0.00000000000E+00 0.  1.
         21   -1    0    0  501  503 -0.00000000000E+00 -0.00000000000E+00 -0.44789815694E+03  0.44789815694E+03  0.00000000000E+00 0.  1.
          6    1    1    2  501    0 -0.31069053980E+02 -0.13039974284E+03 -0.18734837422E+03  0.28749398667E+03  0.17200000000E+03 0. -1.
         -6    1    1    2    0  502  0.31069053980E+02  0.13039974284E+03 -0.15399410145E+03  0.26695985153E+03  0.17200000000E+03 0. -1.
</event>
<event>
 4    1  0.4539494E+000  0.2774772E+03  0.7818608E-02  0.1097075E+00
         21   -1    0    0  503  502  0.00000000000E+00  0.00000000000E+00  0.77558812441E+03  0.77558812441E+03  0.00000000000E+00 0.  1.
         21   -1    0    0  501  503 -0.00000000000E+00 -0.00000000000E+00 -0.29222614649E+03  0.29222614649E+03  0.00000000000E+00 0. -1.
          6    1    1    2  501    0  0.18654283109E+03 -0.11230029436E+03 -0.19216353336E+03  0.33752097342E+03  0.17200000000E+03 0. -1.
         -6    1    1    2    0  502 -0.18654283109E+03  0.11230029436E+03  0.67552551128E+03  0.73029329748E+03  0.17200000000E+03 0.  1.
</event>
<event>
 4    1  0.4539494E+000  0.2002796E+03  0.7818608E-02  0.1149503E+00
         21   -1    0    0  501  502  0.00000000000E+00  0.00000000000E+00  0.16048952041E+03  0.16048952041E+03  0.00000000000E+00 0. -1.
         21   -1    0    0  502  503 -0.00000000000E+00 -0.00000000000E+00 -0.36439606127E+03  0.36439606127E+03  0.00000000000E+00 0. -1.
          6    1    1    2  501    0 -0.12774449558E+02  0.10180727564E+03 -0.24904124630E+03  0.31958324470E+03  0.17200000000E+03 0. -1.
         -6    1    1    2    0  503  0.12774449558E+02 -0.10180727564E+03  0.45134705446E+02  0.20530233698E+03  0.17200000000E+03 0. -1.
</event>
<event>
 4    1  0.4539494E+000  0.2677314E+03  0.7818608E-02  0.1102585E+00
         21   -1    0    0  501  502  0.00000000000E+00  0.00000000000E+00  0.14808280132E+03  0.14808280132E+03  0.00000000000E+00 0. -1.
         21   -1    0    0  502  503 -0.00000000000E+00 -0.00000000000E+00 -0.77494153661E+03  0.77494153661E+03  0.00000000000E+00 0.  1.
          6    1    1    2  501    0  0.33903438043E+02  0.20235281385E+03 -0.30673854010E+02  0.26948281894E+03  0.17200000000E+03 0. -1.
         -6    1    1    2    0  503 -0.33903438043E+02 -0.20235281385E+03 -0.59618488127E+03  0.65354151899E+03  0.17200000000E+03 0.  1.
</event>
<event>
 4    1  0.4539494E+000  0.1836627E+03  0.7818608E-02  0.1164305E+00
         21   -1    0    0  503  502  0.00000000000E+00  0.00000000000E+00  0.10868339633E+03  0.10868339633E+03  0.00000000000E+00 0. -1.
         21   -1    0    0  501  503 -0.00000000000E+00 -0.00000000000E+00 -0.93033933707E+03  0.93033933707E+03  0.00000000000E+00 0.  1.
          6    1    1    2  501    0 -0.63608923255E+02 -0.10094028713E+02 -0.83491962734E+03  0.85488172788E+03  0.17200000000E+03 0.  1.
         -6    1    1    2    0  502  0.63608923255E+02  0.10094028713E+02  0.13263686602E+02  0.18414100552E+03  0.17200000000E+03 0. -1.
</event>
<event>
 4    1  0.4539494E+000  0.1871054E+03  0.7818608E-02  0.1161098E+00
         21   -1    0    0  503  502  0.00000000000E+00  0.00000000000E+00  0.12830264583E+04  0.12830264583E+04  0.00000000000E+00 0.  1.
         21   -1    0    0  501  503 -0.00000000000E+00 -0.00000000000E+00 -0.35278728409E+02  0.35278728409E+02  0.00000000000E+00 0.  1.
          6    1    1    2  501    0 -0.73598905196E+02 -0.27621871250E+01  0.31012516725E+03  0.36219614560E+03  0.17200000000E+03 0.  1.
         -6    1    1    2    0  502  0.73598905196E+02  0.27621871250E+01  0.93762256264E+03  0.95610904111E+03  0.17200000000E+03 0.  1.
</event>
<event>
 4    1  0.4539494E+000  0.1741643E+03  0.7818608E-02  0.1173573E+00
         21   -1    0    0  501  502  0.00000000000E+00  0.00000000000E+00  0.44025893839E+02  0.44025893839E+02  0.00000000000E+00 0.  1.
         21   -1    0    0  502  503 -0.00000000000E+00 -0.00000000000E+00 -0.69222664812E+03  0.69222664812E+03  0.00000000000E+00 0.  1.
          6    1    1    2  501    0 -0.27370759745E+02  0.17237073566E+00 -0.29890946914E+03  0.34594805816E+03  0.17200000000E+03 0. -1.
         -6    1    1    2    0  503  0.27370759745E+02 -0.17237073566E+00 -0.34929128514E+03  0.39030448380E+03  0.17200000000E+03 0. -1.
</event>
<event>
 4    1  0.4539494E+000  0.2283837E+03  0.7818608E-02  0.1127783E+00
         21   -1    0    0  501  502  0.00000000000E+00  0.00000000000E+00  0.17279879307E+04  0.17279879307E+04  0.00000000000E+00 0.  1.
         21   -1    0    0  502  503 -0.00000000000E+00 -0.00000000000E+00 -0.50740690801E+02  0.50740690801E+02  0.00000000000E+00 0. -1.
          6    1    1    2  501    0  0.10361836409E+03 -0.10880416443E+03  0.14046918691E+04  0.14231368025E+04  0.17200000000E+03 0.  1.
         -6    1    1    2    0  503 -0.10361836409E+03  0.10880416443E+03  0.27255537080E+03  0.35559181898E+03  0.17200000000E+03 0. -1.
</event>
<event>
 4    1  0.4539494E+000  0.1985368E+03  0.7818608E-02  0.1150979E+00
         21   -1    0    0  501  502  0.00000000000E+00  0.00000000000E+00  0.10987511334E+03  0.10987511334E+03  0.00000000000E+00 0. -1.
         21   -1    0    0  502  503 -0.00000000000E+00 -0.00000000000E+00 -0.36007496948E+03  0.36007496948E+03  0.00000000000E+00 0.  1.
          6    1    1    2  501    0  0.15233063972E+02 -0.97983717426E+02 -0.11080505850E+03  0.22736450055E+03  0.17200000000E+03 0.  1.
         -6    1    1    2    0  503 -0.15233063972E+02  0.97983717426E+02 -0.13939479763E+03  0.24258558227E+03  0.17200000000E+03 0.  1.
</event>
<event>
 4    1  0.4539494E+000  0.1991057E+03  0.7818608E-02  0.1150496E+00
         21   -1    0    0  503  502  0.00000000000E+00  0.00000000000E+00  0.81467764300E+03  0.81467764300E+03  0.00000000000E+00 0. -1.
         21   -1    0    0  501  503 -0.00000000000E+00 -0.00000000000E+00 -0.11064133726E+03  0.11064133726E+03  0.00000000000E+00 0. -1.
          6    1    1    2  501    0  0.10027460358E+03 -0.20190744250E+01  0.57364495287E+01  0.19918830196E+03  0.17200000000E+03 0. -1.
         -6    1    1    2    0  502 -0.10027460358E+03  0.20190744250E+01  0.69829985622E+03  0.72613067830E+03  0.17200000000E+03 0. -1.
</event>
<event>
 4    1  0.4539494E+000  0.2749926E+03  0.7818608E-02  0.1098456E+00
         21   -1    0    0  503  502  0.00000000000E+00  0.00000000000E+00  0.11452540585E+03  0.11452540585E+03  0.00000000000E+00 0.  1.
         21   -1    0    0  501  503 -0.00000000000E+00 -0.00000000000E+00 -0.74022985504E+03  0.74022985504E+03  0.00000000000E+00 0.  1.
          6    1    1    2  501    0 -0.99470149873E+02  0.19011208404E+03 -0.45329130878E+03  0.53018291733E+03  0.17200000000E+03 0.  1.
         -6    1    1    2    0  502  0.99470149873E+02 -0.19011208404E+03 -0.17241314040E+03  0.32457234355E+03  0.17200000000E+03 0.  1.
</event>
<event>
 4    1  0.4539494E+000  0.2494854E+03  0.7818608E-02  0.1113630E+00
         21   -1    0    0  503  502  0.00000000000E+00  0.00000000000E+00  0.18253827528E+04  0.18253827528E+04  0.00000000000E+00 0.  1.
         21   -1    0    0  501  503 -0.00000000000E+00 -0.00000000000E+00 -0.53907162086E+02  0.53907162086E+02  0.00000000000E+00 0. -1.
          6    1    1    2  501    0 -0.94988853848E+02 -0.15374031000E+03  0.31614142272E+03  0.40272616557E+03  0.17200000000E+03 0. -1.
         -6    1    1    2    0  502  0.94988853848E+02  0.15374031000E+03  0.14553341680E+04  0.14765637493E+04  0.17200000000E+03 0.  1.
</event>
<event>
 4    1  0.4539494E+000  0.2087679E+03  0.7818608E-02  0.1142545E+00
         21   -1    0    0  501  502  0.00000000000E+00  0.00000000000E+00  0.76181213666E+03  0.76181213666E+03  0.00000000000E+00 0. -1.
         21   -1    0    0  502  503 -0.00000000000E+00 -0.00000000000E+00 -0.81237363835E+02  0.81237363835E+02  0.00000000000E+00 0. -1.
          6    1    1    2  501    0 -0.55182886230E+02  0.10466561389E+03  0.56952670258E+03  0.60658445959E+03  0.17200000000E+03 0. -1.
         -6    1    1    2    0  503  0.55182886230E+02 -0.10466561389E+03  0.11104807024E+03  0.23646504090E+03  0.17200000000E+03 0. -1.
</event>
<event>
 4    1  0.4539494E+000  0.2513664E+03  0.7818608E-02  0.1112444E+00
         21   -1    0    0  503  502  0.00000000000E+00  0.00000000000E+00  0.78013356518E+02  0.78013356518E+02  0.00000000000E+00 0.  1.
         21   -1    0    0  501  503 -0.00000000000E+00 -0.00000000000E+00 -0.97427624168E+03  0.97427624168E+03  0.00000000000E+00 0.  1.
          6    1    1    2  501    0  0.73902723858E+02 -0.16774814191E+03 -0.66422872187E+03  0.71020056791E+03  0.17200000000E+03 0.  1.
         -6    1    1    2    0  502 -0.73902723858E+02  0.16774814191E+03 -0.23203416329E+03  0.34208903028E+03  0.17200000000E+03 0.  1.
</event>
<event>
 4    1  0.4539494E+000  0.2626605E+03  0.7818608E-02  0.1105555E+00
         21   -1    0    0  503  502  0.00000000000E+00  0.00000000000E+00  0.10478485246E+04  0.10478485246E+04  0.00000000000E+00 0.  1.
         21   -1    0    0  501  503 -0.00000000000E+00 -0.00000000000E+00 -0.10242733740E+03  0.10242733740E+03  0.00000000000E+00 0. -1.
          6    1    1    2  501    0  0.97394880307E+02  0.17297615403E+03  0.12897181210E+03  0.29261620066E+03  0.17200000000E+03 0. -1.
         -6    1    1    2    0  502 -0.97394880307E+02 -0.17297615403E+03  0.81644937512E+03  0.85765966135E+03  0.17200000000E+03 0.  1.
</event>
<event>
 4    1  0.4539494E+000  0.1782216E+03  0.7818608E-02  0.1169535E+00
         21   -1    0    0  503  502  0.00000000000E+00  0.00000000000E+00  0.59680999401E+02  0.59680999401E+02  0.00000000000E+00 0. -1.
         21   -1    0    0  501  503 -0.00000000000E+00 -0.00000000000E+00 -0.58407838430E+03  0.58407838430E+03  0.00000000000E+00 0. -1.
          6    1    1    2  501    0  0.46669635457E+02  0.93962148532E+00 -0.35811698471E+03  0.40001339040E+03  0.17200000000E+03 0. -1.
         -6    1    1    2    0  502 -0.46669635457E+02 -0.93962148532E+00 -0.16628040018E+03  0.24374599329E+03  0.17200000000E+03 0. -1.
</event>
<event>
 4    1  0.4539494E+000  0.1980848E+03  0.7818608E-02  0.1151365E+00
         21   -1    0    0  501  502  0.00000000000E+00  0.00000000000E+00  0.13817542283E+03  0.13817542283E+03  0.00000000000E+00 0.  1.
         21   -1    0    0  502  503 -0.00000000000E+00 -0.00000000000E+00 -0.45799460350E+03  0.45799460350E+03  0.00000000000E+00 0.  1.
          6    1    1    2  501    0 -0.75600044520E+02  0.62755138062E+02  0.23835691976E+02  0.19951369451E+03  0.17200000000E+03 0.  1.
         -6    1    1    2    0  503  0.75600044520E+02 -0.62755138062E+02 -0.34365487264E+03  0.39665633182E+03  0.17200000000E+03 0.  1.
</event>
<event>
 4    1  0.4539494E+000  0.1988167E+03  0.7818608E-02  0.1150741E+00
         21   -1    0    0  501  502  0.00000000000E+00  0.00000000000E+00  0.48018693982E+02  0.48018693982E+02  0.00000000000E+00 0.  1.
         21   -1    0    0  502  503 -0.00000000000E+00 -0.00000000000E+00 -0.83244029318E+03  0.83244029318E+03  0.00000000000E+00 0. -1.
          6    1    1    2  501    0 -0.29515486912E+02 -0.95251927722E+02 -0.34578246350E+03  0.39886539805E+03  0.17200000000E+03 0.  1.
         -6    1    1    2    0  503  0.29515486912E+02  0.95251927722E+02 -0.43863913570E+03  0.48159358911E+03  0.17200000000E+03 0. -1.
</event>
<event>
 4    1  0.4539494E+000  0.2392118E+03  0.7818608E-02  0.1120319E+00
         21   -1    0    0  503  502  0.00000000000E+00  0.00000000000E+00  0.79437574927E+03  0.79437574927E+03  0.00000000000E+00 0. -1.
         21   -1    0    0  501  503 -0.00000000000E+00 -0.00000000000E+00 -0.14412501139E+03  0.14412501139E+03  0.00000000000E+00 0.  1.
          6    1    1    2  501    0  0.16373441681E+03  0.28797744414E+02 -0.67497788195E+01  0.23930697617E+03  0.17200000000E+03 0.  1.
         -6    1    1    2    0  502 -0.16373441681E+03 -0.28797744414E+02  0.65700051669E+03  0.69919378449E+03  0.17200000000E+03 0. -1.
</event>
<event>
 4    1  0.4539494E+000  0.1928238E+03  0.7818608E-02  0.1155939E+00
         21   -1    0    0  503  502  0.00000000000E+00  0.00000000000E+00  0.93863204594E+02  0.93863204594E+02  0.00000000000E+00 0. -1.
         21   -1    0    0  501  503 -0.00000000000E+00 -0.00000000000E+00 -0.25326127203E+04  0.25326127203E+04  0.00000000000E+00 0. -1.
          6    1    1    2  501    0 -0.57339798176E+02 -0.65644348334E+02 -0.24255483338E+04  0.24332007218E+04  0.17200000000E+03 0. -1.
         -6    1    1    2    0  502  0.57339798176E+02  0.65644348334E+02 -0.13201181884E+02  0.19327520308E+03  0.17200000000E+03 0. -1.
</event>
<event>
 4    1  0.4539494E+000  0.2394223E+03  0.7818608E-02  0.1120178E+00
         21   -1    0    0  501  502  0.00000000000E+00  0.00000000000E+00  0.19998833320E+03  0.19998833320E+03  0.00000000000E+00 0. -1.
         21   -1    0    0  502  503 -0.00000000000E+00 -0.00000000000E+00 -0.58406519220E+03  0.58406519220E+03  0.00000000000E+00 0. -1.
          6    1    1    2  501    0  0.45758723867E+02  0.16014116438E+03  0.87717808571E+02  0.25498522953E+03  0.17200000000E+03 0. -1.
         -6    1    1    2    0  503 -0.45758723867E+02 -0.16014116438E+03 -0.47179466757E+03  0.52906829586E+03  0.17200000000E+03 0. -1.
</event>
<event>
 4    1  0.4539494E+000  0.2252583E+03  0.7818608E-02  0.1130022E+00
         21   -1    0    0  503  502  0.00000000000E+00  0.00000000000E+00  0.21483912004E+03  0.21483912004E+03  0.00000000000E+00 0.  1.
         21   -1    0    0  501  503 -0.00000000000E+00 -0.00000000000E+00 -0.24109146704E+03  0.24109146704E+03  0.00000000000E+00 0.  1.
          6    1    1    2  501    0  0.13615024563E+03  0.51190033095E+02 -0.45654280229E+02  0.22983825221E+03  0.17200000000E+03 0.  1.
         -6    1    1    2    0  502 -0.13615024563E+03 -0.51190033095E+02  0.19401933223E+02  0.22609233487E+03  0.17200000000E+03 0.  1.
</event>
<event>
 4    1  0.4539494E+000  0.2500758E+03  0.7818608E-02  0.1113257E+00
         21   -1    0    0  503  502  0.00000000000E+00  0.00000000000E+00  0.27669367845E+03  0.27669367845E+03  0.00000000000E+00 0.  1.
         21   -1    0    0  501  503 -0.00000000000E+00 -0.00000000000E+00 -0.36250476278E+03  0.36250476278E+03  0.00000000000E+00 0. -1.
          6    1    1    2  501    0  0.10780437361E+03  0.14605517446E+03 -0.23901262757E+03  0.34592619602E+03  0.17200000000E+03 0. -1.
         -6    1    1    2    0  502 -0.10780437361E+03 -0.14605517446E+03  0.15320154324E+03  0.29327224521E+03  0.17200000000E+03 0.  1.
</event>
<event>
 4    1  0.4539494E+000  0.1814864E+03  0.7818608E-02  0.1166372E+00
         21   -1    0    0  501  502  0.00000000000E+00  0.00000000000E+00  0.12108781144E+03  0.12108781144E+03  0.00000000000E+00 0.  1.
         21   -1    0    0  502  503 -0.00000000000E+00 -0.00000000000E+00 -0.28446239885E+03  0.28446239885E+03  0.00000000000E+00 0.  1.
          6    1    1    2  501    0 -0.57277584502E+02 -0.85191076650E+01 -0.39264455382E+02  0.18568520226E+03  0.17200000000E+03 0.  1.
         -6    1    1    2    0  503  0.57277584502E+02  0.85191076650E+01 -0.12411013203E+03  0.21986500803E+03  0.17200000000E+03 0.  1.
</event>
<event>
 4    1  0.4539494E+000  0.2699102E+03  0.7818608E-02  0.1101331E+00
         21   -1    0    0  503  502  0.00000000000E+00  0.00000000000E+00  0.69826563636E+03  0.69826563636E+03  0.00000000000E+00 0.  1.
         21   -1    0    0  501  503 -0.00000000000E+00 -0.00000000000E+00 -0.10928655414E+03  0.10928655414E+03  0.00000000000E+00 0.  1.
          6    1    1    2  501    0 -0.69491179641E+02  0.19605735841E+03  0.20851781051E+03  0.34107358317E+03  0.17200000000E+03 0.  1.
         -6    1    1    2    0  502  0.69491179641E+02 -0.19605735841E+03  0.38046127170E+03  0.46647860734E+03  0.17200000000E+03 0.  1.
</event>
<event>
 4    1  0.4539494E+000  0.1882223E+03  0.7818608E-02  0.1160075E+00
         21   -1    0    0  501  502  0.00000000000E+00  0.00000000000E+00  0.75284178424E+02  0.75284178424E+02  0.00000000000E+00 0.  1.
         21   -1    0    0  502  503 -0.00000000000E+00 -0.00000000000E+00 -0.62996521826E+03  0.62996521826E+03  0.00000000000E+00 0.  1.
          6    1    1    2  501    0 -0.14521291052E+01 -0.76429915201E+02 -0.99974260239E+02  0.21312553420E+03  0.17200000000E+03 0. -1.
         -6    1    1    2    0  503  0.14521291052E+01  0.76429915201E+02 -0.45470677960E+03  0.49212386249E+03  0.17200000000E+03 0. -1.
</event>
<event>
 4    1  0.4539494E+000  0.1875546E+03  0.7818608E-02  0.1160686E+00
         21   -1    0    0  501  502  0.00000000000E+00  0.00000000000E+00  0.40753518291E+03  0.40753518291E+03  0.00000000000E+00 0. -1.
         21   -1    0    0  502  503 -0.00000000000E+00 -0.00000000000E+00 -0.10362689493E+03  0.10362689493E+03  0.00000000000E+00 0. -1.
          6    1    1    2  501    0 -0.74767235696E+02 -0.16120522259E+01  0.25641516357E+03  0.31768769940E+03  0.17200000000E+03 0. -1.
         -6    1    1    2    0  503  0.74767235696E+02  0.16120522259E+01  0.47493124405E+02  0.19347437844E+03  0.17200000000E+03 0. -1.
</event>
<event>
 4    1  0.4539494E+000  0.1900089E+03  0.7818608E-02  0.1158453E+00
         21   -1    0    0  501  502  0.00000000000E+00  0.00000000000E+00  0.51756669690E+03  0.51756669690E+03  0.00000000000E+00 0.  1.
         21   -1    0    0  502  503 -0.00000000000E+00 -0.00000000000E+00 -0.89005929751E+02  0.89005929751E+02  0.00000000000E+00 0.  1.
          6    1    1    2  501    0  0.59844440654E+02  0.54203418557E+02  0.35532556035E+03  0.40293873170E+03  0.17200000000E+03 0. -1.
         -6    1    1    2    0  503 -0.59844440654E+02 -0.54203418557E+02  0.73235206796E+02  0.20363389496E+03  0.17200000000E+03 0. -1.
</event>
<event>
 4    1  0.4539494E+000  0.1952533E+03  0.7818608E-02  0.1153807E+00
         21   -1    0    0  503  502  0.00000000000E+00  0.00000000000E+00  0.83890020853E+02  0.83890020853E+02  0.00000000000E+00 0. -1.
         21   -1    0    0  501  503 -0.00000000000E+00 -0.00000000000E+00 -0.45911729794E+03  0.45911729794E+03  0.00000000000E+00 0. -1.
          6    1    1    2  501    0  0.91411105225E+02  0.13559389048E+02 -0.21498721414E+03  0.29041926491E+03  0.17200000000E+03 0. -1.
         -6    1    1    2    0  502 -0.91411105225E+02 -0.13559389048E+02 -0.16024006295E+03  0.25258805388E+03  0.17200000000E+03 0. -1.
</event>
<event>
 4    1  0.4539494E+000  0.2461808E+03  0.7818608E-02  0.1115743E+00
         21   -1    0    0  501  502  0.00000000000E+00  0.00000000000E+00  0.29080472049E+03  0.29080472049E+03  0.00000000000E+00 0. -1.
         21   -1    0    0  502  503 -0.00000000000E+00 -0.00000000000E+00 -0.20854389808E+03  0.20854389808E+03  0.00000000000E+00 0.  1.
          6    1    1    2  501    0  0.16137930114E+03  0.70552978850E+02  0.47586371944E+02  0.25073784009E+03  0.17200000000E+03 0. -1.
         -6    1    1    2    0  503 -0.16137930114E+03 -0.70552978850E+02  0.34674450465E+02  0.24861077848E+03  0.17200000000E+03 0.  1.
</event>
<event>
 4    1  0.4539494E+000  0.1993600E+03  0.7818608E-02  0.1150280E+00
         21   -1    0    0  503  502  0.00000000000E+00  0.00000000000E+00  0.29100607206E+03  0.29100607206E+03  0.00000000000E+00 0.  1.
         21   -1    0    0  501  503 -0.00000000000E+00 -0.00000000000E+00 -0.21278645250E+03  0.21278645250E+03  0.00000000000E+00 0. -1.
          6    1    1    2  501    0 -0.22361820328E+02 -0.98287087285E+02 -0.11164022641E+03  0.22849057462E+03  0.17200000000E+03 0. -1.
         -6    1    1    2    0  502  0.22361820328E+02  0.98287087285E+02  0.18985984597E+03  0.27530194995E+03  0.17200000000E+03 0.  1.
</event>
<event>
 4    1  0.4539494E+000  0.1888632E+03  0.7818608E-02  0.1159491E+00
         21   -1    0    0  503  502  0.00000000000E+00  0.00000000000E+00  0.39506385564E+03  0.39506385564E+03  0.00000000000E+00 0.  1.
         21   -1    0    0  501  503 -0.00000000000E+00 -0.00000000000E+00 -0.10883887074E+03  0.10883887074E+03  0.00000000000E+00 0.  1.
          6    1    1    2  501    0 -0.10717129588E+02  0.77268794464E+02  0.39093454752E+02  0.19286684959E+03  0.17200000000E+03 0.  1.
         -6    1    1    2    0  502  0.10717129588E+02 -0.77268794464E+02  0.24713153014E+03  0.31103587680E+03  0.17200000000E+03 0.  1.
</event>
<event>
 4    1  0.4539494E+000  0.1803471E+03  0.7818608E-02  0.1167468E+00
         21   -1    0    0  501  502  0.00000000000E+00  0.00000000000E+00  0.65841242884E+02  0.65841242884E+02  0.00000000000E+00 0. -1.
         21   -1    0    0  502  503 -0.00000000000E+00 -0.00000000000E+00 -0.51239926996E+03  0.51239926996E+03  0.00000000000E+00 0. -1.
          6    1    1    2  501    0  0.38442129559E+02  0.38253014178E+02 -0.16848145287E+03  0.24680172280E+03  0.17200000000E+03 0. -1.
         -6    1    1    2    0  503 -0.38442129559E+02 -0.38253014178E+02 -0.27807657421E+03  0.33143879004E+03  0.17200000000E+03 0. -1.
</event>
<event>
 4    1  0.4539494E+000  0.2839908E+03  0.7818608E-02  0.1093529E+00
         21   -1    0    0  501  502  0.00000000000E+00  0.00000000000E+00  0.16675048131E+03  0.16675048131E+03  0.00000000000E+00 0. -1.
         21   -1    0    0  502  503 -0.00000000000E+00 -0.00000000000E+00 -0.90244222266E+03  0.90244222266E+03  0.00000000000E+00 0. -1.
          6    1    1    2  501    0  0.98274406528E+02  0.20349177084E+03 -0.36712168193E+01  0.28401450247E+03  0.17200000000E+03 0. -1.
         -6    1    1    2    0  503 -0.98274406528E+02 -0.20349177084E+03 -0.73202052453E+03  0.78517820150E+03  0.17200000000E+03 0. -1.
</event>
<event>
 4    1  0.4539494E+000  0.1741580E+03  0.7818608E-02  0.1173580E+00
         21   -1    0    0  503  502  0.00000000000E+00  0.00000000000E+00  0.43206205778E+02  0.43206205778E+02  0.00000000000E+00 0.  1.
         21   -1    0    0  501  503 -0.00000000000E+00 -0.00000000000E+00 -0.85999890512E+03  0.85999890512E+03  0.00000000000E+00 0.  1.
          6    1    1    2  501    0 -0.27252343296E+02  0.20767685857E+01 -0.21483143877E+03  0.27655659505E+03  0.17200000000E+03 0.  1.
         -6    1    1    2    0  502  0.27252343296E+02 -0.20767685857E+01 -0.60196126058E+03  0.62664851585E+03  0.17200000000E+03 0.  1.
</event>
<event>
 4    1  0.4539494E+000  0.1842358E+03  0.7818608E-02  0.1163765E+00
         21   -1    0    0  503  502  0.00000000000E+00  0.00000000000E+00  0.96489779251E+02  0.96489779251E+02  0.00000000000E+00 0.  1.
         21   -1    0    0  501  503 -0.00000000000E+00 -0.00000000000E+00 -0.36222490266E+03  0.36222490266E+03  0.00000000000E+00 0.  1.
          6    1    1    2  501    0 -0.29751560594E+02 -0.58937820117E+02 -0.93913599539E+02  0.20679116561E+03  0.17200000000E+03 0.  1.
         -6    1    1    2    0  502  0.29751560594E+02  0.58937820117E+02 -0.17182152387E+03  0.25192351629E+03  0.17200000000E+03 0.  1.
</event>
<event>
 4    1  0.4539494E+000  0.1806276E+03  0.7818608E-02  0.1167197E+00
         21   -1    0    0  503  502  0.00000000000E+00  0.00000000000E+00  0.31779574612E+02  0.31779574612E+02  0.00000000000E+00 0.  1.
         21   -1    0    0  501  503 -0.00000000000E+00 -0.00000000000E+00 -0.10803897252E+04  0.10803897252E+04  0.00000000000E+00 0.  1.
          6    1    1    2  501    0 -0.68992240893E+01  0.54724189989E+02 -0.64833293737E+03  0.67302446756E+03  0.17200000000E+03 0.  1.
         -6    1    1    2    0  502  0.68992240893E+01 -0.54724189989E+02 -0.40027721318E+03  0.43914483220E+03  0.17200000000E+03 0.  1.
</event>
<event>
 4    1  0.4539494E+000  0.2332290E+03  0.7818608E-02  0.1124387E+00
         21   -1    0    0  503  502  0.00000000000E+00  0.00000000000E+00  0.35673316476E+03  0.35673316476E+03  0.00000000000E+00 0. -1.
         21   -1    0    0  501  503 -0.00000000000E+00 -0.00000000000E+00 -0.45408185642E+03  0.45408185642E+03  0.00000000000E+00 0. -1.
          6    1    1    2  501    0  0.15726774026E+03 -0.88662969208E+01 -0.37907396663E+03  0.44507620193E+03  0.17200000000E+03 0. -1.
         -6    1    1    2    0  502 -0.15726774026E+03  0.88662969208E+01  0.28172527496E+03  0.36573881925E+03  0.17200000000E+03 0. -1.
</event>
<event>
 4    1  0.4539494E+000  0.2172611E+03  0.7818608E-02  0.1135942E+00
         21   -1    0    0  503  502  0.00000000000E+00  0.00000000000E+00  0.44063686321E+03  0.44063686321E+03  0.00000000000E+00 0. -1.
         21   -1    0    0  501  503 -0.00000000000E+00 -0.00000000000E+00 -0.10831174302E+03  0.10831174302E+03  0.00000000000E+00 0. -1.
          6    1    1    2  501    0 -0.32859485578E+02 -0.12860270119E+03  0.13740950971E+03  0.25706764461E+03  0.17200000000E+03 0. -1.
         -6    1    1    2    0  502  0.32859485578E+02  0.12860270119E+03  0.19491561049E+03  0.29188096162E+03  0.17200000000E+03 0. -1.
</event>
<event>
 4    1  0.4539494E+000  0.1984915E+03  0.7818608E-02  0.1151018E+00
         21   -1    0    0  503  502  0.00000000000E+00  0.00000000000E+00  0.77060190873E+03  0.77060190873E+03  0.00000000000E+00 0.  1.
         21   -1    0    0  501  503 -0.00000000000E+00 -0.00000000000E+00 -0.64614248196E+02  0.64614248196E+02  0.00000000000E+00 0.  1.
          6    1    1    2  501    0 -0.83365911447E+02 -0.53525739526E+02  0.16220198342E+03  0.25633642622E+03  0.17200000000E+03 0.  1.
         -6    1    1    2    0  502  0.83365911447E+02  0.53525739526E+02  0.54378567712E+03  0.57887973071E+03  0.17200000000E+03 0.  1.
</event>
<event>
 4    1  0.4539494E+000  0.1805867E+03  0.7818608E-02  0.1167236E+00
         21   -1    0    0  503  502  0.00000000000E+00  0.00000000000E+00  0.20455823173E+03  0.20455823173E+03  0.00000000000E+00 0.  1.
         21   -1    0    0  501  503 -0.00000000000E+00 -0.00000000000E+00 -0.38784926871E+03  0.38784926871E+03  0.00000000000E+00 0.  1.
          6    1    1    2  501    0 -0.23917775511E+02  0.49553128313E+02 -0.31896191364E+03  0.36653550287E+03  0.17200000000E+03 0.  1.
         -6    1    1    2    0  502  0.23917775511E+02 -0.49553128313E+02  0.13567087666E+03  0.22587199757E+03  0.17200000000E+03 0.  1.
</event>
<event>
 4    1  0.4539494E+000  0.2288875E+03  0.7818608E-02  0.1127425E+00
         21   -1    0    0  501  502  0.00000000000E+00  0.00000000000E+00  0.39383185872E+02  0.39383185872E+02  0.00000000000E+00 0. -1.
         21   -1    0    0  502  503 -0.00000000000E+00 -0.00000000000E+00 -0.13653127127E+04  0.13653127127E+04  0.00000000000E+00 0. -1.
          6    1    1    2  501    0  0.54056252834E+02  0.14100848558E+03 -0.77551873431E+03  0.80859061258E+03  0.17200000000E+03 0. -1.
         -6    1    1    2    0  503 -0.54056252834E+02 -0.14100848558E+03 -0.55041079253E+03  0.59610528601E+03  0.17200000000E+03 0. -1.
</event>
<event>
 4    1  0.4539494E+000  0.2047637E+03  0.7818608E-02  0.1145781E+00
         21   -1    0    0  501  502  0.00000000000E+00  0.00000000000E+00  0.56193905816E+03  0.56193905816E+03  0.00000000000E+00 0. -1.
         21   -1    0    0  502  503 -0.00000000000E+00 -0.00000000000E+00 -0.11540621434E+03  0.11540621434E+03  0.00000000000E+00 0. -1.
          6    1    1    2  501    0  0.95979907541E+02  0.55964481239E+02  0.42461914847E+03  0.47141233231E+03  0.17200000000E+03 0. -1.
         -6    1    1    2    0  503 -0.95979907541E+02 -0.55964481239E+02  0.21913695349E+02  0.20593294019E+03  0.17200000000E+03 0. -1.
</event>
<event>
 4    1  0.4539494E+000  0.1725075E+03  0.7818608E-02  0.1175258E+00
         21   -1    0    0  503  502  0.00000000000E+00  0.00000000000E+00  0.14226077587E+04  0.14226077587E+04  0.00000000000E+00 0. -1.
         21   -1    0    0  501  503 -0.00000000000E+00 -0.00000000000E+00 -0.22862301167E+02  0.22862301167E+02  0.00000000000E+00 0. -1.
          6    1    1    2  501    0  0.24782247138E+01 -0.12988951909E+02  0.91061049780E+03  0.92680652413E+03  0.17200000000E+03 0.  1.
         -6    1    1    2    0  502 -0.24782247138E+01  0.12988951909E+02  0.48913495973E+03  0.51866353574E+03  0.17200000000E+03 0.  1.
</event>
<event>
 4    1  0.4539494E+000  0.2540404E+03  0.7818608E-02  0.1110778E+00
         21   -1    0    0  501  502  0.00000000000E+00  0.00000000000E+00  0.20362779355E+03  0.20362779355E+03  0.00000000000E+00 0.  1.
         21   -1    0    0  502  503 -0.00000000000E+00 -0.00000000000E+00 -0.43727587012E+03  0.43727587012E+03  0.00000000000E+00 0.  1.
          6    1    1    2  501    0  0.14157002954E+03  0.12210845785E+03  0.51285973497E+02  0.25916558379E+03  0.17200000000E+03 0.  1.
         -6    1    1    2    0  503 -0.14157002954E+03 -0.12210845785E+03 -0.28493405007E+03  0.38173807988E+03  0.17200000000E+03 0.  1.
</event>
<event>
 4    1  0.4539494E+000  0.1788414E+03  0.7818608E-02  0.1168929E+00
         21   -1    0    0  501  502  0.00000000000E+00  0.00000000000E+00  0.12316520217E+04  0.12316520217E+04  0.00000000000E+00 0.  1.
         21   -1    0    0  502  503 -0.00000000000E+00 -0.00000000000E+00 -0.58484853368E+02  0.58484853368E+02  0.00000000000E+00 0.  1.
          6    1    1    2  501    0 -0.48701595444E+02  0.53303574232E+01  0.10675718166E+04  0.10824480780E+04  0.17200000000E+03 0.  1.
         -6    1    1    2    0  503  0.48701595444E+02 -0.53303574232E+01  0.10559535181E+03  0.20768879708E+03  0.17200000000E+03 0.  1.
</event>
<event>
 4    1  0.4539494E+000  0.1732073E+03  0.7818608E-02  0.1174544E+00
         21   -1    0    0  503  502  0.00000000000E+00  0.00000000000E+00  0.78192699917E+02  0.78192699917E+02  0.00000000000E+00 0.  1.
         21   -1    0    0  501  503 -0.00000000000E+00 -0.00000000000E+00 -0.41368742547E+03  0.41368742547E+03  0.00000000000E+00 0.  1.
          6    1    1    2  501    0 -0.72356744455E+01  0.19089651178E+02 -0.23398830324E+03  0.29112075814E+03  0.17200000000E+03 0.  1.
         -6    1    1    2    0  502  0.72356744455E+01 -0.19089651178E+02 -0.10150642231E+03  0.20075936725E+03  0.17200000000E+03 0.  1.
</event>
<event>
 4    1  0.4539494E+000  0.2068711E+03  0.7818608E-02  0.1144068E+00
         21   -1    0    0  503  502  0.00000000000E+00  0.00000000000E+00  0.23104242925E+02  0.23104242925E+02  0.00000000000E+00 0.  1.
         21   -1    0    0  501  503 -0.00000000000E+00 -0.00000000000E+00 -0.20772014421E+04  0.20772014421E+04  0.00000000000E+00 0. -1.
          6    1    1    2  501    0  0.11376407254E+03 -0.16413523854E+02 -0.68148917091E+03  0.71219601096E+03  0.17200000000E+03 0.  1.
         -6    1    1    2    0  502 -0.11376407254E+03  0.16413523854E+02 -0.13726080282E+04  0.13881096740E+04  0.17200000000E+03 0. -1.
</event>
<event>
 4    1  0.4539494E+000  0.2194736E+03  0.7818608E-02  0.1134276E+00
         21   -1    0    0  501  502  0.00000000000E+00  0.00000000000E+00  0.31202022989E+03  0.31202022989E+03  0.00000000000E+00 0. -1.
         21   -1    0    0  502  503 -0.00000000000E+00 -0.00000000000E+00 -0.26057725728E+03  0.26057725728E+03  0.00000000000E+00 0.  1.
          6    1    1    2  501    0  0.14851510254E+02 -0.13551413120E+03  0.20849557494E+03  0.30271942765E+03  0.17200000000E+03 0. -1.
         -6    1    1    2    0  503 -0.14851510254E+02  0.13551413120E+03 -0.15705260232E+03  0.26987805951E+03  0.17200000000E+03 0. -1.
</event>
<event>
 4    1  0.4539494E+000  0.1900637E+03  0.7818608E-02  0.1158404E+00
         21   -1    0    0  503  502  0.00000000000E+00  0.00000000000E+00  0.87074235941E+03  0.87074235941E+03  0.00000000000E+00 0. -1.
         21   -1    0    0  501  503 -0.00000000000E+00 -0.00000000000E+00 -0.56242342119E+02  0.56242342119E+02  0.00000000000E+00 0. -1.
          6    1    1    2  501    0 -0.79432767689E+02  0.15187134249E+02  0.16984484782E+03  0.25489504892E+03  0.17200000000E+03 0. -1.
         -6    1    1    2    0  502  0.79432767689E+02 -0.15187134249E+02  0.64465516947E+03  0.67208965262E+03  0.17200000000E+03 0. -1.
</event>
<event>
 4    1  0.4539494E+000  0.2012911E+03  0.7818608E-02  0.1148654E+00
         21   -1    0    0  501  502  0.00000000000E+00  0.00000000000E+00  0.36088334335E+03  0.36088334335E+03  0.00000000000E+00 0.  1.
         21   -1    0    0  502  503 -0.00000000000E+00 -0.00000000000E+00 -0.17889521315E+03  0.17889521315E+03  0.00000000000E+00 0.  1.
          6    1    1    2  501    0  0.55403845486E+02  0.88682167101E+02  0.25569264845E+03  0.32541795176E+03  0.17200000000E+03 0.  1.
         -6    1    1    2    0  503 -0.55403845486E+02 -0.88682167101E+02 -0.73704518243E+02  0.21436060474E+03  0.17200000000E+03 0.  1.
</event>
<event>
 4    1  0.4539494E+000  0.3102600E+03  0.7818608E-02  0.1080221E+00
         21   -1    0    0  503  502  0.00000000000E+00  0.00000000000E+00  0.30851081974E+03  0.30851081974E+03  0.00000000000E+00 0. -1.
         21   -1    0    0  501  503 -0.00000000000E+00 -0.00000000000E+00 -0.49862792654E+03  0.49862792654E+03  0.00000000000E+00 0. -1.
          6    1    1    2  501    0 -0.18160108693E+03  0.18357104369E+03 -0.34194425427E+03  0.46172194650E+03  0.17200000000E+03 0. -1.
         -6    1    1    2    0  502  0.18160108693E+03 -0.18357104369E+03  0.15182714747E+03  0.34541679977E+03  0.17200000000E+03 0. -1.
</event>
<event>
 4    1  0.4539494E+000  0.1817882E+03  0.7818608E-02  0.1166084E+00
         21   -1    0    0  501  502  0.00000000000E+00  0.00000000000E+00  0.74062792533E+03  0.74062792533E+03  0.00000000000E+00 0.  1.
         21   -1    0    0  502  503 -0.00000000000E+00 -0.00000000000E+00 -0.56282866152E+02  0.56282866152E+02  0.00000000000E+00 0.  1.
          6    1    1    2  501    0  0.29271521235E+02  0.51050233109E+02  0.52355319111E+03  0.55421556472E+03  0.17200000000E+03 0.  1.
         -6    1    1    2    0  503 -0.29271521235E+02 -0.51050233109E+02  0.16079186807E+03  0.24269522676E+03  0.17200000000E+03 0.  1.
</event>
<event>
 4    1  0.4539494E+000  0.2032828E+03  0.7818608E-02  0.1146998E+00
         21   -1    0    0  503  502  0.00000000000E+00  0.00000000000E+00  0.61514536823E+03  0.61514536823E+03  0.00000000000E+00 0. -1.
         21   -1    0    0  501  503 -0.00000000000E+00 -0.00000000000E+00 -0.68382034220E+02  0.68382034220E+02  0.00000000000E+00 0.  1.
          6    1    1    2  501    0 -0.92204885453E+02 -0.56904821549E+02  0.22802169185E+03  0.30547960909E+03  0.17200000000E+03 0.  1.
         -6    1    1    2    0  502  0.92204885453E+02  0.56904821549E+02  0.31874164216E+03  0.37804779336E+03  0.17200000000E+03 0.  1.
</event>
<event>
 4    1  0.4539494E+000  0.1739404E+03  0.7818608E-02  0.1173800E+00
         21   -1    0    0  501  502  0.00000000000E+00  0.00000000000E+00  0.35123716178E+03  0.35123716178E+03  0.00000000000E+00 0.  1.
         21   -1    0    0  502  503 -0.00000000000E+00 -0.00000000000E+00 -0.86444406306E+02  0.86444406306E+02  0.00000000000E+00 0.  1.
          6    1    1    2  501    0 -0.11616122613E+02 -0.23158469862E+02  0.11939061751E+03  0.21097243559E+03  0.17200000000E+03 0. -1.
         -6    1    1    2    0  503  0.11616122613E+02  0.23158469862E+02  0.14540213797E+03  0.22670913250E+03  0.17200000000E+03 0. -1.
</event>
<event>
 4    1  0.4539494E+000  0.1782807E+03  0.7818608E-02  0.1169477E+00
         21   -1    0    0  503  502  0.00000000000E+00  0.00000000000E+00  0.12125961238E+04  0.12125961238E+04  0.00000000000E+00 0. -1.
         21   -1    0    0  501  503 -0.00000000000E+00 -0.00000000000E+00 -0.41165499756E+02  0.41165499756E+02  0.00000000000E+00 0.  1.
          6    1    1    2  501    0 -0.39448551869E+02  0.25373254140E+02  0.20788513458E+03  0.27386167941E+03  0.17200000000E+03 0.  1.
         -6    1    1    2    0  502  0.39448551869E+02 -0.25373254140E+02  0.96354548943E+03  0.97989994412E+03  0.17200000000E+03 0. -1.
</event>
<event>
 4    1  0.4539494E+000  0.2033288E+03  0.7818608E-02  0.1146960E+00
         21   -1    0    0  503  502  0.00000000000E+00  0.00000000000E+00  0.19755990148E+03  0.19755990148E+03  0.00000000000E+00 0. -1.
         21   -1    0    0  501  503 -0.00000000000E+00 -0.00000000000E+00 -0.33274268796E+03  0.33274268796E+03  0.00000000000E+00 0.  1.
          6    1    1    2  501    0 -0.10843312253E+03 -0.93591975554E+00 -0.22911334485E+03  0.30632587680E+03  0.17200000000E+03 0.  1.
         -6    1    1    2    0  502  0.10843312253E+03  0.93591975554E+00  0.93930558377E+02  0.22397671264E+03  0.17200000000E+03 0. -1.
</event>
<event>
 4    1  0.4539494E+000  0.2025968E+03  0.7818608E-02  0.1147566E+00
         21   -1    0    0  501  502  0.00000000000E+00  0.00000000000E+00  0.34698593073E+03  0.34698593073E+03  0.00000000000E+00 0.  1.
         21   -1    0    0  502  503 -0.00000000000E+00 -0.00000000000E+00 -0.29722367813E+03  0.29722367813E+03  0.00000000000E+00 0.  1.
          6    1    1    2  501    0 -0.88885172780E+02 -0.59673121939E+02  0.27480044748E+03  0.34140993155E+03  0.17200000000E+03 0.  1.
         -6    1    1    2    0  503  0.88885172780E+02  0.59673121939E+02 -0.22503819489E+03  0.30279967731E+03  0.17200000000E+03 0.  1.
</event>
<event>
 4    1  0.4539494E+000  0.1793688E+03  0.7818608E-02  0.1168415E+00
         21   -1    0    0  501  502  0.00000000000E+00  0.00000000000E+00  0.43413853141E+03  0.43413853141E+03  0.00000000000E+00 0. -1.
         21   -1    0    0  502  503 -0.00000000000E+00 -0.00000000000E+00 -0.86042881390E+02  0.86042881390E+02  0.00000000000E+00 0. -1.
          6    1    1    2  501    0  0.34798862103E+02  0.37124220501E+02  0.27091466820E+03  0.32491218198E+03  0.17200000000E+03 0. -1.
         -6    1    1    2    0  503 -0.34798862103E+02 -0.37124220501E+02  0.77180981820E+02  0.19526923082E+03  0.17200000000E+03 0. -1.
</event>
<event>
 4    1  0.4539494E+000  0.2123617E+03  0.7818608E-02  0.1139709E+00
         21   -1    0    0  501  502  0.00000000000E+00  0.00000000000E+00  0.32572164871E+02  0.32572164871E+02  0.00000000000E+00 0.  1.
         21   -1    0    0  502  503 -0.00000000000E+00 -0.00000000000E+00 -0.15692635362E+04  0.15692635362E+04  0.00000000000E+00 0.  1.
          6    1    1    2  501    0  0.20506495567E+02 -0.12285348979E+03 -0.49355625541E+03  0.53730370701E+03  0.17200000000E+03 0.  1.
         -6    1    1    2    0  503 -0.20506495567E+02  0.12285348979E+03 -0.10431351160E+04  0.10645319941E+04  0.17200000000E+03 0.  1.
</event>
<event>
 4    1  0.4539494E+000  0.2126409E+03  0.7818608E-02  0.1139492E+00
         21   -1    0    0  501  502  0.00000000000E+00  0.00000000000E+00  0.94377354552E+03  0.94377354552E+03  0.00000000000E+00 0. -1.
         21   -1    0    0  502  503 -0.00000000000E+00 -0.00000000000E+00 -0.58850458648E+02  0.58850458648E+02  0.00000000000E+00 0. -1.
          6    1    1    2  501    0 -0.10060561811E+03  0.74233864299E+02  0.65860975510E+03  0.69208595313E+03  0.17200000000E+03 0. -1.
         -6    1    1    2    0  503  0.10060561811E+03 -0.74233864299E+02  0.22631333177E+03  0.31053805104E+03  0.17200000000E+03 0. -1.
</event>
<event>
 4    1  0.4539494E+000  0.2325616E+03  0.7818608E-02  0.1124850E+00
         21   -1    0    0  501  502  0.00000000000E+00  0.00000000000E+00  0.16441462167E+03  0.16441462167E+03  0.00000000000E+00 0. -1.
         21   -1    0    0  502  503 -0.00000000000E+00 -0.00000000000E+00 -0.34679725486E+03  0.34679725486E+03  0.00000000000E+00 0. -1.
          6    1    1    2  501    0 -0.15652723228E+03 -0.38024459525E+00 -0.14916953356E+03  0.27629055136E+03  0.17200000000E+03 0. -1.
         -6    1    1    2    0  503  0.15652723228E+03  0.38024459525E+00 -0.33213099625E+02  0.23492132516E+03  0.17200000000E+03 0. -1.
</event>
<event>
 4    1  0.4539494E+000  0.1821306E+03  0.7818608E-02  0.1165757E+00
         21   -1    0    0  501  502  0.00000000000E+00  0.00000000000E+00  0.53307080040E+03  0.53307080040E+03  0.00000000000E+00 0.  1.
         21   -1    0    0  502  503 -0.00000000000E+00 -0.00000000000E+00 -0.65501232551E+02  0.65501232551E+02  0.00000000000E+00 0.  1.
          6    1    1    2  501    0 -0.49272682921E+02  0.34055152533E+02  0.30069574847E+03  0.35155296022E+03  0.17200000000E+03 0.  1.
         -6    1    1    2    0  503  0.49272682921E+02 -0.34055152533E+02  0.16687381938E+03  0.24701907273E+03  0.17200000000E+03 0.  1.
</event>
<event>
 4    1  0.4539494E+000  0.3963832E+03  0.7818608E-02  0.1045039E+00
         21   -1    0    0  503  502  0.00000000000E+00  0.00000000000E+00  0.30128161246E+03  0.30128161246E+03  0.00000000000E+00 0. -1.
         21   -1    0    0  501  503 -0.00000000000E+00 -0.00000000000E+00 -0.83543981620E+03  0.83543981620E+03  0.00000000000E+00 0.  1.
          6    1    1    2  501    0  0.26676366648E+03  0.23742953348E+03 -0.61548599319E+03  0.73208103713E+03  0.17200000000E+03 0.  1.
         -6    1    1    2    0  502 -0.26676366648E+03 -0.23742953348E+03  0.81327789444E+02  0.40464039153E+03  0.17200000000E+03 0. -1.
</event>
<event>
 4    1  0.4539494E+000  0.2355190E+03  0.7818608E-02  0.1122814E+00
         21   -1    0    0  501  502  0.00000000000E+00  0.00000000000E+00  0.24714545555E+03  0.24714545555E+03  0.00000000000E+00 0. -1.
         21   -1    0    0  502  503 -0.00000000000E+00 -0.00000000000E+00 -0.22444837754E+03  0.22444837754E+03  0.00000000000E+00 0. -1.
          6    1    1    2  501    0 -0.14628372881E+03  0.66979692229E+02  0.12829454287E+02  0.23586819070E+03  0.17200000000E+03 0. -1.
         -6    1    1    2    0  503  0.14628372881E+03 -0.66979692229E+02  0.98676237261E+01  0.23572564240E+03  0.17200000000E+03 0. -1.
</event>
<event>
 4    1  0.4539494E+000  0.2031721E+03  0.7818608E-02  0.1147090E+00
         21   -1    0    0  503  502  0.00000000000E+00  0.00000000000E+00  0.48679234143E+03  0.48679234143E+03  0.00000000000E+00 0.  1.
         21   -1    0    0  501  503 -0.00000000000E+00 -0.00000000000E+00 -0.87850398417E+02  0.87850398417E+02  0.00000000000E+00 0. -1.
          6    1    1    2  501    0  0.57165965878E+02  0.91798535830E+02  0.25302979289E+03  0.32450422944E+03  0.17200000000E+03 0.  1.
         -6    1    1    2    0  502 -0.57165965878E+02 -0.91798535830E+02  0.14591215013E+03  0.25013851041E+03  0.17200000000E+03 0. -1.
</event>
<event>
 4    1  0.4539494E+000  0.1805102E+03  0.7818608E-02  0.1167310E+00
         21   -1    0    0  503  502  0.00000000000E+00  0.00000000000E+00  0.40147284218E+03  0.40147284218E+03  0.00000000000E+00 0.  1.
         21   -1    0    0  501  503 -0.00000000000E+00 -0.00000000000E+00 -0.91825027859E+02  0.91825027859E+02  0.00000000000E+00 0.  1.
          6    1    1    2  501    0  0.52625782764E+02 -0.15181151323E+02  0.23887806329E+03  0.29941053670E+03  0.17200000000E+03 0.  1.
         -6    1    1    2    0  502 -0.52625782764E+02  0.15181151323E+02  0.70769751028E+02  0.19388733333E+03  0.17200000000E+03 0.  1.
</event>
<event>
 4    1  0.4539494E+000  0.1819528E+03  0.7818608E-02  0.1165926E+00
         21   -1    0    0  503  502  0.00000000000E+00  0.00000000000E+00  0.77444574259E+03  0.77444574259E+03  0.00000000000E+00 0. -1.
         21   -1    0    0  501  503 -0.00000000000E+00 -0.00000000000E+00 -0.45163803666E+02  0.45163803666E+02  0.00000000000E+00 0.  1.
          6    1    1    2  501    0  0.32405382418E+02  0.49726277170E+02  0.26988225935E+03  0.32548924001E+03  0.17200000000E+03 0.  1.
         -6    1    1    2    0  502 -0.32405382418E+02 -0.49726277170E+02  0.45939967957E+03  0.49412030624E+03  0.17200000000E+03 0. -1.
</event>
<event>
 4    1  0.4539494E+000  0.1809623E+03  0.7818608E-02  0.1166875E+00
         21   -1    0    0  501  502  0.00000000000E+00  0.00000000000E+00  0.18763672940E+04  0.18763672940E+04  0.00000000000E+00 0. -1.
         21   -1    0    0  502  503 -0.00000000000E+00 -0.00000000000E+00 -0.55530707272E+02  0.55530707272E+02  0.00000000000E+00 0. -1.
          6    1    1    2  501    0 -0.51124232775E+02  0.23444825927E+02  0.17102998801E+04  0.17198468034E+04  0.17200000000E+03 0. -1.
         -6    1    1    2    0  503  0.51124232775E+02 -0.23444825927E+02  0.11053670663E+03  0.21205119795E+03  0.17200000000E+03 0. -1.
</event>
<event>
 4    1  0.4539494E+000  0.1749129E+03  0.7818608E-02  0.1172819E+00
         21   -1    0    0  503  502  0.00000000000E+00  0.00000000000E+00  0.13560389959E+03  0.13560389959E+03  0.00000000000E+00 0. -1.
         21   -1    0    0  501  503 -0.00000000000E+00 -0.00000000000E+00 -0.33594602625E+03  0.33594602625E+03  0.00000000000E+00 0. -1.
          6    1    1    2  501    0  0.13847473230E+02 -0.28614443427E+02 -0.23528741574E+03  0.29318033169E+03  0.17200000000E+03 0.  1.
         -6    1    1    2    0  502 -0.13847473230E+02  0.28614443427E+02  0.34945289073E+02  0.17836959415E+03  0.17200000000E+03 0.  1.
</event>
<event>
 4    1  0.4539494E+000  0.1940483E+03  0.7818608E-02  0.1154860E+00
         21   -1    0    0  503  502  0.00000000000E+00  0.00000000000E+00  0.68676480573E+03  0.68676480573E+03  0.00000000000E+00 0.  1.
         21   -1    0    0  501  503 -0.00000000000E+00 -0.00000000000E+00 -0.11109745351E+03  0.11109745351E+03  0.00000000000E+00 0.  1.
          6    1    1    2  501    0  0.74887474172E+02 -0.49624774356E+02  0.39256537367E+01  0.19408802842E+03  0.17200000000E+03 0.  1.
         -6    1    1    2    0  502 -0.74887474172E+02  0.49624774356E+02  0.57174169848E+03  0.60377423082E+03  0.17200000000E+03 0.  1.
</event>
<event>
 4    1  0.4539494E+000  0.2016548E+03  0.7818608E-02  0.1148350E+00
         21   -1    0    0  503  502  0.00000000000E+00  0.00000000000E+00  0.17978301444E+03  0.17978301444E+03  0.00000000000E+00 0. -1.
         21   -1    0    0  501  503 -0.00000000000E+00 -0.00000000000E+00 -0.39579076438E+03  0.39579076438E+03  0.00000000000E+00 0. -1.
          6    1    1    2  501    0  0.45175019498E+02  0.95078299306E+02 -0.29639277812E+03  0.35848757902E+03  0.17200000000E+03 0. -1.
         -6    1    1    2    0  502 -0.45175019498E+02 -0.95078299306E+02  0.80385028187E+02  0.21708619980E+03  0.17200000000E+03 0. -1.
</event>
<event>
 4    1  0.4539494E+000  0.1932437E+03  0.7818608E-02  0.1155568E+00
         21   -1    0    0  503  502  0.00000000000E+00  0.00000000000E+00  0.24047667320E+03  0.24047667320E+03  0.00000000000E+00 0.  1.
         21   -1    0    0  501  503 -0.00000000000E+00 -0.00000000000E+00 -0.15528900539E+03  0.15528900539E+03  0.00000000000E+00 0. -1.
          6    1    1    2  501    0  0.25399367770E+02 -0.84344579323E+02  0.43103224591E+02  0.19799248449E+03  0.17200000000E+03 0. -1.
         -6    1    1    2    0  502 -0.25399367770E+02  0.84344579323E+02  0.42084443221E+02  0.19777319410E+03  0.17200000000E+03 0.  1.
</event>
<event>
 4    1  0.4539494E+000  0.3401042E+03  0.7818608E-02  0.1066752E+00
         21   -1    0    0  503  502  0.00000000000E+00  0.00000000000E+00  0.50479510946E+03  0.50479510946E+03  0.00000000000E+00 0.  1.
         21   -1    0    0  501  503 -0.00000000000E+00 -0.00000000000E+00 -0.23243313249E+03  0.23243313249E+03  0.00000000000E+00 0.  1.
          6    1    1    2  501    0 -0.47240831529E+02  0.28957752156E+03  0.18002950706E+03  0.38481354000E+03  0.17200000000E+03 0.  1.
         -6    1    1    2    0  502  0.47240831529E+02 -0.28957752156E+03  0.92332469914E+02  0.35241470196E+03  0.17200000000E+03 0.  1.
</event>
<event>
 4    1  0.4539494E+000  0.1720208E+03  0.7818608E-02  0.1175757E+00
         21   -1    0    0  501  502  0.00000000000E+00  0.00000000000E+00  0.52080021461E+03  0.52080021461E+03  0.00000000000E+00 0.  1.
         21   -1    0    0  502  503 -0.00000000000E+00 -0.00000000000E+00 -0.60888608687E+02  0.60888608687E+02  0.00000000000E+00 0.  1.
          6    1    1    2  501    0 -0.26669657897E+01 -0.23341986612E+00  0.30515054711E+03  0.35029705050E+03  0.17200000000E+03 0.  1.
         -6    1    1    2    0  503  0.26669657897E+01  0.23341986612E+00  0.15476105882E+03  0.23139177280E+03  0.17200000000E+03 0.  1.
</event>
<event>
 4    1  0.4539494E+000  0.1825786E+03  0.7818608E-02  0.1165331E+00
         21   -1    0    0  501  502  0.00000000000E+00  0.00000000000E+00  0.31294694480E+03  0.31294694480E+03  0.00000000000E+00 0.  1.
         21   -1    0    0  502  503 -0.00000000000E+00 -0.00000000000E+00 -0.13455700988E+03  0.13455700988E+03  0.00000000000E+00 0.  1.
          6    1    1    2  501    0  0.18720249365E+02 -0.58313696813E+02  0.19133214714E+03  0.26446724845E+03  0.17200000000E+03 0.  1.
         -6    1    1    2    0  503 -0.18720249365E+02  0.58313696813E+02 -0.12942212226E+02  0.18303670624E+03  0.17200000000E+03 0.  1.
</event>
<event>
 4    1  0.4539494E+000  0.1890753E+03  0.7818608E-02  0.1159298E+00
         21   -1    0    0  501  502  0.00000000000E+00  0.00000000000E+00  0.15523421019E+03  0.15523421019E+03  0.00000000000E+00 0.  1.
         21   -1    0    0  502  503 -0.00000000000E+00 -0.00000000000E+00 -0.28101325742E+03  0.28101325742E+03  0.00000000000E+00 0.  1.
          6    1    1    2  501    0  0.27877189064E+02  0.73405380435E+02  0.29777775232E+02  0.19140586053E+03  0.17200000000E+03 0.  1.
         -6    1    1    2    0  503 -0.27877189064E+02 -0.73405380435E+02 -0.15555682246E+03  0.24484160709E+03  0.17200000000E+03 0.  1.
</event>
<event>
 4    1  0.4539494E+000  0.2382651E+03  0.7818608E-02  0.1120954E+00
         21   -1    0    0  501  502  0.00000000000E+00  0.00000000000E+00  0.38841173367E+03  0.38841173367E+03  0.00000000000E+00 0.  1.
         21   -1    0    0  502  503 -0.00000000000E+00 -0.00000000000E+00 -0.63756380618E+03  0.63756380618E+03  0.00000000000E+00 0.  1.
          6    1    1    2  501    0 -0.16101041205E+03 -0.35522987910E+02  0.32578879436E+03  0.40361934293E+03  0.17200000000E+03 0.  1.
         -6    1    1    2    0  503  0.16101041205E+03  0.35522987910E+02 -0.57494086686E+03  0.62235619692E+03  0.17200000000E+03 0.  1.
</event>
<event>
 4    1  0.4539494E+000  0.3371052E+03  0.7818608E-02  0.1068036E+00
         21   -1    0    0  501  502  0.00000000000E+00  0.00000000000E+00  0.42323856648E+03  0.42323856648E+03  0.00000000000E+00 0.  1.
         21   -1    0    0  502  503 -0.00000000000E+00 -0.00000000000E+00 -0.34721752815E+03  0.34721752815E+03  0.00000000000E+00 0. -1.
          6    1    1    2  501    0  0.19266281260E+03 -0.21664933121E+03 -0.14541113533E+03  0.36712980042E+03  0.17200000000E+03 0. -1.
         -6    1    1    2    0  503 -0.19266281260E+03  0.21664933121E+03  0.22143217366E+03  0.40332629422E+03  0.17200000000E+03 0.  1.
</event>
<event>
 4    1  0.4539494E+000  0.1807639E+03  0.7818608E-02  0.1167066E+00
         21   -1    0    0  501  502  0.00000000000E+00  0.00000000000E+00  0.54900758032E+03  0.54900758032E+03  0.00000000000E+00 0.  1.
         21   -1    0    0  502  503 -0.00000000000E+00 -0.00000000000E+00 -0.61253347812E+02  0.61253347812E+02  0.00000000000E+00 0.  1.
          6    1    1    2  501    0 -0.38470295579E+02 -0.40145179285E+02  0.19251211868E+03  0.26407672162E+03  0.17200000000E+03 0.  1.
         -6    1    1    2    0  503  0.38470295579E+02  0.40145179285E+02  0.29524211383E+03  0.34618420651E+03  0.17200000000E+03 0.  1.
</event>
<event>
 4    1  0.4539494E+000  0.1946583E+03  0.7818608E-02  0.1154326E+00
         21   -1    0    0  501  502  0.00000000000E+00  0.00000000000E+00  0.45487773144E+02  0.45487773144E+02  0.00000000000E+00 0. -1.
         21   -1    0    0  502  503 -0.00000000000E+00 -0.00000000000E+00 -0.99363016250E+03  0.99363016250E+03  0.00000000000E+00 0.  1.
          6    1    1    2  501    0  0.22318743065E+02 -0.88372617404E+02 -0.68296243905E+03  0.71016162875E+03  0.17200000000E+03 0.  1.
         -6    1    1    2    0  503 -0.22318743065E+02  0.88372617404E+02 -0.26517995030E+03  0.32895630689E+03  0.17200000000E+03 0. -1.
</event>
<event>
 4    1  0.4539494E+000  0.1904365E+03  0.7818608E-02  0.1158068E+00
         21   -1    0    0  503  502  0.00000000000E+00  0.00000000000E+00  0.24909390736E+04  0.24909390736E+04  0.00000000000E+00 0.  1.
         21   -1    0    0  501  503 -0.00000000000E+00 -0.00000000000E+00 -0.16107303425E+02  0.16107303425E+02  0.00000000000E+00 0.  1.
          6    1    1    2  501    0 -0.46024288709E+02 -0.67555957277E+02  0.84879775489E+03  0.86989865572E+03  0.17200000000E+03 0.  1.
         -6    1    1    2    0  502  0.46024288709E+02  0.67555957277E+02  0.16260340153E+04  0.16371477213E+04  0.17200000000E+03 0.  1.
</event>
<event>
 4    1  0.4539494E+000  0.2078698E+03  0.7818608E-02  0.1143264E+00
         21   -1    0    0  503  502  0.00000000000E+00  0.00000000000E+00  0.39960084815E+02  0.39960084815E+02  0.00000000000E+00 0.  1.
         21   -1    0    0  501  503 -0.00000000000E+00 -0.00000000000E+00 -0.12048604207E+04  0.12048604207E+04  0.00000000000E+00 0. -1.
          6    1    1    2  501    0  0.54084017208E+02  0.10344447472E+03 -0.38315165887E+03  0.43590713915E+03  0.17200000000E+03 0.  1.
         -6    1    1    2    0  502 -0.54084017208E+02 -0.10344447472E+03 -0.78174867704E+03  0.80891336639E+03  0.17200000000E+03 0. -1.
</event>
<event>
 4    1  0.4539494E+000  0.2027684E+03  0.7818608E-02  0.1147424E+00
         21   -1    0    0  503  502  0.00000000000E+00  0.00000000000E+00  0.10816407747E+03  0.10816407747E+03  0.00000000000E+00 0.  1.
         21   -1    0    0  501  503 -0.00000000000E+00 -0.00000000000E+00 -0.38172380556E+03  0.38172380556E+03  0.00000000000E+00 0.  1.
          6    1    1    2  501    0  0.10700835370E+03  0.89564181600E+01 -0.12088806551E+03  0.23606975573E+03  0.17200000000E+03 0.  1.
         -6    1    1    2    0  502 -0.10700835370E+03 -0.89564181600E+01 -0.15267166259E+03  0.25381812730E+03  0.17200000000E+03 0.  1.
</event>
<event>
 4    1  0.4539494E+000  0.1730411E+03  0.7818608E-02  0.1174713E+00
         21   -1    0    0  501  502  0.00000000000E+00  0.00000000000E+00  0.52022959890E+02  0.52022959890E+02  0.00000000000E+00 0.  1.
         21   -1    0    0  502  503 -0.00000000000E+00 -0.00000000000E+00 -0.57986178400E+03  0.57986178400E+03  0.00000000000E+00 0.  1.
          6    1    1    2  501    0  0.15615625623E+02 -0.10741330242E+02 -0.29107789243E+03  0.33862894649E+03  0.17200000000E+03 0. -1.
         -6    1    1    2    0  503 -0.15615625623E+02  0.10741330242E+02 -0.23676093168E+03  0.29325579740E+03  0.17200000000E+03 0. -1.
</event>
<event>
 4    1  0.4539494E+000  0.1875127E+03  0.7818608E-02  0.1160724E+00
         21   -1    0    0  503  502  0.00000000000E+00  0.00000000000E+00  0.56909952639E+03  0.56909952639E+03  0.00000000000E+00 0.  1.
         21   -1    0    0  501  503 -0.00000000000E+00 -0.00000000000E+00 -0.16485980049E+03  0.16485980049E+03  0.00000000000E+00 0.  1.
          6    1    1    2  501    0 -0.10400717168E+02  0.73951600100E+02 -0.88057698371E+02  0.20715977485E+03  0.17200000000E+03 0.  1.
         -6    1    1    2    0  502  0.10400717168E+02 -0.73951600100E+02  0.49229742427E+03  0.52679955202E+03  0.17200000000E+03 0.  1.
</event>
<event>
 4    1  0.4539494E+000  0.2198568E+03  0.7818608E-02  0.1133990E+00
         21   -1    0    0  503  502  0.00000000000E+00  0.00000000000E+00  0.28937856397E+03  0.28937856397E+03  0.00000000000E+00 0.  1.
         21   -1    0    0  501  503 -0.00000000000E+00 -0.00000000000E+00 -0.37432000338E+03  0.37432000338E+03  0.00000000000E+00 0. -1.
          6    1    1    2  501    0  0.38097029128E+02  0.13153572919E+03 -0.28941605932E+03  0.36345383073E+03  0.17200000000E+03 0. -1.
         -6    1    1    2    0  502 -0.38097029128E+02 -0.13153572919E+03  0.20447461990E+03  0.30024473662E+03  0.17200000000E+03 0.  1.
</event>
<event>
 4    1  0.4539494E+000  0.2115655E+03  0.7818608E-02  0.1140332E+00
         21   -1    0    0  501  502  0.00000000000E+00  0.00000000000E+00  0.10414606480E+04  0.10414606480E+04  0.00000000000E+00 0.  1.
         21   -1    0    0  502  503 -0.00000000000E+00 -0.00000000000E+00 -0.16493971423E+03  0.16493971423E+03  0.00000000000E+00 0.  1.
          6    1    1    2  501    0 -0.98961675920E+02 -0.73365879586E+02  0.95695358375E+03  0.98006128739E+03  0.17200000000E+03 0.  1.
         -6    1    1    2    0  503  0.98961675920E+02  0.73365879586E+02 -0.80432650022E+02  0.22633907479E+03  0.17200000000E+03 0.  1.
</event>
<event>
 4    1  0.4539494E+000  0.2266256E+03  0.7818608E-02  0.1129038E+00
         21   -1    0    0  503  502  0.00000000000E+00  0.00000000000E+00  0.44089479345E+03  0.44089479345E+03  0.00000000000E+00 0.  1.
         21   -1    0    0  501  503 -0.00000000000E+00 -0.00000000000E+00 -0.16785961984E+03  0.16785961984E+03  0.00000000000E+00 0. -1.
          6    1    1    2  501    0 -0.47198336095E+02  0.13981230238E+03 -0.31865561329E+02  0.22885492528E+03  0.17200000000E+03 0. -1.
         -6    1    1    2    0  502  0.47198336095E+02 -0.13981230238E+03  0.30490073493E+03  0.37989948801E+03  0.17200000000E+03 0.  1.
</event>
<event>
 4    1  0.4539494E+000  0.2095142E+03  0.7818608E-02  0.1141951E+00
         21   -1    0    0  501  502  0.00000000000E+00  0.00000000000E+00  0.47809587254E+02  0.47809587254E+02  0.00000000000E+00 0. -1.
         21   -1    0    0  502  503 -0.00000000000E+00 -0.00000000000E+00 -0.92785660774E+03  0.92785660774E+03  0.00000000000E+00 0. -1.
          6    1    1    2  501    0  0.77807283776E+02 -0.90874826668E+02 -0.39011877387E+03  0.44281922413E+03  0.17200000000E+03 0. -1.
         -6    1    1    2    0  503 -0.77807283776E+02  0.90874826668E+02 -0.48992824662E+03  0.53284697087E+03  0.17200000000E+03 0. -1.
</event>
<event>
 4    1  0.4539494E+000  0.2169520E+03  0.7818608E-02  0.1136176E+00
         21   -1    0    0  501  502  0.00000000000E+00  0.00000000000E+00  0.35076708175E+03  0.35076708175E+03  0.00000000000E+00 0.  1.
         21   -1    0    0  502  503 -0.00000000000E+00 -0.00000000000E+00 -0.15018838642E+03  0.15018838642E+03  0.00000000000E+00 0.  1.
          6    1    1    2  501    0  0.12539245316E+03 -0.41963065878E+02  0.18204882767E+03  0.28321359760E+03  0.17200000000E+03 0.  1.
         -6    1    1    2    0  503 -0.12539245316E+03  0.41963065878E+02  0.18529867661E+02  0.21774187058E+03  0.17200000000E+03 0.  1.
</event>
<event>
 4    1  0.4539494E+000  0.2356333E+03  0.7818608E-02  0.1122736E+00
         21   -1    0    0  503  502  0.00000000000E+00  0.00000000000E+00  0.15654543469E+03  0.15654543469E+03  0.00000000000E+00 0. -1.
         21   -1    0    0  501  503 -0.00000000000E+00 -0.00000000000E+00 -0.73087183607E+03  0.73087183607E+03  0.00000000000E+00 0. -1.
          6    1    1    2  501    0 -0.15681193283E+03  0.36729738199E+02 -0.60549770644E+03  0.64973112012E+03  0.17200000000E+03 0. -1.
         -6    1    1    2    0  502  0.15681193283E+03 -0.36729738199E+02  0.31171305069E+02  0.23768615064E+03  0.17200000000E+03 0. -1.
</event>
<event>
 4    1  0.4539494E+000  0.2610344E+03  0.7818608E-02  0.1106523E+00
         21   -1    0    0  501  502  0.00000000000E+00  0.00000000000E+00  0.94752638389E+03  0.94752638389E+03  0.00000000000E+00 0. -1.
         21   -1    0    0  502  503 -0.00000000000E+00 -0.00000000000E+00 -0.73087828569E+02  0.73087828569E+02  0.00000000000E+00 0. -1.
          6    1    1    2  501    0  0.80640798483E+01  0.19618850193E+03  0.50193283097E+03  0.56575217585E+03  0.17200000000E+03 0. -1.
         -6    1    1    2    0  503 -0.80640798483E+01 -0.19618850193E+03  0.37250572435E+03  0.45486203661E+03  0.17200000000E+03 0. -1.
</event>
<event>
 4    1  0.4539494E+000  0.2810806E+03  0.7818608E-02  0.1095100E+00
         21   -1    0    0  503  502  0.00000000000E+00  0.00000000000E+00  0.26428469584E+03  0.26428469584E+03  0.00000000000E+00 0. -1.
         21   -1    0    0  501  503 -0.00000000000E+00 -0.00000000000E+00 -0.35865790076E+03  0.35865790076E+03  0.00000000000E+00 0.  1.
          6    1    1    2  501    0 -0.20909622133E+03 -0.75505375773E+02 -0.17427795488E+03  0.33072510806E+03  0.17200000000E+03 0.  1.
         -6    1    1    2    0  502  0.20909622133E+03  0.75505375773E+02  0.79904749953E+02  0.29221748854E+03  0.17200000000E+03 0.  1.
</event>
<event>
 4    1  0.4539494E+000  0.1750528E+03  0.7818608E-02  0.1172679E+00
         21   -1    0    0  501  502  0.00000000000E+00  0.00000000000E+00  0.21845359756E+03  0.21845359756E+03  0.00000000000E+00 0.  1.
         21   -1    0    0  502  503 -0.00000000000E+00 -0.00000000000E+00 -0.27810154047E+03  0.27810154047E+03  0.00000000000E+00 0.  1.
          6    1    1    2  501    0  0.32142430196E+02 -0.51314586271E+01  0.14496056746E+03  0.22728183782E+03  0.17200000000E+03 0.  1.
         -6    1    1    2    0  503 -0.32142430196E+02  0.51314586271E+01 -0.20460851037E+03  0.26927330020E+03  0.17200000000E+03 0.  1.
</event>
<event>
 4    1  0.4539494E+000  0.1739012E+03  0.7818608E-02  0.1173840E+00
         21   -1    0    0  503  502  0.00000000000E+00  0.00000000000E+00  0.80760311125E+03  0.80760311125E+03  0.00000000000E+00 0. -1.
         21   -1    0    0  501  503 -0.00000000000E+00 -0.00000000000E+00 -0.91970401833E+02  0.91970401833E+02  0.00000000000E+00 0. -1.
          6    1    1    2  501    0 -0.25594592158E+02  0.15943671160E+01  0.11496420895E+02  0.17428078737E+03  0.17200000000E+03 0. -1.
         -6    1    1    2    0  502  0.25594592158E+02 -0.15943671160E+01  0.70413628852E+03  0.72529272571E+03  0.17200000000E+03 0. -1.
</event>
<event>
 4    1  0.4539494E+000  0.2230458E+03  0.7818608E-02  0.1131632E+00
         21   -1    0    0  503  502  0.00000000000E+00  0.00000000000E+00  0.18659894741E+03  0.18659894741E+03  0.00000000000E+00 0. -1.
         21   -1    0    0  501  503 -0.00000000000E+00 -0.00000000000E+00 -0.42874285167E+03  0.42874285167E+03  0.00000000000E+00 0.  1.
          6    1    1    2  501    0 -0.42657381612E+02 -0.13544661683E+03  0.68128157591E+02  0.23321853287E+03  0.17200000000E+03 0. -1.
         -6    1    1    2    0  502  0.42657381612E+02  0.13544661683E+03 -0.31027206186E+03  0.38212326622E+03  0.17200000000E+03 0.  1.
</event>
<event>
 4    1  0.4539494E+000  0.2147842E+03  0.7818608E-02  0.1137832E+00
         21   -1    0    0  501  502  0.00000000000E+00  0.00000000000E+00  0.10005686854E+04  0.10005686854E+04  0.00000000000E+00 0.  1.
         21   -1    0    0  502  503 -0.00000000000E+00 -0.00000000000E+00 -0.46299081657E+02  0.46299081657E+02  0.00000000000E+00 0.  1.
          6    1    1    2  501    0  0.11949831171E+03  0.47627863267E+02  0.44333601357E+03  0.49262468553E+03  0.17200000000E+03 0.  1.
         -6    1    1    2    0  503 -0.11949831171E+03 -0.47627863267E+02  0.51093359018E+03  0.55424308153E+03  0.17200000000E+03 0.  1.
</event>
<event>
 4    1  0.4539494E+000  0.1808956E+03  0.7818608E-02  0.1166939E+00
         21   -1    0    0  501  502  0.00000000000E+00  0.00000000000E+00  0.86418569742E+03  0.86418569742E+03  0.00000000000E+00 0. -1.
         21   -1    0    0  502  503 -0.00000000000E+00 -0.00000000000E+00 -0.43773752223E+02  0.43773752223E+02  0.00000000000E+00 0.  1.
          6    1    1    2  501    0  0.74348248055E+01 -0.55533107129E+02  0.57698558511E+03  0.60467806974E+03  0.17200000000E+03 0. -1.
         -6    1    1    2    0  503 -0.74348248055E+01  0.55533107129E+02  0.24342636009E+03  0.30328137990E+03  0.17200000000E+03 0.  1.
</event>
<event>
 4    1  0.4539494E+000  0.1851917E+03  0.7818608E-02  0.1162871E+00
         21   -1    0    0  503  502  0.00000000000E+00  0.00000000000E+00  0.11364833930E+03  0.11364833930E+03  0.00000000000E+00 0.  1.
         21   -1    0    0  501  503 -0.00000000000E+00 -0.00000000000E+00 -0.58486220327E+03  0.58486220327E+03  0.00000000000E+00 0.  1.
          6    1    1    2  501    0  0.27249342483E+02  0.63003374300E+02 -0.47859120872E+03  0.51317199544E+03  0.17200000000E+03 0.  1.
         -6    1    1    2    0  502 -0.27249342483E+02 -0.63003374300E+02  0.73773447456E+01  0.18533854714E+03  0.17200000000E+03 0.  1.
</event>
<event>
 4    1  0.4539494E+000  0.1786061E+03  0.7818608E-02  0.1169159E+00
         21   -1    0    0  501  502  0.00000000000E+00  0.00000000000E+00  0.25720971561E+03  0.25720971561E+03  0.00000000000E+00 0.  1.
         21   -1    0    0  502  503 -0.00000000000E+00 -0.00000000000E+00 -0.39319246149E+03  0.39319246149E+03  0.00000000000E+00 0.  1.
          6    1    1    2  501    0  0.68956272844E+01 -0.47629702571E+02  0.20107635369E+03  0.26894579055E+03  0.17200000000E+03 0.  1.
         -6    1    1    2    0  503 -0.68956272844E+01  0.47629702571E+02 -0.33705909956E+03  0.38145638655E+03  0.17200000000E+03 0.  1.
</event>
<event>
 4    1  0.4539494E+000  0.2108936E+03  0.7818608E-02  0.1140860E+00
         21   -1    0    0  501  502  0.00000000000E+00  0.00000000000E+00  0.34623024421E+02  0.34623024421E+02  0.00000000000E+00 0.  1.
         21   -1    0    0  502  503 -0.00000000000E+00 -0.00000000000E+00 -0.15425108333E+04  0.15425108333E+04  0.00000000000E+00 0. -1.
          6    1    1    2  501    0 -0.18743900195E+02  0.12058516217E+03 -0.43148500570E+03  0.48026599429E+03  0.17200000000E+03 0.  1.
         -6    1    1    2    0  503  0.18743900195E+02 -0.12058516217E+03 -0.10764028032E+04  0.10968678634E+04  0.17200000000E+03 0. -1.
</event>
<event>
 4    1  0.4539494E+000  0.1850499E+03  0.7818608E-02  0.1163003E+00
         21   -1    0    0  503  502  0.00000000000E+00  0.00000000000E+00  0.86082302940E+02  0.86082302940E+02  0.00000000000E+00 0.  1.
         21   -1    0    0  501  503 -0.00000000000E+00 -0.00000000000E+00 -0.49301173834E+03  0.49301173834E+03  0.00000000000E+00 0.  1.
          6    1    1    2  501    0 -0.55474947993E+02 -0.39774343666E+02 -0.33070880801E+03  0.37896145446E+03  0.17200000000E+03 0.  1.
         -6    1    1    2    0  502  0.55474947993E+02  0.39774343666E+02 -0.76220627390E+02  0.20013258682E+03  0.17200000000E+03 0.  1.
</event>
<event>
 4    1  0.4539494E+000  0.2077699E+03  0.7818608E-02  0.1143344E+00
         21   -1    0    0  501  502  0.00000000000E+00  0.00000000000E+00  0.17015131757E+03  0.17015131757E+03  0.00000000000E+00 0.  1.
         21   -1    0    0  502  503 -0.00000000000E+00 -0.00000000000E+00 -0.33609362908E+03  0.33609362908E+03  0.00000000000E+00 0.  1.
          6    1    1    2  501    0  0.10676547714E+03  0.46748921971E+02  0.42352434555E+02  0.21204258423E+03  0.17200000000E+03 0.  1.
         -6    1    1    2    0  503 -0.10676547714E+03 -0.46748921971E+02 -0.20829474607E+03  0.29420236242E+03  0.17200000000E+03 0.  1.
</event>
<event>
 4    1  0.4539494E+000  0.2014667E+03  0.7818608E-02  0.1148507E+00
         21   -1    0    0  503  502  0.00000000000E+00  0.00000000000E+00  0.31913033129E+03  0.31913033129E+03  0.00000000000E+00 0.  1.
         21   -1    0    0  501  503 -0.00000000000E+00 -0.00000000000E+00 -0.13816935743E+03  0.13816935743E+03  0.00000000000E+00 0. -1.
          6    1    1    2  501    0  0.33822654550E+02  0.99301925621E+02  0.26013602258E+02  0.20313924263E+03  0.17200000000E+03 0.  1.
         -6    1    1    2    0  502 -0.33822654550E+02 -0.99301925621E+02  0.15494737160E+03  0.25416044609E+03  0.17200000000E+03 0. -1.
</event>
<event>
 4    1  0.4539494E+000  0.1923205E+03  0.7818608E-02  0.1156385E+00
         21   -1    0    0  503  502  0.00000000000E+00  0.00000000000E+00  0.30043591259E+03  0.30043591259E+03  0.00000000000E+00 0. -1.
         21   -1    0    0  501  503 -0.00000000000E+00 -0.00000000000E+00 -0.12342675019E+03  0.12342675019E+03  0.00000000000E+00 0. -1.
          6    1    1    2  501    0  0.77766880371E+02 -0.36816926311E+02  0.77797146762E+02  0.20745980283E+03  0.17200000000E+03 0. -1.
         -6    1    1    2    0  502 -0.77766880371E+02  0.36816926311E+02  0.99212015642E+02  0.21640285995E+03  0.17200000000E+03 0. -1.
</event>
<event>
 4    1  0.4539494E+000  0.2501343E+03  0.7818608E-02  0.1113220E+00
         21   -1    0    0  501  502  0.00000000000E+00  0.00000000000E+00  0.16884135923E+03  0.16884135923E+03  0.00000000000E+00 0.  1.
         21   -1    0    0  502  503 -0.00000000000E+00 -0.00000000000E+00 -0.43149729628E+03  0.43149729628E+03  0.00000000000E+00 0. -1.
          6    1    1    2  501    0 -0.18053150051E+03  0.19787210280E+02 -0.18532571641E+02  0.25081988075E+03  0.17200000000E+03 0.  1.
         -6    1    1    2    0  503  0.18053150051E+03 -0.19787210280E+02 -0.24412336541E+03  0.34951877476E+03  0.17200000000E+03 0. -1.
</event>
<event>
 4    1  0.4539494E+000  0.5315943E+03  0.7818608E-02  0.1005846E+00
         21   -1    0    0  501  502  0.00000000000E+00  0.00000000000E+00  0.10537426864E+04  0.10537426864E+04  0.00000000000E+00 0.  1.
         21   -1    0    0  502  503 -0.00000000000E+00 -0.00000000000E+00 -0.75026685216E+03  0.75026685216E+03  0.00000000000E+00 0. -1.
          6    1    1    2  501    0  0.42401025390E+03  0.27059897385E+03  0.87478019001E+03  0.10236370846E+04  0.17200000000E+03 0.  1.
         -6    1    1    2    0  503 -0.42401025390E+03 -0.27059897385E+03 -0.57130435576E+03  0.78037245401E+03  0.17200000000E+03 0. -1.
</event>
<event>
 4    1  0.4539494E+000  0.1861944E+03  0.7818608E-02  0.1161939E+00
         21   -1    0    0  503  502  0.00000000000E+00  0.00000000000E+00  0.10617329031E+03  0.10617329031E+03  0.00000000000E+00 0.  1.
         21   -1    0    0  501  503 -0.00000000000E+00 -0.00000000000E+00 -0.56772606952E+03  0.56772606952E+03  0.00000000000E+00 0.  1.
          6    1    1    2  501    0  0.40077496259E+01 -0.71191846667E+02 -0.45040268341E+03  0.48737143773E+03  0.17200000000E+03 0.  1.
         -6    1    1    2    0  502 -0.40077496259E+01  0.71191846667E+02 -0.11150095794E+02  0.18652792211E+03  0.17200000000E+03 0.  1.
</event>
<event>
 4    1  0.4539494E+000  0.1849649E+03  0.7818608E-02  0.1163083E+00
         21   -1    0    0  503  502  0.00000000000E+00  0.00000000000E+00  0.18619771534E+03  0.18619771534E+03  0.00000000000E+00 0.  1.
         21   -1    0    0  501  503 -0.00000000000E+00 -0.00000000000E+00 -0.49301378730E+03  0.49301378730E+03  0.00000000000E+00 0.  1.
          6    1    1    2  501    0  0.53779782468E+02  0.41662246038E+02 -0.42238612977E+03  0.46110958607E+03  0.17200000000E+03 0.  1.
         -6    1    1    2    0  502 -0.53779782468E+02 -0.41662246038E+02  0.11557005781E+03  0.21810191656E+03  0.17200000000E+03 0.  1.
</event>
<event>
 4    1  0.4539494E+000  0.1983528E+03  0.7818608E-02  0.1151136E+00
         21   -1    0    0  501  502  0.00000000000E+00  0.00000000000E+00  0.40658399587E+03  0.40658399587E+03  0.00000000000E+00 0.  1.
         21   -1    0    0  502  503 -0.00000000000E+00 -0.00000000000E+00 -0.10964715304E+03  0.10964715304E+03  0.00000000000E+00 0.  1.
          6    1    1    2  501    0  0.18366625561E+02 -0.97069475685E+02  0.23693517370E+03  0.30900176793E+03  0.17200000000E+03 0.  1.
         -6    1    1    2    0  503 -0.18366625561E+02  0.97069475685E+02  0.60001669136E+02  0.20722938098E+03  0.17200000000E+03 0.  1.
</event>
<event>
 4    1  0.4539494E+000  0.1889491E+03  0.7818608E-02  0.1159413E+00
         21   -1    0    0  501  502  0.00000000000E+00  0.00000000000E+00  0.11091180765E+04  0.11091180765E+04  0.00000000000E+00 0. -1.
         21   -1    0    0  502  503 -0.00000000000E+00 -0.00000000000E+00 -0.32947491269E+02  0.32947491269E+02  0.00000000000E+00 0. -1.
          6    1    1    2  501    0  0.62653037965E+02  0.46822484367E+02  0.62470879029E+03  0.65265827266E+03  0.17200000000E+03 0.  1.
         -6    1    1    2    0  503 -0.62653037965E+02 -0.46822484367E+02  0.45146179489E+03  0.48940729506E+03  0.17200000000E+03 0.  1.
</event>
<event>
 4    1  0.4539494E+000  0.2158815E+03  0.7818608E-02  0.1136991E+00
         21   -1    0    0  501  502  0.00000000000E+00  0.00000000000E+00  0.12342725200E+04  0.12342725200E+04  0.00000000000E+00 0. -1.
         21   -1    0    0  502  503 -0.00000000000E+00 -0.00000000000E+00 -0.37878233022E+02  0.37878233022E+02  0.00000000000E+00 0.  1.
          6    1    1    2  501    0  0.71156974454E+02 -0.10935033145E+03  0.56249954689E+03  0.60250356867E+03  0.17200000000E+03 0. -1.
         -6    1    1    2    0  503 -0.71156974454E+02  0.10935033145E+03  0.63389474004E+03  0.66964718431E+03  0.17200000000E+03 0.  1.
</event>
<event>
 4    1  0.4539494E+000  0.1996250E+03  0.7818608E-02  0.1150056E+00
         21   -1    0    0  503  502  0.00000000000E+00  0.00000000000E+00  0.19727025489E+03  0.19727025489E+03  0.00000000000E+00 0. -1.
         21   -1    0    0  501  503 -0.00000000000E+00 -0.00000000000E+00 -0.25633660234E+03  0.25633660234E+03  0.00000000000E+00 0. -1.
          6    1    1    2  501    0  0.99633169248E+02  0.18422196371E+02  0.74880903473E+02  0.21320716554E+03  0.17200000000E+03 0. -1.
         -6    1    1    2    0  502 -0.99633169248E+02 -0.18422196371E+02 -0.13394725092E+03  0.24039969169E+03  0.17200000000E+03 0. -1.
</event>
<event>
 4    1  0.4539494E+000  0.1772581E+03  0.7818608E-02  0.1170483E+00
         21   -1    0    0  501  502  0.00000000000E+00  0.00000000000E+00  0.47058818393E+03  0.47058818393E+03  0.00000000000E+00 0. -1.
         21   -1    0    0  502  503 -0.00000000000E+00 -0.00000000000E+00 -0.83725144068E+02  0.83725144068E+02  0.00000000000E+00 0. -1.
          6    1    1    2  501    0  0.23458783340E+02  0.35862467560E+02  0.31816076880E+03  0.36420695477E+03  0.17200000000E+03 0. -1.
         -6    1    1    2    0  503 -0.23458783340E+02 -0.35862467560E+02  0.68702271063E+02  0.19010637323E+03  0.17200000000E+03 0. -1.
</event>
<event>
 4    1  0.4539494E+000  0.1799854E+03  0.7818608E-02  0.1167817E+00
         21   -1    0    0  501  502  0.00000000000E+00  0.00000000000E+00  0.10504560484E+03  0.10504560484E+03  0.00000000000E+00 0.  1.
         21   -1    0    0  502  503 -0.00000000000E+00 -0.00000000000E+00 -0.44492081490E+03  0.44492081490E+03  0.00000000000E+00 0.  1.
          6    1    1    2  501    0 -0.16524998898E+02 -0.50375139254E+02 -0.17607951688E+02  0.18084460237E+03  0.17200000000E+03 0.  1.
         -6    1    1    2    0  503  0.16524998898E+02  0.50375139254E+02 -0.32226725837E+03  0.36912181737E+03  0.17200000000E+03 0.  1.
</event>
<event>
 4    1  0.4539494E+000  0.1903211E+03  0.7818608E-02  0.1158172E+00
         21   -1    0    0  503  502  0.00000000000E+00  0.00000000000E+00  0.95831866510E+03  0.95831866510E+03  0.00000000000E+00 0.  1.
         21   -1    0    0  501  503 -0.00000000000E+00 -0.00000000000E+00 -0.56249594238E+02  0.56249594238E+02  0.00000000000E+00 0. -1.
          6    1    1    2  501    0 -0.40066055915E+02 -0.70942393988E+02  0.16048937563E+03  0.24895572255E+03  0.17200000000E+03 0. -1.
         -6    1    1    2    0  502  0.40066055915E+02  0.70942393988E+02  0.74157969523E+03  0.76561253679E+03  0.17200000000E+03 0.  1.
</event>
<event>
 4    1  0.4539494E+000  0.2113015E+03  0.7818608E-02  0.1140540E+00
         21   -1    0    0  503  502  0.00000000000E+00  0.00000000000E+00  0.18202345202E+03  0.18202345202E+03  0.00000000000E+00 0. -1.
         21   -1    0    0  501  503 -0.00000000000E+00 -0.00000000000E+00 -0.34838106844E+03  0.34838106844E+03  0.00000000000E+00 0. -1.
          6    1    1    2  501    0 -0.11382785340E+03  0.45907761807E+02 -0.22744452125E+03  0.31045017805E+03  0.17200000000E+03 0. -1.
         -6    1    1    2    0  502  0.11382785340E+03 -0.45907761807E+02  0.61086904830E+02  0.21995434241E+03  0.17200000000E+03 0. -1.
</event>
<event>
 4    1  0.4539494E+000  0.1777848E+03  0.7818608E-02  0.1169964E+00
         21   -1    0    0  503  502  0.00000000000E+00  0.00000000000E+00  0.50848556979E+03  0.50848556979E+03  0.00000000000E+00 0.  1.
         21   -1    0    0  501  503 -0.00000000000E+00 -0.00000000000E+00 -0.74495880028E+02  0.74495880028E+02  0.00000000000E+00 0.  1.
          6    1    1    2  501    0 -0.44962221968E+02  0.13584833779E+01  0.98378581200E+02  0.20318905512E+03  0.17200000000E+03 0. -1.
         -6    1    1    2    0  502  0.44962221968E+02 -0.13584833779E+01  0.33561110856E+03  0.37979239470E+03  0.17200000000E+03 0. -1.
</event>
<event>
 4    1  0.4539494E+000  0.1720542E+03  0.7818608E-02  0.1175722E+00
         21   -1    0    0  501  502  0.00000000000E+00  0.00000000000E+00  0.75652320871E+03  0.75652320871E+03  0.00000000000E+00 0.  1.
         21   -1    0    0  502  503 -0.00000000000E+00 -0.00000000000E+00 -0.52426018346E+02  0.52426018346E+02  0.00000000000E+00 0.  1.
          6    1    1    2  501    0 -0.33723026322E+01 -0.26953171160E+01  0.55574395605E+03  0.58176797939E+03  0.17200000000E+03 0.  1.
         -6    1    1    2    0  503  0.33723026322E+01  0.26953171160E+01  0.14835323432E+03  0.22718124767E+03  0.17200000000E+03 0.  1.
</event>
<event>
 4    1  0.4539494E+000  0.1939097E+03  0.7818608E-02  0.1154982E+00
         21   -1    0    0  501  502  0.00000000000E+00  0.00000000000E+00  0.12286475914E+03  0.12286475914E+03  0.00000000000E+00 0. -1.
         21   -1    0    0  502  503 -0.00000000000E+00 -0.00000000000E+00 -0.32783363941E+03  0.32783363941E+03  0.00000000000E+00 0.  1.
          6    1    1    2  501    0  0.69804689875E+02 -0.56073943877E+02 -0.44376074926E+02  0.19892264310E+03  0.17200000000E+03 0. -1.
         -6    1    1    2    0  503 -0.69804689875E+02  0.56073943877E+02 -0.16059280534E+03  0.25177575546E+03  0.17200000000E+03 0.  1.
</event>
<event>
 4    1  0.4539494E+000  0.2165626E+03  0.7818608E-02  0.1136472E+00
         21   -1    0    0  501  502  0.00000000000E+00  0.00000000000E+00  0.39013243400E+03  0.39013243400E+03  0.00000000000E+00 0.  1.
         21   -1    0    0  502  503 -0.00000000000E+00 -0.00000000000E+00 -0.22311077711E+03  0.22311077711E+03  0.00000000000E+00 0.  1.
          6    1    1    2  501    0  0.78132689840E+02  0.10588032739E+03  0.29174091055E+03  0.36333472149E+03  0.17200000000E+03 0.  1.
         -6    1    1    2    0  503 -0.78132689840E+02 -0.10588032739E+03 -0.12471925366E+03  0.24990848962E+03  0.17200000000E+03 0.  1.
</event>
<event>
 4    1  0.4539494E+000  0.1816463E+03  0.7818608E-02  0.1166219E+00
         21   -1    0    0  501  502  0.00000000000E+00  0.00000000000E+00  0.48216513713E+02  0.48216513713E+02  0.00000000000E+00 0.  1.
         21   -1    0    0  502  503 -0.00000000000E+00 -0.00000000000E+00 -0.70327301159E+03  0.70327301159E+03  0.00000000000E+00 0.  1.
          6    1    1    2  501    0 -0.41866535834E+02  0.40725738108E+02 -0.26584013950E+03  0.32197262669E+03  0.17200000000E+03 0.  1.
         -6    1    1    2    0  503  0.41866535834E+02 -0.40725738108E+02 -0.38921635838E+03  0.42951689862E+03  0.17200000000E+03 0.  1.
</event>
<event>
 4    1  0.4539494E+000  0.2180844E+03  0.7818608E-02  0.1135319E+00
         21   -1    0    0  503  502  0.00000000000E+00  0.00000000000E+00  0.30382797461E+03  0.30382797461E+03  0.00000000000E+00 0. -1.
         21   -1    0    0  501  503 -0.00000000000E+00 -0.00000000000E+00 -0.18072648112E+03  0.18072648112E+03  0.00000000000E+00 0.  1.
          6    1    1    2  501    0 -0.62265862554E+02 -0.11874247834E+03 -0.27083258590E+02  0.21975967942E+03  0.17200000000E+03 0. -1.
         -6    1    1    2    0  502  0.62265862554E+02  0.11874247834E+03  0.15018475208E+03  0.26479477631E+03  0.17200000000E+03 0. -1.
</event>
<event>
 4    1  0.4539494E+000  0.2016124E+03  0.7818608E-02  0.1148386E+00
         21   -1    0    0  503  502  0.00000000000E+00  0.00000000000E+00  0.76452645524E+03  0.76452645524E+03  0.00000000000E+00 0. -1.
         21   -1    0    0  501  503 -0.00000000000E+00 -0.00000000000E+00 -0.11722748616E+03  0.11722748616E+03  0.00000000000E+00 0. -1.
          6    1    1    2  501    0  0.78641973594E+02  0.69849919937E+02 -0.22606254737E+01  0.20162510199E+03  0.17200000000E+03 0. -1.
         -6    1    1    2    0  502 -0.78641973594E+02 -0.69849919937E+02  0.64955959455E+03  0.68012883942E+03  0.17200000000E+03 0. -1.
</event>
<event>
 4    1  0.4539494E+000  0.1981253E+03  0.7818608E-02  0.1151330E+00
         21   -1    0    0  501  502  0.00000000000E+00  0.00000000000E+00  0.60339378462E+03  0.60339378462E+03  0.00000000000E+00 0. -1.
         21   -1    0    0  502  503 -0.00000000000E+00 -0.00000000000E+00 -0.14247120722E+03  0.14247120722E+03  0.00000000000E+00 0. -1.
          6    1    1    2  501    0  0.56910712141E+02  0.80192325059E+02  0.50536670250E+03  0.54281593764E+03  0.17200000000E+03 0. -1.
         -6    1    1    2    0  503 -0.56910712141E+02 -0.80192325059E+02 -0.44444125101E+02  0.20304905420E+03  0.17200000000E+03 0. -1.
</event>
<event>
 4    1  0.4539494E+000  0.1822280E+03  0.7818608E-02  0.1165664E+00
         21   -1    0    0  503  502  0.00000000000E+00  0.00000000000E+00  0.44352672107E+03  0.44352672107E+03  0.00000000000E+00 0. -1.
         21   -1    0    0  501  503 -0.00000000000E+00 -0.00000000000E+00 -0.20415627213E+03  0.20415627213E+03  0.00000000000E+00 0. -1.
          6    1    1    2  501    0  0.75036830653E+01 -0.59722083280E+02 -0.13802202354E+03  0.22859814407E+03  0.17200000000E+03 0. -1.
         -6    1    1    2    0  502 -0.75036830653E+01  0.59722083280E+02  0.37739247248E+03  0.41908484913E+03  0.17200000000E+03 0. -1.
</event>
<event>
 4    1  0.4539494E+000  0.1755959E+03  0.7818608E-02  0.1172135E+00
         21   -1    0    0  503  502  0.00000000000E+00  0.00000000000E+00  0.16132079785E+03  0.16132079785E+03  0.00000000000E+00 0.  1.
         21   -1    0    0  501  503 -0.00000000000E+00 -0.00000000000E+00 -0.19668831007E+03  0.19668831007E+03  0.00000000000E+00 0.  1.
          6    1    1    2  501    0 -0.68468761250E+01 -0.34684868927E+02  0.12396565947E+02  0.17603293639E+03  0.17200000000E+03 0.  1.
         -6    1    1    2    0  502  0.68468761250E+01  0.34684868927E+02 -0.47764078169E+02  0.18197617154E+03  0.17200000000E+03 0.  1.
</event>
<event>
 4    1  0.4539494E+000  0.1845687E+03  0.7818608E-02  0.1163453E+00
         21   -1    0    0  503  502  0.00000000000E+00  0.00000000000E+00  0.43833002593E+03  0.43833002593E+03  0.00000000000E+00 0. -1.
         21   -1    0    0  501  503 -0.00000000000E+00 -0.00000000000E+00 -0.17261824434E+03  0.17261824434E+03  0.00000000000E+00 0. -1.
          6    1    1    2  501    0  0.55494107956E+02  0.37443362524E+02 -0.93643759762E+02  0.20696558931E+03  0.17200000000E+03 0. -1.
         -6    1    1    2    0  502 -0.55494107956E+02 -0.37443362524E+02  0.35935554135E+03  0.40398268096E+03  0.17200000000E+03 0. -1.
</event>
<event>
 4    1  0.4539494E+000  0.4041492E+03  0.7818608E-02  0.1042352E+00
         21   -1    0    0  501  502  0.00000000000E+00  0.00000000000E+00  0.12802656238E+03  0.12802656238E+03  0.00000000000E+00 0.  1.
         21   -1    0    0  502  503 -0.00000000000E+00 -0.00000000000E+00 -0.12801468851E+04  0.12801468851E+04  0.00000000000E+00 0.  1.
          6    1    1    2  501    0  0.30401248269E+03 -0.20329531202E+03 -0.61707811706E+03  0.73764624046E+03  0.17200000000E+03 0.  1.
         -6    1    1    2    0  503 -0.30401248269E+03  0.20329531202E+03 -0.53504220571E+03  0.67052720706E+03  0.17200000000E+03 0.  1.
</event>
<event>
 4    1  0.4539494E+000  0.2085751E+03  0.7818608E-02  0.1142699E+00
         21   -1    0    0  503  502  0.00000000000E+00  0.00000000000E+00  0.85915619250E+03  0.85915619250E+03  0.00000000000E+00 0. -1.
         21   -1    0    0  501  503 -0.00000000000E+00 -0.00000000000E+00 -0.51094739235E+02  0.51094739235E+02  0.00000000000E+00 0.  1.
          6    1    1    2  501    0  0.10137779283E+03 -0.60349901033E+02  0.36086964156E+03  0.41680986749E+03  0.17200000000E+03 0. -1.
         -6    1    1    2    0  502 -0.10137779283E+03  0.60349901033E+02  0.44719181170E+03  0.49344106425E+03  0.17200000000E+03 0. -1.
</event>
<event>
 4    1  0.4539494E+000  0.1867483E+03  0.7818608E-02  0.1161427E+00
         21   -1    0    0  501  502  0.00000000000E+00  0.00000000000E+00  0.12535974705E+03  0.12535974705E+03  0.00000000000E+00 0. -1.
         21   -1    0    0  502  503 -0.00000000000E+00 -0.00000000000E+00 -0.27846511122E+03  0.27846511122E+03  0.00000000000E+00 0. -1.
          6    1    1    2  501    0 -0.14940713443E+01 -0.72723459138E+02 -0.70308785043E+02  0.19954513026E+03  0.17200000000E+03 0.  1.
         -6    1    1    2    0  503  0.14940713443E+01  0.72723459138E+02 -0.82796579133E+02  0.20427972801E+03  0.17200000000E+03 0.  1.
</event>
<event>
 4    1  0.4539494E+000  0.1729323E+03  0.7818608E-02  0.1174824E+00
         21   -1    0    0  503  502  0.00000000000E+00  0.00000000000E+00  0.13627205946E+03  0.13627205946E+03  0.00000000000E+00 0.  1.
         21   -1    0    0  501  503 -0.00000000000E+00 -0.00000000000E+00 -0.28869678762E+03  0.28869678762E+03  0.00000000000E+00 0.  1.
          6    1    1    2  501    0 -0.25620903278E+01  0.17748473814E+02 -0.18027397372E+03  0.24980848310E+03  0.17200000000E+03 0.  1.
         -6    1    1    2    0  502  0.25620903278E+01 -0.17748473814E+02  0.27849245557E+02  0.17516036397E+03  0.17200000000E+03 0.  1.
</event>
<event>
 4    1  0.4539494E+000  0.2021334E+03  0.7818608E-02  0.1147951E+00
         21   -1    0    0  501  502  0.00000000000E+00  0.00000000000E+00  0.10885888376E+04  0.10885888376E+04  0.00000000000E+00 0. -1.
         21   -1    0    0  502  503 -0.00000000000E+00 -0.00000000000E+00 -0.45703765456E+02  0.45703765456E+02  0.00000000000E+00 0.  1.
          6    1    1    2  501    0 -0.63812814518E+02  0.84863592497E+02  0.76124460838E+03  0.78762380514E+03  0.17200000000E+03 0. -1.
         -6    1    1    2    0  503  0.63812814518E+02 -0.84863592497E+02  0.28164046381E+03  0.34666879796E+03  0.17200000000E+03 0.  1.
</event>
<event>
 4    1  0.4539494E+000  0.1988008E+03  0.7818608E-02  0.1150755E+00
         21   -1    0    0  501  502  0.00000000000E+00  0.00000000000E+00  0.42627896014E+02  0.42627896014E+02  0.00000000000E+00 0. -1.
         21   -1    0    0  502  503 -0.00000000000E+00 -0.00000000000E+00 -0.13352832312E+04  0.13352832312E+04  0.00000000000E+00 0. -1.
          6    1    1    2  501    0  0.12831365862E+02  0.98858996623E+02 -0.26542471669E+03  0.33162030305E+03  0.17200000000E+03 0. -1.
         -6    1    1    2    0  503 -0.12831365862E+02 -0.98858996623E+02 -0.10272306185E+04  0.10462908242E+04  0.17200000000E+03 0. -1.
</event>
<event>
 4    1  0.4539494E+000  0.4008417E+03  0.7818608E-02  0.1043489E+00
         21   -1    0    0  501  502  0.00000000000E+00  0.00000000000E+00  0.46466673564E+03  0.46466673564E+03  0.00000000000E+00 0. -1.
         21   -1    0    0  502  503 -0.00000000000E+00 -0.00000000000E+00 -0.45276694320E+03  0.45276694320E+03  0.00000000000E+00 0.  1.
          6    1    1    2  501    0  0.11065090485E+03 -0.34474116794E+03  0.22892973113E+03  0.46160905257E+03  0.17200000000E+03 0. -1.
         -6    1    1    2    0  503 -0.11065090485E+03  0.34474116794E+03 -0.21702993869E+03  0.45582462626E+03  0.17200000000E+03 0.  1.
</event>
<event>
 4    1  0.4539494E+000  0.1857248E+03  0.7818608E-02  0.1162375E+00
         21   -1    0    0  501  502  0.00000000000E+00  0.00000000000E+00  0.72180212124E+02  0.72180212124E+02  0.00000000000E+00 0. -1.
         21   -1    0    0  502  503 -0.00000000000E+00 -0.00000000000E+00 -0.68587396548E+03  0.68587396548E+03  0.00000000000E+00 0. -1.
          6    1    1    2  501    0  0.70058825295E+02 -0.12131281368E+01 -0.98123967990E+02  0.21005243102E+03  0.17200000000E+03 0. -1.
         -6    1    1    2    0  503 -0.70058825295E+02  0.12131281368E+01 -0.51556978536E+03  0.54800174659E+03  0.17200000000E+03 0. -1.
</event>
<event>
 4    1  0.4539494E+000  0.2299401E+03  0.7818608E-02  0.1126682E+00
         21   -1    0    0  501  502  0.00000000000E+00  0.00000000000E+00  0.39609803183E+03  0.39609803183E+03  0.00000000000E+00 0. -1.
         21   -1    0    0  502  503 -0.00000000000E+00 -0.00000000000E+00 -0.15112466231E+03  0.15112466231E+03  0.00000000000E+00 0. -1.
          6    1    1    2  501    0  0.84964157376E+01 -0.15236878758E+03  0.21596989289E+03  0.31546066497E+03  0.17200000000E+03 0. -1.
         -6    1    1    2    0  503 -0.84964157376E+01  0.15236878758E+03  0.29003476631E+02  0.23176202917E+03  0.17200000000E+03 0. -1.
</event>
<event>
 4    1  0.4539494E+000  0.2154120E+03  0.7818608E-02  0.1137351E+00
         21   -1    0    0  501  502  0.00000000000E+00  0.00000000000E+00  0.20776469401E+03  0.20776469401E+03  0.00000000000E+00 0. -1.
         21   -1    0    0  502  503 -0.00000000000E+00 -0.00000000000E+00 -0.29937418846E+03  0.29937418846E+03  0.00000000000E+00 0.  1.
          6    1    1    2  501    0  0.12944952152E+03  0.78208788863E+01  0.81983745458E+02  0.23048574639E+03  0.17200000000E+03 0. -1.
         -6    1    1    2    0  503 -0.12944952152E+03 -0.78208788863E+01 -0.17359323990E+03  0.27665313609E+03  0.17200000000E+03 0.  1.
</event>
<event>
 4    1  0.4539494E+000  0.2022186E+03  0.7818608E-02  0.1147881E+00
         21   -1    0    0  503  502  0.00000000000E+00  0.00000000000E+00  0.20179016064E+03  0.20179016064E+03  0.00000000000E+00 0. -1.
         21   -1    0    0  501  503 -0.00000000000E+00 -0.00000000000E+00 -0.24548773484E+03  0.24548773484E+03  0.00000000000E+00 0. -1.
          6    1    1    2  501    0 -0.45726847068E+02  0.96007288163E+02 -0.11527239712E+03  0.23276612610E+03  0.17200000000E+03 0. -1.
         -6    1    1    2    0  502  0.45726847068E+02 -0.96007288163E+02  0.71574822917E+02  0.21451176937E+03  0.17200000000E+03 0. -1.
</event>
<event>
 4    1  0.4539494E+000  0.1752420E+03  0.7818608E-02  0.1172489E+00
         21   -1    0    0  503  502  0.00000000000E+00  0.00000000000E+00  0.33030525947E+03  0.33030525947E+03  0.00000000000E+00 0.  1.
         21   -1    0    0  501  503 -0.00000000000E+00 -0.00000000000E+00 -0.32985849295E+03  0.32985849295E+03  0.00000000000E+00 0.  1.
          6    1    1    2  501    0 -0.21695142928E+02  0.25594716878E+02 -0.27949837524E+03  0.32989257422E+03  0.17200000000E+03 0.  1.
         -6    1    1    2    0  502  0.21695142928E+02 -0.25594716878E+02  0.27994514176E+03  0.33027117821E+03  0.17200000000E+03 0.  1.
</event>
<event>
 4    1  0.4539494E+000  0.2353988E+03  0.7818608E-02  0.1122897E+00
         21   -1    0    0  501  502  0.00000000000E+00  0.00000000000E+00  0.26312878763E+03  0.26312878763E+03  0.00000000000E+00 0. -1.
         21   -1    0    0  502  503 -0.00000000000E+00 -0.00000000000E+00 -0.21909254697E+03  0.21909254697E+03  0.00000000000E+00 0. -1.
          6    1    1    2  501    0 -0.40219263054E+02 -0.15559883218E+03 -0.25476954446E+02  0.23677343792E+03  0.17200000000E+03 0. -1.
         -6    1    1    2    0  503  0.40219263054E+02  0.15559883218E+03  0.69513195106E+02  0.24544789669E+03  0.17200000000E+03 0. -1.
</event>
<event>
 4    1  0.4539494E+000  0.1817154E+03  0.7818608E-02  0.1166153E+00
         21   -1    0    0  501  502  0.00000000000E+00  0.00000000000E+00  0.73940629070E+03  0.73940629070E+03  0.00000000000E+00 0. -1.
         21   -1    0    0  502  503 -0.00000000000E+00 -0.00000000000E+00 -0.44812907773E+02  0.44812907773E+02  0.00000000000E+00 0. -1.
          6    1    1    2  501    0  0.39837088054E+02 -0.43005895678E+02  0.37034097734E+03  0.41252022998E+03  0.17200000000E+03 0. -1.
         -6    1    1    2    0  503 -0.39837088054E+02  0.43005895678E+02  0.32425240559E+03  0.37169896849E+03  0.17200000000E+03 0. -1.
</event>
<event>
 4    1  0.4539494E+000  0.1843065E+03  0.7818608E-02  0.1163699E+00
         21   -1    0    0  503  502  0.00000000000E+00  0.00000000000E+00  0.67804572395E+03  0.67804572395E+03  0.00000000000E+00 0.  1.
         21   -1    0    0  501  503 -0.00000000000E+00 -0.00000000000E+00 -0.26763156179E+03  0.26763156179E+03  0.00000000000E+00 0.  1.
          6    1    1    2  501    0  0.36976734455E+02  0.54932891241E+02 -0.22108492413E+03  0.28783232117E+03  0.17200000000E+03 0.  1.
         -6    1    1    2    0  502 -0.36976734455E+02 -0.54932891241E+02  0.63149908629E+03  0.65784496458E+03  0.17200000000E+03 0.  1.
</event>
<event>
 4    1  0.4539494E+000  0.4285213E+03  0.7818608E-02  0.1034328E+00
         21   -1    0    0  503  502  0.00000000000E+00  0.00000000000E+00  0.62405909749E+03  0.62405909749E+03  0.00000000000E+00 0. -1.
         21   -1    0    0  501  503 -0.00000000000E+00 -0.00000000000E+00 -0.34891642257E+03  0.34891642257E+03  0.00000000000E+00 0. -1.
          6    1    1    2  501    0  0.84094606884E+01  0.39239746535E+03 -0.54987978793E+02  0.43203491485E+03  0.17200000000E+03 0. -1.
         -6    1    1    2    0  502 -0.84094606884E+01 -0.39239746535E+03  0.33013065371E+03  0.54094060520E+03  0.17200000000E+03 0. -1.
</event>
<event>
 4    1  0.4539494E+000  0.2072550E+03  0.7818608E-02  0.1143758E+00
         21   -1    0    0  501  502  0.00000000000E+00  0.00000000000E+00  0.13895438009E+03  0.13895438009E+03  0.00000000000E+00 0. -1.
         21   -1    0    0  502  503 -0.00000000000E+00 -0.00000000000E+00 -0.42788391994E+03  0.42788391994E+03  0.00000000000E+00 0. -1.
          6    1    1    2  501    0  0.24040088108E+02 -0.11310477778E+03 -0.29377680104E+03  0.35952666858E+03  0.17200000000E+03 0. -1.
         -6    1    1    2    0  503 -0.24040088108E+02  0.11310477778E+03  0.48472611873E+01  0.20731163145E+03  0.17200000000E+03 0. -1.
</event>
<event>
 4    1  0.4539494E+000  0.2302289E+03  0.7818608E-02  0.1126479E+00
         21   -1    0    0  501  502  0.00000000000E+00  0.00000000000E+00  0.15732385414E+04  0.15732385414E+04  0.00000000000E+00 0. -1.
         21   -1    0    0  502  503 -0.00000000000E+00 -0.00000000000E+00 -0.33952646921E+02  0.33952646921E+02  0.00000000000E+00 0. -1.
          6    1    1    2  501    0  0.15275565487E+03 -0.93292987163E+01  0.84007124925E+03  0.87104823616E+03  0.17200000000E+03 0. -1.
         -6    1    1    2    0  503 -0.15275565487E+03  0.93292987163E+01  0.69921464524E+03  0.73614295217E+03  0.17200000000E+03 0. -1.
</event>
<event>
 4    1  0.4539494E+000  0.2757390E+03  0.7818608E-02  0.1098039E+00
         21   -1    0    0  503  502  0.00000000000E+00  0.00000000000E+00  0.82921878637E+03  0.82921878637E+03  0.00000000000E+00 0. -1.
         21   -1    0    0  501  503 -0.00000000000E+00 -0.00000000000E+00 -0.36714472667E+03  0.36714472667E+03  0.00000000000E+00 0. -1.
          6    1    1    2  501    0 -0.92742784485E+02 -0.19454252275E+03 -0.28709296050E+03  0.39806329296E+03  0.17200000000E+03 0. -1.
         -6    1    1    2    0  502  0.92742784485E+02  0.19454252275E+03  0.74916702020E+03  0.79830022009E+03  0.17200000000E+03 0. -1.
</event>
<event>
 4    1  0.4539494E+000  0.2284393E+03  0.7818608E-02  0.1127743E+00
         21   -1    0    0  501  502  0.00000000000E+00  0.00000000000E+00  0.60816126310E+02  0.60816126310E+02  0.00000000000E+00 0. -1.
         21   -1    0    0  502  503 -0.00000000000E+00 -0.00000000000E+00 -0.13189185051E+04  0.13189185051E+04  0.00000000000E+00 0. -1.
          6    1    1    2  501    0 -0.14948079505E+03  0.15999856194E+02 -0.22126209898E+03  0.31802738866E+03  0.17200000000E+03 0. -1.
         -6    1    1    2    0  503  0.14948079505E+03 -0.15999856194E+02 -0.10368402798E+04  0.10617072428E+04  0.17200000000E+03 0. -1.
</event>
<event>
 4    1  0.4539494E+000  0.2054660E+03  0.7818608E-02  0.1145208E+00
         21   -1    0    0  501  502  0.00000000000E+00  0.00000000000E+00  0.21344763794E+03  0.21344763794E+03  0.00000000000E+00 0.  1.
         21   -1    0    0  502  503 -0.00000000000E+00 -0.00000000000E+00 -0.31780504690E+03  0.31780504690E+03  0.00000000000E+00 0.  1.
          6    1    1    2  501    0  0.11056587503E+03 -0.20185369840E+02  0.11105946093E+03  0.23356041133E+03  0.17200000000E+03 0.  1.
         -6    1    1    2    0  503 -0.11056587503E+03  0.20185369840E+02 -0.21541686988E+03  0.29769227351E+03  0.17200000000E+03 0.  1.
</event>
<event>
 4    1  0.4539494E+000  0.1881946E+03  0.7818608E-02  0.1160100E+00
         21   -1    0    0  503  502  0.00000000000E+00  0.00000000000E+00  0.11481139384E+03  0.11481139384E+03  0.00000000000E+00 0. -1.
         21   -1    0    0  501  503 -0.00000000000E+00 -0.00000000000E+00 -0.33137539319E+03  0.33137539319E+03  0.00000000000E+00 0. -1.
          6    1    1    2  501    0 -0.76374745807E+02  0.31681098618E+00 -0.16692085506E+03  0.25155471377E+03  0.17200000000E+03 0. -1.
         -6    1    1    2    0  502  0.76374745807E+02 -0.31681098618E+00 -0.49643144291E+02  0.19463207326E+03  0.17200000000E+03 0. -1.
</event>
<event>
 4    1  0.4539494E+000  0.1900592E+03  0.7818608E-02  0.1158408E+00
         21   -1    0    0  503  502  0.00000000000E+00  0.00000000000E+00  0.89907747960E+02  0.89907747960E+02  0.00000000000E+00 0.  1.
         21   -1    0    0  501  503 -0.00000000000E+00 -0.00000000000E+00 -0.60532750105E+03  0.60532750105E+03  0.00000000000E+00 0. -1.
          6    1    1    2  501    0  0.16475560149E+02  0.79164827734E+02 -0.45928959770E+03  0.49706080975E+03  0.17200000000E+03 0. -1.
         -6    1    1    2    0  502 -0.16475560149E+02 -0.79164827734E+02 -0.56130155389E+02  0.19817443926E+03  0.17200000000E+03 0.  1.
</event>
<event>
 4    1  0.4539494E+000  0.3297267E+03  0.7818608E-02  0.1071258E+00
         21   -1    0    0  503  502  0.00000000000E+00  0.00000000000E+00  0.51026345432E+03  0.51026345432E+03  0.00000000000E+00 0. -1.
         21   -1    0    0  501  503 -0.00000000000E+00 -0.00000000000E+00 -0.60615055576E+03  0.60615055576E+03  0.00000000000E+00 0.  1.
          6    1    1    2  501    0  0.24761567954E+03 -0.13349963396E+03 -0.49746264547E+03  0.59681551644E+03  0.17200000000E+03 0.  1.
         -6    1    1    2    0  502 -0.24761567954E+03  0.13349963396E+03  0.40157554404E+03  0.51959849364E+03  0.17200000000E+03 0. -1.
</event>
<event>
 4    1  0.4539494E+000  0.2833375E+03  0.7818608E-02  0.1093880E+00
         21   -1    0    0  503  502  0.00000000000E+00  0.00000000000E+00  0.17071756270E+03  0.17071756270E+03  0.00000000000E+00 0.  1.
         21   -1    0    0  501  503 -0.00000000000E+00 -0.00000000000E+00 -0.68679203513E+03  0.68679203513E+03  0.00000000000E+00 0. -1.
          6    1    1    2  501    0 -0.21566718929E+03  0.64682312240E+02 -0.49878722560E+03  0.57364521655E+03  0.17200000000E+03 0. -1.
         -6    1    1    2    0  502  0.21566718929E+03 -0.64682312240E+02 -0.17287246828E+02  0.28386438127E+03  0.17200000000E+03 0.  1.
</event>
<event>
 4    1  0.4539494E+000  0.1920234E+03  0.7818608E-02  0.1156649E+00
         21   -1    0    0  503  502  0.00000000000E+00  0.00000000000E+00  0.74933180491E+02  0.74933180491E+02  0.00000000000E+00 0.  1.
         21   -1    0    0  501  503 -0.00000000000E+00 -0.00000000000E+00 -0.53665425784E+03  0.53665425784E+03  0.00000000000E+00 0.  1.
          6    1    1    2  501    0 -0.61657361184E+02  0.59053744079E+02 -0.31899235708E+03  0.37232928807E+03  0.17200000000E+03 0.  1.
         -6    1    1    2    0  502  0.61657361184E+02 -0.59053744079E+02 -0.14272872027E+03  0.23925815026E+03  0.17200000000E+03 0.  1.
</event>
<event>
 4    1  0.4539494E+000  0.3211376E+03  0.7818608E-02  0.1075127E+00
         21   -1    0    0  503  502  0.00000000000E+00  0.00000000000E+00  0.85457269914E+02  0.85457269914E+02  0.00000000000E+00 0. -1.
         21   -1    0    0  501  503 -0.00000000000E+00 -0.00000000000E+00 -0.14779674323E+04  0.14779674323E+04  0.00000000000E+00 0.  1.
          6    1    1    2  501    0  0.23299502269E+03  0.13877555107E+03 -0.10310955825E+04  0.10799478851E+04  0.17200000000E+03 0.  1.
         -6    1    1    2    0  502 -0.23299502269E+03 -0.13877555107E+03 -0.36141457987E+03  0.48347681715E+03  0.17200000000E+03 0. -1.
</event>
<event>
 4    1  0.4539494E+000  0.2817997E+03  0.7818608E-02  0.1094710E+00
         21   -1    0    0  501  502  0.00000000000E+00  0.00000000000E+00  0.17976626665E+04  0.17976626665E+04  0.00000000000E+00 0.  1.
         21   -1    0    0  502  503 -0.00000000000E+00 -0.00000000000E+00 -0.51277218480E+03  0.51277218480E+03  0.00000000000E+00 0. -1.
          6    1    1    2  501    0 -0.85863293365E+02 -0.20604507231E+03  0.17467819595E+04  0.17693666355E+04  0.17200000000E+03 0.  1.
         -6    1    1    2    0  503  0.85863293365E+02  0.20604507231E+03 -0.46189147773E+03  0.54106821582E+03  0.17200000000E+03 0. -1.
</event>
<event>
 4    1  0.4539494E+000  0.1782462E+03  0.7818608E-02  0.1169511E+00
         21   -1    0    0  503  502  0.00000000000E+00  0.00000000000E+00  0.61701771412E+03  0.61701771412E+03  0.00000000000E+00 0. -1.
         21   -1    0    0  501  503 -0.00000000000E+00 -0.00000000000E+00 -0.54397385431E+02  0.54397385431E+02  0.00000000000E+00 0. -1.
          6    1    1    2  501    0  0.15653712134E+01  0.46746574604E+02  0.20373052658E+03  0.27069876262E+03  0.17200000000E+03 0. -1.
         -6    1    1    2    0  502 -0.15653712134E+01 -0.46746574604E+02  0.35888980211E+03  0.40071633693E+03  0.17200000000E+03 0. -1.
</event>
<event>
 4    1  0.4539494E+000  0.2161277E+03  0.7818608E-02  0.1136803E+00
         21   -1    0    0  501  502  0.00000000000E+00  0.00000000000E+00  0.23089086339E+03  0.23089086339E+03  0.00000000000E+00 0.  1.
         21   -1    0    0  502  503 -0.00000000000E+00 -0.00000000000E+00 -0.24345717424E+03  0.24345717424E+03  0.00000000000E+00 0. -1.
          6    1    1    2  501    0  0.10081512776E+03 -0.83447422452E+02  0.91223497583E+02  0.23459089669E+03  0.17200000000E+03 0.  1.
         -6    1    1    2    0  503 -0.10081512776E+03  0.83447422452E+02 -0.10378980843E+03  0.23975714094E+03  0.17200000000E+03 0. -1.
</event>
<event>
 4    1  0.4539494E+000  0.2783226E+03  0.7818608E-02  0.1096609E+00
         21   -1    0    0  501  502  0.00000000000E+00  0.00000000000E+00  0.58856492406E+03  0.58856492406E+03  0.00000000000E+00 0.  1.
         21   -1    0    0  502  503 -0.00000000000E+00 -0.00000000000E+00 -0.23284313063E+03  0.23284313063E+03  0.00000000000E+00 0. -1.
          6    1    1    2  501    0 -0.36533231384E+02  0.21574242019E+03  0.44866153929E+03  0.52797788373E+03  0.17200000000E+03 0.  1.
         -6    1    1    2    0  503  0.36533231384E+02 -0.21574242019E+03 -0.92939745866E+02  0.29343017096E+03  0.17200000000E+03 0. -1.
</event>
<event>
 4    1  0.4539494E+000  0.2533376E+03  0.7818608E-02  0.1111214E+00
         21   -1    0    0  501  502  0.00000000000E+00  0.00000000000E+00  0.15982643455E+04  0.15982643455E+04  0.00000000000E+00 0.  1.
         21   -1    0    0  502  503 -0.00000000000E+00 -0.00000000000E+00 -0.56381609919E+02  0.56381609919E+02  0.00000000000E+00 0.  1.
          6    1    1    2  501    0  0.12938628021E+03  0.13362314484E+03  0.12147609254E+04  0.12408964744E+04  0.17200000000E+03 0.  1.
         -6    1    1    2    0  503 -0.12938628021E+03 -0.13362314484E+03  0.32712181024E+03  0.41374948106E+03  0.17200000000E+03 0.  1.
</event>
<event>
 4    1  0.4539494E+000  0.2238855E+03  0.7818608E-02  0.1131019E+00
         21   -1    0    0  503  502  0.00000000000E+00  0.00000000000E+00  0.10614139689E+04  0.10614139689E+04  0.00000000000E+00 0.  1.
         21   -1    0    0  501  503 -0.00000000000E+00 -0.00000000000E+00 -0.47521955806E+02  0.47521955806E+02  0.00000000000E+00 0.  1.
          6    1    1    2  501    0 -0.99077050908E+02  0.10355887084E+03  0.46307581093E+03  0.51435776305E+03  0.17200000000E+03 0.  1.
         -6    1    1    2    0  502  0.99077050908E+02 -0.10355887084E+03  0.55081620217E+03  0.59457816165E+03  0.17200000000E+03 0.  1.
</event>
<event>
 4    1  0.4539494E+000  0.2564509E+03  0.7818608E-02  0.1109295E+00
         21   -1    0    0  501  502  0.00000000000E+00  0.00000000000E+00  0.39536836826E+03  0.39536836826E+03  0.00000000000E+00 0.  1.
         21   -1    0    0  502  503 -0.00000000000E+00 -0.00000000000E+00 -0.16648506475E+03  0.16648506475E+03  0.00000000000E+00 0. -1.
          6    1    1    2  501    0  0.68084946395E+02 -0.17761619418E+03  0.12262515887E+03  0.28426044739E+03  0.17200000000E+03 0.  1.
         -6    1    1    2    0  503 -0.68084946395E+02  0.17761619418E+03  0.10625814464E+03  0.27759298562E+03  0.17200000000E+03 0. -1.
</event>
<event>
 4    1  0.4539494E+000  0.2029653E+03  0.7818608E-02  0.1147261E+00
         21   -1    0    0  503  502  0.00000000000E+00  0.00000000000E+00  0.10315620938E+04  0.10315620938E+04  0.00000000000E+00 0. -1.
         21   -1    0    0  501  503 -0.00000000000E+00 -0.00000000000E+00 -0.40232116862E+02  0.40232116862E+02  0.00000000000E+00 0.  1.
          6    1    1    2  501    0  0.50557691753E+02 -0.95156918047E+02  0.44957339246E+03  0.49326580507E+03  0.17200000000E+03 0.  1.
         -6    1    1    2    0  502 -0.50557691753E+02  0.95156918047E+02  0.54175658450E+03  0.57852840561E+03  0.17200000000E+03 0.  1.
</event>
<event>
 4    1  0.4539494E+000  0.2066434E+03  0.7818608E-02  0.1144252E+00
         21   -1    0    0  501  502  0.00000000000E+00  0.00000000000E+00  0.64641677424E+02  0.64641677424E+02  0.00000000000E+00 0. -1.
         21   -1    0    0  502  503 -0.00000000000E+00 -0.00000000000E+00 -0.10303645847E+04  0.10303645847E+04  0.00000000000E+00 0.  1.
          6    1    1    2  501    0 -0.11942912025E+02 -0.11390716439E+03 -0.15487098518E+03  0.25823728874E+03  0.17200000000E+03 0. -1.
         -6    1    1    2    0  503  0.11942912025E+02  0.11390716439E+03 -0.81085192205E+03  0.83676897334E+03  0.17200000000E+03 0.  1.
</event>
<event>
 4    1  0.4539494E+000  0.1827530E+03  0.7818608E-02  0.1165165E+00
         21   -1    0    0  503  502  0.00000000000E+00  0.00000000000E+00  0.12598717728E+03  0.12598717728E+03  0.00000000000E+00 0. -1.
         21   -1    0    0  501  503 -0.00000000000E+00 -0.00000000000E+00 -0.43161039882E+03  0.43161039882E+03  0.00000000000E+00 0. -1.
          6    1    1    2  501    0 -0.10945237595E+02  0.60785263311E+02 -0.32598108928E+03  0.37371421839E+03  0.17200000000E+03 0. -1.
         -6    1    1    2    0  502  0.10945237595E+02 -0.60785263311E+02  0.20357867737E+02  0.18388335770E+03  0.17200000000E+03 0. -1.
</event>
<event>
 4    1  0.4539494E+000  0.2099747E+03  0.7818608E-02  0.1141586E+00
         21   -1    0    0  501  502  0.00000000000E+00  0.00000000000E+00  0.61552170455E+02  0.61552170455E+02  0.00000000000E+00 0.  1.
         21   -1    0    0  502  503 -0.00000000000E+00 -0.00000000000E+00 -0.88916692999E+03  0.88916692999E+03  0.00000000000E+00 0.  1.
          6    1    1    2  501    0  0.49929023655E+02 -0.10960148491E+03 -0.20420546674E+03  0.29289804633E+03  0.17200000000E+03 0.  1.
         -6    1    1    2    0  503 -0.49929023655E+02  0.10960148491E+03 -0.62340929280E+03  0.65782105412E+03  0.17200000000E+03 0.  1.
</event>
<event>
 4    1  0.4539494E+000  0.1802979E+03  0.7818608E-02  0.1167515E+00
         21   -1    0    0  501  502  0.00000000000E+00  0.00000000000E+00  0.22032538665E+04  0.22032538665E+04  0.00000000000E+00 0. -1.
         21   -1    0    0  502  503 -0.00000000000E+00 -0.00000000000E+00 -0.15984527706E+02  0.15984527706E+02  0.00000000000E+00 0.  1.
          6    1    1    2  501    0 -0.42018812597E+02  0.34025518999E+02  0.14014774573E+04  0.14130273811E+04  0.17200000000E+03 0. -1.
         -6    1    1    2    0  503  0.42018812597E+02 -0.34025518999E+02  0.78579188156E+03  0.80621101312E+03  0.17200000000E+03 0.  1.
</event>
<event>
 4    1  0.4539494E+000  0.2241916E+03  0.7818608E-02  0.1130796E+00
         21   -1    0    0  503  502  0.00000000000E+00  0.00000000000E+00  0.39547630757E+03  0.39547630757E+03  0.00000000000E+00 0. -1.
         21   -1    0    0  501  503 -0.00000000000E+00 -0.00000000000E+00 -0.15887115019E+03  0.15887115019E+03  0.00000000000E+00 0. -1.
          6    1    1    2  501    0  0.97253197350E+02 -0.10592296136E+03 -0.56629604973E+01  0.22426307601E+03  0.17200000000E+03 0. -1.
         -6    1    1    2    0  502 -0.97253197350E+02  0.10592296136E+03  0.24226811788E+03  0.33008438176E+03  0.17200000000E+03 0. -1.
</event>
<event>
 4    1  0.4539494E+000  0.1946817E+03  0.7818608E-02  0.1154305E+00
         21   -1    0    0  501  502  0.00000000000E+00  0.00000000000E+00  0.95844179224E+02  0.95844179224E+02  0.00000000000E+00 0. -1.
         21   -1    0    0  502  503 -0.00000000000E+00 -0.00000000000E+00 -0.77088061700E+03  0.77088061700E+03  0.00000000000E+00 0. -1.
          6    1    1    2  501    0  0.77638598375E+02 -0.47845846092E+02 -0.35087327297E+02  0.19781834466E+03  0.17200000000E+03 0. -1.
         -6    1    1    2    0  503 -0.77638598375E+02  0.47845846092E+02 -0.63994911047E+03  0.66890645156E+03  0.17200000000E+03 0. -1.
</event>
<event>
 4    1  0.4539494E+000  0.1759286E+03  0.7818608E-02  0.1171803E+00
         21   -1    0    0  503  502  0.00000000000E+00  0.00000000000E+00  0.55435436520E+03  0.55435436520E+03  0.00000000000E+00 0. -1.
         21   -1    0    0  501  503 -0.00000000000E+00 -0.00000000000E+00 -0.12024329340E+03  0.12024329340E+03  0.00000000000E+00 0. -1.
          6    1    1    2  501    0  0.36898112598E+02  0.23204219200E+01 -0.29812321595E+02  0.17843662626E+03  0.17200000000E+03 0. -1.
         -6    1    1    2    0  502 -0.36898112598E+02 -0.23204219200E+01  0.46392339340E+03  0.49616103234E+03  0.17200000000E+03 0. -1.
</event>
<event>
 4    1  0.4539494E+000  0.2165277E+03  0.7818608E-02  0.1136499E+00
         21   -1    0    0  503  502  0.00000000000E+00  0.00000000000E+00  0.24688936326E+03  0.24688936326E+03  0.00000000000E+00 0.  1.
         21   -1    0    0  501  503 -0.00000000000E+00 -0.00000000000E+00 -0.20105645668E+03  0.20105645668E+03  0.00000000000E+00 0.  1.
          6    1    1    2  501    0 -0.12834543951E+03  0.28770028451E+02  0.75676052877E+02  0.22937116506E+03  0.17200000000E+03 0.  1.
         -6    1    1    2    0  502  0.12834543951E+03 -0.28770028451E+02 -0.29843146296E+02  0.21857465489E+03  0.17200000000E+03 0.  1.
</event>
<event>
 4    1  0.4539494E+000  0.2010153E+03  0.7818608E-02  0.1148885E+00
         21   -1    0    0  503  502  0.00000000000E+00  0.00000000000E+00  0.16134021870E+03  0.16134021870E+03  0.00000000000E+00 0.  1.
         21   -1    0    0  501  503 -0.00000000000E+00 -0.00000000000E+00 -0.27359330904E+03  0.27359330904E+03  0.00000000000E+00 0. -1.
          6    1    1    2  501    0  0.31540919620E+02 -0.99137882574E+02  0.71266469091E+01  0.20114158811E+03  0.17200000000E+03 0. -1.
         -6    1    1    2    0  502 -0.31540919620E+02  0.99137882574E+02 -0.11937973724E+03  0.23379193963E+03  0.17200000000E+03 0. -1.
</event>
<event>
 4    1  0.4539494E+000  0.2105263E+03  0.7818608E-02  0.1141150E+00
         21   -1    0    0  503  502  0.00000000000E+00  0.00000000000E+00  0.67296409524E+02  0.67296409524E+02  0.00000000000E+00 0. -1.
         21   -1    0    0  501  503 -0.00000000000E+00 -0.00000000000E+00 -0.87716273992E+03  0.87716273992E+03  0.00000000000E+00 0. -1.
          6    1    1    2  501    0 -0.11262532745E+03  0.45308464599E+02 -0.64065648305E+03  0.67436047528E+03  0.17200000000E+03 0. -1.
         -6    1    1    2    0  502  0.11262532745E+03 -0.45308464599E+02 -0.16920984736E+03  0.27009867417E+03  0.17200000000E+03 0. -1.
</event>
<event>
 4    1  0.4539494E+000  0.1909358E+03  0.7818608E-02  0.1157620E+00
         21   -1    0    0  501  502  0.00000000000E+00  0.00000000000E+00  0.80454189956E+02  0.80454189956E+02  0.00000000000E+00 0. -1.
         21   -1    0    0  502  503 -0.00000000000E+00 -0.00000000000E+00 -0.63513713001E+03  0.63513713001E+03  0.00000000000E+00 0. -1.
          6    1    1    2  501    0  0.81823056651E+02  0.13321197873E+02 -0.85809328289E+02  0.20933157367E+03  0.17200000000E+03 0.  1.
         -6    1    1    2    0  503 -0.81823056651E+02 -0.13321197873E+02 -0.46887361177E+03  0.50625974630E+03  0.17200000000E+03 0.  1.
</event>
<event>
 4    1  0.4539494E+000  0.2915054E+03  0.7818608E-02  0.1089566E+00
         21   -1    0    0  501  502  0.00000000000E+00  0.00000000000E+00  0.33957076072E+03  0.33957076072E+03  0.00000000000E+00 0.  1.
         21   -1    0    0  502  503 -0.00000000000E+00 -0.00000000000E+00 -0.26078449561E+03  0.26078449561E+03  0.00000000000E+00 0. -1.
          6    1    1    2  501    0  0.96903380809E+02  0.21447871230E+03  0.99743204778E+02  0.30809753349E+03  0.17200000000E+03 0. -1.
         -6    1    1    2    0  503 -0.96903380809E+02 -0.21447871230E+03 -0.20956939668E+02  0.29225772284E+03  0.17200000000E+03 0.  1.
</event>
<event>
 4    1  0.4539494E+000  0.3495368E+03  0.7818608E-02  0.1062805E+00
         21   -1    0    0  501  502  0.00000000000E+00  0.00000000000E+00  0.60310065076E+03  0.60310065076E+03  0.00000000000E+00 0.  1.
         21   -1    0    0  502  503 -0.00000000000E+00 -0.00000000000E+00 -0.20259031388E+03  0.20259031388E+03  0.00000000000E+00 0. -1.
          6    1    1    2  501    0 -0.30377162207E+03 -0.17741924813E+02  0.20316524144E+03  0.40429208452E+03  0.17200000000E+03 0.  1.
         -6    1    1    2    0  503  0.30377162207E+03  0.17741924813E+02  0.19734509544E+03  0.40139888013E+03  0.17200000000E+03 0. -1.
</event>
<event>
 4    1  0.4539494E+000  0.2538547E+03  0.7818608E-02  0.1110893E+00
         21   -1    0    0  501  502  0.00000000000E+00  0.00000000000E+00  0.72720394530E+02  0.72720394530E+02  0.00000000000E+00 0.  1.
         21   -1    0    0  502  503 -0.00000000000E+00 -0.00000000000E+00 -0.92275670915E+03  0.92275670915E+03  0.00000000000E+00 0. -1.
          6    1    1    2  501    0 -0.12250047266E+03  0.14089650776E+03 -0.32589952925E+03  0.41310131308E+03  0.17200000000E+03 0. -1.
         -6    1    1    2    0  503  0.12250047266E+03 -0.14089650776E+03 -0.52413678537E+03  0.58237579060E+03  0.17200000000E+03 0. -1.
</event>
<event>
 4    1  0.4539494E+000  0.2048606E+03  0.7818608E-02  0.1145702E+00
         21   -1    0    0  503  502  0.00000000000E+00  0.00000000000E+00  0.12754558857E+04  0.12754558857E+04  0.00000000000E+00 0.  1.
         21   -1    0    0  501  503 -0.00000000000E+00 -0.00000000000E+00 -0.35262737238E+02  0.35262737238E+02  0.00000000000E+00 0.  1.
          6    1    1    2  501    0 -0.72757712515E+02 -0.84203220100E+02  0.45060738354E+03  0.49498977879E+03  0.17200000000E+03 0.  1.
         -6    1    1    2    0  502  0.72757712515E+02  0.84203220100E+02  0.78958576489E+03  0.81572884412E+03  0.17200000000E+03 0.  1.
</event>
<event>
 4    1  0.4539494E+000  0.2562795E+03  0.7818608E-02  0.1109399E+00
         21   -1    0    0  501  502  0.00000000000E+00  0.00000000000E+00  0.92802054669E+03  0.92802054669E+03  0.00000000000E+00 0. -1.
         21   -1    0    0  502  503 -0.00000000000E+00 -0.00000000000E+00 -0.10972651780E+03  0.10972651780E+03  0.00000000000E+00 0.  1.
          6    1    1    2  501    0 -0.17013966083E+03 -0.84543992744E+02  0.71830231868E+03  0.76265156652E+03  0.17200000000E+03 0. -1.
         -6    1    1    2    0  503  0.17013966083E+03  0.84543992744E+02  0.99991710209E+02  0.27509549798E+03  0.17200000000E+03 0.  1.
</event>
<event>
 4    1  0.4539494E+000  0.2318412E+03  0.7818608E-02  0.1125351E+00
         21   -1    0    0  501  502  0.00000000000E+00  0.00000000000E+00  0.23710146318E+03  0.23710146318E+03  0.00000000000E+00 0. -1.
         21   -1    0    0  502  503 -0.00000000000E+00 -0.00000000000E+00 -0.23411282286E+03  0.23411282286E+03  0.00000000000E+00 0.  1.
          6    1    1    2  501    0 -0.69051693235E+02  0.13927737510E+03  0.43425692935E+02  0.23587308952E+03  0.17200000000E+03 0.  1.
         -6    1    1    2    0  503  0.69051693235E+02 -0.13927737510E+03 -0.40437052611E+02  0.23534119652E+03  0.17200000000E+03 0. -1.
</event>
<event>
 4    1  0.4539494E+000  0.1756098E+03  0.7818608E-02  0.1172121E+00
         21   -1    0    0  501  502  0.00000000000E+00  0.00000000000E+00  0.11869887346E+03  0.11869887346E+03  0.00000000000E+00 0.  1.
         21   -1    0    0  502  503 -0.00000000000E+00 -0.00000000000E+00 -0.35794950530E+03  0.35794950530E+03  0.00000000000E+00 0.  1.
          6    1    1    2  501    0 -0.34376363792E+02 -0.85480139598E+01  0.51663905297E+01  0.17568578349E+03  0.17200000000E+03 0.  1.
         -6    1    1    2    0  503  0.34376363792E+02  0.85480139598E+01 -0.24441702237E+03  0.30096259527E+03  0.17200000000E+03 0.  1.
</event>
<event>
 4    1  0.4539494E+000  0.2479760E+03  0.7818608E-02  0.1114591E+00
         21   -1    0    0  503  502  0.00000000000E+00  0.00000000000E+00  0.11353308944E+03  0.11353308944E+03  0.00000000000E+00 0.  1.
         21   -1    0    0  501  503 -0.00000000000E+00 -0.00000000000E+00 -0.64694901429E+03  0.64694901429E+03  0.00000000000E+00 0. -1.
          6    1    1    2  501    0  0.34721636995E+01 -0.17859462511E+03 -0.42013166596E+03  0.48785521702E+03  0.17200000000E+03 0. -1.
         -6    1    1    2    0  502 -0.34721636995E+01  0.17859462511E+03 -0.11328425889E+03  0.27262688670E+03  0.17200000000E+03 0.  1.
</event>
<event>
 4    1  0.4539494E+000  0.1829976E+03  0.7818608E-02  0.1164933E+00
         21   -1    0    0  503  502  0.00000000000E+00  0.00000000000E+00  0.31638943565E+03  0.31638943565E+03  0.00000000000E+00 0. -1.
         21   -1    0    0  501  503 -0.00000000000E+00 -0.00000000000E+00 -0.10599969396E+03  0.10599969396E+03  0.00000000000E+00 0.  1.
          6    1    1    2  501    0 -0.55518025029E+02  0.28668419921E+02  0.97117752789E+02  0.20717139598E+03  0.17200000000E+03 0. -1.
         -6    1    1    2    0  502  0.55518025029E+02 -0.28668419921E+02  0.11327198890E+03  0.21521773364E+03  0.17200000000E+03 0. -1.
</event>
<event>
 4    1  0.4539494E+000  0.1758889E+03  0.7818608E-02  0.1171842E+00
         21   -1    0    0  501  502  0.00000000000E+00  0.00000000000E+00  0.54440914902E+03  0.54440914902E+03  0.00000000000E+00 0. -1.
         21   -1    0    0  502  503 -0.00000000000E+00 -0.00000000000E+00 -0.17472206333E+03  0.17472206333E+03  0.00000000000E+00 0. -1.
          6    1    1    2  501    0 -0.28201774101E+02 -0.23612510179E+02  0.48020438482E+03  0.51140311096E+03  0.17200000000E+03 0. -1.
         -6    1    1    2    0  503  0.28201774101E+02  0.23612510179E+02 -0.11051729914E+03  0.20772810139E+03  0.17200000000E+03 0. -1.
</event>
<event>
 4    1  0.4539494E+000  0.1732558E+03  0.7818608E-02  0.1174495E+00
         21   -1    0    0  503  502  0.00000000000E+00  0.00000000000E+00  0.52240464376E+02  0.52240464376E+02  0.00000000000E+00 0. -1.
         21   -1    0    0  501  503 -0.00000000000E+00 -0.00000000000E+00 -0.65621776345E+03  0.65621776345E+03  0.00000000000E+00 0. -1.
          6    1    1    2  501    0  0.20546652452E+02  0.33761538324E+01 -0.42691176365E+03  0.46072900634E+03  0.17200000000E+03 0. -1.
         -6    1    1    2    0  502 -0.20546652452E+02 -0.33761538324E+01 -0.17706553542E+03  0.24772922148E+03  0.17200000000E+03 0. -1.
</event>
<event>
 4    1  0.4539494E+000  0.2219349E+03  0.7818608E-02  0.1132449E+00
         21   -1    0    0  503  502  0.00000000000E+00  0.00000000000E+00  0.17558400674E+03  0.17558400674E+03  0.00000000000E+00 0.  1.
         21   -1    0    0  501  503 -0.00000000000E+00 -0.00000000000E+00 -0.28456021977E+03  0.28456021977E+03  0.00000000000E+00 0.  1.
          6    1    1    2  501    0 -0.18676301095E+02 -0.13900460855E+03 -0.27078687647E+02  0.22358072534E+03  0.17200000000E+03 0.  1.
         -6    1    1    2    0  502  0.18676301095E+02  0.13900460855E+03 -0.81897525385E+02  0.23656350117E+03  0.17200000000E+03 0.  1.
</event>
<event>
 4    1  0.4539494E+000  0.2449950E+03  0.7818608E-02  0.1116509E+00
         21   -1    0    0  501  502  0.00000000000E+00  0.00000000000E+00  0.20333674317E+03  0.20333674317E+03  0.00000000000E+00 0.  1.
         21   -1    0    0  502  503 -0.00000000000E+00 -0.00000000000E+00 -0.79147664051E+03  0.79147664051E+03  0.00000000000E+00 0.  1.
          6    1    1    2  501    0 -0.83854764036E+02  0.15299323627E+03  0.99806280986E+02  0.26454460025E+03  0.17200000000E+03 0.  1.
         -6    1    1    2    0  503  0.83854764036E+02 -0.15299323627E+03 -0.68794617832E+03  0.73026878343E+03  0.17200000000E+03 0.  1.
</event>
<event>
 4    1  0.4539494E+000  0.1931412E+03  0.7818608E-02  0.1155658E+00
         21   -1    0    0  501  502  0.00000000000E+00  0.00000000000E+00  0.33179651852E+02  0.33179651852E+02  0.00000000000E+00 0. -1.
         21   -1    0    0  502  503 -0.00000000000E+00 -0.00000000000E+00 -0.13635557426E+04  0.13635557426E+04  0.00000000000E+00 0. -1.
          6    1    1    2  501    0  0.87080442942E+02 -0.11683505333E+02 -0.37264543644E+03  0.41972387249E+03  0.17200000000E+03 0. -1.
         -6    1    1    2    0  503 -0.87080442942E+02  0.11683505333E+02 -0.95773065430E+03  0.97701152195E+03  0.17200000000E+03 0. -1.
</event>
<event>
 4    1  0.4539494E+000  0.2226374E+03  0.7818608E-02  0.1131932E+00
         21   -1    0    0  501  502  0.00000000000E+00  0.00000000000E+00  0.11331649517E+03  0.11331649517E+03  0.00000000000E+00 0.  1.
         21   -1    0    0  502  503 -0.00000000000E+00 -0.00000000000E+00 -0.44260329615E+03  0.44260329615E+03  0.00000000000E+00 0.  1.
          6    1    1    2  501    0  0.95671802467E+02  0.10406871894E+03 -0.13457596918E+03  0.26015011730E+03  0.17200000000E+03 0.  1.
         -6    1    1    2    0  503 -0.95671802467E+02 -0.10406871894E+03 -0.19471083180E+03  0.29576967402E+03  0.17200000000E+03 0.  1.
</event>
<event>
 4    1  0.4539494E+000  0.2779825E+03  0.7818608E-02  0.1096796E+00
         21   -1    0    0  503  502  0.00000000000E+00  0.00000000000E+00  0.33895264718E+03  0.33895264718E+03  0.00000000000E+00 0. -1.
         21   -1    0    0  501  503 -0.00000000000E+00 -0.00000000000E+00 -0.23621282048E+03  0.23621282048E+03  0.00000000000E+00 0.  1.
          6    1    1    2  501    0 -0.13806545560E+03  0.16919874468E+03 -0.23204367239E+01  0.27799221150E+03  0.17200000000E+03 0. -1.
         -6    1    1    2    0  502  0.13806545560E+03 -0.16919874468E+03  0.10506026342E+03  0.29717325617E+03  0.17200000000E+03 0.  1.
</event>
<event>
 4    1  0.4539494E+000  0.1939294E+03  0.7818608E-02  0.1154964E+00
         21   -1    0    0  503  502  0.00000000000E+00  0.00000000000E+00  0.38534283681E+03  0.38534283681E+03  0.00000000000E+00 0. -1.
         21   -1    0    0  501  503 -0.00000000000E+00 -0.00000000000E+00 -0.21443875952E+03  0.21443875952E+03  0.00000000000E+00 0.  1.
          6    1    1    2  501    0 -0.85607330008E+02 -0.26381968226E+02 -0.13591298687E+03  0.23681419552E+03  0.17200000000E+03 0.  1.
         -6    1    1    2    0  502  0.85607330008E+02  0.26381968226E+02  0.30681706415E+03  0.36296740081E+03  0.17200000000E+03 0. -1.
</event>
<event>
 4    1  0.4539494E+000  0.2489432E+03  0.7818608E-02  0.1113974E+00
         21   -1    0    0  503  502  0.00000000000E+00  0.00000000000E+00  0.36059067735E+03  0.36059067735E+03  0.00000000000E+00 0. -1.
         21   -1    0    0  501  503 -0.00000000000E+00 -0.00000000000E+00 -0.20060715809E+03  0.20060715809E+03  0.00000000000E+00 0. -1.
          6    1    1    2  501    0  0.63859628758E+02 -0.16825779262E+03 -0.26220887499E+02  0.25032033857E+03  0.17200000000E+03 0. -1.
         -6    1    1    2    0  502 -0.63859628758E+02  0.16825779262E+03  0.18620440676E+03  0.31087749687E+03  0.17200000000E+03 0. -1.
</event>
<event>
 4    1  0.4539494E+000  0.2236856E+03  0.7818608E-02  0.1131165E+00
         21   -1    0    0  503  502  0.00000000000E+00  0.00000000000E+00  0.72113397835E+03  0.72113397835E+03  0.00000000000E+00 0. -1.
         21   -1    0    0  501  503 -0.00000000000E+00 -0.00000000000E+00 -0.89892332893E+02  0.89892332893E+02  0.00000000000E+00 0. -1.
          6    1    1    2  501    0  0.86962691501E+02 -0.11352864730E+03  0.12193078594E+03  0.25475945523E+03  0.17200000000E+03 0. -1.
         -6    1    1    2    0  502 -0.86962691501E+02  0.11352864730E+03  0.50931085953E+03  0.55626685602E+03  0.17200000000E+03 0. -1.
</event>
<event>
 4    1  0.4539494E+000  0.1890857E+03  0.7818608E-02  0.1159289E+00
         21   -1    0    0  501  502  0.00000000000E+00  0.00000000000E+00  0.12029032685E+03  0.12029032685E+03  0.00000000000E+00 0. -1.
         21   -1    0    0  502  503 -0.00000000000E+00 -0.00000000000E+00 -0.35454396235E+03  0.35454396235E+03  0.00000000000E+00 0. -1.
          6    1    1    2  501    0 -0.46928279524E+02 -0.62985371889E+02 -0.21666658158E+02  0.19032305317E+03  0.17200000000E+03 0. -1.
         -6    1    1    2    0  503  0.46928279524E+02  0.62985371889E+02 -0.21258697735E+03  0.28451123603E+03  0.17200000000E+03 0. -1.
</event>
<event>
 4    1  0.4539494E+000  0.2196411E+03  0.7818608E-02  0.1134151E+00
         21   -1    0    0  501  502  0.00000000000E+00  0.00000000000E+00  0.38158367090E+02  0.38158367090E+02  0.00000000000E+00 0. -1.
         21   -1    0    0  502  503 -0.00000000000E+00 -0.00000000000E+00 -0.12903608786E+04  0.12903608786E+04  0.00000000000E+00 0. -1.
          6    1    1    2  501    0  0.94717836188E+02  0.98421280645E+02 -0.53163347708E+03  0.57521854188E+03  0.17200000000E+03 0. -1.
         -6    1    1    2    0  503 -0.94717836188E+02 -0.98421280645E+02 -0.72056903446E+03  0.75330070384E+03  0.17200000000E+03 0. -1.
</event>
<event>
 4    1  0.4539494E+000  0.1761378E+03  0.7818608E-02  0.1171594E+00
         21   -1    0    0  501  502  0.00000000000E+00  0.00000000000E+00  0.56457024289E+03  0.56457024289E+03  0.00000000000E+00 0. -1.
         21   -1    0    0  502  503 -0.00000000000E+00 -0.00000000000E+00 -0.69403827304E+02  0.69403827304E+02  0.00000000000E+00 0. -1.
          6    1    1    2  501    0  0.33430012664E+02  0.17971382694E+02  0.10293804237E+03  0.20401170778E+03  0.17200000000E+03 0.  1.
         -6    1    1    2    0  503 -0.33430012664E+02 -0.17971382694E+02  0.39222837321E+03  0.42996236242E+03  0.17200000000E+03 0.  1.
</event>
<event>
 4    1  0.4539494E+000  0.2130623E+03  0.7818608E-02  0.1139164E+00
         21   -1    0    0  503  502  0.00000000000E+00  0.00000000000E+00  0.19824018309E+03  0.19824018309E+03  0.00000000000E+00 0. -1.
         21   -1    0    0  501  503 -0.00000000000E+00 -0.00000000000E+00 -0.24918069735E+03  0.24918069735E+03  0.00000000000E+00 0.  1.
          6    1    1    2  501    0  0.36712026746E+02  0.12026534232E+03 -0.89146475497E+02  0.23096021208E+03  0.17200000000E+03 0.  1.
         -6    1    1    2    0  502 -0.36712026746E+02 -0.12026534232E+03  0.38205961232E+02  0.21646066835E+03  0.17200000000E+03 0. -1.
</event>
<event>
 4    1  0.4539494E+000  0.1752206E+03  0.7818608E-02  0.1172510E+00
         21   -1    0    0  501  502  0.00000000000E+00  0.00000000000E+00  0.19641844281E+03  0.19641844281E+03  0.00000000000E+00 0.  1.
         21   -1    0    0  502  503 -0.00000000000E+00 -0.00000000000E+00 -0.10866467624E+04  0.10866467624E+04  0.00000000000E+00 0.  1.
          6    1    1    2  501    0  0.32107299808E+02 -0.93477464755E+01  0.14848669612E+03  0.22967489630E+03  0.17200000000E+03 0.  1.
         -6    1    1    2    0  503 -0.32107299808E+02  0.93477464755E+01 -0.10387150157E+04  0.10533903089E+04  0.17200000000E+03 0.  1.
</event>
<event>
 4    1  0.4539494E+000  0.1893586E+03  0.7818608E-02  0.1159041E+00
         21   -1    0    0  501  502  0.00000000000E+00  0.00000000000E+00  0.18390934468E+03  0.18390934468E+03  0.00000000000E+00 0. -1.
         21   -1    0    0  502  503 -0.00000000000E+00 -0.00000000000E+00 -0.24273204873E+03  0.24273204873E+03  0.00000000000E+00 0. -1.
          6    1    1    2  501    0  0.49485352071E+02 -0.61837398694E+02  0.65215499798E+02  0.20027412554E+03  0.17200000000E+03 0. -1.
         -6    1    1    2    0  503 -0.49485352071E+02  0.61837398694E+02 -0.12403820386E+03  0.22636726787E+03  0.17200000000E+03 0. -1.
</event>
<event>
 4    1  0.4539494E+000  0.2480767E+03  0.7818608E-02  0.1114526E+00
         21   -1    0    0  501  502  0.00000000000E+00  0.00000000000E+00  0.26479532739E+03  0.26479532739E+03  0.00000000000E+00 0. -1.
         21   -1    0    0  502  503 -0.00000000000E+00 -0.00000000000E+00 -0.33211694671E+03  0.33211694671E+03  0.00000000000E+00 0. -1.
          6    1    1    2  501    0  0.11702250145E+03  0.13514358442E+03  0.12986628000E+03  0.28001304423E+03  0.17200000000E+03 0. -1.
         -6    1    1    2    0  503 -0.11702250145E+03 -0.13514358442E+03 -0.19718789932E+03  0.31689922987E+03  0.17200000000E+03 0. -1.
</event>
<event>
 4    1  0.4539494E+000  0.1794523E+03  0.7818608E-02  0.1168334E+00
         21   -1    0    0  501  502  0.00000000000E+00  0.00000000000E+00  0.11236356703E+03  0.11236356703E+03  0.00000000000E+00 0. -1.
         21   -1    0    0  502  503 -0.00000000000E+00 -0.00000000000E+00 -0.28679106303E+03  0.28679106303E+03  0.00000000000E+00 0. -1.
          6    1    1    2  501    0  0.41123801929E+02  0.30462314274E+02 -0.92398367457E+02  0.20184295377E+03  0.17200000000E+03 0. -1.
         -6    1    1    2    0  503 -0.41123801929E+02 -0.30462314274E+02 -0.82029128543E+02  0.19731167630E+03  0.17200000000E+03 0. -1.
</event>
<event>
 4    1  0.4539494E+000  0.2154468E+03  0.7818608E-02  0.1137324E+00
         21   -1    0    0  501  502  0.00000000000E+00  0.00000000000E+00  0.85269063081E+02  0.85269063081E+02  0.00000000000E+00 0. -1.
         21   -1    0    0  502  503 -0.00000000000E+00 -0.00000000000E+00 -0.75128297637E+03  0.75128297637E+03  0.00000000000E+00 0. -1.
          6    1    1    2  501    0 -0.10704697478E+03  0.73309484127E+02 -0.11349294255E+03  0.24351177237E+03  0.17200000000E+03 0. -1.
         -6    1    1    2    0  503  0.10704697478E+03 -0.73309484127E+02 -0.55252097074E+03  0.59304026708E+03  0.17200000000E+03 0. -1.
</event>
<event>
 4    1  0.4539494E+000  0.2193271E+03  0.7818608E-02  0.1134386E+00
         21   -1    0    0  501  502  0.00000000000E+00  0.00000000000E+00  0.31561876423E+03  0.31561876423E+03  0.00000000000E+00 0.  1.
         21   -1    0    0  502  503 -0.00000000000E+00 -0.00000000000E+00 -0.19205047390E+03  0.19205047390E+03  0.00000000000E+00 0.  1.
          6    1    1    2  501    0  0.13370460276E+03  0.25366254567E+02  0.17710205283E+03  0.28190336072E+03  0.17200000000E+03 0.  1.
         -6    1    1    2    0  503 -0.13370460276E+03 -0.25366254567E+02 -0.53533762500E+02  0.22576587740E+03  0.17200000000E+03 0.  1.
</event>
<event>
 4    1  0.4539494E+000  0.1831170E+03  0.7818608E-02  0.1164820E+00
         21   -1    0    0  501  502  0.00000000000E+00  0.00000000000E+00  0.27314572149E+03  0.27314572149E+03  0.00000000000E+00 0. -1.
         21   -1    0    0  502  503 -0.00000000000E+00 -0.00000000000E+00 -0.12277389253E+03  0.12277389253E+03  0.00000000000E+00 0.  1.
          6    1    1    2  501    0 -0.41711500023E+02  0.46989234928E+02  0.73214448375E+02  0.19721103642E+03  0.17200000000E+03 0. -1.
         -6    1    1    2    0  503  0.41711500023E+02 -0.46989234928E+02  0.77157380582E+02  0.19870857760E+03  0.17200000000E+03 0.  1.
</event>
<event>
 4    1  0.4539494E+000  0.1836873E+03  0.7818608E-02  0.1164281E+00
         21   -1    0    0  503  502  0.00000000000E+00  0.00000000000E+00  0.32723234800E+04  0.32723234800E+04  0.00000000000E+00 0. -1.
         21   -1    0    0  501  503 -0.00000000000E+00 -0.00000000000E+00 -0.13528800237E+02  0.13528800237E+02  0.00000000000E+00 0. -1.
          6    1    1    2  501    0 -0.50187902708E+02 -0.40474666653E+02  0.82815121783E+03  0.84827794019E+03  0.17200000000E+03 0. -1.
         -6    1    1    2    0  502  0.50187902708E+02  0.40474666653E+02  0.24306434619E+04  0.24375743400E+04  0.17200000000E+03 0. -1.
</event>
<event>
 4    1  0.4539494E+000  0.1903249E+03  0.7818608E-02  0.1158169E+00
         21   -1    0    0  503  502  0.00000000000E+00  0.00000000000E+00  0.64188668179E+03  0.64188668179E+03  0.00000000000E+00 0.  1.
         21   -1    0    0  501  503 -0.00000000000E+00 -0.00000000000E+00 -0.83855970138E+02  0.83855970138E+02  0.00000000000E+00 0.  1.
          6    1    1    2  501    0 -0.53926741701E+02 -0.61085816129E+02  0.71503383281E+02  0.20331331541E+03  0.17200000000E+03 0.  1.
         -6    1    1    2    0  502  0.53926741701E+02  0.61085816129E+02  0.48652732837E+03  0.52242933652E+03  0.17200000000E+03 0.  1.
</event>
<event>
 4    1  0.4539494E+000  0.2632388E+03  0.7818608E-02  0.1105213E+00
         21   -1    0    0  501  502  0.00000000000E+00  0.00000000000E+00  0.83895010383E+03  0.83895010383E+03  0.00000000000E+00 0.  1.
         21   -1    0    0  502  503 -0.00000000000E+00 -0.00000000000E+00 -0.67408177920E+03  0.67408177920E+03  0.00000000000E+00 0. -1.
          6    1    1    2  501    0  0.19535876126E+03  0.39314217874E+02  0.79108715266E+03  0.83373469187E+03  0.17200000000E+03 0.  1.
         -6    1    1    2    0  503 -0.19535876126E+03 -0.39314217874E+02 -0.62621882803E+03  0.67929719116E+03  0.17200000000E+03 0. -1.
</event>
<event>
 4    1  0.4539494E+000  0.2224114E+03  0.7818608E-02  0.1132098E+00
         21   -1    0    0  501  502  0.00000000000E+00  0.00000000000E+00  0.43495125210E+02  0.43495125210E+02  0.00000000000E+00 0.  1.
         21   -1    0    0  502  503 -0.00000000000E+00 -0.00000000000E+00 -0.12884789920E+04  0.12884789920E+04  0.00000000000E+00 0. -1.
          6    1    1    2  501    0 -0.94112179053E+02 -0.10500339723E+03 -0.39436365475E+03  0.45275767013E+03  0.17200000000E+03 0.  1.
         -6    1    1    2    0  503  0.94112179053E+02  0.10500339723E+03 -0.85062021201E+03  0.87921644704E+03  0.17200000000E+03 0. -1.
</event>
<event>
 4    1  0.4539494E+000  0.2146841E+03  0.7818608E-02  0.1137909E+00
         21   -1    0    0  501  502  0.00000000000E+00  0.00000000000E+00  0.15189356393E+03  0.15189356393E+03  0.00000000000E+00 0.  1.
         21   -1    0    0  502  503 -0.00000000000E+00 -0.00000000000E+00 -0.61840100064E+03  0.61840100064E+03  0.00000000000E+00 0.  1.
          6    1    1    2  501    0 -0.12597924572E+03  0.25188793152E+02  0.41615562965E+02  0.21868036202E+03  0.17200000000E+03 0.  1.
         -6    1    1    2    0  503  0.12597924572E+03 -0.25188793152E+02 -0.50812299968E+03  0.55161420255E+03  0.17200000000E+03 0.  1.
</event>
<event>
 4    1  0.4539494E+000  0.2629025E+03  0.7818608E-02  0.1105412E+00
         21   -1    0    0  501  502  0.00000000000E+00  0.00000000000E+00  0.19294252581E+03  0.19294252581E+03  0.00000000000E+00 0.  1.
         21   -1    0    0  502  503 -0.00000000000E+00 -0.00000000000E+00 -0.10070901524E+04  0.10070901524E+04  0.00000000000E+00 0.  1.
          6    1    1    2  501    0  0.11703251382E+03  0.16073925080E+03  0.74546284675E+02  0.27326702069E+03  0.17200000000E+03 0.  1.
         -6    1    1    2    0  503 -0.11703251382E+03 -0.16073925080E+03 -0.88869391131E+03  0.92676565756E+03  0.17200000000E+03 0.  1.
</event>
<event>
 4    1  0.4539494E+000  0.1862770E+03  0.7818608E-02  0.1161863E+00
         21   -1    0    0  503  502  0.00000000000E+00  0.00000000000E+00  0.52416179474E+03  0.52416179474E+03  0.00000000000E+00 0.  1.
         21   -1    0    0  501  503 -0.00000000000E+00 -0.00000000000E+00 -0.70183578106E+02  0.70183578106E+02  0.00000000000E+00 0.  1.
          6    1    1    2  501    0  0.22770103004E+02  0.67798544225E+02  0.15618337499E+03  0.24308921575E+03  0.17200000000E+03 0.  1.
         -6    1    1    2    0  502 -0.22770103004E+02 -0.67798544225E+02  0.29779484165E+03  0.35125615710E+03  0.17200000000E+03 0.  1.
</event>
<event>
 4    1  0.4539494E+000  0.1839126E+03  0.7818608E-02  0.1164069E+00
         21   -1    0    0  503  502  0.00000000000E+00  0.00000000000E+00  0.10522099444E+03  0.10522099444E+03  0.00000000000E+00 0.  1.
         21   -1    0    0  501  503 -0.00000000000E+00 -0.00000000000E+00 -0.38194947330E+03  0.38194947330E+03  0.00000000000E+00 0.  1.
          6    1    1    2  501    0  0.63287522682E+02 -0.15314769110E+02 -0.23530458347E+03  0.29865046406E+03  0.17200000000E+03 0.  1.
         -6    1    1    2    0  502 -0.63287522682E+02  0.15314769110E+02 -0.41423895394E+02  0.18852000369E+03  0.17200000000E+03 0.  1.
</event>
<event>
 4    1  0.4539494E+000  0.2061624E+03  0.7818608E-02  0.1144641E+00
         21   -1    0    0  503  502  0.00000000000E+00  0.00000000000E+00  0.20579314740E+03  0.20579314740E+03  0.00000000000E+00 0. -1.
         21   -1    0    0  501  503 -0.00000000000E+00 -0.00000000000E+00 -0.29909950683E+03  0.29909950683E+03  0.00000000000E+00 0. -1.
          6    1    1    2  501    0  0.66063422518E+02  0.92490928700E+02 -0.18709278800E+03  0.27840017782E+03  0.17200000000E+03 0. -1.
         -6    1    1    2    0  502 -0.66063422518E+02 -0.92490928700E+02  0.93786428569E+02  0.22649247641E+03  0.17200000000E+03 0. -1.
</event>
<event>
 4    1  0.4539494E+000  0.2008232E+03  0.7818608E-02  0.1149046E+00
         21   -1    0    0  503  502  0.00000000000E+00  0.00000000000E+00  0.29801719479E+02  0.29801719479E+02  0.00000000000E+00 0. -1.
         21   -1    0    0  501  503 -0.00000000000E+00 -0.00000000000E+00 -0.13669354676E+04  0.13669354676E+04  0.00000000000E+00 0.  1.
          6    1    1    2  501    0 -0.99812684117E+02  0.27988813165E+02 -0.73837900031E+03  0.76520160328E+03  0.17200000000E+03 0. -1.
         -6    1    1    2    0  502  0.99812684117E+02 -0.27988813165E+02 -0.59875474786E+03  0.63153558384E+03  0.17200000000E+03 0.  1.
</event>
<event>
 4    1  0.4539494E+000  0.2669723E+03  0.7818608E-02  0.1103025E+00
         21   -1    0    0  501  502  0.00000000000E+00  0.00000000000E+00  0.65588452625E+03  0.65588452625E+03  0.00000000000E+00 0. -1.
         21   -1    0    0  502  503 -0.00000000000E+00 -0.00000000000E+00 -0.18782038075E+03  0.18782038075E+03  0.00000000000E+00 0.  1.
          6    1    1    2  501    0 -0.19532539315E+03 -0.59482832805E+02  0.50788594279E+03  0.57377900579E+03  0.17200000000E+03 0. -1.
         -6    1    1    2    0  503  0.19532539315E+03  0.59482832805E+02 -0.39821797285E+02  0.26992590121E+03  0.17200000000E+03 0.  1.
</event>
<event>
 4    1  0.4539494E+000  0.1994181E+03  0.7818608E-02  0.1150231E+00
         21   -1    0    0  501  502  0.00000000000E+00  0.00000000000E+00  0.15446629448E+03  0.15446629448E+03  0.00000000000E+00 0. -1.
         21   -1    0    0  502  503 -0.00000000000E+00 -0.00000000000E+00 -0.86195020331E+03  0.86195020331E+03  0.00000000000E+00 0.  1.
          6    1    1    2  501    0  0.82662079935E+02 -0.57884131211E+02  0.71854771743E+02  0.21196863053E+03  0.17200000000E+03 0. -1.
         -6    1    1    2    0  503 -0.82662079935E+02  0.57884131211E+02 -0.77933868057E+03  0.80444786726E+03  0.17200000000E+03 0.  1.
</event>
<event>
 4    1  0.4539494E+000  0.2355922E+03  0.7818608E-02  0.1122765E+00
         21   -1    0    0  501  502  0.00000000000E+00  0.00000000000E+00  0.11593569337E+04  0.11593569337E+04  0.00000000000E+00 0.  1.
         21   -1    0    0  502  503 -0.00000000000E+00 -0.00000000000E+00 -0.32398211653E+03  0.32398211653E+03  0.00000000000E+00 0. -1.
          6    1    1    2  501    0 -0.16097339066E+03 -0.26888550064E+01  0.11023696900E+04  0.11272633215E+04  0.17200000000E+03 0.  1.
         -6    1    1    2    0  503  0.16097339066E+03  0.26888550064E+01 -0.26699487289E+03  0.35607572873E+03  0.17200000000E+03 0. -1.
</event>
<event>
 4    1  0.4539494E+000  0.2386512E+03  0.7818608E-02  0.1120695E+00
         21   -1    0    0  503  502  0.00000000000E+00  0.00000000000E+00  0.14593186301E+04  0.14593186301E+04  0.00000000000E+00 0. -1.
         21   -1    0    0  501  503 -0.00000000000E+00 -0.00000000000E+00 -0.12820067201E+03  0.12820067201E+03  0.00000000000E+00 0.  1.
          6    1    1    2  501    0  0.68442133349E+02 -0.15061896582E+03  0.35565654550E+01  0.23867770662E+03  0.17200000000E+03 0.  1.
         -6    1    1    2    0  502 -0.68442133349E+02  0.15061896582E+03  0.13275613926E+04  0.13488415954E+04  0.17200000000E+03 0. -1.
</event>
<event>
 4    1  0.4539494E+000  0.1980862E+03  0.7818608E-02  0.1151364E+00
         21   -1    0    0  503  502  0.00000000000E+00  0.00000000000E+00  0.41004870534E+03  0.41004870534E+03  0.00000000000E+00 0.  1.
         21   -1    0    0  501  503 -0.00000000000E+00 -0.00000000000E+00 -0.12170106846E+03  0.12170106846E+03  0.00000000000E+00 0.  1.
          6    1    1    2  501    0 -0.10775970306E+02  0.97662796096E+02  0.21260949482E+02  0.19922392238E+03  0.17200000000E+03 0.  1.
         -6    1    1    2    0  502  0.10775970306E+02 -0.97662796096E+02  0.26708668740E+03  0.33252585142E+03  0.17200000000E+03 0.  1.
</event>
<event>
 4    1  0.4539494E+000  0.1783476E+03  0.7818608E-02  0.1169412E+00
         21   -1    0    0  501  502  0.00000000000E+00  0.00000000000E+00  0.13371285638E+03  0.13371285638E+03  0.00000000000E+00 0.  1.
         21   -1    0    0  502  503 -0.00000000000E+00 -0.00000000000E+00 -0.37969502020E+03  0.37969502020E+03  0.00000000000E+00 0.  1.
          6    1    1    2  501    0 -0.43594258757E+02  0.17983141031E+02  0.33891043896E+02  0.18153912971E+03  0.17200000000E+03 0.  1.
         -6    1    1    2    0  503  0.43594258757E+02 -0.17983141031E+02 -0.27987320772E+03  0.33186874688E+03  0.17200000000E+03 0.  1.
</event>
<event>
 4    1  0.4539494E+000  0.2324180E+03  0.7818608E-02  0.1124949E+00
         21   -1    0    0  501  502  0.00000000000E+00  0.00000000000E+00  0.16509666003E+03  0.16509666003E+03  0.00000000000E+00 0.  1.
         21   -1    0    0  502  503 -0.00000000000E+00 -0.00000000000E+00 -0.33460698542E+03  0.33460698542E+03  0.00000000000E+00 0.  1.
          6    1    1    2  501    0 -0.13499485219E+03  0.78806846926E+02 -0.12195162112E+03  0.26246966898E+03  0.17200000000E+03 0.  1.
         -6    1    1    2    0  503  0.13499485219E+03 -0.78806846926E+02 -0.47558704274E+02  0.23723397647E+03  0.17200000000E+03 0.  1.
</event>
<event>
 4    1  0.4539494E+000  0.1760464E+03  0.7818608E-02  0.1171685E+00
         21   -1    0    0  501  502  0.00000000000E+00  0.00000000000E+00  0.17470404437E+04  0.17470404437E+04  0.00000000000E+00 0. -1.
         21   -1    0    0  502  503 -0.00000000000E+00 -0.00000000000E+00 -0.66540999550E+02  0.66540999550E+02  0.00000000000E+00 0. -1.
          6    1    1    2  501    0  0.27138270389E+00  0.37526818159E+02  0.16168135872E+04  0.16263697339E+04  0.17200000000E+03 0. -1.
         -6    1    1    2    0  503 -0.27138270389E+00 -0.37526818159E+02  0.63685856963E+02  0.18721170932E+03  0.17200000000E+03 0. -1.
</event>
<event>
 4    1  0.4539494E+000  0.2229291E+03  0.7818608E-02  0.1131718E+00
         21   -1    0    0  503  502  0.00000000000E+00  0.00000000000E+00  0.14322670509E+04  0.14322670509E+04  0.00000000000E+00 0. -1.
         21   -1    0    0  501  503 -0.00000000000E+00 -0.00000000000E+00 -0.77792480134E+02  0.77792480134E+02  0.00000000000E+00 0.  1.
          6    1    1    2  501    0 -0.77228150536E+02 -0.11895035571E+03  0.11527900590E+03  0.25097136004E+03  0.17200000000E+03 0.  1.
         -6    1    1    2    0  502  0.77228150536E+02  0.11895035571E+03  0.12391955649E+04  0.12590881710E+04  0.17200000000E+03 0. -1.
</event>
<event>
 4    1  0.4539494E+000  0.1752136E+03  0.7818608E-02  0.1172517E+00
         21   -1    0    0  503  502  0.00000000000E+00  0.00000000000E+00  0.15848908110E+03  0.15848908110E+03  0.00000000000E+00 0. -1.
         21   -1    0    0  501  503 -0.00000000000E+00 -0.00000000000E+00 -0.55211392641E+03  0.55211392641E+03  0.00000000000E+00 0. -1.
          6    1    1    2  501    0 -0.13986795255E+02  0.30334132250E+02 -0.48308081123E+03  0.51387436227E+03  0.17200000000E+03 0. -1.
         -6    1    1    2    0  502  0.13986795255E+02 -0.30334132250E+02  0.89455965921E+02  0.19672864524E+03  0.17200000000E+03 0. -1.
</event>
<event>
 4    1  0.4539494E+000  0.2503335E+03  0.7818608E-02  0.1113094E+00
         21   -1    0    0  503  502  0.00000000000E+00  0.00000000000E+00  0.20989159352E+03  0.20989159352E+03  0.00000000000E+00 0.  1.
         21   -1    0    0  501  503 -0.00000000000E+00 -0.00000000000E+00 -0.30107142204E+03  0.30107142204E+03  0.00000000000E+00 0.  1.
          6    1    1    2  501    0  0.94780734796E+02  0.15524011528E+03 -0.68887185250E+02  0.25963883641E+03  0.17200000000E+03 0.  1.
         -6    1    1    2    0  502 -0.94780734796E+02 -0.15524011528E+03 -0.22292643270E+02  0.25132417915E+03  0.17200000000E+03 0.  1.
</event>
<event>
 4    1  0.4539494E+000  0.1826738E+03  0.7818608E-02  0.1165240E+00
         21   -1    0    0  503  502  0.00000000000E+00  0.00000000000E+00  0.21943108423E+02  0.21943108423E+02  0.00000000000E+00 0.  1.
         21   -1    0    0  501  503 -0.00000000000E+00 -0.00000000000E+00 -0.16714319264E+04  0.16714319264E+04  0.00000000000E+00 0.  1.
          6    1    1    2  501    0 -0.39404272489E+02 -0.47255035750E+02 -0.10789737173E+04  0.10943281125E+04  0.17200000000E+03 0.  1.
         -6    1    1    2    0  502  0.39404272489E+02  0.47255035750E+02 -0.57051510068E+03  0.59904692237E+03  0.17200000000E+03 0.  1.
</event>
<event>
 4    1  0.4539494E+000  0.1958032E+03  0.7818608E-02  0.1153329E+00
         21   -1    0    0  503  502  0.00000000000E+00  0.00000000000E+00  0.79626610562E+03  0.79626610562E+03  0.00000000000E+00 0.  1.
         21   -1    0    0  501  503 -0.00000000000E+00 -0.00000000000E+00 -0.58055864529E+02  0.58055864529E+02  0.00000000000E+00 0.  1.
          6    1    1    2  501    0 -0.71003152961E+02 -0.60937892329E+02  0.19264296918E+03  0.27468197616E+03  0.17200000000E+03 0.  1.
         -6    1    1    2    0  502  0.71003152961E+02  0.60937892329E+02  0.54556727191E+03  0.57963999399E+03  0.17200000000E+03 0.  1.
</event>
<event>
 4    1  0.4539494E+000  0.2447589E+03  0.7818608E-02  0.1116663E+00
         21   -1    0    0  501  502  0.00000000000E+00  0.00000000000E+00  0.11529875248E+03  0.11529875248E+03  0.00000000000E+00 0.  1.
         21   -1    0    0  502  503 -0.00000000000E+00 -0.00000000000E+00 -0.57981843998E+03  0.57981843998E+03  0.00000000000E+00 0. -1.
          6    1    1    2  501    0  0.17291771947E+03  0.20552235226E+02 -0.12023388094E+03  0.27269601795E+03  0.17200000000E+03 0.  1.
         -6    1    1    2    0  503 -0.17291771947E+03 -0.20552235226E+02 -0.34428580656E+03  0.42242117451E+03  0.17200000000E+03 0. -1.
</event>
<event>
 4    1  0.4539494E+000  0.2447645E+03  0.7818608E-02  0.1116659E+00
         21   -1    0    0  503  502  0.00000000000E+00  0.00000000000E+00  0.36733645136E+03  0.36733645136E+03  0.00000000000E+00 0.  1.
         21   -1    0    0  501  503 -0.00000000000E+00 -0.00000000000E+00 -0.21471174516E+03  0.21471174516E+03  0.00000000000E+00 0.  1.
          6    1    1    2  501    0 -0.11430785760E+03 -0.13137489203E+03 -0.66382675057E+02  0.25360660108E+03  0.17200000000E+03 0.  1.
         -6    1    1    2    0  502  0.11430785760E+03  0.13137489203E+03  0.21900738126E+03  0.32844159543E+03  0.17200000000E+03 0.  1.
</event>
<event>
 4    1  0.4539494E+000  0.4343857E+03  0.7818608E-02  0.1032483E+00
         21   -1    0    0  503  502  0.00000000000E+00  0.00000000000E+00  0.17311112606E+03  0.17311112606E+03  0.00000000000E+00 0. -1.
         21   -1    0    0  501  503 -0.00000000000E+00 -0.00000000000E+00 -0.11677202492E+04  0.11677202492E+04  0.00000000000E+00 0.  1.
          6    1    1    2  501    0 -0.16138051317E+03 -0.36477835509E+03 -0.67026438301E+03  0.79871475604E+03  0.17200000000E+03 0.  1.
         -6    1    1    2    0  502  0.16138051317E+03  0.36477835509E+03 -0.32434474011E+03  0.54211661920E+03  0.17200000000E+03 0. -1.
</event>
<event>
 4    1  0.4539494E+000  0.2077144E+03  0.7818608E-02  0.1143389E+00
         21   -1    0    0  501  502  0.00000000000E+00  0.00000000000E+00  0.10411665003E+03  0.10411665003E+03  0.00000000000E+00 0.  1.
         21   -1    0    0  502  503 -0.00000000000E+00 -0.00000000000E+00 -0.43084319773E+03  0.43084319773E+03  0.00000000000E+00 0.  1.
          6    1    1    2  501    0  0.11613066221E+03 -0.86564352309E+01 -0.11109834859E+03  0.23555913830E+03  0.17200000000E+03 0.  1.
         -6    1    1    2    0  503 -0.11613066221E+03  0.86564352309E+01 -0.21562819910E+03  0.29940070946E+03  0.17200000000E+03 0.  1.
</event>
<event>
 4    1  0.4539494E+000  0.2080710E+03  0.7818608E-02  0.1143103E+00
         21   -1    0    0  503  502  0.00000000000E+00  0.00000000000E+00  0.94990409767E+02  0.94990409767E+02  0.00000000000E+00 0.  1.
         21   -1    0    0  501  503 -0.00000000000E+00 -0.00000000000E+00 -0.47412143523E+03  0.47412143523E+03  0.00000000000E+00 0. -1.
          6    1    1    2  501    0 -0.77604255542E+02 -0.87676304729E+02 -0.24555232929E+03  0.32185322945E+03  0.17200000000E+03 0.  1.
         -6    1    1    2    0  502  0.77604255542E+02  0.87676304729E+02 -0.13357869617E+03  0.24725861554E+03  0.17200000000E+03 0.  1.
</event>
<event>
 4    1  0.4539494E+000  0.3735317E+03  0.7818608E-02  0.1053351E+00
         21   -1    0    0  501  502  0.00000000000E+00  0.00000000000E+00  0.68533844847E+02  0.68533844847E+02  0.00000000000E+00 0. -1.
         21   -1    0    0  502  503 -0.00000000000E+00 -0.00000000000E+00 -0.24618116809E+04  0.24618116809E+04  0.00000000000E+00 0.  1.
          6    1    1    2  501    0 -0.28745666839E+03  0.16525927357E+03 -0.67038208206E+03  0.76742302523E+03  0.17200000000E+03 0. -1.
         -6    1    1    2    0  503  0.28745666839E+03 -0.16525927357E+03 -0.17228957540E+04  0.17629225005E+04  0.17200000000E+03 0.  1.
</event>
<event>
 4    1  0.4539494E+000  0.1857443E+03  0.7818608E-02  0.1162357E+00
         21   -1    0    0  501  502  0.00000000000E+00  0.00000000000E+00  0.25849015490E+03  0.25849015490E+03  0.00000000000E+00 0. -1.
         21   -1    0    0  502  503 -0.00000000000E+00 -0.00000000000E+00 -0.15288006023E+03  0.15288006023E+03  0.00000000000E+00 0. -1.
          6    1    1    2  501    0  0.31547296682E+02 -0.62623691695E+02  0.12609236848E+03  0.22449998681E+03  0.17200000000E+03 0. -1.
         -6    1    1    2    0  503 -0.31547296682E+02  0.62623691695E+02 -0.20482273811E+02  0.18687022831E+03  0.17200000000E+03 0. -1.
</event>
<event>
 4    1  0.4539494E+000  0.2335041E+03  0.7818608E-02  0.1124197E+00
         21   -1    0    0  501  502  0.00000000000E+00  0.00000000000E+00  0.27641684074E+03  0.27641684074E+03  0.00000000000E+00 0.  1.
         21   -1    0    0  502  503 -0.00000000000E+00 -0.00000000000E+00 -0.19997764412E+03  0.19997764412E+03  0.00000000000E+00 0. -1.
          6    1    1    2  501    0  0.15787789184E+03 -0.38386941288E+01  0.66021099821E+02  0.24265809265E+03  0.17200000000E+03 0.  1.
         -6    1    1    2    0  503 -0.15787789184E+03  0.38386941288E+01  0.10418096806E+02  0.23373639222E+03  0.17200000000E+03 0. -1.
</event>
<event>
 4    1  0.4539494E+000  0.3754082E+03  0.7818608E-02  0.1052644E+00
         21   -1    0    0  501  502  0.00000000000E+00  0.00000000000E+00  0.36352354909E+03  0.36352354909E+03  0.00000000000E+00 0. -1.
         21   -1    0    0  502  503 -0.00000000000E+00 -0.00000000000E+00 -0.53325561758E+03  0.53325561758E+03  0.00000000000E+00 0.  1.
          6    1    1    2  501    0 -0.33203270338E+03 -0.33190750572E+02  0.14941111497E+03  0.40404829329E+03  0.17200000000E+03 0. -1.
         -6    1    1    2    0  503  0.33203270338E+03  0.33190750572E+02 -0.31914318346E+03  0.49273087338E+03  0.17200000000E+03 0.  1.
</event>
<event>
 4    1  0.4539494E+000  0.1913882E+03  0.7818608E-02  0.1157215E+00
         21   -1    0    0  503  502  0.00000000000E+00  0.00000000000E+00  0.91927059500E+03  0.91927059500E+03  0.00000000000E+00 0. -1.
         21   -1    0    0  501  503 -0.00000000000E+00 -0.00000000000E+00 -0.40701975913E+02  0.40701975913E+02  0.00000000000E+00 0. -1.
          6    1    1    2  501    0  0.76582297054E+02  0.34359727361E+02  0.50888304654E+03  0.54368317441E+03  0.17200000000E+03 0.  1.
         -6    1    1    2    0  502 -0.76582297054E+02 -0.34359727361E+02  0.36968557255E+03  0.41628939650E+03  0.17200000000E+03 0.  1.
</event>
<event>
 4    1  0.4539494E+000  0.2709312E+03  0.7818608E-02  0.1100748E+00
         21   -1    0    0  503  502  0.00000000000E+00  0.00000000000E+00  0.10605673202E+04  0.10605673202E+04  0.00000000000E+00 0.  1.
         21   -1    0    0  501  503 -0.00000000000E+00 -0.00000000000E+00 -0.14297804207E+03  0.14297804207E+03  0.00000000000E+00 0. -1.
          6    1    1    2  501    0 -0.29234960064E+01  0.20931112193E+03  0.26552753713E+02  0.27222920733E+03  0.17200000000E+03 0. -1.
         -6    1    1    2    0  502  0.29234960064E+01 -0.20931112193E+03  0.89103652440E+03  0.93131615492E+03  0.17200000000E+03 0.  1.
</event>
<event>
 4    1  0.4539494E+000  0.1858289E+03  0.7818608E-02  0.1162278E+00
         21   -1    0    0  503  502  0.00000000000E+00  0.00000000000E+00  0.14842113927E+03  0.14842113927E+03  0.00000000000E+00 0.  1.
         21   -1    0    0  501  503 -0.00000000000E+00 -0.00000000000E+00 -0.36712780708E+03  0.36712780708E+03  0.00000000000E+00 0.  1.
          6    1    1    2  501    0  0.70330144581E+02  0.14352352151E+01 -0.26535617952E+03  0.32395414976E+03  0.17200000000E+03 0.  1.
         -6    1    1    2    0  502 -0.70330144581E+02 -0.14352352151E+01  0.46649511713E+02  0.19159479659E+03  0.17200000000E+03 0.  1.
</event>
<event>
 4    1  0.4539494E+000  0.1813644E+03  0.7818608E-02  0.1166489E+00
         21   -1    0    0  501  502  0.00000000000E+00  0.00000000000E+00  0.35479137677E+03  0.35479137677E+03  0.00000000000E+00 0.  1.
         21   -1    0    0  502  503 -0.00000000000E+00 -0.00000000000E+00 -0.21212147504E+03  0.21212147504E+03  0.00000000000E+00 0.  1.
          6    1    1    2  501    0  0.57361325700E+02  0.43274699704E+01  0.28400937998E+03  0.33697830286E+03  0.17200000000E+03 0. -1.
         -6    1    1    2    0  503 -0.57361325700E+02 -0.43274699704E+01 -0.14133947826E+03  0.22993454894E+03  0.17200000000E+03 0. -1.
</event>
<event>
 4    1  0.4539494E+000  0.3008964E+03  0.7818608E-02  0.1084793E+00
         21   -1    0    0  503  502  0.00000000000E+00  0.00000000000E+00  0.13621232307E+03  0.13621232307E+03  0.00000000000E+00 0.  1.
         21   -1    0    0  501  503 -0.00000000000E+00 -0.00000000000E+00 -0.21806224648E+04  0.21806224648E+04  0.00000000000E+00 0. -1.
          6    1    1    2  501    0 -0.24628692019E+03 -0.17245761282E+02 -0.19880670652E+04  0.20107086609E+04  0.17200000000E+03 0. -1.
         -6    1    1    2    0  502  0.24628692019E+03  0.17245761282E+02 -0.56343076538E+02  0.30612612697E+03  0.17200000000E+03 0.  1.
</event>
<event>
 4    1  0.4539494E+000  0.2312688E+03  0.7818608E-02  0.1125750E+00
         21   -1    0    0  501  502  0.00000000000E+00  0.00000000000E+00  0.36916588369E+03  0.36916588369E+03  0.00000000000E+00 0. -1.
         21   -1    0    0  502  503 -0.00000000000E+00 -0.00000000000E+00 -0.16025173030E+03  0.16025173030E+03  0.00000000000E+00 0.  1.
          6    1    1    2  501    0  0.15178884867E+03 -0.29349775083E+02  0.18643725597E+03  0.29705910909E+03  0.17200000000E+03 0. -1.
         -6    1    1    2    0  503 -0.15178884867E+03  0.29349775083E+02  0.22476897419E+02  0.23235850489E+03  0.17200000000E+03 0.  1.
</event>
<event>
 4    1  0.4539494E+000  0.1723991E+03  0.7818608E-02  0.1175369E+00
         21   -1    0    0  503  502  0.00000000000E+00  0.00000000000E+00  0.26627603394E+03  0.26627603394E+03  0.00000000000E+00 0.  1.
         21   -1    0    0  501  503 -0.00000000000E+00 -0.00000000000E+00 -0.11178467904E+03  0.11178467904E+03  0.00000000000E+00 0.  1.
          6    1    1    2  501    0  0.62142661755E+01 -0.99415274508E+01  0.69967193521E+02  0.18605606478E+03  0.17200000000E+03 0.  1.
         -6    1    1    2    0  502 -0.62142661755E+01  0.99415274508E+01  0.84524161386E+02  0.19200464820E+03  0.17200000000E+03 0.  1.
</event>
<event>
 4    1  0.4539494E+000  0.2221551E+03  0.7818608E-02  0.1132286E+00
         21   -1    0    0  503  502  0.00000000000E+00  0.00000000000E+00  0.36927504484E+03  0.36927504484E+03  0.00000000000E+00 0. -1.
         21   -1    0    0  501  503 -0.00000000000E+00 -0.00000000000E+00 -0.32621941488E+03  0.32621941488E+03  0.00000000000E+00 0. -1.
          6    1    1    2  501    0  0.85668258740E+02 -0.11148921686E+03 -0.24565259486E+03  0.33120702498E+03  0.17200000000E+03 0. -1.
         -6    1    1    2    0  502 -0.85668258740E+02  0.11148921686E+03  0.28870822482E+03  0.36428743474E+03  0.17200000000E+03 0. -1.
</event>
<event>
 4    1  0.4539494E+000  0.2798130E+03  0.7818608E-02  0.1095791E+00
         21   -1    0    0  501  502  0.00000000000E+00  0.00000000000E+00  0.35778205732E+03  0.35778205732E+03  0.00000000000E+00 0. -1.
         21   -1    0    0  502  503 -0.00000000000E+00 -0.00000000000E+00 -0.64476175339E+03  0.64476175339E+03  0.00000000000E+00 0. -1.
          6    1    1    2  501    0  0.44429756832E+02 -0.21618809665E+03  0.26392898948E+03  0.38464764124E+03  0.17200000000E+03 0. -1.
         -6    1    1    2    0  503 -0.44429756832E+02  0.21618809665E+03 -0.55090868555E+03  0.61789616947E+03  0.17200000000E+03 0. -1.
</event>
<event>
 4    1  0.4539494E+000  0.1964926E+03  0.7818608E-02  0.1152732E+00
         21   -1    0    0  503  502  0.00000000000E+00  0.00000000000E+00  0.37410323397E+02  0.37410323397E+02  0.00000000000E+00 0.  1.
         21   -1    0    0  501  503 -0.00000000000E+00 -0.00000000000E+00 -0.10333985256E+04  0.10333985256E+04  0.00000000000E+00 0.  1.
          6    1    1    2  501    0  0.63772595073E+02  0.70415773198E+02 -0.47865329962E+03  0.51741502320E+03  0.17200000000E+03 0.  1.
         -6    1    1    2    0  502 -0.63772595073E+02 -0.70415773198E+02 -0.51733490257E+03  0.55339382578E+03  0.17200000000E+03 0.  1.
</event>
<event>
 4    1  0.4539494E+000  0.2190859E+03  0.7818608E-02  0.1134566E+00
         21   -1    0    0  501  502  0.00000000000E+00  0.00000000000E+00  0.22288146231E+03  0.22288146231E+03  0.00000000000E+00 0.  1.
         21   -1    0    0  502  503 -0.00000000000E+00 -0.00000000000E+00 -0.53438746542E+03  0.53438746542E+03  0.00000000000E+00 0.  1.
          6    1    1    2  501    0  0.12448419661E+03  0.54021423844E+02  0.13680331154E+03  0.25829009948E+03  0.17200000000E+03 0.  1.
         -6    1    1    2    0  503 -0.12448419661E+03 -0.54021423844E+02 -0.44830931466E+03  0.49897882826E+03  0.17200000000E+03 0.  1.
</event>
<event>
 4    1  0.4539494E+000  0.2434507E+03  0.7818608E-02  0.1117515E+00
         21   -1    0    0  501  502  0.00000000000E+00  0.00000000000E+00  0.28765127569E+03  0.28765127569E+03  0.00000000000E+00 0. -1.
         21   -1    0    0  502  503 -0.00000000000E+00 -0.00000000000E+00 -0.21375502240E+03  0.21375502240E+03  0.00000000000E+00 0.  1.
          6    1    1    2  501    0 -0.79029626655E+02  0.15309650359E+03  0.84571061623E+02  0.25772172156E+03  0.17200000000E+03 0.  1.
         -6    1    1    2    0  503  0.79029626655E+02 -0.15309650359E+03 -0.10674808332E+02  0.24368457652E+03  0.17200000000E+03 0. -1.
</event>
<event>
 4    1  0.4539494E+000  0.1853005E+03  0.7818608E-02  0.1162770E+00
         21   -1    0    0  501  502  0.00000000000E+00  0.00000000000E+00  0.61059403707E+02  0.61059403707E+02  0.00000000000E+00 0.  1.
         21   -1    0    0  502  503 -0.00000000000E+00 -0.00000000000E+00 -0.68796625487E+03  0.68796625487E+03  0.00000000000E+00 0.  1.
          6    1    1    2  501    0 -0.67500261985E+02  0.14000057634E+02 -0.15341682393E+03  0.24056809607E+03  0.17200000000E+03 0.  1.
         -6    1    1    2    0  503  0.67500261985E+02 -0.14000057634E+02 -0.47349002723E+03  0.50845756251E+03  0.17200000000E+03 0.  1.
</event>
<event>
 4    1  0.4539494E+000  0.1737259E+03  0.7818608E-02  0.1174017E+00
         21   -1    0    0  503  502  0.00000000000E+00  0.00000000000E+00  0.50343221658E+03  0.50343221658E+03  0.00000000000E+00 0.  1.
         21   -1    0    0  501  503 -0.00000000000E+00 -0.00000000000E+00 -0.61009946904E+02  0.61009946904E+02  0.00000000000E+00 0.  1.
          6    1    1    2  501    0 -0.24133245507E+02 -0.37786012239E+01  0.18400970133E+03  0.25306177418E+03  0.17200000000E+03 0.  1.
         -6    1    1    2    0  502  0.24133245507E+02  0.37786012239E+01  0.25841256834E+03  0.31138038930E+03  0.17200000000E+03 0.  1.
</event>
<event>
 4    1  0.4539494E+000  0.1787582E+03  0.7818608E-02  0.1169010E+00
         21   -1    0    0  501  502  0.00000000000E+00  0.00000000000E+00  0.52427368863E+03  0.52427368863E+03  0.00000000000E+00 0.  1.
         21   -1    0    0  502  503 -0.00000000000E+00 -0.00000000000E+00 -0.92621035486E+02  0.92621035486E+02  0.00000000000E+00 0.  1.
          6    1    1    2  501    0  0.22927359895E+02  0.42951483699E+02  0.39619338098E+03  0.43465352744E+03  0.17200000000E+03 0.  1.
         -6    1    1    2    0  503 -0.22927359895E+02 -0.42951483699E+02  0.35459272165E+02  0.18224119668E+03  0.17200000000E+03 0.  1.
</event>
<event>
 4    1  0.4539494E+000  0.2529860E+03  0.7818608E-02  0.1111432E+00
         21   -1    0    0  503  502  0.00000000000E+00  0.00000000000E+00  0.10442765937E+03  0.10442765937E+03  0.00000000000E+00 0. -1.
         21   -1    0    0  501  503 -0.00000000000E+00 -0.00000000000E+00 -0.72805500967E+03  0.72805500967E+03  0.00000000000E+00 0. -1.
          6    1    1    2  501    0 -0.39190541669E+01 -0.18547932810E+03 -0.47736647372E+03  0.54025983598E+03  0.17200000000E+03 0. -1.
         -6    1    1    2    0  502  0.39190541669E+01  0.18547932810E+03 -0.14626087658E+03  0.29222283305E+03  0.17200000000E+03 0. -1.
</event>
<event>
 4    1  0.4539494E+000  0.1791341E+03  0.7818608E-02  0.1168644E+00
         21   -1    0    0  503  502  0.00000000000E+00  0.00000000000E+00  0.55934190865E+03  0.55934190865E+03  0.00000000000E+00 0. -1.
         21   -1    0    0  501  503 -0.00000000000E+00 -0.00000000000E+00 -0.77386367536E+02  0.77386367536E+02  0.00000000000E+00 0. -1.
          6    1    1    2  501    0  0.47248915353E+02  0.16509734836E+02  0.79060724512E+02  0.19580508039E+03  0.17200000000E+03 0. -1.
         -6    1    1    2    0  502 -0.47248915353E+02 -0.16509734836E+02  0.40289481660E+03  0.44092319580E+03  0.17200000000E+03 0. -1.
</event>
<event>
 4    1  0.4539494E+000  0.1832771E+03  0.7818608E-02  0.1164669E+00
         21   -1    0    0  503  502  0.00000000000E+00  0.00000000000E+00  0.17168983247E+03  0.17168983247E+03  0.00000000000E+00 0. -1.
         21   -1    0    0  501  503 -0.00000000000E+00 -0.00000000000E+00 -0.20629438742E+03  0.20629438742E+03  0.00000000000E+00 0. -1.
          6    1    1    2  501    0  0.54805661635E+02  0.31667856765E+02 -0.60239290082E+02  0.19292300477E+03  0.17200000000E+03 0.  1.
         -6    1    1    2    0  502 -0.54805661635E+02 -0.31667856765E+02  0.25634735131E+02  0.18506121513E+03  0.17200000000E+03 0.  1.
</event>
<event>
 4    1  0.4539494E+000  0.2081012E+03  0.7818608E-02  0.1143079E+00
         21   -1    0    0  501  502  0.00000000000E+00  0.00000000000E+00  0.22795173923E+03  0.22795173923E+03  0.00000000000E+00 0. -1.
         21   -1    0    0  502  503 -0.00000000000E+00 -0.00000000000E+00 -0.19250585452E+03  0.19250585452E+03  0.00000000000E+00 0.  1.
          6    1    1    2  501    0  0.10808091225E+03  0.45173341248E+02  0.41807220234E+02  0.21225917652E+03  0.17200000000E+03 0. -1.
         -6    1    1    2    0  503 -0.10808091225E+03 -0.45173341248E+02 -0.63613355223E+01  0.20819841724E+03  0.17200000000E+03 0. -1.
</event>
<event>
 4    1  0.4539494E+000  0.1873254E+03  0.7818608E-02  0.1160896E+00
         21   -1    0    0  503  502  0.00000000000E+00  0.00000000000E+00  0.10166414097E+04  0.10166414097E+04  0.00000000000E+00 0.  1.
         21   -1    0    0  501  503 -0.00000000000E+00 -0.00000000000E+00 -0.38470667804E+02  0.38470667804E+02  0.00000000000E+00 0.  1.
          6    1    1    2  501    0  0.32140816424E+02 -0.66886310142E+02  0.31994928014E+03  0.37075376253E+03  0.17200000000E+03 0.  1.
         -6    1    1    2    0  502 -0.32140816424E+02  0.66886310142E+02  0.65822146179E+03  0.68435831501E+03  0.17200000000E+03 0.  1.
</event>
<event>
 4    1  0.4539494E+000  0.2005727E+03  0.7818608E-02  0.1149257E+00
         21   -1    0    0  501  502  0.00000000000E+00  0.00000000000E+00  0.32308155357E+03  0.32308155357E+03  0.00000000000E+00 0.  1.
         21   -1    0    0  502  503 -0.00000000000E+00 -0.00000000000E+00 -0.12828252483E+03  0.12828252483E+03  0.00000000000E+00 0.  1.
          6    1    1    2  501    0  0.31245063644E+02  0.98331924107E+02  0.13606084763E+03  0.24236743915E+03  0.17200000000E+03 0.  1.
         -6    1    1    2    0  503 -0.31245063644E+02 -0.98331924107E+02  0.58738181109E+02  0.20899663926E+03  0.17200000000E+03 0.  1.
</event>
<event>
 4    1  0.4539494E+000  0.3493989E+03  0.7818608E-02  0.1062862E+00
         21   -1    0    0  503  502  0.00000000000E+00  0.00000000000E+00  0.24998588319E+03  0.24998588319E+03  0.00000000000E+00 0. -1.
         21   -1    0    0  501  503 -0.00000000000E+00 -0.00000000000E+00 -0.17578416046E+04  0.17578416046E+04  0.00000000000E+00 0. -1.
          6    1    1    2  501    0  0.30304425746E+03 -0.25686620975E+02 -0.16070714240E+04  0.16446149052E+04  0.17200000000E+03 0. -1.
         -6    1    1    2    0  502 -0.30304425746E+03  0.25686620975E+02  0.99215702645E+02  0.36321258256E+03  0.17200000000E+03 0. -1.
</event>
<event>
 4    1  0.4539494E+000  0.1874937E+03  0.7818608E-02  0.1160741E+00
         21   -1    0    0  503  502  0.00000000000E+00  0.00000000000E+00  0.19050091149E+03  0.19050091149E+03  0.00000000000E+00 0. -1.
         21   -1    0    0  501  503 -0.00000000000E+00 -0.00000000000E+00 -0.23931195917E+03  0.23931195917E+03  0.00000000000E+00 0. -1.
          6    1    1    2  501    0 -0.60273319857E+02  0.44011389020E+02 -0.12722385592E+03  0.22658284349E+03  0.17200000000E+03 0. -1.
         -6    1    1    2    0  502  0.60273319857E+02 -0.44011389020E+02  0.78412808235E+02  0.20323002717E+03  0.17200000000E+03 0. -1.
</event>
<event>
 4    1  0.4539494E+000  0.2022329E+03  0.7818608E-02  0.1147869E+00
         21   -1    0    0  503  502  0.00000000000E+00  0.00000000000E+00  0.43764152547E+03  0.43764152547E+03  0.00000000000E+00 0.  1.
         21   -1    0    0  501  503 -0.00000000000E+00 -0.00000000000E+00 -0.13895226568E+03  0.13895226568E+03  0.00000000000E+00 0.  1.
          6    1    1    2  501    0  0.75040891562E+02  0.75385859343E+02 -0.15630137690E+02  0.20283605301E+03  0.17200000000E+03 0.  1.
         -6    1    1    2    0  502 -0.75040891562E+02 -0.75385859343E+02  0.31431939747E+03  0.37375773814E+03  0.17200000000E+03 0.  1.
</event>
<event>
 4    1  0.4539494E+000  0.1950605E+03  0.7818608E-02  0.1153975E+00
         21   -1    0    0  503  502  0.00000000000E+00  0.00000000000E+00  0.32785151476E+03  0.32785151476E+03  0.00000000000E+00 0.  1.
         21   -1    0    0  501  503 -0.00000000000E+00 -0.00000000000E+00 -0.18956749011E+03  0.18956749011E+03  0.00000000000E+00 0.  1.
          6    1    1    2  501    0  0.50850855219E+02  0.76673370156E+02 -0.91964371992E+02  0.21565263941E+03  0.17200000000E+03 0.  1.
         -6    1    1    2    0  502 -0.50850855219E+02 -0.76673370156E+02  0.23024839665E+03  0.30176636546E+03  0.17200000000E+03 0.  1.
</event>
<event>
 4    1  0.4539494E+000  0.2937097E+03  0.7818608E-02  0.1088428E+00
         21   -1    0    0  501  502  0.00000000000E+00  0.00000000000E+00  0.60852271977E+03  0.60852271977E+03  0.00000000000E+00 0.  1.
         21   -1    0    0  502  503 -0.00000000000E+00 -0.00000000000E+00 -0.15649493634E+03  0.15649493634E+03  0.00000000000E+00 0. -1.
          6    1    1    2  501    0  0.18727673931E+03  0.14699932288E+03  0.34337831075E+03  0.45185621863E+03  0.17200000000E+03 0.  1.
         -6    1    1    2    0  503 -0.18727673931E+03 -0.14699932288E+03  0.10864947268E+03  0.31316143749E+03  0.17200000000E+03 0.  1.
</event>
<event>
 4    1  0.4539494E+000  0.2822840E+03  0.7818608E-02  0.1094448E+00
         21   -1    0    0  501  502  0.00000000000E+00  0.00000000000E+00  0.89195414167E+03  0.89195414167E+03  0.00000000000E+00 0.  1.
         21   -1    0    0  502  503 -0.00000000000E+00 -0.00000000000E+00 -0.89390644078E+02  0.89390644078E+02  0.00000000000E+00 0. -1.
          6    1    1    2  501    0 -0.30700977657E+02 -0.22171538210E+03  0.41333272251E+03  0.50052792148E+03  0.17200000000E+03 0.  1.
         -6    1    1    2    0  503  0.30700977657E+02  0.22171538210E+03  0.38923077508E+03  0.48081686426E+03  0.17200000000E+03 0. -1.
</event>
<event>
 4    1  0.4539494E+000  0.2109238E+03  0.7818608E-02  0.1140836E+00
         21   -1    0    0  501  502  0.00000000000E+00  0.00000000000E+00  0.40131776551E+03  0.40131776551E+03  0.00000000000E+00 0.  1.
         21   -1    0    0  502  503 -0.00000000000E+00 -0.00000000000E+00 -0.18103976042E+03  0.18103976042E+03  0.00000000000E+00 0.  1.
          6    1    1    2  501    0 -0.51534891776E+02 -0.11067528032E+03  0.29143495017E+03  0.35975435081E+03  0.17200000000E+03 0.  1.
         -6    1    1    2    0  503  0.51534891776E+02  0.11067528032E+03 -0.71156945078E+02  0.22260317513E+03  0.17200000000E+03 0.  1.
</event>
<event>
 4    1  0.4539494E+000  0.1721330E+03  0.7818608E-02  0.1175642E+00
         21   -1    0    0  501  502  0.00000000000E+00  0.00000000000E+00  0.49736790771E+02  0.49736790771E+02  0.00000000000E+00 0.  1.
         21   -1    0    0  502  503 -0.00000000000E+00 -0.00000000000E+00 -0.76115139873E+03  0.76115139873E+03  0.00000000000E+00 0.  1.
          6    1    1    2  501    0 -0.48841272903E+01  0.46805028275E+01 -0.16669519653E+03  0.23961855177E+03  0.17200000000E+03 0. -1.
         -6    1    1    2    0  503  0.48841272903E+01 -0.46805028275E+01 -0.54471941143E+03  0.57126963773E+03  0.17200000000E+03 0. -1.
</event>
<event>
 4    1  0.4539494E+000  0.1758579E+03  0.7818608E-02  0.1171873E+00
         21   -1    0    0  501  502  0.00000000000E+00  0.00000000000E+00  0.18060818827E+03  0.18060818827E+03  0.00000000000E+00 0.  1.
         21   -1    0    0  502  503 -0.00000000000E+00 -0.00000000000E+00 -0.23150152698E+03  0.23150152698E+03  0.00000000000E+00 0.  1.
          6    1    1    2  501    0  0.30633742315E+02 -0.20088768930E+02  0.79689742899E+02  0.19307107481E+03  0.17200000000E+03 0.  1.
         -6    1    1    2    0  503 -0.30633742315E+02  0.20088768930E+02 -0.13058308161E+03  0.21903864044E+03  0.17200000000E+03 0.  1.
</event>
<event>
 4    1  0.4539494E+000  0.1871928E+03  0.7818608E-02  0.1161018E+00
         21   -1    0    0  503  502  0.00000000000E+00  0.00000000000E+00  0.37193398059E+03  0.37193398059E+03  0.00000000000E+00 0.  1.
         21   -1    0    0  501  503 -0.00000000000E+00 -0.00000000000E+00 -0.18753574497E+03  0.18753574497E+03  0.00000000000E+00 0.  1.
          6    1    1    2  501    0  0.61357217271E+02  0.41139301290E+02 -0.10513286477E+03  0.21469529449E+03  0.17200000000E+03 0.  1.
         -6    1    1    2    0  502 -0.61357217271E+02 -0.41139301290E+02  0.28953110039E+03  0.34477443107E+03  0.17200000000E+03 0.  1.
</event>
<event>
 4    1  0.4539494E+000  0.1858332E+03  0.7818608E-02  0.1162274E+00
         21   -1    0    0  501  502  0.00000000000E+00  0.00000000000E+00  0.43694527468E+03  0.43694527468E+03  0.00000000000E+00 0.  1.
         21   -1    0    0  502  503 -0.00000000000E+00 -0.00000000000E+00 -0.11264827545E+03  0.11264827545E+03  0.00000000000E+00 0.  1.
          6    1    1    2  501    0 -0.24900519173E+02  0.65802387146E+02  0.31225671999E+03  0.36337067739E+03  0.17200000000E+03 0.  1.
         -6    1    1    2    0  503  0.24900519173E+02 -0.65802387146E+02  0.12040279238E+02  0.18622287274E+03  0.17200000000E+03 0.  1.
</event>
<event>
 4    1  0.4539494E+000  0.1942903E+03  0.7818608E-02  0.1154648E+00
         21   -1    0    0  501  502  0.00000000000E+00  0.00000000000E+00  0.25704261278E+03  0.25704261278E+03  0.00000000000E+00 0. -1.
         21   -1    0    0  502  503 -0.00000000000E+00 -0.00000000000E+00 -0.19494081954E+03  0.19494081954E+03  0.00000000000E+00 0. -1.
          6    1    1    2  501    0  0.33761476260E+02 -0.83814674548E+02  0.14328802985E+03  0.24141291690E+03  0.17200000000E+03 0. -1.
         -6    1    1    2    0  503 -0.33761476260E+02  0.83814674548E+02 -0.81186236614E+02  0.21057051542E+03  0.17200000000E+03 0. -1.
</event>
<event>
 4    1  0.4539494E+000  0.1845544E+03  0.7818608E-02  0.1163467E+00
         21   -1    0    0  503  502  0.00000000000E+00  0.00000000000E+00  0.45666508162E+02  0.45666508162E+02  0.00000000000E+00 0.  1.
         21   -1    0    0  501  503 -0.00000000000E+00 -0.00000000000E+00 -0.81539863767E+03  0.81539863767E+03  0.00000000000E+00 0.  1.
          6    1    1    2  501    0 -0.40939774469E+02  0.52917480462E+02 -0.51060451079E+03  0.54293396589E+03  0.17200000000E+03 0.  1.
         -6    1    1    2    0  502  0.40939774469E+02 -0.52917480462E+02 -0.25912761872E+03  0.31813117995E+03  0.17200000000E+03 0.  1.
</event>
<event>
 4    1  0.4539494E+000  0.1734977E+03  0.7818608E-02  0.1174249E+00
         21   -1    0    0  501  502  0.00000000000E+00  0.00000000000E+00  0.21379219695E+03  0.21379219695E+03  0.00000000000E+00 0. -1.
         21   -1    0    0  502  503 -0.00000000000E+00 -0.00000000000E+00 -0.14492269560E+03  0.14492269560E+03  0.00000000000E+00 0. -1.
          6    1    1    2  501    0 -0.22646311115E+02  0.21437202452E+01  0.64694311872E+02  0.18516696501E+03  0.17200000000E+03 0.  1.
         -6    1    1    2    0  503  0.22646311115E+02 -0.21437202452E+01  0.41751894806E+01  0.17354792753E+03  0.17200000000E+03 0.  1.
</event>
<event>
 4    1  0.4539494E+000  0.2321268E+03  0.7818608E-02  0.1125152E+00
         21   -1    0    0  503  502  0.00000000000E+00  0.00000000000E+00  0.17364309763E+03  0.17364309763E+03  0.00000000000E+00 0.  1.
         21   -1    0    0  501  503 -0.00000000000E+00 -0.00000000000E+00 -0.59454488542E+03  0.59454488542E+03  0.00000000000E+00 0.  1.
          6    1    1    2  501    0 -0.12816549277E+03  0.88726964339E+02 -0.47602473549E+03  0.52960590681E+03  0.17200000000E+03 0.  1.
         -6    1    1    2    0  502  0.12816549277E+03 -0.88726964339E+02  0.55122947696E+02  0.23858207624E+03  0.17200000000E+03 0.  1.
</event>
<event>
 4    1  0.4539494E+000  0.2021589E+03  0.7818608E-02  0.1147930E+00
         21   -1    0    0  503  502  0.00000000000E+00  0.00000000000E+00  0.17878139473E+03  0.17878139473E+03  0.00000000000E+00 0.  1.
         21   -1    0    0  501  503 -0.00000000000E+00 -0.00000000000E+00 -0.25596685197E+03  0.25596685197E+03  0.00000000000E+00 0.  1.
          6    1    1    2  501    0 -0.97635440341E+02  0.41851655538E+02 -0.10967823421E+03  0.22999468546E+03  0.17200000000E+03 0.  1.
         -6    1    1    2    0  502  0.97635440341E+02 -0.41851655538E+02  0.32492776973E+02  0.20475356123E+03  0.17200000000E+03 0.  1.
</event>
<event>
 4    1  0.4539494E+000  0.1894094E+03  0.7818608E-02  0.1158995E+00
         21   -1    0    0  501  502  0.00000000000E+00  0.00000000000E+00  0.22435817274E+04  0.22435817274E+04  0.00000000000E+00 0.  1.
         21   -1    0    0  502  503 -0.00000000000E+00 -0.00000000000E+00 -0.35040569468E+02  0.35040569468E+02  0.00000000000E+00 0.  1.
          6    1    1    2  501    0  0.73892000406E+02  0.28842669201E+02  0.19443210663E+04  0.19535251050E+04  0.17200000000E+03 0.  1.
         -6    1    1    2    0  503 -0.73892000406E+02 -0.28842669201E+02  0.26422009162E+03  0.32509719179E+03  0.17200000000E+03 0.  1.
</event>
<event>
 4    1  0.4539494E+000  0.1938557E+03  0.7818608E-02  0.1155029E+00
         21   -1    0    0  501  502  0.00000000000E+00  0.00000000000E+00  0.22500033283E+03  0.22500033283E+03  0.00000000000E+00 0.  1.
         21   -1    0    0  502  503 -0.00000000000E+00 -0.00000000000E+00 -0.20535040623E+03  0.20535040623E+03  0.00000000000E+00 0. -1.
          6    1    1    2  501    0  0.82208213870E+02  0.35182858964E+02  0.10278679906E+03  0.21942003111E+03  0.17200000000E+03 0. -1.
         -6    1    1    2    0  503 -0.82208213870E+02 -0.35182858964E+02 -0.83136872466E+02  0.21093070795E+03  0.17200000000E+03 0. -1.
</event>
<event>
 4    1  0.4539494E+000  0.1802581E+03  0.7818608E-02  0.1167553E+00
         21   -1    0    0  503  502  0.00000000000E+00  0.00000000000E+00  0.18465491604E+04  0.18465491604E+04  0.00000000000E+00 0. -1.
         21   -1    0    0  501  503 -0.00000000000E+00 -0.00000000000E+00 -0.10778417933E+03  0.10778417933E+03  0.00000000000E+00 0. -1.
          6    1    1    2  501    0  0.52370760322E+02  0.12895544335E+02 -0.24467201231E+02  0.18191106491E+03  0.17200000000E+03 0. -1.
         -6    1    1    2    0  502 -0.52370760322E+02 -0.12895544335E+02  0.17632321823E+04  0.17724222748E+04  0.17200000000E+03 0. -1.
</event>
<event>
 4    1  0.4539494E+000  0.1995985E+03  0.7818608E-02  0.1150078E+00
         21   -1    0    0  501  502  0.00000000000E+00  0.00000000000E+00  0.65677803925E+02  0.65677803925E+02  0.00000000000E+00 0.  1.
         21   -1    0    0  502  503 -0.00000000000E+00 -0.00000000000E+00 -0.64936162368E+03  0.64936162368E+03  0.00000000000E+00 0.  1.
          6    1    1    2  501    0  0.93494457650E+02  0.38914767220E+02 -0.20008709550E+03  0.28262062647E+03  0.17200000000E+03 0.  1.
         -6    1    1    2    0  503 -0.93494457650E+02 -0.38914767220E+02 -0.38359672425E+03  0.43241880114E+03  0.17200000000E+03 0.  1.
</event>
<event>
 4    1  0.4539494E+000  0.1894128E+03  0.7818608E-02  0.1158992E+00
         21   -1    0    0  503  502  0.00000000000E+00  0.00000000000E+00  0.90091831469E+02  0.90091831469E+02  0.00000000000E+00 0. -1.
         21   -1    0    0  501  503 -0.00000000000E+00 -0.00000000000E+00 -0.49848443521E+03  0.49848443521E+03  0.00000000000E+00 0. -1.
          6    1    1    2  501    0  0.73550626281E+02 -0.29724233525E+02 -0.33617378350E+03  0.38586271833E+03  0.17200000000E+03 0.  1.
         -6    1    1    2    0  502 -0.73550626281E+02  0.29724233525E+02 -0.72218820233E+02  0.20271354834E+03  0.17200000000E+03 0.  1.
</event>
<event>
 4    1  0.4539494E+000  0.2381188E+03  0.7818608E-02  0.1121052E+00
         21   -1    0    0  501  502  0.00000000000E+00  0.00000000000E+00  0.15524713234E+03  0.15524713234E+03  0.00000000000E+00 0.  1.
         21   -1    0    0  502  503 -0.00000000000E+00 -0.00000000000E+00 -0.45742105622E+03  0.45742105622E+03  0.00000000000E+00 0.  1.
          6    1    1    2  501    0 -0.14988487417E+03  0.68198941787E+02 -0.13560333057E+02  0.23850462008E+03  0.17200000000E+03 0.  1.
         -6    1    1    2    0  503  0.14988487417E+03 -0.68198941787E+02 -0.28861359083E+03  0.37416356848E+03  0.17200000000E+03 0.  1.
</event>
<event>
 4    1  0.4539494E+000  0.1857449E+03  0.7818608E-02  0.1162356E+00
         21   -1    0    0  501  502  0.00000000000E+00  0.00000000000E+00  0.14560503505E+04  0.14560503505E+04  0.00000000000E+00 0.  1.
         21   -1    0    0  502  503 -0.00000000000E+00 -0.00000000000E+00 -0.23700375477E+02  0.23700375477E+02  0.00000000000E+00 0. -1.
          6    1    1    2  501    0  0.69423044228E+02 -0.98798965330E+01  0.70507393999E+03  0.72912991454E+03  0.17200000000E+03 0. -1.
         -6    1    1    2    0  503 -0.69423044228E+02  0.98798965330E+01  0.72727603501E+03  0.75062081141E+03  0.17200000000E+03 0. -1.
</event>
<event>
 4    1  0.4539494E+000  0.2011479E+03  0.7818608E-02  0.1148774E+00
         21   -1    0    0  501  502  0.00000000000E+00  0.00000000000E+00  0.68646298999E+02  0.68646298999E+02  0.00000000000E+00 0. -1.
         21   -1    0    0  502  503 -0.00000000000E+00 -0.00000000000E+00 -0.67621612910E+03  0.67621612910E+03  0.00000000000E+00 0. -1.
          6    1    1    2  501    0 -0.98906317239E+02  0.33076121934E+02 -0.17034358186E+03  0.26358570772E+03  0.17200000000E+03 0. -1.
         -6    1    1    2    0  503  0.98906317239E+02 -0.33076121934E+02 -0.43722624824E+03  0.48127672038E+03  0.17200000000E+03 0. -1.
</event>
<event>
 4    1  0.4539494E+000  0.1801984E+03  0.7818608E-02  0.1167611E+00
         21   -1    0    0  501  502  0.00000000000E+00  0.00000000000E+00  0.11990779865E+03  0.11990779865E+03  0.00000000000E+00 0.  1.
         21   -1    0    0  502  503 -0.00000000000E+00 -0.00000000000E+00 -0.32104218233E+03  0.32104218233E+03  0.00000000000E+00 0.  1.
          6    1    1    2  501    0 -0.53708039932E+02 -0.17032354001E+01 -0.13350964941E+02  0.18069228769E+03  0.17200000000E+03 0.  1.
         -6    1    1    2    0  503  0.53708039932E+02  0.17032354001E+01 -0.18778341874E+03  0.26025769329E+03  0.17200000000E+03 0.  1.
</event>
<event>
 4    1  0.4539494E+000  0.2815759E+03  0.7818608E-02  0.1094831E+00
         21   -1    0    0  501  502  0.00000000000E+00  0.00000000000E+00  0.66912607781E+03  0.66912607781E+03  0.00000000000E+00 0. -1.
         21   -1    0    0  502  503 -0.00000000000E+00 -0.00000000000E+00 -0.14464527999E+03  0.14464527999E+03  0.00000000000E+00 0.  1.
          6    1    1    2  501    0  0.21507109781E+03 -0.58697515885E+02  0.89220064461E+02  0.29537297674E+03  0.17200000000E+03 0.  1.
         -6    1    1    2    0  503 -0.21507109781E+03  0.58697515885E+02  0.43526073336E+03  0.51839838107E+03  0.17200000000E+03 0. -1.
</event>
<event>
 4    1  0.4539494E+000  0.2665310E+03  0.7818608E-02  0.1103282E+00
         21   -1    0    0  501  502  0.00000000000E+00  0.00000000000E+00  0.14625036869E+03  0.14625036869E+03  0.00000000000E+00 0. -1.
         21   -1    0    0  502  503 -0.00000000000E+00 -0.00000000000E+00 -0.50599156634E+03  0.50599156634E+03  0.00000000000E+00 0.  1.
          6    1    1    2  501    0 -0.17447944345E+03 -0.10493663494E+03 -0.11461752999E+03  0.29013092169E+03  0.17200000000E+03 0. -1.
         -6    1    1    2    0  503  0.17447944345E+03  0.10493663494E+03 -0.24512366765E+03  0.36211101334E+03  0.17200000000E+03 0.  1.
</event>
<event>
 4    1  0.4539494E+000  0.2458927E+03  0.7818608E-02  0.1115928E+00
         21   -1    0    0  501  502  0.00000000000E+00  0.00000000000E+00  0.49648162559E+02  0.49648162559E+02  0.00000000000E+00 0. -1.
         21   -1    0    0  502  503 -0.00000000000E+00 -0.00000000000E+00 -0.20704188980E+04  0.20704188980E+04  0.00000000000E+00 0. -1.
          6    1    1    2  501    0  0.16020206455E+03 -0.72211637277E+02 -0.33014985584E+03  0.41165780614E+03  0.17200000000E+03 0. -1.
         -6    1    1    2    0  503 -0.16020206455E+03  0.72211637277E+02 -0.16906208796E+04  0.17084092544E+04  0.17200000000E+03 0. -1.
</event>
<event>
 4    1  0.4539494E+000  0.5229005E+03  0.7818608E-02  0.1007969E+00
         21   -1    0    0  501  502  0.00000000000E+00  0.00000000000E+00  0.91664644955E+03  0.91664644955E+03  0.00000000000E+00 0.  1.
         21   -1    0    0  502  503 -0.00000000000E+00 -0.00000000000E+00 -0.53215405211E+03  0.53215405211E+03  0.00000000000E+00 0. -1.
          6    1    1    2  501    0  0.49282983302E+03 -0.30979683291E+02  0.67246940608E+03  0.85184510752E+03  0.17200000000E+03 0.  1.
         -6    1    1    2    0  503 -0.49282983302E+03  0.30979683291E+02 -0.28797700864E+03  0.59695539414E+03  0.17200000000E+03 0. -1.
</event>
<event>
 4    1  0.4539494E+000  0.2113855E+03  0.7818608E-02  0.1140473E+00
         21   -1    0    0  503  502  0.00000000000E+00  0.00000000000E+00  0.11671022693E+03  0.11671022693E+03  0.00000000000E+00 0. -1.
         21   -1    0    0  501  503 -0.00000000000E+00 -0.00000000000E+00 -0.38312005252E+03  0.38312005252E+03  0.00000000000E+00 0. -1.
          6    1    1    2  501    0  0.10058942611E+03  0.70580462298E+02 -0.13969918910E+03  0.25337659272E+03  0.17200000000E+03 0. -1.
         -6    1    1    2    0  502 -0.10058942611E+03 -0.70580462298E+02 -0.12671063649E+03  0.24645368673E+03  0.17200000000E+03 0. -1.
</event>
<event>
 4    1  0.4539494E+000  0.1794781E+03  0.7818608E-02  0.1168309E+00
         21   -1    0    0  501  502  0.00000000000E+00  0.00000000000E+00  0.68272531138E+03  0.68272531138E+03  0.00000000000E+00 0. -1.
         21   -1    0    0  502  503 -0.00000000000E+00 -0.00000000000E+00 -0.54237097726E+02  0.54237097726E+02  0.00000000000E+00 0. -1.
          6    1    1    2  501    0  0.14180946263E+02 -0.49267489456E+02  0.44714162569E+03  0.48181741166E+03  0.17200000000E+03 0. -1.
         -6    1    1    2    0  503 -0.14180946263E+02  0.49267489456E+02  0.18134658796E+03  0.25514499744E+03  0.17200000000E+03 0. -1.
</event>
<event>
 4    1  0.4539494E+000  0.1749548E+03  0.7818608E-02  0.1172777E+00
         21   -1    0    0  503  502  0.00000000000E+00  0.00000000000E+00  0.17638874413E+03  0.17638874413E+03  0.00000000000E+00 0. -1.
         21   -1    0    0  501  503 -0.00000000000E+00 -0.00000000000E+00 -0.17478081843E+03  0.17478081843E+03  0.00000000000E+00 0. -1.
          6    1    1    2  501    0  0.17119173831E+01  0.31972918218E+02  0.15642275340E+02  0.17565272255E+03  0.17200000000E+03 0.  1.
         -6    1    1    2    0  502 -0.17119173831E+01 -0.31972918218E+02 -0.14034349638E+02  0.17551684002E+03  0.17200000000E+03 0.  1.
</event>
<event>
 4    1  0.4539494E+000  0.2488089E+03  0.7818608E-02  0.1114060E+00
         21   -1    0    0  503  502  0.00000000000E+00  0.00000000000E+00  0.35696436517E+03  0.35696436517E+03  0.00000000000E+00 0.  1.
         21   -1    0    0  501  503 -0.00000000000E+00 -0.00000000000E+00 -0.17345623455E+03  0.17345623455E+03  0.00000000000E+00 0. -1.
          6    1    1    2  501    0 -0.58428548571E+02 -0.17002339303E+03  0.95422273178E+02  0.26647937947E+03  0.17200000000E+03 0.  1.
         -6    1    1    2    0  502  0.58428548571E+02  0.17002339303E+03  0.88085857445E+02  0.26394122025E+03  0.17200000000E+03 0. -1.
</event>
<event>
 4    1  0.4539494E+000  0.2927139E+03  0.7818608E-02  0.1088941E+00
         21   -1    0    0  503  502  0.00000000000E+00  0.00000000000E+00  0.63455598938E+03  0.63455598938E+03  0.00000000000E+00 0.  1.
         21   -1    0    0  501  503 -0.00000000000E+00 -0.00000000000E+00 -0.13517745670E+03  0.13517745670E+03  0.00000000000E+00 0.  1.
          6    1    1    2  501    0 -0.17284896381E+03  0.16192796792E+03  0.26258027275E+03  0.39322999723E+03  0.17200000000E+03 0.  1.
         -6    1    1    2    0  502  0.17284896381E+03 -0.16192796792E+03  0.23679825993E+03  0.37650344884E+03  0.17200000000E+03 0.  1.
</event>
<event>
 4    1  0.4539494E+000  0.2121422E+03  0.7818608E-02  0.1139881E+00
         21   -1    0    0  503  502  0.00000000000E+00  0.00000000000E+00  0.18508913275E+03  0.18508913275E+03  0.00000000000E+00 0. -1.
         21   -1    0    0  501  503 -0.00000000000E+00 -0.00000000000E+00 -0.29001352052E+03  0.29001352052E+03  0.00000000000E+00 0. -1.
          6    1    1    2  501    0 -0.20607175236E+02 -0.12245683350E+03 -0.14795443109E+03  0.25864037856E+03  0.17200000000E+03 0. -1.
         -6    1    1    2    0  502  0.20607175236E+02  0.12245683350E+03  0.43030043321E+02  0.21646227470E+03  0.17200000000E+03 0. -1.
</event>
<event>
 4    1  0.4539494E+000  0.2018299E+03  0.7818608E-02  0.1148204E+00
         21   -1    0    0  501  502  0.00000000000E+00  0.00000000000E+00  0.18199205981E+03  0.18199205981E+03  0.00000000000E+00 0. -1.
         21   -1    0    0  502  503 -0.00000000000E+00 -0.00000000000E+00 -0.35281151917E+03  0.35281151917E+03  0.00000000000E+00 0. -1.
          6    1    1    2  501    0 -0.26583728820E+02 -0.10219884152E+03  0.76270357774E+02  0.21576020328E+03  0.17200000000E+03 0. -1.
         -6    1    1    2    0  503  0.26583728820E+02  0.10219884152E+03 -0.24708981714E+03  0.31904337570E+03  0.17200000000E+03 0. -1.
</event>
<event>
 4    1  0.4539494E+000  0.1821730E+03  0.7818608E-02  0.1165716E+00
         21   -1    0    0  501  502  0.00000000000E+00  0.00000000000E+00  0.38784477191E+03  0.38784477191E+03  0.00000000000E+00 0.  1.
         21   -1    0    0  502  503 -0.00000000000E+00 -0.00000000000E+00 -0.86716773829E+02  0.86716773829E+02  0.00000000000E+00 0.  1.
          6    1    1    2  501    0 -0.38843124637E+02 -0.45762704482E+02  0.17787710806E+03  0.25461201666E+03  0.17200000000E+03 0.  1.
         -6    1    1    2    0  503  0.38843124637E+02  0.45762704482E+02  0.12325089002E+03  0.21994952908E+03  0.17200000000E+03 0.  1.
</event>
<event>
 4    1  0.4539494E+000  0.2140134E+03  0.7818608E-02  0.1138427E+00
         21   -1    0    0  503  502  0.00000000000E+00  0.00000000000E+00  0.12407005784E+04  0.12407005784E+04  0.00000000000E+00 0.  1.
         21   -1    0    0  501  503 -0.00000000000E+00 -0.00000000000E+00 -0.65324504655E+02  0.65324504655E+02  0.00000000000E+00 0.  1.
          6    1    1    2  501    0 -0.97579460088E+02  0.81829103330E+02  0.15705500960E+03  0.26545814966E+03  0.17200000000E+03 0.  1.
         -6    1    1    2    0  502  0.97579460088E+02 -0.81829103330E+02  0.10183210642E+04  0.10405669334E+04  0.17200000000E+03 0.  1.
</event>
<event>
 4    1  0.4539494E+000  0.1962985E+03  0.7818608E-02  0.1152900E+00
         21   -1    0    0  501  502  0.00000000000E+00  0.00000000000E+00  0.12413492953E+03  0.12413492953E+03  0.00000000000E+00 0.  1.
         21   -1    0    0  502  503 -0.00000000000E+00 -0.00000000000E+00 -0.60099048953E+03  0.60099048953E+03  0.00000000000E+00 0.  1.
          6    1    1    2  501    0 -0.88502915015E+02 -0.33411879421E+02  0.13676474342E+02  0.19677440281E+03  0.17200000000E+03 0.  1.
         -6    1    1    2    0  503  0.88502915015E+02  0.33411879421E+02 -0.49053203435E+03  0.52835101625E+03  0.17200000000E+03 0.  1.
</event>
<event>
 4    1  0.4539494E+000  0.1989326E+03  0.7818608E-02  0.1150643E+00
         21   -1    0    0  503  502  0.00000000000E+00  0.00000000000E+00  0.78234302284E+02  0.78234302284E+02  0.00000000000E+00 0.  1.
         21   -1    0    0  501  503 -0.00000000000E+00 -0.00000000000E+00 -0.11017015570E+04  0.11017015570E+04  0.00000000000E+00 0. -1.
          6    1    1    2  501    0  0.49101462003E+02  0.87058732566E+02 -0.94561246495E+03  0.96631108364E+03  0.17200000000E+03 0. -1.
         -6    1    1    2    0  502 -0.49101462003E+02 -0.87058732566E+02 -0.77854789784E+02  0.21362477567E+03  0.17200000000E+03 0.  1.
</event>
<event>
 4    1  0.4539494E+000  0.1780503E+03  0.7818608E-02  0.1169703E+00
         21   -1    0    0  501  502  0.00000000000E+00  0.00000000000E+00  0.14341195437E+04  0.14341195437E+04  0.00000000000E+00 0. -1.
         21   -1    0    0  502  503 -0.00000000000E+00 -0.00000000000E+00 -0.25778119143E+02  0.25778119143E+02  0.00000000000E+00 0. -1.
          6    1    1    2  501    0 -0.46020623797E+02  0.53180503225E-01  0.97969249759E+03  0.99574057388E+03  0.17200000000E+03 0. -1.
         -6    1    1    2    0  503  0.46020623797E+02 -0.53180503225E-01  0.42864892698E+03  0.46415708897E+03  0.17200000000E+03 0. -1.
</event>
<event>
 4    1  0.4539494E+000  0.2061359E+03  0.7818608E-02  0.1144663E+00
         21   -1    0    0  503  502  0.00000000000E+00  0.00000000000E+00  0.31548984964E+03  0.31548984964E+03  0.00000000000E+00 0. -1.
         21   -1    0    0  501  503 -0.00000000000E+00 -0.00000000000E+00 -0.23920450149E+03  0.23920450149E+03  0.00000000000E+00 0. -1.
          6    1    1    2  501    0 -0.89131772713E+02  0.70452327504E+02 -0.14518839561E+03  0.25213423722E+03  0.17200000000E+03 0. -1.
         -6    1    1    2    0  502  0.89131772713E+02 -0.70452327504E+02  0.22147374375E+03  0.30256011391E+03  0.17200000000E+03 0. -1.
</event>
<event>
 4    1  0.4539494E+000  0.1938798E+03  0.7818608E-02  0.1155008E+00
         21   -1    0    0  503  502  0.00000000000E+00  0.00000000000E+00  0.73957697951E+02  0.73957697951E+02  0.00000000000E+00 0. -1.
         21   -1    0    0  501  503 -0.00000000000E+00 -0.00000000000E+00 -0.57554719373E+03  0.57554719373E+03  0.00000000000E+00 0. -1.
          6    1    1    2  501    0 -0.87429715105E+02  0.19010722101E+02 -0.36183862449E+03  0.41050767692E+03  0.17200000000E+03 0. -1.
         -6    1    1    2    0  502  0.87429715105E+02 -0.19010722101E+02 -0.13975087130E+03  0.23899721477E+03  0.17200000000E+03 0. -1.
</event>
<event>
 4    1  0.4539494E+000  0.2192086E+03  0.7818608E-02  0.1134474E+00
         21   -1    0    0  501  502  0.00000000000E+00  0.00000000000E+00  0.58917181121E+03  0.58917181121E+03  0.00000000000E+00 0.  1.
         21   -1    0    0  502  503 -0.00000000000E+00 -0.00000000000E+00 -0.82355298312E+02  0.82355298312E+02  0.00000000000E+00 0.  1.
          6    1    1    2  501    0 -0.13396237342E+03  0.22858441327E+02  0.22039786702E+03  0.31084987633E+03  0.17200000000E+03 0.  1.
         -6    1    1    2    0  503  0.13396237342E+03 -0.22858441327E+02  0.28641864588E+03  0.36067723318E+03  0.17200000000E+03 0.  1.
</event>
<event>
 4    1  0.4539494E+000  0.1851668E+03  0.7818608E-02  0.1162894E+00
         21   -1    0    0  503  502  0.00000000000E+00  0.00000000000E+00  0.93056352744E+02  0.93056352744E+02  0.00000000000E+00 0. -1.
         21   -1    0    0  501  503 -0.00000000000E+00 -0.00000000000E+00 -0.39420238650E+03  0.39420238650E+03  0.00000000000E+00 0.  1.
          6    1    1    2  501    0 -0.76575264375E+01 -0.68147676102E+02 -0.21284130848E+03  0.28211374668E+03  0.17200000000E+03 0.  1.
         -6    1    1    2    0  502  0.76575264375E+01  0.68147676102E+02 -0.88304725278E+02  0.20514499257E+03  0.17200000000E+03 0. -1.
</event>
<event>
 4    1  0.4539494E+000  0.2679938E+03  0.7818608E-02  0.1102433E+00
         21   -1    0    0  503  502  0.00000000000E+00  0.00000000000E+00  0.12854217518E+04  0.12854217518E+04  0.00000000000E+00 0.  1.
         21   -1    0    0  501  503 -0.00000000000E+00 -0.00000000000E+00 -0.83123662493E+02  0.83123662493E+02  0.00000000000E+00 0. -1.
          6    1    1    2  501    0 -0.19674632926E+03 -0.59393140916E+02  0.20935882127E+03  0.34007613752E+03  0.17200000000E+03 0. -1.
         -6    1    1    2    0  502  0.19674632926E+03  0.59393140916E+02  0.99293926805E+03  0.10284692768E+04  0.17200000000E+03 0.  1.
</event>
<event>
 4    1  0.4539494E+000  0.1848413E+03  0.7818608E-02  0.1163198E+00
         21   -1    0    0  503  502  0.00000000000E+00  0.00000000000E+00  0.47539915074E+03  0.47539915074E+03  0.00000000000E+00 0. -1.
         21   -1    0    0  501  503 -0.00000000000E+00 -0.00000000000E+00 -0.10149081842E+03  0.10149081842E+03  0.00000000000E+00 0. -1.
          6    1    1    2  501    0 -0.67135174552E+02 -0.86712251846E+01  0.31121813521E+02  0.18744302891E+03  0.17200000000E+03 0. -1.
         -6    1    1    2    0  502  0.67135174552E+02  0.86712251846E+01  0.34278651879E+03  0.38944694026E+03  0.17200000000E+03 0. -1.
</event>
<event>
 4    1  0.4539494E+000  0.2157434E+03  0.7818608E-02  0.1137097E+00
         21   -1    0    0  503  502  0.00000000000E+00  0.00000000000E+00  0.69420939135E+02  0.69420939135E+02  0.00000000000E+00 0. -1.
         21   -1    0    0  501  503 -0.00000000000E+00 -0.00000000000E+00 -0.10496521903E+04  0.10496521903E+04  0.00000000000E+00 0.  1.
          6    1    1    2  501    0 -0.10932935242E+03 -0.70769533184E+02 -0.15381709555E+03  0.26496213505E+03  0.17200000000E+03 0. -1.
         -6    1    1    2    0  502  0.10932935242E+03  0.70769533184E+02 -0.82641415561E+03  0.85411099438E+03  0.17200000000E+03 0.  1.
</event>
<event>
 4    1  0.4539494E+000  0.1821796E+03  0.7818608E-02  0.1165710E+00
         21   -1    0    0  503  502  0.00000000000E+00  0.00000000000E+00  0.53563029655E+03  0.53563029655E+03  0.00000000000E+00 0. -1.
         21   -1    0    0  501  503 -0.00000000000E+00 -0.00000000000E+00 -0.62106458273E+02  0.62106458273E+02  0.00000000000E+00 0. -1.
          6    1    1    2  501    0  0.22373290639E+02  0.55721184712E+02  0.25111143834E+03  0.31023598925E+03  0.17200000000E+03 0. -1.
         -6    1    1    2    0  502 -0.22373290639E+02 -0.55721184712E+02  0.22241239994E+03  0.28750076557E+03  0.17200000000E+03 0. -1.
</event>
<event>
 4    1  0.4539494E+000  0.2204486E+03  0.7818608E-02  0.1133549E+00
         21   -1    0    0  503  502  0.00000000000E+00  0.00000000000E+00  0.12107654180E+03  0.12107654180E+03  0.00000000000E+00 0.  1.
         21   -1    0    0  501  503 -0.00000000000E+00 -0.00000000000E+00 -0.42689702124E+03  0.42689702124E+03  0.00000000000E+00 0. -1.
          6    1    1    2  501    0  0.82355731132E+02 -0.11059432368E+03 -0.21989750928E+03  0.31137194072E+03  0.17200000000E+03 0. -1.
         -6    1    1    2    0  502 -0.82355731132E+02  0.11059432368E+03 -0.85922970167E+02  0.23660162232E+03  0.17200000000E+03 0.  1.
</event>
<event>
 4    1  0.4539494E+000  0.1922497E+03  0.7818608E-02  0.1156448E+00
         21   -1    0    0  501  502  0.00000000000E+00  0.00000000000E+00  0.27937347378E+03  0.27937347378E+03  0.00000000000E+00 0. -1.
         21   -1    0    0  502  503 -0.00000000000E+00 -0.00000000000E+00 -0.13617640486E+03  0.13617640486E+03  0.00000000000E+00 0. -1.
          6    1    1    2  501    0  0.80875885305E+02 -0.28896878062E+02  0.10667305222E+03  0.21986149835E+03  0.17200000000E+03 0. -1.
         -6    1    1    2    0  503 -0.80875885305E+02  0.28896878062E+02  0.36524016708E+02  0.19568838029E+03  0.17200000000E+03 0. -1.
</event>
<event>
 4    1  0.4539494E+000  0.5443713E+03  0.7818608E-02  0.1002805E+00
         21   -1    0    0  503  502  0.00000000000E+00  0.00000000000E+00  0.13056528679E+04  0.13056528679E+04  0.00000000000E+00 0. -1.
         21   -1    0    0  501  503 -0.00000000000E+00 -0.00000000000E+00 -0.27056457636E+03  0.27056457636E+03  0.00000000000E+00 0.  1.
          6    1    1    2  501    0 -0.42900438389E+03 -0.28759589254E+03  0.20118407045E+03  0.58035781119E+03  0.17200000000E+03 0.  1.
         -6    1    1    2    0  502  0.42900438389E+03  0.28759589254E+03  0.83390422105E+03  0.99585963302E+03  0.17200000000E+03 0. -1.
</event>
<event>
 4    1  0.4539494E+000  0.2054149E+03  0.7818608E-02  0.1145249E+00
         21   -1    0    0  503  502  0.00000000000E+00  0.00000000000E+00  0.37454858625E+02  0.37454858625E+02  0.00000000000E+00 0.  1.
         21   -1    0    0  501  503 -0.00000000000E+00 -0.00000000000E+00 -0.11872289447E+04  0.11872289447E+04  0.00000000000E+00 0.  1.
          6    1    1    2  501    0 -0.50555202343E+02 -0.10027686428E+03 -0.71330655142E+03  0.74229476240E+03  0.17200000000E+03 0.  1.
         -6    1    1    2    0  502  0.50555202343E+02  0.10027686428E+03 -0.43646753465E+03  0.48238904092E+03  0.17200000000E+03 0.  1.
</event>
<event>
 4    1  0.4539494E+000  0.1878845E+03  0.7818608E-02  0.1160383E+00
         21   -1    0    0  503  502  0.00000000000E+00  0.00000000000E+00  0.44145041007E+03  0.44145041007E+03  0.00000000000E+00 0.  1.
         21   -1    0    0  501  503 -0.00000000000E+00 -0.00000000000E+00 -0.13874120418E+03  0.13874120418E+03  0.00000000000E+00 0.  1.
          6    1    1    2  501    0  0.74316805821E+02 -0.13914272427E+02 -0.37461654263E+02  0.19158280232E+03  0.17200000000E+03 0.  1.
         -6    1    1    2    0  502 -0.74316805821E+02  0.13914272427E+02  0.34017086015E+03  0.38860881192E+03  0.17200000000E+03 0.  1.
</event>
<event>
 4    1  0.4539494E+000  0.2106255E+03  0.7818608E-02  0.1141072E+00
         21   -1    0    0  501  502  0.00000000000E+00  0.00000000000E+00  0.37775873562E+03  0.37775873562E+03  0.00000000000E+00 0. -1.
         21   -1    0    0  502  503 -0.00000000000E+00 -0.00000000000E+00 -0.11812332447E+03  0.11812332447E+03  0.00000000000E+00 0. -1.
          6    1    1    2  501    0  0.81088239281E+01 -0.12129854910E+03  0.14870829661E+03  0.25783182216E+03  0.17200000000E+03 0. -1.
         -6    1    1    2    0  503 -0.81088239281E+01  0.12129854910E+03  0.11092711455E+03  0.23805023793E+03  0.17200000000E+03 0. -1.
</event>
<event>
 4    1  0.4539494E+000  0.1885021E+03  0.7818608E-02  0.1159819E+00
         21   -1    0    0  503  502  0.00000000000E+00  0.00000000000E+00  0.52739952619E+02  0.52739952619E+02  0.00000000000E+00 0. -1.
         21   -1    0    0  501  503 -0.00000000000E+00 -0.00000000000E+00 -0.17091387046E+04  0.17091387046E+04  0.00000000000E+00 0. -1.
          6    1    1    2  501    0  0.58885327474E+02 -0.49815090639E+02 -0.15138630095E+04  0.15255537476E+04  0.17200000000E+03 0. -1.
         -6    1    1    2    0  502 -0.58885327474E+02  0.49815090639E+02 -0.14253574242E+03  0.23632490964E+03  0.17200000000E+03 0. -1.
</event>
<event>
 4    1  0.4539494E+000  0.2212781E+03  0.7818608E-02  0.1132934E+00
         21   -1    0    0  503  502  0.00000000000E+00  0.00000000000E+00  0.37185552905E+03  0.37185552905E+03  0.00000000000E+00 0. -1.
         21   -1    0    0  501  503 -0.00000000000E+00 -0.00000000000E+00 -0.13455073544E+03  0.13455073544E+03  0.00000000000E+00 0. -1.
          6    1    1    2  501    0  0.11779024848E+03 -0.74198870119E+02  0.15567040564E+03  0.27054997718E+03  0.17200000000E+03 0. -1.
         -6    1    1    2    0  502 -0.11779024848E+03  0.74198870119E+02  0.81634387967E+02  0.23585628731E+03  0.17200000000E+03 0. -1.
</event>
<event>
 4    1  0.4539494E+000  0.2692624E+03  0.7818608E-02  0.1101702E+00
         21   -1    0    0  501  502  0.00000000000E+00  0.00000000000E+00  0.22117656654E+03  0.22117656654E+03  0.00000000000E+00 0.  1.
         21   -1    0    0  502  503 -0.00000000000E+00 -0.00000000000E+00 -0.67277891537E+03  0.67277891537E+03  0.00000000000E+00 0.  1.
          6    1    1    2  501    0 -0.11450684401E+03 -0.17264537529E+03  0.94268390832E+02  0.28528717539E+03  0.17200000000E+03 0.  1.
         -6    1    1    2    0  503  0.11450684401E+03  0.17264537529E+03 -0.54587073967E+03  0.60866830652E+03  0.17200000000E+03 0.  1.
</event>
<event>
 4    1  0.4539494E+000  0.1991736E+03  0.7818608E-02  0.1150438E+00
         21   -1    0    0  501  502  0.00000000000E+00  0.00000000000E+00  0.22693700579E+03  0.22693700579E+03  0.00000000000E+00 0. -1.
         21   -1    0    0  502  503 -0.00000000000E+00 -0.00000000000E+00 -0.22482274856E+03  0.22482274856E+03  0.00000000000E+00 0. -1.
          6    1    1    2  501    0  0.69903152024E+02  0.72108849945E+02  0.10759685407E+03  0.22637848818E+03  0.17200000000E+03 0. -1.
         -6    1    1    2    0  503 -0.69903152024E+02 -0.72108849945E+02 -0.10548259684E+03  0.22538126617E+03  0.17200000000E+03 0. -1.
</event>
<event>
 4    1  0.4539494E+000  0.2332077E+03  0.7818608E-02  0.1124402E+00
         21   -1    0    0  503  502  0.00000000000E+00  0.00000000000E+00  0.35045583165E+03  0.35045583165E+03  0.00000000000E+00 0. -1.
         21   -1    0    0  501  503 -0.00000000000E+00 -0.00000000000E+00 -0.19523646711E+03  0.19523646711E+03  0.00000000000E+00 0.  1.
          6    1    1    2  501    0 -0.19767279836E+02 -0.15624049433E+03 -0.45968320324E+02  0.23769502287E+03  0.17200000000E+03 0.  1.
         -6    1    1    2    0  502  0.19767279836E+02  0.15624049433E+03  0.20118768486E+03  0.30799727590E+03  0.17200000000E+03 0. -1.
</event>
<event>
 4    1  0.4539494E+000  0.1824289E+03  0.7818608E-02  0.1165473E+00
         21   -1    0    0  501  502  0.00000000000E+00  0.00000000000E+00  0.32448216255E+03  0.32448216255E+03  0.00000000000E+00 0. -1.
         21   -1    0    0  502  503 -0.00000000000E+00 -0.00000000000E+00 -0.14712674569E+03  0.14712674569E+03  0.00000000000E+00 0. -1.
          6    1    1    2  501    0 -0.15660059667E+02 -0.58745684451E+02  0.21845257557E+03  0.28460818802E+03  0.17200000000E+03 0. -1.
         -6    1    1    2    0  503  0.15660059667E+02  0.58745684451E+02 -0.41097158712E+02  0.18700072022E+03  0.17200000000E+03 0. -1.
</event>
<event>
 4    1  0.4539494E+000  0.2310218E+03  0.7818608E-02  0.1125923E+00
         21   -1    0    0  503  502  0.00000000000E+00  0.00000000000E+00  0.14786527927E+03  0.14786527927E+03  0.00000000000E+00 0.  1.
         21   -1    0    0  501  503 -0.00000000000E+00 -0.00000000000E+00 -0.36815521330E+03  0.36815521330E+03  0.00000000000E+00 0. -1.
          6    1    1    2  501    0  0.15309026119E+03 -0.18720503305E+02 -0.74035119324E+02  0.24259489732E+03  0.17200000000E+03 0.  1.
         -6    1    1    2    0  502 -0.15309026119E+03  0.18720503305E+02 -0.14625481470E+03  0.27342559525E+03  0.17200000000E+03 0. -1.
</event>
<event>
 4    1  0.4539494E+000  0.1826235E+03  0.7818608E-02  0.1165288E+00
         21   -1    0    0  501  502  0.00000000000E+00  0.00000000000E+00  0.70724826144E+02  0.70724826144E+02  0.00000000000E+00 0.  1.
         21   -1    0    0  502  503 -0.00000000000E+00 -0.00000000000E+00 -0.56397721494E+03  0.56397721494E+03  0.00000000000E+00 0.  1.
          6    1    1    2  501    0  0.29256844352E+02  0.53957328230E+02 -0.11816448666E+03  0.21751827996E+03  0.17200000000E+03 0.  1.
         -6    1    1    2    0  503 -0.29256844352E+02 -0.53957328230E+02 -0.37508790214E+03  0.41718376112E+03  0.17200000000E+03 0.  1.
</event>
<event>
 4    1  0.4539494E+000  0.2302238E+03  0.7818608E-02  0.1126482E+00
         21   -1    0    0  501  502  0.00000000000E+00  0.00000000000E+00  0.65230135674E+03  0.65230135674E+03  0.00000000000E+00 0. -1.
         21   -1    0    0  502  503 -0.00000000000E+00 -0.00000000000E+00 -0.81336803088E+02  0.81336803088E+02  0.00000000000E+00 0. -1.
          6    1    1    2  501    0 -0.67095379260E+01 -0.15288555267E+03  0.27387798124E+03  0.35778786833E+03  0.17200000000E+03 0.  1.
         -6    1    1    2    0  503  0.67095379260E+01  0.15288555267E+03  0.29708657241E+03  0.37585029150E+03  0.17200000000E+03 0.  1.
</event>
<event>
 4    1  0.4539494E+000  0.1750891E+03  0.7818608E-02  0.1172642E+00
         21   -1    0    0  501  502  0.00000000000E+00  0.00000000000E+00  0.79304028117E+03  0.79304028117E+03  0.00000000000E+00 0.  1.
         21   -1    0    0  502  503 -0.00000000000E+00 -0.00000000000E+00 -0.11089527453E+03  0.11089527453E+03  0.00000000000E+00 0.  1.
          6    1    1    2  501    0  0.20335582590E+02 -0.25664518030E+02  0.70585667041E+03  0.72724812999E+03  0.17200000000E+03 0.  1.
         -6    1    1    2    0  503 -0.20335582590E+02  0.25664518030E+02 -0.23711663781E+02  0.17668742571E+03  0.17200000000E+03 0.  1.
</event>
<event>
 4    1  0.4539494E+000  0.3097514E+03  0.7818608E-02  0.1080465E+00
         21   -1    0    0  501  502  0.00000000000E+00  0.00000000000E+00  0.16146809970E+04  0.16146809970E+04  0.00000000000E+00 0.  1.
         21   -1    0    0  502  503 -0.00000000000E+00 -0.00000000000E+00 -0.40503445632E+03  0.40503445632E+03  0.00000000000E+00 0. -1.
          6    1    1    2  501    0  0.34868059113E+02  0.25523738090E+03  0.15376684066E+04  0.15685566712E+04  0.17200000000E+03 0.  1.
         -6    1    1    2    0  503 -0.34868059113E+02 -0.25523738090E+03 -0.32802186592E+03  0.45115878211E+03  0.17200000000E+03 0. -1.
</event>
<event>
 4    1  0.4539494E+000  0.2045976E+03  0.7818608E-02  0.1145917E+00
         21   -1    0    0  501  502  0.00000000000E+00  0.00000000000E+00  0.44467169881E+03  0.44467169881E+03  0.00000000000E+00 0.  1.
         21   -1    0    0  502  503 -0.00000000000E+00 -0.00000000000E+00 -0.25533415286E+03  0.25533415286E+03  0.00000000000E+00 0.  1.
          6    1    1    2  501    0 -0.10778926658E+03  0.25644766481E+02  0.37276528337E+03  0.42522245534E+03  0.17200000000E+03 0.  1.
         -6    1    1    2    0  503  0.10778926658E+03 -0.25644766481E+02 -0.18342773743E+03  0.27478339632E+03  0.17200000000E+03 0.  1.
</event>
<event>
 4    1  0.4539494E+000  0.2042566E+03  0.7818608E-02  0.1146197E+00
         21   -1    0    0  501  502  0.00000000000E+00  0.00000000000E+00  0.20276193358E+03  0.20276193358E+03  0.00000000000E+00 0. -1.
         21   -1    0    0  502  503 -0.00000000000E+00 -0.00000000000E+00 -0.22544679867E+03  0.22544679867E+03  0.00000000000E+00 0. -1.
          6    1    1    2  501    0 -0.10498195171E+03  0.33400050123E+02  0.51922788328E+02  0.21075281607E+03  0.17200000000E+03 0. -1.
         -6    1    1    2    0  503  0.10498195171E+03 -0.33400050123E+02 -0.74607653411E+02  0.21745591618E+03  0.17200000000E+03 0. -1.
</event>
<event>
 4    1  0.4539494E+000  0.1760248E+03  0.7818608E-02  0.1171707E+00
         21   -1    0    0  503  502  0.00000000000E+00  0.00000000000E+00  0.77364189480E+02  0.77364189480E+02  0.00000000000E+00 0.  1.
         21   -1    0    0  501  503 -0.00000000000E+00 -0.00000000000E+00 -0.46725318606E+03  0.46725318606E+03  0.00000000000E+00 0.  1.
          6    1    1    2  501    0 -0.14626621652E+02  0.34449977097E+02 -0.29786581562E+03  0.34598957080E+03  0.17200000000E+03 0. -1.
         -6    1    1    2    0  502  0.14626621652E+02 -0.34449977097E+02 -0.92023180953E+02  0.19862780474E+03  0.17200000000E+03 0. -1.
</event>
<event>
 4    1  0.4539494E+000  0.1811595E+03  0.7818608E-02  0.1166686E+00
         21   -1    0    0  501  502  0.00000000000E+00  0.00000000000E+00  0.92963151697E+03  0.92963151697E+03  0.00000000000E+00 0. -1.
         21   -1    0    0  502  503 -0.00000000000E+00 -0.00000000000E+00 -0.35588552027E+02  0.35588552027E+02  0.00000000000E+00 0. -1.
          6    1    1    2  501    0  0.29049682550E+02 -0.48896589099E+02  0.49025304758E+03  0.52265362444E+03  0.17200000000E+03 0. -1.
         -6    1    1    2    0  503 -0.29049682550E+02  0.48896589099E+02  0.40378991737E+03  0.44256644456E+03  0.17200000000E+03 0. -1.
</event>
<event>
 4    1  0.4539494E+000  0.2127462E+03  0.7818608E-02  0.1139410E+00
         21   -1    0    0  501  502  0.00000000000E+00  0.00000000000E+00  0.39443885614E+02  0.39443885614E+02  0.00000000000E+00 0.  1.
         21   -1    0    0  502  503 -0.00000000000E+00 -0.00000000000E+00 -0.16761613629E+04  0.16761613629E+04  0.00000000000E+00 0.  1.
          6    1    1    2  501    0 -0.11038450200E+03 -0.59094853275E+02 -0.33660198587E+03  0.39819823814E+03  0.17200000000E+03 0.  1.
         -6    1    1    2    0  503  0.11038450200E+03  0.59094853275E+02 -0.13001154914E+04  0.13174070104E+04  0.17200000000E+03 0.  1.
</event>
<event>
 4    1  0.4539494E+000  0.2081707E+03  0.7818608E-02  0.1143023E+00
         21   -1    0    0  503  502  0.00000000000E+00  0.00000000000E+00  0.93199290471E+02  0.93199290471E+02  0.00000000000E+00 0.  1.
         21   -1    0    0  501  503 -0.00000000000E+00 -0.00000000000E+00 -0.46506978964E+03  0.46506978964E+03  0.00000000000E+00 0. -1.
          6    1    1    2  501    0  0.11722246146E+03 -0.31538787791E+01 -0.18998467154E+03  0.28183191417E+03  0.17200000000E+03 0. -1.
         -6    1    1    2    0  502 -0.11722246146E+03  0.31538787791E+01 -0.18188582762E+03  0.27643716594E+03  0.17200000000E+03 0. -1.
</event>
<event>
 4    1  0.4539494E+000  0.1992501E+03  0.7818608E-02  0.1150373E+00
         21   -1    0    0  501  502  0.00000000000E+00  0.00000000000E+00  0.50829726565E+03  0.50829726565E+03  0.00000000000E+00 0.  1.
         21   -1    0    0  502  503 -0.00000000000E+00 -0.00000000000E+00 -0.96258578251E+02  0.96258578251E+02  0.00000000000E+00 0. -1.
          6    1    1    2  501    0  0.54491076607E+02  0.84541948421E+02  0.33728962100E+03  0.39174597242E+03  0.17200000000E+03 0.  1.
         -6    1    1    2    0  503 -0.54491076607E+02 -0.84541948421E+02  0.74749066400E+02  0.21280987148E+03  0.17200000000E+03 0. -1.
</event>
<event>
 4    1  0.4539494E+000  0.2430117E+03  0.7818608E-02  0.1117803E+00
         21   -1    0    0  501  502  0.00000000000E+00  0.00000000000E+00  0.74490151854E+03  0.74490151854E+03  0.00000000000E+00 0. -1.
         21   -1    0    0  502  503 -0.00000000000E+00 -0.00000000000E+00 -0.85372158322E+02  0.85372158322E+02  0.00000000000E+00 0.  1.
          6    1    1    2  501    0  0.13183136006E+03  0.10995995754E+03  0.44067475791E+03  0.50323845443E+03  0.17200000000E+03 0.  1.
         -6    1    1    2    0  503 -0.13183136006E+03 -0.10995995754E+03  0.21885460230E+03  0.32703522243E+03  0.17200000000E+03 0.  1.
</event>
<event>
 4    1  0.4539494E+000  0.1875147E+03  0.7818608E-02  0.1160722E+00
         21   -1    0    0  503  502  0.00000000000E+00  0.00000000000E+00  0.15849899032E+03  0.15849899032E+03  0.00000000000E+00 0. -1.
         21   -1    0    0  501  503 -0.00000000000E+00 -0.00000000000E+00 -0.24787081461E+03  0.24787081461E+03  0.00000000000E+00 0. -1.
          6    1    1    2  501    0  0.66940490896E+02 -0.33116764258E+02 -0.11052822384E+03  0.21766542597E+03  0.17200000000E+03 0. -1.
         -6    1    1    2    0  502 -0.66940490896E+02  0.33116764258E+02  0.21156399556E+02  0.18870437896E+03  0.17200000000E+03 0. -1.
</event>
<event>
 4    1  0.4539494E+000  0.2096230E+03  0.7818608E-02  0.1141865E+00
         21   -1    0    0  503  502  0.00000000000E+00  0.00000000000E+00  0.57204732075E+03  0.57204732075E+03  0.00000000000E+00 0. -1.
         21   -1    0    0  501  503 -0.00000000000E+00 -0.00000000000E+00 -0.76894490793E+02  0.76894490793E+02  0.00000000000E+00 0.  1.
          6    1    1    2  501    0 -0.44351254469E+02 -0.11131375789E+03  0.25801213693E+03  0.33243352610E+03  0.17200000000E+03 0.  1.
         -6    1    1    2    0  502  0.44351254469E+02  0.11131375789E+03  0.23714069302E+03  0.31650828544E+03  0.17200000000E+03 0. -1.
</event>
<event>
 4    1  0.4539494E+000  0.1735781E+03  0.7818608E-02  0.1174167E+00
         21   -1    0    0  503  502  0.00000000000E+00  0.00000000000E+00  0.14928380997E+03  0.14928380997E+03  0.00000000000E+00 0. -1.
         21   -1    0    0  501  503 -0.00000000000E+00 -0.00000000000E+00 -0.21474120627E+03  0.21474120627E+03  0.00000000000E+00 0. -1.
          6    1    1    2  501    0 -0.79167319064E+01 -0.21970343723E+02  0.11908031120E+02  0.17398612546E+03  0.17200000000E+03 0. -1.
         -6    1    1    2    0  502  0.79167319064E+01  0.21970343723E+02 -0.77365427418E+02  0.19003889077E+03  0.17200000000E+03 0. -1.
</event>
<event>
 4    1  0.4539494E+000  0.2533887E+03  0.7818608E-02  0.1111182E+00
         21   -1    0    0  503  502  0.00000000000E+00  0.00000000000E+00  0.67222116065E+02  0.67222116065E+02  0.00000000000E+00 0. -1.
         21   -1    0    0  501  503 -0.00000000000E+00 -0.00000000000E+00 -0.98136633859E+03  0.98136633859E+03  0.00000000000E+00 0. -1.
          6    1    1    2  501    0 -0.33355162237E+02  0.18305531516E+03 -0.54279890574E+03  0.59902960472E+03  0.17200000000E+03 0. -1.
         -6    1    1    2    0  502  0.33355162237E+02 -0.18305531516E+03 -0.37134531678E+03  0.44955884993E+03  0.17200000000E+03 0. -1.
</event>
<event>
 4    1  0.4539494E+000  0.1797704E+03  0.7818608E-02  0.1168025E+00
         21   -1    0    0  503  502  0.00000000000E+00  0.00000000000E+00  0.16506129190E+03  0.16506129190E+03  0.00000000000E+00 0.  1.
         21   -1    0    0  501  503 -0.00000000000E+00 -0.00000000000E+00 -0.23006118500E+03  0.23006118500E+03  0.00000000000E+00 0.  1.
          6    1    1    2  501    0 -0.50235060631E+02  0.14485902287E+02 -0.10875043240E+03  0.21010487674E+03  0.17200000000E+03 0. -1.
         -6    1    1    2    0  502  0.50235060631E+02 -0.14485902287E+02  0.43750539307E+02  0.18501760017E+03  0.17200000000E+03 0. -1.
</event>
<event>
 4    1  0.4539494E+000  0.1942989E+03  0.7818608E-02  0.1154640E+00
         21   -1    0    0  503  502  0.00000000000E+00  0.00000000000E+00  0.64787846433E+02  0.64787846433E+02  0.00000000000E+00 0.  1.
         21   -1    0    0  501  503 -0.00000000000E+00 -0.00000000000E+00 -0.60869062237E+03  0.60869062237E+03  0.00000000000E+00 0. -1.
          6    1    1    2  501    0  0.63704999437E+02  0.64107102011E+02 -0.34153098552E+03  0.39293187902E+03  0.17200000000E+03 0.  1.
         -6    1    1    2    0  502 -0.63704999437E+02 -0.64107102011E+02 -0.20237179042E+03  0.28054658978E+03  0.17200000000E+03 0.  1.
</event>
<event>
 4    1  0.4539494E+000  0.2410047E+03  0.7818608E-02  0.1119125E+00
         21   -1    0    0  501  502  0.00000000000E+00  0.00000000000E+00  0.37749203378E+03  0.37749203378E+03  0.00000000000E+00 0.  1.
         21   -1    0    0  502  503 -0.00000000000E+00 -0.00000000000E+00 -0.21179307470E+03  0.21179307470E+03  0.00000000000E+00 0.  1.
          6    1    1    2  501    0  0.15848834283E+03  0.58143874834E+02  0.23694131909E+03  0.33797108410E+03  0.17200000000E+03 0.  1.
         -6    1    1    2    0  503 -0.15848834283E+03 -0.58143874834E+02 -0.71242360011E+02  0.25131402439E+03  0.17200000000E+03 0.  1.
</event>
<event>
 4    1  0.4539494E+000  0.2186975E+03  0.7818608E-02  0.1134858E+00
         21   -1    0    0  501  502  0.00000000000E+00  0.00000000000E+00  0.72528443702E+03  0.72528443702E+03  0.00000000000E+00 0. -1.
         21   -1    0    0  502  503 -0.00000000000E+00 -0.00000000000E+00 -0.98781408078E+02  0.98781408078E+02  0.00000000000E+00 0. -1.
          6    1    1    2  501    0 -0.99978862085E+02 -0.90822938502E+02  0.55081237999E+03  0.59264057992E+03  0.17200000000E+03 0. -1.
         -6    1    1    2    0  503  0.99978862085E+02  0.90822938502E+02  0.75690648952E+02  0.23142526517E+03  0.17200000000E+03 0. -1.
</event>
<event>
 4    1  0.4539494E+000  0.1863537E+03  0.7818608E-02  0.1161792E+00
         21   -1    0    0  503  502  0.00000000000E+00  0.00000000000E+00  0.23521365238E+03  0.23521365238E+03  0.00000000000E+00 0.  1.
         21   -1    0    0  501  503 -0.00000000000E+00 -0.00000000000E+00 -0.36941317796E+03  0.36941317796E+03  0.00000000000E+00 0.  1.
          6    1    1    2  501    0 -0.52994338952E+02  0.48324888981E+02 -0.30133520575E+03  0.35430297922E+03  0.17200000000E+03 0.  1.
         -6    1    1    2    0  502  0.52994338952E+02 -0.48324888981E+02  0.16713568017E+03  0.25032385112E+03  0.17200000000E+03 0.  1.
</event>
<event>
 4    1  0.4539494E+000  0.2222626E+03  0.7818608E-02  0.1132207E+00
         21   -1    0    0  501  502  0.00000000000E+00  0.00000000000E+00  0.30028722361E+03  0.30028722361E+03  0.00000000000E+00 0.  1.
         21   -1    0    0  502  503 -0.00000000000E+00 -0.00000000000E+00 -0.18997802339E+03  0.18997802339E+03  0.00000000000E+00 0. -1.
          6    1    1    2  501    0 -0.13627586208E+03  0.35292642043E+02  0.14490467938E+03  0.26532630340E+03  0.17200000000E+03 0. -1.
         -6    1    1    2    0  503  0.13627586208E+03 -0.35292642043E+02 -0.34595479170E+02  0.22493894360E+03  0.17200000000E+03 0. -1.
</event>
<event>
 4    1  0.4539494E+000  0.2251688E+03  0.7818608E-02  0.1130087E+00
         21   -1    0    0  501  502  0.00000000000E+00  0.00000000000E+00  0.12427515351E+03  0.12427515351E+03  0.00000000000E+00 0. -1.
         21   -1    0    0  502  503 -0.00000000000E+00 -0.00000000000E+00 -0.46797544614E+03  0.46797544614E+03  0.00000000000E+00 0.  1.
          6    1    1    2  501    0 -0.10072344978E+03  0.10474621759E+03 -0.65815879465E+02  0.23459052288E+03  0.17200000000E+03 0. -1.
         -6    1    1    2    0  503  0.10072344978E+03 -0.10474621759E+03 -0.27788441317E+03  0.35766007677E+03  0.17200000000E+03 0.  1.
</event>
<event>
 4    1  0.4539494E+000  0.2323141E+03  0.7818608E-02  0.1125022E+00
         21   -1    0    0  503  502  0.00000000000E+00  0.00000000000E+00  0.54513287412E+03  0.54513287412E+03  0.00000000000E+00 0.  1.
         21   -1    0    0  501  503 -0.00000000000E+00 -0.00000000000E+00 -0.55089841186E+03  0.55089841186E+03  0.00000000000E+00 0.  1.
          6    1    1    2  501    0  0.90051305799E+02  0.12757971406E+03 -0.49921917734E+03  0.55062655961E+03  0.17200000000E+03 0.  1.
         -6    1    1    2    0  502 -0.90051305799E+02 -0.12757971406E+03  0.49345363960E+03  0.54540472638E+03  0.17200000000E+03 0.  1.
</event>
<event>
 4    1  0.4539494E+000  0.1994612E+03  0.7818608E-02  0.1150194E+00
         21   -1    0    0  503  502  0.00000000000E+00  0.00000000000E+00  0.16859870780E+03  0.16859870780E+03  0.00000000000E+00 0.  1.
         21   -1    0    0  501  503 -0.00000000000E+00 -0.00000000000E+00 -0.29162969675E+03  0.29162969675E+03  0.00000000000E+00 0.  1.
          6    1    1    2  501    0  0.65763501302E+02 -0.76654729035E+02 -0.16204308549E+03  0.25698783462E+03  0.17200000000E+03 0.  1.
         -6    1    1    2    0  502 -0.65763501302E+02  0.76654729035E+02  0.39012096552E+02  0.20324056993E+03  0.17200000000E+03 0.  1.
</event>
<event>
 4    1  0.4539494E+000  0.1858967E+03  0.7818608E-02  0.1162215E+00
         21   -1    0    0  503  502  0.00000000000E+00  0.00000000000E+00  0.34790199188E+03  0.34790199188E+03  0.00000000000E+00 0. -1.
         21   -1    0    0  501  503 -0.00000000000E+00 -0.00000000000E+00 -0.10203242529E+03  0.10203242529E+03  0.00000000000E+00 0. -1.
          6    1    1    2  501    0  0.61943212548E+02 -0.33713875075E+02  0.86331875585E+02  0.20496531340E+03  0.17200000000E+03 0. -1.
         -6    1    1    2    0  502 -0.61943212548E+02  0.33713875075E+02  0.15953769101E+03  0.24496910378E+03  0.17200000000E+03 0. -1.
</event>
<event>
 4    1  0.4539494E+000  0.1772087E+03  0.7818608E-02  0.1170532E+00
         21   -1    0    0  501  502  0.00000000000E+00  0.00000000000E+00  0.12292392375E+03  0.12292392375E+03  0.00000000000E+00 0.  1.
         21   -1    0    0  502  503 -0.00000000000E+00 -0.00000000000E+00 -0.29444564748E+03  0.29444564748E+03  0.00000000000E+00 0.  1.
          6    1    1    2  501    0  0.15086217695E+02  0.39891670381E+02 -0.16168932748E+03  0.23988826139E+03  0.17200000000E+03 0.  1.
         -6    1    1    2    0  503 -0.15086217695E+02 -0.39891670381E+02 -0.98323962469E+01  0.17748130985E+03  0.17200000000E+03 0.  1.
</event>
<event>
 4    1  0.4539494E+000  0.2466721E+03  0.7818608E-02  0.1115426E+00
         21   -1    0    0  503  502  0.00000000000E+00  0.00000000000E+00  0.20172633923E+03  0.20172633923E+03  0.00000000000E+00 0. -1.
         21   -1    0    0  501  503 -0.00000000000E+00 -0.00000000000E+00 -0.31335739165E+03  0.31335739165E+03  0.00000000000E+00 0.  1.
          6    1    1    2  501    0 -0.15932504730E+03  0.76672415150E+02 -0.10563401552E+03  0.26833873216E+03  0.17200000000E+03 0.  1.
         -6    1    1    2    0  502  0.15932504730E+03 -0.76672415150E+02 -0.59970368987E+01  0.24674499872E+03  0.17200000000E+03 0. -1.
</event>
<event>
 4    1  0.4539494E+000  0.1803482E+03  0.7818608E-02  0.1167466E+00
         21   -1    0    0  503  502  0.00000000000E+00  0.00000000000E+00  0.10524735155E+04  0.10524735155E+04  0.00000000000E+00 0. -1.
         21   -1    0    0  501  503 -0.00000000000E+00 -0.00000000000E+00 -0.65450606718E+02  0.65450606718E+02  0.00000000000E+00 0. -1.
          6    1    1    2  501    0 -0.47677771178E+02  0.25851804167E+02  0.87415070584E+02  0.20041676629E+03  0.17200000000E+03 0. -1.
         -6    1    1    2    0  502  0.47677771178E+02 -0.25851804167E+02  0.89960783819E+03  0.91750735592E+03  0.17200000000E+03 0. -1.
</event>
<event>
 4    1  0.4539494E+000  0.1819218E+03  0.7818608E-02  0.1165956E+00
         21   -1    0    0  503  502  0.00000000000E+00  0.00000000000E+00  0.92152495051E+03  0.92152495051E+03  0.00000000000E+00 0.  1.
         21   -1    0    0  501  503 -0.00000000000E+00 -0.00000000000E+00 -0.36049501934E+02  0.36049501934E+02  0.00000000000E+00 0.  1.
          6    1    1    2  501    0  0.39036554061E+02 -0.44583356032E+02  0.47210558488E+03  0.50594388174E+03  0.17200000000E+03 0. -1.
         -6    1    1    2    0  502 -0.39036554061E+02  0.44583356032E+02  0.41336986369E+03  0.45163057071E+03  0.17200000000E+03 0. -1.
</event>
<event>
 4    1  0.4539494E+000  0.1979505E+03  0.7818608E-02  0.1151480E+00
         21   -1    0    0  501  502  0.00000000000E+00  0.00000000000E+00  0.77659089352E+02  0.77659089352E+02  0.00000000000E+00 0.  1.
         21   -1    0    0  502  503 -0.00000000000E+00 -0.00000000000E+00 -0.14721786844E+04  0.14721786844E+04  0.00000000000E+00 0.  1.
          6    1    1    2  501    0  0.89307273046E+02  0.40306704699E+02 -0.69019281991E+02  0.20963797545E+03  0.17200000000E+03 0.  1.
         -6    1    1    2    0  503 -0.89307273046E+02 -0.40306704699E+02 -0.13255003131E+04  0.13401997983E+04  0.17200000000E+03 0.  1.
</event>
<event>
 4    1  0.4539494E+000  0.1798470E+03  0.7818608E-02  0.1167951E+00
         21   -1    0    0  503  502  0.00000000000E+00  0.00000000000E+00  0.58643961527E+02  0.58643961527E+02  0.00000000000E+00 0.  1.
         21   -1    0    0  501  503 -0.00000000000E+00 -0.00000000000E+00 -0.55164326609E+03  0.55164326609E+03  0.00000000000E+00 0.  1.
          6    1    1    2  501    0 -0.24129605526E+01  0.52489104064E+02 -0.25052085756E+03  0.30839200459E+03  0.17200000000E+03 0.  1.
         -6    1    1    2    0  502  0.24129605526E+01 -0.52489104064E+02 -0.24247844700E+03  0.30189522303E+03  0.17200000000E+03 0.  1.
</event>
<event>
 4    1  0.4539494E+000  0.1814008E+03  0.7818608E-02  0.1166454E+00
         21   -1    0    0  503  502  0.00000000000E+00  0.00000000000E+00  0.44406016338E+03  0.44406016338E+03  0.00000000000E+00 0. -1.
         21   -1    0    0  501  503 -0.00000000000E+00 -0.00000000000E+00 -0.20162640976E+03  0.20162640976E+03  0.00000000000E+00 0. -1.
          6    1    1    2  501    0 -0.18501789569E+02  0.54588865014E+02 -0.13553447611E+03  0.22644172454E+03  0.17200000000E+03 0. -1.
         -6    1    1    2    0  502  0.18501789569E+02 -0.54588865014E+02  0.37796822972E+03  0.41924484860E+03  0.17200000000E+03 0. -1.
</event>
<event>
 4    1  0.4539494E+000  0.1988253E+03  0.7818608E-02  0.1150734E+00
         21   -1    0    0  501  502  0.00000000000E+00  0.00000000000E+00  0.18851635136E+03  0.18851635136E+03  0.00000000000E+00 0.  1.
         21   -1    0    0  502  503 -0.00000000000E+00 -0.00000000000E+00 -0.50743001520E+03  0.50743001520E+03  0.00000000000E+00 0. -1.
          6    1    1    2  501    0  0.85473521807E+02  0.51398268766E+02  0.10708811650E+03  0.22583040021E+03  0.17200000000E+03 0.  1.
         -6    1    1    2    0  503 -0.85473521807E+02 -0.51398268766E+02 -0.42600178034E+03  0.47011596635E+03  0.17200000000E+03 0. -1.
</event>
<event>
 4    1  0.4539494E+000  0.2219226E+03  0.7818608E-02  0.1132458E+00
         21   -1    0    0  501  502  0.00000000000E+00  0.00000000000E+00  0.10792060361E+03  0.10792060361E+03  0.00000000000E+00 0.  1.
         21   -1    0    0  502  503 -0.00000000000E+00 -0.00000000000E+00 -0.60236807666E+03  0.60236807666E+03  0.00000000000E+00 0.  1.
          6    1    1    2  501    0  0.11098297230E+03 -0.85723047941E+02 -0.42207788698E+03  0.47686413554E+03  0.17200000000E+03 0.  1.
         -6    1    1    2    0  503 -0.11098297230E+03  0.85723047941E+02 -0.72369586071E+02  0.23342454472E+03  0.17200000000E+03 0.  1.
</event>
<event>
 4    1  0.4539494E+000  0.1774289E+03  0.7818608E-02  0.1170315E+00
         21   -1    0    0  501  502  0.00000000000E+00  0.00000000000E+00  0.45855130824E+02  0.45855130824E+02  0.00000000000E+00 0.  1.
         21   -1    0    0  502  503 -0.00000000000E+00 -0.00000000000E+00 -0.80105725987E+03  0.80105725987E+03  0.00000000000E+00 0.  1.
          6    1    1    2  501    0  0.26698671683E+02  0.34412118452E+02 -0.21748775869E+03  0.28068120376E+03  0.17200000000E+03 0.  1.
         -6    1    1    2    0  503 -0.26698671683E+02 -0.34412118452E+02 -0.53771437036E+03  0.56623118694E+03  0.17200000000E+03 0.  1.
</event>
<event>
 4    1  0.4539494E+000  0.2177710E+03  0.7818608E-02  0.1135556E+00
         21   -1    0    0  503  502  0.00000000000E+00  0.00000000000E+00  0.37015966546E+03  0.37015966546E+03  0.00000000000E+00 0. -1.
         21   -1    0    0  501  503 -0.00000000000E+00 -0.00000000000E+00 -0.12849446943E+03  0.12849446943E+03  0.00000000000E+00 0. -1.
          6    1    1    2  501    0 -0.20564602496E+02  0.13197456493E+03  0.13432467595E+03  0.25586579927E+03  0.17200000000E+03 0. -1.
         -6    1    1    2    0  502  0.20564602496E+02 -0.13197456493E+03  0.10734052008E+03  0.24278833562E+03  0.17200000000E+03 0. -1.
</event>
<event>
 4    1  0.4539494E+000  0.1726177E+03  0.7818608E-02  0.1175145E+00
         21   -1    0    0  503  502  0.00000000000E+00  0.00000000000E+00  0.32189788325E+03  0.32189788325E+03  0.00000000000E+00 0. -1.
         21   -1    0    0  501  503 -0.00000000000E+00 -0.00000000000E+00 -0.98138174451E+02  0.98138174451E+02  0.00000000000E+00 0. -1.
          6    1    1    2  501    0  0.12638861507E+02  0.72880108284E+01  0.61836880869E+02  0.18335936234E+03  0.17200000000E+03 0. -1.
         -6    1    1    2    0  502 -0.12638861507E+02 -0.72880108284E+01  0.16192282793E+03  0.23667669536E+03  0.17200000000E+03 0. -1.
</event>
<event>
 4    1  0.4539494E+000  0.1805838E+03  0.7818608E-02  0.1167239E+00
         21   -1    0    0  501  502  0.00000000000E+00  0.00000000000E+00  0.36224388338E+02  0.36224388338E+02  0.00000000000E+00 0. -1.
         21   -1    0    0  502  503 -0.00000000000E+00 -0.00000000000E+00 -0.96444647838E+03  0.96444647838E+03  0.00000000000E+00 0. -1.
          6    1    1    2  501    0  0.33139445805E+02  0.43912181526E+02 -0.33501148416E+03  0.38058270727E+03  0.17200000000E+03 0. -1.
         -6    1    1    2    0  503 -0.33139445805E+02 -0.43912181526E+02 -0.59321060588E+03  0.62008815945E+03  0.17200000000E+03 0. -1.
</event>
<event>
 4    1  0.4539494E+000  0.1936650E+03  0.7818608E-02  0.1155197E+00
         21   -1    0    0  501  502  0.00000000000E+00  0.00000000000E+00  0.84822987107E+03  0.84822987107E+03  0.00000000000E+00 0. -1.
         21   -1    0    0  502  503 -0.00000000000E+00 -0.00000000000E+00 -0.61348331079E+02  0.61348331079E+02  0.00000000000E+00 0. -1.
          6    1    1    2  501    0  0.67681474339E+02  0.57804525811E+02  0.63376897887E+03  0.66269847122E+03  0.17200000000E+03 0. -1.
         -6    1    1    2    0  503 -0.67681474339E+02 -0.57804525811E+02  0.15311256112E+03  0.24687973094E+03  0.17200000000E+03 0. -1.
</event>
<event>
 4    1  0.4539494E+000  0.2481808E+03  0.7818608E-02  0.1114460E+00
         21   -1    0    0  501  502  0.00000000000E+00  0.00000000000E+00  0.15228782494E+04  0.15228782494E+04  0.00000000000E+00 0. -1.
         21   -1    0    0  502  503 -0.00000000000E+00 -0.00000000000E+00 -0.80912344519E+02  0.80912344519E+02  0.00000000000E+00 0. -1.
          6    1    1    2  501    0 -0.15851398109E+03  0.82964064583E+02  0.12880826683E+04  0.13117738671E+04  0.17200000000E+03 0. -1.
         -6    1    1    2    0  503  0.15851398109E+03 -0.82964064583E+02  0.15388323663E+03  0.29201672680E+03  0.17200000000E+03 0. -1.
</event>
<event>
 4    1  0.4539494E+000  0.2427619E+03  0.7818608E-02  0.1117966E+00
         21   -1    0    0  501  502  0.00000000000E+00  0.00000000000E+00  0.26033251596E+03  0.26033251596E+03  0.00000000000E+00 0.  1.
         21   -1    0    0  502  503 -0.00000000000E+00 -0.00000000000E+00 -0.39215001301E+03  0.39215001301E+03  0.00000000000E+00 0.  1.
          6    1    1    2  501    0 -0.15428611398E+03 -0.74465826408E+02  0.14620525283E+03  0.28338902630E+03  0.17200000000E+03 0.  1.
         -6    1    1    2    0  503  0.15428611398E+03  0.74465826408E+02 -0.27802274987E+03  0.36909350267E+03  0.17200000000E+03 0.  1.
</event>
<event>
 4    1  0.4539494E+000  0.1947519E+03  0.7818608E-02  0.1154244E+00
         21   -1    0    0  503  502  0.00000000000E+00  0.00000000000E+00  0.11392067006E+03  0.11392067006E+03  0.00000000000E+00 0. -1.
         21   -1    0    0  501  503 -0.00000000000E+00 -0.00000000000E+00 -0.59516735939E+03  0.59516735939E+03  0.00000000000E+00 0. -1.
          6    1    1    2  501    0 -0.67564189615E+02  0.61476539545E+02 -0.47596184073E+03  0.51426448299E+03  0.17200000000E+03 0. -1.
         -6    1    1    2    0  502  0.67564189615E+02 -0.61476539545E+02 -0.52848485947E+01  0.19482354647E+03  0.17200000000E+03 0. -1.
</event>
<event>
 4    1  0.4539494E+000  0.1852267E+03  0.7818608E-02  0.1162838E+00
         21   -1    0    0  503  502  0.00000000000E+00  0.00000000000E+00  0.13264144998E+04  0.13264144998E+04  0.00000000000E+00 0. -1.
         21   -1    0    0  501  503 -0.00000000000E+00 -0.00000000000E+00 -0.61710692860E+02  0.61710692860E+02  0.00000000000E+00 0. -1.
          6    1    1    2  501    0  0.21765603469E+02 -0.65201283607E+02  0.11613221754E+04  0.11760009116E+04  0.17200000000E+03 0. -1.
         -6    1    1    2    0  502 -0.21765603469E+02  0.65201283607E+02  0.10338163145E+03  0.21212428102E+03  0.17200000000E+03 0. -1.
</event>
<event>
 4    1  0.4539494E+000  0.1843410E+03  0.7818608E-02  0.1163667E+00
         21   -1    0    0  501  502  0.00000000000E+00  0.00000000000E+00  0.17732589390E+03  0.17732589390E+03  0.00000000000E+00 0. -1.
         21   -1    0    0  502  503 -0.00000000000E+00 -0.00000000000E+00 -0.51614188384E+03  0.51614188384E+03  0.00000000000E+00 0.  1.
          6    1    1    2  501    0  0.42017662670E+02  0.51304212308E+02  0.10552357216E+03  0.21240722789E+03  0.17200000000E+03 0. -1.
         -6    1    1    2    0  503 -0.42017662670E+02 -0.51304212308E+02 -0.44433956210E+03  0.48106054985E+03  0.17200000000E+03 0.  1.
</event>
<event>
 4    1  0.4539494E+000  0.1861590E+03  0.7818608E-02  0.1161972E+00
         21   -1    0    0  503  502  0.00000000000E+00  0.00000000000E+00  0.17110224493E+03  0.17110224493E+03  0.00000000000E+00 0.  1.
         21   -1    0    0  501  503 -0.00000000000E+00 -0.00000000000E+00 -0.22362394238E+03  0.22362394238E+03  0.00000000000E+00 0.  1.
          6    1    1    2  501    0 -0.13649485760E+02  0.69891873218E+02 -0.86861132197E+02  0.20542648001E+03  0.17200000000E+03 0.  1.
         -6    1    1    2    0  502  0.13649485760E+02 -0.69891873218E+02  0.34339434747E+02  0.18929970730E+03  0.17200000000E+03 0.  1.
</event>
<event>
 4    1  0.4539494E+000  0.1888401E+03  0.7818608E-02  0.1159512E+00
         21   -1    0    0  503  502  0.00000000000E+00  0.00000000000E+00  0.33014152480E+02  0.33014152480E+02  0.00000000000E+00 0. -1.
         21   -1    0    0  501  503 -0.00000000000E+00 -0.00000000000E+00 -0.11411768021E+04  0.11411768021E+04  0.00000000000E+00 0. -1.
          6    1    1    2  501    0 -0.77028204313E+02  0.11968651018E+02 -0.68983581224E+03  0.71521607974E+03  0.17200000000E+03 0. -1.
         -6    1    1    2    0  502  0.77028204313E+02 -0.11968651018E+02 -0.41832683741E+03  0.45897487487E+03  0.17200000000E+03 0. -1.
</event>
<event>
 4    1  0.4539494E+000  0.1889014E+03  0.7818608E-02  0.1159456E+00
         21   -1    0    0  503  502  0.00000000000E+00  0.00000000000E+00  0.40916098105E+03  0.40916098105E+03  0.00000000000E+00 0.  1.
         21   -1    0    0  501  503 -0.00000000000E+00 -0.00000000000E+00 -0.17698806376E+03  0.17698806376E+03  0.00000000000E+00 0.  1.
          6    1    1    2  501    0 -0.63607560773E+02 -0.45319083362E+02 -0.92644272542E+02  0.21039653595E+03  0.17200000000E+03 0.  1.
         -6    1    1    2    0  502  0.63607560773E+02  0.45319083362E+02  0.32481718983E+03  0.37575250886E+03  0.17200000000E+03 0.  1.
</event>
<event>
 4    1  0.4539494E+000  0.1999670E+03  0.7818608E-02  0.1149767E+00
         21   -1    0    0  501  502  0.00000000000E+00  0.00000000000E+00  0.27256874427E+03  0.27256874427E+03  0.00000000000E+00 0.  1.
         21   -1    0    0  502  503 -0.00000000000E+00 -0.00000000000E+00 -0.14676321153E+03  0.14676321153E+03  0.00000000000E+00 0.  1.
          6    1    1    2  501    0  0.10143604824E+03  0.10654157693E+02  0.67132626810E+02  0.21093499601E+03  0.17200000000E+03 0. -1.
         -6    1    1    2    0  503 -0.10143604824E+03 -0.10654157693E+02  0.58672905928E+02  0.20839695979E+03  0.17200000000E+03 0. -1.
</event>
<event>
 4    1  0.4539494E+000  0.2696105E+03  0.7818608E-02  0.1101503E+00
         21   -1    0    0  501  502  0.00000000000E+00  0.00000000000E+00  0.63195261330E+03  0.63195261330E+03  0.00000000000E+00 0. -1.
         21   -1    0    0  502  503 -0.00000000000E+00 -0.00000000000E+00 -0.15034081552E+03  0.15034081552E+03  0.00000000000E+00 0.  1.
          6    1    1    2  501    0 -0.19780769054E+03 -0.63070745914E+02  0.51226480532E+02  0.27443387862E+03  0.17200000000E+03 0.  1.
         -6    1    1    2    0  503  0.19780769054E+03  0.63070745914E+02  0.43038531725E+03  0.50785955020E+03  0.17200000000E+03 0. -1.
</event>
<event>
 4    1  0.4539494E+000  0.2265675E+03  0.7818608E-02  0.1129079E+00
         21   -1    0    0  503  502  0.00000000000E+00  0.00000000000E+00  0.13310498500E+04  0.13310498500E+04  0.00000000000E+00 0. -1.
         21   -1    0    0  501  503 -0.00000000000E+00 -0.00000000000E+00 -0.41723549135E+02  0.41723549135E+02  0.00000000000E+00 0. -1.
          6    1    1    2  501    0  0.13864381701E+03  0.50266467976E+02  0.45583090014E+03  0.50903303951E+03  0.17200000000E+03 0. -1.
         -6    1    1    2    0  502 -0.13864381701E+03 -0.50266467976E+02  0.83349540070E+03  0.86374035959E+03  0.17200000000E+03 0. -1.
</event>
<event>
 4    1  0.4539494E+000  0.2831574E+03  0.7818608E-02  0.1093977E+00
         21   -1    0    0  501  502  0.00000000000E+00  0.00000000000E+00  0.74508199407E+03  0.74508199407E+03  0.00000000000E+00 0.  1.
         21   -1    0    0  502  503 -0.00000000000E+00 -0.00000000000E+00 -0.17435097107E+03  0.17435097107E+03  0.00000000000E+00 0.  1.
          6    1    1    2  501    0 -0.10503023687E+03 -0.19890396197E+03  0.56979508307E+03  0.63627397671E+03  0.17200000000E+03 0.  1.
         -6    1    1    2    0  503  0.10503023687E+03  0.19890396197E+03  0.93593992844E+00  0.28315898843E+03  0.17200000000E+03 0.  1.
</event>
<event>
 4    1  0.4539494E+000  0.1825469E+03  0.7818608E-02  0.1165361E+00
         21   -1    0    0  501  502  0.00000000000E+00  0.00000000000E+00  0.12292319498E+03  0.12292319498E+03  0.00000000000E+00 0. -1.
         21   -1    0    0  502  503 -0.00000000000E+00 -0.00000000000E+00 -0.38122634299E+03  0.38122634299E+03  0.00000000000E+00 0. -1.
          6    1    1    2  501    0 -0.61132832263E+02  0.14682715867E+01  0.63365301690E+01  0.18265686578E+03  0.17200000000E+03 0. -1.
         -6    1    1    2    0  503  0.61132832263E+02 -0.14682715867E+01 -0.26463967818E+03  0.32149267218E+03  0.17200000000E+03 0. -1.
</event>
<event>
 4    1  0.4539494E+000  0.2008530E+03  0.7818608E-02  0.1149021E+00
         21   -1    0    0  501  502  0.00000000000E+00  0.00000000000E+00  0.42380384606E+03  0.42380384606E+03  0.00000000000E+00 0. -1.
         21   -1    0    0  502  503 -0.00000000000E+00 -0.00000000000E+00 -0.11420260638E+03  0.11420260638E+03  0.00000000000E+00 0. -1.
          6    1    1    2  501    0 -0.86378405257E+02 -0.57416844183E+02  0.26455942533E+03  0.33216503793E+03  0.17200000000E+03 0. -1.
         -6    1    1    2    0  503  0.86378405257E+02  0.57416844183E+02  0.45041814350E+02  0.20584141452E+03  0.17200000000E+03 0. -1.
</event>
<event>
 4    1  0.4539494E+000  0.3647860E+03  0.7818608E-02  0.1056705E+00
         21   -1    0    0  501  502  0.00000000000E+00  0.00000000000E+00  0.14231402115E+03  0.14231402115E+03  0.00000000000E+00 0.  1.
         21   -1    0    0  502  503 -0.00000000000E+00 -0.00000000000E+00 -0.10276754388E+04  0.10276754388E+04  0.00000000000E+00 0. -1.
          6    1    1    2  501    0  0.22908393684E+03  0.22584365368E+03 -0.26704180362E+03  0.45208420775E+03  0.17200000000E+03 0. -1.
         -6    1    1    2    0  503 -0.22908393684E+03 -0.22584365368E+03 -0.61831961406E+03  0.71790525222E+03  0.17200000000E+03 0.  1.
</event>
<event>
 4    1  0.4539494E+000  0.1791354E+03  0.7818608E-02  0.1168642E+00
         21   -1    0    0  501  502  0.00000000000E+00  0.00000000000E+00  0.45684953594E+02  0.45684953594E+02  0.00000000000E+00 0.  1.
         21   -1    0    0  502  503 -0.00000000000E+00 -0.00000000000E+00 -0.98156750842E+03  0.98156750842E+03  0.00000000000E+00 0.  1.
          6    1    1    2  501    0 -0.11882961700E+02 -0.48623847152E+02 -0.19402791982E+03  0.26407634684E+03  0.17200000000E+03 0.  1.
         -6    1    1    2    0  503  0.11882961700E+02  0.48623847152E+02 -0.74185463501E+03  0.76317611518E+03  0.17200000000E+03 0.  1.
</event>
<event>
 4    1  0.4539494E+000  0.1725337E+03  0.7818608E-02  0.1175231E+00
         21   -1    0    0  503  502  0.00000000000E+00  0.00000000000E+00  0.37466505211E+02  0.37466505211E+02  0.00000000000E+00 0. -1.
         21   -1    0    0  501  503 -0.00000000000E+00 -0.00000000000E+00 -0.22559510206E+04  0.22559510206E+04  0.00000000000E+00 0. -1.
          6    1    1    2  501    0  0.12770826950E+02  0.45576677335E+01 -0.20321909177E+04  0.20395018490E+04  0.17200000000E+03 0. -1.
         -6    1    1    2    0  502 -0.12770826950E+02 -0.45576677335E+01 -0.18629359768E+03  0.25391567674E+03  0.17200000000E+03 0. -1.
</event>
<event>
 4    1  0.4539494E+000  0.2244560E+03  0.7818608E-02  0.1130604E+00
         21   -1    0    0  503  502  0.00000000000E+00  0.00000000000E+00  0.12703078693E+03  0.12703078693E+03  0.00000000000E+00 0.  1.
         21   -1    0    0  501  503 -0.00000000000E+00 -0.00000000000E+00 -0.42973929588E+03  0.42973929588E+03  0.00000000000E+00 0. -1.
          6    1    1    2  501    0  0.27671561733E+02 -0.14153021626E+03 -0.22865958876E+03  0.32041492627E+03  0.17200000000E+03 0.  1.
         -6    1    1    2    0  502 -0.27671561733E+02  0.14153021626E+03 -0.74048920191E+02  0.23635515654E+03  0.17200000000E+03 0. -1.
</event>
<event>
 4    1  0.4539494E+000  0.2053438E+03  0.7818608E-02  0.1145307E+00
         21   -1    0    0  503  502  0.00000000000E+00  0.00000000000E+00  0.56705449140E+03  0.56705449140E+03  0.00000000000E+00 0.  1.
         21   -1    0    0  501  503 -0.00000000000E+00 -0.00000000000E+00 -0.12104810998E+03  0.12104810998E+03  0.00000000000E+00 0. -1.
          6    1    1    2  501    0  0.93004924395E+02  0.62706813969E+02  0.93308740198E+01  0.20555565108E+03  0.17200000000E+03 0.  1.
         -6    1    1    2    0  502 -0.93004924395E+02 -0.62706813969E+02  0.43667550741E+03  0.48254695031E+03  0.17200000000E+03 0.  1.
</event>
<event>
 4    1  0.4539494E+000  0.1845926E+03  0.7818608E-02  0.1163431E+00
         21   -1    0    0  501  502  0.00000000000E+00  0.00000000000E+00  0.33946878442E+03  0.33946878442E+03  0.00000000000E+00 0. -1.
         21   -1    0    0  502  503 -0.00000000000E+00 -0.00000000000E+00 -0.36281567050E+03  0.36281567050E+03  0.00000000000E+00 0. -1.
          6    1    1    2  501    0  0.58352434454E+01  0.66756090166E+02  0.28697139340E+03  0.34121401828E+03  0.17200000000E+03 0. -1.
         -6    1    1    2    0  503 -0.58352434454E+01 -0.66756090166E+02 -0.31031827948E+03  0.36107043664E+03  0.17200000000E+03 0. -1.
</event>
<event>
 4    1  0.4539494E+000  0.2154418E+03  0.7818608E-02  0.1137328E+00
         21   -1    0    0  501  502  0.00000000000E+00  0.00000000000E+00  0.13315490736E+03  0.13315490736E+03  0.00000000000E+00 0. -1.
         21   -1    0    0  502  503 -0.00000000000E+00 -0.00000000000E+00 -0.38416167525E+03  0.38416167525E+03  0.00000000000E+00 0.  1.
          6    1    1    2  501    0 -0.61988888584E+02  0.11396732598E+03 -0.46784137577E+02  0.22046298834E+03  0.17200000000E+03 0. -1.
         -6    1    1    2    0  503  0.61988888584E+02 -0.11396732598E+03 -0.20422263032E+03  0.29685359427E+03  0.17200000000E+03 0.  1.
</event>
<event>
 4    1  0.4539494E+000  0.2161254E+03  0.7818608E-02  0.1136805E+00
         21   -1    0    0  501  502  0.00000000000E+00  0.00000000000E+00  0.94078133870E+02  0.94078133870E+02  0.00000000000E+00 0.  1.
         21   -1    0    0  502  503 -0.00000000000E+00 -0.00000000000E+00 -0.57704003412E+03  0.57704003412E+03  0.00000000000E+00 0.  1.
          6    1    1    2  501    0 -0.10677980396E+03 -0.75658801326E+02 -0.11612041623E+03  0.24534492417E+03  0.17200000000E+03 0.  1.
         -6    1    1    2    0  503  0.10677980396E+03  0.75658801326E+02 -0.36684148402E+03  0.42577324381E+03  0.17200000000E+03 0.  1.
</event>
<event>
 4    1  0.4539494E+000  0.1957733E+03  0.7818608E-02  0.1153355E+00
         21   -1    0    0  501  502  0.00000000000E+00  0.00000000000E+00  0.22066493427E+03  0.22066493427E+03  0.00000000000E+00 0. -1.
         21   -1    0    0  502  503 -0.00000000000E+00 -0.00000000000E+00 -0.22961758176E+03  0.22961758176E+03  0.00000000000E+00 0. -1.
          6    1    1    2  501    0 -0.62645040908E+02 -0.69417514237E+02  0.10663729689E+03  0.22293206481E+03  0.17200000000E+03 0. -1.
         -6    1    1    2    0  503  0.62645040908E+02  0.69417514237E+02 -0.11558994438E+03  0.22735045123E+03  0.17200000000E+03 0. -1.
</event>
<event>
 4    1  0.4539494E+000  0.2097633E+03  0.7818608E-02  0.1141754E+00
         21   -1    0    0  501  502  0.00000000000E+00  0.00000000000E+00  0.11763263250E+04  0.11763263250E+04  0.00000000000E+00 0. -1.
         21   -1    0    0  502  503 -0.00000000000E+00 -0.00000000000E+00 -0.38847858502E+02  0.38847858502E+02  0.00000000000E+00 0. -1.
          6    1    1    2  501    0  0.38798420276E+02  0.11362801473E+03  0.45165004742E+03  0.49798434562E+03  0.17200000000E+03 0. -1.
         -6    1    1    2    0  503 -0.38798420276E+02 -0.11362801473E+03  0.68582841908E+03  0.71718983788E+03  0.17200000000E+03 0. -1.
</event>
<event>
 4    1  0.4539494E+000  0.2127466E+03  0.7818608E-02  0.1139409E+00
         21   -1    0    0  501  502  0.00000000000E+00  0.00000000000E+00  0.12367359298E+03  0.12367359298E+03  0.00000000000E+00 0. -1.
         21   -1    0    0  502  503 -0.00000000000E+00 -0.00000000000E+00 -0.36792028809E+03  0.36792028809E+03  0.00000000000E+00 0. -1.
          6    1    1    2  501    0 -0.94242312855E+02 -0.82434796013E+02 -0.14000850985E+03  0.25468312068E+03  0.17200000000E+03 0. -1.
         -6    1    1    2    0  503  0.94242312855E+02  0.82434796013E+02 -0.10423818526E+03  0.23691076040E+03  0.17200000000E+03 0. -1.
</event>
<event>
 4    1  0.4539494E+000  0.1956721E+03  0.7818608E-02  0.1153443E+00
         21   -1    0    0  501  502  0.00000000000E+00  0.00000000000E+00  0.33732130169E+03  0.33732130169E+03  0.00000000000E+00 0.  1.
         21   -1    0    0  502  503 -0.00000000000E+00 -0.00000000000E+00 -0.12077235778E+03  0.12077235778E+03  0.00000000000E+00 0.  1.
          6    1    1    2  501    0 -0.93156378399E+02  0.50460744470E+01  0.16446148260E+03  0.25560741962E+03  0.17200000000E+03 0.  1.
         -6    1    1    2    0  503  0.93156378399E+02 -0.50460744470E+01  0.52087461304E+02  0.20248623985E+03  0.17200000000E+03 0.  1.
</event>
<event>
 4    1  0.4539494E+000  0.1878903E+03  0.7818608E-02  0.1160378E+00
         21   -1    0    0  501  502  0.00000000000E+00  0.00000000000E+00  0.58756888592E+03  0.58756888592E+03  0.00000000000E+00 0. -1.
         21   -1    0    0  502  503 -0.00000000000E+00 -0.00000000000E+00 -0.14226503653E+03  0.14226503653E+03  0.00000000000E+00 0. -1.
          6    1    1    2  501    0  0.51904989880E+02  0.54996747779E+02  0.50000564720E+03  0.53414269392E+03  0.17200000000E+03 0. -1.
         -6    1    1    2    0  503 -0.51904989880E+02 -0.54996747779E+02 -0.54701797811E+02  0.19569122853E+03  0.17200000000E+03 0. -1.
</event>
<event>
 4    1  0.4539494E+000  0.2055914E+03  0.7818608E-02  0.1145105E+00
         21   -1    0    0  503  502  0.00000000000E+00  0.00000000000E+00  0.10463914651E+04  0.10463914651E+04  0.00000000000E+00 0. -1.
         21   -1    0    0  501  503 -0.00000000000E+00 -0.00000000000E+00 -0.88774892049E+02  0.88774892049E+02  0.00000000000E+00 0. -1.
          6    1    1    2  501    0  0.50990774812E+02 -0.10041794833E+03  0.59800723954E+02  0.21411200351E+03  0.17200000000E+03 0. -1.
         -6    1    1    2    0  502 -0.50990774812E+02  0.10041794833E+03  0.89781584909E+03  0.92105435363E+03  0.17200000000E+03 0. -1.
</event>
<event>
 4    1  0.4539494E+000  0.2431264E+03  0.7818608E-02  0.1117727E+00
         21   -1    0    0  501  502  0.00000000000E+00  0.00000000000E+00  0.34005881035E+03  0.34005881035E+03  0.00000000000E+00 0. -1.
         21   -1    0    0  502  503 -0.00000000000E+00 -0.00000000000E+00 -0.33660782891E+03  0.33660782891E+03  0.00000000000E+00 0.  1.
          6    1    1    2  501    0 -0.16388238950E+03  0.51662531166E+02  0.23700711553E+03  0.33953324952E+03  0.17200000000E+03 0. -1.
         -6    1    1    2    0  503  0.16388238950E+03 -0.51662531166E+02 -0.23355613409E+03  0.33713338975E+03  0.17200000000E+03 0.  1.
</event>
<event>
 4    1  0.4539494E+000  0.1786618E+03  0.7818608E-02  0.1169104E+00
         21   -1    0    0  503  502  0.00000000000E+00  0.00000000000E+00  0.15265922073E+04  0.15265922073E+04  0.00000000000E+00 0. -1.
         21   -1    0    0  501  503 -0.00000000000E+00 -0.00000000000E+00 -0.36017948766E+02  0.36017948766E+02  0.00000000000E+00 0. -1.
          6    1    1    2  501    0 -0.35788598769E+02 -0.32484248559E+02  0.23926063235E+03  0.29860626316E+03  0.17200000000E+03 0. -1.
         -6    1    1    2    0  502  0.35788598769E+02  0.32484248559E+02  0.12513136262E+04  0.12640038929E+04  0.17200000000E+03 0. -1.
</event>
<event>
 4    1  0.4539494E+000  0.1794931E+03  0.7818608E-02  0.1168295E+00
         21   -1    0    0  503  502  0.00000000000E+00  0.00000000000E+00  0.97492116444E+02  0.97492116444E+02  0.00000000000E+00 0.  1.
         21   -1    0    0  501  503 -0.00000000000E+00 -0.00000000000E+00 -0.56723655835E+03  0.56723655835E+03  0.00000000000E+00 0. -1.
          6    1    1    2  501    0 -0.12396677550E+02  0.49800634375E+02 -0.44960414770E+03  0.48410915135E+03  0.17200000000E+03 0. -1.
         -6    1    1    2    0  502  0.12396677550E+02 -0.49800634375E+02 -0.20140294214E+02  0.18061952344E+03  0.17200000000E+03 0.  1.
</event>
<event>
 4    1  0.4539494E+000  0.1918659E+03  0.7818608E-02  0.1156789E+00
         21   -1    0    0  503  502  0.00000000000E+00  0.00000000000E+00  0.93300384018E+03  0.93300384018E+03  0.00000000000E+00 0.  1.
         21   -1    0    0  501  503 -0.00000000000E+00 -0.00000000000E+00 -0.43369293108E+02  0.43369293108E+02  0.00000000000E+00 0. -1.
          6    1    1    2  501    0  0.28731979897E+01 -0.84972123495E+02  0.29817109591E+03  0.35456807452E+03  0.17200000000E+03 0. -1.
         -6    1    1    2    0  502 -0.28731979897E+01  0.84972123495E+02  0.59146345116E+03  0.62180505876E+03  0.17200000000E+03 0.  1.
</event>
<event>
 4    1  0.4539494E+000  0.2051958E+03  0.7818608E-02  0.1145428E+00
         21   -1    0    0  501  502  0.00000000000E+00  0.00000000000E+00  0.17871009687E+03  0.17871009687E+03  0.00000000000E+00 0.  1.
         21   -1    0    0  502  503 -0.00000000000E+00 -0.00000000000E+00 -0.25879663276E+03  0.25879663276E+03  0.00000000000E+00 0.  1.
          6    1    1    2  501    0  0.22488736221E+02 -0.10961556855E+03  0.25439063072E+02  0.20676668507E+03  0.17200000000E+03 0.  1.
         -6    1    1    2    0  503 -0.22488736221E+02  0.10961556855E+03 -0.10552559896E+03  0.23074004456E+03  0.17200000000E+03 0.  1.
</event>
<event>
 4    1  0.4539494E+000  0.2070938E+03  0.7818608E-02  0.1143888E+00
         21   -1    0    0  503  502  0.00000000000E+00  0.00000000000E+00  0.96466163200E+02  0.96466163200E+02  0.00000000000E+00 0. -1.
         21   -1    0    0  501  503 -0.00000000000E+00 -0.00000000000E+00 -0.45524233101E+03  0.45524233101E+03  0.00000000000E+00 0.  1.
          6    1    1    2  501    0 -0.55585204928E+02  0.10106495619E+03 -0.22158604667E+03  0.30329559254E+03  0.17200000000E+03 0.  1.
         -6    1    1    2    0  502  0.55585204928E+02 -0.10106495619E+03 -0.13719012114E+03  0.24841290167E+03  0.17200000000E+03 0. -1.
</event>
<event>
 4    1  0.4539494E+000  0.1996262E+03  0.7818608E-02  0.1150055E+00
         21   -1    0    0  503  502  0.00000000000E+00  0.00000000000E+00  0.21691577418E+03  0.21691577418E+03  0.00000000000E+00 0. -1.
         21   -1    0    0  501  503 -0.00000000000E+00 -0.00000000000E+00 -0.41994122153E+03  0.41994122153E+03  0.00000000000E+00 0. -1.
          6    1    1    2  501    0 -0.93750669779E+02 -0.38437415788E+02 -0.34033892659E+03  0.39456458023E+03  0.17200000000E+03 0. -1.
         -6    1    1    2    0  502  0.93750669779E+02  0.38437415788E+02  0.13731347924E+03  0.24229241548E+03  0.17200000000E+03 0. -1.
</event>
<event>
 4    1  0.4539494E+000  0.2270065E+03  0.7818608E-02  0.1128765E+00
         21   -1    0    0  503  502  0.00000000000E+00  0.00000000000E+00  0.31629106467E+03  0.31629106467E+03  0.00000000000E+00 0. -1.
         21   -1    0    0  501  503 -0.00000000000E+00 -0.00000000000E+00 -0.16411906095E+03  0.16411906095E+03  0.00000000000E+00 0.  1.
          6    1    1    2  501    0 -0.50735445464E+01 -0.14806156042E+03  0.55603873402E+02  0.23371725924E+03  0.17200000000E+03 0.  1.
         -6    1    1    2    0  502  0.50735445464E+01  0.14806156042E+03  0.96568130319E+02  0.24669286638E+03  0.17200000000E+03 0. -1.
</event>
<event>
 4    1  0.4539494E+000  0.1775997E+03  0.7818608E-02  0.1170146E+00
         21   -1    0    0  503  502  0.00000000000E+00  0.00000000000E+00  0.89014933499E+02  0.89014933499E+02  0.00000000000E+00 0.  1.
         21   -1    0    0  501  503 -0.00000000000E+00 -0.00000000000E+00 -0.64660192621E+03  0.64660192621E+03  0.00000000000E+00 0.  1.
          6    1    1    2  501    0 -0.43970933161E+02  0.49221731268E+01 -0.52607310671E+03  0.55524281567E+03  0.17200000000E+03 0.  1.
         -6    1    1    2    0  502  0.43970933161E+02 -0.49221731268E+01 -0.31513886001E+02  0.18037404404E+03  0.17200000000E+03 0.  1.
</event>
<event>
 4    1  0.4539494E+000  0.2821313E+03  0.7818608E-02  0.1094531E+00
         21   -1    0    0  503  502  0.00000000000E+00  0.00000000000E+00  0.32974071954E+03  0.32974071954E+03  0.00000000000E+00 0. -1.
         21   -1    0    0  501  503 -0.00000000000E+00 -0.00000000000E+00 -0.27607399043E+03  0.27607399043E+03  0.00000000000E+00 0. -1.
          6    1    1    2  501    0 -0.13467538885E+03  0.17854026779E+03  0.13418881373E+03  0.31241754963E+03  0.17200000000E+03 0. -1.
         -6    1    1    2    0  502  0.13467538885E+03 -0.17854026779E+03 -0.80522084609E+02  0.29339716034E+03  0.17200000000E+03 0. -1.
</event>
<event>
 4    1  0.4539494E+000  0.1790840E+03  0.7818608E-02  0.1168692E+00
         21   -1    0    0  501  502  0.00000000000E+00  0.00000000000E+00  0.35860958326E+02  0.35860958326E+02  0.00000000000E+00 0.  1.
         21   -1    0    0  502  503 -0.00000000000E+00 -0.00000000000E+00 -0.10346186619E+04  0.10346186619E+04  0.00000000000E+00 0.  1.
          6    1    1    2  501    0 -0.49829252561E+02 -0.20346967836E+01 -0.30227805566E+03  0.35134472721E+03  0.17200000000E+03 0.  1.
         -6    1    1    2    0  503  0.49829252561E+02  0.20346967836E+01 -0.69647964793E+03  0.71913489304E+03  0.17200000000E+03 0.  1.
</event>
<event>
 4    1  0.4539494E+000  0.1742750E+03  0.7818608E-02  0.1173462E+00
         21   -1    0    0  501  502  0.00000000000E+00  0.00000000000E+00  0.84814226588E+03  0.84814226588E+03  0.00000000000E+00 0. -1.
         21   -1    0    0  502  503 -0.00000000000E+00 -0.00000000000E+00 -0.41294802340E+02  0.41294802340E+02  0.00000000000E+00 0. -1.
          6    1    1    2  501    0  0.29558063000E+01  0.27911091776E+02  0.56550311161E+03  0.59174786445E+03  0.17200000000E+03 0. -1.
         -6    1    1    2    0  503 -0.29558063000E+01 -0.27911091776E+02  0.24134435193E+03  0.29768920377E+03  0.17200000000E+03 0. -1.
</event>
<event>
 4    1  0.4539494E+000  0.1810591E+03  0.7818608E-02  0.1166782E+00
         21   -1    0    0  503  502  0.00000000000E+00  0.00000000000E+00  0.61559282113E+02  0.61559282113E+02  0.00000000000E+00 0.  1.
         21   -1    0    0  501  503 -0.00000000000E+00 -0.00000000000E+00 -0.72683638948E+03  0.72683638948E+03  0.00000000000E+00 0.  1.
          6    1    1    2  501    0 -0.49805452027E+02  0.26792165762E+02 -0.12882403761E+03  0.22221169155E+03  0.17200000000E+03 0.  1.
         -6    1    1    2    0  502  0.49805452027E+02 -0.26792165762E+02 -0.53645306976E+03  0.56618398004E+03  0.17200000000E+03 0.  1.
</event>
<event>
 4    1  0.4539494E+000  0.2209748E+03  0.7818608E-02  0.1133158E+00
         21   -1    0    0  501  502  0.00000000000E+00  0.00000000000E+00  0.34946424525E+03  0.34946424525E+03  0.00000000000E+00 0. -1.
         21   -1    0    0  502  503 -0.00000000000E+00 -0.00000000000E+00 -0.36840058303E+03  0.36840058303E+03  0.00000000000E+00 0.  1.
          6    1    1    2  501    0  0.11976815154E+03  0.70010367203E+02  0.27331905690E+03  0.35147285600E+03  0.17200000000E+03 0. -1.
         -6    1    1    2    0  503 -0.11976815154E+03 -0.70010367203E+02 -0.29225539468E+03  0.36639197229E+03  0.17200000000E+03 0.  1.
</event>
<event>
 4    1  0.4539494E+000  0.2078005E+03  0.7818608E-02  0.1143320E+00
         21   -1    0    0  501  502  0.00000000000E+00  0.00000000000E+00  0.29768530731E+03  0.29768530731E+03  0.00000000000E+00 0.  1.
         21   -1    0    0  502  503 -0.00000000000E+00 -0.00000000000E+00 -0.14681143183E+03  0.14681143183E+03  0.00000000000E+00 0.  1.
          6    1    1    2  501    0  0.51197044188E+02  0.10476595647E+03  0.51134526218E+02  0.21399949238E+03  0.17200000000E+03 0.  1.
         -6    1    1    2    0  503 -0.51197044188E+02 -0.10476595647E+03  0.99739349262E+02  0.23049724675E+03  0.17200000000E+03 0.  1.
</event>
<event>
 4    1  0.4539494E+000  0.2059960E+03  0.7818608E-02  0.1144777E+00
         21   -1    0    0  503  502  0.00000000000E+00  0.00000000000E+00  0.20176687567E+04  0.20176687567E+04  0.00000000000E+00 0.  1.
         21   -1    0    0  501  503 -0.00000000000E+00 -0.00000000000E+00 -0.43781074357E+02  0.43781074357E+02  0.00000000000E+00 0.  1.
          6    1    1    2  501    0  0.97260549703E+02  0.58230090527E+02  0.24394634227E+03  0.31928698044E+03  0.17200000000E+03 0.  1.
         -6    1    1    2    0  502 -0.97260549703E+02 -0.58230090527E+02  0.17299413400E+04  0.17421628506E+04  0.17200000000E+03 0.  1.
</event>
<event>
 4    1  0.4539494E+000  0.1847880E+03  0.7818608E-02  0.1163248E+00
         21   -1    0    0  501  502  0.00000000000E+00  0.00000000000E+00  0.55335983696E+02  0.55335983696E+02  0.00000000000E+00 0. -1.
         21   -1    0    0  502  503 -0.00000000000E+00 -0.00000000000E+00 -0.62159225591E+03  0.62159225591E+03  0.00000000000E+00 0. -1.
          6    1    1    2  501    0 -0.33444239893E+02 -0.58686392245E+02 -0.25428382523E+03  0.31433560662E+03  0.17200000000E+03 0. -1.
         -6    1    1    2    0  503  0.33444239893E+02  0.58686392245E+02 -0.31197244699E+03  0.36259263299E+03  0.17200000000E+03 0. -1.
</event>
<event>
 4    1  0.4539494E+000  0.1844505E+03  0.7818608E-02  0.1163564E+00
         21   -1    0    0  501  502  0.00000000000E+00  0.00000000000E+00  0.93358336876E+02  0.93358336876E+02  0.00000000000E+00 0.  1.
         21   -1    0    0  502  503 -0.00000000000E+00 -0.00000000000E+00 -0.36559711783E+03  0.36559711783E+03  0.00000000000E+00 0. -1.
          6    1    1    2  501    0  0.14863827795E+02  0.64938781783E+02 -0.12311802768E+03  0.22176570406E+03  0.17200000000E+03 0. -1.
         -6    1    1    2    0  503 -0.14863827795E+02 -0.64938781783E+02 -0.14912075327E+03  0.23718975065E+03  0.17200000000E+03 0.  1.
</event>
<event>
 4    1  0.4539494E+000  0.2072740E+03  0.7818608E-02  0.1143743E+00
         21   -1    0    0  501  502  0.00000000000E+00  0.00000000000E+00  0.17499891693E+04  0.17499891693E+04  0.00000000000E+00 0.  1.
         21   -1    0    0  502  503 -0.00000000000E+00 -0.00000000000E+00 -0.45482226252E+02  0.45482226252E+02  0.00000000000E+00 0. -1.
          6    1    1    2  501    0 -0.68759442155E+01 -0.11546095289E+03  0.14612764950E+04  0.14759036232E+04  0.17200000000E+03 0.  1.
         -6    1    1    2    0  503  0.68759442155E+01  0.11546095289E+03  0.24323044810E+03  0.31956777237E+03  0.17200000000E+03 0. -1.
</event>
<event>
 4    1  0.4539494E+000  0.1925422E+03  0.7818608E-02  0.1156188E+00
         21   -1    0    0  503  502  0.00000000000E+00  0.00000000000E+00  0.21968519810E+02  0.21968519810E+02  0.00000000000E+00 0.  1.
         21   -1    0    0  501  503 -0.00000000000E+00 -0.00000000000E+00 -0.17156617225E+04  0.17156617225E+04  0.00000000000E+00 0.  1.
          6    1    1    2  501    0  0.73502799554E+02 -0.45671021041E+02 -0.95810200964E+03  0.97725736865E+03  0.17200000000E+03 0.  1.
         -6    1    1    2    0  502 -0.73502799554E+02  0.45671021041E+02 -0.73559119308E+03  0.76037287369E+03  0.17200000000E+03 0.  1.
</event>
<event>
 4    1  0.4539494E+000  0.2272881E+03  0.7818608E-02  0.1128563E+00
         21   -1    0    0  503  502  0.00000000000E+00  0.00000000000E+00  0.58819658583E+03  0.58819658583E+03  0.00000000000E+00 0.  1.
         21   -1    0    0  501  503 -0.00000000000E+00 -0.00000000000E+00 -0.12790575212E+03  0.12790575212E+03  0.00000000000E+00 0. -1.
          6    1    1    2  501    0  0.99413864446E+02 -0.11042085009E+03  0.29719430031E+02  0.22922287212E+03  0.17200000000E+03 0. -1.
         -6    1    1    2    0  502 -0.99413864446E+02  0.11042085009E+03  0.43057140368E+03  0.48687946583E+03  0.17200000000E+03 0.  1.
</event>
<event>
 4    1  0.4539494E+000  0.3239413E+03  0.7818608E-02  0.1073850E+00
         21   -1    0    0  501  502  0.00000000000E+00  0.00000000000E+00  0.13964919172E+04  0.13964919172E+04  0.00000000000E+00 0.  1.
         21   -1    0    0  502  503 -0.00000000000E+00 -0.00000000000E+00 -0.24536261067E+03  0.24536261067E+03  0.00000000000E+00 0.  1.
          6    1    1    2  501    0 -0.20462486951E+03  0.18298258625E+03  0.12593251879E+04  0.13003222266E+04  0.17200000000E+03 0.  1.
         -6    1    1    2    0  503  0.20462486951E+03 -0.18298258625E+03 -0.10819588134E+03  0.34153230131E+03  0.17200000000E+03 0.  1.
</event>
<event>
 4    1  0.4539494E+000  0.2483204E+03  0.7818608E-02  0.1114371E+00
         21   -1    0    0  501  502  0.00000000000E+00  0.00000000000E+00  0.51669495173E+03  0.51669495173E+03  0.00000000000E+00 0.  1.
         21   -1    0    0  502  503 -0.00000000000E+00 -0.00000000000E+00 -0.14460477006E+03  0.14460477006E+03  0.00000000000E+00 0.  1.
          6    1    1    2  501    0  0.16138543188E+03 -0.77677304209E+02  0.32425015887E+03  0.40841301001E+03  0.17200000000E+03 0.  1.
         -6    1    1    2    0  503 -0.16138543188E+03  0.77677304209E+02  0.47840022792E+02  0.25288671178E+03  0.17200000000E+03 0.  1.
</event>
<event>
 4    1  0.4539494E+000  0.2183040E+03  0.7818608E-02  0.1135154E+00
         21   -1    0    0  501  502  0.00000000000E+00  0.00000000000E+00  0.10975898056E+03  0.10975898056E+03  0.00000000000E+00 0. -1.
         21   -1    0    0  502  503 -0.00000000000E+00 -0.00000000000E+00 -0.72031938680E+03  0.72031938680E+03  0.00000000000E+00 0. -1.
          6    1    1    2  501    0 -0.65035901516E+02 -0.11765610038E+03 -0.43699808973E+02  0.22263490236E+03  0.17200000000E+03 0. -1.
         -6    1    1    2    0  503  0.65035901516E+02  0.11765610038E+03 -0.56686059727E+03  0.60744346500E+03  0.17200000000E+03 0. -1.
</event>
<event>
 4    1  0.4539494E+000  0.2388588E+03  0.7818608E-02  0.1120555E+00
         21   -1    0    0  503  502  0.00000000000E+00  0.00000000000E+00  0.79410106842E+02  0.79410106842E+02  0.00000000000E+00 0.  1.
         21   -1    0    0  501  503 -0.00000000000E+00 -0.00000000000E+00 -0.78158849842E+03  0.78158849842E+03  0.00000000000E+00 0. -1.
          6    1    1    2  501    0 -0.14074629364E+03  0.87521400186E+02 -0.22874787261E+03  0.33072511832E+03  0.17200000000E+03 0.  1.
         -6    1    1    2    0  502  0.14074629364E+03 -0.87521400186E+02 -0.47343051896E+03  0.53027348694E+03  0.17200000000E+03 0. -1.
</event>
<event>
 4    1  0.4539494E+000  0.2557092E+03  0.7818608E-02  0.1109749E+00
         21   -1    0    0  501  502  0.00000000000E+00  0.00000000000E+00  0.14779156098E+03  0.14779156098E+03  0.00000000000E+00 0. -1.
         21   -1    0    0  502  503 -0.00000000000E+00 -0.00000000000E+00 -0.65228716649E+03  0.65228716649E+03  0.00000000000E+00 0.  1.
          6    1    1    2  501    0  0.18767540994E+03  0.24106240299E+02 -0.47915431668E+03  0.54311695748E+03  0.17200000000E+03 0.  1.
         -6    1    1    2    0  503 -0.18767540994E+03 -0.24106240299E+02 -0.25341288839E+02  0.25696176999E+03  0.17200000000E+03 0. -1.
</event>
<event>
 4    1  0.4539494E+000  0.1769364E+03  0.7818608E-02  0.1170801E+00
         21   -1    0    0  503  502  0.00000000000E+00  0.00000000000E+00  0.81016107476E+02  0.81016107476E+02  0.00000000000E+00 0. -1.
         21   -1    0    0  501  503 -0.00000000000E+00 -0.00000000000E+00 -0.49140466597E+03  0.49140466597E+03  0.00000000000E+00 0. -1.
          6    1    1    2  501    0 -0.37209070048E+02  0.18384112113E+02 -0.33748287357E+03  0.38105272657E+03  0.17200000000E+03 0. -1.
         -6    1    1    2    0  502  0.37209070048E+02 -0.18384112113E+02 -0.72905684927E+02  0.19136804688E+03  0.17200000000E+03 0. -1.
</event>
<event>
 4    1  0.4539494E+000  0.2023452E+03  0.7818608E-02  0.1147775E+00
         21   -1    0    0  503  502  0.00000000000E+00  0.00000000000E+00  0.40249019642E+03  0.40249019642E+03  0.00000000000E+00 0. -1.
         21   -1    0    0  501  503 -0.00000000000E+00 -0.00000000000E+00 -0.12179775331E+03  0.12179775331E+03  0.00000000000E+00 0. -1.
          6    1    1    2  501    0  0.69253906101E+02 -0.81015291520E+02  0.33927858887E+02  0.20516988224E+03  0.17200000000E+03 0.  1.
         -6    1    1    2    0  502 -0.69253906101E+02  0.81015291520E+02  0.24676458423E+03  0.31911806749E+03  0.17200000000E+03 0.  1.
</event>
<event>
 4    1  0.4539494E+000  0.2051103E+03  0.7818608E-02  0.1145498E+00
         21   -1    0    0  501  502  0.00000000000E+00  0.00000000000E+00  0.27949365724E+03  0.27949365724E+03  0.00000000000E+00 0.  1.
         21   -1    0    0  502  503 -0.00000000000E+00 -0.00000000000E+00 -0.19469761474E+03  0.19469761474E+03  0.00000000000E+00 0.  1.
          6    1    1    2  501    0 -0.63826905843E+02  0.91718948573E+02  0.15533322888E+03  0.25729098591E+03  0.17200000000E+03 0.  1.
         -6    1    1    2    0  503  0.63826905843E+02 -0.91718948573E+02 -0.70537186375E+02  0.21690028607E+03  0.17200000000E+03 0.  1.
</event>
<event>
 4    1  0.4539494E+000  0.2367713E+03  0.7818608E-02  0.1121963E+00
         21   -1    0    0  503  502  0.00000000000E+00  0.00000000000E+00  0.59532901658E+03  0.59532901658E+03  0.00000000000E+00 0.  1.
         21   -1    0    0  501  503 -0.00000000000E+00 -0.00000000000E+00 -0.15619071078E+03  0.15619071078E+03  0.00000000000E+00 0.  1.
          6    1    1    2  501    0 -0.88822994957E+02  0.13633460101E+03 -0.17218959516E+02  0.23739658892E+03  0.17200000000E+03 0.  1.
         -6    1    1    2    0  502  0.88822994957E+02 -0.13633460101E+03  0.45635726532E+03  0.51412313843E+03  0.17200000000E+03 0.  1.
</event>
<event>
 4    1  0.4539494E+000  0.1864886E+03  0.7818608E-02  0.1161667E+00
         21   -1    0    0  501  502  0.00000000000E+00  0.00000000000E+00  0.54845400284E+02  0.54845400284E+02  0.00000000000E+00 0.  1.
         21   -1    0    0  502  503 -0.00000000000E+00 -0.00000000000E+00 -0.13392256594E+04  0.13392256594E+04  0.00000000000E+00 0.  1.
          6    1    1    2  501    0  0.67381112984E+02  0.25569210299E+02 -0.13641401571E+03  0.23105579972E+03  0.17200000000E+03 0.  1.
         -6    1    1    2    0  503 -0.67381112984E+02 -0.25569210299E+02 -0.11479662434E+04  0.11630152599E+04  0.17200000000E+03 0.  1.
</event>
<event>
 4    1  0.4539494E+000  0.2546152E+03  0.7818608E-02  0.1110422E+00
         21   -1    0    0  503  502  0.00000000000E+00  0.00000000000E+00  0.41028676200E+03  0.41028676200E+03  0.00000000000E+00 0. -1.
         21   -1    0    0  501  503 -0.00000000000E+00 -0.00000000000E+00 -0.15802300552E+03  0.15802300552E+03  0.00000000000E+00 0. -1.
          6    1    1    2  501    0 -0.92342956225E+01  0.18750903482E+03  0.12882801857E+03  0.28535165800E+03  0.17200000000E+03 0. -1.
         -6    1    1    2    0  502  0.92342956225E+01 -0.18750903482E+03  0.12343573791E+03  0.28295810952E+03  0.17200000000E+03 0. -1.
</event>
<event>
 4    1  0.4539494E+000  0.2453928E+03  0.7818608E-02  0.1116252E+00
         21   -1    0    0  503  502  0.00000000000E+00  0.00000000000E+00  0.30351786070E+03  0.30351786070E+03  0.00000000000E+00 0.  1.
         21   -1    0    0  501  503 -0.00000000000E+00 -0.00000000000E+00 -0.27534943009E+03  0.27534943009E+03  0.00000000000E+00 0.  1.
          6    1    1    2  501    0  0.13459131420E+02  0.17450642331E+03 -0.13892318978E+03  0.28198810729E+03  0.17200000000E+03 0.  1.
         -6    1    1    2    0  502 -0.13459131420E+02 -0.17450642331E+03  0.16709162039E+03  0.29687918350E+03  0.17200000000E+03 0.  1.
</event>
<event>
 4    1  0.4539494E+000  0.1965354E+03  0.7818608E-02  0.1152695E+00
         21   -1    0    0  503  502  0.00000000000E+00  0.00000000000E+00  0.20053544357E+03  0.20053544357E+03  0.00000000000E+00 0. -1.
         21   -1    0    0  501  503 -0.00000000000E+00 -0.00000000000E+00 -0.34728897434E+03  0.34728897434E+03  0.00000000000E+00 0. -1.
          6    1    1    2  501    0  0.60654928267E+02  0.73233555976E+02 -0.25617594309E+03  0.32288122872E+03  0.17200000000E+03 0. -1.
         -6    1    1    2    0  502 -0.60654928267E+02 -0.73233555976E+02  0.10942241232E+03  0.22494318919E+03  0.17200000000E+03 0. -1.
</event>
<event>
 4    1  0.4539494E+000  0.1879107E+03  0.7818608E-02  0.1160359E+00
         21   -1    0    0  503  502  0.00000000000E+00  0.00000000000E+00  0.33882141271E+03  0.33882141271E+03  0.00000000000E+00 0. -1.
         21   -1    0    0  501  503 -0.00000000000E+00 -0.00000000000E+00 -0.13048773824E+03  0.13048773824E+03  0.00000000000E+00 0. -1.
          6    1    1    2  501    0  0.43631708979E+02  0.61827902547E+02 -0.11246790032E+01  0.18791402413E+03  0.17200000000E+03 0. -1.
         -6    1    1    2    0  502 -0.43631708979E+02 -0.61827902547E+02  0.20945835347E+03  0.28139512682E+03  0.17200000000E+03 0. -1.
</event>
<event>
 4    1  0.4539494E+000  0.2186085E+03  0.7818608E-02  0.1134925E+00
         21   -1    0    0  503  502  0.00000000000E+00  0.00000000000E+00  0.43455724800E+03  0.43455724800E+03  0.00000000000E+00 0. -1.
         21   -1    0    0  501  503 -0.00000000000E+00 -0.00000000000E+00 -0.12360166025E+03  0.12360166025E+03  0.00000000000E+00 0. -1.
          6    1    1    2  501    0 -0.13039607574E+03 -0.34677825152E+02  0.62808094824E+02  0.22745229149E+03  0.17200000000E+03 0. -1.
         -6    1    1    2    0  502  0.13039607574E+03  0.34677825152E+02  0.24814749293E+03  0.33070661677E+03  0.17200000000E+03 0. -1.
</event>
<event>
 4    1  0.4539494E+000  0.1796003E+03  0.7818608E-02  0.1168190E+00
         21   -1    0    0  501  502  0.00000000000E+00  0.00000000000E+00  0.22863036761E+03  0.22863036761E+03  0.00000000000E+00 0. -1.
         21   -1    0    0  502  503 -0.00000000000E+00 -0.00000000000E+00 -0.18217001176E+03  0.18217001176E+03  0.00000000000E+00 0. -1.
          6    1    1    2  501    0 -0.11873155856E+02 -0.50311874570E+02  0.12077527958E+03  0.21643226356E+03  0.17200000000E+03 0. -1.
         -6    1    1    2    0  503  0.11873155856E+02  0.50311874570E+02 -0.74314923726E+02  0.19436811580E+03  0.17200000000E+03 0. -1.
</event>
<event>
 4    1  0.4539494E+000  0.2062804E+03  0.7818608E-02  0.1144546E+00
         21   -1    0    0  501  502  0.00000000000E+00  0.00000000000E+00  0.12073306438E+04  0.12073306438E+04  0.00000000000E+00 0. -1.
         21   -1    0    0  502  503 -0.00000000000E+00 -0.00000000000E+00 -0.38214490171E+02  0.38214490171E+02  0.00000000000E+00 0.  1.
          6    1    1    2  501    0  0.35833957539E+01  0.11381905991E+03  0.41093726959E+03  0.45980545741E+03  0.17200000000E+03 0.  1.
         -6    1    1    2    0  503 -0.35833957539E+01 -0.11381905991E+03  0.75817888403E+03  0.78573967655E+03  0.17200000000E+03 0. -1.
</event>
<event>
 4    1  0.4539494E+000  0.1912634E+03  0.7818608E-02  0.1157327E+00
         21   -1    0    0  503  502  0.00000000000E+00  0.00000000000E+00  0.43729826665E+02  0.43729826665E+02  0.00000000000E+00 0.  1.
         21   -1    0    0  501  503 -0.00000000000E+00 -0.00000000000E+00 -0.12253325731E+04  0.12253325731E+04  0.00000000000E+00 0.  1.
          6    1    1    2  501    0  0.64554560513E+02  0.53201490761E+02 -0.94822703448E+03  0.96732424699E+03  0.17200000000E+03 0.  1.
         -6    1    1    2    0  502 -0.64554560513E+02 -0.53201490761E+02 -0.23337571191E+03  0.30173815273E+03  0.17200000000E+03 0.  1.
</event>
<event>
 4    1  0.4539494E+000  0.2684638E+03  0.7818608E-02  0.1102162E+00
         21   -1    0    0  503  502  0.00000000000E+00  0.00000000000E+00  0.26292634490E+03  0.26292634490E+03  0.00000000000E+00 0. -1.
         21   -1    0    0  501  503 -0.00000000000E+00 -0.00000000000E+00 -0.28135841278E+03  0.28135841278E+03  0.00000000000E+00 0.  1.
          6    1    1    2  501    0  0.59677584883E+02  0.19730032532E+03 -0.52872560228E+02  0.27362079624E+03  0.17200000000E+03 0.  1.
         -6    1    1    2    0  502 -0.59677584883E+02 -0.19730032532E+03  0.34440492343E+02  0.27066396144E+03  0.17200000000E+03 0. -1.
</event>
<event>
 4    1  0.4539494E+000  0.1939324E+03  0.7818608E-02  0.1154962E+00
         21   -1    0    0  503  502  0.00000000000E+00  0.00000000000E+00  0.55399536664E+03  0.55399536664E+03  0.00000000000E+00 0. -1.
         21   -1    0    0  501  503 -0.00000000000E+00 -0.00000000000E+00 -0.13691703873E+03  0.13691703873E+03  0.00000000000E+00 0.  1.
          6    1    1    2  501    0  0.61835038973E+02  0.64824261184E+02 -0.36750631306E+02  0.19738380325E+03  0.17200000000E+03 0.  1.
         -6    1    1    2    0  502 -0.61835038973E+02 -0.64824261184E+02  0.45382895922E+03  0.49352860211E+03  0.17200000000E+03 0. -1.
</event>
<event>
 4    1  0.4539494E+000  0.3112278E+03  0.7818608E-02  0.1079759E+00
         21   -1    0    0  503  502  0.00000000000E+00  0.00000000000E+00  0.27262529027E+03  0.27262529027E+03  0.00000000000E+00 0. -1.
         21   -1    0    0  501  503 -0.00000000000E+00 -0.00000000000E+00 -0.12356552896E+04  0.12356552896E+04  0.00000000000E+00 0.  1.
          6    1    1    2  501    0 -0.23665360358E+03 -0.10617811013E+03 -0.11180663050E+04  0.11605752804E+04  0.17200000000E+03 0.  1.
         -6    1    1    2    0  502  0.23665360358E+03  0.10617811013E+03  0.15503630570E+03  0.34770529942E+03  0.17200000000E+03 0. -1.
</event>
<event>
 4    1  0.4539494E+000  0.2066690E+03  0.7818608E-02  0.1144231E+00
         21   -1    0    0  503  502  0.00000000000E+00  0.00000000000E+00  0.85355978261E+02  0.85355978261E+02  0.00000000000E+00 0. -1.
         21   -1    0    0  501  503 -0.00000000000E+00 -0.00000000000E+00 -0.51544452925E+03  0.51544452925E+03  0.00000000000E+00 0. -1.
          6    1    1    2  501    0  0.59818353746E+02  0.97723314249E+02 -0.26636668909E+03  0.33713987402E+03  0.17200000000E+03 0. -1.
         -6    1    1    2    0  502 -0.59818353746E+02 -0.97723314249E+02 -0.16372186189E+03  0.26366063349E+03  0.17200000000E+03 0. -1.
</event>
<event>
 4    1  0.4539494E+000  0.1787779E+03  0.7818608E-02  0.1168991E+00
         21   -1    0    0  501  502  0.00000000000E+00  0.00000000000E+00  0.44348581580E+02  0.44348581580E+02  0.00000000000E+00 0.  1.
         21   -1    0    0  502  503 -0.00000000000E+00 -0.00000000000E+00 -0.10721945183E+04  0.10721945183E+04  0.00000000000E+00 0.  1.
          6    1    1    2  501    0  0.30246677132E+02 -0.38245127253E+02 -0.19427308420E+03  0.26401436037E+03  0.17200000000E+03 0.  1.
         -6    1    1    2    0  503 -0.30246677132E+02  0.38245127253E+02 -0.83357285253E+03  0.85252873952E+03  0.17200000000E+03 0.  1.
</event>
<event>
 4    1  0.4539494E+000  0.1761438E+03  0.7818608E-02  0.1171588E+00
         21   -1    0    0  503  502  0.00000000000E+00  0.00000000000E+00  0.74664976021E+03  0.74664976021E+03  0.00000000000E+00 0. -1.
         21   -1    0    0  501  503 -0.00000000000E+00 -0.00000000000E+00 -0.46501791707E+02  0.46501791707E+02  0.00000000000E+00 0.  1.
          6    1    1    2  501    0 -0.29552478301E+02  0.23859729657E+02  0.22072102180E+03  0.28239051885E+03  0.17200000000E+03 0.  1.
         -6    1    1    2    0  502  0.29552478301E+02 -0.23859729657E+02  0.47942694671E+03  0.51076103307E+03  0.17200000000E+03 0. -1.
</event>
<event>
 4    1  0.4539494E+000  0.1783058E+03  0.7818608E-02  0.1169453E+00
         21   -1    0    0  501  502  0.00000000000E+00  0.00000000000E+00  0.21315494185E+04  0.21315494185E+04  0.00000000000E+00 0.  1.
         21   -1    0    0  502  503 -0.00000000000E+00 -0.00000000000E+00 -0.18004821134E+02  0.18004821134E+02  0.00000000000E+00 0.  1.
          6    1    1    2  501    0  0.36296010212E+02  0.29859167425E+02  0.15019779305E+04  0.15125246028E+04  0.17200000000E+03 0.  1.
         -6    1    1    2    0  503 -0.36296010212E+02 -0.29859167425E+02  0.61156666683E+03  0.63702963684E+03  0.17200000000E+03 0.  1.
</event>
<event>
 4    1  0.4539494E+000  0.3680081E+03  0.7818608E-02  0.1055457E+00
         21   -1    0    0  503  502  0.00000000000E+00  0.00000000000E+00  0.88961001443E+02  0.88961001443E+02  0.00000000000E+00 0. -1.
         21   -1    0    0  501  503 -0.00000000000E+00 -0.00000000000E+00 -0.15365042888E+04  0.15365042888E+04  0.00000000000E+00 0.  1.
          6    1    1    2  501    0 -0.27607549540E+03  0.17212874936E+03 -0.80177072583E+03  0.88219401626E+03  0.17200000000E+03 0. -1.
         -6    1    1    2    0  502  0.27607549540E+03 -0.17212874936E+03 -0.64577256153E+03  0.74327127399E+03  0.17200000000E+03 0.  1.
</event>
<event>
 4    1  0.4539494E+000  0.1877647E+03  0.7818608E-02  0.1160493E+00
         21   -1    0    0  503  502  0.00000000000E+00  0.00000000000E+00  0.37304980561E+03  0.37304980561E+03  0.00000000000E+00 0. -1.
         21   -1    0    0  501  503 -0.00000000000E+00 -0.00000000000E+00 -0.27108576222E+03  0.27108576222E+03  0.00000000000E+00 0. -1.
          6    1    1    2  501    0 -0.84505545319E+01 -0.74834181789E+02 -0.20895251901E+03  0.28092120219E+03  0.17200000000E+03 0. -1.
         -6    1    1    2    0  502  0.84505545319E+01  0.74834181789E+02  0.31091656241E+03  0.36321436565E+03  0.17200000000E+03 0. -1.
</event>
<event>
 4    1  0.4539494E+000  0.1917459E+03  0.7818608E-02  0.1156896E+00
         21   -1    0    0  501  502  0.00000000000E+00  0.00000000000E+00  0.62880746343E+03  0.62880746343E+03  0.00000000000E+00 0. -1.
         21   -1    0    0  502  503 -0.00000000000E+00 -0.00000000000E+00 -0.60399710045E+02  0.60399710045E+02  0.00000000000E+00 0. -1.
          6    1    1    2  501    0  0.26590632626E+02 -0.80470040750E+02  0.34579632811E+03  0.39540054342E+03  0.17200000000E+03 0. -1.
         -6    1    1    2    0  503 -0.26590632626E+02  0.80470040750E+02  0.22261142528E+03  0.29380663006E+03  0.17200000000E+03 0. -1.
</event>
<event>
 4    1  0.4539494E+000  0.1920728E+03  0.7818608E-02  0.1156605E+00
         21   -1    0    0  503  502  0.00000000000E+00  0.00000000000E+00  0.25294178332E+03  0.25294178332E+03  0.00000000000E+00 0.  1.
         21   -1    0    0  501  503 -0.00000000000E+00 -0.00000000000E+00 -0.16287917425E+03  0.16287917425E+03  0.00000000000E+00 0. -1.
          6    1    1    2  501    0  0.55201435279E+02  0.65274397356E+02 -0.22192164138E+02  0.19335055613E+03  0.17200000000E+03 0. -1.
         -6    1    1    2    0  502 -0.55201435279E+02 -0.65274397356E+02  0.11225477320E+03  0.22247040143E+03  0.17200000000E+03 0.  1.
</event>
<event>
 4    1  0.4539494E+000  0.1804687E+03  0.7818608E-02  0.1167350E+00
         21   -1    0    0  501  502  0.00000000000E+00  0.00000000000E+00  0.11525525128E+03  0.11525525128E+03  0.00000000000E+00 0. -1.
         21   -1    0    0  502  503 -0.00000000000E+00 -0.00000000000E+00 -0.43192094901E+03  0.43192094901E+03  0.00000000000E+00 0. -1.
          6    1    1    2  501    0 -0.54572483199E+02 -0.26095538227E+01  0.25400163839E+01  0.18048661274E+03  0.17200000000E+03 0. -1.
         -6    1    1    2    0  503  0.54572483199E+02  0.26095538227E+01 -0.31920571412E+03  0.36668958755E+03  0.17200000000E+03 0. -1.
</event>
<event>
 4    1  0.4539494E+000  0.2025588E+03  0.7818608E-02  0.1147598E+00
         21   -1    0    0  503  502  0.00000000000E+00  0.00000000000E+00  0.27865987295E+03  0.27865987295E+03  0.00000000000E+00 0.  1.
         21   -1    0    0  501  503 -0.00000000000E+00 -0.00000000000E+00 -0.25038881656E+03  0.25038881656E+03  0.00000000000E+00 0.  1.
          6    1    1    2  501    0 -0.10698441222E+03 -0.64440728482E+00 -0.15564535843E+03  0.25545167316E+03  0.17200000000E+03 0.  1.
         -6    1    1    2    0  502  0.10698441222E+03  0.64440728482E+00  0.18391641481E+03  0.27359701635E+03  0.17200000000E+03 0.  1.
</event>
<event>
 4    1  0.4539494E+000  0.2071326E+03  0.7818608E-02  0.1143857E+00
         21   -1    0    0  503  502  0.00000000000E+00  0.00000000000E+00  0.49889302556E+02  0.49889302556E+02  0.00000000000E+00 0.  1.
         21   -1    0    0  501  503 -0.00000000000E+00 -0.00000000000E+00 -0.10735307563E+04  0.10735307563E+04  0.00000000000E+00 0. -1.
          6    1    1    2  501    0 -0.89478627275E+02 -0.72893673760E+02 -0.76234698250E+03  0.78998533793E+03  0.17200000000E+03 0.  1.
         -6    1    1    2    0  502  0.89478627275E+02  0.72893673760E+02 -0.26129447121E+03  0.33343472090E+03  0.17200000000E+03 0.  1.
</event>
<event>
 4    1  0.4539494E+000  0.1931039E+03  0.7818608E-02  0.1155691E+00
         21   -1    0    0  501  502  0.00000000000E+00  0.00000000000E+00  0.27289262390E+02  0.27289262390E+02  0.00000000000E+00 0. -1.
         21   -1    0    0  502  503 -0.00000000000E+00 -0.00000000000E+00 -0.15349522463E+04  0.15349522463E+04  0.00000000000E+00 0. -1.
          6    1    1    2  501    0 -0.87778667639E+02  0.14381812202E+00 -0.49501756952E+03  0.53134876429E+03  0.17200000000E+03 0. -1.
         -6    1    1    2    0  503  0.87778667639E+02 -0.14381812202E+00 -0.10126454144E+04  0.10308927444E+04  0.17200000000E+03 0. -1.
</event>
<event>
 4    1  0.4539494E+000  0.2102252E+03  0.7818608E-02  0.1141388E+00
         21   -1    0    0  503  502  0.00000000000E+00  0.00000000000E+00  0.84149823138E+02  0.84149823138E+02  0.00000000000E+00 0.  1.
         21   -1    0    0  501  503 -0.00000000000E+00 -0.00000000000E+00 -0.78456331058E+03  0.78456331058E+03  0.00000000000E+00 0.  1.
          6    1    1    2  501    0  0.19199004785E+02 -0.11934005454E+03 -0.59995070124E+03  0.63571652041E+03  0.17200000000E+03 0.  1.
         -6    1    1    2    0  502 -0.19199004785E+02  0.11934005454E+03 -0.10046278621E+03  0.23299661331E+03  0.17200000000E+03 0.  1.
</event>
<event>
 4    1  0.4539494E+000  0.1724561E+03  0.7818608E-02  0.1175310E+00
         21   -1    0    0  503  502  0.00000000000E+00  0.00000000000E+00  0.90234824603E+03  0.90234824603E+03  0.00000000000E+00 0. -1.
         21   -1    0    0  501  503 -0.00000000000E+00 -0.00000000000E+00 -0.36583094271E+02  0.36583094271E+02  0.00000000000E+00 0. -1.
          6    1    1    2  501    0 -0.12241163043E+02 -0.26938778864E+01  0.28513408925E+03  0.33323047865E+03  0.17200000000E+03 0.  1.
         -6    1    1    2    0  502  0.12241163043E+02  0.26938778864E+01  0.58063106251E+03  0.60570086164E+03  0.17200000000E+03 0.  1.
</event>
<event>
 4    1  0.4539494E+000  0.1928296E+03  0.7818608E-02  0.1155934E+00
         21   -1    0    0  501  502  0.00000000000E+00  0.00000000000E+00  0.16135719337E+03  0.16135719337E+03  0.00000000000E+00 0.  1.
         21   -1    0    0  502  503 -0.00000000000E+00 -0.00000000000E+00 -0.65298303675E+03  0.65298303675E+03  0.00000000000E+00 0.  1.
          6    1    1    2  501    0  0.83712331451E+02 -0.24321030701E+02  0.81723841094E+02  0.20943269366E+03  0.17200000000E+03 0.  1.
         -6    1    1    2    0  503 -0.83712331451E+02  0.24321030701E+02 -0.57334968447E+03  0.60490753645E+03  0.17200000000E+03 0.  1.
</event>
<event>
 4    1  0.4539494E+000  0.2758407E+03  0.7818608E-02  0.1097983E+00
         21   -1    0    0  503  502  0.00000000000E+00  0.00000000000E+00  0.88162239929E+03  0.88162239929E+03  0.00000000000E+00 0. -1.
         21   -1    0    0  501  503 -0.00000000000E+00 -0.00000000000E+00 -0.16756264649E+03  0.16756264649E+03  0.00000000000E+00 0.  1.
          6    1    1    2  501    0  0.12191399065E+03 -0.17787929676E+03 -0.82844373265E+01  0.27596502901E+03  0.17200000000E+03 0.  1.
         -6    1    1    2    0  502 -0.12191399065E+03  0.17787929676E+03  0.72234419013E+03  0.77322001678E+03  0.17200000000E+03 0. -1.
</event>
<event>
 4    1  0.4539494E+000  0.1819993E+03  0.7818608E-02  0.1165882E+00
         21   -1    0    0  503  502  0.00000000000E+00  0.00000000000E+00  0.10970381048E+03  0.10970381048E+03  0.00000000000E+00 0.  1.
         21   -1    0    0  501  503 -0.00000000000E+00 -0.00000000000E+00 -0.34748136063E+03  0.34748136063E+03  0.00000000000E+00 0. -1.
          6    1    1    2  501    0  0.61922582731E+01 -0.59172601458E+02 -0.20164664061E+03  0.27163414457E+03  0.17200000000E+03 0.  1.
         -6    1    1    2    0  502 -0.61922582731E+01  0.59172601458E+02 -0.36130909545E+02  0.18555102654E+03  0.17200000000E+03 0. -1.
</event>
<event>
 4    1  0.4539494E+000  0.1971982E+03  0.7818608E-02  0.1152125E+00
         21   -1    0    0  501  502  0.00000000000E+00  0.00000000000E+00  0.53525234978E+03  0.53525234978E+03  0.00000000000E+00 0.  1.
         21   -1    0    0  502  503 -0.00000000000E+00 -0.00000000000E+00 -0.83461021651E+02  0.83461021651E+02  0.00000000000E+00 0.  1.
          6    1    1    2  501    0  0.62596378893E+02 -0.73381423854E+02  0.33722544783E+03  0.39065092177E+03  0.17200000000E+03 0. -1.
         -6    1    1    2    0  503 -0.62596378893E+02  0.73381423854E+02  0.11456588031E+03  0.22806244967E+03  0.17200000000E+03 0. -1.
</event>
<event>
 4    1  0.4539494E+000  0.1964267E+03  0.7818608E-02  0.1152789E+00
         21   -1    0    0  503  502  0.00000000000E+00  0.00000000000E+00  0.42345805606E+03  0.42345805606E+03  0.00000000000E+00 0.  1.
         21   -1    0    0  501  503 -0.00000000000E+00 -0.00000000000E+00 -0.96233935129E+02  0.96233935129E+02  0.00000000000E+00 0.  1.
          6    1    1    2  501    0 -0.33257281868E+02  0.88844721744E+02  0.10368311306E+03  0.22211172709E+03  0.17200000000E+03 0.  1.
         -6    1    1    2    0  502  0.33257281868E+02 -0.88844721744E+02  0.22354100787E+03  0.29758026409E+03  0.17200000000E+03 0.  1.
</event>
<event>
 4    1  0.4539494E+000  0.2133351E+03  0.7818608E-02  0.1138952E+00
         21   -1    0    0  501  502  0.00000000000E+00  0.00000000000E+00  0.53485847424E+02  0.53485847424E+02  0.00000000000E+00 0.  1.
         21   -1    0    0  502  503 -0.00000000000E+00 -0.00000000000E+00 -0.88138491394E+03  0.88138491394E+03  0.00000000000E+00 0.  1.
          6    1    1    2  501    0 -0.51251512429E+02 -0.11533056529E+03 -0.32703719050E+03  0.39046789982E+03  0.17200000000E+03 0.  1.
         -6    1    1    2    0  503  0.51251512429E+02  0.11533056529E+03 -0.50086187602E+03  0.54440286155E+03  0.17200000000E+03 0.  1.
</event>
<event>
 4    1  0.4539494E+000  0.2022732E+03  0.7818608E-02  0.1147835E+00
         21   -1    0    0  501  502  0.00000000000E+00  0.00000000000E+00  0.85247458658E+02  0.85247458658E+02  0.00000000000E+00 0. -1.
         21   -1    0    0  502  503 -0.00000000000E+00 -0.00000000000E+00 -0.55027357272E+03  0.55027357272E+03  0.00000000000E+00 0. -1.
          6    1    1    2  501    0 -0.66530207946E+02  0.83091351642E+02 -0.11891684813E+03  0.23463942136E+03  0.17200000000E+03 0. -1.
         -6    1    1    2    0  503  0.66530207946E+02 -0.83091351642E+02 -0.34610926593E+03  0.40088161001E+03  0.17200000000E+03 0. -1.
</event>
<event>
 4    1  0.4539494E+000  0.1887882E+03  0.7818608E-02  0.1159559E+00
         21   -1    0    0  503  502  0.00000000000E+00  0.00000000000E+00  0.16792177543E+03  0.16792177543E+03  0.00000000000E+00 0. -1.
         21   -1    0    0  501  503 -0.00000000000E+00 -0.00000000000E+00 -0.21548023551E+03  0.21548023551E+03  0.00000000000E+00 0. -1.
          6    1    1    2  501    0 -0.70782268487E+02  0.32355050186E+02 -0.47259606050E+02  0.19461358937E+03  0.17200000000E+03 0. -1.
         -6    1    1    2    0  502  0.70782268487E+02 -0.32355050186E+02 -0.29885403275E+00  0.18878842157E+03  0.17200000000E+03 0. -1.
</event>
<event>
 4    1  0.4539494E+000  0.1778817E+03  0.7818608E-02  0.1169869E+00
         21   -1    0    0  501  502  0.00000000000E+00  0.00000000000E+00  0.18941819355E+03  0.18941819355E+03  0.00000000000E+00 0.  1.
         21   -1    0    0  502  503 -0.00000000000E+00 -0.00000000000E+00 -0.27716494914E+03  0.27716494914E+03  0.00000000000E+00 0.  1.
          6    1    1    2  501    0 -0.45135992342E+02 -0.45426923144E+01  0.10317402564E+03  0.20563748059E+03  0.17200000000E+03 0.  1.
         -6    1    1    2    0  503  0.45135992342E+02  0.45426923144E+01 -0.19092078123E+03  0.26094566209E+03  0.17200000000E+03 0.  1.
</event>
<event>
 4    1  0.4539494E+000  0.1849846E+03  0.7818608E-02  0.1163064E+00
         21   -1    0    0  501  502  0.00000000000E+00  0.00000000000E+00  0.17483523998E+03  0.17483523998E+03  0.00000000000E+00 0. -1.
         21   -1    0    0  502  503 -0.00000000000E+00 -0.00000000000E+00 -0.22116903999E+03  0.22116903999E+03  0.00000000000E+00 0. -1.
          6    1    1    2  501    0  0.58977067994E+02  0.34015034217E+02  0.43993905445E+02  0.19014410540E+03  0.17200000000E+03 0. -1.
         -6    1    1    2    0  503 -0.58977067994E+02 -0.34015034217E+02 -0.90327705458E+02  0.20586017457E+03  0.17200000000E+03 0. -1.
</event>
<event>
 4    1  0.4539494E+000  0.1763238E+03  0.7818608E-02  0.1171409E+00
         21   -1    0    0  501  502  0.00000000000E+00  0.00000000000E+00  0.31515908853E+03  0.31515908853E+03  0.00000000000E+00 0. -1.
         21   -1    0    0  502  503 -0.00000000000E+00 -0.00000000000E+00 -0.13427963815E+03  0.13427963815E+03  0.00000000000E+00 0. -1.
          6    1    1    2  501    0 -0.32187193545E+02 -0.21681109556E+02  0.20619693397E+03  0.27130658215E+03  0.17200000000E+03 0. -1.
         -6    1    1    2    0  503  0.32187193545E+02  0.21681109556E+02 -0.25317483593E+02  0.17813214453E+03  0.17200000000E+03 0. -1.
</event>
<event>
 4    1  0.4539494E+000  0.1771842E+03  0.7818608E-02  0.1170556E+00
         21   -1    0    0  501  502  0.00000000000E+00  0.00000000000E+00  0.10700536603E+03  0.10700536603E+03  0.00000000000E+00 0.  1.
         21   -1    0    0  502  503 -0.00000000000E+00 -0.00000000000E+00 -0.42147185333E+03  0.42147185333E+03  0.00000000000E+00 0.  1.
          6    1    1    2  501    0 -0.39272364101E+02  0.16368414106E+02 -0.11567727638E+02  0.17756141440E+03  0.17200000000E+03 0.  1.
         -6    1    1    2    0  503  0.39272364101E+02 -0.16368414106E+02 -0.30289875966E+03  0.35091580495E+03  0.17200000000E+03 0.  1.
</event>
<event>
 4    1  0.4539494E+000  0.2051039E+03  0.7818608E-02  0.1145503E+00
         21   -1    0    0  501  502  0.00000000000E+00  0.00000000000E+00  0.60274770312E+03  0.60274770312E+03  0.00000000000E+00 0.  1.
         21   -1    0    0  502  503 -0.00000000000E+00 -0.00000000000E+00 -0.72555222967E+02  0.72555222967E+02  0.00000000000E+00 0.  1.
          6    1    1    2  501    0  0.94818071441E+02  0.59102927408E+02  0.19921574628E+03  0.28592750177E+03  0.17200000000E+03 0.  1.
         -6    1    1    2    0  503 -0.94818071441E+02 -0.59102927408E+02  0.33097673387E+03  0.38937542432E+03  0.17200000000E+03 0.  1.
</event>
<event>
 4    1  0.4539494E+000  0.1801301E+03  0.7818608E-02  0.1167677E+00
         21   -1    0    0  501  502  0.00000000000E+00  0.00000000000E+00  0.11571749847E+04  0.11571749847E+04  0.00000000000E+00 0.  1.
         21   -1    0    0  502  503 -0.00000000000E+00 -0.00000000000E+00 -0.53016927931E+02  0.53016927931E+02  0.00000000000E+00 0. -1.
          6    1    1    2  501    0 -0.21233297027E+02  0.49112215970E+02  0.96740483301E+03  0.98403199826E+03  0.17200000000E+03 0.  1.
         -6    1    1    2    0  503  0.21233297027E+02 -0.49112215970E+02  0.13675322375E+03  0.22615991437E+03  0.17200000000E+03 0. -1.
</event>
<event>
 4    1  0.4539494E+000  0.4455832E+03  0.7818608E-02  0.1029047E+00
         21   -1    0    0  501  502  0.00000000000E+00  0.00000000000E+00  0.39351004858E+03  0.39351004858E+03  0.00000000000E+00 0.  1.
         21   -1    0    0  502  503 -0.00000000000E+00 -0.00000000000E+00 -0.50985791420E+03  0.50985791420E+03  0.00000000000E+00 0. -1.
          6    1    1    2  501    0 -0.41081308117E+03  0.13890983161E+02 -0.12074947848E+02  0.44574673464E+03  0.17200000000E+03 0.  1.
         -6    1    1    2    0  503  0.41081308117E+03 -0.13890983161E+02 -0.10427291777E+03  0.45762122815E+03  0.17200000000E+03 0. -1.
</event>
<event>
 4    1  0.4539494E+000  0.1817815E+03  0.7818608E-02  0.1166090E+00
         21   -1    0    0  501  502  0.00000000000E+00  0.00000000000E+00  0.86475908551E+02  0.86475908551E+02  0.00000000000E+00 0.  1.
         21   -1    0    0  502  503 -0.00000000000E+00 -0.00000000000E+00 -0.38986319682E+03  0.38986319682E+03  0.00000000000E+00 0.  1.
          6    1    1    2  501    0  0.56961741656E+02  0.14692432878E+02 -0.11813672223E+03  0.21679666219E+03  0.17200000000E+03 0.  1.
         -6    1    1    2    0  503 -0.56961741656E+02 -0.14692432878E+02 -0.18525056604E+03  0.25954244318E+03  0.17200000000E+03 0.  1.
</event>
<event>
 4    1  0.4539494E+000  0.1841335E+03  0.7818608E-02  0.1163862E+00
         21   -1    0    0  503  502  0.00000000000E+00  0.00000000000E+00  0.32675055636E+03  0.32675055636E+03  0.00000000000E+00 0.  1.
         21   -1    0    0  501  503 -0.00000000000E+00 -0.00000000000E+00 -0.26856111394E+03  0.26856111394E+03  0.00000000000E+00 0.  1.
          6    1    1    2  501    0  0.58549327707E+02 -0.29885167122E+02 -0.20407213715E+03  0.27486466515E+03  0.17200000000E+03 0.  1.
         -6    1    1    2    0  502 -0.58549327707E+02  0.29885167122E+02  0.26226157957E+03  0.32044700515E+03  0.17200000000E+03 0.  1.
</event>
<event>
 4    1  0.4539494E+000  0.1973738E+03  0.7818608E-02  0.1151974E+00
         21   -1    0    0  503  502  0.00000000000E+00  0.00000000000E+00  0.80137919342E+02  0.80137919342E+02  0.00000000000E+00 0.  1.
         21   -1    0    0  501  503 -0.00000000000E+00 -0.00000000000E+00 -0.11173747370E+04  0.11173747370E+04  0.00000000000E+00 0. -1.
          6    1    1    2  501    0 -0.32642093716E+02 -0.91142311041E+02 -0.96866134987E+03  0.98856524209E+03  0.17200000000E+03 0. -1.
         -6    1    1    2    0  502  0.32642093716E+02  0.91142311041E+02 -0.68575467809E+02  0.20894741427E+03  0.17200000000E+03 0.  1.
</event>
<event>
 4    1  0.4539494E+000  0.2011308E+03  0.7818608E-02  0.1148788E+00
         21   -1    0    0  503  502  0.00000000000E+00  0.00000000000E+00  0.53477811772E+02  0.53477811772E+02  0.00000000000E+00 0. -1.
         21   -1    0    0  501  503 -0.00000000000E+00 -0.00000000000E+00 -0.14856203622E+04  0.14856203622E+04  0.00000000000E+00 0.  1.
          6    1    1    2  501    0  0.59428971333E+02 -0.85660831824E+02 -0.12552035043E+04  0.12712157244E+04  0.17200000000E+03 0.  1.
         -6    1    1    2    0  502 -0.59428971333E+02  0.85660831824E+02 -0.17693904610E+03  0.26788244955E+03  0.17200000000E+03 0. -1.
</event>
<event>
 4    1  0.4539494E+000  0.1721228E+03  0.7818608E-02  0.1175652E+00
         21   -1    0    0  503  502  0.00000000000E+00  0.00000000000E+00  0.64097497232E+02  0.64097497232E+02  0.00000000000E+00 0.  1.
         21   -1    0    0  501  503 -0.00000000000E+00 -0.00000000000E+00 -0.67427688792E+03  0.67427688792E+03  0.00000000000E+00 0.  1.
          6    1    1    2  501    0  0.39804735150E+01  0.51381490708E+01 -0.51213627762E+03  0.54028678644E+03  0.17200000000E+03 0.  1.
         -6    1    1    2    0  502 -0.39804735150E+01 -0.51381490708E+01 -0.98043113072E+02  0.19808759872E+03  0.17200000000E+03 0.  1.
</event>
<event>
 4    1  0.4539494E+000  0.1773332E+03  0.7818608E-02  0.1170409E+00
         21   -1    0    0  501  502  0.00000000000E+00  0.00000000000E+00  0.44957231015E+03  0.44957231015E+03  0.00000000000E+00 0.  1.
         21   -1    0    0  502  503 -0.00000000000E+00 -0.00000000000E+00 -0.70040693238E+02  0.70040693238E+02  0.00000000000E+00 0.  1.
          6    1    1    2  501    0 -0.89434014279E+01 -0.42226573259E+02  0.18035799369E+03  0.25293492010E+03  0.17200000000E+03 0. -1.
         -6    1    1    2    0  503  0.89434014279E+01  0.42226573259E+02  0.19917362322E+03  0.26667808328E+03  0.17200000000E+03 0. -1.
</event>
<event>
 4    1  0.4539494E+000  0.2265956E+03  0.7818608E-02  0.1129059E+00
         21   -1    0    0  501  502  0.00000000000E+00  0.00000000000E+00  0.34017529802E+03  0.34017529802E+03  0.00000000000E+00 0. -1.
         21   -1    0    0  502  503 -0.00000000000E+00 -0.00000000000E+00 -0.16771815634E+03  0.16771815634E+03  0.00000000000E+00 0.  1.
          6    1    1    2  501    0 -0.99849404105E+02  0.10858943442E+03  0.59049333377E+01  0.22667253253E+03  0.17200000000E+03 0.  1.
         -6    1    1    2    0  503  0.99849404105E+02 -0.10858943442E+03  0.16655220834E+03  0.28122092182E+03  0.17200000000E+03 0. -1.
</event>
<event>
 4    1  0.4539494E+000  0.2157835E+03  0.7818608E-02  0.1137066E+00
         21   -1    0    0  503  502  0.00000000000E+00  0.00000000000E+00  0.57915574812E+02  0.57915574812E+02  0.00000000000E+00 0. -1.
         21   -1    0    0  501  503 -0.00000000000E+00 -0.00000000000E+00 -0.96489140323E+03  0.96489140323E+03  0.00000000000E+00 0. -1.
          6    1    1    2  501    0 -0.12990664668E+03 -0.10137440965E+02 -0.66233507738E+03  0.69659906638E+03  0.17200000000E+03 0. -1.
         -6    1    1    2    0  502  0.12990664668E+03  0.10137440965E+02 -0.24464075105E+03  0.32620791166E+03  0.17200000000E+03 0. -1.
</event>
<event>
 4    1  0.4539494E+000  0.1995693E+03  0.7818608E-02  0.1150103E+00
         21   -1    0    0  501  502  0.00000000000E+00  0.00000000000E+00  0.93063268250E+03  0.93063268250E+03  0.00000000000E+00 0. -1.
         21   -1    0    0  502  503 -0.00000000000E+00 -0.00000000000E+00 -0.69445689136E+02  0.69445689136E+02  0.00000000000E+00 0. -1.
          6    1    1    2  501    0  0.10085991522E+03 -0.84369035159E+01  0.74035159748E+03  0.76677792856E+03  0.17200000000E+03 0. -1.
         -6    1    1    2    0  503 -0.10085991522E+03  0.84369035159E+01  0.12083539589E+03  0.23330044307E+03  0.17200000000E+03 0. -1.
</event>
<event>
 4    1  0.4539494E+000  0.2585788E+03  0.7818608E-02  0.1108000E+00
         21   -1    0    0  503  502  0.00000000000E+00  0.00000000000E+00  0.85589294188E+02  0.85589294188E+02  0.00000000000E+00 0.  1.
         21   -1    0    0  501  503 -0.00000000000E+00 -0.00000000000E+00 -0.83024447423E+03  0.83024447423E+03  0.00000000000E+00 0. -1.
          6    1    1    2  501    0 -0.35746641225E+02  0.18973981665E+03 -0.48361457138E+03  0.54840320389E+03  0.17200000000E+03 0.  1.
         -6    1    1    2    0  502  0.35746641225E+02 -0.18973981665E+03 -0.26104060866E+03  0.36743056453E+03  0.17200000000E+03 0.  1.
</event>
<event>
 4    1  0.4539494E+000  0.2281994E+03  0.7818608E-02  0.1127914E+00
         21   -1    0    0  501  502  0.00000000000E+00  0.00000000000E+00  0.16310554960E+03  0.16310554960E+03  0.00000000000E+00 0.  1.
         21   -1    0    0  502  503 -0.00000000000E+00 -0.00000000000E+00 -0.33818666287E+03  0.33818666287E+03  0.00000000000E+00 0.  1.
          6    1    1    2  501    0 -0.28481400260E+02 -0.14724048482E+03 -0.28263316663E+02  0.22994296162E+03  0.17200000000E+03 0.  1.
         -6    1    1    2    0  503  0.28481400260E+02  0.14724048482E+03 -0.14681779661E+03  0.27134925084E+03  0.17200000000E+03 0.  1.
</event>
<event>
 4    1  0.4539494E+000  0.2086151E+03  0.7818608E-02  0.1142667E+00
         21   -1    0    0  503  502  0.00000000000E+00  0.00000000000E+00  0.10902154426E+03  0.10902154426E+03  0.00000000000E+00 0. -1.
         21   -1    0    0  501  503 -0.00000000000E+00 -0.00000000000E+00 -0.46254533345E+03  0.46254533345E+03  0.00000000000E+00 0. -1.
          6    1    1    2  501    0  0.11795476156E+03 -0.47893630358E+01 -0.28252956958E+03  0.35120253624E+03  0.17200000000E+03 0.  1.
         -6    1    1    2    0  502 -0.11795476156E+03  0.47893630358E+01 -0.70994219608E+02  0.22036434147E+03  0.17200000000E+03 0.  1.
</event>
<event>
 4    1  0.4539494E+000  0.1803747E+03  0.7818608E-02  0.1167441E+00
         21   -1    0    0  501  502  0.00000000000E+00  0.00000000000E+00  0.22776102995E+03  0.22776102995E+03  0.00000000000E+00 0.  1.
         21   -1    0    0  502  503 -0.00000000000E+00 -0.00000000000E+00 -0.16649470808E+03  0.16649470808E+03  0.00000000000E+00 0.  1.
          6    1    1    2  501    0 -0.19842135715E+01 -0.54287135037E+02  0.10492486331E+03  0.20867260739E+03  0.17200000000E+03 0.  1.
         -6    1    1    2    0  503  0.19842135715E+01  0.54287135037E+02 -0.43658541445E+02  0.18558313063E+03  0.17200000000E+03 0.  1.
</event>
<event>
 4    1  0.4539494E+000  0.1927137E+03  0.7818608E-02  0.1156036E+00
         21   -1    0    0  503  502  0.00000000000E+00  0.00000000000E+00  0.11744187426E+03  0.11744187426E+03  0.00000000000E+00 0.  1.
         21   -1    0    0  501  503 -0.00000000000E+00 -0.00000000000E+00 -0.53405702441E+03  0.53405702441E+03  0.00000000000E+00 0.  1.
          6    1    1    2  501    0 -0.86705324707E+02 -0.60622320487E+01 -0.41634737725E+03  0.45878502867E+03  0.17200000000E+03 0.  1.
         -6    1    1    2    0  502  0.86705324707E+02  0.60622320487E+01 -0.26777290478E+00  0.19271387000E+03  0.17200000000E+03 0.  1.
</event>
<event>
 4    1  0.4539494E+000  0.2218315E+03  0.7818608E-02  0.1132525E+00
         21   -1    0    0  503  502  0.00000000000E+00  0.00000000000E+00  0.16066228348E+03  0.16066228348E+03  0.00000000000E+00 0.  1.
         21   -1    0    0  501  503 -0.00000000000E+00 -0.00000000000E+00 -0.31098423308E+03  0.31098423308E+03  0.00000000000E+00 0. -1.
          6    1    1    2  501    0 -0.75207374958E+02  0.11819080540E+03 -0.46186880148E+02  0.22658871028E+03  0.17200000000E+03 0.  1.
         -6    1    1    2    0  502  0.75207374958E+02 -0.11819080540E+03 -0.10413506945E+03  0.24505780628E+03  0.17200000000E+03 0. -1.
</event>
<event>
 4    1  0.4539494E+000  0.2400997E+03  0.7818608E-02  0.1119726E+00
         21   -1    0    0  503  502  0.00000000000E+00  0.00000000000E+00  0.15442296782E+03  0.15442296782E+03  0.00000000000E+00 0.  1.
         21   -1    0    0  501  503 -0.00000000000E+00 -0.00000000000E+00 -0.39312878383E+03  0.39312878383E+03  0.00000000000E+00 0. -1.
          6    1    1    2  501    0  0.16231090320E+03  0.41461091738E+02 -0.18082119646E+03  0.30057304689E+03  0.17200000000E+03 0. -1.
         -6    1    1    2    0  502 -0.16231090320E+03 -0.41461091738E+02 -0.57884619552E+02  0.24697870476E+03  0.17200000000E+03 0.  1.
</event>
<event>
 4    1  0.4539494E+000  0.1749201E+03  0.7818608E-02  0.1172812E+00
         21   -1    0    0  503  502  0.00000000000E+00  0.00000000000E+00  0.87213000292E+03  0.87213000292E+03  0.00000000000E+00 0.  1.
         21   -1    0    0  501  503 -0.00000000000E+00 -0.00000000000E+00 -0.24875514612E+03  0.24875514612E+03  0.00000000000E+00 0.  1.
          6    1    1    2  501    0 -0.20038938535E+02 -0.24728239819E+02 -0.20773286429E+03  0.27156948984E+03  0.17200000000E+03 0.  1.
         -6    1    1    2    0  502  0.20038938535E+02  0.24728239819E+02  0.83110772110E+03  0.84931565921E+03  0.17200000000E+03 0.  1.
</event>
<event>
 4    1  0.4539494E+000  0.2266069E+03  0.7818608E-02  0.1129051E+00
         21   -1    0    0  503  502  0.00000000000E+00  0.00000000000E+00  0.75391291564E+03  0.75391291564E+03  0.00000000000E+00 0. -1.
         21   -1    0    0  501  503 -0.00000000000E+00 -0.00000000000E+00 -0.72909360687E+02  0.72909360687E+02  0.00000000000E+00 0. -1.
          6    1    1    2  501    0 -0.25751496411E+02 -0.14527060047E+03  0.44654464969E+03  0.50075224522E+03  0.17200000000E+03 0. -1.
         -6    1    1    2    0  502  0.25751496411E+02  0.14527060047E+03  0.23445890526E+03  0.32607003110E+03  0.17200000000E+03 0. -1.
</event>
<event>
 4    1  0.4539494E+000  0.2929334E+03  0.7818608E-02  0.1088827E+00
         21   -1    0    0  503  502  0.00000000000E+00  0.00000000000E+00  0.33074905127E+03  0.33074905127E+03  0.00000000000E+00 0.  1.
         21   -1    0    0  501  503 -0.00000000000E+00 -0.00000000000E+00 -0.27631977935E+03  0.27631977935E+03  0.00000000000E+00 0. -1.
          6    1    1    2  501    0  0.11163985081E+03  0.20919495494E+03 -0.47803759284E+02  0.29680833018E+03  0.17200000000E+03 0. -1.
         -6    1    1    2    0  502 -0.11163985081E+03 -0.20919495494E+03  0.10223303120E+03  0.31026050044E+03  0.17200000000E+03 0. -1.
</event>
<event>
 4    1  0.4539494E+000  0.1763367E+03  0.7818608E-02  0.1171396E+00
         21   -1    0    0  503  502  0.00000000000E+00  0.00000000000E+00  0.50479695718E+03  0.50479695718E+03  0.00000000000E+00 0. -1.
         21   -1    0    0  501  503 -0.00000000000E+00 -0.00000000000E+00 -0.14596326918E+03  0.14596326918E+03  0.00000000000E+00 0. -1.
          6    1    1    2  501    0 -0.16686876197E+01 -0.38831046647E+02 -0.67955013152E+02  0.18897756088E+03  0.17200000000E+03 0. -1.
         -6    1    1    2    0  502  0.16686876197E+01  0.38831046647E+02  0.42678870116E+03  0.46178266548E+03  0.17200000000E+03 0. -1.
</event>
<event>
 4    1  0.4539494E+000  0.2370074E+03  0.7818608E-02  0.1121803E+00
         21   -1    0    0  501  502  0.00000000000E+00  0.00000000000E+00  0.39670242148E+03  0.39670242148E+03  0.00000000000E+00 0. -1.
         21   -1    0    0  502  503 -0.00000000000E+00 -0.00000000000E+00 -0.14228901960E+03  0.14228901960E+03  0.00000000000E+00 0. -1.
          6    1    1    2  501    0 -0.15681081781E+03  0.44708908404E+02  0.14597883118E+03  0.27835649485E+03  0.17200000000E+03 0. -1.
         -6    1    1    2    0  503  0.15681081781E+03 -0.44708908404E+02  0.10843457069E+03  0.26063494622E+03  0.17200000000E+03 0. -1.
</event>
<event>
 4    1  0.4539494E+000  0.1823534E+03  0.7818608E-02  0.1165545E+00
         21   -1    0    0  503  502  0.00000000000E+00  0.00000000000E+00  0.84121591412E+03  0.84121591412E+03  0.00000000000E+00 0. -1.
         21   -1    0    0  501  503 -0.00000000000E+00 -0.00000000000E+00 -0.78084353887E+02  0.78084353887E+02  0.00000000000E+00 0. -1.
          6    1    1    2  501    0 -0.51778422062E+02  0.31428881367E+02  0.58578554598E+02  0.19153126803E+03  0.17200000000E+03 0. -1.
         -6    1    1    2    0  502  0.51778422062E+02 -0.31428881367E+02  0.70455300564E+03  0.72776899998E+03  0.17200000000E+03 0. -1.
</event>
<event>
 4    1  0.4539494E+000  0.1986354E+03  0.7818608E-02  0.1150895E+00
         21   -1    0    0  503  502  0.00000000000E+00  0.00000000000E+00  0.54586818661E+02  0.54586818661E+02  0.00000000000E+00 0.  1.
         21   -1    0    0  501  503 -0.00000000000E+00 -0.00000000000E+00 -0.91122136420E+03  0.91122136420E+03  0.00000000000E+00 0. -1.
          6    1    1    2  501    0  0.40022811633E+02  0.90940651822E+02 -0.64790080012E+03  0.67766619688E+03  0.17200000000E+03 0. -1.
         -6    1    1    2    0  502 -0.40022811633E+02 -0.90940651822E+02 -0.20873374542E+03  0.28814198597E+03  0.17200000000E+03 0.  1.
</event>
<event>
 4    1  0.4539494E+000  0.1739297E+03  0.7818608E-02  0.1173811E+00
         21   -1    0    0  503  502  0.00000000000E+00  0.00000000000E+00  0.64481338174E+03  0.64481338174E+03  0.00000000000E+00 0.  1.
         21   -1    0    0  501  503 -0.00000000000E+00 -0.00000000000E+00 -0.19830199566E+03  0.19830199566E+03  0.00000000000E+00 0.  1.
          6    1    1    2  501    0 -0.41603205729E+01  0.25499962419E+02 -0.14507461285E+03  0.22649105864E+03  0.17200000000E+03 0.  1.
         -6    1    1    2    0  502  0.41603205729E+01 -0.25499962419E+02  0.59158599893E+03  0.61662431875E+03  0.17200000000E+03 0.  1.
</event>
<event>
 4    1  0.4539494E+000  0.1810173E+03  0.7818608E-02  0.1166822E+00
         21   -1    0    0  503  502  0.00000000000E+00  0.00000000000E+00  0.44335187109E+03  0.44335187109E+03  0.00000000000E+00 0.  1.
         21   -1    0    0  501  503 -0.00000000000E+00 -0.00000000000E+00 -0.85509817265E+02  0.85509817265E+02  0.00000000000E+00 0.  1.
          6    1    1    2  501    0 -0.31563551479E+02 -0.46765576422E+02  0.81519447333E+02  0.19852631366E+03  0.17200000000E+03 0.  1.
         -6    1    1    2    0  502  0.31563551479E+02  0.46765576422E+02  0.27632260649E+03  0.33033537470E+03  0.17200000000E+03 0.  1.
</event>
<event>
 4    1  0.4539494E+000  0.1781810E+03  0.7818608E-02  0.1169575E+00
         21   -1    0    0  503  502  0.00000000000E+00  0.00000000000E+00  0.26081895867E+03  0.26081895867E+03  0.00000000000E+00 0.  1.
         21   -1    0    0  501  503 -0.00000000000E+00 -0.00000000000E+00 -0.94091364178E+03  0.94091364178E+03  0.00000000000E+00 0.  1.
          6    1    1    2  501    0 -0.41507204741E+02  0.21015171944E+02 -0.90070095171E+03  0.91815613591E+03  0.17200000000E+03 0.  1.
         -6    1    1    2    0  502  0.41507204741E+02 -0.21015171944E+02  0.22060626859E+03  0.28357646454E+03  0.17200000000E+03 0.  1.
</event>
<event>
 4    1  0.4539494E+000  0.1722910E+03  0.7818608E-02  0.1175480E+00
         21   -1    0    0  501  502  0.00000000000E+00  0.00000000000E+00  0.73458055857E+02  0.73458055857E+02  0.00000000000E+00 0.  1.
         21   -1    0    0  502  503 -0.00000000000E+00 -0.00000000000E+00 -0.48381105924E+03  0.48381105924E+03  0.00000000000E+00 0.  1.
          6    1    1    2  501    0  0.76400098581E+01 -0.64672532705E+01 -0.92076142340E+02  0.19535150653E+03  0.17200000000E+03 0.  1.
         -6    1    1    2    0  503 -0.76400098581E+01  0.64672532705E+01 -0.31827686105E+03  0.36191760857E+03  0.17200000000E+03 0.  1.
</event>
<event>
 4    1  0.4539494E+000  0.1944533E+03  0.7818608E-02  0.1154505E+00
         21   -1    0    0  501  502  0.00000000000E+00  0.00000000000E+00  0.25907042738E+03  0.25907042738E+03  0.00000000000E+00 0.  1.
         21   -1    0    0  502  503 -0.00000000000E+00 -0.00000000000E+00 -0.14821585811E+03  0.14821585811E+03  0.00000000000E+00 0.  1.
          6    1    1    2  501    0 -0.78012317550E+02 -0.46283588077E+02  0.80589927529E+02  0.21049187308E+03  0.17200000000E+03 0.  1.
         -6    1    1    2    0  503  0.78012317550E+02  0.46283588077E+02  0.30264641739E+02  0.19679441241E+03  0.17200000000E+03 0.  1.
</event>
<event>
 4    1  0.4539494E+000  0.1771218E+03  0.7818608E-02  0.1170618E+00
         21   -1    0    0  501  502  0.00000000000E+00  0.00000000000E+00  0.22006894300E+03  0.22006894300E+03  0.00000000000E+00 0.  1.
         21   -1    0    0  502  503 -0.00000000000E+00 -0.00000000000E+00 -0.14317932141E+03  0.14317932141E+03  0.00000000000E+00 0.  1.
          6    1    1    2  501    0  0.29826565110E+02  0.29975029088E+02  0.50429425112E+02  0.18416094394E+03  0.17200000000E+03 0. -1.
         -6    1    1    2    0  503 -0.29826565110E+02 -0.29975029088E+02  0.26460196478E+02  0.17908732047E+03  0.17200000000E+03 0. -1.
</event>
<event>
 4    1  0.4539494E+000  0.1765490E+03  0.7818608E-02  0.1171185E+00
         21   -1    0    0  501  502  0.00000000000E+00  0.00000000000E+00  0.15150415931E+03  0.15150415931E+03  0.00000000000E+00 0. -1.
         21   -1    0    0  502  503 -0.00000000000E+00 -0.00000000000E+00 -0.23578888328E+03  0.23578888328E+03  0.00000000000E+00 0. -1.
          6    1    1    2  501    0  0.27841625186E+02 -0.28467427718E+02 -0.11127861755E+03  0.20869231240E+03  0.17200000000E+03 0. -1.
         -6    1    1    2    0  503 -0.27841625186E+02  0.28467427718E+02  0.26993893581E+02  0.17860073019E+03  0.17200000000E+03 0. -1.
</event>
<event>
 4    1  0.4539494E+000  0.2117474E+03  0.7818608E-02  0.1140190E+00
         21   -1    0    0  501  502  0.00000000000E+00  0.00000000000E+00  0.44636729049E+02  0.44636729049E+02  0.00000000000E+00 0. -1.
         21   -1    0    0  502  503 -0.00000000000E+00 -0.00000000000E+00 -0.10234376769E+04  0.10234376769E+04  0.00000000000E+00 0. -1.
          6    1    1    2  501    0  0.12196616498E+03  0.19422510568E+02 -0.56207163384E+03  0.60063424884E+03  0.17200000000E+03 0. -1.
         -6    1    1    2    0  503 -0.12196616498E+03 -0.19422510568E+02 -0.41672931401E+03  0.46744015710E+03  0.17200000000E+03 0. -1.
</event>
<event>
 4    1  0.4539494E+000  0.1885402E+03  0.7818608E-02  0.1159785E+00
         21   -1    0    0  503  502  0.00000000000E+00  0.00000000000E+00  0.38554473413E+03  0.38554473413E+03  0.00000000000E+00 0. -1.
         21   -1    0    0  501  503 -0.00000000000E+00 -0.00000000000E+00 -0.14798189027E+03  0.14798189027E+03  0.00000000000E+00 0.  1.
          6    1    1    2  501    0  0.72983809625E+02  0.25234280174E+02 -0.45000741330E+02  0.19383619911E+03  0.17200000000E+03 0.  1.
         -6    1    1    2    0  502 -0.72983809625E+02 -0.25234280174E+02  0.28256358519E+03  0.33969042530E+03  0.17200000000E+03 0. -1.
</event>
<event>
 4    1  0.4539494E+000  0.1891296E+03  0.7818608E-02  0.1159249E+00
         21   -1    0    0  503  502  0.00000000000E+00  0.00000000000E+00  0.60996670557E+02  0.60996670557E+02  0.00000000000E+00 0.  1.
         21   -1    0    0  501  503 -0.00000000000E+00 -0.00000000000E+00 -0.59136827662E+03  0.59136827662E+03  0.00000000000E+00 0. -1.
          6    1    1    2  501    0  0.14811084195E+02 -0.77244008010E+02 -0.29500635591E+03  0.35042653298E+03  0.17200000000E+03 0. -1.
         -6    1    1    2    0  502 -0.14811084195E+02  0.77244008010E+02 -0.23536525016E+03  0.30193841420E+03  0.17200000000E+03 0. -1.
</event>
<event>
 4    1  0.4539494E+000  0.1748653E+03  0.7818608E-02  0.1172867E+00
         21   -1    0    0  501  502  0.00000000000E+00  0.00000000000E+00  0.18655320223E+03  0.18655320223E+03  0.00000000000E+00 0. -1.
         21   -1    0    0  502  503 -0.00000000000E+00 -0.00000000000E+00 -0.18113893110E+03  0.18113893110E+03  0.00000000000E+00 0. -1.
          6    1    1    2  501    0 -0.18111970667E+02 -0.25803490327E+02  0.59407057254E+02  0.18468097370E+03  0.17200000000E+03 0.  1.
         -6    1    1    2    0  503  0.18111970667E+02  0.25803490327E+02 -0.53992786128E+02  0.18301115963E+03  0.17200000000E+03 0.  1.
</event>
<event>
 4    1  0.4539494E+000  0.1791500E+03  0.7818608E-02  0.1168628E+00
         21   -1    0    0  501  502  0.00000000000E+00  0.00000000000E+00  0.11015683686E+03  0.11015683686E+03  0.00000000000E+00 0.  1.
         21   -1    0    0  502  503 -0.00000000000E+00 -0.00000000000E+00 -0.36143454317E+03  0.36143454317E+03  0.00000000000E+00 0.  1.
          6    1    1    2  501    0  0.12886284290E+02 -0.48421729727E+02 -0.21810164818E+02  0.18047272238E+03  0.17200000000E+03 0.  1.
         -6    1    1    2    0  503 -0.12886284290E+02  0.48421729727E+02 -0.22946754150E+03  0.29111865765E+03  0.17200000000E+03 0.  1.
</event>
<event>
 4    1  0.4539494E+000  0.2137025E+03  0.7818608E-02  0.1138667E+00
         21   -1    0    0  501  502  0.00000000000E+00  0.00000000000E+00  0.88335152583E+02  0.88335152583E+02  0.00000000000E+00 0. -1.
         21   -1    0    0  502  503 -0.00000000000E+00 -0.00000000000E+00 -0.53455133576E+03  0.53455133576E+03  0.00000000000E+00 0. -1.
          6    1    1    2  501    0 -0.29537432266E+02 -0.12333817514E+03 -0.16666503749E+03  0.27100922507E+03  0.17200000000E+03 0. -1.
         -6    1    1    2    0  503  0.29537432266E+02  0.12333817514E+03 -0.27955114569E+03  0.35187726327E+03  0.17200000000E+03 0. -1.
</event>
<event>
 4    1  0.4539494E+000  0.3145758E+03  0.7818608E-02  0.1078173E+00
         21   -1    0    0  503  502  0.00000000000E+00  0.00000000000E+00  0.29031950114E+03  0.29031950114E+03  0.00000000000E+00 0.  1.
         21   -1    0    0  501  503 -0.00000000000E+00 -0.00000000000E+00 -0.56878504693E+03  0.56878504693E+03  0.00000000000E+00 0. -1.
          6    1    1    2  501    0 -0.24975566057E+03 -0.83642417884E+02 -0.41115151886E+03  0.51769055962E+03  0.17200000000E+03 0. -1.
         -6    1    1    2    0  502  0.24975566057E+03  0.83642417884E+02  0.13268597308E+03  0.34141398845E+03  0.17200000000E+03 0.  1.
</event>
<event>
 4    1  0.4539494E+000  0.1976619E+03  0.7818608E-02  0.1151727E+00
         21   -1    0    0  501  502  0.00000000000E+00  0.00000000000E+00  0.91738131745E+03  0.91738131745E+03  0.00000000000E+00 0.  1.
         21   -1    0    0  502  503 -0.00000000000E+00 -0.00000000000E+00 -0.42588926017E+02  0.42588926017E+02  0.00000000000E+00 0.  1.
          6    1    1    2  501    0 -0.90799309819E+02  0.35238061977E+02  0.43793582239E+03  0.48047686750E+03  0.17200000000E+03 0.  1.
         -6    1    1    2    0  503  0.90799309819E+02 -0.35238061977E+02  0.43685656905E+03  0.47949337597E+03  0.17200000000E+03 0.  1.
</event>
<event>
 4    1  0.4539494E+000  0.2512793E+03  0.7818608E-02  0.1112499E+00
         21   -1    0    0  501  502  0.00000000000E+00  0.00000000000E+00  0.84834645274E+03  0.84834645274E+03  0.00000000000E+00 0.  1.
         21   -1    0    0  502  503 -0.00000000000E+00 -0.00000000000E+00 -0.75573628244E+02  0.75573628244E+02  0.00000000000E+00 0.  1.
          6    1    1    2  501    0 -0.17569317535E+03 -0.51857313366E+02  0.44324810297E+03  0.50951953211E+03  0.17200000000E+03 0.  1.
         -6    1    1    2    0  503  0.17569317535E+03  0.51857313366E+02  0.32952472153E+03  0.41440054888E+03  0.17200000000E+03 0.  1.
</event>
<event>
 4    1  0.4539494E+000  0.2006285E+03  0.7818608E-02  0.1149210E+00
         21   -1    0    0  503  502  0.00000000000E+00  0.00000000000E+00  0.66474220932E+03  0.66474220932E+03  0.00000000000E+00 0.  1.
         21   -1    0    0  501  503 -0.00000000000E+00 -0.00000000000E+00 -0.60583656429E+02  0.60583656429E+02  0.00000000000E+00 0. -1.
          6    1    1    2  501    0 -0.10317555334E+03  0.47558298244E+01  0.31030157812E+03  0.36951168061E+03  0.17200000000E+03 0.  1.
         -6    1    1    2    0  502  0.10317555334E+03 -0.47558298244E+01  0.29385697478E+03  0.35581418514E+03  0.17200000000E+03 0. -1.
</event>
<event>
 4    1  0.4539494E+000  0.2474211E+03  0.7818608E-02  0.1114946E+00
         21   -1    0    0  501  502  0.00000000000E+00  0.00000000000E+00  0.27733050330E+03  0.27733050330E+03  0.00000000000E+00 0.  1.
         21   -1    0    0  502  503 -0.00000000000E+00 -0.00000000000E+00 -0.35389308831E+03  0.35389308831E+03  0.00000000000E+00 0.  1.
          6    1    1    2  501    0  0.10995618923E+03  0.13979569828E+03  0.15531504051E+03  0.29213004402E+03  0.17200000000E+03 0.  1.
         -6    1    1    2    0  503 -0.10995618923E+03 -0.13979569828E+03 -0.23187762552E+03  0.33909354760E+03  0.17200000000E+03 0.  1.
</event>
<event>
 4    1  0.4539494E+000  0.3765025E+03  0.7818608E-02  0.1052234E+00
         21   -1    0    0  501  502  0.00000000000E+00  0.00000000000E+00  0.32154214128E+03  0.32154214128E+03  0.00000000000E+00 0. -1.
         21   -1    0    0  502  503 -0.00000000000E+00 -0.00000000000E+00 -0.60365327008E+03  0.60365327008E+03  0.00000000000E+00 0.  1.
          6    1    1    2  501    0  0.21010717248E+03 -0.26081621347E+03  0.99176984273E+02  0.38934585569E+03  0.17200000000E+03 0.  1.
         -6    1    1    2    0  503 -0.21010717248E+03  0.26081621347E+03 -0.38128811308E+03  0.53584955567E+03  0.17200000000E+03 0. -1.
</event>
<event>
 4    1  0.4539494E+000  0.1730382E+03  0.7818608E-02  0.1174716E+00
         21   -1    0    0  501  502  0.00000000000E+00  0.00000000000E+00  0.13520372344E+03  0.13520372344E+03  0.00000000000E+00 0. -1.
         21   -1    0    0  502  503 -0.00000000000E+00 -0.00000000000E+00 -0.40269040660E+03  0.40269040660E+03  0.00000000000E+00 0. -1.
          6    1    1    2  501    0  0.97508969432E+01 -0.16221309800E+02  0.46681673614E+02  0.17922441110E+03  0.17200000000E+03 0. -1.
         -6    1    1    2    0  503 -0.97508969432E+01  0.16221309800E+02 -0.31416835678E+03  0.35866971894E+03  0.17200000000E+03 0. -1.
</event>
<event>
 4    1  0.4539494E+000  0.2127471E+03  0.7818608E-02  0.1139409E+00
         21   -1    0    0  501  502  0.00000000000E+00  0.00000000000E+00  0.26326261520E+03  0.26326261520E+03  0.00000000000E+00 0. -1.
         21   -1    0    0  502  503 -0.00000000000E+00 -0.00000000000E+00 -0.18315962373E+03  0.18315962373E+03  0.00000000000E+00 0.  1.
          6    1    1    2  501    0 -0.29295023119E+02  0.12173387572E+03  0.95333890190E+02  0.23313061896E+03  0.17200000000E+03 0. -1.
         -6    1    1    2    0  503  0.29295023119E+02 -0.12173387572E+03 -0.15230898724E+02  0.21329161998E+03  0.17200000000E+03 0.  1.
</event>
<event>
 4    1  0.4539494E+000  0.3188291E+03  0.7818608E-02  0.1076189E+00
         21   -1    0    0  503  502  0.00000000000E+00  0.00000000000E+00  0.25605814836E+03  0.25605814836E+03  0.00000000000E+00 0.  1.
         21   -1    0    0  501  503 -0.00000000000E+00 -0.00000000000E+00 -0.40817581285E+03  0.40817581285E+03  0.00000000000E+00 0. -1.
          6    1    1    2  501    0  0.26781749971E+03  0.18486530123E+02 -0.13104375586E+03  0.34470919758E+03  0.17200000000E+03 0. -1.
         -6    1    1    2    0  502 -0.26781749971E+03 -0.18486530123E+02 -0.21073908630E+02  0.31952476363E+03  0.17200000000E+03 0.  1.
</event>
<event>
 4    1  0.4539494E+000  0.1926454E+03  0.7818608E-02  0.1156097E+00
         21   -1    0    0  503  502  0.00000000000E+00  0.00000000000E+00  0.72071881934E+03  0.72071881934E+03  0.00000000000E+00 0.  1.
         21   -1    0    0  501  503 -0.00000000000E+00 -0.00000000000E+00 -0.55579872022E+02  0.55579872022E+02  0.00000000000E+00 0.  1.
          6    1    1    2  501    0 -0.77882941628E+02  0.38242568508E+02  0.43781787738E+03  0.47832702244E+03  0.17200000000E+03 0.  1.
         -6    1    1    2    0  502  0.77882941628E+02 -0.38242568508E+02  0.22732106994E+03  0.29797166892E+03  0.17200000000E+03 0.  1.
</event>
<event>
 4    1  0.4539494E+000  0.1995644E+03  0.7818608E-02  0.1150107E+00
         21   -1    0    0  503  502  0.00000000000E+00  0.00000000000E+00  0.19688870833E+03  0.19688870833E+03  0.00000000000E+00 0.  1.
         21   -1    0    0  501  503 -0.00000000000E+00 -0.00000000000E+00 -0.20379823116E+03  0.20379823116E+03  0.00000000000E+00 0.  1.
          6    1    1    2  501    0  0.25170233389E+02  0.98022592629E+02  0.13856803916E+02  0.20004494577E+03  0.17200000000E+03 0. -1.
         -6    1    1    2    0  502 -0.25170233389E+02 -0.98022592629E+02 -0.20766326742E+02  0.20064199371E+03  0.17200000000E+03 0. -1.
</event>
<event>
 4    1  0.4539494E+000  0.1830291E+03  0.7818608E-02  0.1164903E+00
         21   -1    0    0  503  502  0.00000000000E+00  0.00000000000E+00  0.69977822042E+02  0.69977822042E+02  0.00000000000E+00 0.  1.
         21   -1    0    0  501  503 -0.00000000000E+00 -0.00000000000E+00 -0.49786095930E+03  0.49786095930E+03  0.00000000000E+00 0.  1.
          6    1    1    2  501    0  0.84174139633E+01  0.62006313939E+02 -0.26961483746E+03  0.32587082779E+03  0.17200000000E+03 0.  1.
         -6    1    1    2    0  502 -0.84174139633E+01 -0.62006313939E+02 -0.15826829980E+03  0.24196795356E+03  0.17200000000E+03 0.  1.
</event>
<event>
 4    1  0.4539494E+000  0.2185259E+03  0.7818608E-02  0.1134987E+00
         21   -1    0    0  501  502  0.00000000000E+00  0.00000000000E+00  0.77350755348E+03  0.77350755348E+03  0.00000000000E+00 0. -1.
         21   -1    0    0  502  503 -0.00000000000E+00 -0.00000000000E+00 -0.34745540125E+03  0.34745540125E+03  0.00000000000E+00 0.  1.
          6    1    1    2  501    0  0.12202261214E+03 -0.57271667642E+02  0.72128065809E+03  0.75365731571E+03  0.17200000000E+03 0. -1.
         -6    1    1    2    0  503 -0.12202261214E+03  0.57271667642E+02 -0.29522850586E+03  0.36730563903E+03  0.17200000000E+03 0.  1.
</event>
<event>
 4    1  0.4539494E+000  0.2141434E+03  0.7818608E-02  0.1138326E+00
         21   -1    0    0  501  502  0.00000000000E+00  0.00000000000E+00  0.73064220550E+03  0.73064220550E+03  0.00000000000E+00 0. -1.
         21   -1    0    0  502  503 -0.00000000000E+00 -0.00000000000E+00 -0.77204145836E+02  0.77204145836E+02  0.00000000000E+00 0. -1.
          6    1    1    2  501    0  0.12455573602E+03 -0.27554603106E+02  0.50141280073E+03  0.54522672739E+03  0.17200000000E+03 0. -1.
         -6    1    1    2    0  503 -0.12455573602E+03  0.27554603106E+02  0.15202525894E+03  0.26261962395E+03  0.17200000000E+03 0. -1.
</event>
<event>
 4    1  0.4539494E+000  0.2408594E+03  0.7818608E-02  0.1119222E+00
         21   -1    0    0  503  502  0.00000000000E+00  0.00000000000E+00  0.83630228511E+03  0.83630228511E+03  0.00000000000E+00 0.  1.
         21   -1    0    0  501  503 -0.00000000000E+00 -0.00000000000E+00 -0.97116077008E+03  0.97116077008E+03  0.00000000000E+00 0. -1.
          6    1    1    2  501    0 -0.15302601865E+03 -0.70797629137E+02 -0.93828666027E+03  0.96870796607E+03  0.17200000000E+03 0. -1.
         -6    1    1    2    0  502  0.15302601865E+03  0.70797629137E+02  0.80342817530E+03  0.83875508913E+03  0.17200000000E+03 0.  1.
</event>
<event>
 4    1  0.4539494E+000  0.2010217E+03  0.7818608E-02  0.1148880E+00
         21   -1    0    0  501  502  0.00000000000E+00  0.00000000000E+00  0.25257908561E+03  0.25257908561E+03  0.00000000000E+00 0.  1.
         21   -1    0    0  502  503 -0.00000000000E+00 -0.00000000000E+00 -0.16097088900E+03  0.16097088900E+03  0.00000000000E+00 0. -1.
          6    1    1    2  501    0 -0.84972516045E+02  0.60045109405E+02  0.29650443623E+02  0.20319668416E+03  0.17200000000E+03 0. -1.
         -6    1    1    2    0  503  0.84972516045E+02 -0.60045109405E+02  0.61957752994E+02  0.21035329045E+03  0.17200000000E+03 0.  1.
</event>
<event>
 4    1  0.4539494E+000  0.1753000E+03  0.7818608E-02  0.1172431E+00
         21   -1    0    0  501  502  0.00000000000E+00  0.00000000000E+00  0.60328597537E+02  0.60328597537E+02  0.00000000000E+00 0.  1.
         21   -1    0    0  502  503 -0.00000000000E+00 -0.00000000000E+00 -0.91011197979E+03  0.91011197979E+03  0.00000000000E+00 0.  1.
          6    1    1    2  501    0  0.65587297933E+01 -0.33212524041E+02 -0.10291875604E+03  0.20327901769E+03  0.17200000000E+03 0.  1.
         -6    1    1    2    0  503 -0.65587297933E+01  0.33212524041E+02 -0.74686462622E+03  0.76716155964E+03  0.17200000000E+03 0.  1.
</event>
<event>
 4    1  0.4539494E+000  0.1773531E+03  0.7818608E-02  0.1170390E+00
         21   -1    0    0  503  502  0.00000000000E+00  0.00000000000E+00  0.12656192499E+03  0.12656192499E+03  0.00000000000E+00 0. -1.
         21   -1    0    0  501  503 -0.00000000000E+00 -0.00000000000E+00 -0.24867273199E+03  0.24867273199E+03  0.00000000000E+00 0. -1.
          6    1    1    2  501    0 -0.38599066771E+02  0.19499587832E+02 -0.56521693222E+02  0.18614194499E+03  0.17200000000E+03 0.  1.
         -6    1    1    2    0  502  0.38599066771E+02 -0.19499587832E+02 -0.65589113783E+02  0.18909271199E+03  0.17200000000E+03 0.  1.
</event>
<event>
 4    1  0.4539494E+000  0.2280955E+03  0.7818608E-02  0.1127987E+00
         21   -1    0    0  501  502  0.00000000000E+00  0.00000000000E+00  0.33268573536E+03  0.33268573536E+03  0.00000000000E+00 0. -1.
         21   -1    0    0  502  503 -0.00000000000E+00 -0.00000000000E+00 -0.15924082320E+03  0.15924082320E+03  0.00000000000E+00 0. -1.
          6    1    1    2  501    0  0.13367566980E+03  0.67634214281E+02  0.11965243604E+03  0.25757382842E+03  0.17200000000E+03 0. -1.
         -6    1    1    2    0  503 -0.13367566980E+03 -0.67634214281E+02  0.53792476128E+02  0.23435273014E+03  0.17200000000E+03 0. -1.
</event>
<event>
 4    1  0.4539494E+000  0.1988534E+03  0.7818608E-02  0.1150710E+00
         21   -1    0    0  501  502  0.00000000000E+00  0.00000000000E+00  0.18493216579E+03  0.18493216579E+03  0.00000000000E+00 0.  1.
         21   -1    0    0  502  503 -0.00000000000E+00 -0.00000000000E+00 -0.22180984004E+03  0.22180984004E+03  0.00000000000E+00 0.  1.
          6    1    1    2  501    0 -0.49093222202E+02 -0.86882381646E+02  0.20152925390E+02  0.19987204184E+03  0.17200000000E+03 0.  1.
         -6    1    1    2    0  503  0.49093222202E+02  0.86882381646E+02 -0.57030599637E+02  0.20686996399E+03  0.17200000000E+03 0.  1.
</event>
<event>
 4    1  0.4539494E+000  0.1901791E+03  0.7818608E-02  0.1158300E+00
         21   -1    0    0  501  502  0.00000000000E+00  0.00000000000E+00  0.28427797396E+03  0.28427797396E+03  0.00000000000E+00 0. -1.
         21   -1    0    0  502  503 -0.00000000000E+00 -0.00000000000E+00 -0.43413037615E+03  0.43413037615E+03  0.00000000000E+00 0.  1.
          6    1    1    2  501    0 -0.27473489161E+02 -0.76349808124E+02  0.22709087196E+03  0.29620660008E+03  0.17200000000E+03 0. -1.
         -6    1    1    2    0  503  0.27473489161E+02  0.76349808124E+02 -0.37694327414E+03  0.42220175003E+03  0.17200000000E+03 0.  1.
</event>
<event>
 4    1  0.4539494E+000  0.1960767E+03  0.7818608E-02  0.1153092E+00
         21   -1    0    0  501  502  0.00000000000E+00  0.00000000000E+00  0.80764677154E+03  0.80764677154E+03  0.00000000000E+00 0. -1.
         21   -1    0    0  502  503 -0.00000000000E+00 -0.00000000000E+00 -0.63978757781E+02  0.63978757781E+02  0.00000000000E+00 0. -1.
          6    1    1    2  501    0 -0.78022031037E+02 -0.52674772554E+02  0.59232372090E+03  0.62393385814E+03  0.17200000000E+03 0. -1.
         -6    1    1    2    0  503  0.78022031037E+02  0.52674772554E+02  0.15134429285E+03  0.24769167118E+03  0.17200000000E+03 0. -1.
</event>
<event>
 4    1  0.4539494E+000  0.1945164E+03  0.7818608E-02  0.1154450E+00
         21   -1    0    0  501  502  0.00000000000E+00  0.00000000000E+00  0.11617696598E+04  0.11617696598E+04  0.00000000000E+00 0.  1.
         21   -1    0    0  502  503 -0.00000000000E+00 -0.00000000000E+00 -0.50262897865E+02  0.50262897865E+02  0.00000000000E+00 0.  1.
          6    1    1    2  501    0  0.66774781117E+02 -0.61593604555E+02  0.91532316851E+03  0.93576340296E+03  0.17200000000E+03 0.  1.
         -6    1    1    2    0  503 -0.66774781117E+02  0.61593604555E+02  0.19618359346E+03  0.27626915473E+03  0.17200000000E+03 0.  1.
</event>
<event>
 4    1  0.4539494E+000  0.1984893E+03  0.7818608E-02  0.1151020E+00
         21   -1    0    0  503  502  0.00000000000E+00  0.00000000000E+00  0.27059025121E+03  0.27059025121E+03  0.00000000000E+00 0. -1.
         21   -1    0    0  501  503 -0.00000000000E+00 -0.00000000000E+00 -0.14679192216E+03  0.14679192216E+03  0.00000000000E+00 0.  1.
          6    1    1    2  501    0  0.97033994290E+02  0.19960194461E+02  0.80702422855E+02  0.21426825818E+03  0.17200000000E+03 0.  1.
         -6    1    1    2    0  502 -0.97033994290E+02 -0.19960194461E+02  0.43095906202E+02  0.20311391519E+03  0.17200000000E+03 0.  1.
</event>
<event>
 4    1  0.4539494E+000  0.2943192E+03  0.7818608E-02  0.1088115E+00
         21   -1    0    0  503  502  0.00000000000E+00  0.00000000000E+00  0.13379236026E+03  0.13379236026E+03  0.00000000000E+00 0. -1.
         21   -1    0    0  501  503 -0.00000000000E+00 -0.00000000000E+00 -0.10384242372E+04  0.10384242372E+04  0.00000000000E+00 0.  1.
          6    1    1    2  501    0  0.13591584928E+03 -0.19638399286E+03 -0.81195332720E+03  0.86365039008E+03  0.17200000000E+03 0.  1.
         -6    1    1    2    0  502 -0.13591584928E+03  0.19638399286E+03 -0.92678549700E+02  0.30856620734E+03  0.17200000000E+03 0. -1.
</event>
<event>
 4    1  0.4539494E+000  0.1830806E+03  0.7818608E-02  0.1164854E+00
         21   -1    0    0  501  502  0.00000000000E+00  0.00000000000E+00  0.12781168861E+04  0.12781168861E+04  0.00000000000E+00 0.  1.
         21   -1    0    0  502  503 -0.00000000000E+00 -0.00000000000E+00 -0.36587003151E+02  0.36587003151E+02  0.00000000000E+00 0.  1.
          6    1    1    2  501    0  0.11515299718E+02  0.61659595271E+02  0.97059583235E+03  0.98771188997E+03  0.17200000000E+03 0.  1.
         -6    1    1    2    0  503 -0.11515299718E+02 -0.61659595271E+02  0.27093405058E+03  0.32699199926E+03  0.17200000000E+03 0.  1.
</event>
<event>
 4    1  0.4539494E+000  0.2848448E+03  0.7818608E-02  0.1093072E+00
         21   -1    0    0  501  502  0.00000000000E+00  0.00000000000E+00  0.10732957910E+04  0.10732957910E+04  0.00000000000E+00 0. -1.
         21   -1    0    0  502  503 -0.00000000000E+00 -0.00000000000E+00 -0.91938432022E+02  0.91938432022E+02  0.00000000000E+00 0. -1.
          6    1    1    2  501    0  0.22582779867E+03  0.23545412922E+02  0.73631726744E+03  0.78949331818E+03  0.17200000000E+03 0. -1.
         -6    1    1    2    0  503 -0.22582779867E+03 -0.23545412922E+02  0.24504009159E+03  0.37574090489E+03  0.17200000000E+03 0. -1.
</event>
<event>
 4    1  0.4539494E+000  0.2058852E+03  0.7818608E-02  0.1144867E+00
         21   -1    0    0  501  502  0.00000000000E+00  0.00000000000E+00  0.14772687622E+04  0.14772687622E+04  0.00000000000E+00 0. -1.
         21   -1    0    0  502  503 -0.00000000000E+00 -0.00000000000E+00 -0.28742636529E+02  0.28742636529E+02  0.00000000000E+00 0.  1.
          6    1    1    2  501    0  0.10662992484E+03 -0.37878159483E+02  0.75525005791E+03  0.78280990401E+03  0.17200000000E+03 0.  1.
         -6    1    1    2    0  503 -0.10662992484E+03  0.37878159483E+02  0.69327606772E+03  0.72320149469E+03  0.17200000000E+03 0.  1.
</event>
<event>
 4    1  0.4539494E+000  0.1762565E+03  0.7818608E-02  0.1171476E+00
         21   -1    0    0  501  502  0.00000000000E+00  0.00000000000E+00  0.50495817459E+03  0.50495817459E+03  0.00000000000E+00 0.  1.
         21   -1    0    0  502  503 -0.00000000000E+00 -0.00000000000E+00 -0.11279793543E+03  0.11279793543E+03  0.00000000000E+00 0.  1.
          6    1    1    2  501    0  0.29076716492E+02  0.25236727989E+02  0.40433283155E+03  0.44107979613E+03  0.17200000000E+03 0.  1.
         -6    1    1    2    0  503 -0.29076716492E+02 -0.25236727989E+02 -0.12172592392E+02  0.17667631388E+03  0.17200000000E+03 0.  1.
</event>
<event>
 4    1  0.4539494E+000  0.2346459E+03  0.7818608E-02  0.1123412E+00
         21   -1    0    0  501  502  0.00000000000E+00  0.00000000000E+00  0.24738554944E+03  0.24738554944E+03  0.00000000000E+00 0. -1.
         21   -1    0    0  502  503 -0.00000000000E+00 -0.00000000000E+00 -0.90220840772E+03  0.90220840772E+03  0.00000000000E+00 0. -1.
          6    1    1    2  501    0  0.12822312323E+03  0.95044795183E+02  0.17147590406E+03  0.29062461715E+03  0.17200000000E+03 0. -1.
         -6    1    1    2    0  503 -0.12822312323E+03 -0.95044795183E+02 -0.82629876234E+03  0.85896934000E+03  0.17200000000E+03 0. -1.
</event>
<event>
 4    1  0.4539494E+000  0.1951980E+03  0.7818608E-02  0.1153855E+00
         21   -1    0    0  503  502  0.00000000000E+00  0.00000000000E+00  0.27646205785E+03  0.27646205785E+03  0.00000000000E+00 0. -1.
         21   -1    0    0  501  503 -0.00000000000E+00 -0.00000000000E+00 -0.16890858027E+03  0.16890858027E+03  0.00000000000E+00 0. -1.
          6    1    1    2  501    0  0.38777503971E+02  0.83753021202E+02  0.14931108626E+03  0.24575610644E+03  0.17200000000E+03 0. -1.
         -6    1    1    2    0  502 -0.38777503971E+02 -0.83753021202E+02 -0.41757608672E+02  0.19961453168E+03  0.17200000000E+03 0. -1.
</event>
<event>
 4    1  0.4539494E+000  0.2879765E+03  0.7818608E-02  0.1091410E+00
         21   -1    0    0  503  502  0.00000000000E+00  0.00000000000E+00  0.11690215808E+04  0.11690215808E+04  0.00000000000E+00 0. -1.
         21   -1    0    0  501  503 -0.00000000000E+00 -0.00000000000E+00 -0.79422358018E+02  0.79422358018E+02  0.00000000000E+00 0.  1.
          6    1    1    2  501    0  0.66958351006E+00 -0.23096761491E+03  0.34080258048E+03  0.44618032939E+03  0.17200000000E+03 0.  1.
         -6    1    1    2    0  502 -0.66958351006E+00  0.23096761491E+03  0.74879664226E+03  0.80226360938E+03  0.17200000000E+03 0. -1.
</event>
<event>
 4    1  0.4539494E+000  0.1781491E+03  0.7818608E-02  0.1169606E+00
         21   -1    0    0  503  502  0.00000000000E+00  0.00000000000E+00  0.22087156140E+02  0.22087156140E+02  0.00000000000E+00 0. -1.
         21   -1    0    0  501  503 -0.00000000000E+00 -0.00000000000E+00 -0.19334695978E+04  0.19334695978E+04  0.00000000000E+00 0. -1.
          6    1    1    2  501    0  0.13755018758E+02  0.44316067227E+02 -0.14512101397E+04  0.14621039580E+04  0.17200000000E+03 0. -1.
         -6    1    1    2    0  502 -0.13755018758E+02 -0.44316067227E+02 -0.46017230196E+03  0.49345279596E+03  0.17200000000E+03 0. -1.
</event>
<event>
 4    1  0.4539494E+000  0.1914190E+03  0.7818608E-02  0.1157188E+00
         21   -1    0    0  503  502  0.00000000000E+00  0.00000000000E+00  0.28103237179E+03  0.28103237179E+03  0.00000000000E+00 0.  1.
         21   -1    0    0  501  503 -0.00000000000E+00 -0.00000000000E+00 -0.21375797497E+03  0.21375797497E+03  0.00000000000E+00 0.  1.
          6    1    1    2  501    0  0.56554549715E+02  0.62119357551E+02 -0.12087173321E+03  0.22638729550E+03  0.17200000000E+03 0.  1.
         -6    1    1    2    0  502 -0.56554549715E+02 -0.62119357551E+02  0.18814613003E+03  0.26840305125E+03  0.17200000000E+03 0.  1.
</event>
<event>
 4    1  0.4539494E+000  0.2118168E+03  0.7818608E-02  0.1140135E+00
         21   -1    0    0  501  502  0.00000000000E+00  0.00000000000E+00  0.43319320576E+02  0.43319320576E+02  0.00000000000E+00 0.  1.
         21   -1    0    0  502  503 -0.00000000000E+00 -0.00000000000E+00 -0.10441704010E+04  0.10441704010E+04  0.00000000000E+00 0. -1.
          6    1    1    2  501    0 -0.66775570674E+02 -0.10403541226E+03 -0.54936412709E+03  0.58878458538E+03  0.17200000000E+03 0. -1.
         -6    1    1    2    0  503  0.66775570674E+02  0.10403541226E+03 -0.45148695334E+03  0.49870513621E+03  0.17200000000E+03 0.  1.
</event>
<event>
 4    1  0.4539494E+000  0.1785788E+03  0.7818608E-02  0.1169186E+00
         21   -1    0    0  503  502  0.00000000000E+00  0.00000000000E+00  0.69296975148E+03  0.69296975148E+03  0.00000000000E+00 0. -1.
         21   -1    0    0  501  503 -0.00000000000E+00 -0.00000000000E+00 -0.11300891671E+03  0.11300891671E+03  0.00000000000E+00 0. -1.
          6    1    1    2  501    0 -0.21172571562E+02  0.43105940220E+02 -0.20289015467E+02  0.17972769407E+03  0.17200000000E+03 0. -1.
         -6    1    1    2    0  502  0.21172571562E+02 -0.43105940220E+02  0.60024985024E+03  0.62625097412E+03  0.17200000000E+03 0. -1.
</event>
<event>
 4    1  0.4539494E+000  0.2480199E+03  0.7818608E-02  0.1114563E+00
         21   -1    0    0  503  502  0.00000000000E+00  0.00000000000E+00  0.19242995305E+03  0.19242995305E+03  0.00000000000E+00 0. -1.
         21   -1    0    0  501  503 -0.00000000000E+00 -0.00000000000E+00 -0.47783868129E+03  0.47783868129E+03  0.00000000000E+00 0.  1.
          6    1    1    2  501    0  0.10039730033E+03  0.14781836009E+03 -0.33551895985E+03  0.41723717226E+03  0.17200000000E+03 0.  1.
         -6    1    1    2    0  502 -0.10039730033E+03 -0.14781836009E+03  0.50110231616E+02  0.25303146209E+03  0.17200000000E+03 0. -1.
</event>
<event>
 4    1  0.4539494E+000  0.1879618E+03  0.7818608E-02  0.1160313E+00
         21   -1    0    0  503  502  0.00000000000E+00  0.00000000000E+00  0.95981369014E+02  0.95981369014E+02  0.00000000000E+00 0. -1.
         21   -1    0    0  501  503 -0.00000000000E+00 -0.00000000000E+00 -0.58699435819E+03  0.58699435819E+03  0.00000000000E+00 0. -1.
          6    1    1    2  501    0  0.30534426855E+02 -0.69377810020E+02 -0.45404538967E+03  0.49141311300E+03  0.17200000000E+03 0. -1.
         -6    1    1    2    0  502 -0.30534426855E+02  0.69377810020E+02 -0.36967599502E+02  0.19156261420E+03  0.17200000000E+03 0. -1.
</event>
<event>
 4    1  0.4539494E+000  0.2396288E+03  0.7818608E-02  0.1120040E+00
         21   -1    0    0  503  502  0.00000000000E+00  0.00000000000E+00  0.34733233660E+03  0.34733233660E+03  0.00000000000E+00 0. -1.
         21   -1    0    0  501  503 -0.00000000000E+00 -0.00000000000E+00 -0.16533453548E+03  0.16533453548E+03  0.00000000000E+00 0.  1.
          6    1    1    2  501    0  0.15995116689E+03  0.47471935347E+02  0.88840892961E+02  0.25556733887E+03  0.17200000000E+03 0. -1.
         -6    1    1    2    0  502 -0.15995116689E+03 -0.47471935347E+02  0.93156908166E+02  0.25709953321E+03  0.17200000000E+03 0.  1.
</event>
<event>
 4    1  0.4539494E+000  0.1870161E+03  0.7818608E-02  0.1161180E+00
         21   -1    0    0  503  502  0.00000000000E+00  0.00000000000E+00  0.15064839790E+03  0.15064839790E+03  0.00000000000E+00 0. -1.
         21   -1    0    0  501  503 -0.00000000000E+00 -0.00000000000E+00 -0.23242735559E+03  0.23242735559E+03  0.00000000000E+00 0.  1.
          6    1    1    2  501    0  0.24449851409E+02 -0.69233236798E+02 -0.47344830236E+02  0.19291596425E+03  0.17200000000E+03 0.  1.
         -6    1    1    2    0  502 -0.24449851409E+02  0.69233236798E+02 -0.34434127445E+02  0.19015978924E+03  0.17200000000E+03 0.  1.
</event>
<event>
 4    1  0.4539494E+000  0.1757972E+03  0.7818608E-02  0.1171934E+00
         21   -1    0    0  503  502  0.00000000000E+00  0.00000000000E+00  0.42747808559E+03  0.42747808559E+03  0.00000000000E+00 0. -1.
         21   -1    0    0  501  503 -0.00000000000E+00 -0.00000000000E+00 -0.13608888641E+03  0.13608888641E+03  0.00000000000E+00 0. -1.
          6    1    1    2  501    0 -0.24385529460E+02 -0.26944427648E+02 -0.47232270331E+02  0.18203171039E+03  0.17200000000E+03 0. -1.
         -6    1    1    2    0  502  0.24385529460E+02  0.26944427648E+02  0.33862146952E+03  0.38153526160E+03  0.17200000000E+03 0. -1.
</event>
<event>
 4    1  0.4539494E+000  0.1729965E+03  0.7818608E-02  0.1174759E+00
         21   -1    0    0  503  502  0.00000000000E+00  0.00000000000E+00  0.41270496143E+03  0.41270496143E+03  0.00000000000E+00 0.  1.
         21   -1    0    0  501  503 -0.00000000000E+00 -0.00000000000E+00 -0.85011084557E+02  0.85011084557E+02  0.00000000000E+00 0.  1.
          6    1    1    2  501    0  0.13012549763E+02  0.13208403707E+02  0.68439926794E+02  0.18604250041E+03  0.17200000000E+03 0.  1.
         -6    1    1    2    0  502 -0.13012549763E+02 -0.13208403707E+02  0.25925395008E+03  0.31167354558E+03  0.17200000000E+03 0.  1.
</event>
<event>
 4    1  0.4539494E+000  0.2410229E+03  0.7818608E-02  0.1119113E+00
         21   -1    0    0  503  502  0.00000000000E+00  0.00000000000E+00  0.22329183638E+03  0.22329183638E+03  0.00000000000E+00 0.  1.
         21   -1    0    0  501  503 -0.00000000000E+00 -0.00000000000E+00 -0.41136057453E+03  0.41136057453E+03  0.00000000000E+00 0.  1.
          6    1    1    2  501    0 -0.25858959434E+02 -0.16685124458E+03 -0.28641822655E+03  0.37433597757E+03  0.17200000000E+03 0.  1.
         -6    1    1    2    0  502  0.25858959434E+02  0.16685124458E+03  0.98349488392E+02  0.26031643334E+03  0.17200000000E+03 0.  1.
</event>
<event>
 4    1  0.4539494E+000  0.1830968E+03  0.7818608E-02  0.1164839E+00
         21   -1    0    0  501  502  0.00000000000E+00  0.00000000000E+00  0.19758889577E+03  0.19758889577E+03  0.00000000000E+00 0. -1.
         21   -1    0    0  502  503 -0.00000000000E+00 -0.00000000000E+00 -0.19376036653E+03  0.19376036653E+03  0.00000000000E+00 0. -1.
          6    1    1    2  501    0 -0.49637150471E+02  0.38426610090E+02  0.70913550405E+02  0.19634964401E+03  0.17200000000E+03 0. -1.
         -6    1    1    2    0  503  0.49637150471E+02 -0.38426610090E+02 -0.67085021165E+02  0.19499961829E+03  0.17200000000E+03 0. -1.
</event>
<event>
 4    1  0.4539494E+000  0.1881562E+03  0.7818608E-02  0.1160135E+00
         21   -1    0    0  503  502  0.00000000000E+00  0.00000000000E+00  0.18640243475E+03  0.18640243475E+03  0.00000000000E+00 0. -1.
         21   -1    0    0  501  503 -0.00000000000E+00 -0.00000000000E+00 -0.31675795482E+03  0.31675795482E+03  0.00000000000E+00 0. -1.
          6    1    1    2  501    0  0.32738607093E+02 -0.68898124588E+02 -0.22437154785E+03  0.29282308559E+03  0.17200000000E+03 0. -1.
         -6    1    1    2    0  502 -0.32738607093E+02  0.68898124588E+02  0.94016027784E+02  0.21033730398E+03  0.17200000000E+03 0. -1.
</event>
<event>
 4    1  0.4539494E+000  0.3045577E+03  0.7818608E-02  0.1082984E+00
         21   -1    0    0  501  502  0.00000000000E+00  0.00000000000E+00  0.55770101277E+02  0.55770101277E+02  0.00000000000E+00 0. -1.
         21   -1    0    0  502  503 -0.00000000000E+00 -0.00000000000E+00 -0.24080970604E+04  0.24080970604E+04  0.00000000000E+00 0.  1.
          6    1    1    2  501    0 -0.10739478963E+03  0.22723943255E+03 -0.49098152813E+03  0.57777007669E+03  0.17200000000E+03 0. -1.
         -6    1    1    2    0  503  0.10739478963E+03 -0.22723943255E+03 -0.18613454309E+04  0.18860970849E+04  0.17200000000E+03 0.  1.
</event>
<event>
 4    1  0.4539494E+000  0.1731863E+03  0.7818608E-02  0.1174565E+00
         21   -1    0    0  503  502  0.00000000000E+00  0.00000000000E+00  0.18592473199E+03  0.18592473199E+03  0.00000000000E+00 0.  1.
         21   -1    0    0  501  503 -0.00000000000E+00 -0.00000000000E+00 -0.16133136540E+03  0.16133136540E+03  0.00000000000E+00 0.  1.
          6    1    1    2  501    0 -0.17643138417E+02 -0.99098036145E+01  0.13716700240E+02  0.17372861712E+03  0.17200000000E+03 0.  1.
         -6    1    1    2    0  502  0.17643138417E+02  0.99098036145E+01  0.10876666350E+02  0.17352748028E+03  0.17200000000E+03 0.  1.
</event>
<event>
 4    1  0.4539494E+000  0.1913505E+03  0.7818608E-02  0.1157249E+00
         21   -1    0    0  501  502  0.00000000000E+00  0.00000000000E+00  0.37091599145E+03  0.37091599145E+03  0.00000000000E+00 0.  1.
         21   -1    0    0  502  503 -0.00000000000E+00 -0.00000000000E+00 -0.10465597908E+03  0.10465597908E+03  0.00000000000E+00 0.  1.
          6    1    1    2  501    0  0.57992727152E+02  0.60562743631E+02  0.18978396536E+03  0.26950502004E+03  0.17200000000E+03 0.  1.
         -6    1    1    2    0  503 -0.57992727152E+02 -0.60562743631E+02  0.76476047000E+02  0.20606695049E+03  0.17200000000E+03 0.  1.
</event>
<event>
 4    1  0.4539494E+000  0.1730222E+03  0.7818608E-02  0.1174732E+00
         21   -1    0    0  503  502  0.00000000000E+00  0.00000000000E+00  0.97863249190E+03  0.97863249190E+03  0.00000000000E+00 0. -1.
         21   -1    0    0  501  503 -0.00000000000E+00 -0.00000000000E+00 -0.42093878279E+02  0.42093878279E+02  0.00000000000E+00 0. -1.
          6    1    1    2  501    0  0.88077806234E+01  0.16586700703E+02  0.73506922161E+03  0.75515790150E+03  0.17200000000E+03 0. -1.
         -6    1    1    2    0  502 -0.88077806234E+01 -0.16586700703E+02  0.20146939202E+03  0.26556846868E+03  0.17200000000E+03 0. -1.
</event>
<event>
 4    1  0.4539494E+000  0.3042271E+03  0.7818608E-02  0.1083146E+00
         21   -1    0    0  501  502  0.00000000000E+00  0.00000000000E+00  0.13728334390E+03  0.13728334390E+03  0.00000000000E+00 0. -1.
         21   -1    0    0  502  503 -0.00000000000E+00 -0.00000000000E+00 -0.10876777054E+04  0.10876777054E+04  0.00000000000E+00 0. -1.
          6    1    1    2  501    0 -0.17333928170E+03  0.18144874117E+03 -0.97558097925E+02  0.31948667378E+03  0.17200000000E+03 0. -1.
         -6    1    1    2    0  503  0.17333928170E+03 -0.18144874117E+03 -0.85283626359E+03  0.90547437553E+03  0.17200000000E+03 0. -1.
</event>
<event>
 4    1  0.4539494E+000  0.1949235E+03  0.7818608E-02  0.1154094E+00
         21   -1    0    0  501  502  0.00000000000E+00  0.00000000000E+00  0.18189508474E+03  0.18189508474E+03  0.00000000000E+00 0.  1.
         21   -1    0    0  502  503 -0.00000000000E+00 -0.00000000000E+00 -0.69571613296E+03  0.69571613296E+03  0.00000000000E+00 0. -1.
          6    1    1    2  501    0  0.86697711266E+02  0.29910979109E+02  0.11015643369E+03  0.22389640393E+03  0.17200000000E+03 0.  1.
         -6    1    1    2    0  503 -0.86697711266E+02 -0.29910979109E+02 -0.62397748191E+03  0.65371481377E+03  0.17200000000E+03 0. -1.
</event>
<event>
 4    1  0.4539494E+000  0.2018448E+03  0.7818608E-02  0.1148192E+00
         21   -1    0    0  501  502  0.00000000000E+00  0.00000000000E+00  0.15312244981E+03  0.15312244981E+03  0.00000000000E+00 0.  1.
         21   -1    0    0  502  503 -0.00000000000E+00 -0.00000000000E+00 -0.40323870071E+03  0.40323870071E+03  0.00000000000E+00 0. -1.
          6    1    1    2  501    0 -0.43698401887E+02  0.96165265825E+02  0.37187508671E+02  0.20524185606E+03  0.17200000000E+03 0.  1.
         -6    1    1    2    0  503  0.43698401887E+02 -0.96165265825E+02 -0.28730375957E+03  0.35111929446E+03  0.17200000000E+03 0. -1.
</event>
<event>
 4    1  0.4539494E+000  0.2384864E+03  0.7818608E-02  0.1120805E+00
         21   -1    0    0  503  502  0.00000000000E+00  0.00000000000E+00  0.15144751760E+03  0.15144751760E+03  0.00000000000E+00 0.  1.
         21   -1    0    0  501  503 -0.00000000000E+00 -0.00000000000E+00 -0.40775544797E+03  0.40775544797E+03  0.00000000000E+00 0.  1.
          6    1    1    2  501    0  0.83131084103E+02  0.14276198333E+03 -0.20673541285E+03  0.31561890304E+03  0.17200000000E+03 0.  1.
         -6    1    1    2    0  502 -0.83131084103E+02 -0.14276198333E+03 -0.49572517511E+02  0.24358406253E+03  0.17200000000E+03 0.  1.
</event>
<event>
 4    1  0.4539494E+000  0.1795402E+03  0.7818608E-02  0.1168249E+00
         21   -1    0    0  503  502  0.00000000000E+00  0.00000000000E+00  0.27260972163E+03  0.27260972163E+03  0.00000000000E+00 0. -1.
         21   -1    0    0  501  503 -0.00000000000E+00 -0.00000000000E+00 -0.24301869961E+03  0.24301869961E+03  0.00000000000E+00 0. -1.
          6    1    1    2  501    0  0.14247597040E+02  0.49474197760E+02 -0.16993933677E+03  0.24721259767E+03  0.17200000000E+03 0. -1.
         -6    1    1    2    0  502 -0.14247597040E+02 -0.49474197760E+02  0.19953035879E+03  0.26841582357E+03  0.17200000000E+03 0. -1.
</event>
<event>
 4    1  0.4539494E+000  0.2174895E+03  0.7818608E-02  0.1135769E+00
         21   -1    0    0  501  502  0.00000000000E+00  0.00000000000E+00  0.43388768698E+03  0.43388768698E+03  0.00000000000E+00 0.  1.
         21   -1    0    0  502  503 -0.00000000000E+00 -0.00000000000E+00 -0.11469275925E+03  0.11469275925E+03  0.00000000000E+00 0. -1.
          6    1    1    2  501    0 -0.54033660892E+02 -0.12164713843E+03  0.22060839808E+03  0.30978981278E+03  0.17200000000E+03 0.  1.
         -6    1    1    2    0  503  0.54033660892E+02  0.12164713843E+03  0.98586529646E+02  0.23879063345E+03  0.17200000000E+03 0. -1.
</event>
<event>
 4    1  0.4539494E+000  0.1886233E+03  0.7818608E-02  0.1159709E+00
         21   -1    0    0  501  502  0.00000000000E+00  0.00000000000E+00  0.23694161018E+03  0.23694161018E+03  0.00000000000E+00 0.  1.
         21   -1    0    0  502  503 -0.00000000000E+00 -0.00000000000E+00 -0.15016355804E+03  0.15016355804E+03  0.00000000000E+00 0.  1.
          6    1    1    2  501    0  0.28484157573E+02  0.71995859244E+02  0.42244435587E+02  0.19329599923E+03  0.17200000000E+03 0. -1.
         -6    1    1    2    0  503 -0.28484157573E+02 -0.71995859244E+02  0.44533616552E+02  0.19380916899E+03  0.17200000000E+03 0. -1.
</event>
<event>
 4    1  0.4539494E+000  0.2026636E+03  0.7818608E-02  0.1147511E+00
         21   -1    0    0  503  502  0.00000000000E+00  0.00000000000E+00  0.26501672399E+03  0.26501672399E+03  0.00000000000E+00 0.  1.
         21   -1    0    0  501  503 -0.00000000000E+00 -0.00000000000E+00 -0.15846258857E+03  0.15846258857E+03  0.00000000000E+00 0. -1.
          6    1    1    2  501    0 -0.92470663148E+02  0.54200482625E+02  0.21890977879E+02  0.20384241652E+03  0.17200000000E+03 0. -1.
         -6    1    1    2    0  502  0.92470663148E+02 -0.54200482625E+02  0.84663157535E+02  0.21963689604E+03  0.17200000000E+03 0.  1.
</event>
<event>
 4    1  0.4539494E+000  0.1844973E+03  0.7818608E-02  0.1163520E+00
         21   -1    0    0  503  502  0.00000000000E+00  0.00000000000E+00  0.19973083635E+03  0.19973083635E+03  0.00000000000E+00 0. -1.
         21   -1    0    0  501  503 -0.00000000000E+00 -0.00000000000E+00 -0.23114860705E+03  0.23114860705E+03  0.00000000000E+00 0. -1.
          6    1    1    2  501    0 -0.93099579367E+01 -0.66095196426E+02 -0.12613116937E+03  0.22349121279E+03  0.17200000000E+03 0.  1.
         -6    1    1    2    0  502  0.93099579367E+01  0.66095196426E+02  0.94713398672E+02  0.20738823061E+03  0.17200000000E+03 0.  1.
</event>
<event>
 4    1  0.4539494E+000  0.2312963E+03  0.7818608E-02  0.1125731E+00
         21   -1    0    0  503  502  0.00000000000E+00  0.00000000000E+00  0.35745171135E+03  0.35745171135E+03  0.00000000000E+00 0.  1.
         21   -1    0    0  501  503 -0.00000000000E+00 -0.00000000000E+00 -0.16754720780E+03  0.16754720780E+03  0.00000000000E+00 0.  1.
          6    1    1    2  501    0  0.15307735828E+03 -0.21938089704E+02  0.18070976616E+03  0.29351997714E+03  0.17200000000E+03 0.  1.
         -6    1    1    2    0  502 -0.15307735828E+03  0.21938089704E+02  0.91947373928E+01  0.23147894201E+03  0.17200000000E+03 0.  1.
</event>
<event>
 4    1  0.4539494E+000  0.2739650E+03  0.7818608E-02  0.1099032E+00
         21   -1    0    0  503  502  0.00000000000E+00  0.00000000000E+00  0.54913069853E+03  0.54913069853E+03  0.00000000000E+00 0.  1.
         21   -1    0    0  501  503 -0.00000000000E+00 -0.00000000000E+00 -0.27469446306E+03  0.27469446306E+03  0.00000000000E+00 0. -1.
          6    1    1    2  501    0 -0.17993623819E+03 -0.11443673396E+03 -0.15475154470E+03  0.31465037182E+03  0.17200000000E+03 0. -1.
         -6    1    1    2    0  502  0.17993623819E+03  0.11443673396E+03  0.42918778017E+03  0.50917478977E+03  0.17200000000E+03 0.  1.
</event>
<event>
 4    1  0.4539494E+000  0.2040664E+03  0.7818608E-02  0.1146353E+00
         21   -1    0    0  501  502  0.00000000000E+00  0.00000000000E+00  0.11145291879E+03  0.11145291879E+03  0.00000000000E+00 0.  1.
         21   -1    0    0  502  503 -0.00000000000E+00 -0.00000000000E+00 -0.60640189753E+03  0.60640189753E+03  0.00000000000E+00 0.  1.
          6    1    1    2  501    0 -0.10076174553E+03 -0.43659558245E+02 -0.25100587431E+02  0.20560429440E+03  0.17200000000E+03 0.  1.
         -6    1    1    2    0  503  0.10076174553E+03  0.43659558245E+02 -0.46984839130E+03  0.51225052191E+03  0.17200000000E+03 0.  1.
</event>
<event>
 4    1  0.4539494E+000  0.1721753E+03  0.7818608E-02  0.1175598E+00
         21   -1    0    0  503  502  0.00000000000E+00  0.00000000000E+00  0.19946550890E+03  0.19946550890E+03  0.00000000000E+00 0. -1.
         21   -1    0    0  501  503 -0.00000000000E+00 -0.00000000000E+00 -0.19321314288E+03  0.19321314288E+03  0.00000000000E+00 0. -1.
          6    1    1    2  501    0 -0.40834338932E+01 -0.66064362205E+01 -0.91199285930E+02  0.19483744298E+03  0.17200000000E+03 0. -1.
         -6    1    1    2    0  502  0.40834338932E+01  0.66064362205E+01  0.97451651952E+02  0.19784120880E+03  0.17200000000E+03 0. -1.
</event>
<event>
 4    1  0.4539494E+000  0.1860325E+03  0.7818608E-02  0.1162089E+00
         21   -1    0    0  501  502  0.00000000000E+00  0.00000000000E+00  0.56371868633E+02  0.56371868633E+02  0.00000000000E+00 0.  1.
         21   -1    0    0  502  503 -0.00000000000E+00 -0.00000000000E+00 -0.74175862759E+03  0.74175862759E+03  0.00000000000E+00 0.  1.
          6    1    1    2  501    0  0.33962077792E+02  0.62214591665E+02 -0.17702645681E+03  0.25680039828E+03  0.17200000000E+03 0.  1.
         -6    1    1    2    0  503 -0.33962077792E+02 -0.62214591665E+02 -0.50836030214E+03  0.54133009794E+03  0.17200000000E+03 0.  1.
</event>
<event>
 4    1  0.4539494E+000  0.2813459E+03  0.7818608E-02  0.1094956E+00
         21   -1    0    0  501  502  0.00000000000E+00  0.00000000000E+00  0.18814407854E+03  0.18814407854E+03  0.00000000000E+00 0. -1.
         21   -1    0    0  502  503 -0.00000000000E+00 -0.00000000000E+00 -0.52962750796E+03  0.52962750796E+03  0.00000000000E+00 0. -1.
          6    1    1    2  501    0  0.19868791757E+03 -0.10047201453E+03 -0.79977803576E+01  0.28145955088E+03  0.17200000000E+03 0. -1.
         -6    1    1    2    0  503 -0.19868791757E+03  0.10047201453E+03 -0.33348564906E+03  0.43631203561E+03  0.17200000000E+03 0. -1.
</event>
<event>
 4    1  0.4539494E+000  0.1822349E+03  0.7818608E-02  0.1165657E+00
         21   -1    0    0  501  502  0.00000000000E+00  0.00000000000E+00  0.91576312721E+03  0.91576312721E+03  0.00000000000E+00 0. -1.
         21   -1    0    0  502  503 -0.00000000000E+00 -0.00000000000E+00 -0.50903798806E+02  0.50903798806E+02  0.00000000000E+00 0.  1.
          6    1    1    2  501    0 -0.13766736232E+02 -0.58617783923E+02  0.69162902030E+03  0.71523441566E+03  0.17200000000E+03 0. -1.
         -6    1    1    2    0  503  0.13766736232E+02  0.58617783923E+02  0.17323030810E+03  0.25143251035E+03  0.17200000000E+03 0.  1.
</event>
<event>
 4    1  0.4539494E+000  0.1791706E+03  0.7818608E-02  0.1168608E+00
         21   -1    0    0  501  502  0.00000000000E+00  0.00000000000E+00  0.15221156835E+03  0.15221156835E+03  0.00000000000E+00 0. -1.
         21   -1    0    0  502  503 -0.00000000000E+00 -0.00000000000E+00 -0.25320563290E+03  0.25320563290E+03  0.00000000000E+00 0. -1.
          6    1    1    2  501    0 -0.46969268547E+02  0.17662960438E+02 -0.13335073279E+03  0.22334840562E+03  0.17200000000E+03 0. -1.
         -6    1    1    2    0  503  0.46969268547E+02 -0.17662960438E+02  0.32356668240E+02  0.18206879562E+03  0.17200000000E+03 0. -1.
</event>
<event>
 4    1  0.4539494E+000  0.1943611E+03  0.7818608E-02  0.1154586E+00
         21   -1    0    0  501  502  0.00000000000E+00  0.00000000000E+00  0.15236557048E+04  0.15236557048E+04  0.00000000000E+00 0. -1.
         21   -1    0    0  502  503 -0.00000000000E+00 -0.00000000000E+00 -0.34300478429E+02  0.34300478429E+02  0.00000000000E+00 0. -1.
          6    1    1    2  501    0  0.55397102105E+02 -0.71578026444E+02  0.11547910306E+04  0.11710331238E+04  0.17200000000E+03 0. -1.
         -6    1    1    2    0  503 -0.55397102105E+02  0.71578026444E+02  0.33456419578E+03  0.38692305939E+03  0.17200000000E+03 0. -1.
</event>
<event>
 4    1  0.4539494E+000  0.2251141E+03  0.7818608E-02  0.1130127E+00
         21   -1    0    0  503  502  0.00000000000E+00  0.00000000000E+00  0.17663909435E+03  0.17663909435E+03  0.00000000000E+00 0. -1.
         21   -1    0    0  501  503 -0.00000000000E+00 -0.00000000000E+00 -0.32317673334E+03  0.32317673334E+03  0.00000000000E+00 0.  1.
          6    1    1    2  501    0 -0.79961475576E+02  0.12123752945E+03 -0.15700647809E+03  0.27445839445E+03  0.17200000000E+03 0. -1.
         -6    1    1    2    0  502  0.79961475576E+02 -0.12123752945E+03  0.10468839106E+02  0.22535743324E+03  0.17200000000E+03 0.  1.
</event>
<event>
 4    1  0.4539494E+000  0.1802091E+03  0.7818608E-02  0.1167601E+00
         21   -1    0    0  501  502  0.00000000000E+00  0.00000000000E+00  0.46310983400E+02  0.46310983400E+02  0.00000000000E+00 0.  1.
         21   -1    0    0  502  503 -0.00000000000E+00 -0.00000000000E+00 -0.83255678425E+03  0.83255678425E+03  0.00000000000E+00 0.  1.
          6    1    1    2  501    0  0.39492239433E+02  0.36492275548E+02 -0.21860528886E+03  0.28330830462E+03  0.17200000000E+03 0.  1.
         -6    1    1    2    0  503 -0.39492239433E+02 -0.36492275548E+02 -0.56764051199E+03  0.59555946303E+03  0.17200000000E+03 0.  1.
</event>
<event>
 4    1  0.4539494E+000  0.1852515E+03  0.7818608E-02  0.1162815E+00
         21   -1    0    0  501  502  0.00000000000E+00  0.00000000000E+00  0.60472522138E+02  0.60472522138E+02  0.00000000000E+00 0. -1.
         21   -1    0    0  502  503 -0.00000000000E+00 -0.00000000000E+00 -0.75000493267E+03  0.75000493267E+03  0.00000000000E+00 0.  1.
          6    1    1    2  501    0  0.63010752910E+02 -0.27636238812E+02 -0.54466812567E+03  0.57530990240E+03  0.17200000000E+03 0.  1.
         -6    1    1    2    0  503 -0.63010752910E+02  0.27636238812E+02 -0.14486428487E+03  0.23516755241E+03  0.17200000000E+03 0. -1.
</event>
<event>
 4    1  0.4539494E+000  0.2022965E+03  0.7818608E-02  0.1147816E+00
         21   -1    0    0  501  502  0.00000000000E+00  0.00000000000E+00  0.85837476548E+02  0.85837476548E+02  0.00000000000E+00 0. -1.
         21   -1    0    0  502  503 -0.00000000000E+00 -0.00000000000E+00 -0.48079916085E+03  0.48079916085E+03  0.00000000000E+00 0. -1.
          6    1    1    2  501    0 -0.10202921488E+03  0.30494215678E+02 -0.22344948787E+03  0.30141919565E+03  0.17200000000E+03 0. -1.
         -6    1    1    2    0  503  0.10202921488E+03 -0.30494215678E+02 -0.17151219643E+03  0.26521744174E+03  0.17200000000E+03 0. -1.
</event>
<event>
 4    1  0.4539494E+000  0.2376003E+03  0.7818608E-02  0.1121402E+00
         21   -1    0    0  503  502  0.00000000000E+00  0.00000000000E+00  0.13071568600E+03  0.13071568600E+03  0.00000000000E+00 0. -1.
         21   -1    0    0  501  503 -0.00000000000E+00 -0.00000000000E+00 -0.12555883484E+04  0.12555883484E+04  0.00000000000E+00 0.  1.
          6    1    1    2  501    0  0.81288738631E+02  0.14234475185E+03 -0.11238600884E+04  0.11487016087E+04  0.17200000000E+03 0.  1.
         -6    1    1    2    0  502 -0.81288738631E+02 -0.14234475185E+03 -0.10125739781E+01  0.23760242573E+03  0.17200000000E+03 0. -1.
</event>
<event>
 4    1  0.4539494E+000  0.2758654E+03  0.7818608E-02  0.1097969E+00
         21   -1    0    0  503  502  0.00000000000E+00  0.00000000000E+00  0.86365739588E+03  0.86365739588E+03  0.00000000000E+00 0. -1.
         21   -1    0    0  501  503 -0.00000000000E+00 -0.00000000000E+00 -0.90519707859E+02  0.90519707859E+02  0.00000000000E+00 0.  1.
          6    1    1    2  501    0  0.84056246588E+01 -0.21551582554E+03  0.30881880105E+03  0.41409030110E+03  0.17200000000E+03 0. -1.
         -6    1    1    2    0  502 -0.84056246588E+01  0.21551582554E+03  0.46431888697E+03  0.54008680264E+03  0.17200000000E+03 0.  1.
</event>
<event>
 4    1  0.4539494E+000  0.1970345E+03  0.7818608E-02  0.1152265E+00
         21   -1    0    0  503  502  0.00000000000E+00  0.00000000000E+00  0.19426473734E+03  0.19426473734E+03  0.00000000000E+00 0.  1.
         21   -1    0    0  501  503 -0.00000000000E+00 -0.00000000000E+00 -0.30744869436E+03  0.30744869436E+03  0.00000000000E+00 0.  1.
          6    1    1    2  501    0  0.86687752736E+02  0.41519176671E+02 -0.20499931289E+03  0.28433664342E+03  0.17200000000E+03 0.  1.
         -6    1    1    2    0  502 -0.86687752736E+02 -0.41519176671E+02  0.91815355882E+02  0.21737678828E+03  0.17200000000E+03 0.  1.
</event>
<event>
 4    1  0.4539494E+000  0.2021892E+03  0.7818608E-02  0.1147905E+00
         21   -1    0    0  501  502  0.00000000000E+00  0.00000000000E+00  0.12197818243E+04  0.12197818243E+04  0.00000000000E+00 0.  1.
         21   -1    0    0  502  503 -0.00000000000E+00 -0.00000000000E+00 -0.57476389443E+02  0.57476389443E+02  0.00000000000E+00 0.  1.
          6    1    1    2  501    0  0.94555647340E+02 -0.48535489998E+02  0.99350068488E+03  0.10138659059E+04  0.17200000000E+03 0.  1.
         -6    1    1    2    0  503 -0.94555647340E+02  0.48535489998E+02  0.16880474999E+03  0.26339230789E+03  0.17200000000E+03 0.  1.
</event>
<event>
 4    1  0.4539494E+000  0.2103884E+03  0.7818608E-02  0.1141259E+00
         21   -1    0    0  501  502  0.00000000000E+00  0.00000000000E+00  0.13617626042E+04  0.13617626042E+04  0.00000000000E+00 0. -1.
         21   -1    0    0  502  503 -0.00000000000E+00 -0.00000000000E+00 -0.36333661297E+02  0.36333661297E+02  0.00000000000E+00 0. -1.
          6    1    1    2  501    0  0.57172634601E+01 -0.12102312734E+03  0.88965374689E+03  0.91419203333E+03  0.17200000000E+03 0. -1.
         -6    1    1    2    0  503 -0.57172634601E+01  0.12102312734E+03  0.43577519606E+03  0.48390423221E+03  0.17200000000E+03 0. -1.
</event>
<event>
 4    1  0.4539494E+000  0.2431480E+03  0.7818608E-02  0.1117713E+00
         21   -1    0    0  503  502  0.00000000000E+00  0.00000000000E+00  0.17737273718E+04  0.17737273718E+04  0.00000000000E+00 0. -1.
         21   -1    0    0  501  503 -0.00000000000E+00 -0.00000000000E+00 -0.34004043876E+02  0.34004043876E+02  0.00000000000E+00 0. -1.
          6    1    1    2  501    0  0.16928513796E+03 -0.29656060625E+02  0.74274316033E+03  0.78152948894E+03  0.17200000000E+03 0. -1.
         -6    1    1    2    0  502 -0.16928513796E+03  0.29656060625E+02  0.99698016761E+03  0.10262019268E+04  0.17200000000E+03 0. -1.
</event>
<event>
 4    1  0.4539494E+000  0.2059337E+03  0.7818608E-02  0.1144827E+00
         21   -1    0    0  501  502  0.00000000000E+00  0.00000000000E+00  0.97890366829E+03  0.97890366829E+03  0.00000000000E+00 0. -1.
         21   -1    0    0  502  503 -0.00000000000E+00 -0.00000000000E+00 -0.44562980144E+02  0.44562980144E+02  0.00000000000E+00 0. -1.
          6    1    1    2  501    0  0.47601430870E+02 -0.10275589472E+03  0.55254535237E+03  0.58967366953E+03  0.17200000000E+03 0. -1.
         -6    1    1    2    0  503 -0.47601430870E+02  0.10275589472E+03  0.38179533578E+03  0.43379297890E+03  0.17200000000E+03 0. -1.
</event>
<event>
 4    1  0.4539494E+000  0.1828265E+03  0.7818608E-02  0.1165095E+00
         21   -1    0    0  501  502  0.00000000000E+00  0.00000000000E+00  0.20557105333E+03  0.20557105333E+03  0.00000000000E+00 0. -1.
         21   -1    0    0  502  503 -0.00000000000E+00 -0.00000000000E+00 -0.22417055126E+03  0.22417055126E+03  0.00000000000E+00 0.  1.
          6    1    1    2  501    0  0.28594348642E+02  0.54990091556E+02  0.10331101423E+03  0.20999693475E+03  0.17200000000E+03 0. -1.
         -6    1    1    2    0  503 -0.28594348642E+02 -0.54990091556E+02 -0.12191051217E+03  0.21974466983E+03  0.17200000000E+03 0.  1.
</event>
<event>
 4    1  0.4539494E+000  0.1760303E+03  0.7818608E-02  0.1171701E+00
         21   -1    0    0  501  502  0.00000000000E+00  0.00000000000E+00  0.22964825854E+02  0.22964825854E+02  0.00000000000E+00 0. -1.
         21   -1    0    0  502  503 -0.00000000000E+00 -0.00000000000E+00 -0.13499837825E+04  0.13499837825E+04  0.00000000000E+00 0. -1.
          6    1    1    2  501    0 -0.27317351168E+02  0.25620779973E+02 -0.64816967058E+03  0.67164766352E+03  0.17200000000E+03 0. -1.
         -6    1    1    2    0  503  0.27317351168E+02 -0.25620779973E+02 -0.67884928601E+03  0.70130094479E+03  0.17200000000E+03 0. -1.
</event>
<event>
 4    1  0.4539494E+000  0.1905184E+03  0.7818608E-02  0.1157995E+00
         21   -1    0    0  501  502  0.00000000000E+00  0.00000000000E+00  0.51481343969E+03  0.51481343969E+03  0.00000000000E+00 0.  1.
         21   -1    0    0  502  503 -0.00000000000E+00 -0.00000000000E+00 -0.70514145687E+02  0.70514145687E+02  0.00000000000E+00 0.  1.
          6    1    1    2  501    0 -0.80958197841E+02  0.12611131625E+02  0.21894247851E+03  0.29022935643E+03  0.17200000000E+03 0. -1.
         -6    1    1    2    0  503  0.80958197841E+02 -0.12611131625E+02  0.22535681550E+03  0.29509822895E+03  0.17200000000E+03 0. -1.
</event>
<event>
 4    1  0.4539494E+000  0.2923270E+03  0.7818608E-02  0.1089140E+00
         21   -1    0    0  501  502  0.00000000000E+00  0.00000000000E+00  0.83965768833E+03  0.83965768833E+03  0.00000000000E+00 0.  1.
         21   -1    0    0  502  503 -0.00000000000E+00 -0.00000000000E+00 -0.11757439443E+03  0.11757439443E+03  0.00000000000E+00 0.  1.
          6    1    1    2  501    0 -0.21281464414E+03 -0.10286407085E+03  0.53649781187E+03  0.61097053282E+03  0.17200000000E+03 0.  1.
         -6    1    1    2    0  503  0.21281464414E+03  0.10286407085E+03  0.18558548202E+03  0.34626154994E+03  0.17200000000E+03 0.  1.
</event>
<event>
 4    1  0.4539494E+000  0.1981309E+03  0.7818608E-02  0.1151326E+00
         21   -1    0    0  501  502  0.00000000000E+00  0.00000000000E+00  0.12890723404E+04  0.12890723404E+04  0.00000000000E+00 0.  1.
         21   -1    0    0  502  503 -0.00000000000E+00 -0.00000000000E+00 -0.34254140208E+02  0.34254140208E+02  0.00000000000E+00 0.  1.
          6    1    1    2  501    0 -0.95580122756E+02 -0.23157628877E+02  0.84782860220E+03  0.87067167999E+03  0.17200000000E+03 0.  1.
         -6    1    1    2    0  503  0.95580122756E+02  0.23157628877E+02  0.40698959798E+03  0.45265480060E+03  0.17200000000E+03 0.  1.
</event>
<event>
 4    1  0.4539494E+000  0.2188207E+03  0.7818608E-02  0.1134765E+00
         21   -1    0    0  503  502  0.00000000000E+00  0.00000000000E+00  0.14794162127E+03  0.14794162127E+03  0.00000000000E+00 0. -1.
         21   -1    0    0  501  503 -0.00000000000E+00 -0.00000000000E+00 -0.34715472024E+03  0.34715472024E+03  0.00000000000E+00 0. -1.
          6    1    1    2  501    0  0.13360779294E+03  0.21152949015E+02 -0.16400891012E+03  0.27346190262E+03  0.17200000000E+03 0. -1.
         -6    1    1    2    0  502 -0.13360779294E+03 -0.21152949015E+02 -0.35204188850E+02  0.22163443888E+03  0.17200000000E+03 0. -1.
</event>
<event>
 4    1  0.4539494E+000  0.1851675E+03  0.7818608E-02  0.1162894E+00
         21   -1    0    0  501  502  0.00000000000E+00  0.00000000000E+00  0.13907141267E+03  0.13907141267E+03  0.00000000000E+00 0.  1.
         21   -1    0    0  502  503 -0.00000000000E+00 -0.00000000000E+00 -0.26337194611E+03  0.26337194611E+03  0.00000000000E+00 0. -1.
          6    1    1    2  501    0  0.42402683896E+02  0.53898309002E+02 -0.11284595502E+02  0.18551107086E+03  0.17200000000E+03 0.  1.
         -6    1    1    2    0  503 -0.42402683896E+02 -0.53898309002E+02 -0.11301593794E+03  0.21693228792E+03  0.17200000000E+03 0. -1.
</event>
<event>
 4    1  0.4539494E+000  0.1736245E+03  0.7818608E-02  0.1174120E+00
         21   -1    0    0  503  502  0.00000000000E+00  0.00000000000E+00  0.17428515940E+03  0.17428515940E+03  0.00000000000E+00 0. -1.
         21   -1    0    0  501  503 -0.00000000000E+00 -0.00000000000E+00 -0.20194310355E+03  0.20194310355E+03  0.00000000000E+00 0. -1.
          6    1    1    2  501    0  0.15526023938E+01  0.23644310516E+02 -0.85086694840E+02  0.19335255269E+03  0.17200000000E+03 0. -1.
         -6    1    1    2    0  502 -0.15526023938E+01 -0.23644310516E+02  0.57428750693E+02  0.18287571025E+03  0.17200000000E+03 0. -1.
</event>
<event>
 4    1  0.4539494E+000  0.1799907E+03  0.7818608E-02  0.1167812E+00
         21   -1    0    0  501  502  0.00000000000E+00  0.00000000000E+00  0.54251267152E+03  0.54251267152E+03  0.00000000000E+00 0.  1.
         21   -1    0    0  502  503 -0.00000000000E+00 -0.00000000000E+00 -0.12546274316E+03  0.12546274316E+03  0.00000000000E+00 0.  1.
          6    1    1    2  501    0 -0.37125814548E+01  0.52904446063E+02  0.45029938717E+03  0.48493937947E+03  0.17200000000E+03 0.  1.
         -6    1    1    2    0  503  0.37125814548E+01 -0.52904446063E+02 -0.33249458811E+02  0.18303603521E+03  0.17200000000E+03 0.  1.
</event>
<event>
 4    1  0.4539494E+000  0.2349313E+03  0.7818608E-02  0.1123216E+00
         21   -1    0    0  503  502  0.00000000000E+00  0.00000000000E+00  0.12738034072E+04  0.12738034072E+04  0.00000000000E+00 0. -1.
         21   -1    0    0  501  503 -0.00000000000E+00 -0.00000000000E+00 -0.64114514430E+02  0.64114514430E+02  0.00000000000E+00 0.  1.
          6    1    1    2  501    0  0.31301989711E+02  0.15693594193E+03  0.22395314255E+03  0.32457312656E+03  0.17200000000E+03 0.  1.
         -6    1    1    2    0  502 -0.31301989711E+02 -0.15693594193E+03  0.98573575025E+03  0.10133447951E+04  0.17200000000E+03 0. -1.
</event>
<event>
 4    1  0.4539494E+000  0.2299293E+03  0.7818608E-02  0.1126690E+00
         21   -1    0    0  503  502  0.00000000000E+00  0.00000000000E+00  0.19175137802E+04  0.19175137802E+04  0.00000000000E+00 0. -1.
         21   -1    0    0  501  503 -0.00000000000E+00 -0.00000000000E+00 -0.35194190329E+02  0.35194190329E+02  0.00000000000E+00 0. -1.
          6    1    1    2  501    0 -0.92709994043E+02  0.12119555194E+03  0.48675367558E+03  0.53832763769E+03  0.17200000000E+03 0. -1.
         -6    1    1    2    0  502  0.92709994043E+02 -0.12119555194E+03  0.13955659143E+04  0.14143803329E+04  0.17200000000E+03 0. -1.
</event>
<event>
 4    1  0.4539494E+000  0.2452018E+03  0.7818608E-02  0.1116375E+00
         21   -1    0    0  501  502  0.00000000000E+00  0.00000000000E+00  0.26056018775E+02  0.26056018775E+02  0.00000000000E+00 0. -1.
         21   -1    0    0  502  503 -0.00000000000E+00 -0.00000000000E+00 -0.25661069474E+04  0.25661069474E+04  0.00000000000E+00 0.  1.
          6    1    1    2  501    0  0.17453370905E+03  0.88271848550E+01 -0.85856736953E+03  0.89289521379E+03  0.17200000000E+03 0.  1.
         -6    1    1    2    0  503 -0.17453370905E+03 -0.88271848550E+01 -0.16814835591E+04  0.16992677524E+04  0.17200000000E+03 0.  1.
</event>
<event>
 4    1  0.4539494E+000  0.2960618E+03  0.7818608E-02  0.1087226E+00
         21   -1    0    0  503  502  0.00000000000E+00  0.00000000000E+00  0.53233048391E+03  0.53233048391E+03  0.00000000000E+00 0.  1.
         21   -1    0    0  501  503 -0.00000000000E+00 -0.00000000000E+00 -0.18412927232E+03  0.18412927232E+03  0.00000000000E+00 0.  1.
          6    1    1    2  501    0  0.20474077831E+03  0.12708190845E+03  0.57608918747E+02  0.30161463041E+03  0.17200000000E+03 0.  1.
         -6    1    1    2    0  502 -0.20474077831E+03 -0.12708190845E+03  0.29059229284E+03  0.41484512582E+03  0.17200000000E+03 0.  1.
</event>
<event>
 4    1  0.4539494E+000  0.2245970E+03  0.7818608E-02  0.1130501E+00
         21   -1    0    0  503  502  0.00000000000E+00  0.00000000000E+00  0.49767732698E+03  0.49767732698E+03  0.00000000000E+00 0.  1.
         21   -1    0    0  501  503 -0.00000000000E+00 -0.00000000000E+00 -0.16046474744E+03  0.16046474744E+03  0.00000000000E+00 0. -1.
          6    1    1    2  501    0  0.23173363022E+01  0.14441069723E+03 -0.31111427336E+02  0.22674157191E+03  0.17200000000E+03 0. -1.
         -6    1    1    2    0  502 -0.23173363022E+01 -0.14441069723E+03  0.36832400687E+03  0.43140050250E+03  0.17200000000E+03 0.  1.
</event>
<event>
 4    1  0.4539494E+000  0.2048295E+03  0.7818608E-02  0.1145727E+00
         21   -1    0    0  501  502  0.00000000000E+00  0.00000000000E+00  0.11249555066E+03  0.11249555066E+03  0.00000000000E+00 0. -1.
         21   -1    0    0  502  503 -0.00000000000E+00 -0.00000000000E+00 -0.49541155027E+03  0.49541155027E+03  0.00000000000E+00 0.  1.
          6    1    1    2  501    0  0.10010225956E+03 -0.48483732659E+02 -0.40336829275E+02  0.20876348938E+03  0.17200000000E+03 0. -1.
         -6    1    1    2    0  503 -0.10010225956E+03  0.48483732659E+02 -0.34257917033E+03  0.39914361155E+03  0.17200000000E+03 0.  1.
</event>
<event>
 4    1  0.4539494E+000  0.2694959E+03  0.7818608E-02  0.1101568E+00
         21   -1    0    0  503  502  0.00000000000E+00  0.00000000000E+00  0.21273255908E+03  0.21273255908E+03  0.00000000000E+00 0.  1.
         21   -1    0    0  501  503 -0.00000000000E+00 -0.00000000000E+00 -0.35506316714E+03  0.35506316714E+03  0.00000000000E+00 0. -1.
          6    1    1    2  501    0 -0.16380462709E+03 -0.12732667248E+03 -0.12684536353E+03  0.29785530653E+03  0.17200000000E+03 0. -1.
         -6    1    1    2    0  502  0.16380462709E+03  0.12732667248E+03 -0.15485244539E+02  0.26994041969E+03  0.17200000000E+03 0.  1.
</event>
<event>
 4    1  0.4539494E+000  0.1875983E+03  0.7818608E-02  0.1160646E+00
         21   -1    0    0  503  502  0.00000000000E+00  0.00000000000E+00  0.57263623519E+03  0.57263623519E+03  0.00000000000E+00 0.  1.
         21   -1    0    0  501  503 -0.00000000000E+00 -0.00000000000E+00 -0.61596006530E+02  0.61596006530E+02  0.00000000000E+00 0.  1.
          6    1    1    2  501    0 -0.63559969848E+02 -0.39613685745E+02  0.24051315931E+03  0.30502408703E+03  0.17200000000E+03 0.  1.
         -6    1    1    2    0  502  0.63559969848E+02  0.39613685745E+02  0.27052706935E+03  0.32920815470E+03  0.17200000000E+03 0.  1.
</event>
<event>
 4    1  0.4539494E+000  0.2189254E+03  0.7818608E-02  0.1134687E+00
         21   -1    0    0  503  502  0.00000000000E+00  0.00000000000E+00  0.10515198462E+04  0.10515198462E+04  0.00000000000E+00 0.  1.
         21   -1    0    0  501  503 -0.00000000000E+00 -0.00000000000E+00 -0.47495293203E+02  0.47495293203E+02  0.00000000000E+00 0.  1.
          6    1    1    2  501    0  0.32017972003E+00  0.13544084672E+03  0.39166527407E+03  0.44869813059E+03  0.17200000000E+03 0.  1.
         -6    1    1    2    0  502 -0.32017972003E+00 -0.13544084672E+03  0.61235927895E+03  0.65031700885E+03  0.17200000000E+03 0.  1.
</event>
<event>
 4    1  0.4539494E+000  0.1808866E+03  0.7818608E-02  0.1166948E+00
         21   -1    0    0  503  502  0.00000000000E+00  0.00000000000E+00  0.25653827728E+03  0.25653827728E+03  0.00000000000E+00 0.  1.
         21   -1    0    0  501  503 -0.00000000000E+00 -0.00000000000E+00 -0.36660165366E+03  0.36660165366E+03  0.00000000000E+00 0.  1.
          6    1    1    2  501    0 -0.40598436372E+02 -0.38571120575E+02 -0.30663105196E+03  0.35600922236E+03  0.17200000000E+03 0.  1.
         -6    1    1    2    0  502  0.40598436372E+02  0.38571120575E+02  0.19656767558E+03  0.26713070857E+03  0.17200000000E+03 0.  1.
</event>
<event>
 4    1  0.4539494E+000  0.2875116E+03  0.7818608E-02  0.1091656E+00
         21   -1    0    0  503  502  0.00000000000E+00  0.00000000000E+00  0.44226745012E+03  0.44226745012E+03  0.00000000000E+00 0. -1.
         21   -1    0    0  501  503 -0.00000000000E+00 -0.00000000000E+00 -0.23413225126E+03  0.23413225126E+03  0.00000000000E+00 0.  1.
          6    1    1    2  501    0  0.53280283738E+02  0.22414307582E+03 -0.47822571917E+02  0.29146167065E+03  0.17200000000E+03 0.  1.
         -6    1    1    2    0  502 -0.53280283738E+02 -0.22414307582E+03  0.25595777078E+03  0.38493803073E+03  0.17200000000E+03 0. -1.
</event>
<event>
 4    1  0.4539494E+000  0.1847910E+03  0.7818608E-02  0.1163245E+00
         21   -1    0    0  501  502  0.00000000000E+00  0.00000000000E+00  0.36750784476E+03  0.36750784476E+03  0.00000000000E+00 0. -1.
         21   -1    0    0  502  503 -0.00000000000E+00 -0.00000000000E+00 -0.20112012318E+03  0.20112012318E+03  0.00000000000E+00 0. -1.
          6    1    1    2  501    0  0.59791890933E+02 -0.31442445289E+02  0.29173441022E+03  0.34533558128E+03  0.17200000000E+03 0. -1.
         -6    1    1    2    0  503 -0.59791890933E+02  0.31442445289E+02 -0.12534668865E+03  0.22329238666E+03  0.17200000000E+03 0. -1.
</event>
<event>
 4    1  0.4539494E+000  0.1754523E+03  0.7818608E-02  0.1172278E+00
         21   -1    0    0  501  502  0.00000000000E+00  0.00000000000E+00  0.97973056126E+03  0.97973056126E+03  0.00000000000E+00 0. -1.
         21   -1    0    0  502  503 -0.00000000000E+00 -0.00000000000E+00 -0.39554452558E+02  0.39554452558E+02  0.00000000000E+00 0. -1.
          6    1    1    2  501    0  0.18369317344E+02  0.29361444375E+02  0.70119949161E+03  0.72281688779E+03  0.17200000000E+03 0. -1.
         -6    1    1    2    0  503 -0.18369317344E+02 -0.29361444375E+02  0.23897661709E+03  0.29646812603E+03  0.17200000000E+03 0. -1.
</event>
<event>
 4    1  0.4539494E+000  0.1932439E+03  0.7818608E-02  0.1155568E+00
         21   -1    0    0  503  502  0.00000000000E+00  0.00000000000E+00  0.21202017875E+03  0.21202017875E+03  0.00000000000E+00 0. -1.
         21   -1    0    0  501  503 -0.00000000000E+00 -0.00000000000E+00 -0.19251593417E+03  0.19251593417E+03  0.00000000000E+00 0.  1.
          6    1    1    2  501    0  0.80661393750E+02 -0.35397214012E+02  0.68761732164E+02  0.20511313710E+03  0.17200000000E+03 0. -1.
         -6    1    1    2    0  502 -0.80661393750E+02  0.35397214012E+02 -0.49257487586E+02  0.19942297582E+03  0.17200000000E+03 0.  1.
</event>
<event>
 4    1  0.4539494E+000  0.2020344E+03  0.7818608E-02  0.1148034E+00
         21   -1    0    0  503  502  0.00000000000E+00  0.00000000000E+00  0.38794190322E+03  0.38794190322E+03  0.00000000000E+00 0. -1.
         21   -1    0    0  501  503 -0.00000000000E+00 -0.00000000000E+00 -0.11245001293E+03  0.11245001293E+03  0.00000000000E+00 0.  1.
          6    1    1    2  501    0 -0.95009024438E+02  0.46980642699E+02  0.74289654482E+02  0.21525995512E+03  0.17200000000E+03 0.  1.
         -6    1    1    2    0  502  0.95009024438E+02 -0.46980642699E+02  0.20120223581E+03  0.28513196104E+03  0.17200000000E+03 0. -1.
</event>
<event>
 4    1  0.4539494E+000  0.2181885E+03  0.7818608E-02  0.1135241E+00
         21   -1    0    0  503  502  0.00000000000E+00  0.00000000000E+00  0.44899342865E+02  0.44899342865E+02  0.00000000000E+00 0.  1.
         21   -1    0    0  501  503 -0.00000000000E+00 -0.00000000000E+00 -0.14708921380E+04  0.14708921380E+04  0.00000000000E+00 0.  1.
          6    1    1    2  501    0  0.59173827368E+02 -0.12050180003E+03 -0.11134302795E+04  0.11346070743E+04  0.17200000000E+03 0.  1.
         -6    1    1    2    0  502 -0.59173827368E+02  0.12050180003E+03 -0.31256251561E+03  0.38118440658E+03  0.17200000000E+03 0.  1.
</event>
<event>
 4    1  0.4539494E+000  0.1765254E+03  0.7818608E-02  0.1171209E+00
         21   -1    0    0  503  502  0.00000000000E+00  0.00000000000E+00  0.48026379162E+02  0.48026379162E+02  0.00000000000E+00 0.  1.
         21   -1    0    0  501  503 -0.00000000000E+00 -0.00000000000E+00 -0.65748865112E+03  0.65748865112E+03  0.00000000000E+00 0.  1.
          6    1    1    2  501    0  0.67616997050E+01 -0.39134510764E+02 -0.34519931442E+03  0.38771612965E+03  0.17200000000E+03 0. -1.
         -6    1    1    2    0  502 -0.67616997050E+01  0.39134510764E+02 -0.26426295754E+03  0.31779890063E+03  0.17200000000E+03 0. -1.
</event>
<event>
 4    1  0.4539494E+000  0.1772469E+03  0.7818608E-02  0.1170494E+00
         21   -1    0    0  503  502  0.00000000000E+00  0.00000000000E+00  0.31218353321E+02  0.31218353321E+02  0.00000000000E+00 0. -1.
         21   -1    0    0  501  503 -0.00000000000E+00 -0.00000000000E+00 -0.14413697158E+04  0.14413697158E+04  0.00000000000E+00 0. -1.
          6    1    1    2  501    0 -0.35691671335E+02 -0.23634183853E+02 -0.11095770275E+04  0.11236448060E+04  0.17200000000E+03 0. -1.
         -6    1    1    2    0  502  0.35691671335E+02  0.23634183853E+02 -0.30057433504E+03  0.34894326320E+03  0.17200000000E+03 0. -1.
</event>
<event>
 4    1  0.4539494E+000  0.1842599E+03  0.7818608E-02  0.1163743E+00
         21   -1    0    0  503  502  0.00000000000E+00  0.00000000000E+00  0.68505517876E+03  0.68505517876E+03  0.00000000000E+00 0. -1.
         21   -1    0    0  501  503 -0.00000000000E+00 -0.00000000000E+00 -0.15435414223E+03  0.15435414223E+03  0.00000000000E+00 0. -1.
          6    1    1    2  501    0 -0.64963366720E+02 -0.12144111579E+02 -0.80470981634E+02  0.20106540564E+03  0.17200000000E+03 0. -1.
         -6    1    1    2    0  502  0.64963366720E+02  0.12144111579E+02  0.61117201817E+03  0.63834391534E+03  0.17200000000E+03 0. -1.
</event>
<event>
 4    1  0.4539494E+000  0.2209366E+03  0.7818608E-02  0.1133187E+00
         21   -1    0    0  501  502  0.00000000000E+00  0.00000000000E+00  0.55602230026E+02  0.55602230026E+02  0.00000000000E+00 0.  1.
         21   -1    0    0  502  503 -0.00000000000E+00 -0.00000000000E+00 -0.13553313109E+04  0.13553313109E+04  0.00000000000E+00 0.  1.
          6    1    1    2  501    0  0.56033397421E+02  0.12684333950E+03 -0.23115669165E+03  0.31975989507E+03  0.17200000000E+03 0.  1.
         -6    1    1    2    0  503 -0.56033397421E+02 -0.12684333950E+03 -0.10685723893E+04  0.10911736459E+04  0.17200000000E+03 0.  1.
</event>
<event>
 4    1  0.4539494E+000  0.1795018E+03  0.7818608E-02  0.1168286E+00
         21   -1    0    0  501  502  0.00000000000E+00  0.00000000000E+00  0.46385812804E+03  0.46385812804E+03  0.00000000000E+00 0. -1.
         21   -1    0    0  502  503 -0.00000000000E+00 -0.00000000000E+00 -0.18326792026E+03  0.18326792026E+03  0.00000000000E+00 0. -1.
          6    1    1    2  501    0 -0.51344124789E+02  0.81895000185E+00  0.39526948054E+03  0.43411847700E+03  0.17200000000E+03 0. -1.
         -6    1    1    2    0  503  0.51344124789E+02 -0.81895000185E+00 -0.11467927276E+03  0.21300757130E+03  0.17200000000E+03 0. -1.
</event>
<event>
 4    1  0.4539494E+000  0.2350845E+03  0.7818608E-02  0.1123111E+00
         21   -1    0    0  503  502  0.00000000000E+00  0.00000000000E+00  0.46050614763E+02  0.46050614763E+02  0.00000000000E+00 0. -1.
         21   -1    0    0  501  503 -0.00000000000E+00 -0.00000000000E+00 -0.14639490335E+04  0.14639490335E+04  0.00000000000E+00 0. -1.
          6    1    1    2  501    0  0.59092300058E+01 -0.16014300549E+03 -0.10294824624E+04  0.10559824059E+04  0.17200000000E+03 0. -1.
         -6    1    1    2    0  502 -0.59092300058E+01  0.16014300549E+03 -0.38841595628E+03  0.45401724229E+03  0.17200000000E+03 0. -1.
</event>
<event>
 4    1  0.4539494E+000  0.2357957E+03  0.7818608E-02  0.1122626E+00
         21   -1    0    0  503  502  0.00000000000E+00  0.00000000000E+00  0.44702675614E+02  0.44702675614E+02  0.00000000000E+00 0. -1.
         21   -1    0    0  501  503 -0.00000000000E+00 -0.00000000000E+00 -0.14581908934E+04  0.14581908934E+04  0.00000000000E+00 0. -1.
          6    1    1    2  501    0 -0.11573680770E+03 -0.11234154070E+03 -0.99490132059E+03  0.10224618663E+04  0.17200000000E+03 0. -1.
         -6    1    1    2    0  502  0.11573680770E+03  0.11234154070E+03 -0.41858689721E+03  0.48043170268E+03  0.17200000000E+03 0. -1.
</event>
<event>
 4    1  0.4539494E+000  0.1810943E+03  0.7818608E-02  0.1166748E+00
         21   -1    0    0  501  502  0.00000000000E+00  0.00000000000E+00  0.42686083266E+02  0.42686083266E+02  0.00000000000E+00 0. -1.
         21   -1    0    0  502  503 -0.00000000000E+00 -0.00000000000E+00 -0.78802840340E+03  0.78802840340E+03  0.00000000000E+00 0. -1.
          6    1    1    2  501    0 -0.53779508956E+02 -0.17858114116E+02 -0.30692903510E+03  0.35637140796E+03  0.17200000000E+03 0. -1.
         -6    1    1    2    0  503  0.53779508956E+02  0.17858114116E+02 -0.43841328504E+03  0.47434307871E+03  0.17200000000E+03 0. -1.
</event>
<event>
 4    1  0.4539494E+000  0.2349621E+03  0.7818608E-02  0.1123195E+00
         21   -1    0    0  503  502  0.00000000000E+00  0.00000000000E+00  0.29818344127E+03  0.29818344127E+03  0.00000000000E+00 0.  1.
         21   -1    0    0  501  503 -0.00000000000E+00 -0.00000000000E+00 -0.20210524079E+03  0.20210524079E+03  0.00000000000E+00 0. -1.
          6    1    1    2  501    0  0.91706241581E+02  0.13119891590E+03 -0.24424043205E+02  0.23622811891E+03  0.17200000000E+03 0. -1.
         -6    1    1    2    0  502 -0.91706241581E+02 -0.13119891590E+03  0.12050224368E+03  0.26406056315E+03  0.17200000000E+03 0.  1.
</event>
<event>
 4    1  0.4539494E+000  0.2482254E+03  0.7818608E-02  0.1114431E+00
         21   -1    0    0  501  502  0.00000000000E+00  0.00000000000E+00  0.62260353054E+02  0.62260353054E+02  0.00000000000E+00 0. -1.
         21   -1    0    0  502  503 -0.00000000000E+00 -0.00000000000E+00 -0.99197551715E+03  0.99197551715E+03  0.00000000000E+00 0. -1.
          6    1    1    2  501    0 -0.90271360436E+02 -0.15454102254E+03 -0.49038961256E+03  0.54963425864E+03  0.17200000000E+03 0. -1.
         -6    1    1    2    0  503  0.90271360436E+02  0.15454102254E+03 -0.43932555153E+03  0.50460161156E+03  0.17200000000E+03 0. -1.
</event>
<event>
 4    1  0.4539494E+000  0.2392636E+03  0.7818608E-02  0.1120284E+00
         21   -1    0    0  501  502  0.00000000000E+00  0.00000000000E+00  0.48039451384E+03  0.48039451384E+03  0.00000000000E+00 0. -1.
         21   -1    0    0  502  503 -0.00000000000E+00 -0.00000000000E+00 -0.19606823830E+03  0.19606823830E+03  0.00000000000E+00 0. -1.
          6    1    1    2  501    0  0.15938701037E+03 -0.47527385237E+02 -0.69662017268E+02  0.24919845118E+03  0.17200000000E+03 0. -1.
         -6    1    1    2    0  503 -0.15938701037E+03  0.47527385237E+02  0.35398829281E+03  0.42726430095E+03  0.17200000000E+03 0. -1.
</event>
<event>
 4    1  0.4539494E+000  0.1752153E+03  0.7818608E-02  0.1172516E+00
         21   -1    0    0  501  502  0.00000000000E+00  0.00000000000E+00  0.45623987166E+02  0.45623987166E+02  0.00000000000E+00 0.  1.
         21   -1    0    0  502  503 -0.00000000000E+00 -0.00000000000E+00 -0.87374997812E+03  0.87374997812E+03  0.00000000000E+00 0.  1.
          6    1    1    2  501    0  0.45423265736E+01 -0.33102622538E+02 -0.19366701356E+03  0.26116532789E+03  0.17200000000E+03 0.  1.
         -6    1    1    2    0  503 -0.45423265736E+01  0.33102622538E+02 -0.63445897739E+03  0.65820863740E+03  0.17200000000E+03 0.  1.
</event>
<event>
 4    1  0.4539494E+000  0.1906318E+03  0.7818608E-02  0.1157893E+00
         21   -1    0    0  503  502  0.00000000000E+00  0.00000000000E+00  0.39636216682E+03  0.39636216682E+03  0.00000000000E+00 0.  1.
         21   -1    0    0  501  503 -0.00000000000E+00 -0.00000000000E+00 -0.14487891935E+03  0.14487891935E+03  0.00000000000E+00 0.  1.
          6    1    1    2  501    0  0.29713475254E+01 -0.82144140243E+02 -0.38237634055E+02  0.19442892105E+03  0.17200000000E+03 0.  1.
         -6    1    1    2    0  502 -0.29713475254E+01  0.82144140243E+02  0.28972088153E+03  0.34681216512E+03  0.17200000000E+03 0.  1.
</event>
<event>
 4    1  0.4539494E+000  0.3788072E+03  0.7818608E-02  0.1051375E+00
         21   -1    0    0  503  502  0.00000000000E+00  0.00000000000E+00  0.10818331582E+04  0.10818331582E+04  0.00000000000E+00 0.  1.
         21   -1    0    0  501  503 -0.00000000000E+00 -0.00000000000E+00 -0.13345815447E+03  0.13345815447E+03  0.00000000000E+00 0. -1.
          6    1    1    2  501    0 -0.37260670195E+02  0.33544384389E+03  0.42662625920E+03  0.57053036290E+03  0.17200000000E+03 0. -1.
         -6    1    1    2    0  502  0.37260670195E+02 -0.33544384389E+03  0.52174874454E+03  0.64476094979E+03  0.17200000000E+03 0.  1.
</event>
<event>
 4    1  0.4539494E+000  0.2274999E+03  0.7818608E-02  0.1128412E+00
         21   -1    0    0  503  502  0.00000000000E+00  0.00000000000E+00  0.27374617412E+03  0.27374617412E+03  0.00000000000E+00 0.  1.
         21   -1    0    0  501  503 -0.00000000000E+00 -0.00000000000E+00 -0.23343042862E+03  0.23343042862E+03  0.00000000000E+00 0. -1.
          6    1    1    2  501    0 -0.33668598459E+02 -0.14504692179E+03 -0.90394054987E+02  0.24480046818E+03  0.17200000000E+03 0. -1.
         -6    1    1    2    0  502  0.33668598459E+02  0.14504692179E+03  0.13070980048E+03  0.26237613456E+03  0.17200000000E+03 0.  1.
</event>
<event>
 4    1  0.4539494E+000  0.1983940E+03  0.7818608E-02  0.1151101E+00
         21   -1    0    0  501  502  0.00000000000E+00  0.00000000000E+00  0.20389134643E+03  0.20389134643E+03  0.00000000000E+00 0. -1.
         21   -1    0    0  502  503 -0.00000000000E+00 -0.00000000000E+00 -0.19713104115E+03  0.19713104115E+03  0.00000000000E+00 0. -1.
          6    1    1    2  501    0 -0.66757675666E+02  0.72935501379E+02 -0.25488093110E+02  0.20002454227E+03  0.17200000000E+03 0. -1.
         -6    1    1    2    0  503  0.66757675666E+02 -0.72935501379E+02  0.32248398392E+02  0.20099784531E+03  0.17200000000E+03 0. -1.
</event>
<event>
 4    1  0.4539494E+000  0.2778733E+03  0.7818608E-02  0.1096856E+00
         21   -1    0    0  503  502  0.00000000000E+00  0.00000000000E+00  0.37506629001E+03  0.37506629001E+03  0.00000000000E+00 0.  1.
         21   -1    0    0  501  503 -0.00000000000E+00 -0.00000000000E+00 -0.22988455449E+03  0.22988455449E+03  0.00000000000E+00 0. -1.
          6    1    1    2  501    0  0.19139610285E+03  0.10486704609E+03 -0.25178895280E+02  0.27901172432E+03  0.17200000000E+03 0. -1.
         -6    1    1    2    0  502 -0.19139610285E+03 -0.10486704609E+03  0.17036063080E+03  0.32593912019E+03  0.17200000000E+03 0.  1.
</event>
<event>
 4    1  0.4539494E+000  0.1937561E+03  0.7818608E-02  0.1155117E+00
         21   -1    0    0  501  502  0.00000000000E+00  0.00000000000E+00  0.11861751060E+04  0.11861751060E+04  0.00000000000E+00 0. -1.
         21   -1    0    0  502  503 -0.00000000000E+00 -0.00000000000E+00 -0.31656858817E+02  0.31656858817E+02  0.00000000000E+00 0. -1.
          6    1    1    2  501    0 -0.85590589102E+02 -0.25133326869E+02  0.56775666108E+03  0.59990754226E+03  0.17200000000E+03 0. -1.
         -6    1    1    2    0  503  0.85590589102E+02  0.25133326869E+02  0.58676158607E+03  0.61792442252E+03  0.17200000000E+03 0. -1.
</event>
<event>
 4    1  0.4539494E+000  0.2245516E+03  0.7818608E-02  0.1130534E+00
         21   -1    0    0  503  502  0.00000000000E+00  0.00000000000E+00  0.15519844434E+03  0.15519844434E+03  0.00000000000E+00 0. -1.
         21   -1    0    0  501  503 -0.00000000000E+00 -0.00000000000E+00 -0.32971579612E+03  0.32971579612E+03  0.00000000000E+00 0. -1.
          6    1    1    2  501    0  0.13999951395E+03  0.35207620147E+02 -0.11657126928E+03  0.25300652412E+03  0.17200000000E+03 0. -1.
         -6    1    1    2    0  502 -0.13999951395E+03 -0.35207620147E+02 -0.57946082497E+02  0.23190771635E+03  0.17200000000E+03 0. -1.
</event>
<event>
 4    1  0.4539494E+000  0.1947306E+03  0.7818608E-02  0.1154263E+00
         21   -1    0    0  501  502  0.00000000000E+00  0.00000000000E+00  0.18746435466E+03  0.18746435466E+03  0.00000000000E+00 0.  1.
         21   -1    0    0  502  503 -0.00000000000E+00 -0.00000000000E+00 -0.22447734247E+03  0.22447734247E+03  0.00000000000E+00 0.  1.
          6    1    1    2  501    0 -0.88360716053E+02 -0.22986980389E+02 -0.83278030505E+02  0.21179057527E+03  0.17200000000E+03 0.  1.
         -6    1    1    2    0  503  0.88360716053E+02  0.22986980389E+02  0.46265042694E+02  0.20015112187E+03  0.17200000000E+03 0.  1.
</event>
<event>
 4    1  0.4539494E+000  0.2206837E+03  0.7818608E-02  0.1133374E+00
         21   -1    0    0  501  502  0.00000000000E+00  0.00000000000E+00  0.37882902738E+03  0.37882902738E+03  0.00000000000E+00 0. -1.
         21   -1    0    0  502  503 -0.00000000000E+00 -0.00000000000E+00 -0.16672116385E+03  0.16672116385E+03  0.00000000000E+00 0. -1.
          6    1    1    2  501    0 -0.45147050218E+02 -0.13068672022E+03  0.23656127455E+03  0.32351585989E+03  0.17200000000E+03 0. -1.
         -6    1    1    2    0  503  0.45147050218E+02  0.13068672022E+03 -0.24453411024E+02  0.22203433134E+03  0.17200000000E+03 0. -1.
</event>
<event>
 4    1  0.4539494E+000  0.1846153E+03  0.7818608E-02  0.1163410E+00
         21   -1    0    0  503  502  0.00000000000E+00  0.00000000000E+00  0.31538172545E+03  0.31538172545E+03  0.00000000000E+00 0.  1.
         21   -1    0    0  501  503 -0.00000000000E+00 -0.00000000000E+00 -0.10887461613E+03  0.10887461613E+03  0.00000000000E+00 0.  1.
          6    1    1    2  501    0  0.84482684098E+01 -0.66539055769E+02  0.85000184002E+02  0.20324332821E+03  0.17200000000E+03 0.  1.
         -6    1    1    2    0  502 -0.84482684098E+01  0.66539055769E+02  0.12150692531E+03  0.22101301337E+03  0.17200000000E+03 0.  1.
</event>
<event>
 4    1  0.4539494E+000  0.1881692E+03  0.7818608E-02  0.1160123E+00
         21   -1    0    0  503  502  0.00000000000E+00  0.00000000000E+00  0.29508259897E+03  0.29508259897E+03  0.00000000000E+00 0.  1.
         21   -1    0    0  501  503 -0.00000000000E+00 -0.00000000000E+00 -0.18988512312E+03  0.18988512312E+03  0.00000000000E+00 0.  1.
          6    1    1    2  501    0  0.58774728982E+02  0.48674224597E+02  0.19971258864E+03  0.27439527505E+03  0.17200000000E+03 0.  1.
         -6    1    1    2    0  502 -0.58774728982E+02 -0.48674224597E+02 -0.94515112787E+02  0.21057244704E+03  0.17200000000E+03 0.  1.
</event>
<event>
 4    1  0.4539494E+000  0.2557294E+03  0.7818608E-02  0.1109737E+00
         21   -1    0    0  503  502  0.00000000000E+00  0.00000000000E+00  0.19038322334E+03  0.19038322334E+03  0.00000000000E+00 0.  1.
         21   -1    0    0  501  503 -0.00000000000E+00 -0.00000000000E+00 -0.37620473170E+03  0.37620473170E+03  0.00000000000E+00 0. -1.
          6    1    1    2  501    0 -0.17629265438E+03  0.68807068661E+02 -0.17643257937E+03  0.31068628510E+03  0.17200000000E+03 0. -1.
         -6    1    1    2    0  502  0.17629265438E+03 -0.68807068661E+02 -0.93889289895E+01  0.25590166993E+03  0.17200000000E+03 0.  1.
</event>
<event>
 4    1  0.4539494E+000  0.1818875E+03  0.7818608E-02  0.1165989E+00
         21   -1    0    0  503  502  0.00000000000E+00  0.00000000000E+00  0.16390725671E+03  0.16390725671E+03  0.00000000000E+00 0.  1.
         21   -1    0    0  501  503 -0.00000000000E+00 -0.00000000000E+00 -0.36024053349E+03  0.36024053349E+03  0.00000000000E+00 0. -1.
          6    1    1    2  501    0 -0.47101198439E+02 -0.35784779799E+02 -0.27194893075E+03  0.32716860225E+03  0.17200000000E+03 0.  1.
         -6    1    1    2    0  502  0.47101198439E+02  0.35784779799E+02  0.75615653972E+02  0.19697918795E+03  0.17200000000E+03 0.  1.
</event>
<event>
 4    1  0.4539494E+000  0.2671558E+03  0.7818608E-02  0.1102919E+00
         21   -1    0    0  503  502  0.00000000000E+00  0.00000000000E+00  0.16834450218E+03  0.16834450218E+03  0.00000000000E+00 0. -1.
         21   -1    0    0  501  503 -0.00000000000E+00 -0.00000000000E+00 -0.42851855656E+03  0.42851855656E+03  0.00000000000E+00 0.  1.
          6    1    1    2  501    0 -0.20392869673E+03  0.14188114174E+02 -0.16084970863E+03  0.31184105679E+03  0.17200000000E+03 0.  1.
         -6    1    1    2    0  502  0.20392869673E+03 -0.14188114174E+02 -0.99324345747E+02  0.28502200194E+03  0.17200000000E+03 0. -1.
</event>
<event>
 4    1  0.4539494E+000  0.2045847E+03  0.7818608E-02  0.1145928E+00
         21   -1    0    0  503  502  0.00000000000E+00  0.00000000000E+00  0.29092303861E+03  0.29092303861E+03  0.00000000000E+00 0.  1.
         21   -1    0    0  501  503 -0.00000000000E+00 -0.00000000000E+00 -0.22856777971E+03  0.22856777971E+03  0.00000000000E+00 0.  1.
          6    1    1    2  501    0 -0.16444290458E+01 -0.11076186794E+03 -0.12693922605E+03  0.24076640681E+03  0.17200000000E+03 0.  1.
         -6    1    1    2    0  502  0.16444290458E+01  0.11076186794E+03  0.18929448495E+03  0.27872441151E+03  0.17200000000E+03 0.  1.
</event>
<event>
 4    1  0.4539494E+000  0.2041961E+03  0.7818608E-02  0.1146246E+00
         21   -1    0    0  501  502  0.00000000000E+00  0.00000000000E+00  0.32301069760E+03  0.32301069760E+03  0.00000000000E+00 0. -1.
         21   -1    0    0  502  503 -0.00000000000E+00 -0.00000000000E+00 -0.14972057922E+03  0.14972057922E+03  0.00000000000E+00 0.  1.
          6    1    1    2  501    0 -0.10921866675E+03  0.13540527062E+02  0.17439453363E+03  0.26853215152E+03  0.17200000000E+03 0. -1.
         -6    1    1    2    0  503  0.10921866675E+03 -0.13540527062E+02 -0.11044152547E+01  0.20419912530E+03  0.17200000000E+03 0.  1.
</event>
<event>
 4    1  0.4539494E+000  0.1771465E+03  0.7818608E-02  0.1170594E+00
         21   -1    0    0  501  502  0.00000000000E+00  0.00000000000E+00  0.43398746256E+03  0.43398746256E+03  0.00000000000E+00 0.  1.
         21   -1    0    0  502  503 -0.00000000000E+00 -0.00000000000E+00 -0.75761352714E+03  0.75761352714E+03  0.00000000000E+00 0.  1.
          6    1    1    2  501    0 -0.41964679663E+02 -0.59858566394E+01  0.40484238380E+03  0.44190295375E+03  0.17200000000E+03 0.  1.
         -6    1    1    2    0  503  0.41964679663E+02  0.59858566394E+01 -0.72846844838E+03  0.74969803594E+03  0.17200000000E+03 0.  1.
</event>
<event>
 4    1  0.4539494E+000  0.3345234E+03  0.7818608E-02  0.1069153E+00
         21   -1    0    0  501  502  0.00000000000E+00  0.00000000000E+00  0.37872257843E+03  0.37872257843E+03  0.00000000000E+00 0. -1.
         21   -1    0    0  502  503 -0.00000000000E+00 -0.00000000000E+00 -0.32162108371E+03  0.32162108371E+03  0.00000000000E+00 0. -1.
          6    1    1    2  501    0 -0.16984018778E+02  0.28641487129E+03  0.12837799010E+03  0.35831109909E+03  0.17200000000E+03 0. -1.
         -6    1    1    2    0  503  0.16984018778E+02 -0.28641487129E+03 -0.71276495386E+02  0.34203256305E+03  0.17200000000E+03 0. -1.
</event>
<event>
 4    1  0.4539494E+000  0.2267230E+03  0.7818608E-02  0.1128968E+00
         21   -1    0    0  501  502  0.00000000000E+00  0.00000000000E+00  0.67596603532E+03  0.67596603532E+03  0.00000000000E+00 0.  1.
         21   -1    0    0  502  503 -0.00000000000E+00 -0.00000000000E+00 -0.76656931588E+02  0.76656931588E+02  0.00000000000E+00 0.  1.
          6    1    1    2  501    0 -0.13836731062E+03 -0.51709005892E+02  0.26601213405E+03  0.34952223019E+03  0.17200000000E+03 0.  1.
         -6    1    1    2    0  503  0.13836731062E+03  0.51709005892E+02  0.33329696968E+03  0.40310073671E+03  0.17200000000E+03 0.  1.
</event>
<event>
 4    1  0.4539494E+000  0.1981342E+03  0.7818608E-02  0.1151323E+00
         21   -1    0    0  501  502  0.00000000000E+00  0.00000000000E+00  0.17967617311E+03  0.17967617311E+03  0.00000000000E+00 0.  1.
         21   -1    0    0  502  503 -0.00000000000E+00 -0.00000000000E+00 -0.24403067401E+03  0.24403067401E+03  0.00000000000E+00 0. -1.
          6    1    1    2  501    0  0.93612991097E+02 -0.30162117134E+02  0.36362690683E+02  0.20144326915E+03  0.17200000000E+03 0.  1.
         -6    1    1    2    0  503 -0.93612991097E+02  0.30162117134E+02 -0.10071719158E+03  0.22226357797E+03  0.17200000000E+03 0. -1.
</event>
<event>
 4    1  0.4539494E+000  0.1836662E+03  0.7818608E-02  0.1164301E+00
         21   -1    0    0  501  502  0.00000000000E+00  0.00000000000E+00  0.16238150130E+03  0.16238150130E+03  0.00000000000E+00 0. -1.
         21   -1    0    0  502  503 -0.00000000000E+00 -0.00000000000E+00 -0.22051200721E+03  0.22051200721E+03  0.00000000000E+00 0. -1.
          6    1    1    2  501    0  0.42800110368E+02 -0.48139441125E+02  0.17007978473E+02  0.18445196277E+03  0.17200000000E+03 0. -1.
         -6    1    1    2    0  503 -0.42800110368E+02  0.48139441125E+02 -0.75138484379E+02  0.19844154574E+03  0.17200000000E+03 0. -1.
</event>
<event>
 4    1  0.4539494E+000  0.1864483E+03  0.7818608E-02  0.1161704E+00
         21   -1    0    0  501  502  0.00000000000E+00  0.00000000000E+00  0.11585799736E+04  0.11585799736E+04  0.00000000000E+00 0.  1.
         21   -1    0    0  502  503 -0.00000000000E+00 -0.00000000000E+00 -0.30531684434E+02  0.30531684434E+02  0.00000000000E+00 0.  1.
          6    1    1    2  501    0 -0.71935220206E+02 -0.20722927620E+01  0.64212781017E+03  0.66864870814E+03  0.17200000000E+03 0.  1.
         -6    1    1    2    0  503  0.71935220206E+02  0.20722927620E+01  0.48592047899E+03  0.52046294988E+03  0.17200000000E+03 0.  1.
</event>
<event>
 4    1  0.4539494E+000  0.1731069E+03  0.7818608E-02  0.1174646E+00
         21   -1    0    0  501  502  0.00000000000E+00  0.00000000000E+00  0.37521900482E+03  0.37521900482E+03  0.00000000000E+00 0. -1.
         21   -1    0    0  502  503 -0.00000000000E+00 -0.00000000000E+00 -0.24785287251E+03  0.24785287251E+03  0.00000000000E+00 0. -1.
          6    1    1    2  501    0 -0.34933548490E+01  0.19230160037E+02  0.32016283552E+03  0.36396461893E+03  0.17200000000E+03 0. -1.
         -6    1    1    2    0  503  0.34933548490E+01 -0.19230160037E+02 -0.19279670322E+03  0.25910725840E+03  0.17200000000E+03 0. -1.
</event>
<event>
 4    1  0.4539494E+000  0.2315185E+03  0.7818608E-02  0.1125576E+00
         21   -1    0    0  503  502  0.00000000000E+00  0.00000000000E+00  0.83237956578E+03  0.83237956578E+03  0.00000000000E+00 0. -1.
         21   -1    0    0  501  503 -0.00000000000E+00 -0.00000000000E+00 -0.65963347714E+02  0.65963347714E+02  0.00000000000E+00 0. -1.
          6    1    1    2  501    0 -0.15322273373E+03 -0.23229244899E+02  0.31394081018E+03  0.39007644924E+03  0.17200000000E+03 0. -1.
         -6    1    1    2    0  502  0.15322273373E+03  0.23229244899E+02  0.45247540788E+03  0.50826646426E+03  0.17200000000E+03 0. -1.
</event>
<event>
 4    1  0.4539494E+000  0.1795311E+03  0.7818608E-02  0.1168258E+00
         21   -1    0    0  503  502  0.00000000000E+00  0.00000000000E+00  0.29854904313E+03  0.29854904313E+03  0.00000000000E+00 0.  1.
         21   -1    0    0  501  503 -0.00000000000E+00 -0.00000000000E+00 -0.10804831646E+03  0.10804831646E+03  0.00000000000E+00 0.  1.
          6    1    1    2  501    0  0.41385569244E+02 -0.30572047738E+02  0.10105594182E+03  0.20601873415E+03  0.17200000000E+03 0.  1.
         -6    1    1    2    0  502 -0.41385569244E+02  0.30572047738E+02  0.89444784845E+02  0.20057862543E+03  0.17200000000E+03 0.  1.
</event>
<event>
 4    1  0.4539494E+000  0.2359422E+03  0.7818608E-02  0.1122526E+00
         21   -1    0    0  501  502  0.00000000000E+00  0.00000000000E+00  0.11025039868E+04  0.11025039868E+04  0.00000000000E+00 0.  1.
         21   -1    0    0  502  503 -0.00000000000E+00 -0.00000000000E+00 -0.61154351977E+02  0.61154351977E+02  0.00000000000E+00 0. -1.
          6    1    1    2  501    0 -0.35613789690E+02  0.15753213521E+03  0.76360880694E+03  0.79922908210E+03  0.17200000000E+03 0.  1.
         -6    1    1    2    0  503  0.35613789690E+02 -0.15753213521E+03  0.27774082784E+03  0.36442925664E+03  0.17200000000E+03 0. -1.
</event>
<event>
 4    1  0.4539494E+000  0.2053578E+03  0.7818608E-02  0.1145296E+00
         21   -1    0    0  503  502  0.00000000000E+00  0.00000000000E+00  0.98576329652E+03  0.98576329652E+03  0.00000000000E+00 0.  1.
         21   -1    0    0  501  503 -0.00000000000E+00 -0.00000000000E+00 -0.65868479648E+02  0.65868479648E+02  0.00000000000E+00 0.  1.
          6    1    1    2  501    0  0.18772806291E+02  0.11061376738E+03  0.14864372986E+03  0.25350893912E+03  0.17200000000E+03 0.  1.
         -6    1    1    2    0  502 -0.18772806291E+02 -0.11061376738E+03  0.77125108702E+03  0.79812283705E+03  0.17200000000E+03 0.  1.
</event>
<event>
 4    1  0.4539494E+000  0.2082079E+03  0.7818608E-02  0.1142993E+00
         21   -1    0    0  501  502  0.00000000000E+00  0.00000000000E+00  0.14910989395E+03  0.14910989395E+03  0.00000000000E+00 0.  1.
         21   -1    0    0  502  503 -0.00000000000E+00 -0.00000000000E+00 -0.32943580319E+03  0.32943580319E+03  0.00000000000E+00 0.  1.
          6    1    1    2  501    0  0.54207999467E+00  0.11732961139E+03 -0.81460955467E+01  0.20836720095E+03  0.17200000000E+03 0.  1.
         -6    1    1    2    0  503 -0.54207999467E+00 -0.11732961139E+03 -0.17217981370E+03  0.27017849619E+03  0.17200000000E+03 0.  1.
</event>
<event>
 4    1  0.4539494E+000  0.1727249E+03  0.7818608E-02  0.1175036E+00
         21   -1    0    0  501  502  0.00000000000E+00  0.00000000000E+00  0.14546933300E+03  0.14546933300E+03  0.00000000000E+00 0.  1.
         21   -1    0    0  502  503 -0.00000000000E+00 -0.00000000000E+00 -0.21777983310E+03  0.21777983310E+03  0.00000000000E+00 0.  1.
          6    1    1    2  501    0 -0.78636034804E+01  0.13713300703E+02  0.76920163861E+01  0.17289609016E+03  0.17200000000E+03 0. -1.
         -6    1    1    2    0  503  0.78636034804E+01 -0.13713300703E+02 -0.80002516481E+02  0.19035307594E+03  0.17200000000E+03 0. -1.
</event>
<event>
 4    1  0.4539494E+000  0.2056660E+03  0.7818608E-02  0.1145045E+00
         21   -1    0    0  501  502  0.00000000000E+00  0.00000000000E+00  0.94185110508E+03  0.94185110508E+03  0.00000000000E+00 0. -1.
         21   -1    0    0  502  503 -0.00000000000E+00 -0.00000000000E+00 -0.24899722955E+03  0.24899722955E+03  0.00000000000E+00 0.  1.
          6    1    1    2  501    0 -0.37490003931E+02  0.10634384356E+03  0.88548697609E+03  0.90905758799E+03  0.17200000000E+03 0. -1.
         -6    1    1    2    0  503  0.37490003931E+02 -0.10634384356E+03 -0.19263310056E+03  0.28179074663E+03  0.17200000000E+03 0.  1.
</event>
<event>
 4    1  0.4539494E+000  0.2920149E+03  0.7818608E-02  0.1089302E+00
         21   -1    0    0  503  502  0.00000000000E+00  0.00000000000E+00  0.43652995123E+03  0.43652995123E+03  0.00000000000E+00 0.  1.
         21   -1    0    0  501  503 -0.00000000000E+00 -0.00000000000E+00 -0.19723153721E+03  0.19723153721E+03  0.00000000000E+00 0. -1.
          6    1    1    2  501    0 -0.22929810717E+03 -0.55777086202E+02  0.88634580593E+02  0.30517010694E+03  0.17200000000E+03 0. -1.
         -6    1    1    2    0  502  0.22929810717E+03  0.55777086202E+02  0.15066383343E+03  0.32859138150E+03  0.17200000000E+03 0.  1.
</event>
<event>
 4    1  0.4539494E+000  0.2716627E+03  0.7818608E-02  0.1100332E+00
         21   -1    0    0  503  502  0.00000000000E+00  0.00000000000E+00  0.24243652656E+03  0.24243652656E+03  0.00000000000E+00 0.  1.
         21   -1    0    0  501  503 -0.00000000000E+00 -0.00000000000E+00 -0.34825211259E+03  0.34825211259E+03  0.00000000000E+00 0. -1.
          6    1    1    2  501    0 -0.19760592559E+03 -0.71892539309E+02 -0.15769699395E+03  0.31411619019E+03  0.17200000000E+03 0. -1.
         -6    1    1    2    0  502  0.19760592559E+03  0.71892539309E+02  0.51881407927E+02  0.27657244896E+03  0.17200000000E+03 0.  1.
</event>
<event>
 4    1  0.4539494E+000  0.2389069E+03  0.7818608E-02  0.1120523E+00
         21   -1    0    0  501  502  0.00000000000E+00  0.00000000000E+00  0.33812531569E+03  0.33812531569E+03  0.00000000000E+00 0. -1.
         21   -1    0    0  502  503 -0.00000000000E+00 -0.00000000000E+00 -0.37774138923E+03  0.37774138923E+03  0.00000000000E+00 0. -1.
          6    1    1    2  501    0  0.14887026382E+03 -0.73007980066E+02  0.24639569989E+03  0.34320163392E+03  0.17200000000E+03 0. -1.
         -6    1    1    2    0  503 -0.14887026382E+03  0.73007980066E+02 -0.28601177343E+03  0.37266507100E+03  0.17200000000E+03 0. -1.
</event>
<event>
 4    1  0.4539494E+000  0.2423086E+03  0.7818608E-02  0.1118264E+00
         21   -1    0    0  503  502  0.00000000000E+00  0.00000000000E+00  0.35801278972E+03  0.35801278972E+03  0.00000000000E+00 0.  1.
         21   -1    0    0  501  503 -0.00000000000E+00 -0.00000000000E+00 -0.16636046322E+03  0.16636046322E+03  0.00000000000E+00 0.  1.
          6    1    1    2  501    0  0.16928737939E+03  0.21708630890E+02  0.12706841525E+03  0.27360530629E+03  0.17200000000E+03 0.  1.
         -6    1    1    2    0  502 -0.16928737939E+03 -0.21708630890E+02  0.64583911250E+02  0.25076794665E+03  0.17200000000E+03 0.  1.
</event>
<event>
 4    1  0.4539494E+000  0.1868427E+03  0.7818608E-02  0.1161340E+00
         21   -1    0    0  503  502  0.00000000000E+00  0.00000000000E+00  0.35514175894E+03  0.35514175894E+03  0.00000000000E+00 0. -1.
         21   -1    0    0  501  503 -0.00000000000E+00 -0.00000000000E+00 -0.98799246860E+02  0.98799246860E+02  0.00000000000E+00 0.  1.
          6    1    1    2  501    0 -0.60358623873E+02 -0.41024692574E+02  0.11202576046E+03  0.21785306949E+03  0.17200000000E+03 0.  1.
         -6    1    1    2    0  502  0.60358623873E+02  0.41024692574E+02  0.14431675162E+03  0.23608793632E+03  0.17200000000E+03 0. -1.
</event>
<event>
 4    1  0.4539494E+000  0.2117457E+03  0.7818608E-02  0.1140191E+00
         21   -1    0    0  501  502  0.00000000000E+00  0.00000000000E+00  0.94979715823E+03  0.94979715823E+03  0.00000000000E+00 0. -1.
         21   -1    0    0  502  503 -0.00000000000E+00 -0.00000000000E+00 -0.47299731437E+02  0.47299731437E+02  0.00000000000E+00 0. -1.
          6    1    1    2  501    0 -0.33636624439E+02 -0.11883110691E+03  0.42907166329E+03  0.47847544003E+03  0.17200000000E+03 0.  1.
         -6    1    1    2    0  503  0.33636624439E+02  0.11883110691E+03  0.47342576350E+03  0.51862144964E+03  0.17200000000E+03 0.  1.
</event>
<event>
 4    1  0.4539494E+000  0.2119749E+03  0.7818608E-02  0.1140012E+00
         21   -1    0    0  501  502  0.00000000000E+00  0.00000000000E+00  0.97788895062E+03  0.97788895062E+03  0.00000000000E+00 0. -1.
         21   -1    0    0  502  503 -0.00000000000E+00 -0.00000000000E+00 -0.47565786619E+02  0.47565786619E+02  0.00000000000E+00 0.  1.
          6    1    1    2  501    0 -0.58608102815E+01  0.12375390467E+03  0.37064320614E+03  0.42697747514E+03  0.17200000000E+03 0.  1.
         -6    1    1    2    0  503  0.58608102815E+01 -0.12375390467E+03  0.55967995787E+03  0.59847726210E+03  0.17200000000E+03 0. -1.
</event>
<event>
 4    1  0.4539494E+000  0.2612031E+03  0.7818608E-02  0.1106423E+00
         21   -1    0    0  501  502  0.00000000000E+00  0.00000000000E+00  0.59487037497E+03  0.59487037497E+03  0.00000000000E+00 0. -1.
         21   -1    0    0  502  503 -0.00000000000E+00 -0.00000000000E+00 -0.11551072929E+03  0.11551072929E+03  0.00000000000E+00 0.  1.
          6    1    1    2  501    0  0.19620856904E+03 -0.12051933091E+02  0.20978191769E+03  0.33501567821E+03  0.17200000000E+03 0. -1.
         -6    1    1    2    0  503 -0.19620856904E+03  0.12051933091E+02  0.26957772799E+03  0.37536542606E+03  0.17200000000E+03 0.  1.
</event>
<event>
 4    1  0.4539494E+000  0.1855777E+03  0.7818608E-02  0.1162512E+00
         21   -1    0    0  503  502  0.00000000000E+00  0.00000000000E+00  0.27760147932E+03  0.27760147932E+03  0.00000000000E+00 0.  1.
         21   -1    0    0  501  503 -0.00000000000E+00 -0.00000000000E+00 -0.12413884611E+03  0.12413884611E+03  0.00000000000E+00 0.  1.
          6    1    1    2  501    0  0.64088135092E+02  0.27345663795E+02  0.81812722321E+02  0.20281123224E+03  0.17200000000E+03 0.  1.
         -6    1    1    2    0  502 -0.64088135092E+02 -0.27345663795E+02  0.71649910882E+02  0.19892909319E+03  0.17200000000E+03 0.  1.
</event>
<event>
 4    1  0.4539494E+000  0.1973264E+03  0.7818608E-02  0.1152015E+00
         21   -1    0    0  503  502  0.00000000000E+00  0.00000000000E+00  0.18116151375E+04  0.18116151375E+04  0.00000000000E+00 0.  1.
         21   -1    0    0  501  503 -0.00000000000E+00 -0.00000000000E+00 -0.25387575240E+02  0.25387575240E+02  0.00000000000E+00 0.  1.
          6    1    1    2  501    0 -0.95684186500E+02  0.14079262785E+02  0.53338152112E+03  0.56871217347E+03  0.17200000000E+03 0.  1.
         -6    1    1    2    0  502  0.95684186500E+02 -0.14079262785E+02  0.12528460411E+04  0.12682905393E+04  0.17200000000E+03 0.  1.
</event>
<event>
 4    1  0.4539494E+000  0.2044283E+03  0.7818608E-02  0.1146056E+00
         21   -1    0    0  501  502  0.00000000000E+00  0.00000000000E+00  0.75407993545E+03  0.75407993545E+03  0.00000000000E+00 0.  1.
         21   -1    0    0  502  503 -0.00000000000E+00 -0.00000000000E+00 -0.13123528706E+03  0.13123528706E+03  0.00000000000E+00 0.  1.
          6    1    1    2  501    0  0.10665203558E+03 -0.28849381358E+02  0.64787318799E+03  0.67936044278E+03  0.17200000000E+03 0.  1.
         -6    1    1    2    0  503 -0.10665203558E+03  0.28849381358E+02 -0.25028539608E+02  0.20595477973E+03  0.17200000000E+03 0.  1.
</event>
<event>
 4    1  0.4539494E+000  0.2021870E+03  0.7818608E-02  0.1147907E+00
         21   -1    0    0  503  502  0.00000000000E+00  0.00000000000E+00  0.98300389443E+03  0.98300389443E+03  0.00000000000E+00 0.  1.
         21   -1    0    0  501  503 -0.00000000000E+00 -0.00000000000E+00 -0.54288796063E+02  0.54288796063E+02  0.00000000000E+00 0.  1.
          6    1    1    2  501    0 -0.79101547080E+02 -0.70982682557E+02  0.21348162084E+03  0.29403060795E+03  0.17200000000E+03 0.  1.
         -6    1    1    2    0  502  0.79101547080E+02  0.70982682557E+02  0.71523347752E+03  0.74326208254E+03  0.17200000000E+03 0.  1.
</event>
<event>
 4    1  0.4539494E+000  0.2059457E+03  0.7818608E-02  0.1144817E+00
         21   -1    0    0  501  502  0.00000000000E+00  0.00000000000E+00  0.11463339175E+03  0.11463339175E+03  0.00000000000E+00 0.  1.
         21   -1    0    0  502  503 -0.00000000000E+00 -0.00000000000E+00 -0.46546812619E+03  0.46546812619E+03  0.00000000000E+00 0. -1.
          6    1    1    2  501    0 -0.55118961981E+02  0.98952208380E+02 -0.44054558106E+02  0.21060494677E+03  0.17200000000E+03 0.  1.
         -6    1    1    2    0  503  0.55118961981E+02 -0.98952208380E+02 -0.30678017633E+03  0.36949657117E+03  0.17200000000E+03 0. -1.
</event>
<event>
 4    1  0.4539494E+000  0.2825311E+03  0.7818608E-02  0.1094314E+00
         21   -1    0    0  503  502  0.00000000000E+00  0.00000000000E+00  0.26809396570E+03  0.26809396570E+03  0.00000000000E+00 0. -1.
         21   -1    0    0  501  503 -0.00000000000E+00 -0.00000000000E+00 -0.13290433398E+04  0.13290433398E+04  0.00000000000E+00 0.  1.
          6    1    1    2  501    0 -0.22035497363E+03  0.41030877159E+02 -0.12339270314E+04  0.12658592995E+04  0.17200000000E+03 0.  1.
         -6    1    1    2    0  502  0.22035497363E+03 -0.41030877159E+02  0.17297765736E+03  0.33127800595E+03  0.17200000000E+03 0. -1.
</event>
<event>
 4    1  0.4539494E+000  0.1899395E+03  0.7818608E-02  0.1158516E+00
         21   -1    0    0  501  502  0.00000000000E+00  0.00000000000E+00  0.10925562165E+03  0.10925562165E+03  0.00000000000E+00 0.  1.
         21   -1    0    0  502  503 -0.00000000000E+00 -0.00000000000E+00 -0.47405249695E+03  0.47405249695E+03  0.00000000000E+00 0.  1.
          6    1    1    2  501    0  0.76040051747E+02 -0.26662869050E+02 -0.21740359078E+02  0.19117960474E+03  0.17200000000E+03 0.  1.
         -6    1    1    2    0  503 -0.76040051747E+02  0.26662869050E+02 -0.34305651622E+03  0.39212851386E+03  0.17200000000E+03 0.  1.
</event>
<event>
 4    1  0.4539494E+000  0.2281282E+03  0.7818608E-02  0.1127964E+00
         21   -1    0    0  501  502  0.00000000000E+00  0.00000000000E+00  0.87945073531E+02  0.87945073531E+02  0.00000000000E+00 0.  1.
         21   -1    0    0  502  503 -0.00000000000E+00 -0.00000000000E+00 -0.59580513948E+03  0.59580513948E+03  0.00000000000E+00 0. -1.
          6    1    1    2  501    0 -0.42000541525E+02  0.14385555666E+03 -0.28209616367E+03  0.36279568938E+03  0.17200000000E+03 0.  1.
         -6    1    1    2    0  503  0.42000541525E+02 -0.14385555666E+03 -0.22576390227E+03  0.32095452363E+03  0.17200000000E+03 0. -1.
</event>
<event>
 4    1  0.4539494E+000  0.2032682E+03  0.7818608E-02  0.1147011E+00
         21   -1    0    0  503  502  0.00000000000E+00  0.00000000000E+00  0.46710319413E+03  0.46710319413E+03  0.00000000000E+00 0.  1.
         21   -1    0    0  501  503 -0.00000000000E+00 -0.00000000000E+00 -0.17348609395E+03  0.17348609395E+03  0.00000000000E+00 0.  1.
          6    1    1    2  501    0  0.95762052040E+02  0.50631985518E+02 -0.77426904521E+02  0.21751527328E+03  0.17200000000E+03 0.  1.
         -6    1    1    2    0  502 -0.95762052040E+02 -0.50631985518E+02  0.37104400470E+03  0.42307401479E+03  0.17200000000E+03 0.  1.
</event>
<event>
 4    1  0.4539494E+000  0.2289459E+03  0.7818608E-02  0.1127384E+00
         21   -1    0    0  501  502  0.00000000000E+00  0.00000000000E+00  0.26005804908E+03  0.26005804908E+03  0.00000000000E+00 0.  1.
         21   -1    0    0  502  503 -0.00000000000E+00 -0.00000000000E+00 -0.21708483078E+03  0.21708483078E+03  0.00000000000E+00 0.  1.
          6    1    1    2  501    0  0.14032978753E+03  0.56033771398E+02  0.85294525319E+02  0.24431821229E+03  0.17200000000E+03 0.  1.
         -6    1    1    2    0  503 -0.14032978753E+03 -0.56033771398E+02 -0.42321307022E+02  0.23282466758E+03  0.17200000000E+03 0.  1.
</event>
<event>
 4    1  0.4539494E+000  0.2103080E+03  0.7818608E-02  0.1141322E+00
         21   -1    0    0  501  502  0.00000000000E+00  0.00000000000E+00  0.48208401765E+02  0.48208401765E+02  0.00000000000E+00 0.  1.
         21   -1    0    0  502  503 -0.00000000000E+00 -0.00000000000E+00 -0.91973050852E+03  0.91973050852E+03  0.00000000000E+00 0.  1.
          6    1    1    2  501    0  0.68724514405E+01 -0.12082305990E+03 -0.45978959361E+03  0.50560450234E+03  0.17200000000E+03 0.  1.
         -6    1    1    2    0  503 -0.68724514405E+01  0.12082305990E+03 -0.41173251315E+03  0.46233440795E+03  0.17200000000E+03 0.  1.
</event>
<event>
 4    1  0.4539494E+000  0.1809147E+03  0.7818608E-02  0.1166921E+00
         21   -1    0    0  503  502  0.00000000000E+00  0.00000000000E+00  0.46293152174E+03  0.46293152174E+03  0.00000000000E+00 0.  1.
         21   -1    0    0  501  503 -0.00000000000E+00 -0.00000000000E+00 -0.71277734933E+02  0.71277734933E+02  0.00000000000E+00 0. -1.
          6    1    1    2  501    0  0.43989600862E+02  0.34799854167E+02  0.21983580487E+03  0.28470668404E+03  0.17200000000E+03 0.  1.
         -6    1    1    2    0  502 -0.43989600862E+02 -0.34799854167E+02  0.17181798194E+03  0.24950257264E+03  0.17200000000E+03 0. -1.
</event>
<event>
 4    1  0.4539494E+000  0.1872260E+03  0.7818608E-02  0.1160987E+00
         21   -1    0    0  501  502  0.00000000000E+00  0.00000000000E+00  0.85645248253E+02  0.85645248253E+02  0.00000000000E+00 0. -1.
         21   -1    0    0  502  503 -0.00000000000E+00 -0.00000000000E+00 -0.92072036136E+03  0.92072036136E+03  0.00000000000E+00 0. -1.
          6    1    1    2  501    0 -0.61044280326E+02  0.41751372694E+02 -0.42516220996E+02  0.19199273510E+03  0.17200000000E+03 0. -1.
         -6    1    1    2    0  503  0.61044280326E+02 -0.41751372694E+02 -0.79255889211E+03  0.81437287452E+03  0.17200000000E+03 0. -1.
</event>
<event>
 4    1  0.4539494E+000  0.1856605E+03  0.7818608E-02  0.1162435E+00
         21   -1    0    0  503  502  0.00000000000E+00  0.00000000000E+00  0.13536390457E+04  0.13536390457E+04  0.00000000000E+00 0. -1.
         21   -1    0    0  501  503 -0.00000000000E+00 -0.00000000000E+00 -0.22244871012E+03  0.22244871012E+03  0.00000000000E+00 0.  1.
          6    1    1    2  501    0 -0.16006823005E+02  0.68041134714E+02 -0.17597303865E+03  0.25580524766E+03  0.17200000000E+03 0.  1.
         -6    1    1    2    0  502  0.16006823005E+02 -0.68041134714E+02  0.13071633742E+04  0.13202825082E+04  0.17200000000E+03 0. -1.
</event>
<event>
 4    1  0.4539494E+000  0.1786375E+03  0.7818608E-02  0.1169128E+00
         21   -1    0    0  503  502  0.00000000000E+00  0.00000000000E+00  0.69537539824E+03  0.69537539824E+03  0.00000000000E+00 0.  1.
         21   -1    0    0  501  503 -0.00000000000E+00 -0.00000000000E+00 -0.75217867583E+02  0.75217867583E+02  0.00000000000E+00 0.  1.
          6    1    1    2  501    0 -0.38526205915E+02  0.29036031302E+02  0.69493655417E+02  0.19167870982E+03  0.17200000000E+03 0.  1.
         -6    1    1    2    0  502  0.38526205915E+02 -0.29036031302E+02  0.55066387524E+03  0.57891455600E+03  0.17200000000E+03 0.  1.
</event>
<event>
 4    1  0.4539494E+000  0.1747660E+03  0.7818608E-02  0.1172967E+00
         21   -1    0    0  501  502  0.00000000000E+00  0.00000000000E+00  0.16054243657E+03  0.16054243657E+03  0.00000000000E+00 0.  1.
         21   -1    0    0  502  503 -0.00000000000E+00 -0.00000000000E+00 -0.25118588144E+03  0.25118588144E+03  0.00000000000E+00 0.  1.
          6    1    1    2  501    0 -0.78530962004E+01 -0.29957759782E+02  0.56074321744E+02  0.18354146139E+03  0.17200000000E+03 0.  1.
         -6    1    1    2    0  503  0.78530962004E+01  0.29957759782E+02 -0.14671776662E+03  0.22818685662E+03  0.17200000000E+03 0.  1.
</event>
<event>
 4    1  0.4539494E+000  0.1950130E+03  0.7818608E-02  0.1154016E+00
         21   -1    0    0  503  502  0.00000000000E+00  0.00000000000E+00  0.88404157965E+03  0.88404157965E+03  0.00000000000E+00 0.  1.
         21   -1    0    0  501  503 -0.00000000000E+00 -0.00000000000E+00 -0.63497434340E+02  0.63497434340E+02  0.00000000000E+00 0.  1.
          6    1    1    2  501    0 -0.90592113846E+02  0.15464139643E+02  0.14121553054E+03  0.24077353836E+03  0.17200000000E+03 0.  1.
         -6    1    1    2    0  502  0.90592113846E+02 -0.15464139643E+02  0.67932861477E+03  0.70676547564E+03  0.17200000000E+03 0.  1.
</event>
<event>
 4    1  0.4539494E+000  0.3509334E+03  0.7818608E-02  0.1062233E+00
         21   -1    0    0  501  502  0.00000000000E+00  0.00000000000E+00  0.10937256691E+03  0.10937256691E+03  0.00000000000E+00 0. -1.
         21   -1    0    0  502  503 -0.00000000000E+00 -0.00000000000E+00 -0.20442941258E+04  0.20442941258E+04  0.00000000000E+00 0. -1.
          6    1    1    2  501    0  0.30585090258E+01  0.30587726320E+03 -0.24574516821E+03  0.42842145408E+03  0.17200000000E+03 0. -1.
         -6    1    1    2    0  503 -0.30585090258E+01 -0.30587726320E+03 -0.16891763907E+04  0.17252452387E+04  0.17200000000E+03 0. -1.
</event>
<event>
 4    1  0.4539494E+000  0.3215479E+03  0.7818608E-02  0.1074939E+00
         21   -1    0    0  501  502  0.00000000000E+00  0.00000000000E+00  0.83985593321E+03  0.83985593321E+03  0.00000000000E+00 0. -1.
         21   -1    0    0  502  503 -0.00000000000E+00 -0.00000000000E+00 -0.35953813405E+03  0.35953813405E+03  0.00000000000E+00 0.  1.
          6    1    1    2  501    0 -0.25716298036E+03  0.87614414805E+02  0.72646612865E+03  0.79444705313E+03  0.17200000000E+03 0. -1.
         -6    1    1    2    0  503  0.25716298036E+03 -0.87614414805E+02 -0.24614832949E+03  0.40494701414E+03  0.17200000000E+03 0.  1.
</event>
<event>
 4    1  0.4539494E+000  0.2261000E+03  0.7818608E-02  0.1129415E+00
         21   -1    0    0  503  502  0.00000000000E+00  0.00000000000E+00  0.30666918982E+03  0.30666918982E+03  0.00000000000E+00 0. -1.
         21   -1    0    0  501  503 -0.00000000000E+00 -0.00000000000E+00 -0.75812897334E+03  0.75812897334E+03  0.00000000000E+00 0.  1.
          6    1    1    2  501    0 -0.14644905276E+03  0.94805271300E+01 -0.69596787404E+03  0.73177352176E+03  0.17200000000E+03 0.  1.
         -6    1    1    2    0  502  0.14644905276E+03 -0.94805271300E+01  0.24450809052E+03  0.33302464140E+03  0.17200000000E+03 0. -1.
</event>
<event>
 4    1  0.4539494E+000  0.2053968E+03  0.7818608E-02  0.1145264E+00
         21   -1    0    0  503  502  0.00000000000E+00  0.00000000000E+00  0.55232057351E+03  0.55232057351E+03  0.00000000000E+00 0.  1.
         21   -1    0    0  501  503 -0.00000000000E+00 -0.00000000000E+00 -0.14962549120E+03  0.14962549120E+03  0.00000000000E+00 0.  1.
          6    1    1    2  501    0 -0.56838277409E+02 -0.96815524612E+02 -0.44209767960E+02  0.21010078336E+03  0.17200000000E+03 0.  1.
         -6    1    1    2    0  502  0.56838277409E+02  0.96815524612E+02  0.44690485028E+03  0.49184528135E+03  0.17200000000E+03 0.  1.
</event>
<event>
 4    1  0.4539494E+000  0.2027889E+03  0.7818608E-02  0.1147407E+00
         21   -1    0    0  503  502  0.00000000000E+00  0.00000000000E+00  0.26765893388E+03  0.26765893388E+03  0.00000000000E+00 0. -1.
         21   -1    0    0  501  503 -0.00000000000E+00 -0.00000000000E+00 -0.39064951261E+03  0.39064951261E+03  0.00000000000E+00 0. -1.
          6    1    1    2  501    0 -0.71656620703E+02  0.80029087064E+02 -0.31787754657E+03  0.37705365756E+03  0.17200000000E+03 0. -1.
         -6    1    1    2    0  502  0.71656620703E+02 -0.80029087064E+02  0.19488696784E+03  0.28125478894E+03  0.17200000000E+03 0. -1.
</event>
<event>
 4    1  0.4539494E+000  0.2226716E+03  0.7818608E-02  0.1131907E+00
         21   -1    0    0  503  502  0.00000000000E+00  0.00000000000E+00  0.41007627557E+03  0.41007627557E+03  0.00000000000E+00 0.  1.
         21   -1    0    0  501  503 -0.00000000000E+00 -0.00000000000E+00 -0.12909459153E+03  0.12909459153E+03  0.00000000000E+00 0.  1.
          6    1    1    2  501    0 -0.12726132018E+03  0.61670073854E+02  0.20836746926E+03  0.30495842974E+03  0.17200000000E+03 0.  1.
         -6    1    1    2    0  502  0.12726132018E+03 -0.61670073854E+02  0.72614214786E+02  0.23421243736E+03  0.17200000000E+03 0.  1.
</event>
<event>
 4    1  0.4539494E+000  0.1906274E+03  0.7818608E-02  0.1157897E+00
         21   -1    0    0  503  502  0.00000000000E+00  0.00000000000E+00  0.18834678454E+03  0.18834678454E+03  0.00000000000E+00 0. -1.
         21   -1    0    0  501  503 -0.00000000000E+00 -0.00000000000E+00 -0.19946934126E+03  0.19946934126E+03  0.00000000000E+00 0. -1.
          6    1    1    2  501    0  0.61177356354E+02  0.54883083652E+02 -0.40655441424E+02  0.19491456261E+03  0.17200000000E+03 0. -1.
         -6    1    1    2    0  502 -0.61177356354E+02 -0.54883083652E+02  0.29532884708E+02  0.19290156319E+03  0.17200000000E+03 0. -1.
</event>
<event>
 4    1  0.4539494E+000  0.2052613E+03  0.7818608E-02  0.1145374E+00
         21   -1    0    0  501  502  0.00000000000E+00  0.00000000000E+00  0.15838620403E+04  0.15838620403E+04  0.00000000000E+00 0. -1.
         21   -1    0    0  502  503 -0.00000000000E+00 -0.00000000000E+00 -0.27377895755E+02  0.27377895755E+02  0.00000000000E+00 0. -1.
          6    1    1    2  501    0  0.11174498062E+03  0.78274107036E+01  0.91395777702E+03  0.93672355967E+03  0.17200000000E+03 0. -1.
         -6    1    1    2    0  503 -0.11174498062E+03 -0.78274107036E+01  0.64252636749E+03  0.67451637636E+03  0.17200000000E+03 0. -1.
</event>
<event>
 4    1  0.4539494E+000  0.2537060E+03  0.7818608E-02  0.1110985E+00
         21   -1    0    0  501  502  0.00000000000E+00  0.00000000000E+00  0.25843347689E+03  0.25843347689E+03  0.00000000000E+00 0.  1.
         21   -1    0    0  502  503 -0.00000000000E+00 -0.00000000000E+00 -0.32250142128E+03  0.32250142128E+03  0.00000000000E+00 0. -1.
          6    1    1    2  501    0 -0.16660174852E+03  0.83824891581E+02  0.10657366641E+03  0.27518121562E+03  0.17200000000E+03 0.  1.
         -6    1    1    2    0  503  0.16660174852E+03 -0.83824891581E+02 -0.17064161080E+03  0.30575368255E+03  0.17200000000E+03 0. -1.
</event>
<event>
 4    1  0.4539494E+000  0.3008927E+03  0.7818608E-02  0.1084795E+00
         21   -1    0    0  501  502  0.00000000000E+00  0.00000000000E+00  0.46167981338E+03  0.46167981338E+03  0.00000000000E+00 0.  1.
         21   -1    0    0  502  503 -0.00000000000E+00 -0.00000000000E+00 -0.20231418437E+03  0.20231418437E+03  0.00000000000E+00 0. -1.
          6    1    1    2  501    0  0.68098362691E+02 -0.23730782690E+03  0.18785814353E+03  0.35472112117E+03  0.17200000000E+03 0. -1.
         -6    1    1    2    0  503 -0.68098362691E+02  0.23730782690E+03  0.71507485474E+02  0.30927287658E+03  0.17200000000E+03 0.  1.
</event>
<event>
 4    1  0.4539494E+000  0.1742206E+03  0.7818608E-02  0.1173517E+00
         21   -1    0    0  501  502  0.00000000000E+00  0.00000000000E+00  0.86298501590E+02  0.86298501590E+02  0.00000000000E+00 0. -1.
         21   -1    0    0  502  503 -0.00000000000E+00 -0.00000000000E+00 -0.57333110481E+03  0.57333110481E+03  0.00000000000E+00 0. -1.
          6    1    1    2  501    0 -0.18657195833E+02 -0.20511650610E+02 -0.38464223031E+02  0.17841612937E+03  0.17200000000E+03 0. -1.
         -6    1    1    2    0  503  0.18657195833E+02  0.20511650610E+02 -0.44856838019E+03  0.48121347703E+03  0.17200000000E+03 0. -1.
</event>
<event>
 4    1  0.4539494E+000  0.2500192E+03  0.7818608E-02  0.1113293E+00
         21   -1    0    0  501  502  0.00000000000E+00  0.00000000000E+00  0.74630700460E+02  0.74630700460E+02  0.00000000000E+00 0.  1.
         21   -1    0    0  502  503 -0.00000000000E+00 -0.00000000000E+00 -0.87318706054E+03  0.87318706054E+03  0.00000000000E+00 0. -1.
          6    1    1    2  501    0  0.17718023172E+03  0.39150635738E+02 -0.30358641712E+03  0.39328656149E+03  0.17200000000E+03 0.  1.
         -6    1    1    2    0  503 -0.17718023172E+03 -0.39150635738E+02 -0.49496994296E+03  0.55453119950E+03  0.17200000000E+03 0. -1.
</event>
<event>
 4    1  0.4539494E+000  0.1875783E+03  0.7818608E-02  0.1160664E+00
         21   -1    0    0  503  502  0.00000000000E+00  0.00000000000E+00  0.15971670521E+04  0.15971670521E+04  0.00000000000E+00 0. -1.
         21   -1    0    0  501  503 -0.00000000000E+00 -0.00000000000E+00 -0.30228043989E+02  0.30228043989E+02  0.00000000000E+00 0.  1.
          6    1    1    2  501    0  0.54163951243E+02 -0.51651507295E+02  0.35971654152E+03  0.40568658108E+03  0.17200000000E+03 0.  1.
         -6    1    1    2    0  502 -0.54163951243E+02  0.51651507295E+02  0.12072224666E+04  0.12217085150E+04  0.17200000000E+03 0. -1.
</event>
<event>
 4    1  0.4539494E+000  0.1771229E+03  0.7818608E-02  0.1170617E+00
         21   -1    0    0  503  502  0.00000000000E+00  0.00000000000E+00  0.71172121188E+02  0.71172121188E+02  0.00000000000E+00 0. -1.
         21   -1    0    0  501  503 -0.00000000000E+00 -0.00000000000E+00 -0.70955190451E+03  0.70955190451E+03  0.00000000000E+00 0. -1.
          6    1    1    2  501    0 -0.19019754459E+02  0.37772549999E+02 -0.55943413614E+03  0.58680411490E+03  0.17200000000E+03 0. -1.
         -6    1    1    2    0  502  0.19019754459E+02 -0.37772549999E+02 -0.78945647185E+02  0.19391991079E+03  0.17200000000E+03 0. -1.
</event>
<event>
 4    1  0.4539494E+000  0.1796551E+03  0.7818608E-02  0.1168137E+00
         21   -1    0    0  501  502  0.00000000000E+00  0.00000000000E+00  0.60588626507E+03  0.60588626507E+03  0.00000000000E+00 0.  1.
         21   -1    0    0  502  503 -0.00000000000E+00 -0.00000000000E+00 -0.53316265403E+02  0.53316265403E+02  0.00000000000E+00 0.  1.
          6    1    1    2  501    0 -0.26497557899E+02  0.44607510770E+02  0.26664336436E+03  0.32151925969E+03  0.17200000000E+03 0.  1.
         -6    1    1    2    0  503  0.26497557899E+02 -0.44607510770E+02  0.28592663530E+03  0.33768327078E+03  0.17200000000E+03 0.  1.
</event>
<event>
 4    1  0.4539494E+000  0.1969143E+03  0.7818608E-02  0.1152369E+00
         21   -1    0    0  503  502  0.00000000000E+00  0.00000000000E+00  0.10619889702E+03  0.10619889702E+03  0.00000000000E+00 0. -1.
         21   -1    0    0  501  503 -0.00000000000E+00 -0.00000000000E+00 -0.38801823323E+03  0.38801823323E+03  0.00000000000E+00 0.  1.
          6    1    1    2  501    0 -0.33404130627E+02 -0.89863285441E+02 -0.20094006658E+03  0.28133993028E+03  0.17200000000E+03 0.  1.
         -6    1    1    2    0  502  0.33404130627E+02  0.89863285441E+02 -0.80879269624E+02  0.21287719997E+03  0.17200000000E+03 0. -1.
</event>
<event>
 4    1  0.4539494E+000  0.4805609E+03  0.7818608E-02  0.1018981E+00
         21   -1    0    0  503  502  0.00000000000E+00  0.00000000000E+00  0.11285739082E+04  0.11285739082E+04  0.00000000000E+00 0.  1.
         21   -1    0    0  501  503 -0.00000000000E+00 -0.00000000000E+00 -0.20506510148E+03  0.20506510148E+03  0.00000000000E+00 0. -1.
          6    1    1    2  501    0  0.36975097251E+03 -0.25424197104E+03  0.49251108381E+03  0.68811767104E+03  0.17200000000E+03 0.  1.
         -6    1    1    2    0  502 -0.36975097251E+03  0.25424197104E+03  0.43099772294E+03  0.64552133868E+03  0.17200000000E+03 0.  1.
</event>
<event>
 4    1  0.4539494E+000  0.2262155E+03  0.7818608E-02  0.1129332E+00
         21   -1    0    0  501  502  0.00000000000E+00  0.00000000000E+00  0.46068432738E+03  0.46068432738E+03  0.00000000000E+00 0. -1.
         21   -1    0    0  502  503 -0.00000000000E+00 -0.00000000000E+00 -0.12587809226E+03  0.12587809226E+03  0.00000000000E+00 0.  1.
          6    1    1    2  501    0  0.11005309137E+03  0.97353905419E+02  0.26795525333E+03  0.35067575281E+03  0.17200000000E+03 0. -1.
         -6    1    1    2    0  503 -0.11005309137E+03 -0.97353905419E+02  0.66850981798E+02  0.23588666683E+03  0.17200000000E+03 0. -1.
</event>
<event>
 4    1  0.4539494E+000  0.2952321E+03  0.7818608E-02  0.1087649E+00
         21   -1    0    0  503  502  0.00000000000E+00  0.00000000000E+00  0.12584817290E+04  0.12584817290E+04  0.00000000000E+00 0. -1.
         21   -1    0    0  501  503 -0.00000000000E+00 -0.00000000000E+00 -0.99501118711E+02  0.99501118711E+02  0.00000000000E+00 0.  1.
          6    1    1    2  501    0 -0.21682982445E+03 -0.10277561712E+03  0.20516277510E+03  0.35951879580E+03  0.17200000000E+03 0.  1.
         -6    1    1    2    0  502  0.21682982445E+03  0.10277561712E+03  0.95381783521E+03  0.99846405193E+03  0.17200000000E+03 0. -1.
</event>
<event>
 4    1  0.4539494E+000  0.1882358E+03  0.7818608E-02  0.1160062E+00
         21   -1    0    0  501  502  0.00000000000E+00  0.00000000000E+00  0.13011876384E+03  0.13011876384E+03  0.00000000000E+00 0. -1.
         21   -1    0    0  502  503 -0.00000000000E+00 -0.00000000000E+00 -0.28242639056E+03  0.28242639056E+03  0.00000000000E+00 0. -1.
          6    1    1    2  501    0 -0.70693010571E+02  0.29175532093E+02 -0.37115626787E+02  0.19186006142E+03  0.17200000000E+03 0. -1.
         -6    1    1    2    0  503  0.70693010571E+02 -0.29175532093E+02 -0.11519199993E+03  0.22068509298E+03  0.17200000000E+03 0. -1.
</event>
<event>
 4    1  0.4539494E+000  0.2559838E+03  0.7818608E-02  0.1109581E+00
         21   -1    0    0  503  502  0.00000000000E+00  0.00000000000E+00  0.47244086364E+03  0.47244086364E+03  0.00000000000E+00 0. -1.
         21   -1    0    0  501  503 -0.00000000000E+00 -0.00000000000E+00 -0.14306376469E+03  0.14306376469E+03  0.00000000000E+00 0.  1.
          6    1    1    2  501    0 -0.15710456039E+03  0.10612181334E+03  0.11094170016E+03  0.27899057869E+03  0.17200000000E+03 0.  1.
         -6    1    1    2    0  502  0.15710456039E+03 -0.10612181334E+03  0.21843539879E+03  0.33651404964E+03  0.17200000000E+03 0. -1.
</event>
<event>
 4    1  0.4539494E+000  0.1970804E+03  0.7818608E-02  0.1152226E+00
         21   -1    0    0  501  502  0.00000000000E+00  0.00000000000E+00  0.92118910051E+02  0.92118910051E+02  0.00000000000E+00 0. -1.
         21   -1    0    0  502  503 -0.00000000000E+00 -0.00000000000E+00 -0.54242900029E+03  0.54242900029E+03  0.00000000000E+00 0. -1.
          6    1    1    2  501    0 -0.91494050953E+02  0.29757476030E+02 -0.75433787410E+02  0.21102351770E+03  0.17200000000E+03 0. -1.
         -6    1    1    2    0  503  0.91494050953E+02 -0.29757476030E+02 -0.37487630283E+03  0.42352439264E+03  0.17200000000E+03 0. -1.
</event>
<event>
 4    1  0.4539494E+000  0.1886191E+03  0.7818608E-02  0.1159713E+00
         21   -1    0    0  501  502  0.00000000000E+00  0.00000000000E+00  0.63388518259E+03  0.63388518259E+03  0.00000000000E+00 0. -1.
         21   -1    0    0  502  503 -0.00000000000E+00 -0.00000000000E+00 -0.56914125202E+02  0.56914125202E+02  0.00000000000E+00 0. -1.
          6    1    1    2  501    0  0.75872782147E+02  0.15378383539E+02  0.32914156773E+03  0.37935648849E+03  0.17200000000E+03 0. -1.
         -6    1    1    2    0  503 -0.75872782147E+02 -0.15378383539E+02  0.24782948966E+03  0.31144281930E+03  0.17200000000E+03 0. -1.
</event>
<event>
 4    1  0.4539494E+000  0.1904385E+03  0.7818608E-02  0.1158066E+00
         21   -1    0    0  501  502  0.00000000000E+00  0.00000000000E+00  0.20311249782E+03  0.20311249782E+03  0.00000000000E+00 0.  1.
         21   -1    0    0  502  503 -0.00000000000E+00 -0.00000000000E+00 -0.18851590481E+03  0.18851590481E+03  0.00000000000E+00 0.  1.
          6    1    1    2  501    0  0.60268228792E+02 -0.55231768292E+02 -0.37712180595E+02  0.19413659159E+03  0.17200000000E+03 0.  1.
         -6    1    1    2    0  503 -0.60268228792E+02  0.55231768292E+02  0.52308773610E+02  0.19749181104E+03  0.17200000000E+03 0.  1.
</event>
<event>
 4    1  0.4539494E+000  0.1739020E+03  0.7818608E-02  0.1173839E+00
         21   -1    0    0  503  502  0.00000000000E+00  0.00000000000E+00  0.20834243630E+04  0.20834243630E+04  0.00000000000E+00 0.  1.
         21   -1    0    0  501  503 -0.00000000000E+00 -0.00000000000E+00 -0.17005434446E+02  0.17005434446E+02  0.00000000000E+00 0.  1.
          6    1    1    2  501    0  0.62135168662E+01 -0.24885474122E+02  0.63134423505E+03  0.65485680705E+03  0.17200000000E+03 0.  1.
         -6    1    1    2    0  502 -0.62135168662E+01  0.24885474122E+02  0.14350746935E+04  0.14455729904E+04  0.17200000000E+03 0.  1.
</event>
<event>
 4    1  0.4539494E+000  0.1919117E+03  0.7818608E-02  0.1156748E+00
         21   -1    0    0  503  502  0.00000000000E+00  0.00000000000E+00  0.12780509939E+04  0.12780509939E+04  0.00000000000E+00 0. -1.
         21   -1    0    0  501  503 -0.00000000000E+00 -0.00000000000E+00 -0.76068354754E+02  0.76068354754E+02  0.00000000000E+00 0.  1.
          6    1    1    2  501    0  0.82884856745E+02  0.19396178810E+02  0.67373634721E+02  0.20339448834E+03  0.17200000000E+03 0.  1.
         -6    1    1    2    0  502 -0.82884856745E+02 -0.19396178810E+02  0.11346090044E+04  0.11507248603E+04  0.17200000000E+03 0. -1.
</event>
<event>
 4    1  0.4539494E+000  0.1791214E+03  0.7818608E-02  0.1168656E+00
         21   -1    0    0  501  502  0.00000000000E+00  0.00000000000E+00  0.19712307622E+03  0.19712307622E+03  0.00000000000E+00 0.  1.
         21   -1    0    0  502  503 -0.00000000000E+00 -0.00000000000E+00 -0.28447126031E+03  0.28447126031E+03  0.00000000000E+00 0.  1.
          6    1    1    2  501    0 -0.49683724821E+02  0.56560574286E+01  0.11382973688E+03  0.21223023464E+03  0.17200000000E+03 0.  1.
         -6    1    1    2    0  503  0.49683724821E+02 -0.56560574286E+01 -0.20117792097E+03  0.26936410188E+03  0.17200000000E+03 0.  1.
</event>
<event>
 4    1  0.4539494E+000  0.1851422E+03  0.7818608E-02  0.1162917E+00
         21   -1    0    0  501  502  0.00000000000E+00  0.00000000000E+00  0.30100920040E+03  0.30100920040E+03  0.00000000000E+00 0. -1.
         21   -1    0    0  502  503 -0.00000000000E+00 -0.00000000000E+00 -0.14400738948E+03  0.14400738948E+03  0.00000000000E+00 0. -1.
          6    1    1    2  501    0 -0.63089036740E+02 -0.26709542589E+02  0.18028167508E+03  0.25841654086E+03  0.17200000000E+03 0. -1.
         -6    1    1    2    0  503  0.63089036740E+02  0.26709542589E+02 -0.23279864156E+02  0.18660004903E+03  0.17200000000E+03 0. -1.
</event>
<event>
 4    1  0.4539494E+000  0.1860198E+03  0.7818608E-02  0.1162101E+00
         21   -1    0    0  501  502  0.00000000000E+00  0.00000000000E+00  0.22512976724E+03  0.22512976724E+03  0.00000000000E+00 0. -1.
         21   -1    0    0  502  503 -0.00000000000E+00 -0.00000000000E+00 -0.31137180650E+03  0.31137180650E+03  0.00000000000E+00 0. -1.
          6    1    1    2  501    0 -0.58202332086E+02 -0.40396002238E+02  0.14776444423E+03  0.23756615802E+03  0.17200000000E+03 0. -1.
         -6    1    1    2    0  503  0.58202332086E+02  0.40396002238E+02 -0.23400648349E+03  0.29893541572E+03  0.17200000000E+03 0. -1.
</event>
<event>
 4    1  0.4539494E+000  0.2644775E+03  0.7818608E-02  0.1104483E+00
         21   -1    0    0  503  502  0.00000000000E+00  0.00000000000E+00  0.62192178488E+03  0.62192178488E+03  0.00000000000E+00 0. -1.
         21   -1    0    0  501  503 -0.00000000000E+00 -0.00000000000E+00 -0.22258310496E+03  0.22258310496E+03  0.00000000000E+00 0.  1.
          6    1    1    2  501    0  0.19564225389E+03 -0.45699791940E+02 -0.97321449744E+02  0.28181523570E+03  0.17200000000E+03 0.  1.
         -6    1    1    2    0  502 -0.19564225389E+03  0.45699791940E+02  0.49666012967E+03  0.56268965415E+03  0.17200000000E+03 0. -1.
</event>
<event>
 4    1  0.4539494E+000  0.1938337E+03  0.7818608E-02  0.1155048E+00
         21   -1    0    0  503  502  0.00000000000E+00  0.00000000000E+00  0.12723276976E+03  0.12723276976E+03  0.00000000000E+00 0. -1.
         21   -1    0    0  501  503 -0.00000000000E+00 -0.00000000000E+00 -0.68653959313E+03  0.68653959313E+03  0.00000000000E+00 0.  1.
          6    1    1    2  501    0 -0.76670763334E+02  0.45924826002E+02 -0.58681226298E+03  0.61799686697E+03  0.17200000000E+03 0.  1.
         -6    1    1    2    0  502  0.76670763334E+02 -0.45924826002E+02  0.27505439615E+02  0.19577549592E+03  0.17200000000E+03 0. -1.
</event>
<event>
 4    1  0.4539494E+000  0.2191653E+03  0.7818608E-02  0.1134507E+00
         21   -1    0    0  501  502  0.00000000000E+00  0.00000000000E+00  0.12818959634E+04  0.12818959634E+04  0.00000000000E+00 0. -1.
         21   -1    0    0  502  503 -0.00000000000E+00 -0.00000000000E+00 -0.41409369400E+02  0.41409369400E+02  0.00000000000E+00 0. -1.
          6    1    1    2  501    0  0.12458864277E+03 -0.54102659725E+02  0.82430443918E+03  0.85294269219E+03  0.17200000000E+03 0. -1.
         -6    1    1    2    0  503 -0.12458864277E+03  0.54102659725E+02  0.41618215482E+03  0.47036264061E+03  0.17200000000E+03 0. -1.
</event>
<event>
 4    1  0.4539494E+000  0.3781331E+03  0.7818608E-02  0.1051626E+00
         21   -1    0    0  503  502  0.00000000000E+00  0.00000000000E+00  0.86558343730E+03  0.86558343730E+03  0.00000000000E+00 0.  1.
         21   -1    0    0  501  503 -0.00000000000E+00 -0.00000000000E+00 -0.27923375567E+03  0.27923375567E+03  0.00000000000E+00 0. -1.
          6    1    1    2  501    0  0.28917732398E+03  0.17256043991E+03 -0.72639190271E+02  0.38504685700E+03  0.17200000000E+03 0. -1.
         -6    1    1    2    0  502 -0.28917732398E+03 -0.17256043991E+03  0.65898887191E+03  0.75977033597E+03  0.17200000000E+03 0.  1.
</event>
<event>
 4    1  0.4539494E+000  0.3047727E+03  0.7818608E-02  0.1082879E+00
         21   -1    0    0  501  502  0.00000000000E+00  0.00000000000E+00  0.17035238991E+03  0.17035238991E+03  0.00000000000E+00 0. -1.
         21   -1    0    0  502  503 -0.00000000000E+00 -0.00000000000E+00 -0.63589373809E+03  0.63589373809E+03  0.00000000000E+00 0.  1.
          6    1    1    2  501    0 -0.20875536846E+03 -0.14044068693E+03 -0.80579429942E+02  0.31524503951E+03  0.17200000000E+03 0. -1.
         -6    1    1    2    0  503  0.20875536846E+03  0.14044068693E+03 -0.38496191824E+03  0.49100108849E+03  0.17200000000E+03 0.  1.
</event>
<event>
 4    1  0.4539494E+000  0.2172808E+03  0.7818608E-02  0.1135927E+00
         21   -1    0    0  501  502  0.00000000000E+00  0.00000000000E+00  0.27794730000E+02  0.27794730000E+02  0.00000000000E+00 0.  1.
         21   -1    0    0  502  503 -0.00000000000E+00 -0.00000000000E+00 -0.18317170064E+04  0.18317170064E+04  0.00000000000E+00 0.  1.
          6    1    1    2  501    0 -0.56172550327E+02 -0.12029787352E+03 -0.11526451343E+04  0.11729457530E+04  0.17200000000E+03 0.  1.
         -6    1    1    2    0  503  0.56172550327E+02  0.12029787352E+03 -0.65127714209E+03  0.68656598342E+03  0.17200000000E+03 0.  1.
</event>
<event>
 4    1  0.4539494E+000  0.2710050E+03  0.7818608E-02  0.1100706E+00
         21   -1    0    0  501  502  0.00000000000E+00  0.00000000000E+00  0.43242430546E+03  0.43242430546E+03  0.00000000000E+00 0. -1.
         21   -1    0    0  502  503 -0.00000000000E+00 -0.00000000000E+00 -0.32331205871E+03  0.32331205871E+03  0.00000000000E+00 0. -1.
          6    1    1    2  501    0  0.19560493870E+03 -0.74822532502E+02  0.31489651120E+03  0.41545579329E+03  0.17200000000E+03 0. -1.
         -6    1    1    2    0  503 -0.19560493870E+03  0.74822532502E+02 -0.20578426445E+03  0.34028057087E+03  0.17200000000E+03 0. -1.
</event>
<event>
 4    1  0.4539494E+000  0.2038692E+03  0.7818608E-02  0.1146515E+00
         21   -1    0    0  503  502  0.00000000000E+00  0.00000000000E+00  0.39262955717E+03  0.39262955717E+03  0.00000000000E+00 0.  1.
         21   -1    0    0  501  503 -0.00000000000E+00 -0.00000000000E+00 -0.39961641422E+03  0.39961641422E+03  0.00000000000E+00 0.  1.
          6    1    1    2  501    0 -0.10674191168E+03  0.24182684632E+02 -0.34312197421E+03  0.39911818692E+03  0.17200000000E+03 0.  1.
         -6    1    1    2    0  502  0.10674191168E+03 -0.24182684632E+02  0.33613511715E+03  0.39312778448E+03  0.17200000000E+03 0.  1.
</event>
<event>
 4    1  0.4539494E+000  0.1755347E+03  0.7818608E-02  0.1172196E+00
         21   -1    0    0  501  502  0.00000000000E+00  0.00000000000E+00  0.33215370509E+03  0.33215370509E+03  0.00000000000E+00 0.  1.
         21   -1    0    0  502  503 -0.00000000000E+00 -0.00000000000E+00 -0.10121453831E+03  0.10121453831E+03  0.00000000000E+00 0.  1.
          6    1    1    2  501    0  0.58813391578E+01  0.34552215095E+02  0.17807416125E+03  0.25004570107E+03  0.17200000000E+03 0.  1.
         -6    1    1    2    0  503 -0.58813391578E+01 -0.34552215095E+02  0.52865005520E+02  0.18332254233E+03  0.17200000000E+03 0.  1.
</event>
<event>
 4    1  0.4539494E+000  0.3573694E+03  0.7818608E-02  0.1059630E+00
         21   -1    0    0  503  502  0.00000000000E+00  0.00000000000E+00  0.12311576583E+03  0.12311576583E+03  0.00000000000E+00 0. -1.
         21   -1    0    0  501  503 -0.00000000000E+00 -0.00000000000E+00 -0.12347120589E+04  0.12347120589E+04  0.00000000000E+00 0.  1.
          6    1    1    2  501    0  0.15325933287E+03 -0.27320400825E+03 -0.82723898829E+03  0.90113106538E+03  0.17200000000E+03 0.  1.
         -6    1    1    2    0  502 -0.15325933287E+03  0.27320400825E+03 -0.28435730482E+03  0.45669675940E+03  0.17200000000E+03 0. -1.
</event>
<event>
 4    1  0.4539494E+000  0.2027195E+03  0.7818608E-02  0.1147465E+00
         21   -1    0    0  501  502  0.00000000000E+00  0.00000000000E+00  0.25719389535E+03  0.25719389535E+03  0.00000000000E+00 0. -1.
         21   -1    0    0  502  503 -0.00000000000E+00 -0.00000000000E+00 -0.18433989495E+03  0.18433989495E+03  0.00000000000E+00 0.  1.
          6    1    1    2  501    0 -0.65808558474E+01 -0.10708814479E+03  0.11700419966E+03  0.23406230187E+03  0.17200000000E+03 0. -1.
         -6    1    1    2    0  503  0.65808558474E+01  0.10708814479E+03 -0.44150199254E+02  0.20747148844E+03  0.17200000000E+03 0. -1.
</event>
<event>
 4    1  0.4539494E+000  0.3847843E+03  0.7818608E-02  0.1049179E+00
         21   -1    0    0  501  502  0.00000000000E+00  0.00000000000E+00  0.14203712271E+04  0.14203712271E+04  0.00000000000E+00 0. -1.
         21   -1    0    0  502  503 -0.00000000000E+00 -0.00000000000E+00 -0.10576877605E+03  0.10576877605E+03  0.00000000000E+00 0.  1.
          6    1    1    2  501    0 -0.32511704070E+03 -0.11302168442E+03  0.74905165661E+03  0.84210294832E+03  0.17200000000E+03 0. -1.
         -6    1    1    2    0  503  0.32511704070E+03  0.11302168442E+03  0.56555079445E+03  0.68403705485E+03  0.17200000000E+03 0.  1.
</event>
<event>
 4    1  0.4539494E+000  0.1753510E+03  0.7818608E-02  0.1172380E+00
         21   -1    0    0  501  502  0.00000000000E+00  0.00000000000E+00  0.57189605937E+03  0.57189605937E+03  0.00000000000E+00 0. -1.
         21   -1    0    0  502  503 -0.00000000000E+00 -0.00000000000E+00 -0.67453058601E+02  0.67453058601E+02  0.00000000000E+00 0. -1.
          6    1    1    2  501    0 -0.32131372058E+02  0.11469285021E+02  0.39622690477E+03  0.43329404523E+03  0.17200000000E+03 0. -1.
         -6    1    1    2    0  503  0.32131372058E+02 -0.11469285021E+02  0.10821609600E+03  0.20605507274E+03  0.17200000000E+03 0. -1.
</event>
<event>
 4    1  0.4539494E+000  0.2000694E+03  0.7818608E-02  0.1149680E+00
         21   -1    0    0  501  502  0.00000000000E+00  0.00000000000E+00  0.46032609991E+02  0.46032609991E+02  0.00000000000E+00 0. -1.
         21   -1    0    0  502  503 -0.00000000000E+00 -0.00000000000E+00 -0.95342966460E+03  0.95342966460E+03  0.00000000000E+00 0.  1.
          6    1    1    2  501    0  0.62745451244E+02  0.80664592502E+02 -0.30547603297E+03  0.36516212133E+03  0.17200000000E+03 0. -1.
         -6    1    1    2    0  503 -0.62745451244E+02 -0.80664592502E+02 -0.60192102164E+03  0.63430015326E+03  0.17200000000E+03 0.  1.
</event>
<event>
 4    1  0.4539494E+000  0.1993990E+03  0.7818608E-02  0.1150247E+00
         21   -1    0    0  503  502  0.00000000000E+00  0.00000000000E+00  0.76255784965E+02  0.76255784965E+02  0.00000000000E+00 0. -1.
         21   -1    0    0  501  503 -0.00000000000E+00 -0.00000000000E+00 -0.52205550575E+03  0.52205550575E+03  0.00000000000E+00 0. -1.
          6    1    1    2  501    0 -0.10036705328E+03 -0.10120189684E+02 -0.21232028751E+03  0.29127284135E+03  0.17200000000E+03 0.  1.
         -6    1    1    2    0  502  0.10036705328E+03  0.10120189684E+02 -0.23347943328E+03  0.30703844936E+03  0.17200000000E+03 0.  1.
</event>
<event>
 4    1  0.4539494E+000  0.1778264E+03  0.7818608E-02  0.1169923E+00
         21   -1    0    0  501  502  0.00000000000E+00  0.00000000000E+00  0.46641782645E+03  0.46641782645E+03  0.00000000000E+00 0.  1.
         21   -1    0    0  502  503 -0.00000000000E+00 -0.00000000000E+00 -0.72830011879E+02  0.72830011879E+02  0.00000000000E+00 0.  1.
          6    1    1    2  501    0  0.16672375309E+02  0.41955601451E+02  0.26766512766E+03  0.32135161608E+03  0.17200000000E+03 0.  1.
         -6    1    1    2    0  503 -0.16672375309E+02 -0.41955601451E+02  0.12592268691E+03  0.21789622225E+03  0.17200000000E+03 0.  1.
</event>
<event>
 4    1  0.4539494E+000  0.2079901E+03  0.7818608E-02  0.1143168E+00
         21   -1    0    0  503  502  0.00000000000E+00  0.00000000000E+00  0.19271240116E+03  0.19271240116E+03  0.00000000000E+00 0.  1.
         21   -1    0    0  501  503 -0.00000000000E+00 -0.00000000000E+00 -0.51503391204E+03  0.51503391204E+03  0.00000000000E+00 0.  1.
          6    1    1    2  501    0  0.69970169457E+02  0.93702067690E+02 -0.42695389061E+03  0.47492054789E+03  0.17200000000E+03 0.  1.
         -6    1    1    2    0  502 -0.69970169457E+02 -0.93702067690E+02  0.10463237973E+03  0.23282576531E+03  0.17200000000E+03 0.  1.
</event>
<event>
 4    1  0.4539494E+000  0.2065298E+03  0.7818608E-02  0.1144344E+00
         21   -1    0    0  501  502  0.00000000000E+00  0.00000000000E+00  0.17438282033E+04  0.17438282033E+04  0.00000000000E+00 0.  1.
         21   -1    0    0  502  503 -0.00000000000E+00 -0.00000000000E+00 -0.44479635193E+02  0.44479635193E+02  0.00000000000E+00 0.  1.
          6    1    1    2  501    0 -0.52173537993E+02  0.10172749826E+03  0.14495433900E+04  0.14641825711E+04  0.17200000000E+03 0.  1.
         -6    1    1    2    0  503  0.52173537993E+02 -0.10172749826E+03  0.24980517813E+03  0.32412526743E+03  0.17200000000E+03 0.  1.
</event>
<event>
 4    1  0.4539494E+000  0.2463571E+03  0.7818608E-02  0.1115629E+00
         21   -1    0    0  501  502  0.00000000000E+00  0.00000000000E+00  0.42528795679E+03  0.42528795679E+03  0.00000000000E+00 0. -1.
         21   -1    0    0  502  503 -0.00000000000E+00 -0.00000000000E+00 -0.21332992948E+03  0.21332992948E+03  0.00000000000E+00 0. -1.
          6    1    1    2  501    0 -0.34430553088E+02  0.17298076947E+03  0.28969895928E+03  0.38028580909E+03  0.17200000000E+03 0. -1.
         -6    1    1    2    0  503  0.34430553088E+02 -0.17298076947E+03 -0.77740931968E+02  0.25833207717E+03  0.17200000000E+03 0. -1.
</event>
<event>
 4    1  0.4539494E+000  0.2660893E+03  0.7818608E-02  0.1103539E+00
         21   -1    0    0  501  502  0.00000000000E+00  0.00000000000E+00  0.16687781690E+03  0.16687781690E+03  0.00000000000E+00 0. -1.
         21   -1    0    0  502  503 -0.00000000000E+00 -0.00000000000E+00 -0.42957390695E+03  0.42957390695E+03  0.00000000000E+00 0.  1.
          6    1    1    2  501    0  0.35944488567E+02  0.19981867595E+03 -0.98252495671E+02  0.28364954155E+03  0.17200000000E+03 0. -1.
         -6    1    1    2    0  503 -0.35944488567E+02 -0.19981867595E+03 -0.16444359438E+03  0.31280218229E+03  0.17200000000E+03 0. -1.
</event>
<event>
 4    1  0.4539494E+000  0.2459380E+03  0.7818608E-02  0.1115899E+00
         21   -1    0    0  501  502  0.00000000000E+00  0.00000000000E+00  0.14303872632E+03  0.14303872632E+03  0.00000000000E+00 0.  1.
         21   -1    0    0  502  503 -0.00000000000E+00 -0.00000000000E+00 -0.19668346651E+04  0.19668346651E+04  0.00000000000E+00 0. -1.
          6    1    1    2  501    0  0.14810797757E+03  0.94686364046E+02  0.22780921669E+02  0.24699079122E+03  0.17200000000E+03 0.  1.
         -6    1    1    2    0  503 -0.14810797757E+03 -0.94686364046E+02 -0.18465768604E+04  0.18628826002E+04  0.17200000000E+03 0. -1.
</event>
<event>
 4    1  0.4539494E+000  0.1952232E+03  0.7818608E-02  0.1153833E+00
         21   -1    0    0  503  502  0.00000000000E+00  0.00000000000E+00  0.22056363103E+03  0.22056363103E+03  0.00000000000E+00 0. -1.
         21   -1    0    0  501  503 -0.00000000000E+00 -0.00000000000E+00 -0.19924460168E+03  0.19924460168E+03  0.00000000000E+00 0. -1.
          6    1    1    2  501    0 -0.91587387320E+02  0.11826544046E+02 -0.65819765443E+02  0.20602028585E+03  0.17200000000E+03 0. -1.
         -6    1    1    2    0  502  0.91587387320E+02 -0.11826544046E+02  0.87138794795E+02  0.21378794685E+03  0.17200000000E+03 0. -1.
</event>
<event>
 4    1  0.4539494E+000  0.2480750E+03  0.7818608E-02  0.1114527E+00
         21   -1    0    0  501  502  0.00000000000E+00  0.00000000000E+00  0.36613289570E+03  0.36613289570E+03  0.00000000000E+00 0.  1.
         21   -1    0    0  502  503 -0.00000000000E+00 -0.00000000000E+00 -0.19118642549E+03  0.19118642549E+03  0.00000000000E+00 0. -1.
          6    1    1    2  501    0 -0.80517944609E+02  0.15960601617E+03  0.18433911310E+03  0.30906654368E+03  0.17200000000E+03 0.  1.
         -6    1    1    2    0  503  0.80517944609E+02 -0.15960601617E+03 -0.93926428904E+01  0.24825277751E+03  0.17200000000E+03 0. -1.
</event>
<event>
 4    1  0.4539494E+000  0.1819710E+03  0.7818608E-02  0.1165909E+00
         21   -1    0    0  503  502  0.00000000000E+00  0.00000000000E+00  0.79449456294E+03  0.79449456294E+03  0.00000000000E+00 0. -1.
         21   -1    0    0  501  503 -0.00000000000E+00 -0.00000000000E+00 -0.64946242538E+02  0.64946242538E+02  0.00000000000E+00 0. -1.
          6    1    1    2  501    0  0.29874293808E+02 -0.51351489152E+02  0.10756595180E+03  0.21138562594E+03  0.17200000000E+03 0. -1.
         -6    1    1    2    0  502 -0.29874293808E+02  0.51351489152E+02  0.62198236860E+03  0.64805517954E+03  0.17200000000E+03 0. -1.
</event>
<event>
 4    1  0.4539494E+000  0.1761094E+03  0.7818608E-02  0.1171622E+00
         21   -1    0    0  501  502  0.00000000000E+00  0.00000000000E+00  0.16538791697E+04  0.16538791697E+04  0.00000000000E+00 0.  1.
         21   -1    0    0  502  503 -0.00000000000E+00 -0.00000000000E+00 -0.87596134979E+02  0.87596134979E+02  0.00000000000E+00 0.  1.
          6    1    1    2  501    0 -0.37639306382E+02 -0.37147488706E+01  0.15550689367E+04  0.15650092379E+04  0.17200000000E+03 0.  1.
         -6    1    1    2    0  503  0.37639306382E+02  0.37147488706E+01  0.11214098037E+02  0.17646606682E+03  0.17200000000E+03 0.  1.
</event>
<event>
 4    1  0.4539494E+000  0.1858474E+03  0.7818608E-02  0.1162261E+00
         21   -1    0    0  503  502  0.00000000000E+00  0.00000000000E+00  0.27810885938E+02  0.27810885938E+02  0.00000000000E+00 0.  1.
         21   -1    0    0  501  503 -0.00000000000E+00 -0.00000000000E+00 -0.13417196813E+04  0.13417196813E+04  0.00000000000E+00 0.  1.
          6    1    1    2  501    0  0.46513398812E+02 -0.52837233698E+02 -0.84369817898E+03  0.86392469969E+03  0.17200000000E+03 0.  1.
         -6    1    1    2    0  502 -0.46513398812E+02  0.52837233698E+02 -0.47021061640E+03  0.50560586756E+03  0.17200000000E+03 0.  1.
</event>
<event>
 4    1  0.4539494E+000  0.1786696E+03  0.7818608E-02  0.1169097E+00
         21   -1    0    0  501  502  0.00000000000E+00  0.00000000000E+00  0.26876278813E+03  0.26876278813E+03  0.00000000000E+00 0. -1.
         21   -1    0    0  502  503 -0.00000000000E+00 -0.00000000000E+00 -0.12262231968E+03  0.12262231968E+03  0.00000000000E+00 0. -1.
          6    1    1    2  501    0 -0.27481088285E+02  0.39794802007E+02  0.10772444527E+03  0.20863219451E+03  0.17200000000E+03 0. -1.
         -6    1    1    2    0  503  0.27481088285E+02 -0.39794802007E+02  0.38416023182E+02  0.18275291329E+03  0.17200000000E+03 0. -1.
</event>
<event>
 4    1  0.4539494E+000  0.2114604E+03  0.7818608E-02  0.1140415E+00
         21   -1    0    0  501  502  0.00000000000E+00  0.00000000000E+00  0.13824536160E+04  0.13824536160E+04  0.00000000000E+00 0.  1.
         21   -1    0    0  502  503 -0.00000000000E+00 -0.00000000000E+00 -0.13600275436E+03  0.13600275436E+03  0.00000000000E+00 0.  1.
          6    1    1    2  501    0  0.12078132243E+03  0.23310554043E+02  0.12860510654E+04  0.13033199348E+04  0.17200000000E+03 0.  1.
         -6    1    1    2    0  503 -0.12078132243E+03 -0.23310554043E+02 -0.39600203695E+02  0.21513643557E+03  0.17200000000E+03 0.  1.
</event>
<event>
 4    1  0.4539494E+000  0.1882942E+03  0.7818608E-02  0.1160009E+00
         21   -1    0    0  501  502  0.00000000000E+00  0.00000000000E+00  0.12005803947E+03  0.12005803947E+03  0.00000000000E+00 0.  1.
         21   -1    0    0  502  503 -0.00000000000E+00 -0.00000000000E+00 -0.39475385802E+03  0.39475385802E+03  0.00000000000E+00 0. -1.
          6    1    1    2  501    0  0.53404431624E+02  0.54942378471E+02 -0.81552471499E+01  0.18847070416E+03  0.17200000000E+03 0.  1.
         -6    1    1    2    0  503 -0.53404431624E+02 -0.54942378471E+02 -0.26654057139E+03  0.32634119334E+03  0.17200000000E+03 0. -1.
</event>
<event>
 4    1  0.4539494E+000  0.1906551E+03  0.7818608E-02  0.1157872E+00
         21   -1    0    0  501  502  0.00000000000E+00  0.00000000000E+00  0.16272339710E+03  0.16272339710E+03  0.00000000000E+00 0. -1.
         21   -1    0    0  502  503 -0.00000000000E+00 -0.00000000000E+00 -0.49434697758E+03  0.49434697758E+03  0.00000000000E+00 0. -1.
          6    1    1    2  501    0  0.70964119251E+02 -0.41586682904E+02  0.77421558212E+02  0.20577525627E+03  0.17200000000E+03 0. -1.
         -6    1    1    2    0  503 -0.70964119251E+02  0.41586682904E+02 -0.40904513869E+03  0.45129511841E+03  0.17200000000E+03 0. -1.
</event>
<event>
 4    1  0.4539494E+000  0.2034840E+03  0.7818608E-02  0.1146832E+00
         21   -1    0    0  503  502  0.00000000000E+00  0.00000000000E+00  0.43738852013E+03  0.43738852013E+03  0.00000000000E+00 0.  1.
         21   -1    0    0  501  503 -0.00000000000E+00 -0.00000000000E+00 -0.11232970916E+03  0.11232970916E+03  0.00000000000E+00 0.  1.
          6    1    1    2  501    0  0.35179974368E+02  0.10287909690E+03  0.53534525726E+02  0.21040837583E+03  0.17200000000E+03 0.  1.
         -6    1    1    2    0  502 -0.35179974368E+02 -0.10287909690E+03  0.27152428525E+03  0.33930985346E+03  0.17200000000E+03 0.  1.
</event>
<event>
 4    1  0.4539494E+000  0.1911666E+03  0.7818608E-02  0.1157413E+00
         21   -1    0    0  503  502  0.00000000000E+00  0.00000000000E+00  0.12888934741E+03  0.12888934741E+03  0.00000000000E+00 0.  1.
         21   -1    0    0  501  503 -0.00000000000E+00 -0.00000000000E+00 -0.28728346792E+03  0.28728346792E+03  0.00000000000E+00 0. -1.
          6    1    1    2  501    0  0.69830091011E+02  0.45655655678E+02 -0.10296533128E+03  0.21713254006E+03  0.17200000000E+03 0. -1.
         -6    1    1    2    0  502 -0.69830091011E+02 -0.45655655678E+02 -0.55428789230E+02  0.19904027527E+03  0.17200000000E+03 0. -1.
</event>
<event>
 4    1  0.4539494E+000  0.1935936E+03  0.7818608E-02  0.1155260E+00
         21   -1    0    0  503  502  0.00000000000E+00  0.00000000000E+00  0.39412572097E+03  0.39412572097E+03  0.00000000000E+00 0.  1.
         21   -1    0    0  501  503 -0.00000000000E+00 -0.00000000000E+00 -0.13147522909E+03  0.13147522909E+03  0.00000000000E+00 0. -1.
          6    1    1    2  501    0  0.19791837871E+02  0.86618428341E+02 -0.69201801646E+01  0.19371721108E+03  0.17200000000E+03 0. -1.
         -6    1    1    2    0  502 -0.19791837871E+02 -0.86618428341E+02  0.26957067205E+03  0.33188373899E+03  0.17200000000E+03 0.  1.
</event>
<event>
 4    1  0.4539494E+000  0.1886437E+03  0.7818608E-02  0.1159690E+00
         21   -1    0    0  501  502  0.00000000000E+00  0.00000000000E+00  0.14783489775E+03  0.14783489775E+03  0.00000000000E+00 0.  1.
         21   -1    0    0  502  503 -0.00000000000E+00 -0.00000000000E+00 -0.10873790204E+04  0.10873790204E+04  0.00000000000E+00 0.  1.
          6    1    1    2  501    0 -0.13158467743E+01 -0.77464321840E+02  0.75202973042E+02  0.20308111622E+03  0.17200000000E+03 0.  1.
         -6    1    1    2    0  503  0.13158467743E+01  0.77464321840E+02 -0.10147470957E+04  0.10321328020E+04  0.17200000000E+03 0.  1.
</event>
<event>
 4    1  0.4539494E+000  0.2462293E+03  0.7818608E-02  0.1115711E+00
         21   -1    0    0  503  502  0.00000000000E+00  0.00000000000E+00  0.52959981398E+03  0.52959981398E+03  0.00000000000E+00 0.  1.
         21   -1    0    0  501  503 -0.00000000000E+00 -0.00000000000E+00 -0.12441372453E+03  0.12441372453E+03  0.00000000000E+00 0.  1.
          6    1    1    2  501    0  0.14896269872E+03 -0.94100912937E+02  0.11019408831E+03  0.26976212581E+03  0.17200000000E+03 0.  1.
         -6    1    1    2    0  502 -0.14896269872E+03  0.94100912937E+02  0.29499200114E+03  0.38425141270E+03  0.17200000000E+03 0.  1.
</event>
<event>
 4    1  0.4539494E+000  0.1845805E+03  0.7818608E-02  0.1163442E+00
         21   -1    0    0  501  502  0.00000000000E+00  0.00000000000E+00  0.39618654690E+03  0.39618654690E+03  0.00000000000E+00 0.  1.
         21   -1    0    0  502  503 -0.00000000000E+00 -0.00000000000E+00 -0.88114281557E+02  0.88114281557E+02  0.00000000000E+00 0. -1.
          6    1    1    2  501    0 -0.65453267736E+02  0.14206661167E+02  0.19159244414E+03  0.26604064376E+03  0.17200000000E+03 0. -1.
         -6    1    1    2    0  503  0.65453267736E+02 -0.14206661167E+02  0.11647982121E+03  0.21826018470E+03  0.17200000000E+03 0. -1.
</event>
<event>
 4    1  0.4539494E+000  0.1822467E+03  0.7818608E-02  0.1165646E+00
         21   -1    0    0  503  502  0.00000000000E+00  0.00000000000E+00  0.43143675039E+03  0.43143675039E+03  0.00000000000E+00 0.  1.
         21   -1    0    0  501  503 -0.00000000000E+00 -0.00000000000E+00 -0.77314743802E+02  0.77314743802E+02  0.00000000000E+00 0.  1.
          6    1    1    2  501    0 -0.45008141051E+02 -0.40051729406E+02  0.19369002076E+03  0.26595055542E+03  0.17200000000E+03 0.  1.
         -6    1    1    2    0  502  0.45008141051E+02  0.40051729406E+02  0.16043198583E+03  0.24280093877E+03  0.17200000000E+03 0.  1.
</event>
<event>
 4    1  0.4539494E+000  0.2164086E+03  0.7818608E-02  0.1136589E+00
         21   -1    0    0  501  502  0.00000000000E+00  0.00000000000E+00  0.36836291850E+03  0.36836291850E+03  0.00000000000E+00 0.  1.
         21   -1    0    0  502  503 -0.00000000000E+00 -0.00000000000E+00 -0.15377163371E+03  0.15377163371E+03  0.00000000000E+00 0.  1.
          6    1    1    2  501    0  0.40355971819E+02  0.12498026291E+03  0.21594700075E+03  0.30572173248E+03  0.17200000000E+03 0.  1.
         -6    1    1    2    0  503 -0.40355971819E+02 -0.12498026291E+03 -0.13557159579E+01  0.21641281973E+03  0.17200000000E+03 0.  1.
</event>
<event>
 4    1  0.4539494E+000  0.1780781E+03  0.7818608E-02  0.1169676E+00
         21   -1    0    0  503  502  0.00000000000E+00  0.00000000000E+00  0.76180973600E+03  0.76180973600E+03  0.00000000000E+00 0. -1.
         21   -1    0    0  501  503 -0.00000000000E+00 -0.00000000000E+00 -0.46888855191E+02  0.46888855191E+02  0.00000000000E+00 0. -1.
          6    1    1    2  501    0  0.60622386827E+01  0.45727948450E+02  0.22200562238E+03  0.28460198941E+03  0.17200000000E+03 0. -1.
         -6    1    1    2    0  502 -0.60622386827E+01 -0.45727948450E+02  0.49291525843E+03  0.52409660178E+03  0.17200000000E+03 0. -1.
</event>
<event>
 4    1  0.4539494E+000  0.2200806E+03  0.7818608E-02  0.1133823E+00
         21   -1    0    0  501  502  0.00000000000E+00  0.00000000000E+00  0.89900486845E+03  0.89900486845E+03  0.00000000000E+00 0.  1.
         21   -1    0    0  502  503 -0.00000000000E+00 -0.00000000000E+00 -0.78014766745E+02  0.78014766745E+02  0.00000000000E+00 0.  1.
          6    1    1    2  501    0 -0.17217320231E+02  0.13621680628E+03  0.68222389556E+03  0.71684370549E+03  0.17200000000E+03 0.  1.
         -6    1    1    2    0  503  0.17217320231E+02 -0.13621680628E+03  0.13876620614E+03  0.26017592970E+03  0.17200000000E+03 0.  1.
</event>
<event>
 4    1  0.4539494E+000  0.1823392E+03  0.7818608E-02  0.1165558E+00
         21   -1    0    0  501  502  0.00000000000E+00  0.00000000000E+00  0.34278431929E+03  0.34278431929E+03  0.00000000000E+00 0.  1.
         21   -1    0    0  502  503 -0.00000000000E+00 -0.00000000000E+00 -0.23103242746E+03  0.23103242746E+03  0.00000000000E+00 0.  1.
          6    1    1    2  501    0  0.51728497982E+02 -0.31428539190E+02  0.27441217998E+03  0.32946871643E+03  0.17200000000E+03 0.  1.
         -6    1    1    2    0  503 -0.51728497982E+02  0.31428539190E+02 -0.16266028816E+03  0.24434803032E+03  0.17200000000E+03 0.  1.
</event>
<event>
 4    1  0.4539494E+000  0.2738636E+03  0.7818608E-02  0.1099088E+00
         21   -1    0    0  503  502  0.00000000000E+00  0.00000000000E+00  0.56351031412E+03  0.56351031412E+03  0.00000000000E+00 0.  1.
         21   -1    0    0  501  503 -0.00000000000E+00 -0.00000000000E+00 -0.19341566606E+03  0.19341566606E+03  0.00000000000E+00 0. -1.
          6    1    1    2  501    0  0.11839544894E+03 -0.17719990568E+03 -0.26304018810E+02  0.27512395444E+03  0.17200000000E+03 0. -1.
         -6    1    1    2    0  502 -0.11839544894E+03  0.17719990568E+03  0.39639866688E+03  0.48180202574E+03  0.17200000000E+03 0.  1.
</event>
<event>
 4    1  0.4539494E+000  0.1779381E+03  0.7818608E-02  0.1169814E+00
         21   -1    0    0  503  502  0.00000000000E+00  0.00000000000E+00  0.27629049552E+03  0.27629049552E+03  0.00000000000E+00 0. -1.
         21   -1    0    0  501  503 -0.00000000000E+00 -0.00000000000E+00 -0.25643361682E+03  0.25643361682E+03  0.00000000000E+00 0. -1.
          6    1    1    2  501    0 -0.15747196697E+02  0.42778430594E+02 -0.18816932770E+03  0.25897811532E+03  0.17200000000E+03 0. -1.
         -6    1    1    2    0  502  0.15747196697E+02 -0.42778430594E+02  0.20802620640E+03  0.27374599701E+03  0.17200000000E+03 0. -1.
</event>
<event>
 4    1  0.4539494E+000  0.2103666E+03  0.7818608E-02  0.1141276E+00
         21   -1    0    0  503  502  0.00000000000E+00  0.00000000000E+00  0.97563373349E+02  0.97563373349E+02  0.00000000000E+00 0.  1.
         21   -1    0    0  501  503 -0.00000000000E+00 -0.00000000000E+00 -0.45831683652E+03  0.45831683652E+03  0.00000000000E+00 0.  1.
          6    1    1    2  501    0 -0.89285770180E+02 -0.81842264100E+02 -0.20859277225E+03  0.29625166596E+03  0.17200000000E+03 0.  1.
         -6    1    1    2    0  502  0.89285770180E+02  0.81842264100E+02 -0.15216069092E+03  0.25962854391E+03  0.17200000000E+03 0.  1.
</event>
<event>
 4    1  0.4539494E+000  0.1981751E+03  0.7818608E-02  0.1151288E+00
         21   -1    0    0  501  502  0.00000000000E+00  0.00000000000E+00  0.93931043629E+02  0.93931043629E+02  0.00000000000E+00 0. -1.
         21   -1    0    0  502  503 -0.00000000000E+00 -0.00000000000E+00 -0.44205543632E+03  0.44205543632E+03  0.00000000000E+00 0.  1.
          6    1    1    2  501    0 -0.98333639640E+02 -0.44592342517E+01 -0.11168751268E+03  0.22748074631E+03  0.17200000000E+03 0. -1.
         -6    1    1    2    0  503  0.98333639640E+02  0.44592342517E+01 -0.23643688001E+03  0.30850573363E+03  0.17200000000E+03 0.  1.
</event>
<event>
 4    1  0.4539494E+000  0.3106300E+03  0.7818608E-02  0.1080044E+00
         21   -1    0    0  503  502  0.00000000000E+00  0.00000000000E+00  0.60583051933E+03  0.60583051933E+03  0.00000000000E+00 0.  1.
         21   -1    0    0  501  503 -0.00000000000E+00 -0.00000000000E+00 -0.16035622912E+03  0.16035622912E+03  0.00000000000E+00 0.  1.
          6    1    1    2  501    0  0.76549090100E+02 -0.24707737394E+03  0.19121600347E+03  0.36476643471E+03  0.17200000000E+03 0.  1.
         -6    1    1    2    0  502 -0.76549090100E+02  0.24707737394E+03  0.25425828674E+03  0.40142031374E+03  0.17200000000E+03 0.  1.
</event>
<event>
 4    1  0.4539494E+000  0.2090201E+03  0.7818608E-02  0.1142344E+00
         21   -1    0    0  503  502  0.00000000000E+00  0.00000000000E+00  0.53132729755E+03  0.53132729755E+03  0.00000000000E+00 0. -1.
         21   -1    0    0  501  503 -0.00000000000E+00 -0.00000000000E+00 -0.28761128524E+03  0.28761128524E+03  0.00000000000E+00 0. -1.
          6    1    1    2  501    0  0.64277582470E+02  0.99868941905E+02 -0.22416267257E+03  0.30649358385E+03  0.17200000000E+03 0. -1.
         -6    1    1    2    0  502 -0.64277582470E+02 -0.99868941905E+02  0.46787868489E+03  0.51244499894E+03  0.17200000000E+03 0. -1.
</event>
<event>
 4    1  0.4539494E+000  0.1886131E+03  0.7818608E-02  0.1159718E+00
         21   -1    0    0  503  502  0.00000000000E+00  0.00000000000E+00  0.17374209428E+04  0.17374209428E+04  0.00000000000E+00 0.  1.
         21   -1    0    0  501  503 -0.00000000000E+00 -0.00000000000E+00 -0.17539260847E+03  0.17539260847E+03  0.00000000000E+00 0. -1.
          6    1    1    2  501    0  0.76090144800E+02  0.14184596272E+02 -0.11783414888E+03  0.22239559247E+03  0.17200000000E+03 0. -1.
         -6    1    1    2    0  502 -0.76090144800E+02 -0.14184596272E+02  0.16798624832E+04  0.16904179588E+04  0.17200000000E+03 0.  1.
</event>
<event>
 4    1  0.4539494E+000  0.1760389E+03  0.7818608E-02  0.1171693E+00
         21   -1    0    0  503  502  0.00000000000E+00  0.00000000000E+00  0.30660283257E+03  0.30660283257E+03  0.00000000000E+00 0. -1.
         21   -1    0    0  501  503 -0.00000000000E+00 -0.00000000000E+00 -0.11285067477E+03  0.11285067477E+03  0.00000000000E+00 0. -1.
          6    1    1    2  501    0  0.81542328435E+01  0.36595139935E+02  0.29126622748E+02  0.17843221663E+03  0.17200000000E+03 0. -1.
         -6    1    1    2    0  502 -0.81542328435E+01 -0.36595139935E+02  0.16462553505E+03  0.24102129070E+03  0.17200000000E+03 0. -1.
</event>
<event>
 4    1  0.4539494E+000  0.1830997E+03  0.7818608E-02  0.1164836E+00
         21   -1    0    0  501  502  0.00000000000E+00  0.00000000000E+00  0.78417424643E+03  0.78417424643E+03  0.00000000000E+00 0. -1.
         21   -1    0    0  502  503 -0.00000000000E+00 -0.00000000000E+00 -0.54757173395E+02  0.54757173395E+02  0.00000000000E+00 0. -1.
          6    1    1    2  501    0 -0.17336943381E+02 -0.60340083329E+02  0.16830506987E+03  0.24870080781E+03  0.17200000000E+03 0. -1.
         -6    1    1    2    0  503  0.17336943381E+02  0.60340083329E+02  0.56111200317E+03  0.59023061202E+03  0.17200000000E+03 0. -1.
</event>
<event>
 4    1  0.4539494E+000  0.1733940E+03  0.7818608E-02  0.1174354E+00
         21   -1    0    0  501  502  0.00000000000E+00  0.00000000000E+00  0.38376989742E+02  0.38376989742E+02  0.00000000000E+00 0. -1.
         21   -1    0    0  502  503 -0.00000000000E+00 -0.00000000000E+00 -0.11000858546E+04  0.11000858546E+04  0.00000000000E+00 0. -1.
          6    1    1    2  501    0  0.21043863017E+02 -0.62156202658E+01 -0.22545161821E+03  0.28441854767E+03  0.17200000000E+03 0. -1.
         -6    1    1    2    0  503 -0.21043863017E+02  0.62156202658E+01 -0.83625724669E+03  0.85404429671E+03  0.17200000000E+03 0. -1.
</event>
<event>
 4    1  0.4539494E+000  0.1728933E+03  0.7818608E-02  0.1174864E+00
         21   -1    0    0  501  502  0.00000000000E+00  0.00000000000E+00  0.27289375861E+02  0.27289375861E+02  0.00000000000E+00 0. -1.
         21   -1    0    0  502  503 -0.00000000000E+00 -0.00000000000E+00 -0.12458929604E+04  0.12458929604E+04  0.00000000000E+00 0. -1.
          6    1    1    2  501    0  0.61028766162E+01  0.16457026278E+02 -0.38803536181E+03  0.42480998203E+03  0.17200000000E+03 0. -1.
         -6    1    1    2    0  503 -0.61028766162E+01 -0.16457026278E+02 -0.83056822277E+03  0.84837235427E+03  0.17200000000E+03 0. -1.
</event>
<event>
 4    1  0.4539494E+000  0.2060904E+03  0.7818608E-02  0.1144700E+00
         21   -1    0    0  503  502  0.00000000000E+00  0.00000000000E+00  0.11528224949E+04  0.11528224949E+04  0.00000000000E+00 0. -1.
         21   -1    0    0  501  503 -0.00000000000E+00 -0.00000000000E+00 -0.10271740392E+03  0.10271740392E+03  0.00000000000E+00 0. -1.
          6    1    1    2  501    0 -0.89652794232E+02 -0.69653506652E+02  0.22319492067E+02  0.20729542742E+03  0.17200000000E+03 0. -1.
         -6    1    1    2    0  502  0.89652794232E+02  0.69653506652E+02  0.10277855989E+04  0.10482444714E+04  0.17200000000E+03 0. -1.
</event>
<event>
 4    1  0.4539494E+000  0.2756560E+03  0.7818608E-02  0.1098085E+00
         21   -1    0    0  501  502  0.00000000000E+00  0.00000000000E+00  0.14070805280E+03  0.14070805280E+03  0.00000000000E+00 0.  1.
         21   -1    0    0  502  503 -0.00000000000E+00 -0.00000000000E+00 -0.84512783669E+03  0.84512783669E+03  0.00000000000E+00 0. -1.
          6    1    1    2  501    0  0.21205792415E+03 -0.37863719546E+02 -0.56044207996E+02  0.28129553445E+03  0.17200000000E+03 0.  1.
         -6    1    1    2    0  503 -0.21205792415E+03  0.37863719546E+02 -0.64837557590E+03  0.70454035503E+03  0.17200000000E+03 0. -1.
</event>
<event>
 4    1  0.4539494E+000  0.1943529E+03  0.7818608E-02  0.1154593E+00
         21   -1    0    0  503  502  0.00000000000E+00  0.00000000000E+00  0.11301308355E+04  0.11301308355E+04  0.00000000000E+00 0. -1.
         21   -1    0    0  501  503 -0.00000000000E+00 -0.00000000000E+00 -0.45465876035E+02  0.45465876035E+02  0.00000000000E+00 0. -1.
          6    1    1    2  501    0 -0.89065660555E+02  0.16011277934E+02  0.23982251569E+03  0.30868736926E+03  0.17200000000E+03 0. -1.
         -6    1    1    2    0  502  0.89065660555E+02 -0.16011277934E+02  0.84484244374E+03  0.86690934223E+03  0.17200000000E+03 0. -1.
</event>
<event>
 4    1  0.4539494E+000  0.2474633E+03  0.7818608E-02  0.1114919E+00
         21   -1    0    0  501  502  0.00000000000E+00  0.00000000000E+00  0.71414484796E+02  0.71414484796E+02  0.00000000000E+00 0. -1.
         21   -1    0    0  502  503 -0.00000000000E+00 -0.00000000000E+00 -0.12240317477E+04  0.12240317477E+04  0.00000000000E+00 0. -1.
          6    1    1    2  501    0 -0.16802817768E+03 -0.58486022325E+02 -0.22186473224E+03  0.33235830472E+03  0.17200000000E+03 0. -1.
         -6    1    1    2    0  503  0.16802817768E+03  0.58486022325E+02 -0.93075253071E+03  0.96308792782E+03  0.17200000000E+03 0. -1.
</event>
<event>
 4    1  0.4539494E+000  0.2620842E+03  0.7818608E-02  0.1105897E+00
         21   -1    0    0  503  502  0.00000000000E+00  0.00000000000E+00  0.40882055692E+03  0.40882055692E+03  0.00000000000E+00 0. -1.
         21   -1    0    0  501  503 -0.00000000000E+00 -0.00000000000E+00 -0.18441093869E+03  0.18441093869E+03  0.00000000000E+00 0.  1.
          6    1    1    2  501    0  0.18762097647E+03  0.62469788977E+02  0.23761468559E+02  0.26315910156E+03  0.17200000000E+03 0.  1.
         -6    1    1    2    0  502 -0.18762097647E+03 -0.62469788977E+02  0.20064814967E+03  0.33007239405E+03  0.17200000000E+03 0. -1.
</event>
<event>
 4    1  0.4539494E+000  0.1752416E+03  0.7818608E-02  0.1172489E+00
         21   -1    0    0  503  502  0.00000000000E+00  0.00000000000E+00  0.55203582587E+03  0.55203582587E+03  0.00000000000E+00 0. -1.
         21   -1    0    0  501  503 -0.00000000000E+00 -0.00000000000E+00 -0.14646989678E+03  0.14646989678E+03  0.00000000000E+00 0.  1.
          6    1    1    2  501    0 -0.67643672068E+01  0.32861459949E+02 -0.72262586279E+02  0.18955609615E+03  0.17200000000E+03 0.  1.
         -6    1    1    2    0  502  0.67643672068E+01 -0.32861459949E+02  0.47782851537E+03  0.50894962650E+03  0.17200000000E+03 0. -1.
</event>
<event>
 4    1  0.4539494E+000  0.2646934E+03  0.7818608E-02  0.1104356E+00
         21   -1    0    0  503  502  0.00000000000E+00  0.00000000000E+00  0.12350975616E+03  0.12350975616E+03  0.00000000000E+00 0. -1.
         21   -1    0    0  501  503 -0.00000000000E+00 -0.00000000000E+00 -0.98867148094E+03  0.98867148094E+03  0.00000000000E+00 0.  1.
          6    1    1    2  501    0 -0.19935154481E+03 -0.27158075220E+02 -0.79563454610E+03  0.83850875393E+03  0.17200000000E+03 0.  1.
         -6    1    1    2    0  502  0.19935154481E+03  0.27158075220E+02 -0.69527178683E+02  0.27367248317E+03  0.17200000000E+03 0. -1.
</event>
<event>
 4    1  0.4539494E+000  0.1835880E+03  0.7818608E-02  0.1164375E+00
         21   -1    0    0  501  502  0.00000000000E+00  0.00000000000E+00  0.13597453058E+03  0.13597453058E+03  0.00000000000E+00 0. -1.
         21   -1    0    0  502  503 -0.00000000000E+00 -0.00000000000E+00 -0.66444168678E+03  0.66444168678E+03  0.00000000000E+00 0. -1.
          6    1    1    2  501    0  0.34162549427E+02  0.54346030482E+02  0.52650311526E+02  0.19098854970E+03  0.17200000000E+03 0. -1.
         -6    1    1    2    0  503 -0.34162549427E+02 -0.54346030482E+02 -0.58111746773E+03  0.60942766766E+03  0.17200000000E+03 0. -1.
</event>
<event>
 4    1  0.4539494E+000  0.1873858E+03  0.7818608E-02  0.1160840E+00
         21   -1    0    0  501  502  0.00000000000E+00  0.00000000000E+00  0.16948181171E+03  0.16948181171E+03  0.00000000000E+00 0.  1.
         21   -1    0    0  502  503 -0.00000000000E+00 -0.00000000000E+00 -0.20893049758E+03  0.20893049758E+03  0.00000000000E+00 0.  1.
          6    1    1    2  501    0 -0.13142849524E+02 -0.73189612717E+02 -0.24118439854E+01  0.18740136311E+03  0.17200000000E+03 0. -1.
         -6    1    1    2    0  503  0.13142849524E+02  0.73189612717E+02 -0.37036841887E+02  0.19101094618E+03  0.17200000000E+03 0. -1.
</event>
<event>
 4    1  0.4539494E+000  0.2038791E+03  0.7818608E-02  0.1146507E+00
         21   -1    0    0  503  502  0.00000000000E+00  0.00000000000E+00  0.69340379083E+03  0.69340379083E+03  0.00000000000E+00 0. -1.
         21   -1    0    0  501  503 -0.00000000000E+00 -0.00000000000E+00 -0.85898945977E+02  0.85898945977E+02  0.00000000000E+00 0. -1.
          6    1    1    2  501    0 -0.10903664873E+03 -0.96792463806E+01  0.89573421942E+02  0.22268829447E+03  0.17200000000E+03 0. -1.
         -6    1    1    2    0  502  0.10903664873E+03  0.96792463806E+01  0.51793142291E+03  0.55661444234E+03  0.17200000000E+03 0. -1.
</event>
<event>
 4    1  0.4539494E+000  0.1817443E+03  0.7818608E-02  0.1166125E+00
         21   -1    0    0  503  502  0.00000000000E+00  0.00000000000E+00  0.49724703423E+03  0.49724703423E+03  0.00000000000E+00 0. -1.
         21   -1    0    0  501  503 -0.00000000000E+00 -0.00000000000E+00 -0.76688400946E+02  0.76688400946E+02  0.00000000000E+00 0. -1.
          6    1    1    2  501    0  0.26931206704E+02  0.52170088405E+02  0.10531168717E+03  0.21005132581E+03  0.17200000000E+03 0. -1.
         -6    1    1    2    0  502 -0.26931206704E+02 -0.52170088405E+02  0.31524694611E+03  0.36388410937E+03  0.17200000000E+03 0. -1.
</event>
<event>
 4    1  0.4539494E+000  0.2514410E+03  0.7818608E-02  0.1112398E+00
         21   -1    0    0  503  502  0.00000000000E+00  0.00000000000E+00  0.16911922511E+03  0.16911922511E+03  0.00000000000E+00 0. -1.
         21   -1    0    0  501  503 -0.00000000000E+00 -0.00000000000E+00 -0.62785914235E+03  0.62785914235E+03  0.00000000000E+00 0.  1.
          6    1    1    2  501    0  0.18318698120E+03 -0.90052949642E+01 -0.48283818766E+03  0.54438523205E+03  0.17200000000E+03 0.  1.
         -6    1    1    2    0  502 -0.18318698120E+03  0.90052949642E+01  0.24098270422E+02  0.25259313541E+03  0.17200000000E+03 0. -1.
</event>
<event>
 4    1  0.4539494E+000  0.2826177E+03  0.7818608E-02  0.1094268E+00
         21   -1    0    0  501  502  0.00000000000E+00  0.00000000000E+00  0.20004207506E+03  0.20004207506E+03  0.00000000000E+00 0.  1.
         21   -1    0    0  502  503 -0.00000000000E+00 -0.00000000000E+00 -0.65666928138E+03  0.65666928138E+03  0.00000000000E+00 0. -1.
          6    1    1    2  501    0  0.93348355779E+02  0.20389915484E+03  0.39866458356E+02  0.28541568873E+03  0.17200000000E+03 0.  1.
         -6    1    1    2    0  503 -0.93348355779E+02 -0.20389915484E+03 -0.49649366468E+03  0.57129566770E+03  0.17200000000E+03 0. -1.
</event>
<event>
 4    1  0.4539494E+000  0.1912256E+03  0.7818608E-02  0.1157361E+00
         21   -1    0    0  501  502  0.00000000000E+00  0.00000000000E+00  0.32121316744E+04  0.32121316744E+04  0.00000000000E+00 0.  1.
         21   -1    0    0  502  503 -0.00000000000E+00 -0.00000000000E+00 -0.25322582691E+02  0.25322582691E+02  0.00000000000E+00 0.  1.
          6    1    1    2  501    0 -0.71682987230E+02  0.42950765995E+02  0.27943614993E+04  0.28008968935E+04  0.17200000000E+03 0.  1.
         -6    1    1    2    0  503  0.71682987230E+02 -0.42950765995E+02  0.39244759235E+03  0.43655736358E+03  0.17200000000E+03 0.  1.
</event>
<event>
 4    1  0.4539494E+000  0.2157763E+03  0.7818608E-02  0.1137072E+00
         21   -1    0    0  501  502  0.00000000000E+00  0.00000000000E+00  0.54500824683E+03  0.54500824683E+03  0.00000000000E+00 0. -1.
         21   -1    0    0  502  503 -0.00000000000E+00 -0.00000000000E+00 -0.96989658538E+02  0.96989658538E+02  0.00000000000E+00 0.  1.
          6    1    1    2  501    0  0.12951240299E+03 -0.14210368477E+02  0.33483386586E+03  0.39833794048E+03  0.17200000000E+03 0.  1.
         -6    1    1    2    0  503 -0.12951240299E+03  0.14210368477E+02  0.11318472244E+03  0.24365996490E+03  0.17200000000E+03 0. -1.
</event>
<event>
 4    1  0.4539494E+000  0.1957334E+03  0.7818608E-02  0.1153390E+00
         21   -1    0    0  501  502  0.00000000000E+00  0.00000000000E+00  0.71533939079E+03  0.71533939079E+03  0.00000000000E+00 0.  1.
         21   -1    0    0  502  503 -0.00000000000E+00 -0.00000000000E+00 -0.12046774975E+03  0.12046774975E+03  0.00000000000E+00 0. -1.
          6    1    1    2  501    0  0.28655977641E+02 -0.88917883740E+02  0.60888563099E+03  0.63957272200E+03  0.17200000000E+03 0.  1.
         -6    1    1    2    0  503 -0.28655977641E+02  0.88917883740E+02 -0.14013989949E+02  0.19623441853E+03  0.17200000000E+03 0. -1.
</event>
<event>
 4    1  0.4539494E+000  0.1888247E+03  0.7818608E-02  0.1159526E+00
         21   -1    0    0  503  502  0.00000000000E+00  0.00000000000E+00  0.40255206980E+03  0.40255206980E+03  0.00000000000E+00 0. -1.
         21   -1    0    0  501  503 -0.00000000000E+00 -0.00000000000E+00 -0.99065554203E+02  0.99065554203E+02  0.00000000000E+00 0. -1.
          6    1    1    2  501    0  0.20724398891E+02 -0.75108350143E+02  0.23337267866E+03  0.30019588957E+03  0.17200000000E+03 0. -1.
         -6    1    1    2    0  502 -0.20724398891E+02  0.75108350143E+02  0.70113836936E+02  0.20142173443E+03  0.17200000000E+03 0. -1.
</event>
<event>
 4    1  0.4539494E+000  0.1895894E+03  0.7818608E-02  0.1158832E+00
         21   -1    0    0  503  502  0.00000000000E+00  0.00000000000E+00  0.17948855515E+03  0.17948855515E+03  0.00000000000E+00 0. -1.
         21   -1    0    0  501  503 -0.00000000000E+00 -0.00000000000E+00 -0.47166403922E+03  0.47166403922E+03  0.00000000000E+00 0. -1.
          6    1    1    2  501    0  0.78329977943E+02 -0.14985105393E+02 -0.39305854653E+03  0.43639335447E+03  0.17200000000E+03 0. -1.
         -6    1    1    2    0  502 -0.78329977943E+02  0.14985105393E+02  0.10088306247E+03  0.21475923990E+03  0.17200000000E+03 0. -1.
</event>
<event>
 4    1  0.4539494E+000  0.1906325E+03  0.7818608E-02  0.1157892E+00
         21   -1    0    0  503  502  0.00000000000E+00  0.00000000000E+00  0.10807541533E+03  0.10807541533E+03  0.00000000000E+00 0.  1.
         21   -1    0    0  501  503 -0.00000000000E+00 -0.00000000000E+00 -0.92177393363E+03  0.92177393363E+03  0.00000000000E+00 0.  1.
          6    1    1    2  501    0  0.67466063092E+02  0.46958294920E+02 -0.81724464567E+03  0.83918386663E+03  0.17200000000E+03 0.  1.
         -6    1    1    2    0  502 -0.67466063092E+02 -0.46958294920E+02  0.35461273711E+01  0.19066548232E+03  0.17200000000E+03 0.  1.
</event>
<event>
 4    1  0.4539494E+000  0.2027611E+03  0.7818608E-02  0.1147430E+00
         21   -1    0    0  503  502  0.00000000000E+00  0.00000000000E+00  0.21073759248E+02  0.21073759248E+02  0.00000000000E+00 0. -1.
         21   -1    0    0  501  503 -0.00000000000E+00 -0.00000000000E+00 -0.20866867237E+04  0.20866867237E+04  0.00000000000E+00 0.  1.
          6    1    1    2  501    0 -0.32560938521E+02 -0.10231245157E+03 -0.13016798433E+04  0.13173771164E+04  0.17200000000E+03 0.  1.
         -6    1    1    2    0  502  0.32560938521E+02  0.10231245157E+03 -0.76393312120E+03  0.79038336656E+03  0.17200000000E+03 0. -1.
</event>
<event>
 4    1  0.4539494E+000  0.1821717E+03  0.7818608E-02  0.1165718E+00
         21   -1    0    0  501  502  0.00000000000E+00  0.00000000000E+00  0.21625612098E+03  0.21625612098E+03  0.00000000000E+00 0.  1.
         21   -1    0    0  502  503 -0.00000000000E+00 -0.00000000000E+00 -0.37871978072E+03  0.37871978072E+03  0.00000000000E+00 0.  1.
          6    1    1    2  501    0 -0.45022282583E+02  0.39692755291E+02  0.14819956956E+03  0.23483959029E+03  0.17200000000E+03 0.  1.
         -6    1    1    2    0  503  0.45022282583E+02 -0.39692755291E+02 -0.31066322930E+03  0.36013631140E+03  0.17200000000E+03 0.  1.
</event>
<event>
 4    1  0.4539494E+000  0.2040303E+03  0.7818608E-02  0.1146382E+00
         21   -1    0    0  503  502  0.00000000000E+00  0.00000000000E+00  0.46776365187E+03  0.46776365187E+03  0.00000000000E+00 0.  1.
         21   -1    0    0  501  503 -0.00000000000E+00 -0.00000000000E+00 -0.97697149936E+02  0.97697149936E+02  0.00000000000E+00 0.  1.
          6    1    1    2  501    0  0.66605634529E+02 -0.87224179528E+02  0.10064954135E+03  0.22750538064E+03  0.17200000000E+03 0.  1.
         -6    1    1    2    0  502 -0.66605634529E+02  0.87224179528E+02  0.26941696059E+03  0.33795542117E+03  0.17200000000E+03 0.  1.
</event>
<event>
 4    1  0.4539494E+000  0.2527030E+03  0.7818608E-02  0.1111608E+00
         21   -1    0    0  501  502  0.00000000000E+00  0.00000000000E+00  0.22732759325E+03  0.22732759325E+03  0.00000000000E+00 0.  1.
         21   -1    0    0  502  503 -0.00000000000E+00 -0.00000000000E+00 -0.36575804250E+03  0.36575804250E+03  0.00000000000E+00 0. -1.
          6    1    1    2  501    0 -0.16063397419E+03 -0.92041010055E+02  0.73611286035E+02  0.26320608395E+03  0.17200000000E+03 0.  1.
         -6    1    1    2    0  503  0.16063397419E+03  0.92041010055E+02 -0.21204173528E+03  0.32987955180E+03  0.17200000000E+03 0. -1.
</event>
<event>
 4    1  0.4539494E+000  0.1938349E+03  0.7818608E-02  0.1155047E+00
         21   -1    0    0  501  502  0.00000000000E+00  0.00000000000E+00  0.21213707730E+03  0.21213707730E+03  0.00000000000E+00 0. -1.
         21   -1    0    0  502  503 -0.00000000000E+00 -0.00000000000E+00 -0.25471879245E+03  0.25471879245E+03  0.00000000000E+00 0. -1.
          6    1    1    2  501    0  0.68803253748E+01 -0.89110280906E+02  0.10755567689E+03  0.22167590007E+03  0.17200000000E+03 0. -1.
         -6    1    1    2    0  503 -0.68803253748E+01  0.89110280906E+02 -0.15013739204E+03  0.24517996967E+03  0.17200000000E+03 0. -1.
</event>
<event>
 4    1  0.4539494E+000  0.2301531E+03  0.7818608E-02  0.1126532E+00
         21   -1    0    0  501  502  0.00000000000E+00  0.00000000000E+00  0.54018683095E+03  0.54018683095E+03  0.00000000000E+00 0.  1.
         21   -1    0    0  502  503 -0.00000000000E+00 -0.00000000000E+00 -0.10678428983E+03  0.10678428983E+03  0.00000000000E+00 0.  1.
          6    1    1    2  501    0  0.95197042267E+02  0.11968271065E+03  0.12423576688E+03  0.26154340722E+03  0.17200000000E+03 0.  1.
         -6    1    1    2    0  503 -0.95197042267E+02 -0.11968271065E+03  0.30916677424E+03  0.38542771356E+03  0.17200000000E+03 0.  1.
</event>
<event>
 4    1  0.4539494E+000  0.2006302E+03  0.7818608E-02  0.1149208E+00
         21   -1    0    0  503  502  0.00000000000E+00  0.00000000000E+00  0.18752165619E+03  0.18752165619E+03  0.00000000000E+00 0.  1.
         21   -1    0    0  501  503 -0.00000000000E+00 -0.00000000000E+00 -0.23855552541E+03  0.23855552541E+03  0.00000000000E+00 0.  1.
          6    1    1    2  501    0  0.94132585954E+01  0.10285846757E+03 -0.92949029260E+02  0.22111534508E+03  0.17200000000E+03 0.  1.
         -6    1    1    2    0  502 -0.94132585954E+01 -0.10285846757E+03  0.41915160035E+02  0.20496183652E+03  0.17200000000E+03 0.  1.
</event>
<event>
 4    1  0.4539494E+000  0.2090737E+03  0.7818608E-02  0.1142302E+00
         21   -1    0    0  501  502  0.00000000000E+00  0.00000000000E+00  0.10629038233E+03  0.10629038233E+03  0.00000000000E+00 0.  1.
         21   -1    0    0  502  503 -0.00000000000E+00 -0.00000000000E+00 -0.41237523010E+03  0.41237523010E+03  0.00000000000E+00 0.  1.
          6    1    1    2  501    0 -0.11868031575E+03  0.65419934096E+01 -0.16659500048E+03  0.26733071131E+03  0.17200000000E+03 0.  1.
         -6    1    1    2    0  503  0.11868031575E+03 -0.65419934096E+01 -0.13948984729E+03  0.25133490112E+03  0.17200000000E+03 0.  1.
</event>
<event>
 4    1  0.4539494E+000  0.2923822E+03  0.7818608E-02  0.1089112E+00
         21   -1    0    0  501  502  0.00000000000E+00  0.00000000000E+00  0.12528234912E+04  0.12528234912E+04  0.00000000000E+00 0. -1.
         21   -1    0    0  502  503 -0.00000000000E+00 -0.00000000000E+00 -0.72272726786E+02  0.72272726786E+02  0.00000000000E+00 0. -1.
          6    1    1    2  501    0  0.23423591561E+03  0.32200766408E+02  0.74686328104E+03  0.80205493208E+03  0.17200000000E+03 0. -1.
         -6    1    1    2    0  503 -0.23423591561E+03 -0.32200766408E+02  0.43368748337E+03  0.52304128589E+03  0.17200000000E+03 0. -1.
</event>
<event>
 4    1  0.4539494E+000  0.2018084E+03  0.7818608E-02  0.1148222E+00
         21   -1    0    0  501  502  0.00000000000E+00  0.00000000000E+00  0.12902707792E+03  0.12902707792E+03  0.00000000000E+00 0.  1.
         21   -1    0    0  502  503 -0.00000000000E+00 -0.00000000000E+00 -0.32419030321E+03  0.32419030321E+03  0.00000000000E+00 0.  1.
          6    1    1    2  501    0 -0.10546803176E+03  0.43725296243E+01 -0.13437462565E+03  0.24245239689E+03  0.17200000000E+03 0.  1.
         -6    1    1    2    0  503  0.10546803176E+03 -0.43725296243E+01 -0.60788599638E+02  0.21076498425E+03  0.17200000000E+03 0.  1.
</event>
<event>
 4    1  0.4539494E+000  0.1837581E+03  0.7818608E-02  0.1164215E+00
         21   -1    0    0  503  502  0.00000000000E+00  0.00000000000E+00  0.21150648925E+03  0.21150648925E+03  0.00000000000E+00 0.  1.
         21   -1    0    0  501  503 -0.00000000000E+00 -0.00000000000E+00 -0.20524394446E+03  0.20524394446E+03  0.00000000000E+00 0.  1.
          6    1    1    2  501    0  0.29044939084E+02  0.57787766325E+02 -0.95080589456E+02  0.20689937872E+03  0.17200000000E+03 0.  1.
         -6    1    1    2    0  502 -0.29044939084E+02 -0.57787766325E+02  0.10134313424E+03  0.20985105499E+03  0.17200000000E+03 0.  1.
</event>
<event>
 4    1  0.4539494E+000  0.2082945E+03  0.7818608E-02  0.1142924E+00
         21   -1    0    0  501  502  0.00000000000E+00  0.00000000000E+00  0.88709717218E+03  0.88709717218E+03  0.00000000000E+00 0. -1.
         21   -1    0    0  502  503 -0.00000000000E+00 -0.00000000000E+00 -0.18970242209E+03  0.18970242209E+03  0.00000000000E+00 0.  1.
          6    1    1    2  501    0  0.10729802954E+03 -0.47851098105E+02  0.81252904506E+03  0.83880274427E+03  0.17200000000E+03 0. -1.
         -6    1    1    2    0  503 -0.10729802954E+03  0.47851098105E+02 -0.11513429496E+03  0.23799685000E+03  0.17200000000E+03 0.  1.
</event>
<event>
 4    1  0.4539494E+000  0.1729669E+03  0.7818608E-02  0.1174789E+00
         21   -1    0    0  503  502  0.00000000000E+00  0.00000000000E+00  0.26474223583E+03  0.26474223583E+03  0.00000000000E+00 0.  1.
         21   -1    0    0  501  503 -0.00000000000E+00 -0.00000000000E+00 -0.33139089260E+03  0.33139089260E+03  0.00000000000E+00 0.  1.
          6    1    1    2  501    0 -0.13136757188E+02  0.12687813811E+02 -0.27529009163E+03  0.32511873148E+03  0.17200000000E+03 0.  1.
         -6    1    1    2    0  502  0.13136757188E+02 -0.12687813811E+02  0.20864143487E+03  0.27101439695E+03  0.17200000000E+03 0.  1.
</event>
<event>
 4    1  0.4539494E+000  0.1820549E+03  0.7818608E-02  0.1165829E+00
         21   -1    0    0  501  502  0.00000000000E+00  0.00000000000E+00  0.41599412717E+03  0.41599412717E+03  0.00000000000E+00 0. -1.
         21   -1    0    0  502  503 -0.00000000000E+00 -0.00000000000E+00 -0.12218607542E+03  0.12218607542E+03  0.00000000000E+00 0. -1.
          6    1    1    2  501    0  0.52308334586E+02 -0.28702584966E+02 -0.11819749402E+02  0.18243822715E+03  0.17200000000E+03 0. -1.
         -6    1    1    2    0  503 -0.52308334586E+02  0.28702584966E+02  0.30562780115E+03  0.35574197544E+03  0.17200000000E+03 0. -1.
</event>
<event>
 4    1  0.4539494E+000  0.2318752E+03  0.7818608E-02  0.1125327E+00
         21   -1    0    0  501  502  0.00000000000E+00  0.00000000000E+00  0.89375410277E+03  0.89375410277E+03  0.00000000000E+00 0.  1.
         21   -1    0    0  502  503 -0.00000000000E+00 -0.00000000000E+00 -0.80440826867E+02  0.80440826867E+02  0.00000000000E+00 0.  1.
          6    1    1    2  501    0  0.57603541689E+02  0.14444347514E+03  0.65125093417E+03  0.69129867987E+03  0.17200000000E+03 0.  1.
         -6    1    1    2    0  503 -0.57603541689E+02 -0.14444347514E+03  0.16206234173E+03  0.28289624977E+03  0.17200000000E+03 0.  1.
</event>
<event>
 4    1  0.4539494E+000  0.2240259E+03  0.7818608E-02  0.1130917E+00
         21   -1    0    0  503  502  0.00000000000E+00  0.00000000000E+00  0.10050776621E+03  0.10050776621E+03  0.00000000000E+00 0. -1.
         21   -1    0    0  501  503 -0.00000000000E+00 -0.00000000000E+00 -0.50006518267E+03  0.50006518267E+03  0.00000000000E+00 0.  1.
          6    1    1    2  501    0  0.94123782643E+02 -0.10837118679E+03 -0.18834757210E+03  0.29268141127E+03  0.17200000000E+03 0. -1.
         -6    1    1    2    0  502 -0.94123782643E+02  0.10837118679E+03 -0.21120984435E+03  0.30789153762E+03  0.17200000000E+03 0.  1.
</event>
<event>
 4    1  0.4539494E+000  0.2301566E+03  0.7818608E-02  0.1126530E+00
         21   -1    0    0  503  502  0.00000000000E+00  0.00000000000E+00  0.38683118389E+03  0.38683118389E+03  0.00000000000E+00 0. -1.
         21   -1    0    0  501  503 -0.00000000000E+00 -0.00000000000E+00 -0.13862644203E+03  0.13862644203E+03  0.00000000000E+00 0. -1.
          6    1    1    2  501    0 -0.10754964359E+03  0.10872503035E+03  0.95110822264E+02  0.24903438834E+03  0.17200000000E+03 0. -1.
         -6    1    1    2    0  502  0.10754964359E+03 -0.10872503035E+03  0.15309391960E+03  0.27642323759E+03  0.17200000000E+03 0. -1.
</event>
<event>
 4    1  0.4539494E+000  0.2483076E+03  0.7818608E-02  0.1114379E+00
         21   -1    0    0  501  502  0.00000000000E+00  0.00000000000E+00  0.17366783426E+03  0.17366783426E+03  0.00000000000E+00 0. -1.
         21   -1    0    0  502  503 -0.00000000000E+00 -0.00000000000E+00 -0.64363431215E+03  0.64363431215E+03  0.00000000000E+00 0.  1.
          6    1    1    2  501    0 -0.85245582397E+02  0.15749879639E+03  0.38661501160E+02  0.25129940679E+03  0.17200000000E+03 0. -1.
         -6    1    1    2    0  503  0.85245582397E+02 -0.15749879639E+03 -0.50862797905E+03  0.56600273961E+03  0.17200000000E+03 0.  1.
</event>
<event>
 4    1  0.4539494E+000  0.1849334E+03  0.7818608E-02  0.1163112E+00
         21   -1    0    0  501  502  0.00000000000E+00  0.00000000000E+00  0.27737748588E+02  0.27737748588E+02  0.00000000000E+00 0.  1.
         21   -1    0    0  502  503 -0.00000000000E+00 -0.00000000000E+00 -0.22427285156E+04  0.22427285156E+04  0.00000000000E+00 0.  1.
          6    1    1    2  501    0  0.32303853151E+02  0.59773197867E+02 -0.34576529909E+03  0.39211479973E+03  0.17200000000E+03 0.  1.
         -6    1    1    2    0  503 -0.32303853151E+02 -0.59773197867E+02 -0.18692254680E+04  0.18783514645E+04  0.17200000000E+03 0.  1.
</event>
<event>
 4    1  0.4539494E+000  0.1744009E+03  0.7818608E-02  0.1173335E+00
         21   -1    0    0  501  502  0.00000000000E+00  0.00000000000E+00  0.43120566086E+03  0.43120566086E+03  0.00000000000E+00 0.  1.
         21   -1    0    0  502  503 -0.00000000000E+00 -0.00000000000E+00 -0.21556823459E+03  0.21556823459E+03  0.00000000000E+00 0.  1.
          6    1    1    2  501    0  0.27582792792E+02 -0.84188778267E+01  0.37307262622E+03  0.41182383661E+03  0.17200000000E+03 0.  1.
         -6    1    1    2    0  503 -0.27582792792E+02  0.84188778267E+01 -0.15743519996E+03  0.23495005884E+03  0.17200000000E+03 0.  1.
</event>
<event>
 4    1  0.4539494E+000  0.1874855E+03  0.7818608E-02  0.1160749E+00
         21   -1    0    0  501  502  0.00000000000E+00  0.00000000000E+00  0.42475830496E+02  0.42475830496E+02  0.00000000000E+00 0. -1.
         21   -1    0    0  502  503 -0.00000000000E+00 -0.00000000000E+00 -0.10049774934E+04  0.10049774934E+04  0.00000000000E+00 0.  1.
          6    1    1    2  501    0  0.53999992009E+02  0.51486090458E+02 -0.26119209594E+03  0.32151536142E+03  0.17200000000E+03 0. -1.
         -6    1    1    2    0  503 -0.53999992009E+02 -0.51486090458E+02 -0.70130956693E+03  0.72593796245E+03  0.17200000000E+03 0.  1.
</event>
<event>
 4    1  0.4539494E+000  0.1894491E+03  0.7818608E-02  0.1158959E+00
         21   -1    0    0  503  502  0.00000000000E+00  0.00000000000E+00  0.42680382299E+02  0.42680382299E+02  0.00000000000E+00 0. -1.
         21   -1    0    0  501  503 -0.00000000000E+00 -0.00000000000E+00 -0.10166125716E+04  0.10166125716E+04  0.00000000000E+00 0. -1.
          6    1    1    2  501    0 -0.17028110576E+02 -0.77569248330E+02 -0.70714741989E+03  0.73208498024E+03  0.17200000000E+03 0. -1.
         -6    1    1    2    0  502  0.17028110576E+02  0.77569248330E+02 -0.26678476941E+03  0.32720797366E+03  0.17200000000E+03 0. -1.
</event>
<event>
 4    1  0.4539494E+000  0.1767266E+03  0.7818608E-02  0.1171009E+00
         21   -1    0    0  503  502  0.00000000000E+00  0.00000000000E+00  0.12295380312E+04  0.12295380312E+04  0.00000000000E+00 0.  1.
         21   -1    0    0  501  503 -0.00000000000E+00 -0.00000000000E+00 -0.92397923706E+02  0.92397923706E+02  0.00000000000E+00 0.  1.
          6    1    1    2  501    0 -0.18904762930E+01 -0.40555240550E+02  0.57434472878E+01  0.17681993277E+03  0.17200000000E+03 0.  1.
         -6    1    1    2    0  502  0.18904762930E+01  0.40555240550E+02  0.11313966602E+04  0.11451160221E+04  0.17200000000E+03 0.  1.
</event>
<event>
 4    1  0.4539494E+000  0.1956768E+03  0.7818608E-02  0.1153439E+00
         21   -1    0    0  501  502  0.00000000000E+00  0.00000000000E+00  0.23107775181E+03  0.23107775181E+03  0.00000000000E+00 0. -1.
         21   -1    0    0  502  503 -0.00000000000E+00 -0.00000000000E+00 -0.18744142094E+03  0.18744142094E+03  0.00000000000E+00 0. -1.
          6    1    1    2  501    0 -0.14409845921E+02 -0.92183231999E+02  0.93087847298E+02  0.21669042258E+03  0.17200000000E+03 0. -1.
         -6    1    1    2    0  503  0.14409845921E+02  0.92183231999E+02 -0.49451516429E+02  0.20182875018E+03  0.17200000000E+03 0. -1.
</event>
<event>
 4    1  0.4539494E+000  0.2184938E+03  0.7818608E-02  0.1135011E+00
         21   -1    0    0  503  502  0.00000000000E+00  0.00000000000E+00  0.61924093922E+03  0.61924093922E+03  0.00000000000E+00 0.  1.
         21   -1    0    0  501  503 -0.00000000000E+00 -0.00000000000E+00 -0.10358794630E+03  0.10358794630E+03  0.00000000000E+00 0. -1.
          6    1    1    2  501    0  0.17299880225E+02  0.13362737911E+03  0.75047264716E+02  0.23102305999E+03  0.17200000000E+03 0. -1.
         -6    1    1    2    0  502 -0.17299880225E+02 -0.13362737911E+03  0.44060572820E+03  0.49180582553E+03  0.17200000000E+03 0.  1.
</event>
<event>
 4    1  0.4539494E+000  0.1916202E+03  0.7818608E-02  0.1157008E+00
         21   -1    0    0  501  502  0.00000000000E+00  0.00000000000E+00  0.23411281151E+03  0.23411281151E+03  0.00000000000E+00 0.  1.
         21   -1    0    0  502  503 -0.00000000000E+00 -0.00000000000E+00 -0.23195791384E+03  0.23195791384E+03  0.00000000000E+00 0. -1.
          6    1    1    2  501    0 -0.13534023869E+02 -0.83373465856E+02  0.13369113853E+03  0.23364850766E+03  0.17200000000E+03 0.  1.
         -6    1    1    2    0  503  0.13534023869E+02  0.83373465856E+02 -0.13153624086E+03  0.23242221768E+03  0.17200000000E+03 0. -1.
</event>
<event>
 4    1  0.4539494E+000  0.2039837E+03  0.7818608E-02  0.1146421E+00
         21   -1    0    0  501  502  0.00000000000E+00  0.00000000000E+00  0.31346157718E+02  0.31346157718E+02  0.00000000000E+00 0.  1.
         21   -1    0    0  502  503 -0.00000000000E+00 -0.00000000000E+00 -0.16593110592E+04  0.16593110592E+04  0.00000000000E+00 0.  1.
          6    1    1    2  501    0  0.77649517515E+02  0.77433191645E+02 -0.43592048619E+03  0.48128579557E+03  0.17200000000E+03 0.  1.
         -6    1    1    2    0  503 -0.77649517515E+02 -0.77433191645E+02 -0.11920444153E+04  0.12093714213E+04  0.17200000000E+03 0.  1.
</event>
<event>
 4    1  0.4539494E+000  0.1982627E+03  0.7818608E-02  0.1151213E+00
         21   -1    0    0  503  502  0.00000000000E+00  0.00000000000E+00  0.22930617189E+04  0.22930617189E+04  0.00000000000E+00 0. -1.
         21   -1    0    0  501  503 -0.00000000000E+00 -0.00000000000E+00 -0.17232987924E+02  0.17232987924E+02  0.00000000000E+00 0.  1.
          6    1    1    2  501    0  0.91968511068E+01 -0.98181135098E+02  0.10540694752E+04  0.10725532975E+04  0.17200000000E+03 0. -1.
         -6    1    1    2    0  502 -0.91968511068E+01  0.98181135098E+02  0.12217592557E+04  0.12377414093E+04  0.17200000000E+03 0.  1.
</event>
<event>
 4    1  0.4539494E+000  0.2207098E+03  0.7818608E-02  0.1133355E+00
         21   -1    0    0  501  502  0.00000000000E+00  0.00000000000E+00  0.23461463971E+03  0.23461463971E+03  0.00000000000E+00 0. -1.
         21   -1    0    0  502  503 -0.00000000000E+00 -0.00000000000E+00 -0.22116198053E+03  0.22116198053E+03  0.00000000000E+00 0. -1.
          6    1    1    2  501    0 -0.10710757488E+03 -0.87502962922E+02 -0.49645700095E+02  0.22622443868E+03  0.17200000000E+03 0. -1.
         -6    1    1    2    0  503  0.10710757488E+03  0.87502962922E+02  0.63098359278E+02  0.22955218156E+03  0.17200000000E+03 0. -1.
</event>
<event>
 4    1  0.4539494E+000  0.1889835E+03  0.7818608E-02  0.1159381E+00
         21   -1    0    0  501  502  0.00000000000E+00  0.00000000000E+00  0.71162294346E+03  0.71162294346E+03  0.00000000000E+00 0. -1.
         21   -1    0    0  502  503 -0.00000000000E+00 -0.00000000000E+00 -0.18531265625E+03  0.18531265625E+03  0.00000000000E+00 0. -1.
          6    1    1    2  501    0 -0.64344101117E+02  0.44616097106E+02  0.64610897305E+03  0.67318018726E+03  0.17200000000E+03 0. -1.
         -6    1    1    2    0  503  0.64344101117E+02 -0.44616097106E+02 -0.11979868584E+03  0.22375541245E+03  0.17200000000E+03 0. -1.
</event>
<event>
 4    1  0.4539494E+000  0.2084493E+03  0.7818608E-02  0.1142800E+00
         21   -1    0    0  503  502  0.00000000000E+00  0.00000000000E+00  0.18611152583E+03  0.18611152583E+03  0.00000000000E+00 0.  1.
         21   -1    0    0  501  503 -0.00000000000E+00 -0.00000000000E+00 -0.23611448526E+03  0.23611448526E+03  0.00000000000E+00 0. -1.
          6    1    1    2  501    0  0.52848160939E+02  0.10523400345E+03 -0.47351180311E+02  0.21375981352E+03  0.17200000000E+03 0. -1.
         -6    1    1    2    0  502 -0.52848160939E+02 -0.10523400345E+03 -0.26517791182E+01  0.20846619757E+03  0.17200000000E+03 0. -1.
</event>
<event>
 4    1  0.4539494E+000  0.2766080E+03  0.7818608E-02  0.1097556E+00
         21   -1    0    0  501  502  0.00000000000E+00  0.00000000000E+00  0.49306179563E+03  0.49306179563E+03  0.00000000000E+00 0. -1.
         21   -1    0    0  502  503 -0.00000000000E+00 -0.00000000000E+00 -0.47708719512E+03  0.47708719512E+03  0.00000000000E+00 0.  1.
          6    1    1    2  501    0  0.15851728453E+03  0.14764904353E+03  0.40643998996E+03  0.49163546962E+03  0.17200000000E+03 0. -1.
         -6    1    1    2    0  503 -0.15851728453E+03 -0.14764904353E+03 -0.39046538944E+03  0.47851352113E+03  0.17200000000E+03 0.  1.
</event>
<event>
 4    1  0.4539494E+000  0.2421941E+03  0.7818608E-02  0.1118340E+00
         21   -1    0    0  501  502  0.00000000000E+00  0.00000000000E+00  0.10899221665E+03  0.10899221665E+03  0.00000000000E+00 0. -1.
         21   -1    0    0  502  503 -0.00000000000E+00 -0.00000000000E+00 -0.67589775134E+03  0.67589775134E+03  0.00000000000E+00 0.  1.
          6    1    1    2  501    0 -0.16382842419E+03 -0.47267634870E+02 -0.10630924500E+03  0.26449884206E+03  0.17200000000E+03 0. -1.
         -6    1    1    2    0  503  0.16382842419E+03  0.47267634870E+02 -0.46059628968E+03  0.52039112593E+03  0.17200000000E+03 0.  1.
</event>
<event>
 4    1  0.4539494E+000  0.1958829E+03  0.7818608E-02  0.1153260E+00
         21   -1    0    0  503  502  0.00000000000E+00  0.00000000000E+00  0.11225956543E+04  0.11225956543E+04  0.00000000000E+00 0. -1.
         21   -1    0    0  501  503 -0.00000000000E+00 -0.00000000000E+00 -0.34184467922E+02  0.34184467922E+02  0.00000000000E+00 0.  1.
          6    1    1    2  501    0  0.13321970723E+00  0.93734098052E+02  0.53744935658E+03  0.57203313695E+03  0.17200000000E+03 0. -1.
         -6    1    1    2    0  502 -0.13321970723E+00 -0.93734098052E+02  0.55096182978E+03  0.58474698525E+03  0.17200000000E+03 0.  1.
</event>
<event>
 4    1  0.4539494E+000  0.2101462E+03  0.7818608E-02  0.1141450E+00
         21   -1    0    0  503  502  0.00000000000E+00  0.00000000000E+00  0.11428161160E+04  0.11428161160E+04  0.00000000000E+00 0.  1.
         21   -1    0    0  501  503 -0.00000000000E+00 -0.00000000000E+00 -0.46131634461E+02  0.46131634461E+02  0.00000000000E+00 0.  1.
          6    1    1    2  501    0  0.11160412160E+03 -0.46064797707E+02  0.78786388136E+03  0.81540845047E+03  0.17200000000E+03 0.  1.
         -6    1    1    2    0  502 -0.11160412160E+03  0.46064797707E+02  0.30882060021E+03  0.37353930002E+03  0.17200000000E+03 0.  1.
</event>
<event>
 4    1  0.4539494E+000  0.2156838E+03  0.7818608E-02  0.1137142E+00
         21   -1    0    0  501  502  0.00000000000E+00  0.00000000000E+00  0.34645328719E+03  0.34645328719E+03  0.00000000000E+00 0. -1.
         21   -1    0    0  502  503 -0.00000000000E+00 -0.00000000000E+00 -0.15678791810E+03  0.15678791810E+03  0.00000000000E+00 0. -1.
          6    1    1    2  501    0 -0.11491841140E+03  0.61067820748E+02  0.19018243953E+03  0.28755674277E+03  0.17200000000E+03 0. -1.
         -6    1    1    2    0  503  0.11491841140E+03 -0.61067820748E+02 -0.51707043530E+00  0.21568446252E+03  0.17200000000E+03 0. -1.
</event>
<event>
 4    1  0.4539494E+000  0.1905985E+03  0.7818608E-02  0.1157923E+00
         21   -1    0    0  501  502  0.00000000000E+00  0.00000000000E+00  0.70965839597E+02  0.70965839597E+02  0.00000000000E+00 0. -1.
         21   -1    0    0  502  503 -0.00000000000E+00 -0.00000000000E+00 -0.63932973484E+03  0.63932973484E+03  0.00000000000E+00 0. -1.
          6    1    1    2  501    0 -0.54930492371E+01 -0.81936739009E+02 -0.12562959228E+03  0.22827745672E+03  0.17200000000E+03 0.  1.
         -6    1    1    2    0  503  0.54930492371E+01  0.81936739009E+02 -0.44273430296E+03  0.48201811772E+03  0.17200000000E+03 0.  1.
</event>
<event>
 4    1  0.4539494E+000  0.2121109E+03  0.7818608E-02  0.1139905E+00
         21   -1    0    0  503  502  0.00000000000E+00  0.00000000000E+00  0.52681998218E+03  0.52681998218E+03  0.00000000000E+00 0.  1.
         21   -1    0    0  501  503 -0.00000000000E+00 -0.00000000000E+00 -0.16417812713E+03  0.16417812713E+03  0.00000000000E+00 0. -1.
          6    1    1    2  501    0 -0.42386906265E+02 -0.11666361267E+03 -0.58004468871E+02  0.21989899216E+03  0.17200000000E+03 0. -1.
         -6    1    1    2    0  502  0.42386906265E+02  0.11666361267E+03  0.42064632393E+03  0.47109911715E+03  0.17200000000E+03 0.  1.
</event>
<event>
 4    1  0.4539494E+000  0.2706932E+03  0.7818608E-02  0.1100884E+00
         21   -1    0    0  503  502  0.00000000000E+00  0.00000000000E+00  0.54652372580E+03  0.54652372580E+03  0.00000000000E+00 0.  1.
         21   -1    0    0  501  503 -0.00000000000E+00 -0.00000000000E+00 -0.15428603889E+03  0.15428603889E+03  0.00000000000E+00 0. -1.
          6    1    1    2  501    0 -0.10279423213E+03 -0.18200035501E+03  0.69292718096E+02  0.27942130227E+03  0.17200000000E+03 0. -1.
         -6    1    1    2    0  502  0.10279423213E+03  0.18200035501E+03  0.32294496882E+03  0.42138846242E+03  0.17200000000E+03 0.  1.
</event>
<event>
 4    1  0.4539494E+000  0.1899669E+03  0.7818608E-02  0.1158491E+00
         21   -1    0    0  503  502  0.00000000000E+00  0.00000000000E+00  0.22560823134E+03  0.22560823134E+03  0.00000000000E+00 0.  1.
         21   -1    0    0  501  503 -0.00000000000E+00 -0.00000000000E+00 -0.16642926876E+03  0.16642926876E+03  0.00000000000E+00 0.  1.
          6    1    1    2  501    0  0.75147662786E+02  0.29261676323E+02 -0.90686286178E+01  0.19018321942E+03  0.17200000000E+03 0.  1.
         -6    1    1    2    0  502 -0.75147662786E+02 -0.29261676323E+02  0.68247591194E+02  0.20185428068E+03  0.17200000000E+03 0.  1.
</event>
<event>
 4    1  0.4539494E+000  0.3139701E+03  0.7818608E-02  0.1078458E+00
         21   -1    0    0  503  502  0.00000000000E+00  0.00000000000E+00  0.36922367133E+03  0.36922367133E+03  0.00000000000E+00 0. -1.
         21   -1    0    0  501  503 -0.00000000000E+00 -0.00000000000E+00 -0.51628732378E+03  0.51628732378E+03  0.00000000000E+00 0.  1.
          6    1    1    2  501    0  0.25965517632E+03 -0.39653769892E+02 -0.38119908089E+03  0.49385217558E+03  0.17200000000E+03 0.  1.
         -6    1    1    2    0  502 -0.25965517632E+03  0.39653769892E+02  0.23413542845E+03  0.39165881952E+03  0.17200000000E+03 0. -1.
</event>
<event>
 4    1  0.4539494E+000  0.1804248E+03  0.7818608E-02  0.1167393E+00
         21   -1    0    0  503  502  0.00000000000E+00  0.00000000000E+00  0.15227051280E+03  0.15227051280E+03  0.00000000000E+00 0. -1.
         21   -1    0    0  501  503 -0.00000000000E+00 -0.00000000000E+00 -0.21420015556E+03  0.21420015556E+03  0.00000000000E+00 0. -1.
          6    1    1    2  501    0  0.34641011195E+02  0.42060869513E+02 -0.22895712581E+02  0.18187174067E+03  0.17200000000E+03 0. -1.
         -6    1    1    2    0  502 -0.34641011195E+02 -0.42060869513E+02 -0.39033930177E+02  0.18459892769E+03  0.17200000000E+03 0. -1.
</event>
<event>
 4    1  0.4539494E+000  0.1808161E+03  0.7818608E-02  0.1167016E+00
         21   -1    0    0  503  502  0.00000000000E+00  0.00000000000E+00  0.75025145197E+03  0.75025145197E+03  0.00000000000E+00 0. -1.
         21   -1    0    0  501  503 -0.00000000000E+00 -0.00000000000E+00 -0.13024899743E+03  0.13024899743E+03  0.00000000000E+00 0. -1.
          6    1    1    2  501    0 -0.53247630395E+02  0.16587890448E+02 -0.49126762083E+02  0.18737104100E+03  0.17200000000E+03 0. -1.
         -6    1    1    2    0  502  0.53247630395E+02 -0.16587890448E+02  0.66912921662E+03  0.69312940840E+03  0.17200000000E+03 0. -1.
</event>
<event>
 4    1  0.4539494E+000  0.1725912E+03  0.7818608E-02  0.1175172E+00
         21   -1    0    0  503  502  0.00000000000E+00  0.00000000000E+00  0.14772442669E+03  0.14772442669E+03  0.00000000000E+00 0.  1.
         21   -1    0    0  501  503 -0.00000000000E+00 -0.00000000000E+00 -0.23704631221E+03  0.23704631221E+03  0.00000000000E+00 0.  1.
          6    1    1    2  501    0  0.11638810416E+02  0.82626456860E+01 -0.11900935764E+03  0.20964484355E+03  0.17200000000E+03 0.  1.
         -6    1    1    2    0  502 -0.11638810416E+02 -0.82626456860E+01  0.29687472117E+02  0.17512589535E+03  0.17200000000E+03 0.  1.
</event>
<event>
 4    1  0.4539494E+000  0.1953311E+03  0.7818608E-02  0.1153739E+00
         21   -1    0    0  501  502  0.00000000000E+00  0.00000000000E+00  0.59328681455E+03  0.59328681455E+03  0.00000000000E+00 0.  1.
         21   -1    0    0  502  503 -0.00000000000E+00 -0.00000000000E+00 -0.12045017478E+03  0.12045017478E+03  0.00000000000E+00 0.  1.
          6    1    1    2  501    0 -0.29068440838E+02  0.87893592708E+02  0.48005433280E+03  0.51827253480E+03  0.17200000000E+03 0.  1.
         -6    1    1    2    0  503  0.29068440838E+02 -0.87893592708E+02 -0.72176930305E+01  0.19546445453E+03  0.17200000000E+03 0.  1.
</event>
<event>
 4    1  0.4539494E+000  0.2237835E+03  0.7818608E-02  0.1131093E+00
         21   -1    0    0  501  502  0.00000000000E+00  0.00000000000E+00  0.13045438204E+04  0.13045438204E+04  0.00000000000E+00 0. -1.
         21   -1    0    0  502  503 -0.00000000000E+00 -0.00000000000E+00 -0.38893235471E+02  0.38893235471E+02  0.00000000000E+00 0.  1.
          6    1    1    2  501    0  0.74897942276E+02  0.12200547072E+03  0.55627823230E+03  0.59960362605E+03  0.17200000000E+03 0. -1.
         -6    1    1    2    0  503 -0.74897942276E+02 -0.12200547072E+03  0.70937235262E+03  0.74383342981E+03  0.17200000000E+03 0.  1.
</event>
<event>
 4    1  0.4539494E+000  0.1870888E+03  0.7818608E-02  0.1161114E+00
         21   -1    0    0  503  502  0.00000000000E+00  0.00000000000E+00  0.73442479788E+02  0.73442479788E+02  0.00000000000E+00 0.  1.
         21   -1    0    0  501  503 -0.00000000000E+00 -0.00000000000E+00 -0.48883028449E+03  0.48883028449E+03  0.00000000000E+00 0.  1.
          6    1    1    2  501    0  0.65528389076E+02 -0.33529972595E+02 -0.16321370153E+03  0.24827593763E+03  0.17200000000E+03 0.  1.
         -6    1    1    2    0  502 -0.65528389076E+02  0.33529972595E+02 -0.25217410317E+03  0.31399682665E+03  0.17200000000E+03 0.  1.
</event>
<event>
 4    1  0.4539494E+000  0.3692463E+03  0.7818608E-02  0.1054982E+00
         21   -1    0    0  501  502  0.00000000000E+00  0.00000000000E+00  0.32776493092E+03  0.32776493092E+03  0.00000000000E+00 0. -1.
         21   -1    0    0  502  503 -0.00000000000E+00 -0.00000000000E+00 -0.44223949880E+03  0.44223949880E+03  0.00000000000E+00 0. -1.
          6    1    1    2  501    0  0.54434034492E+02  0.32217344602E+03 -0.15105815045E+03  0.39895032053E+03  0.17200000000E+03 0. -1.
         -6    1    1    2    0  503 -0.54434034492E+02 -0.32217344602E+03  0.36583582574E+02  0.37105410919E+03  0.17200000000E+03 0. -1.
</event>
<event>
 4    1  0.4539494E+000  0.2341930E+03  0.7818608E-02  0.1123723E+00
         21   -1    0    0  503  502  0.00000000000E+00  0.00000000000E+00  0.16934152577E+04  0.16934152577E+04  0.00000000000E+00 0.  1.
         21   -1    0    0  501  503 -0.00000000000E+00 -0.00000000000E+00 -0.33076838384E+02  0.33076838384E+02  0.00000000000E+00 0.  1.
          6    1    1    2  501    0 -0.15102301347E+03  0.49542223061E+02  0.70559672329E+03  0.74344678248E+03  0.17200000000E+03 0.  1.
         -6    1    1    2    0  502  0.15102301347E+03 -0.49542223061E+02  0.95474169604E+03  0.98304531361E+03  0.17200000000E+03 0.  1.
</event>
<event>
 4    1  0.4539494E+000  0.1870841E+03  0.7818608E-02  0.1161118E+00
         21   -1    0    0  501  502  0.00000000000E+00  0.00000000000E+00  0.93337608543E+02  0.93337608543E+02  0.00000000000E+00 0.  1.
         21   -1    0    0  502  503 -0.00000000000E+00 -0.00000000000E+00 -0.46206470704E+03  0.46206470704E+03  0.00000000000E+00 0.  1.
          6    1    1    2  501    0 -0.73536428294E+02  0.29743687830E+01 -0.63810530096E+02  0.19766698487E+03  0.17200000000E+03 0.  1.
         -6    1    1    2    0  503  0.73536428294E+02 -0.29743687830E+01 -0.30491656840E+03  0.35773533072E+03  0.17200000000E+03 0.  1.
</event>
<event>
 4    1  0.4539494E+000  0.1887406E+03  0.7818608E-02  0.1159602E+00
         21   -1    0    0  503  502  0.00000000000E+00  0.00000000000E+00  0.11900685010E+04  0.11900685010E+04  0.00000000000E+00 0. -1.
         21   -1    0    0  501  503 -0.00000000000E+00 -0.00000000000E+00 -0.72683414644E+02  0.72683414644E+02  0.00000000000E+00 0. -1.
          6    1    1    2  501    0  0.41345029239E+02  0.65799703630E+02  0.74478265089E+02  0.20290397830E+03  0.17200000000E+03 0. -1.
         -6    1    1    2    0  502 -0.41345029239E+02 -0.65799703630E+02  0.10429068213E+04  0.10598479373E+04  0.17200000000E+03 0. -1.
</event>
<event>
 4    1  0.4539494E+000  0.1807823E+03  0.7818608E-02  0.1167048E+00
         21   -1    0    0  501  502  0.00000000000E+00  0.00000000000E+00  0.86192177150E+03  0.86192177150E+03  0.00000000000E+00 0.  1.
         21   -1    0    0  502  503 -0.00000000000E+00 -0.00000000000E+00 -0.42955385619E+02  0.42955385619E+02  0.00000000000E+00 0.  1.
          6    1    1    2  501    0 -0.55598368145E+02  0.26577394637E+01  0.56442149743E+03  0.59266674353E+03  0.17200000000E+03 0.  1.
         -6    1    1    2    0  503  0.55598368145E+02 -0.26577394637E+01  0.25454488845E+03  0.31221041359E+03  0.17200000000E+03 0.  1.
</event>
<event>
 4    1  0.4539494E+000  0.2757763E+03  0.7818608E-02  0.1098018E+00
         21   -1    0    0  501  502  0.00000000000E+00  0.00000000000E+00  0.56653738718E+03  0.56653738718E+03  0.00000000000E+00 0. -1.
         21   -1    0    0  502  503 -0.00000000000E+00 -0.00000000000E+00 -0.23031122921E+03  0.23031122921E+03  0.00000000000E+00 0.  1.
          6    1    1    2  501    0 -0.64146186055E+02  0.20580046024E+03  0.42543845455E+03  0.50700142133E+03  0.17200000000E+03 0. -1.
         -6    1    1    2    0  503  0.64146186055E+02 -0.20580046024E+03 -0.89212296577E+02  0.28984719506E+03  0.17200000000E+03 0.  1.
</event>
<event>
 4    1  0.4539494E+000  0.2563883E+03  0.7818608E-02  0.1109333E+00
         21   -1    0    0  503  502  0.00000000000E+00  0.00000000000E+00  0.63909944500E+03  0.63909944500E+03  0.00000000000E+00 0.  1.
         21   -1    0    0  501  503 -0.00000000000E+00 -0.00000000000E+00 -0.11935975172E+03  0.11935975172E+03  0.00000000000E+00 0.  1.
          6    1    1    2  501    0  0.10115745812E+03 -0.16099104738E+03  0.11885330966E+03  0.28259698846E+03  0.17200000000E+03 0.  1.
         -6    1    1    2    0  502 -0.10115745812E+03  0.16099104738E+03  0.40088638362E+03  0.47586220825E+03  0.17200000000E+03 0.  1.
</event>
<event>
 4    1  0.4539494E+000  0.2385687E+03  0.7818608E-02  0.1120750E+00
         21   -1    0    0  501  502  0.00000000000E+00  0.00000000000E+00  0.25667564577E+04  0.25667564577E+04  0.00000000000E+00 0.  1.
         21   -1    0    0  502  503 -0.00000000000E+00 -0.00000000000E+00 -0.24827499398E+02  0.24827499398E+02  0.00000000000E+00 0. -1.
          6    1    1    2  501    0  0.14837258325E+03  0.72914986403E+02  0.16945937042E+04  0.17113044268E+04  0.17200000000E+03 0.  1.
         -6    1    1    2    0  503 -0.14837258325E+03 -0.72914986403E+02  0.84733525407E+03  0.88027953031E+03  0.17200000000E+03 0.  1.
</event>
<event>
 4    1  0.4539494E+000  0.3601374E+03  0.7818608E-02  0.1058529E+00
         21   -1    0    0  501  502  0.00000000000E+00  0.00000000000E+00  0.37286060623E+03  0.37286060623E+03  0.00000000000E+00 0. -1.
         21   -1    0    0  502  503 -0.00000000000E+00 -0.00000000000E+00 -0.41638114835E+03  0.41638114835E+03  0.00000000000E+00 0.  1.
          6    1    1    2  501    0 -0.13640669793E+03  0.28549635882E+03  0.13833690205E+03  0.38579276382E+03  0.17200000000E+03 0. -1.
         -6    1    1    2    0  503  0.13640669793E+03 -0.28549635882E+03 -0.18185744417E+03  0.40344899076E+03  0.17200000000E+03 0.  1.
</event>
<event>
 4    1  0.4539494E+000  0.1911213E+03  0.7818608E-02  0.1157454E+00
         21   -1    0    0  501  502  0.00000000000E+00  0.00000000000E+00  0.96906604202E+02  0.96906604202E+02  0.00000000000E+00 0. -1.
         21   -1    0    0  502  503 -0.00000000000E+00 -0.00000000000E+00 -0.40632842995E+03  0.40632842995E+03  0.00000000000E+00 0. -1.
          6    1    1    2  501    0 -0.68246495501E+02 -0.47809765185E+02 -0.87034466756E+02  0.21000560992E+03  0.17200000000E+03 0. -1.
         -6    1    1    2    0  503  0.68246495501E+02  0.47809765185E+02 -0.22238735899E+03  0.29322942423E+03  0.17200000000E+03 0. -1.
</event>
<event>
 4    1  0.4539494E+000  0.2724634E+03  0.7818608E-02  0.1099878E+00
         21   -1    0    0  503  502  0.00000000000E+00  0.00000000000E+00  0.12978462475E+04  0.12978462475E+04  0.00000000000E+00 0.  1.
         21   -1    0    0  501  503 -0.00000000000E+00 -0.00000000000E+00 -0.78236552802E+03  0.78236552802E+03  0.00000000000E+00 0.  1.
          6    1    1    2  501    0 -0.58661578169E+01 -0.21122945190E+03 -0.74362230550E+03  0.79196617756E+03  0.17200000000E+03 0.  1.
         -6    1    1    2    0  502  0.58661578169E+01  0.21122945190E+03  0.12591030250E+04  0.12882455980E+04  0.17200000000E+03 0.  1.
</event>
<event>
 4    1  0.4539494E+000  0.1958298E+03  0.7818608E-02  0.1153306E+00
         21   -1    0    0  501  502  0.00000000000E+00  0.00000000000E+00  0.10824098713E+04  0.10824098713E+04  0.00000000000E+00 0.  1.
         21   -1    0    0  502  503 -0.00000000000E+00 -0.00000000000E+00 -0.40664299110E+02  0.40664299110E+02  0.00000000000E+00 0. -1.
          6    1    1    2  501    0  0.90668586414E+02  0.23335207773E+02  0.72234659206E+03  0.74842095343E+03  0.17200000000E+03 0.  1.
         -6    1    1    2    0  503 -0.90668586414E+02 -0.23335207773E+02  0.31939898017E+03  0.37465321701E+03  0.17200000000E+03 0. -1.
</event>
<event>
 4    1  0.4539494E+000  0.2664655E+03  0.7818608E-02  0.1103320E+00
         21   -1    0    0  503  502  0.00000000000E+00  0.00000000000E+00  0.17290835367E+03  0.17290835367E+03  0.00000000000E+00 0.  1.
         21   -1    0    0  501  503 -0.00000000000E+00 -0.00000000000E+00 -0.50504005948E+03  0.50504005948E+03  0.00000000000E+00 0. -1.
          6    1    1    2  501    0  0.10760251122E+02 -0.20323408377E+03 -0.31261367557E+03  0.41076901777E+03  0.17200000000E+03 0. -1.
         -6    1    1    2    0  502 -0.10760251122E+02  0.20323408377E+03 -0.19518030233E+02  0.26717939537E+03  0.17200000000E+03 0.  1.
</event>
<event>
 4    1  0.4539494E+000  0.2046091E+03  0.7818608E-02  0.1145908E+00
         21   -1    0    0  501  502  0.00000000000E+00  0.00000000000E+00  0.24583332354E+03  0.24583332354E+03  0.00000000000E+00 0.  1.
         21   -1    0    0  502  503 -0.00000000000E+00 -0.00000000000E+00 -0.17042368289E+03  0.17042368289E+03  0.00000000000E+00 0.  1.
          6    1    1    2  501    0  0.10614139146E+03  0.31857059642E+02  0.32047658409E+02  0.20710364468E+03  0.17200000000E+03 0.  1.
         -6    1    1    2    0  503 -0.10614139146E+03 -0.31857059642E+02  0.43361982238E+02  0.20915336175E+03  0.17200000000E+03 0.  1.
</event>
<event>
 4    1  0.4539494E+000  0.1806491E+03  0.7818608E-02  0.1167176E+00
         21   -1    0    0  503  502  0.00000000000E+00  0.00000000000E+00  0.38645340538E+03  0.38645340538E+03  0.00000000000E+00 0. -1.
         21   -1    0    0  501  503 -0.00000000000E+00 -0.00000000000E+00 -0.11014276175E+03  0.11014276175E+03  0.00000000000E+00 0. -1.
          6    1    1    2  501    0  0.21015948376E+02  0.51072641324E+02  0.18221286480E+02  0.18156569075E+03  0.17200000000E+03 0. -1.
         -6    1    1    2    0  502 -0.21015948376E+02 -0.51072641324E+02  0.25808935715E+03  0.31503047639E+03  0.17200000000E+03 0. -1.
</event>
<event>
 4    1  0.4539494E+000  0.1946002E+03  0.7818608E-02  0.1154376E+00
         21   -1    0    0  501  502  0.00000000000E+00  0.00000000000E+00  0.15345818361E+03  0.15345818361E+03  0.00000000000E+00 0.  1.
         21   -1    0    0  502  503 -0.00000000000E+00 -0.00000000000E+00 -0.44498944222E+03  0.44498944222E+03  0.00000000000E+00 0. -1.
          6    1    1    2  501    0 -0.65074661484E+02 -0.63643888664E+02  0.53940645257E+02  0.20193773630E+03  0.17200000000E+03 0.  1.
         -6    1    1    2    0  503  0.65074661484E+02  0.63643888664E+02 -0.34547190387E+03  0.39650988953E+03  0.17200000000E+03 0. -1.
</event>
<event>
 4    1  0.4539494E+000  0.1971058E+03  0.7818608E-02  0.1152204E+00
         21   -1    0    0  503  502  0.00000000000E+00  0.00000000000E+00  0.93123162243E+02  0.93123162243E+02  0.00000000000E+00 0.  1.
         21   -1    0    0  501  503 -0.00000000000E+00 -0.00000000000E+00 -0.47735862690E+03  0.47735862690E+03  0.00000000000E+00 0.  1.
          6    1    1    2  501    0  0.94134132685E+02 -0.20135844061E+02 -0.29338051041E+03  0.35344421206E+03  0.17200000000E+03 0.  1.
         -6    1    1    2    0  502 -0.94134132685E+02  0.20135844061E+02 -0.90854954241E+02  0.21703757707E+03  0.17200000000E+03 0.  1.
</event>
<event>
 4    1  0.4539494E+000  0.1726237E+03  0.7818608E-02  0.1175139E+00
         21   -1    0    0  501  502  0.00000000000E+00  0.00000000000E+00  0.64330119261E+02  0.64330119261E+02  0.00000000000E+00 0.  1.
         21   -1    0    0  502  503 -0.00000000000E+00 -0.00000000000E+00 -0.47882287399E+03  0.47882287399E+03  0.00000000000E+00 0.  1.
          6    1    1    2  501    0 -0.37639872050E+01  0.14169974731E+02 -0.15822154280E+03  0.23416449857E+03  0.17200000000E+03 0.  1.
         -6    1    1    2    0  503  0.37639872050E+01 -0.14169974731E+02 -0.25627121193E+03  0.30898849468E+03  0.17200000000E+03 0.  1.
</event>
<event>
 4    1  0.4539494E+000  0.2028587E+03  0.7818608E-02  0.1147349E+00
         21   -1    0    0  501  502  0.00000000000E+00  0.00000000000E+00  0.30547624321E+03  0.30547624321E+03  0.00000000000E+00 0. -1.
         21   -1    0    0  502  503 -0.00000000000E+00 -0.00000000000E+00 -0.40385797663E+03  0.40385797663E+03  0.00000000000E+00 0. -1.
          6    1    1    2  501    0 -0.90172640993E+02  0.58622197983E+02  0.24034315367E+03  0.31450993434E+03  0.17200000000E+03 0. -1.
         -6    1    1    2    0  503  0.90172640993E+02 -0.58622197983E+02 -0.33872488710E+03  0.39482428550E+03  0.17200000000E+03 0. -1.
</event>
<event>
 4    1  0.4539494E+000  0.2374284E+03  0.7818608E-02  0.1121518E+00
         21   -1    0    0  501  502  0.00000000000E+00  0.00000000000E+00  0.28419985311E+03  0.28419985311E+03  0.00000000000E+00 0. -1.
         21   -1    0    0  502  503 -0.00000000000E+00 -0.00000000000E+00 -0.25371805710E+03  0.25371805710E+03  0.00000000000E+00 0. -1.
          6    1    1    2  501    0  0.12385156436E+03 -0.10700024467E+03  0.14087950296E+03  0.27607842493E+03  0.17200000000E+03 0. -1.
         -6    1    1    2    0  503 -0.12385156436E+03  0.10700024467E+03 -0.11039770695E+03  0.26183948529E+03  0.17200000000E+03 0. -1.
</event>
<event>
 4    1  0.4539494E+000  0.1783691E+03  0.7818608E-02  0.1169391E+00
         21   -1    0    0  503  502  0.00000000000E+00  0.00000000000E+00  0.11506202024E+04  0.11506202024E+04  0.00000000000E+00 0.  1.
         21   -1    0    0  501  503 -0.00000000000E+00 -0.00000000000E+00 -0.43461788091E+02  0.43461788091E+02  0.00000000000E+00 0.  1.
          6    1    1    2  501    0 -0.49432325017E+01  0.46979692707E+02  0.19347320105E+03  0.26314901976E+03  0.17200000000E+03 0.  1.
         -6    1    1    2    0  502  0.49432325017E+01 -0.46979692707E+02  0.91368521323E+03  0.93093297071E+03  0.17200000000E+03 0.  1.
</event>
<event>
 4    1  0.4539494E+000  0.3060206E+03  0.7818608E-02  0.1082269E+00
         21   -1    0    0  501  502  0.00000000000E+00  0.00000000000E+00  0.14751896860E+03  0.14751896860E+03  0.00000000000E+00 0.  1.
         21   -1    0    0  502  503 -0.00000000000E+00 -0.00000000000E+00 -0.71647902224E+03  0.71647902224E+03  0.00000000000E+00 0. -1.
          6    1    1    2  501    0 -0.24950100682E+03  0.42589618177E+02 -0.13864171983E+03  0.33596153717E+03  0.17200000000E+03 0. -1.
         -6    1    1    2    0  503  0.24950100682E+03 -0.42589618177E+02 -0.43031833382E+03  0.52803645366E+03  0.17200000000E+03 0.  1.
</event>
<event>
 4    1  0.4539494E+000  0.1810034E+03  0.7818608E-02  0.1166835E+00
         21   -1    0    0  503  502  0.00000000000E+00  0.00000000000E+00  0.17084132111E+03  0.17084132111E+03  0.00000000000E+00 0.  1.
         21   -1    0    0  501  503 -0.00000000000E+00 -0.00000000000E+00 -0.38039659492E+03  0.38039659492E+03  0.00000000000E+00 0. -1.
          6    1    1    2  501    0  0.27159041289E+02 -0.49402497349E+02 -0.29886281596E+03  0.34940120640E+03  0.17200000000E+03 0. -1.
         -6    1    1    2    0  502 -0.27159041289E+02  0.49402497349E+02  0.89307542151E+02  0.20183670963E+03  0.17200000000E+03 0.  1.
</event>
<event>
 4    1  0.4539494E+000  0.1725655E+03  0.7818608E-02  0.1175199E+00
         21   -1    0    0  501  502  0.00000000000E+00  0.00000000000E+00  0.53769445076E+02  0.53769445076E+02  0.00000000000E+00 0.  1.
         21   -1    0    0  502  503 -0.00000000000E+00 -0.00000000000E+00 -0.75112088450E+03  0.75112088450E+03  0.00000000000E+00 0.  1.
          6    1    1    2  501    0 -0.95472029168E+01  0.10183819689E+02 -0.14241768137E+03  0.22374462057E+03  0.17200000000E+03 0.  1.
         -6    1    1    2    0  503  0.95472029168E+01 -0.10183819689E+02 -0.55493375805E+03  0.58114570901E+03  0.17200000000E+03 0.  1.
</event>
<event>
 4    1  0.4539494E+000  0.1848148E+03  0.7818608E-02  0.1163223E+00
         21   -1    0    0  501  502  0.00000000000E+00  0.00000000000E+00  0.15044932032E+03  0.15044932032E+03  0.00000000000E+00 0. -1.
         21   -1    0    0  502  503 -0.00000000000E+00 -0.00000000000E+00 -0.24406077070E+03  0.24406077070E+03  0.00000000000E+00 0. -1.
          6    1    1    2  501    0  0.59384480863E+02  0.32341670991E+02 -0.98912841611E+02  0.20961929893E+03  0.17200000000E+03 0. -1.
         -6    1    1    2    0  503 -0.59384480863E+02 -0.32341670991E+02  0.53013912271E+01  0.18489079209E+03  0.17200000000E+03 0. -1.
</event>
<event>
 4    1  0.4539494E+000  0.2131553E+03  0.7818608E-02  0.1139091E+00
         21   -1    0    0  501  502  0.00000000000E+00  0.00000000000E+00  0.62357851845E+03  0.62357851845E+03  0.00000000000E+00 0. -1.
         21   -1    0    0  502  503 -0.00000000000E+00 -0.00000000000E+00 -0.10921550206E+03  0.10921550206E+03  0.00000000000E+00 0. -1.
          6    1    1    2  501    0  0.38220158882E+02  0.11996002997E+03  0.46857070890E+03  0.51477538653E+03  0.17200000000E+03 0. -1.
         -6    1    1    2    0  503 -0.38220158882E+02 -0.11996002997E+03  0.45792307486E+02  0.21801863397E+03  0.17200000000E+03 0. -1.
</event>
<event>
 4    1  0.4539494E+000  0.1951890E+03  0.7818608E-02  0.1153863E+00
         21   -1    0    0  503  502  0.00000000000E+00  0.00000000000E+00  0.98464407625E+02  0.98464407625E+02  0.00000000000E+00 0.  1.
         21   -1    0    0  501  503 -0.00000000000E+00 -0.00000000000E+00 -0.39672756905E+03  0.39672756905E+03  0.00000000000E+00 0.  1.
          6    1    1    2  501    0 -0.84642779287E+02  0.36746936860E+02 -0.18804309566E+03  0.27103310366E+03  0.17200000000E+03 0.  1.
         -6    1    1    2    0  502  0.84642779287E+02 -0.36746936860E+02 -0.11022006576E+03  0.22415887301E+03  0.17200000000E+03 0.  1.
</event>
<event>
 4    1  0.4539494E+000  0.1740753E+03  0.7818608E-02  0.1173663E+00
         21   -1    0    0  503  502  0.00000000000E+00  0.00000000000E+00  0.24423666146E+03  0.24423666146E+03  0.00000000000E+00 0.  1.
         21   -1    0    0  501  503 -0.00000000000E+00 -0.00000000000E+00 -0.26429196786E+03  0.26429196786E+03  0.00000000000E+00 0.  1.
          6    1    1    2  501    0  0.18320245107E+02  0.19559870214E+02 -0.19523272297E+03  0.26156841556E+03  0.17200000000E+03 0.  1.
         -6    1    1    2    0  502 -0.18320245107E+02 -0.19559870214E+02  0.17517741656E+03  0.24696021375E+03  0.17200000000E+03 0.  1.
</event>
<event>
 4    1  0.4539494E+000  0.2171307E+03  0.7818608E-02  0.1136040E+00
         21   -1    0    0  503  502  0.00000000000E+00  0.00000000000E+00  0.17194913925E+04  0.17194913925E+04  0.00000000000E+00 0.  1.
         21   -1    0    0  501  503 -0.00000000000E+00 -0.00000000000E+00 -0.50671701869E+02  0.50671701869E+02  0.00000000000E+00 0.  1.
          6    1    1    2  501    0  0.12071899940E+03  0.54668804029E+02  0.23483614809E+03  0.31983397475E+03  0.17200000000E+03 0.  1.
         -6    1    1    2    0  502 -0.12071899940E+03 -0.54668804029E+02  0.14339835426E+04  0.14503291196E+04  0.17200000000E+03 0.  1.
</event>
<event>
 4    1  0.4539494E+000  0.2091842E+03  0.7818608E-02  0.1142214E+00
         21   -1    0    0  501  502  0.00000000000E+00  0.00000000000E+00  0.30900476707E+03  0.30900476707E+03  0.00000000000E+00 0. -1.
         21   -1    0    0  502  503 -0.00000000000E+00 -0.00000000000E+00 -0.14490995409E+03  0.14490995409E+03  0.00000000000E+00 0. -1.
          6    1    1    2  501    0 -0.10594620439E+03  0.54308604931E+02  0.11629889157E+03  0.23933962266E+03  0.17200000000E+03 0. -1.
         -6    1    1    2    0  503  0.10594620439E+03 -0.54308604931E+02  0.47795921407E+02  0.21457509850E+03  0.17200000000E+03 0. -1.
</event>
<event>
 4    1  0.4539494E+000  0.2074571E+03  0.7818608E-02  0.1143596E+00
         21   -1    0    0  501  502  0.00000000000E+00  0.00000000000E+00  0.38259584324E+02  0.38259584324E+02  0.00000000000E+00 0. -1.
         21   -1    0    0  502  503 -0.00000000000E+00 -0.00000000000E+00 -0.13251173245E+04  0.13251173245E+04  0.00000000000E+00 0. -1.
          6    1    1    2  501    0 -0.82393597676E+02 -0.81643965170E+02 -0.90840266219E+03  0.93179066247E+03  0.17200000000E+03 0. -1.
         -6    1    1    2    0  503  0.82393597676E+02  0.81643965170E+02 -0.37845507795E+03  0.43158624632E+03  0.17200000000E+03 0. -1.
</event>
<event>
 4    1  0.4539494E+000  0.1778977E+03  0.7818608E-02  0.1169853E+00
         21   -1    0    0  503  502  0.00000000000E+00  0.00000000000E+00  0.15693294033E+03  0.15693294033E+03  0.00000000000E+00 0.  1.
         21   -1    0    0  501  503 -0.00000000000E+00 -0.00000000000E+00 -0.21943048080E+03  0.21943048080E+03  0.00000000000E+00 0.  1.
          6    1    1    2  501    0  0.45403535163E+02 -0.14503906034E+01 -0.84796434397E+02  0.19707364087E+03  0.17200000000E+03 0.  1.
         -6    1    1    2    0  502 -0.45403535163E+02  0.14503906034E+01  0.22298893927E+02  0.17928978027E+03  0.17200000000E+03 0.  1.
</event>
